<event>
12    1  0.1556559E-007  0.1381991E+04  0.7818608E-02  0.8966958E-01
         -2   -1    0    0    0  501 -0.00000000000E+00  0.00000000000E+00  0.63512909840E+03  0.63512909840E+03  0.00000000000E+00 0.  1.
          2   -1    0    0  501    0  0.00000000000E+00 -0.00000000000E+00 -0.75177603956E+03  0.75177603956E+03  0.00000000000E+00 0. -1.
         23    2    1    2    0    0  0.15195453160E+03 -0.11014850553E+03  0.31373807500E+03  0.37671958358E+03  0.90902101191E+02 0.  0.
        254    2    1    2    0    0 -0.15195453160E+03  0.11014850553E+03 -0.43038501616E+03  0.10101855544E+04  0.89443877330E+03 0.  0.
        -24    2    4    4    0    0 -0.37541421809E+03  0.34854766198E+03 -0.43017352707E+03  0.67373881424E+03  0.80333172496E+02 0.  0.
         24    2    4    4    0    0  0.22345968649E+03 -0.23839915645E+03 -0.21148908666E+00  0.33644674014E+03  0.80174652741E+02 0.  0.
         13    1    3    3    0    0  0.14273605427E+03 -0.12177591522E+03  0.30832331652E+03  0.36092412253E+03  0.00000000000E+00 0.  1.
        -13    1    3    3    0    0  0.92184773354E+01  0.11627409684E+02  0.54147584823E+01  0.15795461049E+02  0.00000000000E+00 0. -1.
          4    1    6    6  502    0  0.10035875764E+03 -0.13044268209E+03  0.36656161575E+02  0.16861449442E+03  0.00000000000E+00 0. -1.
          3    1    5    5  503    0 -0.35074423254E+03  0.31664713036E+03 -0.36495135463E+03  0.59705645719E+03  0.00000000000E+00 0. -1.
         -4    1    5    5    0  503 -0.24669985546E+02  0.31900531625E+02 -0.65222172440E+02  0.76682357049E+02  0.00000000000E+00 0.  1.
         -3    1    6    6    0  502  0.12310092884E+03 -0.10795647435E+03 -0.36867650662E+02  0.16783224572E+03  0.00000000000E+00 0.  1.
<mgrwt>
<rscale>  0 0.13819911E+04</rscale>
<asrwt>0</asrwt>
<pdfrwt beam="1">  1        2 0.11565785E+00 0.13819911E+04</pdfrwt>
<pdfrwt beam="2">  1       -2 0.97712170E-01 0.13819911E+04</pdfrwt>
<totfact> 0.31794057E+01</totfact>
</mgrwt>
</event>
<event>
12    1  0.1556559E-007  0.1882064E+04  0.7818608E-02  0.8663836E-01
         -2   -1    0    0    0  501 -0.00000000000E+00  0.00000000000E+00  0.70819497435E+03  0.70819497435E+03  0.00000000000E+00 0.  1.
          2   -1    0    0  501    0  0.00000000000E+00 -0.00000000000E+00 -0.12504207538E+04  0.12504207538E+04  0.00000000000E+00 0. -1.
         23    2    1    2    0    0  0.51220711440E+03  0.18392137288E+03  0.29709117269E+03  0.62789688330E+03  0.99036012222E+02 0.  0.
        254    2    1    2    0    0 -0.51220711440E+03 -0.18392137288E+03 -0.83931695210E+03  0.13307188448E+04  0.87759700229E+03 0.  0.
        -24    2    4    4    0    0  0.19623558578E+03 -0.83411876776E+02 -0.47074337520E+03  0.52184454539E+03  0.72501434117E+02 0.  0.
         24    2    4    4    0    0 -0.70844270018E+03 -0.10050949611E+03 -0.36857357691E+03  0.80887429943E+03  0.80236727517E+02 0.  0.
         11    1    3    3    0    0  0.34789416405E+03  0.14443345265E+03  0.15584596802E+03  0.40765099948E+03  0.00000000000E+00 0.  1.
        -11    1    3    3    0    0  0.16431295035E+03  0.39487920230E+02  0.14124520467E+03  0.22024588382E+03  0.00000000000E+00 0. -1.
          2    1    6    6  502    0 -0.80844507486E+02  0.12746453780E+02 -0.33079607245E+02  0.88275516935E+02  0.00000000000E+00 0. -1.
          3    1    5    5  503    0  0.40534190604E+01  0.22941657007E+01 -0.61452947568E+02  0.61629198982E+02  0.00000000000E+00 0. -1.
         -4    1    5    5    0  503  0.19218216672E+03 -0.85706042477E+02 -0.40929042763E+03  0.46021534641E+03  0.00000000000E+00 0.  1.
         -1    1    6    6    0  502 -0.62759819269E+03 -0.11325594989E+03 -0.33549396966E+03  0.72059878250E+03  0.00000000000E+00 0.  1.
<mgrwt>
<rscale>  0 0.18820645E+04</rscale>
<asrwt>0</asrwt>
<pdfrwt beam="1">  1        2 0.19237242E+00 0.18820645E+04</pdfrwt>
<pdfrwt beam="2">  1       -2 0.10895307E+00 0.18820645E+04</pdfrwt>
<totfact> 0.11150533E+01</totfact>
</mgrwt>
</event>
<event>
12    1  0.1556559E-007  0.1358676E+04  0.7818608E-02  0.8984286E-01
         -1   -1    0    0    0  501 -0.00000000000E+00  0.00000000000E+00  0.26651908029E+03  0.26651908029E+03  0.00000000000E+00 0.  1.
          1   -1    0    0  501    0  0.00000000000E+00 -0.00000000000E+00 -0.17315841613E+04  0.17315841613E+04  0.00000000000E+00 0. -1.
         23    2    1    2    0    0  0.16174618032E+03  0.23930377746E+01  0.82485515988E+02  0.20349181323E+03  0.91855888369E+02 0.  0.
        254    2    1    2    0    0 -0.16174618032E+03 -0.23930377746E+01 -0.15475505970E+04  0.17946114283E+04  0.89417547217E+03 0.  0.
        -24    2    4    4    0    0  0.35238005321E+03 -0.94864284493E+02 -0.54639289088E+03  0.66255160534E+03  0.85196855380E+02 0.  0.
         24    2    4    4    0    0 -0.51412623353E+03  0.92471246718E+02 -0.10011577061E+04  0.11320598230E+04  0.79787059584E+02 0.  0.
         11    1    3    3    0    0  0.15178792831E+03  0.30484977691E+02  0.59522067458E+02  0.16586677051E+03  0.00000000000E+00 0.  1.
        -11    1    3    3    0    0  0.99582520044E+01 -0.28091939916E+02  0.22963448530E+02  0.37625042719E+02  0.00000000000E+00 0. -1.
          4    1    6    6  502    0 -0.74823863527E+01  0.94802734184E+01 -0.47267823776E+02  0.48786359304E+02  0.00000000000E+00 0. -1.
          3    1    5    5  503    0  0.37462929128E+02 -0.40022141648E+02 -0.89024895605E+02  0.10454986809E+03  0.00000000000E+00 0. -1.
         -4    1    5    5    0  503  0.31491712408E+03 -0.54842142844E+02 -0.45736799528E+03  0.55800173725E+03  0.00000000000E+00 0.  1.
         -3    1    6    6    0  502 -0.50664384717E+03  0.82990973300E+02 -0.95388988234E+03  0.10832734637E+04  0.00000000000E+00 0.  1.
<mgrwt>
<rscale>  0 0.13586761E+04</rscale>
<asrwt>0</asrwt>
<pdfrwt beam="1">  1        1 0.26639755E+00 0.13586761E+04</pdfrwt>
<pdfrwt beam="2">  1       -1 0.41002937E-01 0.13586761E+04</pdfrwt>
<totfact> 0.25825262E+01</totfact>
</mgrwt>
</event>
<event>
12    1  0.1556559E-007  0.2215246E+04  0.7818608E-02  0.8512109E-01
         -2   -1    0    0    0  501 -0.00000000000E+00  0.00000000000E+00  0.36918977264E+03  0.36918977264E+03  0.00000000000E+00 0.  1.
          2   -1    0    0  501    0  0.00000000000E+00 -0.00000000000E+00 -0.33230295556E+04  0.33230295556E+04  0.00000000000E+00 0. -1.
         23    2    1    2    0    0  0.62396975545E+03  0.44516385944E+03 -0.38550154843E+03  0.86285579701E+03  0.91649141437E+02 0.  0.
        254    2    1    2    0    0 -0.62396975545E+03 -0.44516385944E+03 -0.25683382345E+04  0.28293635312E+04  0.90632642433E+03 0.  0.
        -24    2    4    4    0    0  0.18691322268E+03 -0.28912576753E+03 -0.66400189039E+03  0.75222181081E+03  0.80055480480E+02 0.  0.
         24    2    4    4    0    0 -0.81088297813E+03 -0.15603809191E+03 -0.19043363442E+04  0.20771417204E+04  0.78369156954E+02 0.  0.
         13    1    3    3    0    0  0.64736075733E+02  0.33387134997E+02 -0.10481762012E+02  0.73588909623E+02  0.00000000000E+00 0. -1.
        -13    1    3    3    0    0  0.55923367972E+03  0.41177672444E+03 -0.37501978642E+03  0.78926688739E+03  0.00000000000E+00 0.  1.
          4    1    6    6  502    0 -0.69470386267E+03 -0.12127547680E+03 -0.16826608773E+04  0.18244639832E+04  0.00000000000E+00 0. -1.
          1    1    5    5  503    0  0.45762428934E+02 -0.83779578332E+02 -0.11601921513E+03  0.15024538571E+03  0.00000000000E+00 0. -1.
         -4    1    5    5    0  503  0.14115079374E+03 -0.20534618920E+03 -0.54798267526E+03  0.60197642510E+03  0.00000000000E+00 0.  1.
         -3    1    6    6    0  502 -0.11617911546E+03 -0.34762615106E+02 -0.22167546686E+03  0.25267773722E+03  0.00000000000E+00 0.  1.
<mgrwt>
<rscale>  0 0.22152458E+04</rscale>
<asrwt>0</asrwt>
<pdfrwt beam="1">  1        2 0.51123532E+00 0.22152458E+04</pdfrwt>
<pdfrwt beam="2">  1       -2 0.56798426E-01 0.22152458E+04</pdfrwt>
<totfact> 0.28597616E+00</totfact>
</mgrwt>
</event>
<event>
12    1  0.1556559E-007  0.1443604E+04  0.7818608E-02  0.8922847E-01
         -2   -1    0    0    0  501 -0.00000000000E+00  0.00000000000E+00  0.50240943551E+03  0.50240943551E+03  0.00000000000E+00 0.  1.
          2   -1    0    0  501    0  0.00000000000E+00 -0.00000000000E+00 -0.10369990980E+04  0.10369990980E+04  0.00000000000E+00 0. -1.
         23    2    1    2    0    0  0.21386791005E+03 -0.18013237868E+03  0.18581714965E+03  0.34825890952E+03  0.92569423462E+02 0.  0.
        254    2    1    2    0    0 -0.21386791005E+03  0.18013237868E+03 -0.72040681210E+03  0.11911496240E+04  0.90645700115E+03 0.  0.
        -24    2    4    4    0    0 -0.38474574005E+03  0.45348776453E+03 -0.35411671806E+03  0.69688445638E+03  0.81048494610E+02 0.  0.
         24    2    4    4    0    0  0.17087783001E+03 -0.27335538585E+03 -0.36629009404E+03  0.49426516757E+03  0.78785932267E+02 0.  0.
         11    1    3    3    0    0  0.36302737421E+02 -0.33598450390E+02  0.81884687675E+02  0.95665284657E+02  0.00000000000E+00 0. -1.
        -11    1    3    3    0    0  0.17756517263E+03 -0.14653392829E+03  0.10393246197E+03  0.25259362486E+03  0.00000000000E+00 0.  1.
          2    1    6    6  502    0  0.88720016644E+02 -0.15839637974E+03 -0.14798910685E+03  0.23422516990E+03  0.00000000000E+00 0. -1.
          1    1    5    5  503    0 -0.22158224423E+03  0.27117266674E+03 -0.25361525925E+03  0.43238178254E+03  0.00000000000E+00 0. -1.
         -2    1    5    5    0  503 -0.16316349582E+03  0.18231509779E+03 -0.10050145880E+03  0.26450267385E+03  0.00000000000E+00 0.  1.
         -1    1    6    6    0  502  0.82157813361E+02 -0.11495900611E+03 -0.21830098719E+03  0.26003999767E+03  0.00000000000E+00 0.  1.
<mgrwt>
<rscale>  0 0.14436040E+04</rscale>
<asrwt>0</asrwt>
<pdfrwt beam="1">  1        2 0.15953832E+00 0.14436040E+04</pdfrwt>
<pdfrwt beam="2">  1       -2 0.77293760E-01 0.14436040E+04</pdfrwt>
<totfact> 0.34568190E+01</totfact>
</mgrwt>
</event>
<event>
12    1  0.1909440E-007  0.1723687E+04  0.7818608E-02  0.8747969E-01
         -1   -1    0    0    0  501 -0.00000000000E+00  0.00000000000E+00  0.85289253616E+03  0.85289253616E+03  0.00000000000E+00 0.  1.
          1   -1    0    0  501    0  0.00000000000E+00 -0.00000000000E+00 -0.87088844892E+03  0.87088844892E+03  0.00000000000E+00 0. -1.
         23    2    1    2    0    0 -0.39753380134E+03  0.54488185668E+01 -0.49140935610E+03  0.63897496160E+03  0.93504189569E+02 0.  0.
        254    2    1    2    0    0  0.39753380134E+03 -0.54488185668E+01  0.47341344334E+03  0.10848060235E+04  0.89141517119E+03 0.  0.
        -24    2    4    4    0    0 -0.24754334928E+03 -0.15294592317E+03  0.83968690490E+02  0.31325909914E+03  0.80064705232E+02 0.  0.
         24    2    4    4    0    0  0.64507715062E+03  0.14749710460E+03  0.38944475285E+03  0.77154692434E+03  0.75746384931E+02 0.  0.
         13    1    3    3    0    0 -0.23600684104E+03 -0.20952778992E+02 -0.35012191648E+03  0.42275714585E+03  0.00000000000E+00 0. -1.
        -13    1    3    3    0    0 -0.16152696030E+03  0.26401597559E+02 -0.14128743961E+03  0.21621781575E+03  0.00000000000E+00 0.  1.
          2    1    6    6  502    0  0.56583097726E+03  0.10428890988E+03  0.34588937115E+03  0.67132728875E+03  0.00000000000E+00 0. -1.
          1    1    5    5  503    0 -0.24780270320E+03 -0.14026709560E+03  0.67795272384E+02  0.29270674195E+03  0.00000000000E+00 0. -1.
         -2    1    5    5    0  503  0.25935392282E+00 -0.12678827568E+02  0.16173418106E+02  0.20552357193E+02  0.00000000000E+00 0.  1.
         -1    1    6    6    0  502  0.79246173357E+02  0.43208194726E+02  0.43555381701E+02  0.10021963559E+03  0.00000000000E+00 0.  1.
<mgrwt>
<rscale>  0 0.17236870E+04</rscale>
<asrwt>0</asrwt>
<pdfrwt beam="1">  1        1 0.13398284E+00 0.17236870E+04</pdfrwt>
<pdfrwt beam="2">  1       -1 0.13121424E+00 0.17236870E+04</pdfrwt>
<totfact> 0.90503313E+00</totfact>
</mgrwt>
</event>
<event>
12    1  0.1556559E-007  0.1100200E+04  0.7818608E-02  0.9204997E-01
         -1   -1    0    0    0  501 -0.00000000000E+00  0.00000000000E+00  0.45625777581E+03  0.45625777581E+03  0.00000000000E+00 0.  1.
          1   -1    0    0  501    0  0.00000000000E+00 -0.00000000000E+00 -0.66324376492E+03  0.66324376492E+03  0.00000000000E+00 0. -1.
         23    2    1    2    0    0  0.14793272088E+03  0.48720078157E+02 -0.74296918021E+02  0.19578575218E+03  0.92489419961E+02 0.  0.
        254    2    1    2    0    0 -0.14793272088E+03 -0.48720078157E+02 -0.13268907109E+03  0.92371578855E+03  0.90077007750E+03 0.  0.
        -24    2    4    4    0    0  0.71167624015E+02  0.38531892926E+02 -0.48210947936E+03  0.49464276610E+03  0.75447852744E+02 0.  0.
         24    2    4    4    0    0 -0.21910034490E+03 -0.87251971083E+02  0.34942040827E+03  0.42907302245E+03  0.79944788987E+02 0.  0.
         13    1    3    3    0    0  0.11335724398E+03  0.20726103937E+02 -0.74349359687E+01  0.11547603396E+03  0.00000000000E+00 0. -1.
        -13    1    3    3    0    0  0.34575476904E+02  0.27993974220E+02 -0.66861982052E+02  0.80309718215E+02  0.00000000000E+00 0.  1.
          4    1    6    6  502    0 -0.16190834680E+03 -0.73453473811E+02  0.31273326788E+03  0.35973854731E+03  0.00000000000E+00 0. -1.
          3    1    5    5  503    0  0.42142043883E+02  0.60832855388E+02 -0.32842440139E+03  0.33665884154E+03  0.00000000000E+00 0. -1.
         -4    1    5    5    0  503  0.29025580132E+02 -0.22300962461E+02 -0.15368507798E+03  0.15798392457E+03  0.00000000000E+00 0.  1.
         -3    1    6    6    0  502 -0.57191998099E+02 -0.13798497272E+02  0.36687140388E+02  0.69334475143E+02  0.00000000000E+00 0.  1.
<mgrwt>
<rscale>  0 0.11002002E+04</rscale>
<asrwt>0</asrwt>
<pdfrwt beam="1">  1        1 0.10203750E+00 0.11002002E+04</pdfrwt>
<pdfrwt beam="2">  1       -1 0.70193504E-01 0.11002002E+04</pdfrwt>
<totfact> 0.60442464E+01</totfact>
</mgrwt>
</event>
<event>
12    1  0.1556559E-007  0.1488786E+04  0.7818608E-02  0.8891945E-01
          1   -1    0    0  501    0  0.00000000000E+00  0.00000000000E+00  0.12306346560E+04  0.12306346560E+04  0.00000000000E+00 0. -1.
         -1   -1    0    0    0  501 -0.00000000000E+00 -0.00000000000E+00 -0.45027228961E+03  0.45027228961E+03  0.00000000000E+00 0.  1.
         23    2    1    2    0    0 -0.14196496199E+03  0.34531679433E+03 -0.55100700647E+02  0.38778566699E+03  0.89128544415E+02 0.  0.
        254    2    1    2    0    0  0.14196496199E+03 -0.34531679433E+03  0.83546306702E+03  0.12931212786E+04  0.91365549631E+03 0.  0.
        -24    2    4    4    0    0  0.41760174254E+03 -0.76498264476E+02  0.76220136056E+02  0.43816256916E+03  0.77030695428E+02 0.  0.
         24    2    4    4    0    0 -0.27563678054E+03 -0.26881852986E+03  0.75924293096E+03  0.85495870944E+03  0.79155099918E+02 0.  0.
         11    1    3    3    0    0  0.38695050552E+01  0.46593991379E+02 -0.27451896175E+02  0.54217891010E+02  0.00000000000E+00 0. -1.
        -11    1    3    3    0    0 -0.14583446705E+03  0.29872280295E+03 -0.27648804472E+02  0.33356777598E+03  0.00000000000E+00 0.  1.
          2    1    6    6  502    0 -0.14784871438E+03 -0.10603949175E+03  0.41778412944E+03  0.45568321778E+03  0.00000000000E+00 0. -1.
          1    1    5    5  503    0  0.53422630229E+02 -0.29572762229E+02 -0.75836427227E+01  0.61530783543E+02  0.00000000000E+00 0. -1.
         -2    1    5    5    0  503  0.36417911231E+03 -0.46925502247E+02  0.83803778779E+02  0.37663178562E+03  0.00000000000E+00 0.  1.
         -1    1    6    6    0  502 -0.12778806617E+03 -0.16277903811E+03  0.34145880153E+03  0.39927549166E+03  0.00000000000E+00 0.  1.
<mgrwt>
<rscale>  0 0.14887857E+04</rscale>
<asrwt>0</asrwt>
<pdfrwt beam="1">  1        1 0.18932841E+00 0.14887857E+04</pdfrwt>
<pdfrwt beam="2">  1       -1 0.69272660E-01 0.14887857E+04</pdfrwt>
<totfact> 0.20716338E+01</totfact>
</mgrwt>
</event>
<event>
12    1  0.1556559E-007  0.1554770E+04  0.7818608E-02  0.8848827E-01
         -2   -1    0    0    0  501 -0.00000000000E+00  0.00000000000E+00  0.33908918830E+03  0.33908918830E+03  0.00000000000E+00 0.  1.
          2   -1    0    0  501    0  0.00000000000E+00 -0.00000000000E+00 -0.17822080210E+04  0.17822080210E+04  0.00000000000E+00 0. -1.
         23    2    1    2    0    0  0.65842092006E+02  0.36693570194E+03 -0.87680539121E+00  0.38214333347E+03  0.83998619573E+02 0.  0.
        254    2    1    2    0    0 -0.65842092006E+02 -0.36693570194E+03 -0.14422420273E+04  0.17391538759E+04  0.89756177954E+03 0.  0.
        -24    2    4    4    0    0 -0.22269055314E+03 -0.56076356088E+03 -0.13124279642E+04  0.14464839970E+04  0.76170458583E+02 0.  0.
         24    2    4    4    0    0  0.15684846113E+03  0.19382785895E+03 -0.12981406315E+03  0.29266987886E+03  0.81445001911E+02 0.  0.
         13    1    3    3    0    0  0.32011894434E+02  0.31686800230E+03  0.17568527557E+02  0.31896511632E+03  0.00000000000E+00 0.  1.
        -13    1    3    3    0    0  0.33830197572E+02  0.50067699638E+02 -0.18445332949E+02  0.63178217151E+02  0.00000000000E+00 0. -1.
          2    1    6    6  502    0  0.21809710699E+02  0.17607270166E+02 -0.48917198693E+02  0.56378823786E+02  0.00000000000E+00 0. -1.
          3    1    5    5  503    0 -0.15535227609E+02 -0.16558346074E+02 -0.84293794913E+02  0.87298144210E+02  0.00000000000E+00 0. -1.
         -4    1    5    5    0  503 -0.20715532553E+03 -0.54420521481E+03 -0.12281341693E+04  0.13591858528E+04  0.00000000000E+00 0.  1.
         -1    1    6    6    0  502  0.13503875043E+03  0.17622058878E+03 -0.80896864460E+02  0.23629105507E+03  0.00000000000E+00 0.  1.
<mgrwt>
<rscale>  0 0.15547700E+04</rscale>
<asrwt>0</asrwt>
<pdfrwt beam="1">  1        2 0.27418585E+00 0.15547700E+04</pdfrwt>
<pdfrwt beam="2">  1       -2 0.52167567E-01 0.15547700E+04</pdfrwt>
<totfact> 0.29460961E+01</totfact>
</mgrwt>
</event>
<event>
12    1  0.1556559E-007  0.2817285E+04  0.7818608E-02  0.8297922E-01
          2   -1    0    0  501    0  0.00000000000E+00  0.00000000000E+00  0.25020777918E+04  0.25020777918E+04  0.00000000000E+00 0. -1.
         -2   -1    0    0    0  501 -0.00000000000E+00 -0.00000000000E+00 -0.79305043539E+03  0.79305043539E+03  0.00000000000E+00 0.  1.
         23    2    1    2    0    0  0.72464489214E+02 -0.12410274570E+04  0.52167905132E+03  0.13512333440E+04  0.91006955858E+02 0.  0.
        254    2    1    2    0    0 -0.72464489214E+02  0.12410274570E+04  0.11873483051E+04  0.19438948832E+04  0.90748612556E+03 0.  0.
        -24    2    4    4    0    0 -0.33742679905E+03  0.21866901275E+03  0.91285674449E+02  0.41971099728E+03  0.78430000787E+02 0.  0.
         24    2    4    4    0    0  0.26496230984E+03  0.10223584443E+04  0.10960626306E+04  0.15241838859E+04  0.79758470517E+02 0.  0.
         11    1    3    3    0    0  0.31701488568E+02 -0.17771499736E+03  0.50232639091E+02  0.18737908820E+03  0.00000000000E+00 0. -1.
        -11    1    3    3    0    0  0.40763000646E+02 -0.10633124597E+04  0.47144641223E+03  0.11638542558E+04  0.00000000000E+00 0.  1.
          2    1    6    6  502    0  0.23281383747E+03  0.97036319708E+03  0.10275651745E+04  0.14323746734E+04  0.00000000000E+00 0. -1.
          1    1    5    5  503    0 -0.27446646845E+03  0.19627530634E+03  0.49863079885E+02  0.34108967285E+03  0.00000000000E+00 0. -1.
         -2    1    5    5    0  503 -0.62960330599E+02  0.22393706405E+02  0.41422594564E+02  0.78621324436E+02  0.00000000000E+00 0.  1.
         -1    1    6    6    0  502  0.32148472372E+02  0.51995247196E+02  0.68497456106E+02  0.91809212500E+02  0.00000000000E+00 0.  1.
<mgrwt>
<rscale>  0 0.28172851E+04</rscale>
<asrwt>0</asrwt>
<pdfrwt beam="1">  1        2 0.38493504E+00 0.28172851E+04</pdfrwt>
<pdfrwt beam="2">  1       -2 0.12200776E+00 0.28172851E+04</pdfrwt>
<totfact> 0.15364859E+00</totfact>
</mgrwt>
</event>
<event>
12    1  0.1889888E-007  0.1415986E+04  0.7818608E-02  0.8942328E-01
         -1   -1    0    0    0  501 -0.00000000000E+00  0.00000000000E+00  0.67699681158E+03  0.67699681158E+03  0.00000000000E+00 0. -1.
          1   -1    0    0  501    0  0.00000000000E+00 -0.00000000000E+00 -0.74040843458E+03  0.74040843458E+03  0.00000000000E+00 0.  1.
         23    2    1    2    0    0  0.72300661270E+02  0.28407191794E+03  0.36369357621E+03  0.47637167983E+03  0.93449022376E+02 0.  0.
        254    2    1    2    0    0 -0.72300661270E+02 -0.28407191794E+03 -0.42710519921E+03  0.94103356633E+03  0.78562146202E+03 0.  0.
        -24    2    4    4    0    0 -0.88544374679E+01  0.26417148031E+03 -0.19290657649E+03  0.33618962627E+03  0.77107363383E+02 0.  0.
         24    2    4    4    0    0 -0.63446223802E+02 -0.54824339825E+03 -0.23419862272E+03  0.60484394006E+03  0.79943416872E+02 0.  0.
         13    1    3    3    0    0 -0.15680374977E+02  0.22226748524E+02  0.59798496944E+02  0.65694465110E+02  0.00000000000E+00 0.  1.
        -13    1    3    3    0    0  0.87981036247E+02  0.26184516941E+03  0.30389507927E+03  0.41067721472E+03  0.00000000000E+00 0. -1.
          4    1    6    6  502    0  0.26054814185E+01 -0.12392448390E+02  0.58848333536E+01  0.13963974153E+02  0.00000000000E+00 0. -1.
          1    1    5    5  503    0 -0.22615003156E+02  0.19248255886E+02 -0.26131570199E+02  0.39557460529E+02  0.00000000000E+00 0. -1.
         -2    1    5    5    0  503  0.13760565688E+02  0.24492322443E+03 -0.16677500629E+03  0.29663216574E+03  0.00000000000E+00 0.  1.
         -3    1    6    6    0  502 -0.66051705221E+02 -0.53585094986E+03 -0.24008345607E+03  0.59087996591E+03  0.00000000000E+00 0.  1.
<mgrwt>
<rscale>  0 0.14159861E+04</rscale>
<asrwt>0</asrwt>
<pdfrwt beam="1">  1        1 0.11390899E+00 0.14159861E+04</pdfrwt>
<pdfrwt beam="2">  1       -1 0.10415336E+00 0.14159861E+04</pdfrwt>
<totfact> 0.21121757E+01</totfact>
</mgrwt>
</event>
<event>
12    1  0.1556559E-007  0.1535658E+04  0.7818608E-02  0.8861081E-01
         -2   -1    0    0    0  501 -0.00000000000E+00  0.00000000000E+00  0.26047603574E+03  0.26047603574E+03  0.00000000000E+00 0.  1.
          2   -1    0    0  501    0  0.00000000000E+00 -0.00000000000E+00 -0.22633983925E+04  0.22633983925E+04  0.00000000000E+00 0. -1.
         23    2    1    2    0    0  0.27044234374E+03  0.27676246036E+03 -0.11638128873E+04  0.12301859488E+04  0.95710560798E+02 0.  0.
        254    2    1    2    0    0 -0.27044234374E+03 -0.27676246036E+03 -0.83910946951E+03  0.12936884794E+04  0.90542181283E+03 0.  0.
        -24    2    4    4    0    0  0.20569992195E+03 -0.24252156267E+03 -0.34767856341E+01  0.32787560883E+03  0.79756884217E+02 0.  0.
         24    2    4    4    0    0 -0.47614226569E+03 -0.34240897697E+02 -0.83563268387E+03  0.96581287056E+03  0.81416351733E+02 0.  0.
         13    1    3    3    0    0  0.25631167518E+03  0.27670786871E+03 -0.10537441562E+04  0.11192138608E+04  0.00000000000E+00 0. -1.
        -13    1    3    3    0    0  0.14130668560E+02  0.54591650833E-01 -0.11006873101E+03  0.11097208802E+03  0.00000000000E+00 0.  1.
          4    1    6    6  502    0 -0.44854914057E+02  0.19474806878E+02 -0.10172706420E+03  0.11286995619E+03  0.00000000000E+00 0. -1.
          1    1    5    5  503    0  0.34618852523E+02 -0.89886569879E+02  0.16531756136E+02  0.97731056249E+02  0.00000000000E+00 0. -1.
         -2    1    5    5    0  503  0.17108106943E+03 -0.15263499279E+03 -0.20008541770E+02  0.23014455258E+03  0.00000000000E+00 0.  1.
         -3    1    6    6    0  502 -0.43128735163E+03 -0.53715704576E+02 -0.73390561967E+03  0.85294291437E+03  0.00000000000E+00 0.  1.
<mgrwt>
<rscale>  0 0.15356576E+04</rscale>
<asrwt>0</asrwt>
<pdfrwt beam="1">  1        2 0.34821513E+00 0.15356576E+04</pdfrwt>
<pdfrwt beam="2">  1       -2 0.40073237E-01 0.15356576E+04</pdfrwt>
<totfact> 0.27037524E+01</totfact>
</mgrwt>
</event>
<event>
12    1  0.1556559E-007  0.1170078E+04  0.7818608E-02  0.9139458E-01
         -2   -1    0    0    0  501 -0.00000000000E+00  0.00000000000E+00  0.27138490001E+03  0.27138490001E+03  0.00000000000E+00 0. -1.
          2   -1    0    0  501    0  0.00000000000E+00 -0.00000000000E+00 -0.12611991159E+04  0.12611991159E+04  0.00000000000E+00 0.  1.
         23    2    1    2    0    0 -0.16591514007E+03 -0.25836448260E+02 -0.37250417763E+03  0.41851627098E+03  0.90560206249E+02 0.  0.
        254    2    1    2    0    0  0.16591514007E+03  0.25836448260E+02 -0.61731003827E+03  0.11140677449E+04  0.91207450419E+03 0.  0.
        -24    2    4    4    0    0 -0.18229310251E+03  0.37580766569E+03 -0.25092040361E+03  0.49366171135E+03  0.79237992707E+02 0.  0.
         24    2    4    4    0    0  0.34820824259E+03 -0.34997121743E+03 -0.36638963466E+03  0.62040603359E+03  0.83267333884E+02 0.  0.
         13    1    3    3    0    0 -0.35705040115E+02  0.11159733322E+02 -0.23492284002E+02  0.44173260521E+02  0.00000000000E+00 0. -1.
        -13    1    3    3    0    0 -0.13021009996E+03 -0.36996181582E+02 -0.34901189363E+03  0.37434301045E+03  0.00000000000E+00 0.  1.
          4    1    6    6  502    0  0.25203882384E+03 -0.30090190334E+03 -0.28032766682E+03  0.48233714862E+03  0.00000000000E+00 0. -1.
          1    1    5    5  503    0 -0.26874466162E+02  0.12895040066E+03 -0.57962207674E+02  0.14390990335E+03  0.00000000000E+00 0. -1.
         -2    1    5    5    0  503 -0.15541863635E+03  0.24685726503E+03 -0.19295819593E+03  0.34975180800E+03  0.00000000000E+00 0.  1.
         -3    1    6    6    0  502  0.96169418746E+02 -0.49069314091E+02 -0.86061967846E+02  0.13806888497E+03  0.00000000000E+00 0.  1.
<mgrwt>
<rscale>  0 0.11700776E+04</rscale>
<asrwt>0</asrwt>
<pdfrwt beam="1">  1        2 0.19403063E+00 0.11700776E+04</pdfrwt>
<pdfrwt beam="2">  1       -2 0.41751523E-01 0.11700776E+04</pdfrwt>
<totfact> 0.93561675E+01</totfact>
</mgrwt>
</event>
<event>
12    1  0.1556559E-007  0.1632643E+04  0.7818608E-02  0.8800741E-01
          1   -1    0    0  501    0  0.00000000000E+00  0.00000000000E+00  0.24870824429E+04  0.24870824429E+04  0.00000000000E+00 0. -1.
         -1   -1    0    0    0  501 -0.00000000000E+00 -0.00000000000E+00 -0.26793678834E+03  0.26793678834E+03  0.00000000000E+00 0.  1.
         23    2    1    2    0    0 -0.17064737992E+03 -0.30343615588E+03  0.15298113197E+04  0.15715788156E+04  0.91341505747E+02 0.  0.
        254    2    1    2    0    0  0.17064737992E+03  0.30343615588E+03  0.68933433486E+03  0.11834404157E+04  0.89674710107E+03 0.  0.
        -24    2    4    4    0    0  0.35290698758E+03 -0.27574260019E+02 -0.32438255376E+02  0.36425703529E+03  0.79544111327E+02 0.  0.
         24    2    4    4    0    0 -0.18225960766E+03  0.33101041590E+03  0.72177259024E+03  0.81918338039E+03  0.85552782959E+02 0.  0.
         11    1    3    3    0    0 -0.11890548185E+02  0.39566919814E+01  0.32864468817E+02  0.35172629390E+02  0.00000000000E+00 0. -1.
        -11    1    3    3    0    0 -0.15875683174E+03 -0.30739284787E+03  0.14969468509E+04  0.15364061862E+04  0.00000000000E+00 0.  1.
          4    1    6    6  502    0 -0.73166995314E+02  0.20519172701E+03  0.45923922046E+03  0.50828900799E+03  0.00000000000E+00 0. -1.
          1    1    5    5  503    0  0.25665861410E+03 -0.31520146544E+02 -0.57110582378E+02  0.26481839523E+03  0.00000000000E+00 0. -1.
         -2    1    5    5    0  503  0.96248373480E+02  0.39458865256E+01  0.24672327002E+02  0.99438640064E+02  0.00000000000E+00 0.  1.
         -3    1    6    6    0  502 -0.10909261235E+03  0.12581868889E+03  0.26253336978E+03  0.31089437240E+03  0.00000000000E+00 0.  1.
<mgrwt>
<rscale>  0 0.16326431E+04</rscale>
<asrwt>0</asrwt>
<pdfrwt beam="1">  1        1 0.38262805E+00 0.16326431E+04</pdfrwt>
<pdfrwt beam="2">  1       -1 0.41221046E-01 0.16326431E+04</pdfrwt>
<totfact> 0.76414766E+00</totfact>
</mgrwt>
</event>
<event>
12    1  0.1556559E-007  0.1796937E+04  0.7818608E-02  0.8707930E-01
          2   -1    0    0  501    0  0.00000000000E+00  0.00000000000E+00  0.93743781978E+03  0.93743781978E+03  0.00000000000E+00 0. -1.
         -2   -1    0    0    0  501 -0.00000000000E+00 -0.00000000000E+00 -0.86111882222E+03  0.86111882222E+03  0.00000000000E+00 0.  1.
         23    2    1    2    0    0  0.29376502431E+02  0.48675309076E+03  0.48557505453E+03  0.69426441940E+03  0.91806318909E+02 0.  0.
        254    2    1    2    0    0 -0.29376502431E+02 -0.48675309076E+03 -0.40925605698E+03  0.11042922226E+04  0.90231881420E+03 0.  0.
        -24    2    4    4    0    0 -0.22617158035E+03 -0.33957764937E+02 -0.53674831536E+03  0.58876366027E+03  0.78975819496E+02 0.  0.
         24    2    4    4    0    0  0.19679507791E+03 -0.45279532583E+03  0.12749225838E+03  0.51552856233E+03  0.75917803233E+02 0.  0.
         13    1    3    3    0    0 -0.30565652111E+02  0.17747873351E+03  0.19898030922E+03  0.26837683096E+03  0.00000000000E+00 0.  1.
        -13    1    3    3    0    0  0.59942154542E+02  0.30927435725E+03  0.28659474532E+03  0.42588758844E+03  0.00000000000E+00 0. -1.
          4    1    6    6  502    0  0.11711208135E+03 -0.33194409820E+03  0.11467448724E+03  0.37020583727E+03  0.00000000000E+00 0. -1.
          3    1    5    5  503    0 -0.40002609220E+02  0.77293469551E+01 -0.17623405242E+03  0.18088226221E+03  0.00000000000E+00 0. -1.
         -4    1    5    5    0  503 -0.18616897113E+03 -0.41687111893E+02 -0.36051426294E+03  0.40788139807E+03  0.00000000000E+00 0.  1.
         -3    1    6    6    0  502  0.79682996567E+02 -0.12085122763E+03  0.12817771143E+02  0.14532272506E+03  0.00000000000E+00 0.  1.
<mgrwt>
<rscale>  0 0.17969367E+04</rscale>
<asrwt>0</asrwt>
<pdfrwt beam="1">  1        2 0.14422120E+00 0.17969367E+04</pdfrwt>
<pdfrwt beam="2">  1       -2 0.13247982E+00 0.17969367E+04</pdfrwt>
<totfact> 0.10816954E+01</totfact>
</mgrwt>
</event>
<event>
12    1  0.1556559E-007  0.1281920E+04  0.7818608E-02  0.9044027E-01
         -1   -1    0    0    0  501 -0.00000000000E+00  0.00000000000E+00  0.27950888972E+03  0.27950888972E+03  0.00000000000E+00 0.  1.
          1   -1    0    0  501    0  0.00000000000E+00 -0.00000000000E+00 -0.14698263805E+04  0.14698263805E+04  0.00000000000E+00 0. -1.
         23    2    1    2    0    0  0.28512019563E+03 -0.32710222446E+02 -0.49317589027E+03  0.57776271751E+03  0.90685249058E+02 0.  0.
        254    2    1    2    0    0 -0.28512019563E+03  0.32710222446E+02 -0.69714160050E+03  0.11715725527E+04  0.89677887490E+03 0.  0.
        -24    2    4    4    0    0  0.79764188469E+02  0.34925725447E+03 -0.66851912051E+02  0.37352764618E+03  0.81919281957E+02 0.  0.
         24    2    4    4    0    0 -0.36488438410E+03 -0.31654703202E+03 -0.63028968845E+03  0.79804490652E+03  0.79170349302E+02 0.  0.
         11    1    3    3    0    0  0.20983918406E+03 -0.11752668691E+02 -0.42471922230E+03  0.47387448357E+03  0.00000000000E+00 0. -1.
        -11    1    3    3    0    0  0.75281011565E+02 -0.20957553755E+02 -0.68456667967E+02  0.10388823394E+03  0.00000000000E+00 0.  1.
          4    1    6    6  502    0 -0.33482247855E+02 -0.37702237104E+02 -0.33034395453E+02  0.60280933030E+02  0.00000000000E+00 0. -1.
          3    1    5    5  503    0 -0.15404569833E+02  0.89101434458E+02 -0.13628117522E+02  0.91444474854E+02  0.00000000000E+00 0. -1.
         -4    1    5    5    0  503  0.95168758302E+02  0.26015582001E+03 -0.53223794529E+02  0.28208317133E+03  0.00000000000E+00 0.  1.
         -3    1    6    6    0  502 -0.33140213624E+03 -0.27884479492E+03 -0.59725529300E+03  0.73776397349E+03  0.00000000000E+00 0.  1.
<mgrwt>
<rscale>  0 0.12819197E+04</rscale>
<asrwt>0</asrwt>
<pdfrwt beam="1">  1        1 0.22612714E+00 0.12819197E+04</pdfrwt>
<pdfrwt beam="2">  1       -1 0.43001367E-01 0.12819197E+04</pdfrwt>
<totfact> 0.35994062E+01</totfact>
</mgrwt>
</event>
<event>
12    1  0.1556559E-007  0.1302077E+04  0.7818608E-02  0.9027920E-01
          2   -1    0    0  501    0  0.00000000000E+00  0.00000000000E+00  0.31751205220E+04  0.31751205220E+04  0.00000000000E+00 0. -1.
         -2   -1    0    0    0  501 -0.00000000000E+00 -0.00000000000E+00 -0.13349139058E+03  0.13349139058E+03  0.00000000000E+00 0.  1.
         23    2    1    2    0    0 -0.23528953855E+03  0.73840428263E+02  0.13193125270E+04  0.13455347723E+04  0.95208738167E+02 0.  0.
        254    2    1    2    0    0  0.23528953855E+03 -0.73840428263E+02  0.17223166045E+04  0.19630771403E+04  0.90911154264E+03 0.  0.
        -24    2    4    4    0    0  0.15943180184E+02  0.39521081729E+03  0.58170137698E+03  0.70789228797E+03  0.79304629739E+02 0.  0.
         24    2    4    4    0    0  0.21934635837E+03 -0.46905124555E+03  0.11406152275E+04  0.12551848523E+04  0.79774810912E+02 0.  0.
         11    1    3    3    0    0 -0.20682477795E+03  0.80092240158E+02  0.97113839654E+03  0.99614308256E+03  0.00000000000E+00 0.  1.
        -11    1    3    3    0    0 -0.28464760601E+02 -0.62518118947E+01  0.34817413045E+03  0.34939168974E+03  0.00000000000E+00 0. -1.
          2    1    6    6  502    0  0.79530659241E+02 -0.23480297871E+03  0.47412737217E+03  0.53502741015E+03  0.00000000000E+00 0. -1.
          3    1    5    5  503    0  0.25098655599E+02  0.15570685477E+03  0.29222957182E+03  0.33207331989E+03  0.00000000000E+00 0. -1.
         -4    1    5    5    0  503 -0.91554754150E+01  0.23950396251E+03  0.28947180516E+03  0.37581896808E+03  0.00000000000E+00 0.  1.
         -1    1    6    6    0  502  0.13981569912E+03 -0.23424826684E+03  0.66648785532E+03  0.72015744218E+03  0.00000000000E+00 0.  1.
<mgrwt>
<rscale>  0 0.13020772E+04</rscale>
<asrwt>0</asrwt>
<pdfrwt beam="1">  1        2 0.48848002E+00 0.13020772E+04</pdfrwt>
<pdfrwt beam="2">  1       -2 0.20537139E-01 0.13020772E+04</pdfrwt>
<totfact> 0.27300044E+01</totfact>
</mgrwt>
</event>
<event>
12    1  0.1556559E-007  0.2879051E+04  0.7818608E-02  0.8279138E-01
         -1   -1    0    0    0  501 -0.00000000000E+00  0.00000000000E+00  0.99191515014E+03  0.99191515014E+03  0.00000000000E+00 0.  1.
          1   -1    0    0  501    0  0.00000000000E+00 -0.00000000000E+00 -0.20891244984E+04  0.20891244984E+04  0.00000000000E+00 0. -1.
         23    2    1    2    0    0 -0.24864204209E+03  0.78029844943E+03  0.58083278900E+03  0.10084115291E+04  0.94013552563E+02 0.  0.
        254    2    1    2    0    0  0.24864204209E+03 -0.78029844943E+03 -0.16780421373E+04  0.20726281194E+04  0.89959622697E+03 0.  0.
        -24    2    4    4    0    0  0.53495884717E+03 -0.26812498840E+03 -0.65768445128E+03  0.89287247424E+03  0.81243093371E+02 0.  0.
         24    2    4    4    0    0 -0.28631680508E+03 -0.51217346102E+03 -0.10203576860E+04  0.11797556452E+04  0.79966292143E+02 0.  0.
         13    1    3    3    0    0  0.25195168761E+01  0.75783456041E+02  0.64572413750E+02  0.99594562062E+02  0.00000000000E+00 0. -1.
        -13    1    3    3    0    0 -0.25116155896E+03  0.70451499339E+03  0.51626037525E+03  0.90881696709E+03  0.00000000000E+00 0.  1.
          4    1    6    6  502    0 -0.33757802930E+02 -0.79097469593E+02 -0.10156539504E+03  0.13308466638E+03  0.00000000000E+00 0. -1.
          1    1    5    5  503    0  0.14074143634E+03 -0.55678183686E+02 -0.21713633293E+03  0.26468169396E+03  0.00000000000E+00 0. -1.
         -2    1    5    5    0  503  0.39421741083E+03 -0.21244680472E+03 -0.44054811835E+03  0.62819078027E+03  0.00000000000E+00 0.  1.
         -3    1    6    6    0  502 -0.25255900215E+03 -0.43307599143E+03 -0.91879229094E+03  0.10466709788E+04  0.00000000000E+00 0.  1.
<mgrwt>
<rscale>  0 0.28790514E+04</rscale>
<asrwt>0</asrwt>
<pdfrwt beam="1">  1        1 0.32140377E+00 0.28790514E+04</pdfrwt>
<pdfrwt beam="2">  1       -1 0.15260233E+00 0.28790514E+04</pdfrwt>
<totfact> 0.74219938E-01</totfact>
</mgrwt>
</event>
<event>
12    1  0.1556559E-007  0.2454879E+04  0.7818608E-02  0.8419239E-01
         -1   -1    0    0    0  501 -0.00000000000E+00  0.00000000000E+00  0.19246197082E+04  0.19246197082E+04  0.00000000000E+00 0.  1.
          1   -1    0    0  501    0  0.00000000000E+00 -0.00000000000E+00 -0.78280822743E+03  0.78280822743E+03  0.00000000000E+00 0. -1.
         23    2    1    2    0    0  0.29275567014E+03 -0.19450152709E+03 -0.60856655742E+03  0.70865458512E+03  0.91111688405E+02 0.  0.
        254    2    1    2    0    0 -0.29275567014E+03  0.19450152709E+03  0.17503780382E+04  0.19987733505E+04  0.89874073217E+03 0.  0.
        -24    2    4    4    0    0 -0.55912265922E+03 -0.74703844723E+02  0.91108222934E+03  0.10745793884E+04  0.80319492859E+02 0.  0.
         24    2    4    4    0    0  0.26636698908E+03  0.26920537181E+03  0.83929580889E+03  0.92419396211E+03  0.79335488309E+02 0.  0.
         11    1    3    3    0    0  0.18938089056E+03 -0.14114718921E+03 -0.48191921416E+03  0.53668778606E+03  0.00000000000E+00 0.  1.
        -11    1    3    3    0    0  0.10337477958E+03 -0.53354337880E+02 -0.12664734326E+03  0.17196679906E+03  0.00000000000E+00 0. -1.
          2    1    6    6  502    0  0.34322997033E+02  0.57564597275E+02  0.94165270736E+02  0.11558048796E+03  0.00000000000E+00 0. -1.
          3    1    5    5  503    0 -0.16224222921E+01  0.26678205362E+01  0.22650342961E+02  0.22864548033E+02  0.00000000000E+00 0. -1.
         -4    1    5    5    0  503 -0.55750023693E+03 -0.77371665259E+02  0.88843188638E+03  0.10517148404E+04  0.00000000000E+00 0.  1.
         -1    1    6    6    0  502  0.23204399205E+03  0.21164077454E+03  0.74513053815E+03  0.80861347415E+03  0.00000000000E+00 0.  1.
<mgrwt>
<rscale>  0 0.24548793E+04</rscale>
<asrwt>0</asrwt>
<pdfrwt beam="1">  1        1 0.12043203E+00 0.24548793E+04</pdfrwt>
<pdfrwt beam="2">  1       -1 0.29609534E+00 0.24548793E+04</pdfrwt>
<totfact> 0.71482082E-01</totfact>
</mgrwt>
</event>
<event>
12    1  0.1556559E-007  0.1735871E+04  0.7818608E-02  0.8741166E-01
         -1   -1    0    0    0  501 -0.00000000000E+00  0.00000000000E+00  0.48638430099E+03  0.48638430099E+03  0.00000000000E+00 0.  1.
          1   -1    0    0  501    0  0.00000000000E+00 -0.00000000000E+00 -0.15488001347E+04  0.15488001347E+04  0.00000000000E+00 0. -1.
         23    2    1    2    0    0  0.37757126807E+03 -0.48815088193E+03 -0.44584810778E+03  0.76690454601E+03  0.92253463258E+02 0.  0.
        254    2    1    2    0    0 -0.37757126807E+03  0.48815088193E+03 -0.61656772595E+03  0.12682798897E+04  0.92061217240E+03 0.  0.
        -24    2    4    4    0    0  0.15893337114E+03  0.53324161859E+03 -0.27654709914E+03  0.62631972751E+03  0.78687119490E+02 0.  0.
         24    2    4    4    0    0 -0.53650463921E+03 -0.45090736662E+02 -0.34002062682E+03  0.64196016220E+03  0.81415113880E+02 0.  0.
         11    1    3    3    0    0  0.28577483289E+03 -0.39714266353E+03 -0.39172323282E+03  0.62676681584E+03  0.00000000000E+00 0. -1.
        -11    1    3    3    0    0  0.91796435176E+02 -0.91008218398E+02 -0.54124874956E+02  0.14013773017E+03  0.00000000000E+00 0.  1.
          2    1    6    6  502    0 -0.11690181022E+03 -0.19685575487E+02 -0.38532820126E+02  0.12465285132E+03  0.00000000000E+00 0. -1.
          1    1    5    5  503    0  0.57925933451E+01  0.10558727660E+02 -0.22081764272E+02  0.25152438864E+02  0.00000000000E+00 0. -1.
         -2    1    5    5    0  503  0.15314077779E+03  0.52268289093E+03 -0.25446533487E+03  0.60116728865E+03  0.00000000000E+00 0.  1.
         -1    1    6    6    0  502 -0.41960282898E+03 -0.25405161175E+02 -0.30148780669E+03  0.51730731088E+03  0.00000000000E+00 0.  1.
<mgrwt>
<rscale>  0 0.17358710E+04</rscale>
<asrwt>0</asrwt>
<pdfrwt beam="1">  1        1 0.23827695E+00 0.17358710E+04</pdfrwt>
<pdfrwt beam="2">  1       -1 0.74828353E-01 0.17358710E+04</pdfrwt>
<totfact> 0.10314995E+01</totfact>
</mgrwt>
</event>
<event>
12    1  0.1556559E-007  0.2242294E+04  0.7818608E-02  0.8501028E-01
         -4   -1    0    0    0  501 -0.00000000000E+00  0.00000000000E+00  0.28692196963E+04  0.28692196963E+04  0.00000000000E+00 0.  1.
          4   -1    0    0  501    0  0.00000000000E+00 -0.00000000000E+00 -0.43808799354E+03  0.43808799354E+03  0.00000000000E+00 0. -1.
         23    2    1    2    0    0 -0.67927934731E+03 -0.32665477066E+03  0.19366620717E+03  0.78361476476E+03  0.91769978097E+02 0.  0.
        254    2    1    2    0    0  0.67927934731E+03  0.32665477066E+03  0.22374654956E+04  0.25236929251E+04  0.89143163801E+03 0.  0.
        -24    2    4    4    0    0 -0.20620423157E+03  0.61166697175E+01  0.36388456792E+03  0.42520769805E+03  0.76367590933E+02 0.  0.
         24    2    4    4    0    0  0.88548357888E+03  0.32053810095E+03  0.18735809277E+04  0.20984852270E+04  0.80677833915E+02 0.  0.
         13    1    3    3    0    0 -0.15522981746E+03 -0.10084488946E+03  0.15225092318E+02  0.18573581075E+03  0.00000000000E+00 0. -1.
        -13    1    3    3    0    0 -0.52404952985E+03 -0.22580988120E+03  0.17844111485E+03  0.59787895402E+03  0.00000000000E+00 0.  1.
          4    1    6    6  502    0  0.75693306495E+03  0.30051420446E+03  0.15875674144E+04  0.17842720496E+04  0.00000000000E+00 0. -1.
          3    1    5    5  503    0 -0.21144974232E+03  0.95430377148E+01  0.33989230028E+03  0.40041083762E+03  0.00000000000E+00 0. -1.
         -4    1    5    5    0  503  0.52455107463E+01 -0.34263679973E+01  0.23992267639E+02  0.24796860429E+02  0.00000000000E+00 0.  1.
         -3    1    6    6    0  502  0.12855051393E+03  0.20023896486E+02  0.28601351331E+03  0.31421317741E+03  0.00000000000E+00 0.  1.
<mgrwt>
<rscale>  0 0.22422941E+04</rscale>
<asrwt>0</asrwt>
<pdfrwt beam="1">  1        4 0.67398155E-01 0.22422941E+04</pdfrwt>
<pdfrwt beam="2">  1       -4 0.44141840E+00 0.22422941E+04</pdfrwt>
<totfact> 0.12755477E-02</totfact>
</mgrwt>
</event>
<event>
12    1  0.1556559E-007  0.1890712E+04  0.7818608E-02  0.8659494E-01
          2   -1    0    0  501    0  0.00000000000E+00  0.00000000000E+00  0.27899954325E+04  0.27899954325E+04  0.00000000000E+00 0. -1.
         -2   -1    0    0    0  501 -0.00000000000E+00 -0.00000000000E+00 -0.32032231714E+03  0.32032231714E+03  0.00000000000E+00 0.  1.
         23    2    1    2    0    0  0.19219878975E-01 -0.60098191760E+03  0.16304112972E+04  0.17400993639E+04  0.92333809995E+02 0.  0.
        254    2    1    2    0    0 -0.19219878975E-01  0.60098191760E+03  0.83926181813E+03  0.13702183857E+04  0.90108754267E+03 0.  0.
        -24    2    4    4    0    0  0.18940582106E+03  0.70606515614E+03  0.86788212833E+03  0.11373063507E+04  0.76444600736E+02 0.  0.
         24    2    4    4    0    0 -0.18942504094E+03 -0.10508323854E+03 -0.28620310198E+02  0.23291203499E+03  0.80650856983E+02 0.  0.
         11    1    3    3    0    0 -0.23948115418E+02 -0.58371498088E+02  0.21457030261E+03  0.22365410523E+03  0.00000000000E+00 0. -1.
        -11    1    3    3    0    0  0.23967335297E+02 -0.54261041951E+03  0.14158409946E+04  0.15164452586E+04  0.00000000000E+00 0.  1.
          4    1    6    6  502    0 -0.79089103351E+02 -0.40494015258E+02 -0.51986213010E+02  0.10294376078E+03  0.00000000000E+00 0. -1.
          1    1    5    5  503    0  0.63951643512E+02  0.36468906590E+03  0.46836866196E+03  0.59704030936E+03  0.00000000000E+00 0. -1.
         -2    1    5    5    0  503  0.12545417755E+03  0.34137609024E+03  0.39951346637E+03  0.54026604138E+03  0.00000000000E+00 0.  1.
         -3    1    6    6    0  502 -0.11033593759E+03 -0.64589223277E+02  0.23365902811E+02  0.12996827421E+03  0.00000000000E+00 0.  1.
<mgrwt>
<rscale>  0 0.18907118E+04</rscale>
<asrwt>0</asrwt>
<pdfrwt beam="1">  1        2 0.42923005E+00 0.18907118E+04</pdfrwt>
<pdfrwt beam="2">  1       -2 0.49280358E-01 0.18907118E+04</pdfrwt>
<totfact> 0.85837046E+00</totfact>
</mgrwt>
</event>
<event>
12    1  0.1556559E-007  0.1436224E+04  0.7818608E-02  0.8928007E-01
         -2   -1    0    0    0  501 -0.00000000000E+00  0.00000000000E+00  0.22213094436E+03  0.22213094436E+03  0.00000000000E+00 0.  1.
          2   -1    0    0  501    0  0.00000000000E+00 -0.00000000000E+00 -0.23215342065E+04  0.23215342065E+04  0.00000000000E+00 0. -1.
         23    2    1    2    0    0  0.37795071845E+03  0.16282306758E+03 -0.47978922614E+03  0.63858795602E+03  0.90767720762E+02 0.  0.
        254    2    1    2    0    0 -0.37795071845E+03 -0.16282306758E+03 -0.16196140360E+04  0.19050771949E+04  0.91477395888E+03 0.  0.
        -24    2    4    4    0    0 -0.13383148143E+03  0.89082420551E+02  0.57883529467E+02  0.18896516905E+03  0.80689460636E+02 0.  0.
         24    2    4    4    0    0 -0.24411923702E+03 -0.25190548813E+03 -0.16774975655E+04  0.17161120258E+04  0.89397014093E+02 0.  0.
         13    1    3    3    0    0  0.99600754301E+02  0.42202670519E+02 -0.70449235321E+02  0.12909093854E+03  0.00000000000E+00 0. -1.
        -13    1    3    3    0    0  0.27834996415E+03  0.12062039706E+03 -0.40933999082E+03  0.50949701748E+03  0.00000000000E+00 0.  1.
          4    1    6    6  502    0 -0.15522195878E+03 -0.16447693079E+03 -0.86370322313E+03  0.89282124465E+03  0.00000000000E+00 0. -1.
          1    1    5    5  503    0  0.57549085496E+01  0.25578204997E+02  0.45942795234E+01  0.26617117568E+02  0.00000000000E+00 0. -1.
         -2    1    5    5    0  503 -0.13958638998E+03  0.63504215553E+02  0.53289249943E+02  0.16234805148E+03  0.00000000000E+00 0.  1.
         -3    1    6    6    0  502 -0.88897278245E+02 -0.87428557340E+02 -0.81379434235E+03  0.82329078117E+03  0.00000000000E+00 0.  1.
<mgrwt>
<rscale>  0 0.14362236E+04</rscale>
<asrwt>0</asrwt>
<pdfrwt beam="1">  1        2 0.35715911E+00 0.14362236E+04</pdfrwt>
<pdfrwt beam="2">  1       -2 0.34173992E-01 0.14362236E+04</pdfrwt>
<totfact> 0.34380886E+01</totfact>
</mgrwt>
</event>
<event>
12    1  0.1556559E-007  0.1585850E+04  0.7818608E-02  0.8829289E-01
         -2   -1    0    0    0  501 -0.00000000000E+00  0.00000000000E+00  0.22501510254E+03  0.22501510254E+03  0.00000000000E+00 0.  1.
          2   -1    0    0  501    0  0.00000000000E+00 -0.00000000000E+00 -0.27941668629E+04  0.27941668629E+04  0.00000000000E+00 0. -1.
         23    2    1    2    0    0  0.41304699406E+03  0.16282642241E+03 -0.31550469580E+03  0.55224035898E+03  0.91136918267E+02 0.  0.
        254    2    1    2    0    0 -0.41304699406E+03 -0.16282642241E+03 -0.22536470645E+04  0.24669416065E+04  0.89986417584E+03 0.  0.
        -24    2    4    4    0    0  0.30948505390E+02  0.32726648345E+03 -0.74854843929E+03  0.82120344881E+03  0.77389774501E+02 0.  0.
         24    2    4    4    0    0 -0.44399549945E+03 -0.49009290586E+03 -0.15050986253E+04  0.16457381576E+04  0.76217792227E+02 0.  0.
         11    1    3    3    0    0  0.12731838934E+00  0.89164958010E+01 -0.19330755147E+02  0.21288452313E+02  0.00000000000E+00 0. -1.
        -11    1    3    3    0    0  0.41291967567E+03  0.15390992661E+03 -0.29617394065E+03  0.53095190666E+03  0.00000000000E+00 0.  1.
          2    1    6    6  502    0 -0.83438341973E+02 -0.10574952890E+03 -0.23908084322E+03  0.27441678041E+03  0.00000000000E+00 0. -1.
          1    1    5    5  503    0  0.41441096064E+02  0.32293916376E+03 -0.71153795731E+03  0.78249174604E+03  0.00000000000E+00 0. -1.
         -2    1    5    5    0  503 -0.10492590673E+02  0.43273196934E+01 -0.37010481980E+02  0.38711702767E+02  0.00000000000E+00 0.  1.
         -1    1    6    6    0  502 -0.36055715748E+03 -0.38434337696E+03 -0.12660177820E+04  0.13713213772E+04  0.00000000000E+00 0.  1.
<mgrwt>
<rscale>  0 0.15858496E+04</rscale>
<asrwt>0</asrwt>
<pdfrwt beam="1">  1        2 0.42987181E+00 0.15858496E+04</pdfrwt>
<pdfrwt beam="2">  1       -2 0.34617709E-01 0.15858496E+04</pdfrwt>
<totfact> 0.17584138E+01</totfact>
</mgrwt>
</event>
<event>
12    1  0.1556559E-007  0.1478870E+04  0.7818608E-02  0.8898627E-01
         -1   -1    0    0    0  501 -0.00000000000E+00  0.00000000000E+00  0.41936260460E+03  0.41936260460E+03  0.00000000000E+00 0.  1.
          1   -1    0    0  501    0  0.00000000000E+00 -0.00000000000E+00 -0.13037985637E+04  0.13037985637E+04  0.00000000000E+00 0. -1.
         23    2    1    2    0    0  0.32023831142E+03 -0.32319054453E+03 -0.35283636062E+03  0.58444391013E+03  0.10038168428E+03 0.  0.
        254    2    1    2    0    0 -0.32023831142E+03  0.32319054453E+03 -0.53159959849E+03  0.11387172582E+04  0.89837306104E+03 0.  0.
        -24    2    4    4    0    0  0.27484817688E+03 -0.39182450042E+02 -0.25207542537E+03  0.38352961091E+03  0.80474577660E+02 0.  0.
         24    2    4    4    0    0 -0.59508648830E+03  0.36237299457E+03 -0.27952417312E+03  0.75518764727E+03  0.82051834120E+02 0.  0.
         13    1    3    3    0    0  0.29484733429E+03 -0.32630026112E+03 -0.32651412367E+03  0.54773924809E+03  0.00000000000E+00 0. -1.
        -13    1    3    3    0    0  0.25390977130E+02  0.31097165975E+01 -0.26322236955E+02  0.36704662037E+02  0.00000000000E+00 0.  1.
          2    1    6    6  502    0 -0.70016117079E+02  0.74464149182E+02 -0.30672761722E+02  0.10671449984E+03  0.00000000000E+00 0. -1.
          1    1    5    5  503    0  0.11570833363E+03  0.16615553513E+02 -0.74390126725E+02  0.13855824062E+03  0.00000000000E+00 0. -1.
         -2    1    5    5    0  503  0.15913984325E+03 -0.55798003555E+02 -0.17768529864E+03  0.24497137030E+03  0.00000000000E+00 0.  1.
         -1    1    6    6    0  502 -0.52507037122E+03  0.28790884539E+03 -0.24885141139E+03  0.64847314743E+03  0.00000000000E+00 0.  1.
<mgrwt>
<rscale>  0 0.14788703E+04</rscale>
<asrwt>0</asrwt>
<pdfrwt beam="1">  1        1 0.20058439E+00 0.14788703E+04</pdfrwt>
<pdfrwt beam="2">  1       -1 0.64517325E-01 0.14788703E+04</pdfrwt>
<totfact> 0.21218794E+01</totfact>
</mgrwt>
</event>
<event>
12    1  0.1556559E-007  0.1562384E+04  0.7818608E-02  0.8843996E-01
         -2   -1    0    0    0  501 -0.00000000000E+00  0.00000000000E+00  0.40361866551E+03  0.40361866551E+03  0.00000000000E+00 0. -1.
          2   -1    0    0  501    0  0.00000000000E+00 -0.00000000000E+00 -0.15119748550E+04  0.15119748550E+04  0.00000000000E+00 0.  1.
         23    2    1    2    0    0  0.46351077170E+03 -0.12077326531E+03 -0.10264228358E+03  0.49829377621E+03  0.91284346594E+02 0.  0.
        254    2    1    2    0    0 -0.46351077170E+03  0.12077326531E+03 -0.10057139059E+04  0.14172997443E+04  0.87627032791E+03 0.  0.
        -24    2    4    4    0    0 -0.59074185770E+03 -0.22269967638E+02 -0.27325707231E+03  0.65601277483E+03  0.78812684711E+02 0.  0.
         24    2    4    4    0    0  0.12723108600E+03  0.14304323295E+03 -0.73245683358E+03  0.76128696947E+03  0.80098196516E+02 0.  0.
         13    1    3    3    0    0  0.37963252300E+03 -0.90715930232E+02 -0.46743212211E+02  0.39310960355E+03  0.00000000000E+00 0. -1.
        -13    1    3    3    0    0  0.83878248695E+02 -0.30057335076E+02 -0.55899071371E+02  0.10518417265E+03  0.00000000000E+00 0.  1.
          4    1    6    6  502    0  0.12915135797E+03  0.14496913497E+03 -0.64027834922E+03  0.66906837307E+03  0.00000000000E+00 0. -1.
          3    1    5    5  503    0 -0.40433498799E+03  0.42308971151E+01 -0.15157189040E+03  0.43183182023E+03  0.00000000000E+00 0. -1.
         -4    1    5    5    0  503 -0.18640686971E+03 -0.26500864753E+02 -0.12168518191E+03  0.22418095460E+03  0.00000000000E+00 0.  1.
         -3    1    6    6    0  502 -0.19202719651E+01 -0.19259020252E+01 -0.92178484357E+02  0.92218596397E+02  0.00000000000E+00 0.  1.
<mgrwt>
<rscale>  0 0.15623844E+04</rscale>
<asrwt>0</asrwt>
<pdfrwt beam="1">  1        2 0.23261151E+00 0.15623844E+04</pdfrwt>
<pdfrwt beam="2">  1       -2 0.62095180E-01 0.15623844E+04</pdfrwt>
<totfact> 0.28935063E+01</totfact>
</mgrwt>
</event>
<event>
12    1  0.1556559E-007  0.2152207E+04  0.7818608E-02  0.8538588E-01
         -2   -1    0    0    0  501 -0.00000000000E+00  0.00000000000E+00  0.71542717059E+03  0.71542717059E+03  0.00000000000E+00 0.  1.
          2   -1    0    0  501    0  0.00000000000E+00 -0.00000000000E+00 -0.16186111780E+04  0.16186111780E+04  0.00000000000E+00 0. -1.
         23    2    1    2    0    0  0.68209101246E+03  0.43778567825E+03  0.18565189031E+02  0.81566538825E+03  0.89782570589E+02 0.  0.
        254    2    1    2    0    0 -0.68209101246E+03 -0.43778567825E+03 -0.92174919644E+03  0.15183729603E+04  0.89382907549E+03 0.  0.
        -24    2    4    4    0    0 -0.87120522175E+03 -0.37675697721E+03 -0.58058787834E+03  0.11153648976E+04  0.77538455989E+02 0.  0.
         24    2    4    4    0    0  0.18911420929E+03 -0.61028701039E+02 -0.34116131810E+03  0.40300806269E+03  0.80844091422E+02 0.  0.
         11    1    3    3    0    0  0.54707698146E+03  0.39097496445E+03  0.97513459989E+01  0.67249515628E+03  0.00000000000E+00 0.  1.
        -11    1    3    3    0    0  0.13501403100E+03  0.46810713807E+02  0.88138430321E+01  0.14317023197E+03  0.00000000000E+00 0. -1.
          4    1    6    6  502    0  0.16296947128E+03 -0.80100230141E+02 -0.29956277255E+03  0.35030408239E+03  0.00000000000E+00 0. -1.
          3    1    5    5  503    0 -0.66424106202E+03 -0.26511945894E+03 -0.40516331224E+03  0.82198651180E+03  0.00000000000E+00 0. -1.
         -4    1    5    5    0  503 -0.20696415972E+03 -0.11163751827E+03 -0.17542456610E+03  0.29337838585E+03  0.00000000000E+00 0.  1.
         -3    1    6    6    0  502  0.26144738008E+02  0.19071529101E+02 -0.41598545550E+02  0.52703980302E+02  0.00000000000E+00 0.  1.
<mgrwt>
<rscale>  0 0.21522067E+04</rscale>
<asrwt>0</asrwt>
<pdfrwt beam="1">  1        2 0.24901710E+00 0.21522067E+04</pdfrwt>
<pdfrwt beam="2">  1       -2 0.11006572E+00 0.21522067E+04</pdfrwt>
<totfact> 0.65553780E+00</totfact>
</mgrwt>
</event>
<event>
12    1  0.1556559E-007  0.2408750E+04  0.7818608E-02  0.8436235E-01
         -1   -1    0    0    0  501 -0.00000000000E+00  0.00000000000E+00  0.65470210176E+03  0.65470210176E+03  0.00000000000E+00 0.  1.
          1   -1    0    0  501    0  0.00000000000E+00 -0.00000000000E+00 -0.22155400073E+04  0.22155400073E+04  0.00000000000E+00 0. -1.
         23    2    1    2    0    0 -0.49371385472E+03  0.38291148612E+03 -0.16525239056E+04  0.17685711902E+04  0.81450719925E+02 0.  0.
        254    2    1    2    0    0  0.49371385472E+03 -0.38291148612E+03  0.91686000036E+02  0.11016709189E+04  0.90271696246E+03 0.  0.
        -24    2    4    4    0    0 -0.19843819628E+03  0.27530731267E+02  0.18964291360E+03  0.28689275998E+03  0.78786814530E+02 0.  0.
         24    2    4    4    0    0  0.69215205101E+03 -0.41044221739E+03 -0.97956913569E+02  0.81477815888E+03  0.82040329974E+02 0.  0.
         13    1    3    3    0    0 -0.27773588841E+03  0.18681979903E+03 -0.97712614703E+03  0.10328670622E+04  0.00000000000E+00 0. -1.
        -13    1    3    3    0    0 -0.21597796631E+03  0.19609168709E+03 -0.67539775858E+03  0.73570412801E+03  0.00000000000E+00 0.  1.
          2    1    6    6  502    0  0.69117464790E+03 -0.41108641300E+03 -0.10194529670E+03  0.81062153707E+03  0.00000000000E+00 0. -1.
          3    1    5    5  503    0 -0.20351588328E+03  0.34530000494E+02  0.18431206839E+03  0.27673448328E+03  0.00000000000E+00 0. -1.
         -4    1    5    5    0  503  0.50776869980E+01 -0.69992692268E+01  0.53308452178E+01  0.10158276709E+02  0.00000000000E+00 0.  1.
         -1    1    6    6    0  502  0.97740310984E+00  0.64419560792E+00  0.39883831337E+01  0.41566218064E+01  0.00000000000E+00 0.  1.
<mgrwt>
<rscale>  0 0.24087496E+04</rscale>
<asrwt>0</asrwt>
<pdfrwt beam="1">  1        1 0.34085231E+00 0.24087496E+04</pdfrwt>
<pdfrwt beam="2">  1       -1 0.10072340E+00 0.24087496E+04</pdfrwt>
<totfact> 0.17842080E+00</totfact>
</mgrwt>
</event>
<event>
12    1  0.1556559E-007  0.1330535E+04  0.7818608E-02  0.9005695E-01
          1   -1    0    0  501    0  0.00000000000E+00  0.00000000000E+00  0.54913034301E+03  0.54913034301E+03  0.00000000000E+00 0. -1.
         -1   -1    0    0    0  501 -0.00000000000E+00 -0.00000000000E+00 -0.80596732548E+03  0.80596732548E+03  0.00000000000E+00 0.  1.
         23    2    1    2    0    0  0.26401069092E+03 -0.54691082012E+02  0.17200591724E+03  0.33250764735E+03  0.91008464481E+02 0.  0.
        254    2    1    2    0    0 -0.26401069092E+03  0.54691082012E+02 -0.42884289972E+03  0.10225900211E+04  0.88830814435E+03 0.  0.
        -24    2    4    4    0    0  0.14736503827E+03  0.10803124255E+03 -0.54794027437E+03  0.58341248987E+03  0.82124205832E+02 0.  0.
         24    2    4    4    0    0 -0.41137572919E+03 -0.53340160535E+02  0.11909737466E+03  0.43917753127E+03  0.81348362206E+02 0.  0.
         11    1    3    3    0    0  0.11500658429E+03 -0.69867020653E+02  0.74868174259E+02  0.15399077414E+03  0.00000000000E+00 0. -1.
        -11    1    3    3    0    0  0.14900410663E+03  0.15175938641E+02  0.97137742985E+02  0.17851687320E+03  0.00000000000E+00 0.  1.
          2    1    6    6  502    0 -0.15417784579E+03  0.20027528523E+01  0.10460707075E+02  0.15454528638E+03  0.00000000000E+00 0. -1.
          3    1    5    5  503    0  0.64738990778E+02  0.16484139468E+01 -0.15331874747E+03  0.16643464940E+03  0.00000000000E+00 0. -1.
         -4    1    5    5    0  503  0.82626047491E+02  0.10638282860E+03 -0.39462152690E+03  0.41697784047E+03  0.00000000000E+00 0.  1.
         -3    1    6    6    0  502 -0.25719788340E+03 -0.55342913388E+02  0.10863666758E+03  0.28463224489E+03  0.00000000000E+00 0.  1.
<mgrwt>
<rscale>  0 0.13305354E+04</rscale>
<asrwt>0</asrwt>
<pdfrwt beam="1">  1        1 0.84481592E-01 0.13305354E+04</pdfrwt>
<pdfrwt beam="2">  1       -1 0.12399497E+00 0.13305354E+04</pdfrwt>
<totfact> 0.21768310E+01</totfact>
</mgrwt>
</event>
<event>
12    1  0.1556559E-007  0.1970432E+04  0.7818608E-02  0.8620571E-01
         -2   -1    0    0    0  501 -0.00000000000E+00  0.00000000000E+00  0.12424257379E+04  0.12424257379E+04  0.00000000000E+00 0.  1.
          2   -1    0    0  501    0  0.00000000000E+00 -0.00000000000E+00 -0.78125451856E+03  0.78125451856E+03  0.00000000000E+00 0. -1.
         23    2    1    2    0    0 -0.33826467655E+03 -0.66369299644E+03 -0.59806488938E+01  0.75021715156E+03  0.88761598744E+02 0.  0.
        254    2    1    2    0    0  0.33826467655E+03  0.66369299644E+03  0.46715186824E+03  0.12734631049E+04  0.92117643622E+03 0.  0.
        -24    2    4    4    0    0 -0.30567304561E+03  0.31663023090E+03  0.16075608556E+03  0.47637358604E+03  0.86014885335E+02 0.  0.
         24    2    4    4    0    0  0.64393772216E+03  0.34706276554E+03  0.30639578269E+03  0.79708951888E+03  0.79780775964E+02 0.  0.
         13    1    3    3    0    0 -0.96345383069E+02 -0.19196469689E+03  0.38506178046E+02  0.21820999849E+03  0.00000000000E+00 0.  1.
        -13    1    3    3    0    0 -0.24191929348E+03 -0.47172829954E+03 -0.44486826940E+02  0.53200715307E+03  0.00000000000E+00 0. -1.
          2    1    6    6  502    0  0.49438477898E+03  0.24143944736E+03  0.20053051257E+03  0.58559525519E+03  0.00000000000E+00 0. -1.
          1    1    5    5  503    0 -0.22702565501E+03  0.26686354387E+03  0.15501177608E+03  0.38312589289E+03  0.00000000000E+00 0. -1.
         -2    1    5    5    0  503 -0.78647390601E+02  0.49766687022E+02  0.57443094830E+01  0.93247693145E+02  0.00000000000E+00 0.  1.
         -1    1    6    6    0  502  0.14955294318E+03  0.10562331818E+03  0.10586527011E+03  0.21149426369E+03  0.00000000000E+00 0.  1.
<mgrwt>
<rscale>  0 0.19704322E+04</rscale>
<asrwt>0</asrwt>
<pdfrwt beam="1">  1        2 0.12019300E+00 0.19704322E+04</pdfrwt>
<pdfrwt beam="2">  1       -2 0.19114242E+00 0.19704322E+04</pdfrwt>
<totfact> 0.50386572E+00</totfact>
</mgrwt>
</event>
<event>
12    1  0.1556559E-007  0.2152659E+04  0.7818608E-02  0.8538395E-01
         -1   -1    0    0    0  501 -0.00000000000E+00  0.00000000000E+00  0.22487226013E+04  0.22487226013E+04  0.00000000000E+00 0.  1.
          1   -1    0    0  501    0  0.00000000000E+00 -0.00000000000E+00 -0.51517479121E+03  0.51517479121E+03  0.00000000000E+00 0. -1.
         23    2    1    2    0    0  0.69139296444E+03 -0.19299774542E+03  0.79894312033E+02  0.72833543317E+03  0.93899100678E+02 0.  0.
        254    2    1    2    0    0 -0.69139296444E+03  0.19299774542E+03  0.16536534981E+04  0.20355619594E+04  0.94534133395E+03 0.  0.
        -24    2    4    4    0    0  0.72588173730E+02 -0.26378959179E+03  0.50594675549E+03  0.58091472687E+03  0.81399071253E+02 0.  0.
         24    2    4    4    0    0 -0.76398113817E+03  0.45678733721E+03  0.11477067426E+04  0.14546472325E+04  0.80286693184E+02 0.  0.
         11    1    3    3    0    0  0.56589644001E+03 -0.14404900777E+03  0.99023966904E+02  0.59227919386E+03  0.00000000000E+00 0.  1.
        -11    1    3    3    0    0  0.12549652443E+03 -0.48948737652E+02 -0.19129654870E+02  0.13605623932E+03  0.00000000000E+00 0. -1.
          2    1    6    6  502    0 -0.46041552734E+02  0.52267044206E+02  0.92380140079E+02  0.11569683993E+03  0.00000000000E+00 0. -1.
          1    1    5    5  503    0  0.63644487554E+01  0.40604710365E+01  0.51467024897E+01  0.91368582957E+01  0.00000000000E+00 0. -1.
         -2    1    5    5    0  503  0.66223724974E+02 -0.26785006282E+03  0.50080005300E+03  0.57177786857E+03  0.00000000000E+00 0.  1.
         -1    1    6    6    0  502 -0.71793958543E+03  0.40452029301E+03  0.10553266025E+04  0.13389503926E+04  0.00000000000E+00 0.  1.
<mgrwt>
<rscale>  0 0.21526590E+04</rscale>
<asrwt>0</asrwt>
<pdfrwt beam="1">  1        1 0.79257661E-01 0.21526590E+04</pdfrwt>
<pdfrwt beam="2">  1       -1 0.34595732E+00 0.21526590E+04</pdfrwt>
<totfact> 0.64395935E-01</totfact>
</mgrwt>
</event>
<event>
12    1  0.1556559E-007  0.1243220E+04  0.7818608E-02  0.9075845E-01
         -1   -1    0    0    0  501 -0.00000000000E+00  0.00000000000E+00  0.11855785638E+04  0.11855785638E+04  0.00000000000E+00 0.  1.
          1   -1    0    0  501    0  0.00000000000E+00 -0.00000000000E+00 -0.32591578107E+03  0.32591578107E+03  0.00000000000E+00 0. -1.
         23    2    1    2    0    0  0.92748984979E+02  0.32742048996E+02 -0.11950038744E+03  0.17969243897E+03  0.91294107352E+02 0.  0.
        254    2    1    2    0    0 -0.92748984979E+02 -0.32742048996E+02  0.97916317020E+03  0.13318019059E+04  0.89736357558E+03 0.  0.
        -24    2    4    4    0    0 -0.45507662638E+03 -0.78423171538E+02  0.77485111296E+03  0.90561921186E+03  0.80665853515E+02 0.  0.
         24    2    4    4    0    0  0.36232764140E+03  0.45681122542E+02  0.20431205724E+03  0.42618269407E+03  0.80747676841E+02 0.  0.
         13    1    3    3    0    0 -0.95792277690E+01 -0.16155794777E+02 -0.29216845211E+02  0.34733202467E+02  0.00000000000E+00 0.  1.
        -13    1    3    3    0    0  0.10232821275E+03  0.48897843773E+02 -0.90283542234E+02  0.14495923650E+03  0.00000000000E+00 0. -1.
          4    1    6    6  502    0  0.35183333658E+03  0.41473058181E+02  0.17575751528E+03  0.39547113101E+03  0.00000000000E+00 0. -1.
          1    1    5    5  503    0 -0.30814863999E+03 -0.15018588313E+02  0.49640817798E+03  0.58446746828E+03  0.00000000000E+00 0. -1.
         -2    1    5    5    0  503 -0.14692798639E+03 -0.63404583225E+02  0.27844293498E+03  0.32115174358E+03  0.00000000000E+00 0.  1.
         -3    1    6    6    0  502  0.10494304815E+02  0.42080643616E+01  0.28554541956E+02  0.30711563059E+02  0.00000000000E+00 0.  1.
<mgrwt>
<rscale>  0 0.12432196E+04</rscale>
<asrwt>0</asrwt>
<pdfrwt beam="1">  1        1 0.50140890E-01 0.12432196E+04</pdfrwt>
<pdfrwt beam="2">  1       -1 0.18239670E+00 0.12432196E+04</pdfrwt>
<totfact> 0.15524597E+01</totfact>
</mgrwt>
</event>
<event>
12    1  0.1556559E-007  0.1918712E+04  0.7818608E-02  0.8645598E-01
         -1   -1    0    0    0  501 -0.00000000000E+00  0.00000000000E+00  0.26721714184E+04  0.26721714184E+04  0.00000000000E+00 0.  1.
          1   -1    0    0  501    0  0.00000000000E+00 -0.00000000000E+00 -0.34442561445E+03  0.34442561445E+03  0.00000000000E+00 0. -1.
         23    2    1    2    0    0  0.30527065140E+03 -0.30952433777E+03  0.18576403111E+04  0.19100713359E+04  0.92463486866E+02 0.  0.
        254    2    1    2    0    0 -0.30527065140E+03  0.30952433777E+03  0.47010549283E+03  0.11065256970E+04  0.90244360343E+03 0.  0.
        -24    2    4    4    0    0 -0.17367677662E+02  0.54517146816E+03  0.47260482531E+03  0.72617998341E+03  0.80426870342E+02 0.  0.
         24    2    4    4    0    0 -0.28790297374E+03 -0.23564713039E+03 -0.24993324796E+01  0.38034571355E+03  0.78986852118E+02 0.  0.
         13    1    3    3    0    0  0.30919481423E+03 -0.30063656324E+03  0.18406790921E+04  0.18905246088E+04  0.00000000000E+00 0.  1.
        -13    1    3    3    0    0 -0.39241628279E+01 -0.88877745370E+01  0.16961219028E+02  0.19546727118E+02  0.00000000000E+00 0. -1.
          4    1    6    6  502    0 -0.21870454738E+03 -0.13947140250E+03  0.18360842659E+02  0.26004051935E+03  0.00000000000E+00 0. -1.
          3    1    5    5  503    0 -0.36374682871E+02  0.49843003710E+03  0.44195031653E+03  0.66713994163E+03  0.00000000000E+00 0. -1.
         -4    1    5    5    0  503  0.19007005209E+02  0.46741431060E+02  0.30654508779E+02  0.59040041777E+02  0.00000000000E+00 0.  1.
         -3    1    6    6    0  502 -0.69198426354E+02 -0.96175727890E+02 -0.20860175139E+02  0.12030519420E+03  0.00000000000E+00 0.  1.
<mgrwt>
<rscale>  0 0.19187124E+04</rscale>
<asrwt>0</asrwt>
<pdfrwt beam="1">  1        1 0.52988558E-01 0.19187124E+04</pdfrwt>
<pdfrwt beam="2">  1       -1 0.41110328E+00 0.19187124E+04</pdfrwt>
<totfact> 0.41115341E-01</totfact>
</mgrwt>
</event>
<event>
12    1  0.1556559E-007  0.1517367E+04  0.7818608E-02  0.8872985E-01
         -2   -1    0    0    0  501 -0.00000000000E+00  0.00000000000E+00  0.33279501216E+03  0.33279501216E+03  0.00000000000E+00 0.  1.
          2   -1    0    0  501    0  0.00000000000E+00 -0.00000000000E+00 -0.17295963048E+04  0.17295963048E+04  0.00000000000E+00 0. -1.
         23    2    1    2    0    0 -0.43437566127E+03 -0.20762079142E+03 -0.42141458692E+03  0.64792663427E+03  0.10212767105E+03 0.  0.
        254    2    1    2    0    0  0.43437566127E+03  0.20762079142E+03 -0.97538670575E+03  0.14144646827E+04  0.90418057088E+03 0.  0.
        -24    2    4    4    0    0  0.23843162924E+03  0.53953996268E+03 -0.76092970890E+03  0.96606316140E+03  0.79441782220E+02 0.  0.
         24    2    4    4    0    0  0.19594403203E+03 -0.33191917127E+03 -0.21445699684E+03  0.44840152131E+03  0.80670446112E+02 0.  0.
         13    1    3    3    0    0 -0.33400079281E+02 -0.28766982441E+02 -0.81540830471E+02  0.92693104428E+02  0.00000000000E+00 0.  1.
        -13    1    3    3    0    0 -0.40097558199E+03 -0.17885380897E+03 -0.33987375645E+03  0.55523352984E+03  0.00000000000E+00 0. -1.
          2    1    6    6  502    0  0.12216326847E+03 -0.27320591621E+03 -0.15652821587E+03  0.33773720432E+03  0.00000000000E+00 0. -1.
          1    1    5    5  503    0  0.17616857110E+02  0.32078753747E+02 -0.21432754570E+02  0.42411826946E+02  0.00000000000E+00 0. -1.
         -2    1    5    5    0  503  0.22081477213E+03  0.50746120894E+03 -0.73949695433E+03  0.92365133445E+03  0.00000000000E+00 0.  1.
         -1    1    6    6    0  502  0.73780763560E+02 -0.58713255057E+02 -0.57928780979E+02  0.11066431700E+03  0.00000000000E+00 0.  1.
<mgrwt>
<rscale>  0 0.15173675E+04</rscale>
<asrwt>0</asrwt>
<pdfrwt beam="1">  1        2 0.26609175E+00 0.15173675E+04</pdfrwt>
<pdfrwt beam="2">  1       -2 0.51199231E-01 0.15173675E+04</pdfrwt>
<totfact> 0.32841048E+01</totfact>
</mgrwt>
</event>
<event>
12    1  0.1556559E-007  0.1278549E+04  0.7818608E-02  0.9046751E-01
          1   -1    0    0  501    0  0.00000000000E+00  0.00000000000E+00  0.92052548990E+03  0.92052548990E+03  0.00000000000E+00 0. -1.
         -1   -1    0    0    0  501 -0.00000000000E+00 -0.00000000000E+00 -0.44395509577E+03  0.44395509577E+03  0.00000000000E+00 0.  1.
         23    2    1    2    0    0  0.11044076196E+03 -0.23651483152E+03 -0.93134589701E+02  0.29215852560E+03  0.92445253257E+02 0.  0.
        254    2    1    2    0    0 -0.11044076196E+03  0.23651483152E+03  0.56970498383E+03  0.10723220601E+04  0.87015768944E+03 0.  0.
        -24    2    4    4    0    0  0.33581838578E+03  0.29061768039E+03  0.29937990515E+03  0.54147814817E+03  0.79609251710E+02 0.  0.
         24    2    4    4    0    0 -0.44625914773E+03 -0.54102848873E+02  0.27032507868E+03  0.53084391190E+03  0.81518497545E+02 0.  0.
         13    1    3    3    0    0  0.67219293354E+02 -0.13248859902E+03 -0.41820683223E+01  0.14862419710E+03  0.00000000000E+00 0. -1.
        -13    1    3    3    0    0  0.43221468601E+02 -0.10402623250E+03 -0.88952521378E+02  0.14353432849E+03  0.00000000000E+00 0.  1.
          4    1    6    6  502    0 -0.25924346632E+02  0.12562464824E+02  0.32047545825E+02  0.43092139238E+02  0.00000000000E+00 0. -1.
          3    1    5    5  503    0  0.12295401727E+03  0.97186267019E+02  0.61979080473E+02  0.16853565580E+03  0.00000000000E+00 0. -1.
         -4    1    5    5    0  503  0.21286436851E+03  0.19343141337E+03  0.23740082468E+03  0.37294249238E+03  0.00000000000E+00 0.  1.
         -3    1    6    6    0  502 -0.42033480110E+03 -0.66665313696E+02  0.23827753286E+03  0.48775177266E+03  0.00000000000E+00 0.  1.
<mgrwt>
<rscale>  0 0.12785491E+04</rscale>
<asrwt>0</asrwt>
<pdfrwt beam="1">  1        1 0.14161931E+00 0.12785491E+04</pdfrwt>
<pdfrwt beam="2">  1       -1 0.68300784E-01 0.12785491E+04</pdfrwt>
<totfact> 0.37392123E+01</totfact>
</mgrwt>
</event>
<event>
12    1  0.1556559E-007  0.1513355E+04  0.7818608E-02  0.8875620E-01
         -2   -1    0    0    0  501 -0.00000000000E+00  0.00000000000E+00  0.57470603217E+03  0.57470603217E+03  0.00000000000E+00 0.  1.
          2   -1    0    0  501    0  0.00000000000E+00 -0.00000000000E+00 -0.99626752194E+03  0.99626752194E+03  0.00000000000E+00 0. -1.
         23    2    1    2    0    0 -0.35703663039E+03 -0.26828461549E+03 -0.40138876130E+03  0.61024261062E+03  0.10877185193E+03 0.  0.
        254    2    1    2    0    0  0.35703663039E+03  0.26828461549E+03 -0.20172728470E+02  0.96073094349E+03  0.85037945440E+03 0.  0.
        -24    2    4    4    0    0  0.60947260718E+03  0.80953947978E+02 -0.96865096029E+02  0.62735300802E+03  0.78603748318E+02 0.  0.
         24    2    4    4    0    0 -0.25243597679E+03  0.18733066752E+03  0.76692367559E+02  0.33337793547E+03  0.80264732276E+02 0.  0.
         11    1    3    3    0    0 -0.27278909047E+03 -0.25503996373E+03 -0.31113628732E+03  0.48607104446E+03  0.00000000000E+00 0. -1.
        -11    1    3    3    0    0 -0.84247539919E+02 -0.13244651764E+02 -0.90252473980E+02  0.12417156616E+03  0.00000000000E+00 0.  1.
          4    1    6    6  502    0 -0.31391671483E+02  0.57010513982E+02  0.33396358072E+02  0.73150204891E+02  0.00000000000E+00 0. -1.
          3    1    5    5  503    0  0.10325178047E+03  0.13558989697E+02  0.13104560768E+02  0.10495954404E+03  0.00000000000E+00 0. -1.
         -4    1    5    5    0  503  0.50622082670E+03  0.67394958281E+02 -0.10996965680E+03  0.52239346398E+03  0.00000000000E+00 0.  1.
         -3    1    6    6    0  502 -0.22104430531E+03  0.13032015353E+03  0.43296009487E+02  0.26022773058E+03  0.00000000000E+00 0.  1.
<mgrwt>
<rscale>  0 0.15133552E+04</rscale>
<asrwt>0</asrwt>
<pdfrwt beam="1">  1        2 0.15327193E+00 0.15133552E+04</pdfrwt>
<pdfrwt beam="2">  1       -2 0.88416313E-01 0.15133552E+04</pdfrwt>
<totfact> 0.26922096E+01</totfact>
</mgrwt>
</event>
<event>
12    1  0.1556559E-007  0.1482390E+04  0.7818608E-02  0.8896249E-01
          2   -1    0    0  501    0  0.00000000000E+00  0.00000000000E+00  0.24764614190E+04  0.24764614190E+04  0.00000000000E+00 0. -1.
         -2   -1    0    0    0  501 -0.00000000000E+00 -0.00000000000E+00 -0.22183662088E+03  0.22183662088E+03  0.00000000000E+00 0.  1.
         23    2    1    2    0    0  0.38145983461E+03  0.22727679906E+03  0.53683338952E+03  0.70274108247E+03  0.92133555665E+02 0.  0.
        254    2    1    2    0    0 -0.38145983461E+03 -0.22727679906E+03  0.17177914086E+04  0.19955569574E+04  0.91338595238E+03 0.  0.
        -24    2    4    4    0    0  0.70659849664E+02 -0.47991775945E+03  0.81860754573E+03  0.95485409674E+03  0.79461701128E+02 0.  0.
         24    2    4    4    0    0 -0.45211968427E+03  0.25264096039E+03  0.89918386286E+03  0.10407028607E+04  0.79316840527E+02 0.  0.
         13    1    3    3    0    0  0.12033133636E+03  0.11172382602E+03  0.15380097097E+03  0.22498129362E+03  0.00000000000E+00 0.  1.
        -13    1    3    3    0    0  0.26112849825E+03  0.11555297304E+03  0.38303241855E+03  0.47775978884E+03  0.00000000000E+00 0. -1.
          2    1    6    6  502    0 -0.30942372359E+03  0.12940004508E+03  0.57154659976E+03  0.66268614599E+03  0.00000000000E+00 0. -1.
          1    1    5    5  503    0  0.79448762836E+02 -0.45562912872E+03  0.74546296417E+03  0.87728275932E+03  0.00000000000E+00 0. -1.
         -2    1    5    5    0  503 -0.87889131715E+01 -0.24288630731E+02  0.73144581552E+02  0.77571337413E+02  0.00000000000E+00 0.  1.
         -1    1    6    6    0  502 -0.14269596068E+03  0.12324091531E+03  0.32763726310E+03  0.37801671467E+03  0.00000000000E+00 0.  1.
<mgrwt>
<rscale>  0 0.14823897E+04</rscale>
<asrwt>0</asrwt>
<pdfrwt beam="1">  1        2 0.38099405E+00 0.14823897E+04</pdfrwt>
<pdfrwt beam="2">  1       -2 0.34128713E-01 0.14823897E+04</pdfrwt>
<totfact> 0.28015321E+01</totfact>
</mgrwt>
</event>
<event>
12    1  0.1556559E-007  0.2325262E+04  0.7818608E-02  0.8468027E-01
          2   -1    0    0  501    0  0.00000000000E+00  0.00000000000E+00  0.16944855788E+04  0.16944855788E+04  0.00000000000E+00 0. -1.
         -2   -1    0    0    0  501 -0.00000000000E+00 -0.00000000000E+00 -0.79771159609E+03  0.79771159609E+03  0.00000000000E+00 0.  1.
         23    2    1    2    0    0 -0.27346554966E+03 -0.38322614074E+03  0.13137370342E+04  0.13985694923E+04  0.91901838551E+02 0.  0.
        254    2    1    2    0    0  0.27346554966E+03  0.38322614074E+03 -0.41696305150E+03  0.10936276826E+04  0.89471651376E+03 0.  0.
        -24    2    4    4    0    0  0.49522303313E+03  0.25320689674E+03  0.40936205324E+02  0.56240918221E+03  0.72586019483E+02 0.  0.
         24    2    4    4    0    0 -0.22175748347E+03  0.13001924401E+03 -0.45789925683E+03  0.53121850038E+03  0.80249488805E+02 0.  0.
         11    1    3    3    0    0 -0.10300103007E+03 -0.10008592084E+03  0.50175259286E+03  0.52190235503E+03  0.00000000000E+00 0. -1.
        -11    1    3    3    0    0 -0.17046451959E+03 -0.28314021990E+03  0.81198444131E+03  0.87666713723E+03  0.00000000000E+00 0.  1.
          2    1    6    6  502    0 -0.15980897663E+03  0.10522887565E+03 -0.39776642845E+03  0.44139569196E+03  0.00000000000E+00 0. -1.
          3    1    5    5  503    0  0.39404227877E+03  0.19300452163E+03  0.60948807975E+02  0.44298399522E+03  0.00000000000E+00 0. -1.
         -4    1    5    5    0  503  0.10118075436E+03  0.60202375108E+02 -0.20012602650E+02  0.11942518698E+03  0.00000000000E+00 0.  1.
         -1    1    6    6    0  502 -0.61948506841E+02  0.24790368352E+02 -0.60132828383E+02  0.89822808418E+02  0.00000000000E+00 0.  1.
<mgrwt>
<rscale>  0 0.23252620E+04</rscale>
<asrwt>0</asrwt>
<pdfrwt beam="1">  1        2 0.26069009E+00 0.23252620E+04</pdfrwt>
<pdfrwt beam="2">  1       -2 0.12272486E+00 0.23252620E+04</pdfrwt>
<totfact> 0.44869535E+00</totfact>
</mgrwt>
</event>
<event>
12    1  0.1556559E-007  0.1765547E+04  0.7818608E-02  0.8724839E-01
         -1   -1    0    0    0  501 -0.00000000000E+00  0.00000000000E+00  0.66260426866E+03  0.66260426866E+03  0.00000000000E+00 0.  1.
          1   -1    0    0  501    0  0.00000000000E+00 -0.00000000000E+00 -0.11760999199E+04  0.11760999199E+04  0.00000000000E+00 0. -1.
         23    2    1    2    0    0 -0.10086936991E+03  0.63446486236E+03 -0.27306590669E+03  0.70412980891E+03  0.92268667721E+02 0.  0.
        254    2    1    2    0    0  0.10086936991E+03 -0.63446486236E+03 -0.24042974455E+03  0.11345743796E+04  0.90373241036E+03 0.  0.
        -24    2    4    4    0    0  0.35914111894E+03 -0.78073907568E+02 -0.34046601799E+03  0.50720477414E+03  0.79130873523E+02 0.  0.
         24    2    4    4    0    0 -0.25827174903E+03 -0.55639095479E+03  0.10003627344E+03  0.62736960551E+03  0.85499561390E+02 0.  0.
         11    1    3    3    0    0 -0.85121983556E+02  0.50237896850E+03 -0.25532432383E+03  0.56993060140E+03  0.00000000000E+00 0. -1.
        -11    1    3    3    0    0 -0.15747386353E+02  0.13208589386E+03 -0.17741582867E+02  0.13419920751E+03  0.00000000000E+00 0.  1.
          2    1    6    6  502    0 -0.46939137719E+02 -0.17446647046E+03  0.54973670768E+01  0.18075412308E+03  0.00000000000E+00 0. -1.
          3    1    5    5  503    0  0.39277806976E+02  0.29305005317E+00 -0.97191066833E+01  0.40463477778E+02  0.00000000000E+00 0. -1.
         -4    1    5    5    0  503  0.31986331197E+03 -0.78366957622E+02 -0.33074691131E+03  0.46674129636E+03  0.00000000000E+00 0.  1.
         -1    1    6    6    0  502 -0.21133261131E+03 -0.38192448433E+03  0.94538906361E+02  0.44661548243E+03  0.00000000000E+00 0.  1.
<mgrwt>
<rscale>  0 0.17655467E+04</rscale>
<asrwt>0</asrwt>
<pdfrwt beam="1">  1        1 0.18093845E+00 0.17655467E+04</pdfrwt>
<pdfrwt beam="2">  1       -1 0.10193912E+00 0.17655467E+04</pdfrwt>
<totfact> 0.96032424E+00</totfact>
</mgrwt>
</event>
<event>
12    1  0.1556559E-007  0.1602398E+04  0.7818608E-02  0.8819076E-01
          2   -1    0    0  501    0  0.00000000000E+00  0.00000000000E+00  0.72278366474E+03  0.72278366474E+03  0.00000000000E+00 0. -1.
         -2   -1    0    0    0  501 -0.00000000000E+00 -0.00000000000E+00 -0.88812132859E+03  0.88812132859E+03  0.00000000000E+00 0.  1.
         23    2    1    2    0    0  0.23827539624E+03  0.38510397930E+03 -0.35469277483E+03  0.58253526891E+03  0.91978995864E+02 0.  0.
        254    2    1    2    0    0 -0.23827539624E+03 -0.38510397930E+03  0.18935511098E+03  0.10283697244E+04  0.90366403753E+03 0.  0.
        -24    2    4    4    0    0  0.12901226913E+03 -0.55270674178E+03  0.22454438513E+03  0.61550048071E+03  0.79320570265E+02 0.  0.
         24    2    4    4    0    0 -0.36728766536E+03  0.16760276248E+03 -0.35189274146E+02  0.41286924371E+03  0.78941828384E+02 0.  0.
         13    1    3    3    0    0 -0.67455495065E+01  0.32096830474E+01 -0.17050171365E+01  0.76623486507E+01  0.00000000000E+00 0.  1.
        -13    1    3    3    0    0  0.24502094574E+03  0.38189429625E+03 -0.35298775770E+03  0.57487292026E+03  0.00000000000E+00 0. -1.
          2    1    6    6  502    0 -0.11395531864E+03  0.54090007561E+02  0.25545849842E+02  0.12870172496E+03  0.00000000000E+00 0. -1.
          1    1    5    5  503    0  0.17061054830E+02 -0.24336897342E+03  0.88867553245E+02  0.25964779767E+03  0.00000000000E+00 0. -1.
         -2    1    5    5    0  503  0.11195121430E+03 -0.30933776836E+03  0.13567683188E+03  0.35585268304E+03  0.00000000000E+00 0.  1.
         -1    1    6    6    0  502 -0.25333234673E+03  0.11351275492E+03 -0.60735123987E+02  0.28416751875E+03  0.00000000000E+00 0.  1.
<mgrwt>
<rscale>  0 0.16023977E+04</rscale>
<asrwt>0</asrwt>
<pdfrwt beam="1">  1        2 0.11119749E+00 0.16023977E+04</pdfrwt>
<pdfrwt beam="2">  1       -2 0.13663405E+00 0.16023977E+04</pdfrwt>
<totfact> 0.14420472E+01</totfact>
</mgrwt>
</event>
<event>
12    1  0.1556559E-007  0.1997675E+04  0.7818608E-02  0.8607708E-01
         -2   -1    0    0    0  501 -0.00000000000E+00  0.00000000000E+00  0.49381871856E+03  0.49381871856E+03  0.00000000000E+00 0.  1.
          2   -1    0    0  501    0  0.00000000000E+00 -0.00000000000E+00 -0.20203297692E+04  0.20203297692E+04  0.00000000000E+00 0. -1.
         23    2    1    2    0    0  0.70603912996E+03  0.11661132532E+03 -0.19179087450E+03  0.74709782183E+03  0.96342937544E+02 0.  0.
        254    2    1    2    0    0 -0.70603912996E+03 -0.11661132532E+03 -0.13347201761E+04  0.17670506659E+04  0.91043981303E+03 0.  0.
        -24    2    4    4    0    0 -0.43346933049E+03  0.18670121495E+03 -0.13606255015E+03  0.49844333874E+03  0.84733347876E+02 0.  0.
         24    2    4    4    0    0 -0.27256979947E+03 -0.30331254027E+03 -0.11986576260E+04  0.12686073272E+04  0.79319944484E+02 0.  0.
         13    1    3    3    0    0  0.53533084128E+03  0.71725796964E+02 -0.18334547164E+03  0.57038518699E+03  0.00000000000E+00 0.  1.
        -13    1    3    3    0    0  0.17070828868E+03  0.44885528354E+02 -0.84454028570E+01  0.17671263483E+03  0.00000000000E+00 0. -1.
          4    1    6    6  502    0 -0.19583037972E+02 -0.25870057850E+00 -0.39863843639E+02  0.44414956173E+02  0.00000000000E+00 0. -1.
          1    1    5    5  503    0 -0.11556837020E+03  0.61051254142E+02 -0.47752650871E+00  0.13070398561E+03  0.00000000000E+00 0. -1.
         -4    1    5    5    0  503 -0.31790096029E+03  0.12564996081E+03 -0.13558502364E+03  0.36773935313E+03  0.00000000000E+00 0.  1.
         -3    1    6    6    0  502 -0.25298676150E+03 -0.30305383969E+03 -0.11587937823E+04  0.12241923710E+04  0.00000000000E+00 0.  1.
<mgrwt>
<rscale>  0 0.19976753E+04</rscale>
<asrwt>0</asrwt>
<pdfrwt beam="1">  1        2 0.31081997E+00 0.19976753E+04</pdfrwt>
<pdfrwt beam="2">  1       -2 0.75972110E-01 0.19976753E+04</pdfrwt>
<totfact> 0.93853104E+00</totfact>
</mgrwt>
</event>
<event>
12    1  0.1556559E-007  0.2310966E+04  0.7818608E-02  0.8473610E-01
         -2   -1    0    0    0  501 -0.00000000000E+00  0.00000000000E+00  0.41797057335E+03  0.41797057335E+03  0.00000000000E+00 0.  1.
          2   -1    0    0  501    0  0.00000000000E+00 -0.00000000000E+00 -0.31943426267E+04  0.31943426267E+04  0.00000000000E+00 0. -1.
         23    2    1    2    0    0 -0.84698701515E+03  0.32405615254E+03 -0.17523801119E+04  0.19751403276E+04  0.89128353339E+02 0.  0.
        254    2    1    2    0    0  0.84698701515E+03 -0.32405615254E+03 -0.10239919415E+04  0.16371728725E+04  0.89965333561E+03 0.  0.
        -24    2    4    4    0    0  0.32297415834E+03  0.10903099315E+03  0.59480047904E+02  0.35529026960E+03  0.80580612741E+02 0.  0.
         24    2    4    4    0    0  0.52401285681E+03 -0.43308714569E+03 -0.10834719894E+04  0.12818826029E+04  0.84602044136E+02 0.  0.
         11    1    3    3    0    0 -0.32883164177E+03  0.10445694231E+03 -0.75084319049E+03  0.82632136492E+03  0.00000000000E+00 0. -1.
        -11    1    3    3    0    0 -0.51815537339E+03  0.21959921023E+03 -0.10015369214E+04  0.11488189627E+04  0.00000000000E+00 0.  1.
          4    1    6    6  502    0  0.19875935139E+03 -0.21404943734E+03 -0.43150247676E+03  0.52107276732E+03  0.00000000000E+00 0. -1.
          3    1    5    5  503    0  0.10087825213E+03  0.38999639784E+02 -0.18459266723E+02  0.10971844960E+03  0.00000000000E+00 0. -1.
         -4    1    5    5    0  503  0.22209590622E+03  0.70031353366E+02  0.77939314627E+02  0.24557182000E+03  0.00000000000E+00 0.  1.
         -3    1    6    6    0  502  0.32525350542E+03 -0.21903770835E+03 -0.65196951262E+03  0.76080983554E+03  0.00000000000E+00 0.  1.
<mgrwt>
<rscale>  0 0.23109662E+04</rscale>
<asrwt>0</asrwt>
<pdfrwt beam="1">  1        2 0.49143733E+00 0.23109662E+04</pdfrwt>
<pdfrwt beam="2">  1       -2 0.64303164E-01 0.23109662E+04</pdfrwt>
<totfact> 0.26504652E+00</totfact>
</mgrwt>
</event>
<event>
12    1  0.1936663E-007  0.1693005E+04  0.7818608E-02  0.8765364E-01
         -1   -1    0    0    0  501 -0.00000000000E+00  0.00000000000E+00  0.27369593431E+03  0.27369593431E+03  0.00000000000E+00 0.  1.
          1   -1    0    0  501    0  0.00000000000E+00 -0.00000000000E+00 -0.26181123396E+04  0.26181123396E+04  0.00000000000E+00 0. -1.
         23    2    1    2    0    0  0.65885146105E+02 -0.31872807253E+03 -0.17099571939E+04  0.17443159869E+04  0.11294343925E+03 0.  0.
        254    2    1    2    0    0 -0.65885146105E+02  0.31872807253E+03 -0.63445921131E+03  0.11474922869E+04  0.89903927672E+03 0.  0.
        -24    2    4    4    0    0 -0.30243486394E+03  0.10340505782E+03  0.98592204807E+02  0.34366357372E+03  0.78897250561E+02 0.  0.
         24    2    4    4    0    0  0.23654971784E+03  0.21532301471E+03 -0.73305141612E+03  0.80382871322E+03  0.80352049480E+02 0.  0.
         13    1    3    3    0    0 -0.24978413606E+01 -0.24036207224E+03 -0.11717735904E+04  0.11961745325E+04  0.00000000000E+00 0. -1.
        -13    1    3    3    0    0  0.68382987466E+02 -0.78366000284E+02 -0.53818360357E+03  0.54814145448E+03  0.00000000000E+00 0.  1.
          4    1    6    6  502    0  0.16963343433E+02 -0.54271781603E+01 -0.29550050509E+02  0.34502387864E+02  0.00000000000E+00 0. -1.
          1    1    5    5  503    0 -0.22523919416E+02 -0.12974180020E+02  0.98966368985E+01  0.27813660582E+02  0.00000000000E+00 0. -1.
         -2    1    5    5    0  503 -0.27991094453E+03  0.11637923784E+03  0.88695567909E+02  0.31584991314E+03  0.00000000000E+00 0.  1.
         -3    1    6    6    0  502  0.21958637440E+03  0.22075019287E+03 -0.70350136561E+03  0.76932632536E+03  0.00000000000E+00 0.  1.
<mgrwt>
<rscale>  0 0.16930053E+04</rscale>
<asrwt>0</asrwt>
<pdfrwt beam="1">  1        1 0.40278654E+00 0.16930053E+04</pdfrwt>
<pdfrwt beam="2">  1       -1 0.42107064E-01 0.16930053E+04</pdfrwt>
<totfact> 0.59250369E+00</totfact>
</mgrwt>
</event>
<event>
12    1  0.1556559E-007  0.1419411E+04  0.7818608E-02  0.8939886E-01
         -1   -1    0    0    0  501 -0.00000000000E+00  0.00000000000E+00  0.33629481521E+03  0.33629481521E+03  0.00000000000E+00 0.  1.
          1   -1    0    0  501    0  0.00000000000E+00 -0.00000000000E+00 -0.14977394127E+04  0.14977394127E+04  0.00000000000E+00 0. -1.
         23    2    1    2    0    0  0.76075504996E+02 -0.38286190342E+03 -0.54528440251E+03  0.67673810679E+03  0.90932205567E+02 0.  0.
        254    2    1    2    0    0 -0.76075504996E+02  0.38286190342E+03 -0.61616019500E+03  0.11572961211E+04  0.89850442768E+03 0.  0.
        -24    2    4    4    0    0 -0.24910515811E+03 -0.22252935900E+03 -0.18535083550E+03  0.39019438060E+03  0.79523751267E+02 0.  0.
         24    2    4    4    0    0  0.17302965311E+03  0.60539126242E+03 -0.43080935950E+03  0.76710174055E+03  0.80065814532E+02 0.  0.
         13    1    3    3    0    0  0.14623442158E+02 -0.21522138023E+03 -0.23693653198E+03  0.32042629068E+03  0.00000000000E+00 0. -1.
        -13    1    3    3    0    0  0.61452062838E+02 -0.16764052319E+03 -0.30834787053E+03  0.35631181611E+03  0.00000000000E+00 0.  1.
          4    1    6    6  502    0  0.39258359486E+02  0.27895125956E+03 -0.20126096450E+03  0.34620947392E+03  0.00000000000E+00 0. -1.
          1    1    5    5  503    0 -0.11354292179E+03 -0.15069349061E+03 -0.11877140049E+03  0.22295104569E+03  0.00000000000E+00 0. -1.
         -2    1    5    5    0  503 -0.13556223632E+03 -0.71835868387E+02 -0.66579435008E+02  0.16724333490E+03  0.00000000000E+00 0.  1.
         -3    1    6    6    0  502  0.13377129363E+03  0.32644000286E+03 -0.22954839500E+03  0.42089226663E+03  0.00000000000E+00 0.  1.
<mgrwt>
<rscale>  0 0.14194111E+04</rscale>
<asrwt>0</asrwt>
<pdfrwt beam="1">  1        1 0.23042145E+00 0.14194111E+04</pdfrwt>
<pdfrwt beam="2">  1       -1 0.51737663E-01 0.14194111E+04</pdfrwt>
<totfact> 0.24031221E+01</totfact>
</mgrwt>
</event>
<event>
12    1  0.1556559E-007  0.1775450E+04  0.7818608E-02  0.8719465E-01
          2   -1    0    0  501    0  0.00000000000E+00  0.00000000000E+00  0.11456451879E+04  0.11456451879E+04  0.00000000000E+00 0. -1.
         -2   -1    0    0    0  501 -0.00000000000E+00 -0.00000000000E+00 -0.68787085217E+03  0.68787085217E+03  0.00000000000E+00 0.  1.
         23    2    1    2    0    0 -0.61502133765E+03  0.18907319030E+03  0.28465830969E+03  0.70961741546E+03  0.92339623063E+02 0.  0.
        254    2    1    2    0    0  0.61502133765E+03 -0.18907319030E+03  0.17311602600E+03  0.11238986246E+04  0.90508510251E+03 0.  0.
        -24    2    4    4    0    0  0.86966528350E+01 -0.79119262430E+02 -0.31467750817E+03  0.33406278645E+03  0.78996972655E+02 0.  0.
         24    2    4    4    0    0  0.60632468482E+03 -0.10995392787E+03  0.48779353416E+03  0.78983583811E+03  0.78604258892E+02 0.  0.
         11    1    3    3    0    0 -0.27316661392E+03  0.11764620283E+03  0.95127580971E+02  0.31226572765E+03  0.00000000000E+00 0. -1.
        -11    1    3    3    0    0 -0.34185472373E+03  0.71426987462E+02  0.18953072872E+03  0.39735168781E+03  0.00000000000E+00 0.  1.
          2    1    6    6  502    0  0.54747527602E+03 -0.11860665157E+03  0.45648637697E+03  0.72261782984E+03  0.00000000000E+00 0. -1.
          1    1    5    5  503    0  0.34781801020E+02 -0.10815129698E+02 -0.14086351737E+03  0.14549663652E+03  0.00000000000E+00 0. -1.
         -2    1    5    5    0  503 -0.26085148185E+02 -0.68304132733E+02 -0.17381399080E+03  0.18856614994E+03  0.00000000000E+00 0.  1.
         -1    1    6    6    0  502  0.58849408802E+02  0.86527237053E+01  0.31307157195E+02  0.67218008268E+02  0.00000000000E+00 0.  1.
<mgrwt>
<rscale>  0 0.17754503E+04</rscale>
<asrwt>0</asrwt>
<pdfrwt beam="1">  1        2 0.17625311E+00 0.17754503E+04</pdfrwt>
<pdfrwt beam="2">  1       -2 0.10582628E+00 0.17754503E+04</pdfrwt>
<totfact> 0.13940336E+01</totfact>
</mgrwt>
</event>
<event>
12    1  0.1556559E-007  0.1947556E+04  0.7818608E-02  0.8631540E-01
          1   -1    0    0  501    0  0.00000000000E+00  0.00000000000E+00  0.37785435288E+03  0.37785435288E+03  0.00000000000E+00 0. -1.
         -1   -1    0    0    0  501 -0.00000000000E+00 -0.00000000000E+00 -0.25095486458E+04  0.25095486458E+04  0.00000000000E+00 0.  1.
         23    2    1    2    0    0 -0.25000430736E+03 -0.69945436503E+03 -0.57521024192E+03  0.94391871044E+03  0.91526755987E+02 0.  0.
        254    2    1    2    0    0  0.25000430736E+03  0.69945436503E+03 -0.15564840510E+04  0.19434842882E+04  0.89596317732E+03 0.  0.
        -24    2    4    4    0    0 -0.24564931268E+03  0.58991268988E+03 -0.96129917853E+03  0.11569423727E+04  0.77967792725E+02 0.  0.
         24    2    4    4    0    0  0.49565362003E+03  0.10954167514E+03 -0.59518487246E+03  0.78654191548E+03  0.82044273115E+02 0.  0.
         13    1    3    3    0    0 -0.45922956982E+01 -0.44801396005E+02 -0.13306331615E+02  0.46960757285E+02  0.00000000000E+00 0.  1.
        -13    1    3    3    0    0 -0.24541201166E+03 -0.65465296902E+03 -0.56190391030E+03  0.89695795315E+03  0.00000000000E+00 0. -1.
          4    1    6    6  502    0  0.35726748140E+02 -0.90696221522E+01 -0.25473223835E+02  0.44805621424E+02  0.00000000000E+00 0. -1.
          1    1    5    5  503    0  0.37891532272E+00 -0.21762532318E+01 -0.62614731031E+01  0.66397063468E+01  0.00000000000E+00 0. -1.
         -2    1    5    5    0  503 -0.24602822800E+03  0.59208894311E+03 -0.95503770543E+03  0.11503026664E+04  0.00000000000E+00 0.  1.
         -3    1    6    6    0  502  0.45992687189E+03  0.11861129730E+03 -0.56971164863E+03  0.74173629406E+03  0.00000000000E+00 0.  1.
<mgrwt>
<rscale>  0 0.19475563E+04</rscale>
<asrwt>0</asrwt>
<pdfrwt beam="1">  1        1 0.58131436E-01 0.19475563E+04</pdfrwt>
<pdfrwt beam="2">  1       -1 0.38608443E+00 0.19475563E+04</pdfrwt>
<totfact> 0.53780514E-01</totfact>
</mgrwt>
</event>
<event>
12    1  0.1556559E-007  0.2536165E+04  0.7818608E-02  0.8390214E-01
          2   -1    0    0  501    0  0.00000000000E+00  0.00000000000E+00  0.15849824715E+04  0.15849824715E+04  0.00000000000E+00 0. -1.
         -2   -1    0    0    0  501 -0.00000000000E+00 -0.00000000000E+00 -0.10145429820E+04  0.10145429820E+04  0.00000000000E+00 0.  1.
         23    2    1    2    0    0 -0.43866688559E+03 -0.10124948495E+04  0.26785856300E+03  0.11389859422E+04  0.89254187123E+02 0.  0.
        254    2    1    2    0    0  0.43866688559E+03  0.10124948495E+04  0.30258092647E+03  0.14605395113E+04  0.90776978922E+03 0.  0.
        -24    2    4    4    0    0  0.14884438383E+03  0.92721708116E+03 -0.10343837379E+03  0.94831364958E+03  0.81933598873E+02 0.  0.
         24    2    4    4    0    0  0.28982250176E+03  0.85277768381E+02  0.40601930026E+03  0.51222586174E+03  0.79084011969E+02 0.  0.
         11    1    3    3    0    0 -0.24836899483E+03 -0.53417151472E+03  0.99962470361E+02  0.59751055239E+03  0.00000000000E+00 0. -1.
        -11    1    3    3    0    0 -0.19029789076E+03 -0.47832333482E+03  0.16789609264E+03  0.54147538982E+03  0.00000000000E+00 0.  1.
          4    1    6    6  502    0  0.27845723328E+03  0.71278879010E+02  0.40124057878E+03  0.49357178953E+03  0.00000000000E+00 0. -1.
          3    1    5    5  503    0  0.12488149559E+03  0.88769549627E+03 -0.98352094655E+02  0.90181584404E+03  0.00000000000E+00 0. -1.
         -4    1    5    5    0  503  0.23962888242E+02  0.39521584892E+02 -0.50862791307E+01  0.46497805547E+02  0.00000000000E+00 0.  1.
         -3    1    6    6    0  502  0.11365268477E+02  0.13998889371E+02  0.47787214811E+01  0.18654072214E+02  0.00000000000E+00 0.  1.
<mgrwt>
<rscale>  0 0.25361647E+04</rscale>
<asrwt>0</asrwt>
<pdfrwt beam="1">  1        2 0.24384346E+00 0.25361647E+04</pdfrwt>
<pdfrwt beam="2">  1       -2 0.15608354E+00 0.25361647E+04</pdfrwt>
<totfact> 0.27244033E+00</totfact>
</mgrwt>
</event>
<event>
12    1  0.1556559E-007  0.2079854E+04  0.7818608E-02  0.8570170E-01
         -2   -1    0    0    0  501 -0.00000000000E+00  0.00000000000E+00  0.37148194136E+03  0.37148194136E+03  0.00000000000E+00 0.  1.
          2   -1    0    0  501    0  0.00000000000E+00 -0.00000000000E+00 -0.29111720142E+04  0.29111720142E+04  0.00000000000E+00 0. -1.
         23    2    1    2    0    0  0.20943510474E+03 -0.81929059590E+03 -0.10494429685E+04  0.13519127309E+04  0.10600633999E+03 0.  0.
        254    2    1    2    0    0 -0.20943510474E+03  0.81929059590E+03 -0.14902471044E+04  0.19307412248E+04  0.88984554905E+03 0.  0.
        -24    2    4    4    0    0 -0.24762716407E+03 -0.11529746177E+03 -0.41515129325E+03  0.50342700785E+03  0.80470111636E+02 0.  0.
         24    2    4    4    0    0  0.38192059337E+02  0.93458805768E+03 -0.10750958112E+04  0.14273142169E+04  0.80507140574E+02 0.  0.
         11    1    3    3    0    0  0.13468733645E+03 -0.52367414980E+03 -0.58798566447E+03  0.79881314172E+03  0.00000000000E+00 0.  1.
        -11    1    3    3    0    0  0.74747768291E+02 -0.29561644610E+03 -0.46145730401E+03  0.55309958913E+03  0.00000000000E+00 0. -1.
          2    1    6    6  502    0  0.33144531611E+02  0.16209725955E+03 -0.21368713933E+03  0.27025224337E+03  0.00000000000E+00 0. -1.
          3    1    5    5  503    0 -0.28738233211E+02  0.32972751004E+01 -0.85979173610E+02  0.90714807865E+02  0.00000000000E+00 0. -1.
         -4    1    5    5    0  503 -0.21888893086E+03 -0.11859473687E+03 -0.32917211964E+03  0.41271219998E+03  0.00000000000E+00 0.  1.
         -1    1    6    6    0  502  0.50475277255E+01  0.77249079813E+03 -0.86140867182E+03  0.11570619735E+04  0.00000000000E+00 0.  1.
<mgrwt>
<rscale>  0 0.20798537E+04</rscale>
<asrwt>0</asrwt>
<pdfrwt beam="1">  1        2 0.44787261E+00 0.20798537E+04</pdfrwt>
<pdfrwt beam="2">  1       -2 0.57151069E-01 0.20798537E+04</pdfrwt>
<totfact> 0.52457376E+00</totfact>
</mgrwt>
</event>
<event>
12    1  0.1556559E-007  0.3505727E+04  0.7818608E-02  0.8112434E-01
          2   -1    0    0  501    0  0.00000000000E+00  0.00000000000E+00  0.23796648930E+04  0.23796648930E+04  0.00000000000E+00 0. -1.
         -2   -1    0    0    0  501 -0.00000000000E+00 -0.00000000000E+00 -0.12911606177E+04  0.12911606177E+04  0.00000000000E+00 0.  1.
         23    2    1    2    0    0  0.12143151755E+03  0.40859708511E+03 -0.11474841412E+04  0.12274560708E+04  0.90726842941E+02 0.  0.
        254    2    1    2    0    0 -0.12143151755E+03 -0.40859708511E+03  0.22359884165E+04  0.24433694399E+04  0.88809505658E+03 0.  0.
        -24    2    4    4    0    0 -0.48790113779E+03 -0.27358777768E+03  0.15544055471E+04  0.16538853028E+04  0.79134048545E+02 0.  0.
         24    2    4    4    0    0  0.36646962024E+03 -0.13500930743E+03  0.68158286947E+03  0.78948413712E+03  0.78755946786E+02 0.  0.
         13    1    3    3    0    0  0.20257862805E+02  0.22586797264E+03 -0.61417163537E+03  0.65470109192E+03  0.00000000000E+00 0.  1.
        -13    1    3    3    0    0  0.10117365475E+03  0.18272911247E+03 -0.53331250585E+03  0.57275497890E+03  0.00000000000E+00 0. -1.
          4    1    6    6  502    0  0.33282233525E+03 -0.11785863790E+03  0.55856476899E+03  0.66079949041E+03  0.00000000000E+00 0. -1.
          1    1    5    5  503    0 -0.39239915047E+03 -0.24642084015E+03  0.13329489220E+04  0.14111885602E+04  0.00000000000E+00 0. -1.
         -4    1    5    5    0  503 -0.95501987321E+02 -0.27166937524E+02  0.22145662509E+03  0.24269674261E+03  0.00000000000E+00 0.  1.
         -3    1    6    6    0  502  0.33647284985E+02 -0.17150669531E+02  0.12301810047E+03  0.12868464670E+03  0.00000000000E+00 0.  1.
<mgrwt>
<rscale>  0 0.35057265E+04</rscale>
<asrwt>0</asrwt>
<pdfrwt beam="1">  1        2 0.36610229E+00 0.35057265E+04</pdfrwt>
<pdfrwt beam="2">  1       -2 0.19864010E+00 0.35057265E+04</pdfrwt>
<totfact> 0.45534758E-01</totfact>
</mgrwt>
</event>
<event>
12    1  0.1556559E-007  0.1174399E+04  0.7818608E-02  0.9135565E-01
          2   -1    0    0  501    0  0.00000000000E+00  0.00000000000E+00  0.43732445403E+04  0.43732445403E+04  0.00000000000E+00 0. -1.
         -2   -1    0    0    0  501 -0.00000000000E+00 -0.00000000000E+00 -0.78843868567E+02  0.78843868567E+02  0.00000000000E+00 0.  1.
         23    2    1    2    0    0  0.20704118924E+03  0.64702702571E+02  0.85287215672E+03  0.88262149830E+03  0.67655744835E+02 0.  0.
        254    2    1    2    0    0 -0.20704118924E+03 -0.64702702571E+02  0.34415285151E+04  0.35694669106E+04  0.92191269227E+03 0.  0.
        -24    2    4    4    0    0 -0.27951067363E+02 -0.32362577180E+03  0.30141419445E+04  0.30326529957E+04  0.80110101901E+02 0.  0.
         24    2    4    4    0    0 -0.17909012187E+03  0.25892306923E+03  0.42738657054E+03  0.53681391488E+03  0.79971688731E+02 0.  0.
         11    1    3    3    0    0  0.18917844596E+03  0.48035273984E+02  0.66144078480E+03  0.68963742920E+03  0.00000000000E+00 0. -1.
        -11    1    3    3    0    0  0.17862743274E+02  0.16667428587E+02  0.19143137192E+03  0.19298406910E+03  0.00000000000E+00 0.  1.
          4    1    6    6  502    0 -0.38344473274E+02  0.38054558500E+02  0.12862693746E+03  0.13951106441E+03  0.00000000000E+00 0. -1.
          3    1    5    5  503    0  0.25488198972E+02 -0.58264377273E+02  0.62359569598E+03  0.62683010297E+03  0.00000000000E+00 0. -1.
         -4    1    5    5    0  503 -0.53439266335E+02 -0.26536139453E+03  0.23905462485E+04  0.24058228927E+04  0.00000000000E+00 0.  1.
         -3    1    6    6    0  502 -0.14074564860E+03  0.22086851073E+03  0.29875963309E+03  0.39730285047E+03  0.00000000000E+00 0.  1.
<mgrwt>
<rscale>  0 0.11743995E+04</rscale>
<asrwt>0</asrwt>
<pdfrwt beam="1">  1        2 0.67280666E+00 0.11743995E+04</pdfrwt>
<pdfrwt beam="2">  1       -2 0.12129829E-01 0.11743995E+04</pdfrwt>
<totfact> 0.85083478E+00</totfact>
</mgrwt>
</event>
<event>
12    1  0.1556559E-007  0.4540036E+04  0.7818608E-02  0.7903665E-01
         -1   -1    0    0    0  501 -0.00000000000E+00  0.00000000000E+00  0.31101037650E+04  0.31101037650E+04  0.00000000000E+00 0.  1.
          1   -1    0    0  501    0  0.00000000000E+00 -0.00000000000E+00 -0.16568522590E+04  0.16568522590E+04  0.00000000000E+00 0. -1.
         23    2    1    2    0    0  0.21454647631E+04  0.37916042049E+02  0.11055563660E+04  0.24154019364E+04  0.86342110344E+02 0.  0.
        254    2    1    2    0    0 -0.21454647631E+04 -0.37916042049E+02  0.34769514004E+03  0.23515540877E+04  0.89691584954E+03 0.  0.
        -24    2    4    4    0    0 -0.12117637277E+04  0.27551128339E+03  0.51834772380E+03  0.13488569002E+04  0.80329169011E+02 0.  0.
         24    2    4    4    0    0 -0.93370103533E+03 -0.31342732544E+03 -0.17065258376E+03  0.10026971875E+04  0.79025525667E+02 0.  0.
         11    1    3    3    0    0  0.25451344666E+02 -0.81521705136E+01  0.18376257843E+02  0.32433249632E+02  0.00000000000E+00 0. -1.
        -11    1    3    3    0    0  0.21200134184E+04  0.46068212562E+02  0.10871801081E+04  0.23829686867E+04  0.00000000000E+00 0.  1.
          4    1    6    6  502    0 -0.86481701661E+03 -0.28219583524E+03 -0.17716113939E+03  0.92678424186E+03  0.00000000000E+00 0. -1.
          1    1    5    5  503    0 -0.85848335472E+03  0.15785936998E+03  0.35775646812E+03  0.94334667090E+03  0.00000000000E+00 0. -1.
         -2    1    5    5    0  503 -0.35328037302E+03  0.11765191341E+03  0.16059125569E+03  0.40551022933E+03  0.00000000000E+00 0.  1.
         -3    1    6    6    0  502 -0.68884018721E+02 -0.31231490194E+02  0.65085556333E+01  0.75912945611E+02  0.00000000000E+00 0.  1.
<mgrwt>
<rscale>  0 0.45400363E+04</rscale>
<asrwt>0</asrwt>
<pdfrwt beam="1">  1        1 0.25490035E+00 0.45400363E+04</pdfrwt>
<pdfrwt beam="2">  1       -1 0.47847750E+00 0.45400363E+04</pdfrwt>
<totfact> 0.79188017E-03</totfact>
</mgrwt>
</event>
<event>
12    1  0.1556559E-007  0.1404667E+04  0.7818608E-02  0.8950448E-01
          2   -1    0    0  501    0  0.00000000000E+00  0.00000000000E+00  0.61308866928E+03  0.61308866928E+03  0.00000000000E+00 0. -1.
         -2   -1    0    0    0  501 -0.00000000000E+00 -0.00000000000E+00 -0.80456880084E+03  0.80456880084E+03  0.00000000000E+00 0.  1.
         23    2    1    2    0    0  0.22547850121E+03  0.84411224624E+02  0.32417989276E+03  0.41354666033E+03  0.89232438320E+02 0.  0.
        254    2    1    2    0    0 -0.22547850121E+03 -0.84411224624E+02 -0.51566002433E+03  0.10041108098E+04  0.82726504113E+03 0.  0.
        -24    2    4    4    0    0 -0.96768520457E+02  0.36490504057E+03 -0.20384350191E+03  0.43642559906E+03  0.79970588725E+02 0.  0.
         24    2    4    4    0    0 -0.12870998075E+03 -0.44931626519E+03 -0.31181652242E+03  0.56768521072E+03  0.81151645113E+02 0.  0.
         11    1    3    3    0    0  0.38781125383E+02 -0.69352008304E+01  0.10179996752E+03  0.10915725392E+03  0.00000000000E+00 0.  1.
        -11    1    3    3    0    0  0.18669737583E+03  0.91346425454E+02  0.22237992525E+03  0.30438940642E+03  0.00000000000E+00 0. -1.
          2    1    6    6  502    0 -0.13479023655E+03 -0.38968563168E+03 -0.28908126825E+03  0.50357847359E+03  0.00000000000E+00 0. -1.
          3    1    5    5  503    0 -0.55527543848E+02  0.23513082951E+03 -0.17203441538E+03  0.29659004566E+03  0.00000000000E+00 0. -1.
         -4    1    5    5    0  503 -0.41240976609E+02  0.12977421106E+03 -0.31809086526E+02  0.13983555340E+03  0.00000000000E+00 0.  1.
         -1    1    6    6    0  502  0.60802557948E+01 -0.59630633513E+02 -0.22735254164E+02  0.64106737131E+02  0.00000000000E+00 0.  1.
<mgrwt>
<rscale>  0 0.14046665E+04</rscale>
<asrwt>0</asrwt>
<pdfrwt beam="1">  1        2 0.94321334E-01 0.14046665E+04</pdfrwt>
<pdfrwt beam="2">  1       -2 0.12377981E+00 0.14046665E+04</pdfrwt>
<totfact> 0.23094203E+01</totfact>
</mgrwt>
</event>
<event>
12    1  0.1556559E-007  0.1527248E+04  0.7818608E-02  0.8866533E-01
         -2   -1    0    0    0  501 -0.00000000000E+00  0.00000000000E+00  0.97117364223E+03  0.97117364223E+03  0.00000000000E+00 0. -1.
          2   -1    0    0  501    0  0.00000000000E+00 -0.00000000000E+00 -0.60042966477E+03  0.60042966477E+03  0.00000000000E+00 0.  1.
         23    2    1    2    0    0 -0.82683294757E+02  0.40619983317E+03 -0.14654333064E+03  0.44846399621E+03  0.88375202666E+02 0.  0.
        254    2    1    2    0    0  0.82683294757E+02 -0.40619983317E+03  0.51728730810E+03  0.11231393108E+04  0.90665369388E+03 0.  0.
        -24    2    4    4    0    0 -0.15035958452E+02 -0.58474163977E+03  0.64131145189E+03  0.87186968183E+03  0.82021329207E+02 0.  0.
         24    2    4    4    0    0  0.97719253209E+02  0.17854180660E+03 -0.12402414380E+03  0.25126962895E+03  0.79550041074E+02 0.  0.
         13    1    3    3    0    0 -0.49221745961E+02  0.11948134589E+03 -0.11382418556E+02  0.12972328913E+03  0.00000000000E+00 0. -1.
        -13    1    3    3    0    0 -0.33461548796E+02  0.28671848728E+03 -0.13516091208E+03  0.31874070708E+03  0.00000000000E+00 0.  1.
          4    1    6    6  502    0  0.39918020016E+02  0.13043814666E+02 -0.34950205782E+02  0.54636126393E+02  0.00000000000E+00 0. -1.
          3    1    5    5  503    0 -0.19403032196E+02 -0.11345865509E+03  0.87040518293E+02  0.14431006860E+03  0.00000000000E+00 0. -1.
         -4    1    5    5    0  503  0.43670737436E+01 -0.47128298468E+03  0.55427093360E+03  0.72755961324E+03  0.00000000000E+00 0.  1.
         -3    1    6    6    0  502  0.57801233193E+02  0.16549799194E+03 -0.89073938017E+02  0.19663350256E+03  0.00000000000E+00 0.  1.
<mgrwt>
<rscale>  0 0.15272478E+04</rscale>
<asrwt>0</asrwt>
<pdfrwt beam="1">  1        2 0.92373795E-01 0.15272478E+04</pdfrwt>
<pdfrwt beam="2">  1       -2 0.14941133E+00 0.15272478E+04</pdfrwt>
<totfact> 0.14455544E+01</totfact>
</mgrwt>
</event>
<event>
12    1  0.1556559E-007  0.1487376E+04  0.7818608E-02  0.8892891E-01
         -2   -1    0    0    0  501 -0.00000000000E+00  0.00000000000E+00  0.53401838431E+03  0.53401838431E+03  0.00000000000E+00 0.  1.
          2   -1    0    0  501    0  0.00000000000E+00 -0.00000000000E+00 -0.10356798836E+04  0.10356798836E+04  0.00000000000E+00 0. -1.
         23    2    1    2    0    0  0.41792567743E+03  0.10809311286E+02  0.65338121419E+02  0.43283463409E+03  0.91093563373E+02 0.  0.
        254    2    1    2    0    0 -0.41792567743E+03 -0.10809311286E+02 -0.56699962068E+03  0.11368636338E+04  0.89229571270E+03 0.  0.
        -24    2    4    4    0    0 -0.39099206393E+03  0.20508254830E+03  0.74612326924E+02  0.45481523963E+03  0.79726138744E+02 0.  0.
         24    2    4    4    0    0 -0.26933613502E+02 -0.21589185959E+03 -0.64161194760E+03  0.68204839415E+03  0.78672778568E+02 0.  0.
         11    1    3    3    0    0  0.26649996100E+03  0.13105423000E+02 -0.26386557953E+01  0.26683504986E+03  0.00000000000E+00 0. -1.
        -11    1    3    3    0    0  0.15142571643E+03 -0.22961117140E+01  0.67976777215E+02  0.16599958423E+03  0.00000000000E+00 0.  1.
          4    1    6    6  502    0 -0.32235903840E+01 -0.66471567234E+01 -0.10998909955E+03  0.11023691872E+03  0.00000000000E+00 0. -1.
          1    1    5    5  503    0 -0.34481242164E+03  0.14800824560E+03  0.62131271747E+02  0.38034502995E+03  0.00000000000E+00 0. -1.
         -2    1    5    5    0  503 -0.46179642291E+02  0.57074302706E+02  0.12481055176E+02  0.74470209680E+02  0.00000000000E+00 0.  1.
         -3    1    6    6    0  502 -0.23710023118E+02 -0.20924470287E+03 -0.53162284805E+03  0.57181147544E+03  0.00000000000E+00 0.  1.
<mgrwt>
<rscale>  0 0.14873763E+04</rscale>
<asrwt>0</asrwt>
<pdfrwt beam="1">  1        2 0.15933537E+00 0.14873763E+04</pdfrwt>
<pdfrwt beam="2">  1       -2 0.82156674E-01 0.14873763E+04</pdfrwt>
<totfact> 0.30096027E+01</totfact>
</mgrwt>
</event>
<event>
12    1  0.1556559E-007  0.1209685E+04  0.7818608E-02  0.9104422E-01
         -2   -1    0    0    0  501 -0.00000000000E+00  0.00000000000E+00  0.22255555925E+03  0.22255555925E+03  0.00000000000E+00 0.  1.
          2   -1    0    0  501    0  0.00000000000E+00 -0.00000000000E+00 -0.16437882090E+04  0.16437882090E+04  0.00000000000E+00 0. -1.
         23    2    1    2    0    0 -0.21447246254E+03  0.90668958186E+02 -0.53010374554E+03  0.58679113071E+03  0.95365365224E+02 0.  0.
        254    2    1    2    0    0  0.21447246254E+03 -0.90668958186E+02 -0.89112890425E+03  0.12795526376E+04  0.88821446237E+03 0.  0.
        -24    2    4    4    0    0 -0.20686973855E+03  0.45965364046E+02 -0.78555379687E+03  0.81748651354E+03  0.79256095197E+02 0.  0.
         24    2    4    4    0    0  0.42134220109E+03 -0.13663432223E+03 -0.10557510738E+03  0.46206612404E+03  0.78490835480E+02 0.  0.
         11    1    3    3    0    0 -0.12758794687E+03  0.85233122365E+02 -0.41512190966E+03  0.44257154135E+03  0.00000000000E+00 0. -1.
        -11    1    3    3    0    0 -0.86884515664E+02  0.54358358201E+01 -0.11498183588E+03  0.14421958936E+03  0.00000000000E+00 0.  1.
          2    1    6    6  502    0  0.24655319878E+03 -0.48441357997E+02 -0.33726940839E+02  0.25352031778E+03  0.00000000000E+00 0. -1.
          1    1    5    5  503    0 -0.89484729025E+02 -0.18871993774E+02 -0.35044108363E+03  0.36217761109E+03  0.00000000000E+00 0. -1.
         -2    1    5    5    0  503 -0.11738500952E+03  0.64837357821E+02 -0.43511271324E+03  0.45530890245E+03  0.00000000000E+00 0.  1.
         -1    1    6    6    0  502  0.17478900231E+03 -0.88192964234E+02 -0.71848166545E+02  0.20854580625E+03  0.00000000000E+00 0.  1.
<mgrwt>
<rscale>  0 0.12096846E+04</rscale>
<asrwt>0</asrwt>
<pdfrwt beam="1">  1        2 0.25289049E+00 0.12096846E+04</pdfrwt>
<pdfrwt beam="2">  1       -2 0.34239317E-01 0.12096846E+04</pdfrwt>
<totfact> 0.83020680E+01</totfact>
</mgrwt>
</event>
<event>
12    1  0.1989288E-007  0.2152198E+04  0.7818608E-02  0.8538592E-01
          1   -1    0    0  501    0  0.00000000000E+00  0.00000000000E+00  0.74803243471E+03  0.74803243471E+03  0.00000000000E+00 0. -1.
         -1   -1    0    0    0  501 -0.00000000000E+00 -0.00000000000E+00 -0.15480460928E+04  0.15480460928E+04  0.00000000000E+00 0.  1.
         23    2    1    2    0    0  0.15984277791E+03 -0.31824101952E+03  0.53474819800E+03  0.64883443188E+03  0.90572758490E+02 0.  0.
        254    2    1    2    0    0 -0.15984277791E+03  0.31824101952E+03 -0.13347618561E+04  0.16472440957E+04  0.89721616013E+03 0.  0.
        -24    2    4    4    0    0 -0.12049725588E+03  0.21339677911E+03 -0.14482832418E+04  0.14710563709E+04  0.80154374723E+02 0.  0.
         24    2    4    4    0    0 -0.39345522031E+02  0.10484424042E+03  0.11352138567E+03  0.17618772481E+03  0.74930798176E+02 0.  0.
         13    1    3    3    0    0  0.13368963440E+03 -0.27869289228E+03  0.39691796112E+03  0.50307704620E+03  0.00000000000E+00 0.  1.
        -13    1    3    3    0    0  0.26153143504E+02 -0.39548127242E+02  0.13783023688E+03  0.14575738568E+03  0.00000000000E+00 0. -1.
          2    1    6    6  502    0  0.13469461922E+02  0.51183250402E+00  0.39530646589E+00  0.13484978465E+02  0.00000000000E+00 0. -1.
          3    1    5    5  503    0 -0.11175161913E+02  0.44400743335E+02 -0.13781396735E+03  0.14522052145E+03  0.00000000000E+00 0. -1.
         -4    1    5    5    0  503 -0.10932209396E+03  0.16899603577E+03 -0.13104692744E+04  0.13258358494E+04  0.00000000000E+00 0.  1.
         -1    1    6    6    0  502 -0.52814983954E+02  0.10433240791E+03  0.11312607921E+03  0.16270274634E+03  0.00000000000E+00 0.  1.
<mgrwt>
<rscale>  0 0.21521977E+04</rscale>
<asrwt>0</asrwt>
<pdfrwt beam="1">  1        1 0.11508191E+00 0.21521977E+04</pdfrwt>
<pdfrwt beam="2">  1       -1 0.23816093E+00 0.21521977E+04</pdfrwt>
<totfact> 0.18768674E+00</totfact>
</mgrwt>
</event>
<event>
12    1  0.1556559E-007  0.1727213E+04  0.7818608E-02  0.8745994E-01
          2   -1    0    0  501    0  0.00000000000E+00  0.00000000000E+00  0.11063424656E+04  0.11063424656E+04  0.00000000000E+00 0. -1.
         -2   -1    0    0    0  501 -0.00000000000E+00 -0.00000000000E+00 -0.67412787690E+03  0.67412787690E+03  0.00000000000E+00 0.  1.
         23    2    1    2    0    0 -0.24105363131E+03 -0.42291156100E+03 -0.24023761845E+03  0.55049861972E+03  0.91507242332E+02 0.  0.
        254    2    1    2    0    0  0.24105363131E+03  0.42291156100E+03  0.67245220718E+03  0.12299717228E+04  0.90756676140E+03 0.  0.
        -24    2    4    4    0    0 -0.19790074703E+03  0.52045456094E+03  0.45990742893E+03  0.72665924319E+03  0.80505632410E+02 0.  0.
         24    2    4    4    0    0  0.43895437834E+03 -0.97542999947E+02  0.21254477826E+03  0.50331247962E+03  0.77153005622E+02 0.  0.
         11    1    3    3    0    0 -0.16753965943E+03 -0.35313471510E+03 -0.21481102438E+03  0.44600161512E+03  0.00000000000E+00 0.  1.
        -11    1    3    3    0    0 -0.73513971878E+02 -0.69776845899E+02 -0.25426594073E+02  0.10449700460E+03  0.00000000000E+00 0. -1.
          4    1    6    6  502    0  0.29766873645E+03 -0.29760339902E+02  0.12972305600E+03  0.32606813053E+03  0.00000000000E+00 0. -1.
          1    1    5    5  503    0 -0.19988526973E+03  0.51722035329E+03  0.44414813711E+03  0.71044956374E+03  0.00000000000E+00 0. -1.
         -2    1    5    5    0  503  0.19845227005E+01  0.32342076516E+01  0.15759291812E+02  0.16209679451E+02  0.00000000000E+00 0.  1.
         -3    1    6    6    0  502  0.14128564190E+03 -0.67782660045E+02  0.82821722251E+02  0.17724434909E+03  0.00000000000E+00 0.  1.
<mgrwt>
<rscale>  0 0.17272131E+04</rscale>
<asrwt>0</asrwt>
<pdfrwt beam="1">  1        2 0.17020653E+00 0.17272131E+04</pdfrwt>
<pdfrwt beam="2">  1       -2 0.10371198E+00 0.17272131E+04</pdfrwt>
<totfact> 0.15525558E+01</totfact>
</mgrwt>
</event>
<event>
12    1  0.1556559E-007  0.1510429E+04  0.7818608E-02  0.8877547E-01
         -1   -1    0    0    0  501 -0.00000000000E+00  0.00000000000E+00  0.21544511591E+04  0.21544511591E+04  0.00000000000E+00 0.  1.
          1   -1    0    0  501    0  0.00000000000E+00 -0.00000000000E+00 -0.26473039299E+03  0.26473039299E+03  0.00000000000E+00 0. -1.
         23    2    1    2    0    0 -0.11637176999E+03 -0.40146448538E+03  0.21859952768E+03  0.48062311207E+03  0.92177548726E+02 0.  0.
        254    2    1    2    0    0  0.11637176999E+03  0.40146448538E+03  0.16711212384E+04  0.19385584400E+04  0.88918305762E+03 0.  0.
        -24    2    4    4    0    0  0.42270116794E+03  0.48798244880E+03  0.11769403802E+04  0.13449698723E+04  0.83379561025E+02 0.  0.
         24    2    4    4    0    0 -0.30632939796E+03 -0.86517963425E+02  0.49418085820E+03  0.59358856766E+03  0.82520355074E+02 0.  0.
         13    1    3    3    0    0 -0.71332913637E+02 -0.30947591764E+03  0.20324137754E+03  0.37705541464E+03  0.00000000000E+00 0. -1.
        -13    1    3    3    0    0 -0.45038856349E+02 -0.91988567731E+02  0.15358150138E+02  0.10356769743E+03  0.00000000000E+00 0.  1.
          2    1    6    6  502    0 -0.16746335145E+03 -0.38003144351E+02  0.33752365656E+03  0.37869569815E+03  0.00000000000E+00 0. -1.
          1    1    5    5  503    0  0.33614402407E+03  0.42444541895E+03  0.93875076371E+03  0.10836972432E+04  0.00000000000E+00 0. -1.
         -2    1    5    5    0  503  0.86557143871E+02  0.63537029853E+02  0.23818961652E+03  0.26127262913E+03  0.00000000000E+00 0.  1.
         -1    1    6    6    0  502 -0.13886604650E+03 -0.48514819074E+02  0.15665720164E+03  0.21489286951E+03  0.00000000000E+00 0.  1.
<mgrwt>
<rscale>  0 0.15104287E+04</rscale>
<asrwt>0</asrwt>
<pdfrwt beam="1">  1        1 0.40727754E-01 0.15104287E+04</pdfrwt>
<pdfrwt beam="2">  1       -1 0.33145401E+00 0.15104287E+04</pdfrwt>
<totfact> 0.20628322E+00</totfact>
</mgrwt>
</event>
<event>
12    1  0.1556559E-007  0.1326794E+04  0.7818608E-02  0.9008583E-01
          1   -1    0    0  501    0  0.00000000000E+00  0.00000000000E+00  0.12981955395E+04  0.12981955395E+04  0.00000000000E+00 0. -1.
         -1   -1    0    0    0  501 -0.00000000000E+00 -0.00000000000E+00 -0.33900565714E+03  0.33900565714E+03  0.00000000000E+00 0.  1.
         23    2    1    2    0    0  0.23079971707E+03 -0.27208777325E+03  0.26451518455E+03  0.45379552475E+03  0.93068951174E+02 0.  0.
        254    2    1    2    0    0 -0.23079971707E+03  0.27208777325E+03  0.69467469779E+03  0.11834056719E+04  0.88914328581E+03 0.  0.
        -24    2    4    4    0    0 -0.24603022042E+02  0.56895898920E+03  0.32458959134E+03  0.66009428171E+03  0.77758715632E+02 0.  0.
         24    2    4    4    0    0 -0.20619669503E+03 -0.29687121594E+03  0.37008510645E+03  0.52331139016E+03  0.79007779082E+02 0.  0.
         13    1    3    3    0    0  0.50407978620E+02 -0.12074150360E+03  0.11984709127E+03  0.17743393217E+03  0.00000000000E+00 0. -1.
        -13    1    3    3    0    0  0.18039173845E+03 -0.15134626966E+03  0.14466809327E+03  0.27636159258E+03  0.00000000000E+00 0.  1.
          2    1    6    6  502    0 -0.78806466006E+02 -0.71068633477E+02  0.14689633049E+03  0.18121738785E+03  0.00000000000E+00 0. -1.
          1    1    5    5  503    0  0.10007815783E+01  0.10786912757E+02 -0.43815282020E+01  0.11685753719E+02  0.00000000000E+00 0. -1.
         -2    1    5    5    0  503 -0.25603803621E+02  0.55817207644E+03  0.32897111955E+03  0.64840852799E+03  0.00000000000E+00 0.  1.
         -1    1    6    6    0  502 -0.12739022902E+03 -0.22580258246E+03  0.22318877596E+03  0.34209400231E+03  0.00000000000E+00 0.  1.
<mgrwt>
<rscale>  0 0.13267941E+04</rscale>
<asrwt>0</asrwt>
<pdfrwt beam="1">  1        1 0.19972239E+00 0.13267941E+04</pdfrwt>
<pdfrwt beam="2">  1       -1 0.52154717E-01 0.13267941E+04</pdfrwt>
<totfact> 0.32931438E+01</totfact>
</mgrwt>
</event>
<event>
12    1  0.1556559E-007  0.3059450E+04  0.7818608E-02  0.8226956E-01
          2   -1    0    0  501    0  0.00000000000E+00  0.00000000000E+00  0.27757607655E+04  0.27757607655E+04  0.00000000000E+00 0. -1.
         -2   -1    0    0    0  501 -0.00000000000E+00 -0.00000000000E+00 -0.84303298221E+03  0.84303298221E+03  0.00000000000E+00 0.  1.
         23    2    1    2    0    0  0.14335970514E+03  0.60379025893E+03 -0.59518770263E+03  0.86445484637E+03  0.88989315134E+02 0.  0.
        254    2    1    2    0    0 -0.14335970514E+03 -0.60379025893E+03  0.25279154859E+04  0.27543389013E+04  0.90050618969E+03 0.  0.
        -24    2    4    4    0    0  0.27745314973E+03 -0.27743835698E+03  0.18287584186E+04  0.18718420148E+04  0.74046490586E+02 0.  0.
         24    2    4    4    0    0 -0.42081285487E+03 -0.32635190195E+03  0.69915706733E+03  0.88249688650E+03  0.79944525470E+02 0.  0.
         13    1    3    3    0    0  0.89424551133E+02  0.33262094649E+03 -0.27018202959E+03  0.43775766527E+03  0.00000000000E+00 0. -1.
        -13    1    3    3    0    0  0.53935154003E+02  0.27116931244E+03 -0.32500567304E+03  0.42669718109E+03  0.00000000000E+00 0.  1.
          2    1    6    6  502    0 -0.32173580343E+03 -0.22358670288E+03  0.46275060939E+03  0.60633577117E+03  0.00000000000E+00 0. -1.
          3    1    5    5  503    0  0.24774875628E+03 -0.27254654035E+03  0.16544506800E+04  0.16949537207E+04  0.00000000000E+00 0. -1.
         -4    1    5    5    0  503  0.29704393448E+02 -0.48918166250E+01  0.17430773860E+03  0.17688829412E+03  0.00000000000E+00 0.  1.
         -1    1    6    6    0  502 -0.99077051440E+02 -0.10276519907E+03  0.23640645795E+03  0.27616111533E+03  0.00000000000E+00 0.  1.
<mgrwt>
<rscale>  0 0.30594495E+04</rscale>
<asrwt>0</asrwt>
<pdfrwt beam="1">  1        2 0.42704011E+00 0.30594495E+04</pdfrwt>
<pdfrwt beam="2">  1       -2 0.12969738E+00 0.30594495E+04</pdfrwt>
<totfact> 0.88969817E-01</totfact>
</mgrwt>
</event>
<event>
12    1  0.1556559E-007  0.1597705E+04  0.7818608E-02  0.8821959E-01
         -4   -1    0    0    0  501 -0.00000000000E+00  0.00000000000E+00  0.67273864935E+03  0.67273864935E+03  0.00000000000E+00 0.  1.
          4   -1    0    0  501    0  0.00000000000E+00 -0.00000000000E+00 -0.94860821084E+03  0.94860821084E+03  0.00000000000E+00 0. -1.
         23    2    1    2    0    0  0.47778513031E+03 -0.34468475559E+03 -0.74966223812E+02  0.59902184886E+03  0.78237006723E+02 0.  0.
        254    2    1    2    0    0 -0.47778513031E+03  0.34468475559E+03 -0.20090333768E+03  0.10223250113E+04  0.81098709374E+03 0.  0.
        -24    2    4    4    0    0 -0.55970379148E+03  0.53503887455E+03 -0.12815858492E+03  0.78867054001E+03  0.77728156453E+02 0.  0.
         24    2    4    4    0    0  0.81918661168E+02 -0.19035411896E+03 -0.72744752760E+02  0.23365447132E+03  0.79732397816E+02 0.  0.
         11    1    3    3    0    0  0.40779937719E+03 -0.29120600143E+03 -0.35063339918E+02  0.50232529810E+03  0.00000000000E+00 0. -1.
        -11    1    3    3    0    0  0.69985753118E+02 -0.53478754160E+02 -0.39902883894E+02  0.96696550761E+02  0.00000000000E+00 0.  1.
          4    1    6    6  502    0  0.68118084468E+02 -0.13734280633E+03 -0.14965445967E+02  0.15403598429E+03  0.00000000000E+00 0. -1.
          3    1    5    5  503    0 -0.47643604470E+03  0.46185976091E+03 -0.82048721196E+02  0.66860880647E+03  0.00000000000E+00 0. -1.
         -4    1    5    5    0  503 -0.83267746776E+02  0.73179113640E+02 -0.46109863725E+02  0.12006173353E+03  0.00000000000E+00 0.  1.
         -3    1    6    6    0  502  0.13800576700E+02 -0.53011312627E+02 -0.57779306793E+02  0.79618487032E+02  0.00000000000E+00 0.  1.
<mgrwt>
<rscale>  0 0.15977051E+04</rscale>
<asrwt>0</asrwt>
<pdfrwt beam="1">  1        4 0.14593972E+00 0.15977051E+04</pdfrwt>
<pdfrwt beam="2">  1       -4 0.10349825E+00 0.15977051E+04</pdfrwt>
<totfact> 0.46726770E-01</totfact>
</mgrwt>
</event>
<event>
12    1  0.1556559E-007  0.1654480E+04  0.7818608E-02  0.8787760E-01
          1   -1    0    0  501    0  0.00000000000E+00  0.00000000000E+00  0.83728503330E+03  0.83728503330E+03  0.00000000000E+00 0. -1.
         -1   -1    0    0    0  501 -0.00000000000E+00 -0.00000000000E+00 -0.81731571334E+03  0.81731571334E+03  0.00000000000E+00 0.  1.
         23    2    1    2    0    0  0.30086501424E+03 -0.89604777461E+01  0.50276894128E+03  0.59295566418E+03  0.90662916415E+02 0.  0.
        254    2    1    2    0    0 -0.30086501424E+03  0.89604777461E+01 -0.48279962132E+03  0.10616450825E+04  0.89632291046E+03 0.  0.
        -24    2    4    4    0    0 -0.34436983944E+03 -0.12194283152E+03  0.15459446110E+03  0.40460189314E+03  0.79640467461E+02 0.  0.
         24    2    4    4    0    0  0.43504825203E+02  0.13090330926E+03 -0.63739408242E+03  0.65704318932E+03  0.80038679047E+02 0.  0.
         13    1    3    3    0    0  0.28354479590E+03 -0.18614702225E+02  0.49666817598E+03  0.57220925845E+03  0.00000000000E+00 0. -1.
        -13    1    3    3    0    0  0.17320218335E+02  0.96542244789E+01  0.61007652974E+01  0.20746405729E+02  0.00000000000E+00 0.  1.
          4    1    6    6  502    0 -0.15237209713E+02  0.12373517014E+00 -0.84561288737E+02  0.85923218184E+02  0.00000000000E+00 0. -1.
          3    1    5    5  503    0 -0.17693284289E+02 -0.19077361458E+02 -0.54174314703E+01  0.26577181808E+02  0.00000000000E+00 0. -1.
         -4    1    5    5    0  503 -0.32667655515E+03 -0.10286547006E+03  0.16001189257E+03  0.37802471133E+03  0.00000000000E+00 0.  1.
         -3    1    6    6    0  502  0.58742034915E+02  0.13077957409E+03 -0.55283279368E+03  0.57111997114E+03  0.00000000000E+00 0.  1.
<mgrwt>
<rscale>  0 0.16544802E+04</rscale>
<asrwt>0</asrwt>
<pdfrwt beam="1">  1        1 0.12881308E+00 0.16544802E+04</pdfrwt>
<pdfrwt beam="2">  1       -1 0.12574088E+00 0.16544802E+04</pdfrwt>
<totfact> 0.10817370E+01</totfact>
</mgrwt>
</event>
<event>
12    1  0.1556559E-007  0.1283509E+04  0.7818608E-02  0.9042746E-01
          1   -1    0    0  501    0  0.00000000000E+00  0.00000000000E+00  0.63352071276E+03  0.63352071276E+03  0.00000000000E+00 0. -1.
         -1   -1    0    0    0  501 -0.00000000000E+00 -0.00000000000E+00 -0.65009547391E+03  0.65009547391E+03  0.00000000000E+00 0.  1.
         23    2    1    2    0    0  0.23028198131E+03 -0.70612636979E+02  0.15364947463E+03  0.29999604496E+03  0.91506997110E+02 0.  0.
        254    2    1    2    0    0 -0.23028198131E+03  0.70612636979E+02 -0.17022423578E+03  0.98362014172E+03  0.93835833099E+03 0.  0.
        -24    2    4    4    0    0 -0.13866472088E+03 -0.40598718290E+03 -0.21785940380E+03  0.48797397649E+03  0.81255057766E+02 0.  0.
         24    2    4    4    0    0 -0.91617260423E+02  0.47659981988E+03  0.47635168013E+02  0.49564616523E+03  0.88627880248E+02 0.  0.
         13    1    3    3    0    0  0.17036064867E+03 -0.75777341407E+02  0.74967911209E+02  0.20096055284E+03  0.00000000000E+00 0.  1.
        -13    1    3    3    0    0  0.59921332638E+02  0.51647044285E+01  0.78681563423E+02  0.99035492121E+02  0.00000000000E+00 0. -1.
          2    1    6    6  502    0 -0.16646281657E+02  0.31014787691E+03  0.36827100228E+02  0.31276994670E+03  0.00000000000E+00 0. -1.
          3    1    5    5  503    0 -0.12856420680E+03 -0.27797521551E+03 -0.17421941569E+03  0.35235121756E+03  0.00000000000E+00 0. -1.
         -4    1    5    5    0  503 -0.10100514080E+02 -0.12801196739E+03 -0.43639988109E+02  0.13562275894E+03  0.00000000000E+00 0.  1.
         -1    1    6    6    0  502 -0.74970978766E+02  0.16645194296E+03  0.10808067784E+02  0.18287621853E+03  0.00000000000E+00 0.  1.
<mgrwt>
<rscale>  0 0.12835092E+04</rscale>
<asrwt>0</asrwt>
<pdfrwt beam="1">  1        1 0.97464725E-01 0.12835092E+04</pdfrwt>
<pdfrwt beam="2">  1       -1 0.10001469E+00 0.12835092E+04</pdfrwt>
<totfact> 0.29667064E+01</totfact>
</mgrwt>
</event>
<event>
12    1  0.1556559E-007  0.3045904E+04  0.7818608E-02  0.8230743E-01
         -2   -1    0    0    0  501 -0.00000000000E+00  0.00000000000E+00  0.17198584018E+04  0.17198584018E+04  0.00000000000E+00 0.  1.
          2   -1    0    0  501    0  0.00000000000E+00 -0.00000000000E+00 -0.13485898264E+04  0.13485898264E+04  0.00000000000E+00 0. -1.
         23    2    1    2    0    0 -0.25945410514E+03 -0.87170998586E+03 -0.89222313234E+03  0.12771212490E+04  0.88214707658E+02 0.  0.
        254    2    1    2    0    0  0.25945410514E+03  0.87170998586E+03  0.12634917077E+04  0.17913269793E+04  0.88614125228E+03 0.  0.
        -24    2    4    4    0    0 -0.32049395557E+03  0.39233925499E+03  0.52553253645E+03  0.73430916627E+03  0.79868881582E+02 0.  0.
         24    2    4    4    0    0  0.57994806071E+03  0.47937073087E+03  0.73795917128E+03  0.10570178130E+04  0.81036212582E+02 0.  0.
         13    1    3    3    0    0 -0.77762630304E+02 -0.16776709629E+03 -0.14933907591E+03  0.23768673683E+03  0.00000000000E+00 0.  1.
        -13    1    3    3    0    0 -0.18169147484E+03 -0.70394288957E+03 -0.74288405643E+03  0.10394345122E+04  0.00000000000E+00 0. -1.
          4    1    6    6  502    0  0.54761628852E+03  0.45567708999E+03  0.72069553254E+03  0.10133741957E+04  0.00000000000E+00 0. -1.
          3    1    5    5  503    0 -0.31535786192E+02  0.86221125114E+02  0.99586018132E+02  0.13544727105E+03  0.00000000000E+00 0. -1.
         -4    1    5    5    0  503 -0.28895816938E+03  0.30611812987E+03  0.42594651832E+03  0.59886189523E+03  0.00000000000E+00 0.  1.
         -3    1    6    6    0  502  0.32331772189E+02  0.23693640881E+02  0.17263638744E+02  0.43643617331E+02  0.00000000000E+00 0.  1.
<mgrwt>
<rscale>  0 0.30459045E+04</rscale>
<asrwt>0</asrwt>
<pdfrwt beam="1">  1        2 0.20747536E+00 0.30459045E+04</pdfrwt>
<pdfrwt beam="2">  1       -2 0.26459360E+00 0.30459045E+04</pdfrwt>
<totfact> 0.69088931E-01</totfact>
</mgrwt>
</event>
<event>
12    1  0.1556559E-007  0.2235223E+04  0.7818608E-02  0.8503909E-01
         -1   -1    0    0    0  501 -0.00000000000E+00  0.00000000000E+00  0.16304479392E+04  0.16304479392E+04  0.00000000000E+00 0.  1.
          1   -1    0    0  501    0  0.00000000000E+00 -0.00000000000E+00 -0.76608116035E+03  0.76608116035E+03  0.00000000000E+00 0. -1.
         23    2    1    2    0    0 -0.92099624222E+03  0.65027375486E+02  0.18317046751E+03  0.94573479502E+03  0.91652848331E+02 0.  0.
        254    2    1    2    0    0  0.92099624222E+03 -0.65027375486E+02  0.68119631136E+03  0.14507943045E+04  0.88786995766E+03 0.  0.
        -24    2    4    4    0    0  0.47159743629E+03  0.39672790501E+03  0.24220162287E+03  0.66692344326E+03  0.79549233304E+02 0.  0.
         24    2    4    4    0    0  0.44939880593E+03 -0.46175528050E+03  0.43899468849E+03  0.78387086127E+03  0.80993609550E+02 0.  0.
         11    1    3    3    0    0 -0.54112085019E+03  0.50895417197E+02  0.63505571142E+02  0.54720661141E+03  0.00000000000E+00 0. -1.
        -11    1    3    3    0    0 -0.37987539203E+03  0.14131958289E+02  0.11966489636E+03  0.39852818362E+03  0.00000000000E+00 0.  1.
          2    1    6    6  502    0  0.86237846618E+02 -0.12777493995E+03  0.79797771182E+02  0.17358308027E+03  0.00000000000E+00 0. -1.
          3    1    5    5  503    0  0.24272770256E+03  0.16081468920E+03  0.13718067214E+03  0.32186431716E+03  0.00000000000E+00 0. -1.
         -4    1    5    5    0  503  0.22886973373E+03  0.23591321581E+03  0.10502095073E+03  0.34505912610E+03  0.00000000000E+00 0.  1.
         -1    1    6    6    0  502  0.36316095931E+03 -0.33398034055E+03  0.35919691731E+03  0.61028778100E+03  0.00000000000E+00 0.  1.
<mgrwt>
<rscale>  0 0.22352230E+04</rscale>
<asrwt>0</asrwt>
<pdfrwt beam="1">  1        1 0.11785864E+00 0.22352230E+04</pdfrwt>
<pdfrwt beam="2">  1       -1 0.25083814E+00 0.22352230E+04</pdfrwt>
<totfact> 0.14823605E+00</totfact>
</mgrwt>
</event>
<event>
12    1  0.1556559E-007  0.2214660E+04  0.7818608E-02  0.8512351E-01
         -2   -1    0    0    0  501 -0.00000000000E+00  0.00000000000E+00  0.10502248729E+04  0.10502248729E+04  0.00000000000E+00 0.  1.
          2   -1    0    0  501    0  0.00000000000E+00 -0.00000000000E+00 -0.11675400695E+04  0.11675400695E+04  0.00000000000E+00 0. -1.
         23    2    1    2    0    0 -0.23650846880E+02  0.86669422672E+03 -0.39010734569E+03  0.95291756211E+03  0.64419669626E+02 0.  0.
        254    2    1    2    0    0  0.23650846880E+02 -0.86669422672E+03  0.27279214906E+03  0.12648473803E+04  0.87960507828E+03 0.  0.
        -24    2    4    4    0    0  0.16007796993E+03 -0.40340054175E+02 -0.22223782182E+03  0.28870386387E+03  0.81902351238E+02 0.  0.
         24    2    4    4    0    0 -0.13642712305E+03 -0.82635417254E+03  0.49502997088E+03  0.97614351645E+03  0.79548188319E+02 0.  0.
         11    1    3    3    0    0 -0.14331690551E+02  0.68682842684E+03 -0.28019591097E+03  0.74192212111E+03  0.00000000000E+00 0. -1.
        -11    1    3    3    0    0 -0.93191563284E+01  0.17986579987E+03 -0.10991143472E+03  0.21099544100E+03  0.00000000000E+00 0.  1.
          2    1    6    6  502    0 -0.72537157083E+02 -0.39973598494E+03  0.28567518691E+03  0.49664958394E+03  0.00000000000E+00 0. -1.
          3    1    5    5  503    0  0.12151696051E+03 -0.62742286163E+02 -0.18800352496E+03  0.23248288445E+03  0.00000000000E+00 0. -1.
         -4    1    5    5    0  503  0.38561009417E+02  0.22402231988E+02 -0.34234296858E+02  0.56220979418E+02  0.00000000000E+00 0.  1.
         -1    1    6    6    0  502 -0.63889965968E+02 -0.42661818761E+03  0.20935478396E+03  0.47949393251E+03  0.00000000000E+00 0.  1.
<mgrwt>
<rscale>  0 0.22146599E+04</rscale>
<asrwt>0</asrwt>
<pdfrwt beam="1">  1        2 0.17962155E+00 0.22146599E+04</pdfrwt>
<pdfrwt beam="2">  1       -2 0.16157306E+00 0.22146599E+04</pdfrwt>
<totfact> 0.44359447E+00</totfact>
</mgrwt>
</event>
<event>
12    1  0.1556559E-007  0.1281792E+04  0.7818608E-02  0.9044130E-01
         -1   -1    0    0    0  501 -0.00000000000E+00  0.00000000000E+00  0.47538902552E+03  0.47538902552E+03  0.00000000000E+00 0.  1.
          1   -1    0    0  501    0  0.00000000000E+00 -0.00000000000E+00 -0.86402480493E+03  0.86402480493E+03  0.00000000000E+00 0. -1.
         23    2    1    2    0    0 -0.22663219571E+03 -0.10437571793E+03  0.10067436151E+03  0.28438503168E+03  0.92103618571E+02 0.  0.
        254    2    1    2    0    0  0.22663219571E+03  0.10437571793E+03 -0.48931014092E+03  0.10550287988E+04  0.90078016720E+03 0.  0.
        -24    2    4    4    0    0  0.22234250293E+02 -0.21152621243E+03 -0.61034151059E+03  0.65117714686E+03  0.79228887463E+02 0.  0.
         24    2    4    4    0    0  0.20439794542E+03  0.31590193036E+03  0.12103136968E+03  0.40385165192E+03  0.82915707907E+02 0.  0.
         11    1    3    3    0    0 -0.64143959970E+00 -0.15255850283E+02  0.26151739393E+02  0.30283095712E+02  0.00000000000E+00 0. -1.
        -11    1    3    3    0    0 -0.22599075611E+03 -0.89119867647E+02  0.74522622117E+02  0.25410193597E+03  0.00000000000E+00 0.  1.
          4    1    6    6  502    0  0.47880628193E+02  0.35660418972E+02  0.42830274974E+02  0.73475523080E+02  0.00000000000E+00 0. -1.
          3    1    5    5  503    0  0.23978693762E+02 -0.15101712592E+03 -0.52310367044E+03  0.54499412850E+03  0.00000000000E+00 0. -1.
         -4    1    5    5    0  503 -0.17444434692E+01 -0.60509086501E+02 -0.87237840157E+02  0.10618301836E+03  0.00000000000E+00 0.  1.
         -3    1    6    6    0  502  0.15651731722E+03  0.28024151138E+03  0.78201094701E+02  0.33037612884E+03  0.00000000000E+00 0.  1.
<mgrwt>
<rscale>  0 0.12817924E+04</rscale>
<asrwt>0</asrwt>
<pdfrwt beam="1">  1        1 0.13292689E+00 0.12817924E+04</pdfrwt>
<pdfrwt beam="2">  1       -1 0.73136773E-01 0.12817924E+04</pdfrwt>
<totfact> 0.36145097E+01</totfact>
</mgrwt>
</event>
<event>
12    1  0.1556559E-007  0.4119141E+04  0.7818608E-02  0.7980934E-01
          1   -1    0    0  501    0  0.00000000000E+00  0.00000000000E+00  0.25560047831E+04  0.25560047831E+04  0.00000000000E+00 0. -1.
         -1   -1    0    0    0  501 -0.00000000000E+00 -0.00000000000E+00 -0.16595548551E+04  0.16595548551E+04  0.00000000000E+00 0.  1.
         23    2    1    2    0    0  0.11643061846E+03 -0.18504818251E+04 -0.21542999342E+03  0.18688176856E+04  0.90721475433E+02 0.  0.
        254    2    1    2    0    0 -0.11643061846E+03  0.18504818251E+04  0.11118799214E+04  0.23467419526E+04  0.91273312559E+03 0.  0.
        -24    2    4    4    0    0 -0.46496816436E+03  0.13336721658E+04  0.92724485540E+03  0.16914395604E+04  0.79422446564E+02 0.  0.
         24    2    4    4    0    0  0.34853754590E+03  0.51680965927E+03  0.18463506602E+03  0.65530239216E+03  0.82222094052E+02 0.  0.
         11    1    3    3    0    0  0.31719829862E+02 -0.37101618153E+03 -0.79037679413E+02  0.38066535084E+03  0.00000000000E+00 0. -1.
        -11    1    3    3    0    0  0.84710788593E+02 -0.14794656436E+04 -0.13639231401E+03  0.14881523348E+04  0.00000000000E+00 0.  1.
          2    1    6    6  502    0  0.27171470012E+03  0.44910070298E+03  0.13773284211E+03  0.54266993235E+03  0.00000000000E+00 0. -1.
          3    1    5    5  503    0 -0.44029191589E+03  0.12618151981E+04  0.89761463415E+03  0.16098902437E+04  0.00000000000E+00 0. -1.
         -4    1    5    5    0  503 -0.24676248464E+02  0.71856967722E+02  0.29630221253E+02  0.81549316735E+02  0.00000000000E+00 0.  1.
         -1    1    6    6    0  502  0.76822845779E+02  0.67708956289E+02  0.46902223912E+02  0.11263245981E+03  0.00000000000E+00 0.  1.
<mgrwt>
<rscale>  0 0.41191408E+04</rscale>
<asrwt>0</asrwt>
<pdfrwt beam="1">  1        1 0.39323151E+00 0.41191408E+04</pdfrwt>
<pdfrwt beam="2">  1       -1 0.25531613E+00 0.41191408E+04</pdfrwt>
<totfact> 0.61785336E-02</totfact>
</mgrwt>
</event>
<event>
12    1  0.1556559E-007  0.2355001E+04  0.7818608E-02  0.8456545E-01
          2   -1    0    0  501    0  0.00000000000E+00  0.00000000000E+00  0.16045575131E+04  0.16045575131E+04  0.00000000000E+00 0. -1.
         -2   -1    0    0    0  501 -0.00000000000E+00 -0.00000000000E+00 -0.86410587372E+03  0.86410587372E+03  0.00000000000E+00 0.  1.
         23    2    1    2    0    0  0.36190205774E+03 -0.20524039321E+03  0.12767366045E+04  0.13459758088E+04  0.92183525550E+02 0.  0.
        254    2    1    2    0    0 -0.36190205774E+03  0.20524039321E+03 -0.53628496511E+03  0.11226875780E+04  0.89427574915E+03 0.  0.
        -24    2    4    4    0    0 -0.40975958950E+03  0.34566400839E+03 -0.69961284829E+03  0.88531006127E+03  0.83242051966E+02 0.  0.
         24    2    4    4    0    0  0.47857531759E+02 -0.14042361518E+03  0.16332788318E+03  0.23737751670E+03  0.87538294263E+02 0.  0.
         13    1    3    3    0    0  0.11343083233E+03 -0.41771703318E+02  0.26181886310E+03  0.28837570285E+03  0.00000000000E+00 0.  1.
        -13    1    3    3    0    0  0.24847122541E+03 -0.16346868989E+03  0.10149177414E+04  0.10576001060E+04  0.00000000000E+00 0. -1.
          2    1    6    6  502    0  0.44211196036E+02 -0.55124127496E+02  0.25256162194E+02  0.75041142155E+02  0.00000000000E+00 0. -1.
          3    1    5    5  503    0 -0.21090849190E+03  0.19665941854E+03 -0.31168252789E+03  0.42462138082E+03  0.00000000000E+00 0. -1.
         -4    1    5    5    0  503 -0.19885109759E+03  0.14900458985E+03 -0.38793032040E+03  0.46068868045E+03  0.00000000000E+00 0.  1.
         -1    1    6    6    0  502  0.36463357229E+01 -0.85299487687E+02  0.13807172098E+03  0.16233637454E+03  0.00000000000E+00 0.  1.
<mgrwt>
<rscale>  0 0.23550011E+04</rscale>
<asrwt>0</asrwt>
<pdfrwt beam="1">  1        2 0.24685500E+00 0.23550011E+04</pdfrwt>
<pdfrwt beam="2">  1       -2 0.13293937E+00 0.23550011E+04</pdfrwt>
<totfact> 0.41063337E+00</totfact>
</mgrwt>
</event>
<event>
12    1  0.1556559E-007  0.1666401E+04  0.7818608E-02  0.8780763E-01
          2   -1    0    0  501    0  0.00000000000E+00  0.00000000000E+00  0.18278784910E+04  0.18278784910E+04  0.00000000000E+00 0. -1.
         -2   -1    0    0    0  501 -0.00000000000E+00 -0.00000000000E+00 -0.37979698360E+03  0.37979698360E+03  0.00000000000E+00 0.  1.
         23    2    1    2    0    0 -0.33787689519E+03 -0.37507710194E+03  0.90844178937E+03  0.10435243016E+04  0.93983268174E+02 0.  0.
        254    2    1    2    0    0  0.33787689519E+03  0.37507710194E+03  0.53963971806E+03  0.11641511730E+04  0.89955172148E+03 0.  0.
        -24    2    4    4    0    0  0.12422414947E+03  0.28497297859E+03  0.76715584903E+03  0.83156144299E+03  0.79530490543E+02 0.  0.
         24    2    4    4    0    0  0.21365274573E+03  0.90104123357E+02 -0.22751613098E+03  0.33258973002E+03  0.71316827331E+02 0.  0.
         11    1    3    3    0    0 -0.25362912869E+03 -0.22442628340E+03  0.55461009957E+03  0.64983632874E+03  0.00000000000E+00 0. -1.
        -11    1    3    3    0    0 -0.84247766502E+02 -0.15065081855E+03  0.35383168980E+03  0.39368797289E+03  0.00000000000E+00 0.  1.
          4    1    6    6  502    0 -0.11659848384E+01  0.97446085633E+01 -0.41787801165E+00  0.98230106753E+01  0.00000000000E+00 0. -1.
          1    1    5    5  503    0  0.89567197575E+02  0.14748261551E+03  0.50274629157E+03  0.53153291380E+03  0.00000000000E+00 0. -1.
         -2    1    5    5    0  503  0.34656951890E+02  0.13749036308E+03  0.26440955746E+03  0.30002852919E+03  0.00000000000E+00 0.  1.
         -3    1    6    6    0  502  0.21481873057E+03  0.80359514793E+02 -0.22709825296E+03  0.32276671935E+03  0.00000000000E+00 0.  1.
<mgrwt>
<rscale>  0 0.16664006E+04</rscale>
<asrwt>0</asrwt>
<pdfrwt beam="1">  1        2 0.28121207E+00 0.16664006E+04</pdfrwt>
<pdfrwt beam="2">  1       -2 0.58430306E-01 0.16664006E+04</pdfrwt>
<totfact> 0.21757825E+01</totfact>
</mgrwt>
</event>
<event>
12    1  0.1556559E-007  0.2548513E+04  0.7818608E-02  0.8385904E-01
         -1   -1    0    0    0  501 -0.00000000000E+00  0.00000000000E+00  0.66383549725E+03  0.66383549725E+03  0.00000000000E+00 0.  1.
          1   -1    0    0  501    0  0.00000000000E+00 -0.00000000000E+00 -0.24459815313E+04  0.24459815313E+04  0.00000000000E+00 0. -1.
         23    2    1    2    0    0 -0.81556603536E+03 -0.22175596502E+03 -0.16588779840E+04  0.18639924747E+04  0.90929169024E+02 0.  0.
        254    2    1    2    0    0  0.81556603536E+03  0.22175596502E+03 -0.12326804997E+03  0.12458245538E+04  0.90695101337E+03 0.  0.
        -24    2    4    4    0    0 -0.14743444716E+03  0.21530763149E+03 -0.35120447861E+02  0.27525588129E+03  0.80237534472E+02 0.  0.
         24    2    4    4    0    0  0.96300048252E+03  0.64483335292E+01 -0.88147602109E+02  0.97056867252E+03  0.82595629262E+02 0.  0.
         11    1    3    3    0    0 -0.17704997103E+03 -0.74768947461E+02 -0.31740713217E+03  0.37105845267E+03  0.00000000000E+00 0.  1.
        -11    1    3    3    0    0 -0.63851606433E+03 -0.14698701755E+03 -0.13414708519E+04  0.14929340220E+04  0.00000000000E+00 0. -1.
          2    1    6    6  502    0  0.90479101768E+03  0.24611150230E+02 -0.89796635809E+02  0.90956909039E+03  0.00000000000E+00 0. -1.
          3    1    5    5  503    0 -0.15089429119E+03  0.21660759669E+03 -0.42135937753E+02  0.26732634608E+03  0.00000000000E+00 0. -1.
         -4    1    5    5    0  503  0.34598440269E+01 -0.12999652010E+01  0.70154898922E+01  0.79295352097E+01  0.00000000000E+00 0.  1.
         -1    1    6    6    0  502  0.58209464841E+02 -0.18162816700E+02  0.16490336998E+01  0.60999582128E+02  0.00000000000E+00 0.  1.
<mgrwt>
<rscale>  0 0.25485128E+04</rscale>
<asrwt>0</asrwt>
<pdfrwt beam="1">  1        1 0.37630485E+00 0.25485128E+04</pdfrwt>
<pdfrwt beam="2">  1       -1 0.10212854E+00 0.25485128E+04</pdfrwt>
<totfact> 0.11857752E+00</totfact>
</mgrwt>
</event>
<event>
12    1  0.1556559E-007  0.1765449E+04  0.7818608E-02  0.8724892E-01
         -1   -1    0    0    0  501 -0.00000000000E+00  0.00000000000E+00  0.96535308848E+03  0.96535308848E+03  0.00000000000E+00 0.  1.
          1   -1    0    0  501    0  0.00000000000E+00 -0.00000000000E+00 -0.80716807751E+03  0.80716807751E+03  0.00000000000E+00 0. -1.
         23    2    1    2    0    0  0.15841829194E+03 -0.47072366057E+03 -0.35734962464E+03  0.61852984590E+03  0.90572049750E+02 0.  0.
        254    2    1    2    0    0 -0.15841829194E+03  0.47072366057E+03  0.51553463561E+03  0.11539913201E+04  0.90512037126E+03 0.  0.
        -24    2    4    4    0    0 -0.48867023052E+03  0.46817814968E+03  0.26502509975E+03  0.73186003919E+03  0.85973481000E+02 0.  0.
         24    2    4    4    0    0  0.33025193859E+03  0.25455108915E+01  0.25050953586E+03  0.42213128089E+03  0.79793284087E+02 0.  0.
         13    1    3    3    0    0  0.97077365904E+01 -0.13636224027E+03 -0.12365012660E+03  0.18433191402E+03  0.00000000000E+00 0.  1.
        -13    1    3    3    0    0  0.14871055535E+03 -0.33436142030E+03 -0.23369949804E+03  0.43419793187E+03  0.00000000000E+00 0. -1.
          4    1    6    6  502    0  0.19552256357E+03 -0.36893880508E+02  0.13664139568E+03  0.24137336700E+03  0.00000000000E+00 0. -1.
          3    1    5    5  503    0 -0.33439239922E+03  0.36807126065E+03  0.21080532871E+03  0.54012370451E+03  0.00000000000E+00 0. -1.
         -4    1    5    5    0  503 -0.15427783130E+03  0.10010688903E+03  0.54219771040E+02  0.19173633468E+03  0.00000000000E+00 0.  1.
         -3    1    6    6    0  502  0.13472937501E+03  0.39439391400E+02  0.11386814018E+03  0.18075791389E+03  0.00000000000E+00 0.  1.
<mgrwt>
<rscale>  0 0.17654486E+04</rscale>
<asrwt>0</asrwt>
<pdfrwt beam="1">  1        1 0.12417970E+00 0.17654486E+04</pdfrwt>
<pdfrwt beam="2">  1       -1 0.14851586E+00 0.17654486E+04</pdfrwt>
<totfact> 0.73922028E+00</totfact>
</mgrwt>
</event>
<event>
12    1  0.1556559E-007  0.2106628E+04  0.7818608E-02  0.8558330E-01
          2   -1    0    0  501    0  0.00000000000E+00  0.00000000000E+00  0.13152340028E+04  0.13152340028E+04  0.00000000000E+00 0.  1.
         -2   -1    0    0    0  501 -0.00000000000E+00 -0.00000000000E+00 -0.84355322355E+03  0.84355322355E+03  0.00000000000E+00 0. -1.
         23    2    1    2    0    0 -0.71673463960E+03 -0.44823852521E+03  0.36524222489E+03  0.92545382580E+03  0.91850866932E+02 0.  0.
        254    2    1    2    0    0  0.71673463960E+03  0.44823852521E+03  0.10643855435E+03  0.12333334005E+04  0.89171508453E+03 0.  0.
        -24    2    4    4    0    0  0.17252410812E+02  0.50989361329E+03  0.10564867520E+03  0.52699834593E+03  0.79224184992E+02 0.  0.
         24    2    4    4    0    0  0.69948222879E+03 -0.61655088074E+02  0.78987915162E+00  0.70633505462E+03  0.76366531969E+02 0.  0.
         13    1    3    3    0    0 -0.19403068654E+03 -0.15668918944E+03  0.13965121222E+03  0.28583539053E+03  0.00000000000E+00 0.  1.
        -13    1    3    3    0    0 -0.52270395306E+03 -0.29154933577E+03  0.22559101267E+03  0.63961843527E+03  0.00000000000E+00 0. -1.
          4    1    6    6  502    0  0.56246346000E+03 -0.18883753778E+02  0.24785697253E+01  0.56278582365E+03  0.00000000000E+00 0. -1.
          3    1    5    5  503    0 -0.16108239626E+02  0.37391597464E+03  0.97484241973E+02  0.38675031857E+03  0.00000000000E+00 0. -1.
         -4    1    5    5    0  503  0.33360650438E+02  0.13597763864E+03  0.81644332290E+01  0.14024802736E+03  0.00000000000E+00 0.  1.
         -3    1    6    6    0  502  0.13701876879E+03 -0.42771334296E+02 -0.16886905737E+01  0.14354923098E+03  0.00000000000E+00 0.  1.
<mgrwt>
<rscale>  0 0.21066275E+04</rscale>
<asrwt>0</asrwt>
<pdfrwt beam="1">  1        2 0.20234369E+00 0.21066275E+04</pdfrwt>
<pdfrwt beam="2">  1       -2 0.12977742E+00 0.21066275E+04</pdfrwt>
<totfact> 0.65082647E+00</totfact>
</mgrwt>
</event>
<event>
12    1  0.1556559E-007  0.1168894E+04  0.7818608E-02  0.9140528E-01
          2   -1    0    0  501    0  0.00000000000E+00  0.00000000000E+00  0.21810298449E+04  0.21810298449E+04  0.00000000000E+00 0. -1.
         -2   -1    0    0    0  501 -0.00000000000E+00 -0.00000000000E+00 -0.15661337636E+03  0.15661337636E+03  0.00000000000E+00 0.  1.
         23    2    1    2    0    0  0.21210688848E+03 -0.18479512391E+03  0.26478111219E+03  0.39752742915E+03  0.93704053228E+02 0.  0.
        254    2    1    2    0    0 -0.21210688848E+03  0.18479512391E+03  0.17596353564E+04  0.19401157921E+04  0.76719888526E+03 0.  0.
        -24    2    4    4    0    0  0.23009701336E+02 -0.27707544173E+03  0.56712184760E+03  0.63686468368E+03  0.81665099832E+02 0.  0.
         24    2    4    4    0    0 -0.23511658982E+03  0.46187056564E+03  0.11925135088E+04  0.13032511084E+04  0.88151873960E+02 0.  0.
         13    1    3    3    0    0  0.63764859687E+00  0.92951921379E+01  0.10723807764E+02  0.14205887708E+02  0.00000000000E+00 0. -1.
        -13    1    3    3    0    0  0.21146923989E+03 -0.19409031605E+03  0.25405730443E+03  0.38332154144E+03  0.00000000000E+00 0.  1.
          2    1    6    6  502    0 -0.22398048391E+03  0.40076670574E+03  0.10984137724E+04  0.11905015855E+04  0.00000000000E+00 0. -1.
          1    1    5    5  503    0  0.45898229652E+02 -0.23199657328E+03  0.49721364085E+03  0.55059101168E+03  0.00000000000E+00 0. -1.
         -2    1    5    5    0  503 -0.22888528317E+02 -0.45078868451E+02  0.69908206757E+02  0.86273672005E+02  0.00000000000E+00 0.  1.
         -1    1    6    6    0  502 -0.11136105907E+02  0.61103859893E+02  0.94099736355E+02  0.11274952297E+03  0.00000000000E+00 0.  1.
<mgrwt>
<rscale>  0 0.11688943E+04</rscale>
<asrwt>0</asrwt>
<pdfrwt beam="1">  1        2 0.33554303E+00 0.11688943E+04</pdfrwt>
<pdfrwt beam="2">  1       -2 0.24094367E-01 0.11688943E+04</pdfrwt>
<totfact> 0.80507750E+01</totfact>
</mgrwt>
</event>
<event>
12    1  0.1630203E-007  0.1696528E+04  0.7818608E-02  0.8763347E-01
         -1   -1    0    0    0  501 -0.00000000000E+00  0.00000000000E+00  0.47347523583E+03  0.47347523583E+03  0.00000000000E+00 0.  1.
          1   -1    0    0  501    0  0.00000000000E+00 -0.00000000000E+00 -0.15197236645E+04  0.15197236645E+04  0.00000000000E+00 0. -1.
         23    2    1    2    0    0  0.21421552426E+03 -0.14998693552E+03  0.26612638302E+03  0.38409595450E+03  0.91225428813E+02 0.  0.
        254    2    1    2    0    0 -0.21421552426E+03  0.14998693552E+03 -0.13123748117E+04  0.16091029458E+04  0.89358842438E+03 0.  0.
        -24    2    4    4    0    0  0.79831379281E+02  0.30003462024E+02  0.10336699498E+03  0.15602220056E+03  0.79905785553E+02 0.  0.
         24    2    4    4    0    0 -0.29404690354E+03  0.11998347349E+03 -0.14157418066E+04  0.14530807452E+04  0.79114939683E+02 0.  0.
         11    1    3    3    0    0  0.38237198881E+02 -0.30135990617E+02  0.77536832858E+01  0.49298893631E+02  0.00000000000E+00 0. -1.
        -11    1    3    3    0    0  0.17597832538E+03 -0.11985094490E+03  0.25837269974E+03  0.33479706087E+03  0.00000000000E+00 0.  1.
          4    1    6    6  502    0 -0.13961668165E+03  0.45985450960E+02 -0.48765562780E+03  0.50932847046E+03  0.00000000000E+00 0. -1.
          1    1    5    5  503    0  0.21172353299E+02  0.73353650842E+01 -0.11411132510E+02  0.25145378707E+02  0.00000000000E+00 0. -1.
         -2    1    5    5    0  503  0.58659025982E+02  0.22668096940E+02  0.11477812749E+03  0.13087682185E+03  0.00000000000E+00 0.  1.
         -3    1    6    6    0  502 -0.15443022189E+03  0.73998022535E+02 -0.92808617884E+03  0.94375227476E+03  0.00000000000E+00 0.  1.
<mgrwt>
<rscale>  0 0.16965277E+04</rscale>
<asrwt>0</asrwt>
<pdfrwt beam="1">  1        1 0.23380364E+00 0.16965277E+04</pdfrwt>
<pdfrwt beam="2">  1       -1 0.72842343E-01 0.16965277E+04</pdfrwt>
<totfact> 0.11465241E+01</totfact>
</mgrwt>
</event>
<event>
12    1  0.1556559E-007  0.9999077E+03  0.7818608E-02  0.9308646E-01
          1   -1    0    0  501    0  0.00000000000E+00  0.00000000000E+00  0.94584884115E+03  0.94584884115E+03  0.00000000000E+00 0. -1.
         -1   -1    0    0    0  501 -0.00000000000E+00 -0.00000000000E+00 -0.26426405856E+03  0.26426405856E+03  0.00000000000E+00 0.  1.
         23    2    1    2    0    0  0.22653794131E+02 -0.44229803366E+02  0.44244950268E+02  0.11281680761E+03  0.91107335388E+02 0.  0.
        254    2    1    2    0    0 -0.22653794131E+02  0.44229803366E+02  0.63733983232E+03  0.10972960921E+04  0.89184481945E+03 0.  0.
        -24    2    4    4    0    0 -0.17548264825E+03 -0.24668382968E+03  0.68723640784E+03  0.75519059852E+03  0.79824107665E+02 0.  0.
         24    2    4    4    0    0  0.15282885412E+03  0.29091363305E+03 -0.49896575518E+02  0.34210549358E+03  0.80988270432E+02 0.  0.
         13    1    3    3    0    0 -0.30916678484E+00 -0.53901966511E+02 -0.84185054089E+01  0.54556290299E+02  0.00000000000E+00 0.  1.
        -13    1    3    3    0    0  0.22962960916E+02  0.96721631449E+01  0.52663455677E+02  0.58260517314E+02  0.00000000000E+00 0. -1.
          4    1    6    6  502    0  0.67278273355E+02  0.16198510557E+03  0.11179978076E+02  0.17575702660E+03  0.00000000000E+00 0. -1.
          3    1    5    5  503    0 -0.49598129618E+02 -0.66205454759E+02  0.11149109611E+03  0.13882867576E+03  0.00000000000E+00 0. -1.
         -4    1    5    5    0  503 -0.12588451863E+03 -0.18047837492E+03  0.57574531173E+03  0.61636192276E+03  0.00000000000E+00 0.  1.
         -3    1    6    6    0  502  0.85550580765E+02  0.12892852748E+03 -0.61076553593E+02  0.16634846698E+03  0.00000000000E+00 0.  1.
<mgrwt>
<rscale>  0 0.99990770E+03</rscale>
<asrwt>0</asrwt>
<pdfrwt beam="1">  1        1 0.14551520E+00 0.99990770E+03</pdfrwt>
<pdfrwt beam="2">  1       -1 0.40656009E-01 0.99990770E+03</pdfrwt>
<totfact> 0.98906838E+01</totfact>
</mgrwt>
</event>
<event>
12    1  0.1556559E-007  0.2269997E+04  0.7818608E-02  0.8489846E-01
          2   -1    0    0  501    0  0.00000000000E+00  0.00000000000E+00  0.96988740285E+03  0.96988740285E+03  0.00000000000E+00 0. -1.
         -2   -1    0    0    0  501 -0.00000000000E+00 -0.00000000000E+00 -0.13282179801E+04  0.13282179801E+04  0.00000000000E+00 0.  1.
         23    2    1    2    0    0  0.35152922864E+03 -0.12803001004E+03  0.73642196930E+03  0.83198447491E+03  0.99580959827E+02 0.  0.
        254    2    1    2    0    0 -0.35152922864E+03  0.12803001004E+03 -0.10947525466E+04  0.14661209081E+04  0.90059030461E+03 0.  0.
        -24    2    4    4    0    0 -0.54918488239E+03 -0.14457032856E+03 -0.42975524508E+03  0.71668655228E+03  0.80283426615E+02 0.  0.
         24    2    4    4    0    0  0.19765565376E+03  0.27260033860E+03 -0.66499730149E+03  0.74943435578E+03  0.77792933917E+02 0.  0.
         11    1    3    3    0    0  0.75300226213E+02 -0.69986423580E+02  0.23661383500E+03  0.25798125991E+03  0.00000000000E+00 0.  1.
        -11    1    3    3    0    0  0.27622900242E+03 -0.58043586458E+02  0.49980813431E+03  0.57400321500E+03  0.00000000000E+00 0. -1.
          4    1    6    6  502    0  0.12739918039E+03  0.11555435322E+03 -0.36783740266E+03  0.40606368282E+03  0.00000000000E+00 0. -1.
          3    1    5    5  503    0 -0.26340695262E+03 -0.49403222740E+02 -0.24642955297E+03  0.36407612622E+03  0.00000000000E+00 0. -1.
         -4    1    5    5    0  503 -0.28577792977E+03 -0.95167105823E+02 -0.18332569211E+03  0.35261042605E+03  0.00000000000E+00 0.  1.
         -3    1    6    6    0  502  0.70256473368E+02  0.15704598538E+03 -0.29715989883E+03  0.34337067296E+03  0.00000000000E+00 0.  1.
<mgrwt>
<rscale>  0 0.22699973E+04</rscale>
<asrwt>0</asrwt>
<pdfrwt beam="1">  1        2 0.14921345E+00 0.22699973E+04</pdfrwt>
<pdfrwt beam="2">  1       -2 0.20434123E+00 0.22699973E+04</pdfrwt>
<totfact> 0.29822924E+00</totfact>
</mgrwt>
</event>
<event>
12    1  0.1556559E-007  0.1669710E+04  0.7818608E-02  0.8778831E-01
          1   -1    0    0  501    0  0.00000000000E+00  0.00000000000E+00  0.31735224445E+04  0.31735224445E+04  0.00000000000E+00 0. -1.
         -1   -1    0    0    0  501 -0.00000000000E+00 -0.00000000000E+00 -0.21962439903E+03  0.21962439903E+03  0.00000000000E+00 0.  1.
         23    2    1    2    0    0  0.18459280333E+03 -0.28277829309E+03  0.75245754288E+02  0.35773922122E+03  0.90980002063E+02 0.  0.
        254    2    1    2    0    0 -0.18459280333E+03  0.28277829309E+03  0.28786522911E+04  0.30354076223E+04  0.90167752217E+03 0.  0.
        -24    2    4    4    0    0  0.62788420691E+01 -0.27724951592E+03  0.15789585384E+04  0.16051082363E+04  0.79722433007E+02 0.  0.
         24    2    4    4    0    0 -0.19087164540E+03  0.56002780902E+03  0.12996937527E+04  0.14302993859E+04  0.80556506252E+02 0.  0.
         13    1    3    3    0    0  0.49917850651E+02 -0.95473307608E+02  0.67053635903E+02  0.12689812594E+03  0.00000000000E+00 0.  1.
        -13    1    3    3    0    0  0.13467495268E+03 -0.18730498548E+03  0.81921183848E+01  0.23084109528E+03  0.00000000000E+00 0. -1.
          2    1    6    6  502    0 -0.15812765363E+03  0.35064324880E+03  0.86679646442E+03  0.94830962955E+03  0.00000000000E+00 0. -1.
          1    1    5    5  503    0  0.97347229755E+01 -0.20736332711E+03  0.13444830674E+04  0.13604150222E+04  0.00000000000E+00 0. -1.
         -2    1    5    5    0  503 -0.34558809064E+01 -0.69886188815E+02  0.23447547107E+03  0.24469321411E+03  0.00000000000E+00 0.  1.
         -1    1    6    6    0  502 -0.32743991774E+02  0.20938456022E+03  0.43289728828E+03  0.48198975638E+03  0.00000000000E+00 0.  1.
<mgrwt>
<rscale>  0 0.16697101E+04</rscale>
<asrwt>0</asrwt>
<pdfrwt beam="1">  1        1 0.48823419E+00 0.16697101E+04</pdfrwt>
<pdfrwt beam="2">  1       -1 0.33788371E-01 0.16697101E+04</pdfrwt>
<totfact> 0.35279957E+00</totfact>
</mgrwt>
</event>
<event>
12    1  0.1556559E-007  0.1585913E+04  0.7818608E-02  0.8829249E-01
         -2   -1    0    0    0  501 -0.00000000000E+00  0.00000000000E+00  0.42324023782E+03  0.42324023782E+03  0.00000000000E+00 0. -1.
          2   -1    0    0  501    0  0.00000000000E+00 -0.00000000000E+00 -0.14856334225E+04  0.14856334225E+04  0.00000000000E+00 0.  1.
         23    2    1    2    0    0 -0.16516174203E+03 -0.41575593896E+03 -0.74301327804E+03  0.87196285365E+03  0.90105965328E+02 0.  0.
        254    2    1    2    0    0  0.16516174203E+03  0.41575593896E+03 -0.31937990669E+03  0.10369108067E+04  0.87923210501E+03 0.  0.
        -24    2    4    4    0    0  0.28647621429E+03  0.45961388182E+03  0.12972919427E+03  0.56297087665E+03  0.82419672354E+02 0.  0.
         24    2    4    4    0    0 -0.12131447227E+03 -0.43857942862E+02 -0.44910910095E+03  0.47393993007E+03  0.79242365078E+02 0.  0.
         13    1    3    3    0    0  0.77467899998E+01 -0.51458042788E+02 -0.67313376310E+02  0.85082510266E+02  0.00000000000E+00 0. -1.
        -13    1    3    3    0    0 -0.17290853202E+03 -0.36429789617E+03 -0.67569990173E+03  0.78688034338E+03  0.00000000000E+00 0.  1.
          4    1    6    6  502    0  0.29331205791E+01  0.13021069575E+02 -0.24712518549E+02  0.28086652030E+02  0.00000000000E+00 0. -1.
          3    1    5    5  503    0  0.91717851481E+02  0.84475498114E+02  0.39134993075E+02  0.13068979205E+03  0.00000000000E+00 0. -1.
         -4    1    5    5    0  503  0.19475836281E+03  0.37513838371E+03  0.90594201190E+02  0.43228108460E+03  0.00000000000E+00 0.  1.
         -3    1    6    6    0  502 -0.12424759284E+03 -0.56879012437E+02 -0.42439658240E+03  0.44585327804E+03  0.00000000000E+00 0.  1.
<mgrwt>
<rscale>  0 0.15859128E+04</rscale>
<asrwt>0</asrwt>
<pdfrwt beam="1">  1        2 0.22855899E+00 0.15859128E+04</pdfrwt>
<pdfrwt beam="2">  1       -2 0.65113883E-01 0.15859128E+04</pdfrwt>
<totfact> 0.27001050E+01</totfact>
</mgrwt>
</event>
<event>
12    1  0.1556559E-007  0.1557024E+04  0.7818608E-02  0.8847393E-01
         -2   -1    0    0    0  501 -0.00000000000E+00  0.00000000000E+00  0.73839375163E+03  0.73839375163E+03  0.00000000000E+00 0.  1.
          2   -1    0    0  501    0  0.00000000000E+00 -0.00000000000E+00 -0.82081030963E+03  0.82081030963E+03  0.00000000000E+00 0. -1.
         23    2    1    2    0    0  0.30323855641E+03  0.30727273062E+03 -0.31704946640E+03  0.54319095939E+03  0.90365375788E+02 0.  0.
        254    2    1    2    0    0 -0.30323855641E+03 -0.30727273062E+03  0.23463290840E+03  0.10160131019E+04  0.88930302394E+03 0.  0.
        -24    2    4    4    0    0 -0.33648606912E+03 -0.60519240251E+02 -0.27325036691E+03  0.44512958079E+03  0.81173441016E+02 0.  0.
         24    2    4    4    0    0  0.33247512714E+02 -0.24675349037E+03  0.50788327531E+03  0.57088352108E+03  0.77265070951E+02 0.  0.
         13    1    3    3    0    0  0.54768558018E+02  0.77467452112E+02 -0.30281795294E+02  0.99588092714E+02  0.00000000000E+00 0.  1.
        -13    1    3    3    0    0  0.24846999839E+03  0.22980527851E+03 -0.28676767111E+03  0.44360286668E+03  0.00000000000E+00 0. -1.
          4    1    6    6  502    0  0.27419832246E+02 -0.11487283622E+03  0.16053908083E+03  0.19929980476E+03  0.00000000000E+00 0. -1.
          3    1    5    5  503    0 -0.91416594542E+02  0.12597268769E+02 -0.46477016682E+02  0.10332375341E+03  0.00000000000E+00 0. -1.
         -4    1    5    5    0  503 -0.24506947458E+03 -0.73116509020E+02 -0.22677335023E+03  0.34180582738E+03  0.00000000000E+00 0.  1.
         -3    1    6    6    0  502  0.58276804682E+01 -0.13188065415E+03  0.34734419448E+03  0.37158371632E+03  0.00000000000E+00 0.  1.
<mgrwt>
<rscale>  0 0.15570243E+04</rscale>
<asrwt>0</asrwt>
<pdfrwt beam="1">  1        2 0.12627851E+00 0.15570243E+04</pdfrwt>
<pdfrwt beam="2">  1       -2 0.11359904E+00 0.15570243E+04</pdfrwt>
<totfact> 0.19453811E+01</totfact>
</mgrwt>
</event>
<event>
12    1  0.1702958E-007  0.2297271E+04  0.7818608E-02  0.8478998E-01
         -2   -1    0    0    0  501 -0.00000000000E+00  0.00000000000E+00  0.53335331290E+03  0.53335331290E+03  0.00000000000E+00 0.  1.
          2   -1    0    0  501    0  0.00000000000E+00 -0.00000000000E+00 -0.24737143043E+04  0.24737143043E+04  0.00000000000E+00 0. -1.
         23    2    1    2    0    0 -0.68902479553E+03  0.17671485355E+03  0.26614669427E+02  0.71744569309E+03  0.89647496239E+02 0.  0.
        254    2    1    2    0    0  0.68902479553E+03 -0.17671485355E+03 -0.19669756608E+04  0.22896219241E+04  0.93133881954E+03 0.  0.
        -24    2    4    4    0    0  0.41582953760E+03  0.95719560868E+02 -0.18163974362E+04  0.18675859553E+04  0.80630117500E+02 0.  0.
         24    2    4    4    0    0  0.27319525793E+03 -0.27243441442E+03 -0.15057822469E+03  0.42203596879E+03  0.81144304098E+02 0.  0.
         13    1    3    3    0    0 -0.59070281029E+03  0.17894971094E+03  0.75074650277E+01  0.61725940346E+03  0.00000000000E+00 0.  1.
        -13    1    3    3    0    0 -0.98321985238E+02 -0.22348573936E+01  0.19107204400E+02  0.10018628962E+03  0.00000000000E+00 0. -1.
          2    1    6    6  502    0  0.48841898739E+02 -0.35245349300E+02  0.48793502874E+01  0.60428253151E+02  0.00000000000E+00 0. -1.
          3    1    5    5  503    0  0.25621102746E+02 -0.96619259139E+01 -0.73485579165E+02  0.78421451552E+02  0.00000000000E+00 0. -1.
         -4    1    5    5    0  503  0.39020843486E+03  0.10538148678E+03 -0.17429118570E+04  0.17891645038E+04  0.00000000000E+00 0.  1.
         -1    1    6    6    0  502  0.22435335919E+03 -0.23718906512E+03 -0.15545757498E+03  0.36160771564E+03  0.00000000000E+00 0.  1.
<mgrwt>
<rscale>  0 0.22972712E+04</rscale>
<asrwt>0</asrwt>
<pdfrwt beam="1">  1        2 0.38057142E+00 0.22972712E+04</pdfrwt>
<pdfrwt beam="2">  1       -2 0.82054358E-01 0.22972712E+04</pdfrwt>
<totfact> 0.42676347E+00</totfact>
</mgrwt>
</event>
<event>
12    1  0.1556559E-007  0.1848900E+04  0.7818608E-02  0.8680719E-01
          1   -1    0    0  501    0  0.00000000000E+00  0.00000000000E+00  0.15352419198E+04  0.15352419198E+04  0.00000000000E+00 0. -1.
         -1   -1    0    0    0  501 -0.00000000000E+00 -0.00000000000E+00 -0.55665990029E+03  0.55665990029E+03  0.00000000000E+00 0.  1.
         23    2    1    2    0    0  0.26237665094E+03 -0.43249506401E+03 -0.17444344403E+03  0.54250372502E+03  0.89366040183E+02 0.  0.
        254    2    1    2    0    0 -0.26237665094E+03  0.43249506401E+03  0.11530254636E+04  0.15493980951E+04  0.90292483081E+03 0.  0.
        -24    2    4    4    0    0  0.20682025537E+03 -0.89250693960E+02  0.56751943211E+02  0.24546627084E+03  0.79325926783E+02 0.  0.
         24    2    4    4    0    0 -0.46919690631E+03  0.52174575797E+03  0.10962735203E+04  0.13039318242E+04  0.77834426931E+02 0.  0.
         13    1    3    3    0    0  0.69860203464E+02 -0.14878636685E+03 -0.17082711607E+02  0.16525631614E+03  0.00000000000E+00 0. -1.
        -13    1    3    3    0    0  0.19251644747E+03 -0.28370869716E+03 -0.15736073243E+03  0.37724740888E+03  0.00000000000E+00 0.  1.
          2    1    6    6  502    0 -0.46653214382E+03  0.50503141738E+03  0.10810754873E+04  0.12811842892E+04  0.00000000000E+00 0. -1.
          3    1    5    5  503    0  0.19073650426E+03 -0.53579387206E+02  0.36669366488E+02  0.20148401234E+03  0.00000000000E+00 0. -1.
         -4    1    5    5    0  503  0.16083751114E+02 -0.35671306754E+02  0.20082576723E+02  0.43982258506E+02  0.00000000000E+00 0.  1.
         -1    1    6    6    0  502 -0.26647624876E+01  0.16714340592E+02  0.15198033082E+02  0.22747535034E+02  0.00000000000E+00 0.  1.
<mgrwt>
<rscale>  0 0.18488998E+04</rscale>
<asrwt>0</asrwt>
<pdfrwt beam="1">  1        1 0.23619106E+00 0.18488998E+04</pdfrwt>
<pdfrwt beam="2">  1       -1 0.85639985E-01 0.18488998E+04</pdfrwt>
<totfact> 0.78267778E+00</totfact>
</mgrwt>
</event>
<event>
12    1  0.1556559E-007  0.1454736E+04  0.7818608E-02  0.8915124E-01
         -2   -1    0    0    0  501 -0.00000000000E+00  0.00000000000E+00  0.65151990447E+03  0.65151990447E+03  0.00000000000E+00 0.  1.
          2   -1    0    0  501    0  0.00000000000E+00 -0.00000000000E+00 -0.81204582028E+03  0.81204582028E+03  0.00000000000E+00 0. -1.
         23    2    1    2    0    0 -0.32335510858E+03 -0.22475922135E+03  0.91823509625E+02  0.41401973778E+03  0.88913174091E+02 0.  0.
        254    2    1    2    0    0  0.32335510858E+03  0.22475922135E+03 -0.25234942543E+03  0.10495459870E+04  0.93956974855E+03 0.  0.
        -24    2    4    4    0    0  0.31532127220E+03  0.54448161071E+03 -0.46990483065E+00  0.63427900944E+03  0.80136832391E+02 0.  0.
         24    2    4    4    0    0  0.80338363772E+01 -0.31972238936E+03 -0.25187952060E+03  0.41526697752E+03  0.81953773158E+02 0.  0.
         11    1    3    3    0    0 -0.20032687963E+03 -0.16670987555E+03  0.96477576643E+02  0.27790459533E+03  0.00000000000E+00 0.  1.
        -11    1    3    3    0    0 -0.12302822895E+03 -0.58049345802E+02 -0.46540670182E+01  0.13611514245E+03  0.00000000000E+00 0. -1.
          4    1    6    6  502    0 -0.20145263930E+02 -0.22690270425E+03 -0.14081286525E+03  0.26780390564E+03  0.00000000000E+00 0. -1.
          1    1    5    5  503    0  0.25345415236E+03  0.36458089326E+03  0.14846451440E+01  0.44402752083E+03  0.00000000000E+00 0. -1.
         -2    1    5    5    0  503  0.61867119845E+02  0.17990071744E+03 -0.19545499747E+01  0.19025148861E+03  0.00000000000E+00 0.  1.
         -3    1    6    6    0  502  0.28179100307E+02 -0.92819685108E+02 -0.11106665535E+03  0.14746307188E+03  0.00000000000E+00 0.  1.
<mgrwt>
<rscale>  0 0.14547357E+04</rscale>
<asrwt>0</asrwt>
<pdfrwt beam="1">  1        2 0.12493013E+00 0.14547357E+04</pdfrwt>
<pdfrwt beam="2">  1       -2 0.10023383E+00 0.14547357E+04</pdfrwt>
<totfact> 0.26893867E+01</totfact>
</mgrwt>
</event>
<event>
12    1  0.1556559E-007  0.1446182E+04  0.7818608E-02  0.8921052E-01
         -1   -1    0    0    0  501 -0.00000000000E+00  0.00000000000E+00  0.45495969524E+03  0.45495969524E+03  0.00000000000E+00 0.  1.
          1   -1    0    0  501    0  0.00000000000E+00 -0.00000000000E+00 -0.11492453941E+04  0.11492453941E+04  0.00000000000E+00 0. -1.
         23    2    1    2    0    0  0.19214998243E+03 -0.47403698398E+03 -0.14009609525E+03  0.53814273377E+03  0.91312693958E+02 0.  0.
        254    2    1    2    0    0 -0.19214998243E+03  0.47403698398E+03 -0.55418960357E+03  0.10660623555E+04  0.75347869992E+03 0.  0.
        -24    2    4    4    0    0 -0.29482160497E+03  0.54942528358E+03 -0.63671248335E+03  0.89465217718E+03  0.78815040978E+02 0.  0.
         24    2    4    4    0    0  0.10267162254E+03 -0.75388299597E+02  0.82522879777E+02  0.17141017835E+03  0.79665336027E+02 0.  0.
         13    1    3    3    0    0  0.14462164573E+03 -0.35846217098E+03 -0.63910449958E+02  0.39178449950E+03  0.00000000000E+00 0.  1.
        -13    1    3    3    0    0  0.47528336703E+02 -0.11557481300E+03 -0.76185645292E+02  0.14635823427E+03  0.00000000000E+00 0. -1.
          4    1    6    6  502    0  0.10962837436E+03 -0.46063494634E+02  0.56777221741E+02  0.13177207182E+03  0.00000000000E+00 0. -1.
          1    1    5    5  503    0 -0.80969964789E+02  0.10411569112E+03 -0.10248343732E+03  0.16703013878E+03  0.00000000000E+00 0. -1.
         -2    1    5    5    0  503 -0.21385164018E+03  0.44530959246E+03 -0.53422904603E+03  0.72762203840E+03  0.00000000000E+00 0.  1.
         -3    1    6    6    0  502 -0.69567518164E+01 -0.29324804963E+02  0.25745658036E+02  0.39638106535E+02  0.00000000000E+00 0.  1.
<mgrwt>
<rscale>  0 0.14461816E+04</rscale>
<asrwt>0</asrwt>
<pdfrwt beam="1">  1        1 0.17680698E+00 0.14461816E+04</pdfrwt>
<pdfrwt beam="2">  1       -1 0.69993799E-01 0.14461816E+04</pdfrwt>
<totfact> 0.23352987E+01</totfact>
</mgrwt>
</event>
<event>
12    1  0.1556559E-007  0.3664769E+04  0.7818608E-02  0.8075815E-01
         -1   -1    0    0    0  501 -0.00000000000E+00  0.00000000000E+00  0.10791253298E+04  0.10791253298E+04  0.00000000000E+00 0.  1.
          1   -1    0    0  501    0  0.00000000000E+00 -0.00000000000E+00 -0.31114395960E+04  0.31114395960E+04  0.00000000000E+00 0. -1.
         23    2    1    2    0    0  0.34829668480E+03 -0.39911532719E+03  0.88653007076E+03  0.10359016398E+04  0.80950700518E+02 0.  0.
        254    2    1    2    0    0 -0.34829668480E+03  0.39911532719E+03 -0.29188443370E+04  0.31546632860E+04  0.10731470352E+04 0.  0.
        -24    2    4    4    0    0 -0.61471472190E+02  0.27247404211E+03 -0.27922576956E+04  0.28072445541E+04  0.76799101504E+02 0.  0.
         24    2    4    4    0    0 -0.28682521261E+03  0.12664128508E+03 -0.12658664139E+03  0.34741873193E+03  0.79805261969E+02 0.  0.
         11    1    3    3    0    0  0.29817742596E+03 -0.30129531216E+03  0.66521570644E+03  0.78879691847E+03  0.00000000000E+00 0.  1.
        -11    1    3    3    0    0  0.50119258838E+02 -0.97820015031E+02  0.22131436432E+03  0.24710472132E+03  0.00000000000E+00 0. -1.
          2    1    6    6  502    0 -0.16861131210E+01 -0.63414042978E+01 -0.98498933154E+01  0.11835403848E+02  0.00000000000E+00 0. -1.
          3    1    5    5  503    0 -0.58430177470E+02  0.25325067600E+03 -0.23065154237E+04  0.23211125329E+04  0.00000000000E+00 0. -1.
         -4    1    5    5    0  503 -0.30412947203E+01  0.19223366113E+02 -0.48574227190E+03  0.48613202115E+03  0.00000000000E+00 0.  1.
         -1    1    6    6    0  502 -0.28513909949E+03  0.13298268938E+03 -0.11673674808E+03  0.33558332808E+03  0.00000000000E+00 0.  1.
<mgrwt>
<rscale>  0 0.36647692E+04</rscale>
<asrwt>0</asrwt>
<pdfrwt beam="1">  1        1 0.47868300E+00 0.36647692E+04</pdfrwt>
<pdfrwt beam="2">  1       -1 0.16601929E+00 0.36647692E+04</pdfrwt>
<totfact> 0.10478302E-01</totfact>
</mgrwt>
</event>
<event>
12    1  0.1556559E-007  0.2795706E+04  0.7818608E-02  0.8304603E-01
          2   -1    0    0  501    0  0.00000000000E+00  0.00000000000E+00  0.27040262913E+04  0.27040262913E+04  0.00000000000E+00 0. -1.
         -2   -1    0    0    0  501 -0.00000000000E+00 -0.00000000000E+00 -0.72262356947E+03  0.72262356947E+03  0.00000000000E+00 0.  1.
         23    2    1    2    0    0  0.84966622958E+03  0.36364160496E+03 -0.13852997142E+03  0.93896803619E+03  0.91118063216E+02 0.  0.
        254    2    1    2    0    0 -0.84966622958E+03 -0.36364160496E+03  0.21199326933E+04  0.24876818246E+04  0.91666696130E+03 0.  0.
        -24    2    4    4    0    0 -0.12522509693E+03  0.17995432122E+03  0.10860742762E+04  0.11108384238E+04  0.79622783836E+02 0.  0.
         24    2    4    4    0    0 -0.72444113265E+03 -0.54359592618E+03  0.10338584170E+04  0.13768434008E+04  0.80765327880E+02 0.  0.
         11    1    3    3    0    0  0.47570732419E+03  0.17059619313E+03 -0.10966085324E+03  0.51713249959E+03  0.00000000000E+00 0. -1.
        -11    1    3    3    0    0  0.37395890540E+03  0.19304541183E+03 -0.28869118185E+02  0.42183553660E+03  0.00000000000E+00 0.  1.
          4    1    6    6  502    0 -0.42214998380E+03 -0.27775020328E+03  0.61344350129E+03  0.79477588887E+03  0.00000000000E+00 0. -1.
          3    1    5    5  503    0 -0.73744673477E+01  0.74973715075E+02  0.33706849670E+03  0.34538473068E+03  0.00000000000E+00 0. -1.
         -4    1    5    5    0  503 -0.11785062958E+03  0.10498060615E+03  0.74900577953E+03  0.76545369313E+03  0.00000000000E+00 0.  1.
         -3    1    6    6    0  502 -0.30229114885E+03 -0.26584572290E+03  0.42041491575E+03  0.58206751193E+03  0.00000000000E+00 0.  1.
<mgrwt>
<rscale>  0 0.27957061E+04</rscale>
<asrwt>0</asrwt>
<pdfrwt beam="1">  1        2 0.41600404E+00 0.27957061E+04</pdfrwt>
<pdfrwt beam="2">  1       -2 0.11117286E+00 0.27957061E+04</pdfrwt>
<totfact> 0.14714686E+00</totfact>
</mgrwt>
</event>
<event>
12    1  0.1556559E-007  0.2110724E+04  0.7818608E-02  0.8556534E-01
         -2   -1    0    0    0  501 -0.00000000000E+00  0.00000000000E+00  0.48306331962E+03  0.48306331962E+03  0.00000000000E+00 0.  1.
          2   -1    0    0  501    0  0.00000000000E+00 -0.00000000000E+00 -0.23056795213E+04  0.23056795213E+04  0.00000000000E+00 0. -1.
         23    2    1    2    0    0  0.40770931015E+03  0.46325602618E+02  0.24862508130E+03  0.48864089872E+03  0.92642073673E+02 0.  0.
        254    2    1    2    0    0 -0.40770931015E+03 -0.46325602618E+02 -0.20712412830E+04  0.23001019422E+04  0.91217078946E+03 0.  0.
        -24    2    4    4    0    0 -0.14451153955E+03 -0.45590106651E+03 -0.79402738766E+03  0.93058961361E+03  0.82390345840E+02 0.  0.
         24    2    4    4    0    0 -0.26319777060E+03  0.40957546390E+03 -0.12772138953E+04  0.13695123286E+04  0.85226502278E+02 0.  0.
         11    1    3    3    0    0  0.32871809673E+03  0.11632480741E+02  0.16302936919E+03  0.36710962524E+03  0.00000000000E+00 0.  1.
        -11    1    3    3    0    0  0.78991213419E+02  0.34693121877E+02  0.85595712106E+02  0.12153127348E+03  0.00000000000E+00 0. -1.
          2    1    6    6  502    0 -0.24211879817E+03  0.38286762032E+03 -0.11101160374E+04  0.11989857145E+04  0.00000000000E+00 0. -1.
          3    1    5    5  503    0 -0.12990421876E+03 -0.44735296919E+03 -0.78040871207E+03  0.90886607537E+03  0.00000000000E+00 0. -1.
         -4    1    5    5    0  503 -0.14607320789E+02 -0.85480973241E+01 -0.13618675596E+02  0.21723538236E+02  0.00000000000E+00 0.  1.
         -1    1    6    6    0  502 -0.21078972433E+02  0.26707843572E+02 -0.16709785791E+03  0.17052661406E+03  0.00000000000E+00 0.  1.
<mgrwt>
<rscale>  0 0.21107242E+04</rscale>
<asrwt>0</asrwt>
<pdfrwt beam="1">  1        2 0.35471992E+00 0.21107242E+04</pdfrwt>
<pdfrwt beam="2">  1       -2 0.74317435E-01 0.21107242E+04</pdfrwt>
<totfact> 0.67518003E+00</totfact>
</mgrwt>
</event>
<event>
12    1  0.1556559E-007  0.1977999E+04  0.7818608E-02  0.8616976E-01
          1   -1    0    0  501    0  0.00000000000E+00  0.00000000000E+00  0.25398210607E+04  0.25398210607E+04  0.00000000000E+00 0. -1.
         -1   -1    0    0    0  501 -0.00000000000E+00 -0.00000000000E+00 -0.38511391358E+03  0.38511391358E+03  0.00000000000E+00 0.  1.
         23    2    1    2    0    0  0.42246789666E+03 -0.38105260490E+03  0.68292581665E+02  0.58272870815E+03  0.10596536783E+03 0.  0.
        254    2    1    2    0    0 -0.42246789666E+03  0.38105260490E+03  0.20864145655E+04  0.23422062662E+04  0.89951333661E+03 0.  0.
        -24    2    4    4    0    0 -0.30535414376E+03 -0.88873171756E+02  0.16592316795E+04  0.16913098605E+04  0.79622133255E+02 0.  0.
         24    2    4    4    0    0 -0.11711375290E+03  0.46992577666E+03  0.42718288596E+03  0.65089640566E+03  0.81455792630E+02 0.  0.
         11    1    3    3    0    0  0.32161347632E+03 -0.29685034357E+03  0.96895086951E+02  0.44826779106E+03  0.00000000000E+00 0. -1.
        -11    1    3    3    0    0  0.10085442034E+03 -0.84202261335E+02 -0.28602505285E+02  0.13446091709E+03  0.00000000000E+00 0.  1.
          2    1    6    6  502    0 -0.68834380886E+02  0.37697045327E+03  0.36424983293E+03  0.52869919181E+03  0.00000000000E+00 0. -1.
          3    1    5    5  503    0 -0.20499134039E+03 -0.88485411096E+02  0.12617922997E+04  0.12813941335E+04  0.00000000000E+00 0. -1.
         -4    1    5    5    0  503 -0.10036280338E+03 -0.38776066023E+00  0.39743937981E+03  0.40991572705E+03  0.00000000000E+00 0.  1.
         -1    1    6    6    0  502 -0.48279372011E+02  0.92955323387E+02  0.62933053027E+02  0.12219721384E+03  0.00000000000E+00 0.  1.
<mgrwt>
<rscale>  0 0.19779994E+04</rscale>
<asrwt>0</asrwt>
<pdfrwt beam="1">  1        1 0.39074169E+00 0.19779994E+04</pdfrwt>
<pdfrwt beam="2">  1       -1 0.59248296E-01 0.19779994E+04</pdfrwt>
<totfact> 0.34134480E+00</totfact>
</mgrwt>
</event>
<event>
12    1  0.1556559E-007  0.2615423E+04  0.7818608E-02  0.8362981E-01
         -2   -1    0    0    0  501 -0.00000000000E+00  0.00000000000E+00  0.92998870943E+03  0.92998870943E+03  0.00000000000E+00 0.  1.
          2   -1    0    0  501    0  0.00000000000E+00 -0.00000000000E+00 -0.18388499494E+04  0.18388499494E+04  0.00000000000E+00 0. -1.
         23    2    1    2    0    0 -0.43556795767E+03 -0.81281603728E+03  0.32135967316E+03  0.98099032270E+03  0.93169831453E+02 0.  0.
        254    2    1    2    0    0  0.43556795767E+03  0.81281603728E+03 -0.12302209131E+04  0.17878483361E+04  0.91245209279E+03 0.  0.
        -24    2    4    4    0    0  0.20353267763E+03  0.95422033795E+03 -0.75970851843E+03  0.12391824264E+04  0.80337094886E+02 0.  0.
         24    2    4    4    0    0  0.23203528004E+03 -0.14140430067E+03 -0.47051239468E+03  0.54866590966E+03  0.76268076139E+02 0.  0.
         13    1    3    3    0    0 -0.23195366905E+03 -0.35972643389E+03  0.18167750613E+03  0.46498637405E+03  0.00000000000E+00 0.  1.
        -13    1    3    3    0    0 -0.20361428862E+03 -0.45308960339E+03  0.13968216703E+03  0.51600394865E+03  0.00000000000E+00 0. -1.
          2    1    6    6  502    0  0.18532845096E+03 -0.72565319869E+02 -0.33396371015E+03  0.38877258144E+03  0.00000000000E+00 0. -1.
          1    1    5    5  503    0  0.16952490593E+03  0.84796042168E+03 -0.70054713577E+03  0.11128979557E+04  0.00000000000E+00 0. -1.
         -2    1    5    5    0  503  0.34007771698E+02  0.10625991627E+03 -0.59161382656E+02  0.12628447069E+03  0.00000000000E+00 0.  1.
         -1    1    6    6    0  502  0.46706829083E+02 -0.68838980802E+02 -0.13654868454E+03  0.15989332822E+03  0.00000000000E+00 0.  1.
<mgrwt>
<rscale>  0 0.26154232E+04</rscale>
<asrwt>0</asrwt>
<pdfrwt beam="1">  1        2 0.28289999E+00 0.26154232E+04</pdfrwt>
<pdfrwt beam="2">  1       -2 0.14307519E+00 0.26154232E+04</pdfrwt>
<totfact> 0.24619372E+00</totfact>
</mgrwt>
</event>
<event>
12    1  0.1556559E-007  0.1834545E+04  0.7818608E-02  0.8688141E-01
         -1   -1    0    0    0  501 -0.00000000000E+00  0.00000000000E+00  0.95725210656E+03  0.95725210656E+03  0.00000000000E+00 0.  1.
          1   -1    0    0  501    0  0.00000000000E+00 -0.00000000000E+00 -0.87896284311E+03  0.87896284311E+03  0.00000000000E+00 0. -1.
         23    2    1    2    0    0  0.59283448780E+03 -0.42695699856E+02  0.36829715513E+03  0.70574673790E+03  0.95707945717E+02 0.  0.
        254    2    1    2    0    0 -0.59283448780E+03  0.42695699856E+02 -0.29000789167E+03  0.11304682118E+04  0.91683049026E+03 0.  0.
        -24    2    4    4    0    0 -0.74083558994E+02  0.36059508073E+03  0.11768721781E+03  0.39379794598E+03  0.75560274341E+02 0.  0.
         24    2    4    4    0    0 -0.51875092880E+03 -0.31789938088E+03 -0.40769510949E+03  0.73667026579E+03  0.79405514285E+02 0.  0.
         11    1    3    3    0    0  0.67294332206E+01 -0.66802146484E+01 -0.41827977499E+01  0.10363702825E+02  0.00000000000E+00 0. -1.
        -11    1    3    3    0    0  0.58610505458E+03 -0.36015485207E+02  0.37247995288E+03  0.69538303508E+03  0.00000000000E+00 0.  1.
          4    1    6    6  502    0 -0.25322448588E+03 -0.11147261919E+03 -0.16828360470E+03  0.32383353237E+03  0.00000000000E+00 0. -1.
          3    1    5    5  503    0 -0.54138668548E+02  0.94693308556E+02  0.37754848597E+02  0.11542636921E+03  0.00000000000E+00 0. -1.
         -4    1    5    5    0  503 -0.19944890446E+02  0.26590177218E+03  0.79932369217E+02  0.27837157677E+03  0.00000000000E+00 0.  1.
         -3    1    6    6    0  502 -0.26552644293E+03 -0.20642676169E+03 -0.23941150479E+03  0.41283673342E+03  0.00000000000E+00 0.  1.
<mgrwt>
<rscale>  0 0.18345452E+04</rscale>
<asrwt>0</asrwt>
<pdfrwt beam="1">  1        1 0.13522505E+00 0.18345452E+04</pdfrwt>
<pdfrwt beam="2">  1       -1 0.14726956E+00 0.18345452E+04</pdfrwt>
<totfact> 0.65324448E+00</totfact>
</mgrwt>
</event>
<event>
12    1  0.1556559E-007  0.1406321E+04  0.7818608E-02  0.8949256E-01
         -1   -1    0    0    0  501 -0.00000000000E+00  0.00000000000E+00  0.87235114934E+03  0.87235114934E+03  0.00000000000E+00 0.  1.
          1   -1    0    0  501    0  0.00000000000E+00 -0.00000000000E+00 -0.56678403012E+03  0.56678403012E+03  0.00000000000E+00 0. -1.
         23    2    1    2    0    0 -0.26102958133E+03 -0.14300779378E+03 -0.18815575344E+03  0.36367535929E+03  0.90936835145E+02 0.  0.
        254    2    1    2    0    0  0.26102958133E+03  0.14300779378E+03  0.49372287266E+03  0.10754598202E+04  0.90788979420E+03 0.  0.
        -24    2    4    4    0    0  0.38642477898E+03  0.44671218907E+03  0.42039554054E+03  0.72930922065E+03  0.79269408610E+02 0.  0.
         24    2    4    4    0    0 -0.12539519765E+03 -0.30370439529E+03  0.73327332114E+02  0.34615059952E+03  0.80517231715E+02 0.  0.
         13    1    3    3    0    0 -0.22082330889E+03 -0.14849276240E+03 -0.18256823534E+03  0.32271379702E+03  0.00000000000E+00 0. -1.
        -13    1    3    3    0    0 -0.40206272445E+02  0.54849686158E+01 -0.55875180997E+01  0.40961562265E+02  0.00000000000E+00 0.  1.
          2    1    6    6  502    0 -0.81436547502E+02 -0.26572699920E+03  0.75566693227E+02  0.28801575391E+03  0.00000000000E+00 0. -1.
          3    1    5    5  503    0  0.18096574154E+03  0.22716913054E+03  0.16029903006E+03  0.33173813848E+03  0.00000000000E+00 0. -1.
         -2    1    5    5    0  503  0.20545903744E+03  0.21954305853E+03  0.26009651048E+03  0.39757108217E+03  0.00000000000E+00 0.  1.
         -1    1    6    6    0  502 -0.43958650148E+02 -0.37977396087E+02 -0.22393611132E+01  0.58134845614E+02  0.00000000000E+00 0.  1.
<mgrwt>
<rscale>  0 0.14063210E+04</rscale>
<asrwt>0</asrwt>
<pdfrwt beam="1">  1        1 0.87197544E-01 0.14063210E+04</pdfrwt>
<pdfrwt beam="2">  1       -1 0.13420787E+00 0.14063210E+04</pdfrwt>
<totfact> 0.16944062E+01</totfact>
</mgrwt>
</event>
<event>
12    1  0.1556559E-007  0.1088272E+04  0.7818608E-02  0.9216699E-01
          1   -1    0    0  501    0  0.00000000000E+00  0.00000000000E+00  0.32111516967E+04  0.32111516967E+04  0.00000000000E+00 0.  1.
         -1   -1    0    0    0  501 -0.00000000000E+00 -0.00000000000E+00 -0.92204917405E+02  0.92204917405E+02  0.00000000000E+00 0. -1.
         23    2    1    2    0    0  0.10799653952E+03 -0.93149239292E+02  0.35688304679E+03  0.39445860919E+03  0.88837221673E+02 0.  0.
        254    2    1    2    0    0 -0.10799653952E+03  0.93149239292E+02  0.27620637325E+04  0.29088980049E+04  0.90130544612E+03 0.  0.
        -24    2    4    4    0    0 -0.24700168283E+03 -0.34167891984E+03  0.16187468447E+04  0.16749661893E+04  0.86116622328E+02 0.  0.
         24    2    4    4    0    0  0.13900514331E+03  0.43482815913E+03  0.11433168878E+04  0.12339318156E+04  0.83763128398E+02 0.  0.
         13    1    3    3    0    0  0.41325462635E+02 -0.82686905294E+02  0.14384126328E+03  0.17098311961E+03  0.00000000000E+00 0. -1.
        -13    1    3    3    0    0  0.66671076882E+02 -0.10462333998E+02  0.21304178351E+03  0.22347548959E+03  0.00000000000E+00 0.  1.
          4    1    6    6  502    0  0.14136771620E+03  0.33279806751E+03  0.86744928791E+03  0.93979128109E+03  0.00000000000E+00 0. -1.
          3    1    5    5  503    0 -0.11471467389E+03 -0.93480418724E+02  0.50287482762E+03  0.52419570519E+03  0.00000000000E+00 0. -1.
         -4    1    5    5    0  503 -0.13228700894E+03 -0.24819850112E+03  0.11158720171E+04  0.11507704841E+04  0.00000000000E+00 0.  1.
         -3    1    6    6    0  502 -0.23625728871E+01  0.10203009162E+03  0.27586759993E+03  0.29414053451E+03  0.00000000000E+00 0.  1.
<mgrwt>
<rscale>  0 0.10882720E+04</rscale>
<asrwt>0</asrwt>
<pdfrwt beam="1">  1        1 0.49402325E+00 0.10882720E+04</pdfrwt>
<pdfrwt beam="2">  1       -1 0.14185374E-01 0.10882720E+04</pdfrwt>
<totfact> 0.15320216E+01</totfact>
</mgrwt>
</event>
<event>
12    1  0.1556559E-007  0.2466464E+04  0.7818608E-02  0.8415031E-01
         -1   -1    0    0    0  501 -0.00000000000E+00  0.00000000000E+00  0.13114694862E+04  0.13114694862E+04  0.00000000000E+00 0.  1.
          1   -1    0    0  501    0  0.00000000000E+00 -0.00000000000E+00 -0.11596617931E+04  0.11596617931E+04  0.00000000000E+00 0. -1.
         23    2    1    2    0    0  0.89879632162E+03  0.98078988273E+02 -0.50455241332E+03  0.10395839022E+04  0.93312572844E+02 0.  0.
        254    2    1    2    0    0 -0.89879632162E+03 -0.98078988273E+02  0.65636010645E+03  0.14315473770E+04  0.89502233921E+03 0.  0.
        -24    2    4    4    0    0 -0.98756894290E+03 -0.30068332555E+03  0.55818333190E+03  0.11764964524E+04  0.82899887013E+02 0.  0.
         24    2    4    4    0    0  0.88772621283E+02  0.20260433728E+03  0.98176774548E+02  0.25505092464E+03  0.80518316704E+02 0.  0.
         11    1    3    3    0    0  0.84407874624E+03  0.78001210585E+02 -0.49148414349E+03  0.97985191841E+03  0.00000000000E+00 0. -1.
        -11    1    3    3    0    0  0.54717575381E+02  0.20077777688E+02 -0.13068269823E+02  0.59731983799E+02  0.00000000000E+00 0.  1.
          2    1    6    6  502    0  0.53265569382E+02  0.34267924633E+02  0.27942608265E+02  0.69226446513E+02  0.00000000000E+00 0. -1.
          1    1    5    5  503    0 -0.90411015695E+02 -0.16953866899E+02  0.26545868186E+02  0.95740631289E+02  0.00000000000E+00 0. -1.
         -2    1    5    5    0  503 -0.89715792721E+03 -0.28372945865E+03  0.53163746371E+03  0.10807558211E+04  0.00000000000E+00 0.  1.
         -1    1    6    6    0  502  0.35507051901E+02  0.16833641264E+03  0.70234166284E+02  0.18582447812E+03  0.00000000000E+00 0.  1.
<mgrwt>
<rscale>  0 0.24664639E+04</rscale>
<asrwt>0</asrwt>
<pdfrwt beam="1">  1        1 0.17840951E+00 0.24664639E+04</pdfrwt>
<pdfrwt beam="2">  1       -1 0.20176454E+00 0.24664639E+04</pdfrwt>
<totfact> 0.14919821E+00</totfact>
</mgrwt>
</event>
<event>
12    1  0.1567800E-007  0.1525980E+04  0.7818608E-02  0.8867358E-01
          1   -1    0    0  501    0  0.00000000000E+00  0.00000000000E+00  0.92018186463E+03  0.92018186463E+03  0.00000000000E+00 0. -1.
         -1   -1    0    0    0  501 -0.00000000000E+00 -0.00000000000E+00 -0.63265081315E+03  0.63265081315E+03  0.00000000000E+00 0.  1.
         23    2    1    2    0    0 -0.40852256629E+02  0.17335380668E+03 -0.37516010512E+03  0.42490960047E+03  0.89903364403E+02 0.  0.
        254    2    1    2    0    0  0.40852256629E+02 -0.17335380668E+03  0.66269115660E+03  0.11279230773E+04  0.89517062628E+03 0.  0.
        -24    2    4    4    0    0 -0.27482640644E+03 -0.40793924395E+03  0.45733397405E+03  0.67707379161E+03  0.85618777357E+02 0.  0.
         24    2    4    4    0    0  0.31567866307E+03  0.23458543727E+03  0.20535718255E+03  0.45084928571E+03  0.80063476700E+02 0.  0.
         11    1    3    3    0    0 -0.23284539940E+02 -0.12363524055E+01 -0.33389207376E+02  0.40725146245E+02  0.00000000000E+00 0. -1.
        -11    1    3    3    0    0 -0.17567716689E+02  0.17459015908E+03 -0.34177089775E+03  0.38418445422E+03  0.00000000000E+00 0.  1.
          2    1    6    6  502    0  0.31557434412E+03  0.21758888929E+03  0.20280738554E+03  0.43366222690E+03  0.00000000000E+00 0. -1.
          3    1    5    5  503    0 -0.27286636905E+03 -0.37186676999E+03  0.40710987224E+03  0.61520679292E+03  0.00000000000E+00 0. -1.
         -4    1    5    5    0  503 -0.19600373850E+01 -0.36072473961E+02  0.50224101807E+02  0.61866998687E+02  0.00000000000E+00 0.  1.
         -1    1    6    6    0  502  0.10431894672E+00  0.16996547979E+02  0.25497970133E+01  0.17187058807E+02  0.00000000000E+00 0.  1.
<mgrwt>
<rscale>  0 0.15259801E+04</rscale>
<asrwt>0</asrwt>
<pdfrwt beam="1">  1        1 0.14156644E+00 0.15259801E+04</pdfrwt>
<pdfrwt beam="2">  1       -1 0.97330894E-01 0.15259801E+04</pdfrwt>
<totfact> 0.17148185E+01</totfact>
</mgrwt>
</event>
<event>
12    1  0.1556559E-007  0.1565575E+04  0.7818608E-02  0.8841980E-01
          1   -1    0    0  501    0  0.00000000000E+00  0.00000000000E+00  0.24657682786E+04  0.24657682786E+04  0.00000000000E+00 0. -1.
         -1   -1    0    0    0  501 -0.00000000000E+00 -0.00000000000E+00 -0.24850507770E+03  0.24850507770E+03  0.00000000000E+00 0.  1.
         23    2    1    2    0    0  0.10323490675E+02 -0.37380169320E+03  0.13288165451E+03  0.40514605326E+03  0.81556790440E+02 0.  0.
        254    2    1    2    0    0 -0.10323490675E+02  0.37380169320E+03  0.20843815463E+04  0.23091273030E+04  0.92064552917E+03 0.  0.
        -24    2    4    4    0    0 -0.42636221348E+03  0.17706180387E+03  0.65445803287E+03  0.80482987511E+03  0.79373746381E+02 0.  0.
         24    2    4    4    0    0  0.41603872280E+03  0.19673988933E+03  0.14299235135E+04  0.15042974279E+04  0.80216545781E+02 0.  0.
         11    1    3    3    0    0  0.34034234695E+02 -0.14470753808E+03  0.24728369237E+02  0.15069868266E+03  0.00000000000E+00 0. -1.
        -11    1    3    3    0    0 -0.23710744021E+02 -0.22909415512E+03  0.10815328527E+03  0.25444737060E+03  0.00000000000E+00 0.  1.
          4    1    6    6  502    0  0.28816230803E+03  0.15070606665E+03  0.89060550038E+03  0.94811813167E+03  0.00000000000E+00 0. -1.
          1    1    5    5  503    0 -0.67051800011E+02  0.48475643505E+02  0.79479225252E+02  0.11472915560E+03  0.00000000000E+00 0. -1.
         -4    1    5    5    0  503 -0.35931041347E+03  0.12858616037E+03  0.57497880762E+03  0.69010071951E+03  0.00000000000E+00 0.  1.
         -3    1    6    6    0  502  0.12787641477E+03  0.46033822681E+02  0.53931801310E+03  0.55617929621E+03  0.00000000000E+00 0.  1.
<mgrwt>
<rscale>  0 0.15655746E+04</rscale>
<asrwt>0</asrwt>
<pdfrwt beam="1">  1        1 0.37934895E+00 0.15655746E+04</pdfrwt>
<pdfrwt beam="2">  1       -1 0.38231552E-01 0.15655746E+04</pdfrwt>
<totfact> 0.91265859E+00</totfact>
</mgrwt>
</event>
<event>
12    1  0.1556559E-007  0.1695220E+04  0.7818608E-02  0.8764096E-01
         -2   -1    0    0    0  501 -0.00000000000E+00  0.00000000000E+00  0.50522557369E+03  0.50522557369E+03  0.00000000000E+00 0.  1.
          2   -1    0    0  501    0  0.00000000000E+00 -0.00000000000E+00 -0.14220229175E+04  0.14220229175E+04  0.00000000000E+00 0. -1.
         23    2    1    2    0    0  0.85703853322E+02  0.44800711936E+03 -0.78089701269E+03  0.90887808287E+03  0.90574254795E+02 0.  0.
        254    2    1    2    0    0 -0.85703853322E+02 -0.44800711936E+03 -0.13590033112E+03  0.10183704083E+04  0.90030764690E+03 0.  0.
        -24    2    4    4    0    0 -0.35268642742E+03 -0.46673014018E+03 -0.33172791711E+03  0.67723355444E+03  0.79856974815E+02 0.  0.
         24    2    4    4    0    0  0.26698257410E+03  0.18723020828E+02  0.19582758599E+03  0.34113685388E+03  0.79972890773E+02 0.  0.
         13    1    3    3    0    0  0.71328296769E+02  0.42728526333E+03 -0.76478121928E+03  0.87894865353E+03  0.00000000000E+00 0. -1.
        -13    1    3    3    0    0  0.14375556553E+02  0.20721856030E+02 -0.16115793401E+02  0.29929429338E+02  0.00000000000E+00 0.  1.
          2    1    6    6  502    0  0.69268767494E+02 -0.19320455486E+02  0.22172970966E+02  0.75253457009E+02  0.00000000000E+00 0. -1.
          3    1    5    5  503    0 -0.19112854487E+03 -0.19291705053E+03 -0.17188969607E+03  0.32139255851E+03  0.00000000000E+00 0. -1.
         -4    1    5    5    0  503 -0.16155788255E+03 -0.27381308966E+03 -0.15983822104E+03  0.35584099593E+03  0.00000000000E+00 0.  1.
         -1    1    6    6    0  502  0.19771380660E+03  0.38043476314E+02  0.17365461502E+03  0.26588339687E+03  0.00000000000E+00 0.  1.
<mgrwt>
<rscale>  0 0.16952196E+04</rscale>
<asrwt>0</asrwt>
<pdfrwt beam="1">  1        2 0.21877275E+00 0.16952196E+04</pdfrwt>
<pdfrwt beam="2">  1       -2 0.77727012E-01 0.16952196E+04</pdfrwt>
<totfact> 0.19732320E+01</totfact>
</mgrwt>
</event>
<event>
12    1  0.1556559E-007  0.1475831E+04  0.7818608E-02  0.8900686E-01
         -1   -1    0    0    0  501 -0.00000000000E+00  0.00000000000E+00  0.15190591280E+04  0.15190591280E+04  0.00000000000E+00 0.  1.
          1   -1    0    0  501    0  0.00000000000E+00 -0.00000000000E+00 -0.35845836324E+03  0.35845836324E+03  0.00000000000E+00 0. -1.
         23    2    1    2    0    0  0.63572914199E+01 -0.18087819976E+02  0.94735927046E+03  0.95200947141E+03  0.92004684382E+02 0.  0.
        254    2    1    2    0    0 -0.63572914199E+01  0.18087819976E+02  0.21324149431E+03  0.92550801983E+03  0.90040300726E+03 0.  0.
        -24    2    4    4    0    0 -0.44445280372E+03  0.49507211234E+02  0.12521676348E+03  0.47041119657E+03  0.74954634960E+02 0.  0.
         24    2    4    4    0    0  0.43809551230E+03 -0.31419391258E+02  0.88024730825E+02  0.45509682325E+03  0.80311327040E+02 0.  0.
         13    1    3    3    0    0 -0.20109041761E+02  0.61278342084E+01  0.80247300205E+03  0.80274830609E+03  0.00000000000E+00 0.  1.
        -13    1    3    3    0    0  0.26466333181E+02 -0.24215654184E+02  0.14488626841E+03  0.14926116532E+03  0.00000000000E+00 0. -1.
          4    1    6    6  502    0  0.36660938484E+03  0.41905885456E+01  0.73103809993E+02  0.37385046358E+03  0.00000000000E+00 0. -1.
          1    1    5    5  503    0 -0.31691778814E+03  0.74209686855E+01  0.66850679623E+02  0.32397680253E+03  0.00000000000E+00 0. -1.
         -2    1    5    5    0  503 -0.12753501559E+03  0.42086242548E+02  0.58366083860E+02  0.14643439404E+03  0.00000000000E+00 0.  1.
         -3    1    6    6    0  502  0.71486127464E+02 -0.35609979804E+02  0.14920920831E+02  0.81246359672E+02  0.00000000000E+00 0.  1.
<mgrwt>
<rscale>  0 0.14758312E+04</rscale>
<asrwt>0</asrwt>
<pdfrwt beam="1">  1        1 0.55147441E-01 0.14758312E+04</pdfrwt>
<pdfrwt beam="2">  1       -1 0.23370140E+00 0.14758312E+04</pdfrwt>
<totfact> 0.60022435E+00</totfact>
</mgrwt>
</event>
<event>
12    1  0.2697065E-007  0.1967579E+04  0.7818608E-02  0.8621930E-01
         -1   -1    0    0    0  501 -0.00000000000E+00  0.00000000000E+00  0.79449200405E+03  0.79449200405E+03  0.00000000000E+00 0.  1.
          1   -1    0    0  501    0  0.00000000000E+00 -0.00000000000E+00 -0.12181895414E+04  0.12181895414E+04  0.00000000000E+00 0. -1.
         23    2    1    2    0    0  0.32959232380E+03 -0.54514268987E+03  0.28068600821E+03  0.70680265183E+03  0.12236707566E+03 0.  0.
        254    2    1    2    0    0 -0.32959232380E+03  0.54514268987E+03 -0.70438354552E+03  0.13058788936E+04  0.89629897537E+03 0.  0.
        -24    2    4    4    0    0  0.20915596371E+03 -0.10819599916E+03 -0.14104882410E+03  0.28566721422E+03  0.79110019031E+02 0.  0.
         24    2    4    4    0    0 -0.53874828751E+03  0.65333868903E+03 -0.56333472142E+03  0.10202116793E+04  0.79904333039E+02 0.  0.
         13    1    3    3    0    0  0.24988261838E+03 -0.46648372051E+03  0.18853903651E+03  0.56177874004E+03  0.00000000000E+00 0. -1.
        -13    1    3    3    0    0  0.79709705419E+02 -0.78658969359E+02  0.92146971700E+02  0.14502391179E+03  0.00000000000E+00 0.  1.
          2    1    6    6  502    0 -0.49894242856E+03  0.61601383387E+03 -0.50291108127E+03  0.93879505015E+03  0.00000000000E+00 0. -1.
          3    1    5    5  503    0  0.13820531735E+03 -0.10819271805E+03 -0.11617489141E+03  0.21048272941E+03  0.00000000000E+00 0. -1.
         -4    1    5    5    0  503  0.70950646360E+02 -0.32811096132E-02 -0.24873932683E+02  0.75184484814E+02  0.00000000000E+00 0.  1.
         -3    1    6    6    0  502 -0.39805858957E+02  0.37324855162E+02 -0.60423640152E+02  0.81416629194E+02  0.00000000000E+00 0.  1.
<mgrwt>
<rscale>  0 0.19675791E+04</rscale>
<asrwt>0</asrwt>
<pdfrwt beam="1">  1        1 0.18741378E+00 0.19675791E+04</pdfrwt>
<pdfrwt beam="2">  1       -1 0.12222954E+00 0.19675791E+04</pdfrwt>
<totfact> 0.57042932E+00</totfact>
</mgrwt>
</event>
<event>
12    1  0.1556559E-007  0.2148739E+04  0.7818608E-02  0.8540072E-01
          1   -1    0    0  501    0  0.00000000000E+00  0.00000000000E+00  0.59231439651E+03  0.59231439651E+03  0.00000000000E+00 0. -1.
         -1   -1    0    0    0  501 -0.00000000000E+00 -0.00000000000E+00 -0.19487449314E+04  0.19487449314E+04  0.00000000000E+00 0.  1.
         23    2    1    2    0    0 -0.22460226287E+03 -0.91002492294E+02  0.44297862492E+03  0.51308133855E+03  0.91075615505E+02 0.  0.
        254    2    1    2    0    0  0.22460226287E+03  0.91002492294E+02 -0.17994091598E+04  0.20279779894E+04  0.90337908478E+03 0.  0.
        -24    2    4    4    0    0  0.43375286369E+03  0.36496247600E+03 -0.12506867702E+04  0.13754177077E+04  0.78849969524E+02 0.  0.
         24    2    4    4    0    0 -0.20915060082E+03 -0.27395998371E+03 -0.54872238959E+03  0.65256028169E+03  0.77075378130E+02 0.  0.
         11    1    3    3    0    0 -0.10473539673E+03 -0.82133931431E+02  0.17932128521E+03  0.22331952299E+03  0.00000000000E+00 0. -1.
        -11    1    3    3    0    0 -0.11986686613E+03 -0.88685608632E+01  0.26365733971E+03  0.28976181556E+03  0.00000000000E+00 0.  1.
          4    1    6    6  502    0 -0.49211635527E+02 -0.70729453390E+02 -0.81848644639E+02  0.11884292691E+03  0.00000000000E+00 0. -1.
          1    1    5    5  503    0  0.37328854826E+02  0.21641277995E+02 -0.55989679495E+02  0.70686862470E+02  0.00000000000E+00 0. -1.
         -2    1    5    5    0  503  0.39642400886E+03  0.34332119800E+03 -0.11946970907E+04  0.13047308452E+04  0.00000000000E+00 0.  1.
         -3    1    6    6    0  502 -0.15993896530E+03 -0.20323053032E+03 -0.46687374495E+03  0.53371735478E+03  0.00000000000E+00 0.  1.
<mgrwt>
<rscale>  0 0.21487389E+04</rscale>
<asrwt>0</asrwt>
<pdfrwt beam="1">  1        1 0.91125291E-01 0.21487389E+04</pdfrwt>
<pdfrwt beam="2">  1       -1 0.29980691E+00 0.21487389E+04</pdfrwt>
<totfact> 0.10588164E+00</totfact>
</mgrwt>
</event>
<event>
12    1  0.1556559E-007  0.2131438E+04  0.7818608E-02  0.8547520E-01
         -2   -1    0    0    0  501 -0.00000000000E+00  0.00000000000E+00  0.79977286572E+03  0.79977286572E+03  0.00000000000E+00 0.  1.
          2   -1    0    0  501    0  0.00000000000E+00 -0.00000000000E+00 -0.14200987599E+04  0.14200987599E+04  0.00000000000E+00 0. -1.
         23    2    1    2    0    0  0.75351915115E+01  0.15005325406E+03 -0.11467759427E+04  0.11603313668E+04  0.93279472674E+02 0.  0.
        254    2    1    2    0    0 -0.75351915115E+01 -0.15005325406E+03  0.52645004844E+03  0.10595402588E+04  0.90714009306E+03 0.  0.
        -24    2    4    4    0    0  0.30540859177E+03 -0.25650940089E+02  0.62221125970E+03  0.69821041111E+03  0.80115840051E+02 0.  0.
         24    2    4    4    0    0 -0.31294378328E+03 -0.12440231397E+03 -0.95761211263E+02  0.36132984773E+03  0.89326939186E+02 0.  0.
         11    1    3    3    0    0  0.39515764421E+02  0.68052748389E+02 -0.73820269901E+03  0.74238527533E+03  0.00000000000E+00 0. -1.
        -11    1    3    3    0    0 -0.31980572910E+02  0.82000505673E+02 -0.40857324365E+03  0.41794609150E+03  0.00000000000E+00 0.  1.
          2    1    6    6  502    0 -0.33711895245E+02 -0.30723993473E+01 -0.38980575398E+02  0.51627674528E+02  0.00000000000E+00 0. -1.
          1    1    5    5  503    0  0.85474895956E+02  0.28795156760E+02  0.17416225296E+03  0.19613161205E+03  0.00000000000E+00 0. -1.
         -2    1    5    5    0  503  0.21993369581E+03 -0.54446096849E+02  0.44804900674E+03  0.50207879905E+03  0.00000000000E+00 0.  1.
         -1    1    6    6    0  502 -0.27923188803E+03 -0.12132991462E+03 -0.56780635864E+02  0.30970217320E+03  0.00000000000E+00 0.  1.
<mgrwt>
<rscale>  0 0.21314375E+04</rscale>
<asrwt>0</asrwt>
<pdfrwt beam="1">  1        2 0.21847673E+00 0.21314375E+04</pdfrwt>
<pdfrwt beam="2">  1       -2 0.12304198E+00 0.21314375E+04</pdfrwt>
<totfact> 0.64630121E+00</totfact>
</mgrwt>
</event>
<event>
12    1  0.1556559E-007  0.2518666E+04  0.7818608E-02  0.8396366E-01
         -2   -1    0    0    0  501 -0.00000000000E+00  0.00000000000E+00  0.17526405806E+04  0.17526405806E+04  0.00000000000E+00 0.  1.
          2   -1    0    0  501    0  0.00000000000E+00 -0.00000000000E+00 -0.90487446162E+03  0.90487446162E+03  0.00000000000E+00 0. -1.
         23    2    1    2    0    0 -0.25560263692E+03 -0.64999885860E+02 -0.72334043263E+03  0.77534022693E+03  0.91506244883E+02 0.  0.
        254    2    1    2    0    0  0.25560263692E+03  0.64999885860E+02  0.15711065516E+04  0.18821748153E+04  0.10023215780E+04 0.  0.
        -24    2    4    4    0    0  0.22043434480E+03  0.52034741307E+03  0.93168863483E+03  0.10924127604E+04  0.77260573189E+02 0.  0.
         24    2    4    4    0    0  0.35168292121E+02 -0.45534752721E+03  0.63941791679E+03  0.78976205489E+03  0.79313628919E+02 0.  0.
         13    1    3    3    0    0 -0.24102900619E+03 -0.32073701358E+02 -0.62957238692E+03  0.67489635835E+03  0.00000000000E+00 0. -1.
        -13    1    3    3    0    0 -0.14573630735E+02 -0.32926184502E+02 -0.93768045718E+02  0.10044386859E+03  0.00000000000E+00 0.  1.
          4    1    6    6  502    0 -0.50496959603E+01 -0.18473364067E+03  0.31677061748E+03  0.36673647422E+03  0.00000000000E+00 0. -1.
          1    1    5    5  503    0  0.12998431156E+02  0.48218243422E+02  0.12917700779E+03  0.13849425097E+03  0.00000000000E+00 0. -1.
         -2    1    5    5    0  503  0.20743591364E+03  0.47212916965E+03  0.80251162704E+03  0.95391850943E+03  0.00000000000E+00 0.  1.
         -3    1    6    6    0  502  0.40217988081E+02 -0.27061388653E+03  0.32264729931E+03  0.42302558067E+03  0.00000000000E+00 0.  1.
<mgrwt>
<rscale>  0 0.25186661E+04</rscale>
<asrwt>0</asrwt>
<pdfrwt beam="1">  1        2 0.13921146E+00 0.25186661E+04</pdfrwt>
<pdfrwt beam="2">  1       -2 0.26963701E+00 0.25186661E+04</pdfrwt>
<totfact> 0.12623279E+00</totfact>
</mgrwt>
</event>
<event>
12    1  0.1556559E-007  0.1881976E+04  0.7818608E-02  0.8663881E-01
          2   -1    0    0  501    0  0.00000000000E+00  0.00000000000E+00  0.25670265164E+04  0.25670265164E+04  0.00000000000E+00 0. -1.
         -2   -1    0    0    0  501 -0.00000000000E+00 -0.00000000000E+00 -0.34493530034E+03  0.34493530034E+03  0.00000000000E+00 0.  1.
         23    2    1    2    0    0  0.28776315007E+02  0.22815651123E+03  0.19147625513E+04  0.19306366260E+04  0.90325433393E+02 0.  0.
        254    2    1    2    0    0 -0.28776315007E+02 -0.22815651123E+03  0.30732866479E+03  0.98132519076E+03  0.90314160125E+03 0.  0.
        -24    2    4    4    0    0 -0.18137325514E+03  0.14393913638E+03 -0.20889210056E+03  0.32205964552E+03  0.80447330190E+02 0.  0.
         24    2    4    4    0    0  0.15259694013E+03 -0.37209564761E+03  0.51622076535E+03  0.65926554524E+03  0.80038637257E+02 0.  0.
         11    1    3    3    0    0  0.18419429530E+02  0.20696475923E+03  0.18514521849E+04  0.18630751139E+04  0.00000000000E+00 0. -1.
        -11    1    3    3    0    0  0.10356885477E+02  0.21191752000E+02  0.63310366429E+02  0.67561512172E+02  0.00000000000E+00 0.  1.
          2    1    6    6  502    0  0.52972887745E+02 -0.52894305061E+02  0.79027099058E+02  0.10885410755E+03  0.00000000000E+00 0. -1.
          3    1    5    5  503    0 -0.11721159376E+03  0.41854091777E+02 -0.11049836322E+03  0.16643380361E+03  0.00000000000E+00 0. -1.
         -4    1    5    5    0  503 -0.64161661380E+02  0.10208504460E+03 -0.98393737347E+02  0.15562584191E+03  0.00000000000E+00 0.  1.
         -1    1    6    6    0  502  0.99624052384E+02 -0.31920134255E+03  0.43719366630E+03  0.55041143770E+03  0.00000000000E+00 0.  1.
<mgrwt>
<rscale>  0 0.18819756E+04</rscale>
<asrwt>0</asrwt>
<pdfrwt beam="1">  1        2 0.39492714E+00 0.18819756E+04</pdfrwt>
<pdfrwt beam="2">  1       -2 0.53066971E-01 0.18819756E+04</pdfrwt>
<totfact> 0.10003791E+01</totfact>
</mgrwt>
</event>
<event>
12    1  0.1556559E-007  0.1244595E+04  0.7818608E-02  0.9074694E-01
          2   -1    0    0  501    0  0.00000000000E+00  0.00000000000E+00  0.12025263166E+04  0.12025263166E+04  0.00000000000E+00 0. -1.
         -2   -1    0    0    0  501 -0.00000000000E+00 -0.00000000000E+00 -0.32203404796E+03  0.32203404796E+03  0.00000000000E+00 0.  1.
         23    2    1    2    0    0  0.13054995739E+02 -0.17099341779E+03  0.43974669598E+03  0.48057581886E+03  0.90370234068E+02 0.  0.
        254    2    1    2    0    0 -0.13054995739E+02  0.17099341779E+03  0.44074557264E+03  0.10439845457E+04  0.93071901773E+03 0.  0.
        -24    2    4    4    0    0  0.22725347531E+03  0.86651037938E+02  0.65387166231E+03  0.70222037893E+03  0.80079744007E+02 0.  0.
         24    2    4    4    0    0 -0.24030847105E+03  0.84342379848E+02 -0.21312608967E+03  0.34176416674E+03  0.80735477200E+02 0.  0.
         11    1    3    3    0    0 -0.22577723870E+02 -0.15085586066E+03  0.33392526259E+03  0.36711486664E+03  0.00000000000E+00 0. -1.
        -11    1    3    3    0    0  0.35632719610E+02 -0.20137557123E+02  0.10582143339E+03  0.11346095222E+03  0.00000000000E+00 0.  1.
          4    1    6    6  502    0 -0.51437507624E+01  0.16285106512E+02  0.14921261207E+00  0.17078791832E+02  0.00000000000E+00 0. -1.
          1    1    5    5  503    0  0.19283313551E+02  0.18528686325E+02  0.25980575598E+02  0.37284698025E+02  0.00000000000E+00 0. -1.
         -2    1    5    5    0  503  0.20797016176E+03  0.68122351613E+02  0.62789108671E+03  0.66493568090E+03  0.00000000000E+00 0.  1.
         -3    1    6    6    0  502 -0.23516472028E+03  0.68057273335E+02 -0.21327530228E+03  0.32468537491E+03  0.00000000000E+00 0.  1.
<mgrwt>
<rscale>  0 0.12445954E+04</rscale>
<asrwt>0</asrwt>
<pdfrwt beam="1">  1        2 0.18500405E+00 0.12445954E+04</pdfrwt>
<pdfrwt beam="2">  1       -2 0.49543700E-01 0.12445954E+04</pdfrwt>
<totfact> 0.71582281E+01</totfact>
</mgrwt>
</event>
<event>
12    1  0.1556559E-007  0.1597161E+04  0.7818608E-02  0.8822294E-01
          2   -1    0    0  501    0  0.00000000000E+00  0.00000000000E+00  0.11496283748E+04  0.11496283748E+04  0.00000000000E+00 0. -1.
         -2   -1    0    0    0  501 -0.00000000000E+00 -0.00000000000E+00 -0.55472775945E+03  0.55472775945E+03  0.00000000000E+00 0.  1.
         23    2    1    2    0    0  0.13206277083E+03 -0.15103095026E+03 -0.32939189666E+03  0.39607681263E+03  0.90149301395E+02 0.  0.
        254    2    1    2    0    0 -0.13206277083E+03  0.15103095026E+03  0.92429251200E+03  0.13082793216E+04  0.90389557596E+03 0.  0.
        -24    2    4    4    0    0  0.24084452103E+03  0.25910694594E+03  0.73726376606E+02  0.36981380543E+03  0.78639553245E+02 0.  0.
         24    2    4    4    0    0 -0.37290729186E+03 -0.10807599568E+03  0.85056613539E+03  0.93846551618E+03  0.80712484941E+02 0.  0.
         11    1    3    3    0    0  0.87555065475E+02 -0.12076667013E+03 -0.16186078431E+03  0.22011222502E+03  0.00000000000E+00 0. -1.
        -11    1    3    3    0    0  0.44507705356E+02 -0.30264280124E+02 -0.16753111235E+03  0.17596458761E+03  0.00000000000E+00 0.  1.
          2    1    6    6  502    0 -0.13004546682E+03 -0.75806219697E+02  0.35706074300E+03  0.38749294261E+03  0.00000000000E+00 0. -1.
          1    1    5    5  503    0  0.18113156638E+03  0.23555817645E+03  0.71289397450E+02  0.30557892110E+03  0.00000000000E+00 0. -1.
         -2    1    5    5    0  503  0.59712954651E+02  0.23548769490E+02  0.24369791561E+01  0.64234884331E+02  0.00000000000E+00 0.  1.
         -1    1    6    6    0  502 -0.24286182504E+03 -0.32269775980E+02  0.49350539239E+03  0.55097257357E+03  0.00000000000E+00 0.  1.
<mgrwt>
<rscale>  0 0.15971609E+04</rscale>
<asrwt>0</asrwt>
<pdfrwt beam="1">  1        2 0.17686590E+00 0.15971609E+04</pdfrwt>
<pdfrwt beam="2">  1       -2 0.85342732E-01 0.15971609E+04</pdfrwt>
<totfact> 0.23264739E+01</totfact>
</mgrwt>
</event>
<event>
12    1  0.1556559E-007  0.2035692E+04  0.7818608E-02  0.8590113E-01
          1   -1    0    0  501    0  0.00000000000E+00  0.00000000000E+00  0.26626399838E+04  0.26626399838E+04  0.00000000000E+00 0. -1.
         -1   -1    0    0    0  501 -0.00000000000E+00 -0.00000000000E+00 -0.38909164541E+03  0.38909164541E+03  0.00000000000E+00 0.  1.
         23    2    1    2    0    0 -0.30316460335E+03  0.18544203678E+02  0.20484828796E+04  0.20729300413E+04  0.92218131095E+02 0.  0.
        254    2    1    2    0    0  0.30316460335E+03 -0.18544203678E+02  0.22506545870E+03  0.97880158787E+03  0.90285404330E+03 0.  0.
        -24    2    4    4    0    0  0.23056415531E+03  0.80504337052E+02 -0.32219165386E+03  0.41233227540E+03  0.81053473250E+02 0.  0.
         24    2    4    4    0    0  0.72600448038E+02 -0.99048540729E+02  0.54725711256E+03  0.56646931247E+03  0.79471354856E+02 0.  0.
         13    1    3    3    0    0 -0.25320535160E+03 -0.19404288144E+02  0.15834621318E+04  0.16036962927E+04  0.00000000000E+00 0. -1.
        -13    1    3    3    0    0 -0.49959251745E+02  0.37948491821E+02  0.46502074784E+03  0.46923374856E+03  0.00000000000E+00 0.  1.
          4    1    6    6  502    0  0.78067006319E+02 -0.50346100729E+02  0.28767256628E+03  0.30229901211E+03  0.00000000000E+00 0. -1.
          1    1    5    5  503    0  0.38068354801E+02  0.41433620193E+02 -0.10756633300E+03  0.12139382404E+03  0.00000000000E+00 0. -1.
         -2    1    5    5    0  503  0.19249580051E+03  0.39070716859E+02 -0.21462532085E+03  0.29093845136E+03  0.00000000000E+00 0.  1.
         -3    1    6    6    0  502 -0.54665582813E+01 -0.48702440000E+02  0.25958454628E+03  0.26417030035E+03  0.00000000000E+00 0.  1.
<mgrwt>
<rscale>  0 0.20356925E+04</rscale>
<asrwt>0</asrwt>
<pdfrwt beam="1">  1        1 0.40963691E+00 0.20356925E+04</pdfrwt>
<pdfrwt beam="2">  1       -1 0.59860255E-01 0.20356925E+04</pdfrwt>
<totfact> 0.27306426E+00</totfact>
</mgrwt>
</event>
<event>
12    1  0.1556559E-007  0.4069105E+04  0.7818608E-02  0.7990749E-01
         -2   -1    0    0    0  501 -0.00000000000E+00  0.00000000000E+00  0.12551768755E+04  0.12551768755E+04  0.00000000000E+00 0.  1.
          2   -1    0    0  501    0  0.00000000000E+00 -0.00000000000E+00 -0.32978650082E+04  0.32978650082E+04  0.00000000000E+00 0. -1.
         23    2    1    2    0    0 -0.60873084713E+03  0.20003462061E+03  0.10705508657E+04  0.12511199216E+04  0.93031223284E+02 0.  0.
        254    2    1    2    0    0  0.60873084713E+03 -0.20003462061E+03 -0.31132389984E+04  0.33019219621E+04  0.89435143476E+03 0.  0.
        -24    2    4    4    0    0 -0.20262897137E+03 -0.14427892006E+03 -0.10646194904E+04  0.10963064147E+04  0.81229235473E+02 0.  0.
         24    2    4    4    0    0  0.81135981850E+03 -0.55755700552E+02 -0.20486195080E+04  0.22056155474E+04  0.80527021780E+02 0.  0.
         13    1    3    3    0    0 -0.57464177536E+03  0.20361173125E+03  0.97833977673E+03  0.11527443888E+04  0.00000000000E+00 0.  1.
        -13    1    3    3    0    0 -0.34089071776E+02 -0.35771106351E+01  0.92211088937E+02  0.98375532822E+02  0.00000000000E+00 0. -1.
          4    1    6    6  502    0  0.99318717449E+02 -0.32188236429E+02 -0.28609530645E+03  0.30455018399E+03  0.00000000000E+00 0. -1.
          3    1    5    5  503    0 -0.17052433667E+02  0.93490095950E+01 -0.54854292180E+02  0.58199508975E+02  0.00000000000E+00 0. -1.
         -4    1    5    5    0  503 -0.18557653770E+03 -0.15362792965E+03 -0.10097651982E+04  0.10381069057E+04  0.00000000000E+00 0.  1.
         -3    1    6    6    0  502  0.71204110105E+03 -0.23567464123E+02 -0.17625242015E+04  0.19010653634E+04  0.00000000000E+00 0.  1.
<mgrwt>
<rscale>  0 0.40691050E+04</rscale>
<asrwt>0</asrwt>
<pdfrwt beam="1">  1        2 0.50736385E+00 0.40691050E+04</pdfrwt>
<pdfrwt beam="2">  1       -2 0.19310413E+00 0.40691050E+04</pdfrwt>
<totfact> 0.12937486E-01</totfact>
</mgrwt>
</event>
<event>
12    1  0.1556559E-007  0.2676507E+04  0.7818608E-02  0.8342668E-01
         -1   -1    0    0    0  501 -0.00000000000E+00  0.00000000000E+00  0.15064608170E+04  0.15064608170E+04  0.00000000000E+00 0.  1.
          1   -1    0    0  501    0  0.00000000000E+00 -0.00000000000E+00 -0.11888275440E+04  0.11888275440E+04  0.00000000000E+00 0. -1.
         23    2    1    2    0    0 -0.52185193977E+03  0.48307195899E+02  0.11943292708E+04  0.13075504953E+04  0.92751594617E+02 0.  0.
        254    2    1    2    0    0  0.52185193977E+03 -0.48307195899E+02 -0.87669599789E+03  0.13877378658E+04  0.93944530397E+03 0.  0.
        -24    2    4    4    0    0 -0.24320899322E+03 -0.13961864978E+03 -0.32528364036E+03  0.43695618601E+03  0.80481551050E+02 0.  0.
         24    2    4    4    0    0  0.76506093299E+03  0.91311453877E+02 -0.55141235753E+03  0.95078167976E+03  0.79209858834E+02 0.  0.
         11    1    3    3    0    0 -0.49580815273E+02  0.58797757193E+01  0.19714528219E+03  0.20336934699E+03  0.00000000000E+00 0. -1.
        -11    1    3    3    0    0 -0.47227112449E+03  0.42427420180E+02  0.99718398865E+03  0.11041811483E+04  0.00000000000E+00 0.  1.
          4    1    6    6  502    0  0.72053330150E+03  0.79522038097E+02 -0.53821573017E+03  0.90286663761E+03  0.00000000000E+00 0. -1.
          3    1    5    5  503    0 -0.23518760884E+03 -0.11789941732E+03 -0.26980360422E+03  0.37683878357E+03  0.00000000000E+00 0. -1.
         -4    1    5    5    0  503 -0.80213843824E+01 -0.21719232451E+02 -0.55480036137E+02  0.60117402434E+02  0.00000000000E+00 0.  1.
         -1    1    6    6    0  502  0.44527631490E+02  0.11789415780E+02 -0.13196627367E+02  0.47915042151E+02  0.00000000000E+00 0.  1.
<mgrwt>
<rscale>  0 0.26765068E+04</rscale>
<asrwt>0</asrwt>
<pdfrwt beam="1">  1        1 0.18289654E+00 0.26765068E+04</pdfrwt>
<pdfrwt beam="2">  1       -1 0.23176320E+00 0.26765068E+04</pdfrwt>
<totfact> 0.87538437E-01</totfact>
</mgrwt>
</event>
<event>
12    1  0.1556559E-007  0.2973046E+04  0.7818608E-02  0.8251470E-01
         -2   -1    0    0    0  501 -0.00000000000E+00  0.00000000000E+00  0.16906955984E+04  0.16906955984E+04  0.00000000000E+00 0.  1.
          2   -1    0    0  501    0  0.00000000000E+00 -0.00000000000E+00 -0.13070069900E+04  0.13070069900E+04  0.00000000000E+00 0. -1.
         23    2    1    2    0    0  0.62959860781E+03 -0.61244500978E+03  0.12080799130E+04  0.14964248197E+04  0.91361195040E+02 0.  0.
        254    2    1    2    0    0 -0.62959860781E+03  0.61244500978E+03 -0.82439130452E+03  0.15012777687E+04  0.89595235300E+03 0.  0.
        -24    2    4    4    0    0 -0.15159940962E+02 -0.20978811943E+03 -0.14012810787E+03  0.26486744300E+03  0.79233811474E+02 0.  0.
         24    2    4    4    0    0 -0.61443866685E+03  0.82223312921E+03 -0.68426319664E+03  0.12364103257E+04  0.83019137033E+02 0.  0.
         11    1    3    3    0    0  0.16644145028E+03 -0.14326700393E+03  0.24154719427E+03  0.32645556795E+03  0.00000000000E+00 0. -1.
        -11    1    3    3    0    0  0.46315715753E+03 -0.46917800585E+03  0.96653271868E+03  0.11699692517E+04  0.00000000000E+00 0.  1.
          2    1    6    6  502    0 -0.59982420257E+03  0.77306026171E+03 -0.65222755796E+03  0.11759302826E+04  0.00000000000E+00 0. -1.
          1    1    5    5  503    0  0.29302525314E+02 -0.12668211263E+03 -0.72609723191E+02  0.14892671873E+03  0.00000000000E+00 0. -1.
         -2    1    5    5    0  503 -0.44462466275E+02 -0.83106006796E+02 -0.67518384681E+02  0.11594072426E+03  0.00000000000E+00 0.  1.
         -1    1    6    6    0  502 -0.14614464280E+02  0.49172867498E+02 -0.32035638687E+02  0.60480043074E+02  0.00000000000E+00 0.  1.
<mgrwt>
<rscale>  0 0.29730462E+04</rscale>
<asrwt>0</asrwt>
<pdfrwt beam="1">  1        2 0.20107800E+00 0.29730462E+04</pdfrwt>
<pdfrwt beam="2">  1       -2 0.26010701E+00 0.29730462E+04</pdfrwt>
<totfact> 0.78268180E-01</totfact>
</mgrwt>
</event>
<event>
12    1  0.1556559E-007  0.2154116E+04  0.7818608E-02  0.8537772E-01
         -2   -1    0    0    0  501 -0.00000000000E+00  0.00000000000E+00  0.47975439410E+03  0.47975439410E+03  0.00000000000E+00 0.  1.
          2   -1    0    0  501    0  0.00000000000E+00 -0.00000000000E+00 -0.24180163693E+04  0.24180163693E+04  0.00000000000E+00 0. -1.
         23    2    1    2    0    0  0.36037959305E+03 -0.37491636792E+03 -0.17659965817E+04  0.18432185064E+04  0.90965937239E+02 0.  0.
        254    2    1    2    0    0 -0.36037959305E+03  0.37491636792E+03 -0.17226539357E+03  0.10545522571E+04  0.90109342638E+03 0.  0.
        -24    2    4    4    0    0 -0.58022111565E+03  0.44578780265E+03  0.30111417136E+02  0.73727360270E+03  0.85336743279E+02 0.  0.
         24    2    4    4    0    0  0.21984152260E+03 -0.70871434729E+02 -0.20237681071E+03  0.31727865438E+03  0.79726505558E+02 0.  0.
         13    1    3    3    0    0  0.30623909001E+03 -0.30277388302E+03 -0.13297360033E+04  0.13977311054E+04  0.00000000000E+00 0. -1.
        -13    1    3    3    0    0  0.54140503037E+02 -0.72142484906E+02 -0.43626057839E+03  0.44548740101E+03  0.00000000000E+00 0.  1.
          2    1    6    6  502    0  0.22181674648E+03 -0.72540832107E+02 -0.17993606535E+03  0.29468937707E+03  0.00000000000E+00 0. -1.
          3    1    5    5  503    0 -0.43045853392E+03  0.28218073705E+03  0.27916175739E+02  0.51546079448E+03  0.00000000000E+00 0. -1.
         -4    1    5    5    0  503 -0.14976258174E+03  0.16360706560E+03  0.21952413969E+01  0.22181280821E+03  0.00000000000E+00 0.  1.
         -1    1    6    6    0  502 -0.19752238795E+01  0.16693973781E+01 -0.22440745361E+02  0.22589277309E+02  0.00000000000E+00 0.  1.
<mgrwt>
<rscale>  0 0.21541160E+04</rscale>
<asrwt>0</asrwt>
<pdfrwt beam="1">  1        2 0.37200251E+00 0.21541160E+04</pdfrwt>
<pdfrwt beam="2">  1       -2 0.73808369E-01 0.21541160E+04</pdfrwt>
<totfact> 0.58931205E+00</totfact>
</mgrwt>
</event>
<event>
12    1  0.1556559E-007  0.3378820E+04  0.7818608E-02  0.8143124E-01
          2   -1    0    0  501    0  0.00000000000E+00  0.00000000000E+00  0.15111491062E+04  0.15111491062E+04  0.00000000000E+00 0. -1.
         -2   -1    0    0    0  501 -0.00000000000E+00 -0.00000000000E+00 -0.18886991708E+04  0.18886991708E+04  0.00000000000E+00 0.  1.
         23    2    1    2    0    0  0.37835202336E+03  0.15223136565E+04 -0.19147739295E+03  0.15827871001E+04  0.89231664683E+02 0.  0.
        254    2    1    2    0    0 -0.37835202336E+03 -0.15223136565E+04 -0.18607267156E+03  0.18170611769E+04  0.89805298245E+03 0.  0.
        -24    2    4    4    0    0  0.17798178819E+03 -0.10614792661E+04 -0.14897618129E+03  0.10895111947E+04  0.80156043377E+02 0.  0.
         24    2    4    4    0    0 -0.55633381155E+03 -0.46083439031E+03 -0.37096490268E+02  0.72754998226E+03  0.77956282121E+02 0.  0.
         13    1    3    3    0    0  0.36403041247E+03  0.13966925375E+04 -0.19396492343E+03  0.14563277711E+04  0.00000000000E+00 0. -1.
        -13    1    3    3    0    0  0.14321610890E+02  0.12562111898E+03  0.24875304885E+01  0.12645932896E+03  0.00000000000E+00 0.  1.
          4    1    6    6  502    0 -0.42131079383E+03 -0.37051411895E+03 -0.60992779758E+00  0.56105603049E+03  0.00000000000E+00 0. -1.
          1    1    5    5  503    0  0.12071068443E+03 -0.70205642709E+03 -0.13664330769E+03  0.72534522104E+03  0.00000000000E+00 0. -1.
         -4    1    5    5    0  503  0.57271103753E+02 -0.35942283906E+03 -0.12332873597E+02  0.36416597361E+03  0.00000000000E+00 0.  1.
         -3    1    6    6    0  502 -0.13502301772E+03 -0.90320271364E+02 -0.36486562471E+02  0.16649395177E+03  0.00000000000E+00 0.  1.
<mgrwt>
<rscale>  0 0.33788200E+04</rscale>
<asrwt>0</asrwt>
<pdfrwt beam="1">  1        2 0.23248448E+00 0.33788200E+04</pdfrwt>
<pdfrwt beam="2">  1       -2 0.29056910E+00 0.33788200E+04</pdfrwt>
<totfact> 0.37683774E-01</totfact>
</mgrwt>
</event>
<event>
12    1  0.1556559E-007  0.2219183E+04  0.7818608E-02  0.8510486E-01
          2   -1    0    0  501    0  0.00000000000E+00  0.00000000000E+00  0.14958571521E+04  0.14958571521E+04  0.00000000000E+00 0. -1.
         -2   -1    0    0    0  501 -0.00000000000E+00 -0.00000000000E+00 -0.82306849636E+03  0.82306849636E+03  0.00000000000E+00 0.  1.
         23    2    1    2    0    0 -0.23515665063E+03 -0.34918398974E+03 -0.57617727920E+03  0.71853050787E+03  0.84129214031E+02 0.  0.
        254    2    1    2    0    0  0.23515665063E+03  0.34918398974E+03  0.12489659350E+04  0.16003951406E+04  0.90781087809E+03 0.  0.
        -24    2    4    4    0    0 -0.28298078198E+03 -0.67646756641E+02  0.22350934301E+03  0.37570263274E+03  0.80881612105E+02 0.  0.
         24    2    4    4    0    0  0.51813743261E+03  0.41683074638E+03  0.10254565919E+04  0.12246925079E+04  0.78078464943E+02 0.  0.
         13    1    3    3    0    0 -0.14528283256E+03 -0.15852621414E+03 -0.33669951878E+03  0.39950497863E+03  0.00000000000E+00 0.  1.
        -13    1    3    3    0    0 -0.89873818065E+02 -0.19065777560E+03 -0.23947776042E+03  0.31902552924E+03  0.00000000000E+00 0. -1.
          2    1    6    6  502    0  0.42727388727E+03  0.37719114321E+03  0.88952359583E+03  0.10564508322E+04  0.00000000000E+00 0. -1.
          1    1    5    5  503    0 -0.16774310108E+03 -0.22039231937E+02  0.17268650573E+03  0.24175215607E+03  0.00000000000E+00 0. -1.
         -2    1    5    5    0  503 -0.11523768090E+03 -0.45607524704E+02  0.50822837281E+02  0.13395047666E+03  0.00000000000E+00 0.  1.
         -1    1    6    6    0  502  0.90863545340E+02  0.39639603171E+02  0.13593299611E+03  0.16824167570E+03  0.00000000000E+00 0.  1.
<mgrwt>
<rscale>  0 0.22191826E+04</rscale>
<asrwt>0</asrwt>
<pdfrwt beam="1">  1        2 0.23013187E+00 0.22191826E+04</pdfrwt>
<pdfrwt beam="2">  1       -2 0.12662592E+00 0.22191826E+04</pdfrwt>
<totfact> 0.54068425E+00</totfact>
</mgrwt>
</event>
<event>
12    1  0.1556559E-007  0.1589266E+04  0.7818608E-02  0.8827170E-01
          1   -1    0    0  501    0  0.00000000000E+00  0.00000000000E+00  0.50079863038E+03  0.50079863038E+03  0.00000000000E+00 0. -1.
         -1   -1    0    0    0  501 -0.00000000000E+00 -0.00000000000E+00 -0.12608688284E+04  0.12608688284E+04  0.00000000000E+00 0.  1.
         23    2    1    2    0    0 -0.43192299819E+03  0.13291478693E+03 -0.57855121560E+03  0.74126002412E+03  0.10257240046E+03 0.  0.
        254    2    1    2    0    0  0.43192299819E+03 -0.13291478693E+03 -0.18151898247E+03  0.10204074347E+04  0.89669302152E+03 0.  0.
        -24    2    4    4    0    0 -0.18858915110E+03  0.20042218791E+03 -0.11365786991E+03  0.30833099276E+03  0.80093497778E+02 0.  0.
         24    2    4    4    0    0  0.62051214929E+03 -0.33333697484E+03 -0.67861112556E+02  0.71207644194E+03  0.79365372566E+02 0.  0.
         13    1    3    3    0    0 -0.38451832047E+03  0.12831911608E+03 -0.55723668617E+03  0.68908116993E+03  0.00000000000E+00 0.  1.
        -13    1    3    3    0    0 -0.47404677720E+02  0.45956708562E+01 -0.21314529423E+02  0.52178854193E+02  0.00000000000E+00 0. -1.
          2    1    6    6  502    0  0.34262770829E+03 -0.16725430768E+03 -0.73514323956E+02  0.38829383945E+03  0.00000000000E+00 0. -1.
          1    1    5    5  503    0 -0.89742987195E+02  0.69023398853E+02 -0.93331717418E+01  0.11360079857E+03  0.00000000000E+00 0. -1.
         -2    1    5    5    0  503 -0.98846163905E+02  0.13139878905E+03 -0.10432469817E+03  0.19473019419E+03  0.00000000000E+00 0.  1.
         -1    1    6    6    0  502  0.27788444100E+03 -0.16608266716E+03  0.56532113993E+01  0.32378260250E+03  0.00000000000E+00 0.  1.
<mgrwt>
<rscale>  0 0.15892657E+04</rscale>
<asrwt>0</asrwt>
<pdfrwt beam="1">  1        1 0.77045943E-01 0.15892657E+04</pdfrwt>
<pdfrwt beam="2">  1       -1 0.19397982E+00 0.15892657E+04</pdfrwt>
<totfact> 0.70368354E+00</totfact>
</mgrwt>
</event>
<event>
12    1  0.1556559E-007  0.1364724E+04  0.7818608E-02  0.8979756E-01
          2   -1    0    0  501    0  0.00000000000E+00  0.00000000000E+00  0.15457116440E+04  0.15457116440E+04  0.00000000000E+00 0. -1.
         -2   -1    0    0    0  501 -0.00000000000E+00 -0.00000000000E+00 -0.30123222772E+03  0.30123222772E+03  0.00000000000E+00 0.  1.
         23    2    1    2    0    0 -0.88998352643E+02  0.20271620201E+03 -0.52896114205E+02  0.24928874915E+03  0.10164800156E+03 0.  0.
        254    2    1    2    0    0  0.88998352643E+02 -0.20271620201E+03  0.12973755305E+04  0.15976551226E+04  0.90570638633E+03 0.  0.
        -24    2    4    4    0    0 -0.28471479431E+03  0.21427199230E+03  0.55473856363E+03  0.66412834462E+03  0.79728184298E+02 0.  0.
         24    2    4    4    0    0  0.37371314696E+03 -0.41698819432E+03  0.74263696685E+03  0.93352677794E+03  0.80136821639E+02 0.  0.
         13    1    3    3    0    0 -0.13645290185E+01 -0.92038726597E+01 -0.13817554524E+02  0.16658271951E+02  0.00000000000E+00 0. -1.
        -13    1    3    3    0    0 -0.87633823624E+02  0.21192007467E+03 -0.39078559681E+02  0.23263047719E+03  0.00000000000E+00 0.  1.
          2    1    6    6  502    0  0.15941424120E+03 -0.23609991453E+03  0.39033930386E+03  0.48323994255E+03  0.00000000000E+00 0. -1.
          1    1    5    5  503    0 -0.28910247649E+03  0.20394951307E+03  0.54055215846E+03  0.64604356030E+03  0.00000000000E+00 0. -1.
         -2    1    5    5    0  503  0.43876821724E+01  0.10322479238E+02  0.14186405167E+02  0.18084784323E+02  0.00000000000E+00 0.  1.
         -3    1    6    6    0  502  0.21429890576E+03 -0.18088827979E+03  0.35229766299E+03  0.45028683538E+03  0.00000000000E+00 0.  1.
<mgrwt>
<rscale>  0 0.13647244E+04</rscale>
<asrwt>0</asrwt>
<pdfrwt beam="1">  1        2 0.23780179E+00 0.13647244E+04</pdfrwt>
<pdfrwt beam="2">  1       -2 0.46343421E-01 0.13647244E+04</pdfrwt>
<totfact> 0.51514293E+01</totfact>
</mgrwt>
</event>
<event>
12    1  0.1556559E-007  0.2157112E+04  0.7818608E-02  0.8536494E-01
         -2   -1    0    0    0  501 -0.00000000000E+00  0.00000000000E+00  0.12320245462E+04  0.12320245462E+04  0.00000000000E+00 0.  1.
          2   -1    0    0  501    0  0.00000000000E+00 -0.00000000000E+00 -0.94420427983E+03  0.94420427983E+03  0.00000000000E+00 0. -1.
         23    2    1    2    0    0  0.34353678022E+03  0.59504023055E+03 -0.44746251795E+03  0.82498266367E+03  0.91012609262E+02 0.  0.
        254    2    1    2    0    0 -0.34353678022E+03 -0.59504023055E+03  0.73528278436E+03  0.13512461624E+04  0.90173999748E+03 0.  0.
        -24    2    4    4    0    0 -0.51515741361E+03 -0.70760390381E+03  0.70826914362E+03  0.11289639951E+04  0.82607970796E+02 0.  0.
         24    2    4    4    0    0  0.17162063339E+03  0.11256367326E+03  0.27013640734E+02  0.22228216733E+03  0.80965441912E+02 0.  0.
         11    1    3    3    0    0  0.32712415999E+03  0.52268922634E+03 -0.37741437539E+03  0.72294941326E+03  0.00000000000E+00 0. -1.
        -11    1    3    3    0    0  0.16412620234E+02  0.72351004214E+02 -0.70048142558E+02  0.10203325041E+03  0.00000000000E+00 0.  1.
          4    1    6    6  502    0  0.77676015038E+02  0.49078234107E+02 -0.28278131029E+02  0.96134744342E+02  0.00000000000E+00 0. -1.
          1    1    5    5  503    0 -0.39603336569E+03 -0.51591507628E+03  0.56591160336E+03  0.86212918724E+03  0.00000000000E+00 0. -1.
         -2    1    5    5    0  503 -0.11912404792E+03 -0.19168882753E+03  0.14235754026E+03  0.26683480782E+03  0.00000000000E+00 0.  1.
         -3    1    6    6    0  502  0.93944618355E+02  0.63485439149E+02  0.55291771763E+02  0.12614742299E+03  0.00000000000E+00 0.  1.
<mgrwt>
<rscale>  0 0.21571118E+04</rscale>
<asrwt>0</asrwt>
<pdfrwt beam="1">  1        2 0.14526220E+00 0.21571118E+04</pdfrwt>
<pdfrwt beam="2">  1       -2 0.18954224E+00 0.21571118E+04</pdfrwt>
<totfact> 0.39207551E+00</totfact>
</mgrwt>
</event>
<event>
12    1  0.1556559E-007  0.1612441E+04  0.7818608E-02  0.8812941E-01
         -1   -1    0    0    0  501 -0.00000000000E+00  0.00000000000E+00  0.36772011201E+03  0.36772011201E+03  0.00000000000E+00 0.  1.
          1   -1    0    0  501    0  0.00000000000E+00 -0.00000000000E+00 -0.17676251116E+04  0.17676251116E+04  0.00000000000E+00 0. -1.
         23    2    1    2    0    0 -0.79384761760E+02  0.11066279726E+03  0.22183654887E+03  0.27424043684E+03  0.86302767560E+02 0.  0.
        254    2    1    2    0    0  0.79384761760E+02 -0.11066279726E+03 -0.16217415485E+04  0.18611047868E+04  0.90283840316E+03 0.  0.
        -24    2    4    4    0    0  0.24012638534E+03  0.24196216579E+03 -0.13149913501E+04  0.13607599031E+04  0.79113161218E+02 0.  0.
         24    2    4    4    0    0 -0.16074162358E+03 -0.35262496305E+03 -0.30675019834E+03  0.50034488370E+03  0.77891490865E+02 0.  0.
         11    1    3    3    0    0 -0.33442086437E+02 -0.54950097857E+01  0.29668909074E+02  0.45042340564E+02  0.00000000000E+00 0. -1.
        -11    1    3    3    0    0 -0.45942675323E+02  0.11615780705E+03  0.19216763979E+03  0.22919809628E+03  0.00000000000E+00 0.  1.
          4    1    6    6  502    0 -0.29603350166E+02 -0.24763315340E+02 -0.12111233513E+02  0.40450736765E+02  0.00000000000E+00 0. -1.
          1    1    5    5  503    0  0.22732417824E+03  0.19316102852E+03 -0.11611701365E+04  0.11988759530E+04  0.00000000000E+00 0. -1.
         -2    1    5    5    0  503  0.12802207101E+02  0.48801137268E+02 -0.15382121369E+03  0.16188395006E+03  0.00000000000E+00 0.  1.
         -3    1    6    6    0  502 -0.13113827341E+03 -0.32786164771E+03 -0.29463896483E+03  0.45989414694E+03  0.00000000000E+00 0.  1.
<mgrwt>
<rscale>  0 0.16124408E+04</rscale>
<asrwt>0</asrwt>
<pdfrwt beam="1">  1        1 0.27194233E+00 0.16124408E+04</pdfrwt>
<pdfrwt beam="2">  1       -1 0.56572323E-01 0.16124408E+04</pdfrwt>
<totfact> 0.12993387E+01</totfact>
</mgrwt>
</event>
<event>
12    1  0.1556559E-007  0.1749232E+04  0.7818608E-02  0.8733773E-01
         -2   -1    0    0    0  501 -0.00000000000E+00  0.00000000000E+00  0.11795678541E+04  0.11795678541E+04  0.00000000000E+00 0.  1.
          2   -1    0    0  501    0  0.00000000000E+00 -0.00000000000E+00 -0.64850278938E+03  0.64850278938E+03  0.00000000000E+00 0. -1.
         23    2    1    2    0    0  0.80322156574E+02 -0.35288760255E+03  0.72990313388E+03  0.82096682350E+03  0.10122564679E+03 0.  0.
        254    2    1    2    0    0 -0.80322156574E+02  0.35288760255E+03 -0.19883806912E+03  0.10071038200E+04  0.91855332872E+03 0.  0.
        -24    2    4    4    0    0 -0.15895914885E+03  0.63444533249E+03 -0.28043081738E+02  0.65932246057E+03  0.78299435816E+02 0.  0.
         24    2    4    4    0    0  0.78636992276E+02 -0.28155772994E+03 -0.17079498738E+03  0.34778135945E+03  0.79513611575E+02 0.  0.
         13    1    3    3    0    0  0.58540347993E+02 -0.10031647806E+03  0.30255944909E+03  0.32408731593E+03  0.00000000000E+00 0. -1.
        -13    1    3    3    0    0  0.21781808581E+02 -0.25257112449E+03  0.42734368479E+03  0.49687950757E+03  0.00000000000E+00 0.  1.
          4    1    6    6  502    0  0.29223020903E+02 -0.22860015171E+03 -0.12692577227E+03  0.26310105659E+03  0.00000000000E+00 0. -1.
          3    1    5    5  503    0 -0.64797001398E+02  0.36327230258E+03 -0.45144281484E+02  0.37175721023E+03  0.00000000000E+00 0. -1.
         -4    1    5    5    0  503 -0.94162147451E+02  0.27117302992E+03  0.17101199746E+02  0.28756525033E+03  0.00000000000E+00 0.  1.
         -1    1    6    6    0  502  0.49413971373E+02 -0.52957578235E+02 -0.43869215107E+02  0.84680302866E+02  0.00000000000E+00 0.  1.
<mgrwt>
<rscale>  0 0.17492319E+04</rscale>
<asrwt>0</asrwt>
<pdfrwt beam="1">  1        2 0.99769660E-01 0.17492319E+04</pdfrwt>
<pdfrwt beam="2">  1       -2 0.18147198E+00 0.17492319E+04</pdfrwt>
<totfact> 0.75647356E+00</totfact>
</mgrwt>
</event>
<event>
12    1  0.1556559E-007  0.1533563E+04  0.7818608E-02  0.8862436E-01
          1   -1    0    0  501    0  0.00000000000E+00  0.00000000000E+00  0.99167986040E+03  0.99167986040E+03  0.00000000000E+00 0. -1.
         -1   -1    0    0    0  501 -0.00000000000E+00 -0.00000000000E+00 -0.59288670506E+03  0.59288670506E+03  0.00000000000E+00 0.  1.
         23    2    1    2    0    0  0.32724100175E+03  0.11848550998E+03 -0.23781148419E+03  0.43115110882E+03  0.90617257284E+02 0.  0.
        254    2    1    2    0    0 -0.32724100175E+03 -0.11848550998E+03  0.63660463953E+03  0.11534154566E+04  0.89664723233E+03 0.  0.
        -24    2    4    4    0    0 -0.61170512966E+03 -0.19933857106E+03  0.36361915738E+03  0.74298315404E+03  0.76720557906E+02 0.  0.
         24    2    4    4    0    0  0.28446412791E+03  0.80853061085E+02  0.27298548215E+03  0.41043230260E+03  0.80476978092E+02 0.  0.
         13    1    3    3    0    0  0.11816442227E+03  0.67177976524E+02 -0.13853975261E+03  0.19408496663E+03  0.00000000000E+00 0. -1.
        -13    1    3    3    0    0  0.20907657949E+03  0.51307533454E+02 -0.99271731581E+02  0.23706614218E+03  0.00000000000E+00 0.  1.
          2    1    6    6  502    0  0.71349273947E+02  0.66074646782E+01  0.26910367004E+02  0.76541134918E+02  0.00000000000E+00 0. -1.
          3    1    5    5  503    0 -0.27126102967E+03 -0.79665145207E+02  0.20264438426E+03  0.34784167095E+03  0.00000000000E+00 0. -1.
         -4    1    5    5    0  503 -0.34044409999E+03 -0.11967342586E+03  0.16097477312E+03  0.39514148309E+03  0.00000000000E+00 0.  1.
         -1    1    6    6    0  502  0.21311485396E+03  0.74245596407E+02  0.24607511515E+03  0.33389116769E+03  0.00000000000E+00 0.  1.
<mgrwt>
<rscale>  0 0.15335629E+04</rscale>
<asrwt>0</asrwt>
<pdfrwt beam="1">  1        1 0.15256613E+00 0.15335629E+04</pdfrwt>
<pdfrwt beam="2">  1       -1 0.91213339E-01 0.15335629E+04</pdfrwt>
<totfact> 0.17380826E+01</totfact>
</mgrwt>
</event>
<event>
12    1  0.1556559E-007  0.1559591E+04  0.7818608E-02  0.8845764E-01
         -1   -1    0    0    0  501 -0.00000000000E+00  0.00000000000E+00  0.87279827904E+03  0.87279827904E+03  0.00000000000E+00 0.  1.
          1   -1    0    0  501    0  0.00000000000E+00 -0.00000000000E+00 -0.69670318512E+03  0.69670318512E+03  0.00000000000E+00 0. -1.
         23    2    1    2    0    0  0.34553612110E+03  0.32931046184E+02  0.44271374118E+03  0.56985255192E+03  0.90866987996E+02 0.  0.
        254    2    1    2    0    0 -0.34553612110E+03 -0.32931046184E+02 -0.26661864726E+03  0.99964891225E+03  0.89873955065E+03 0.  0.
        -24    2    4    4    0    0  0.26392242844E+03  0.36417748062E+01 -0.26716415173E+03  0.38386766701E+03  0.79431675363E+02 0.  0.
         24    2    4    4    0    0 -0.60945854954E+03 -0.36572820990E+02  0.54550447004E+00  0.61578124524E+03  0.80055915258E+02 0.  0.
         13    1    3    3    0    0  0.12508028013E+03  0.21093507895E+01  0.95386501525E+02  0.15731532192E+03  0.00000000000E+00 0. -1.
        -13    1    3    3    0    0  0.22045584097E+03  0.30821695394E+02  0.34732723966E+03  0.41253723000E+03  0.00000000000E+00 0.  1.
          2    1    6    6  502    0 -0.29005402731E+02  0.15643553814E+02  0.13726004094E+01  0.32983604948E+02  0.00000000000E+00 0. -1.
          1    1    5    5  503    0  0.10523692405E+03 -0.66204818789E+01 -0.16174624895E+03  0.19308156311E+03  0.00000000000E+00 0. -1.
         -2    1    5    5    0  503  0.15868550439E+03  0.10262256685E+02 -0.10541790278E+03  0.19078610391E+03  0.00000000000E+00 0.  1.
         -1    1    6    6    0  502 -0.58045314681E+03 -0.52216374804E+02 -0.82709593936E+00  0.58279764029E+03  0.00000000000E+00 0.  1.
<mgrwt>
<rscale>  0 0.15595914E+04</rscale>
<asrwt>0</asrwt>
<pdfrwt beam="1">  1        1 0.10718511E+00 0.15595914E+04</pdfrwt>
<pdfrwt beam="2">  1       -1 0.13427666E+00 0.15595914E+04</pdfrwt>
<totfact> 0.12340083E+01</totfact>
</mgrwt>
</event>
<event>
12    1  0.1556559E-007  0.1439626E+04  0.7818608E-02  0.8925624E-01
         -2   -1    0    0    0  501 -0.00000000000E+00  0.00000000000E+00  0.10459922992E+03  0.10459922992E+03  0.00000000000E+00 0.  1.
          2   -1    0    0  501    0  0.00000000000E+00 -0.00000000000E+00 -0.49534874381E+04  0.49534874381E+04  0.00000000000E+00 0. -1.
         23    2    1    2    0    0  0.14526824385E+03  0.40214164253E+03 -0.17174293760E+04  0.17727885108E+04  0.10195430028E+03 0.  0.
        254    2    1    2    0    0 -0.14526824385E+03 -0.40214164253E+03 -0.31314588322E+04  0.32852981572E+04  0.89684379935E+03 0.  0.
        -24    2    4    4    0    0  0.34169504773E+03 -0.11476711213E+02 -0.13896591960E+04  0.14332523282E+04  0.78564206865E+02 0.  0.
         24    2    4    4    0    0 -0.48696329158E+03 -0.39066493132E+03 -0.17417996362E+04  0.18520458290E+04  0.80345778953E+02 0.  0.
         13    1    3    3    0    0  0.83626711335E+02  0.33959380498E+03 -0.14359948110E+04  0.14779710675E+04  0.00000000000E+00 0. -1.
        -13    1    3    3    0    0  0.61641532520E+02  0.62547837553E+02 -0.28143456496E+03  0.29481744329E+03  0.00000000000E+00 0.  1.
          4    1    6    6  502    0 -0.39633845325E+03 -0.31723391293E+03 -0.15001021688E+04  0.15836754850E+04  0.00000000000E+00 0. -1.
          3    1    5    5  503    0  0.28020111822E+03  0.18977687686E+02 -0.10638746770E+04  0.11003191117E+04  0.00000000000E+00 0. -1.
         -4    1    5    5    0  503  0.61493929506E+02 -0.30454398899E+02 -0.32578451909E+03  0.33293321651E+03  0.00000000000E+00 0.  1.
         -3    1    6    6    0  502 -0.90624838335E+02 -0.73431018390E+02 -0.24169746739E+03  0.26837034398E+03  0.00000000000E+00 0.  1.
<mgrwt>
<rscale>  0 0.14396263E+04</rscale>
<asrwt>0</asrwt>
<pdfrwt beam="1">  1        2 0.76207480E+00 0.14396263E+04</pdfrwt>
<pdfrwt beam="2">  1       -2 0.16092193E-01 0.14396263E+04</pdfrwt>
<totfact> 0.12533497E+00</totfact>
</mgrwt>
</event>
<event>
12    1  0.1556559E-007  0.1715291E+04  0.7818608E-02  0.8752691E-01
          2   -1    0    0  501    0  0.00000000000E+00  0.00000000000E+00  0.11082838682E+04  0.11082838682E+04  0.00000000000E+00 0. -1.
         -2   -1    0    0    0  501 -0.00000000000E+00 -0.00000000000E+00 -0.66368928765E+03  0.66368928765E+03  0.00000000000E+00 0.  1.
         23    2    1    2    0    0  0.49123833826E+03  0.77647718168E+02 -0.22431973442E+03  0.55310112597E+03  0.90869352281E+02 0.  0.
        254    2    1    2    0    0 -0.49123833826E+03 -0.77647718168E+02  0.66891431493E+03  0.12188720298E+04  0.88930219347E+03 0.  0.
        -24    2    4    4    0    0  0.12851503161E+03 -0.20027080955E+03 -0.52681082627E+02  0.25642690714E+03  0.79717951141E+02 0.  0.
         24    2    4    4    0    0 -0.61975336987E+03  0.12262309138E+03  0.72159539756E+03  0.96244512270E+03  0.80436524257E+02 0.  0.
         13    1    3    3    0    0  0.30865771501E+02 -0.17476169828E+02 -0.15227196733E+02  0.38600257545E+02  0.00000000000E+00 0. -1.
        -13    1    3    3    0    0  0.46037256676E+03  0.95123887996E+02 -0.20909253769E+03  0.51450086843E+03  0.00000000000E+00 0.  1.
          2    1    6    6  502    0 -0.11798264396E+03 -0.79990132471E+01  0.14137554099E+03  0.18431205082E+03  0.00000000000E+00 0. -1.
          3    1    5    5  503    0  0.99022605266E+02 -0.10036783229E+03 -0.57221587523E+02  0.15216270302E+03  0.00000000000E+00 0. -1.
         -4    1    5    5    0  503  0.29492426343E+02 -0.99902977255E+02  0.45405048961E+01  0.10426420412E+03  0.00000000000E+00 0.  1.
         -1    1    6    6    0  502 -0.50177072591E+03  0.13062210463E+03  0.58021985657E+03  0.77813307188E+03  0.00000000000E+00 0.  1.
<mgrwt>
<rscale>  0 0.17152914E+04</rscale>
<asrwt>0</asrwt>
<pdfrwt beam="1">  1        2 0.17050521E+00 0.17152914E+04</pdfrwt>
<pdfrwt beam="2">  1       -2 0.10210604E+00 0.17152914E+04</pdfrwt>
<totfact> 0.16087011E+01</totfact>
</mgrwt>
</event>
<event>
12    1  0.1556559E-007  0.1541888E+04  0.7818608E-02  0.8857066E-01
          2   -1    0    0  501    0  0.00000000000E+00  0.00000000000E+00  0.21151678616E+04  0.21151678616E+04  0.00000000000E+00 0. -1.
         -2   -1    0    0    0  501 -0.00000000000E+00 -0.00000000000E+00 -0.28099652265E+03  0.28099652265E+03  0.00000000000E+00 0.  1.
         23    2    1    2    0    0 -0.36411044769E+03  0.22665385651E+02  0.64747857822E+02  0.38176398128E+03  0.91985403676E+02 0.  0.
        254    2    1    2    0    0  0.36411044769E+03 -0.22665385651E+02  0.17694234811E+04  0.20144004030E+04  0.89098787314E+03 0.  0.
        -24    2    4    4    0    0  0.47240196412E+03  0.12310153776E+03  0.17477490295E+04  0.18164136859E+04  0.80089975009E+02 0.  0.
         24    2    4    4    0    0 -0.10829151643E+03 -0.14576692341E+03  0.21674451692E+02  0.19798671707E+03  0.75854530451E+02 0.  0.
         13    1    3    3    0    0 -0.13434091387E+03 -0.35174839814E+02  0.15179141224E+02  0.13969666003E+03  0.00000000000E+00 0. -1.
        -13    1    3    3    0    0 -0.22976953382E+03  0.57840225464E+02  0.49568716598E+02  0.24206732125E+03  0.00000000000E+00 0.  1.
          4    1    6    6  502    0 -0.17258209121E+02  0.51947854692E+01  0.11559405196E+02  0.21411478852E+02  0.00000000000E+00 0. -1.
          1    1    5    5  503    0  0.62700434886E+01  0.13708409442E+02  0.74464375278E+02  0.75974845312E+02  0.00000000000E+00 0. -1.
         -2    1    5    5    0  503  0.46613192063E+03  0.10939312831E+03  0.16732846542E+04  0.17404388406E+04  0.00000000000E+00 0.  1.
         -3    1    6    6    0  502 -0.91033307311E+02 -0.15096170888E+03  0.10115046495E+02  0.17657523822E+03  0.00000000000E+00 0.  1.
<mgrwt>
<rscale>  0 0.15418882E+04</rscale>
<asrwt>0</asrwt>
<pdfrwt beam="1">  1        2 0.32541043E+00 0.15418882E+04</pdfrwt>
<pdfrwt beam="2">  1       -2 0.43230236E-01 0.15418882E+04</pdfrwt>
<totfact> 0.28175462E+01</totfact>
</mgrwt>
</event>
<event>
12    1  0.1556559E-007  0.1874006E+04  0.7818608E-02  0.8667904E-01
         -2   -1    0    0    0  501 -0.00000000000E+00  0.00000000000E+00  0.36377464562E+03  0.36377464562E+03  0.00000000000E+00 0.  1.
          2   -1    0    0  501    0  0.00000000000E+00 -0.00000000000E+00 -0.24135129256E+04  0.24135129256E+04  0.00000000000E+00 0. -1.
         23    2    1    2    0    0 -0.33959577412E+03 -0.31455610603E+02 -0.17239091108E+04  0.17593488491E+04  0.84445279646E+02 0.  0.
        254    2    1    2    0    0  0.33959577412E+03  0.31455610603E+02 -0.32582916911E+03  0.10179387221E+04  0.90206421567E+03 0.  0.
        -24    2    4    4    0    0  0.32090467784E+03  0.43692003964E+03 -0.21706149670E+03  0.58944256433E+03  0.80298879154E+02 0.  0.
         24    2    4    4    0    0  0.18691096284E+02 -0.40546442904E+03 -0.10876767241E+03  0.42849615773E+03  0.83831917131E+02 0.  0.
         11    1    3    3    0    0 -0.10472062930E+03 -0.46429867212E+01 -0.74285744642E+03  0.75021673750E+03  0.00000000000E+00 0.  1.
        -11    1    3    3    0    0 -0.23487514483E+03 -0.26812623882E+02 -0.98105166443E+03  0.10091321116E+04  0.00000000000E+00 0. -1.
          2    1    6    6  502    0 -0.21313064875E+02 -0.28551115526E+03 -0.57345428715E+02  0.29199206274E+03  0.00000000000E+00 0. -1.
          1    1    5    5  503    0  0.23802967530E+03  0.28067613625E+03 -0.11664410651E+03  0.38606096328E+03  0.00000000000E+00 0. -1.
         -2    1    5    5    0  503  0.82875002536E+02  0.15624390339E+03 -0.10041739019E+03  0.20338160105E+03  0.00000000000E+00 0.  1.
         -1    1    6    6    0  502  0.40004161159E+02 -0.11995327378E+03 -0.51422243693E+02  0.13650409499E+03  0.00000000000E+00 0.  1.
<mgrwt>
<rscale>  0 0.18740062E+04</rscale>
<asrwt>0</asrwt>
<pdfrwt beam="1">  1        2 0.37130970E+00 0.18740062E+04</pdfrwt>
<pdfrwt beam="2">  1       -2 0.55965328E-01 0.18740062E+04</pdfrwt>
<totfact> 0.10995511E+01</totfact>
</mgrwt>
</event>
<event>
12    1  0.1556559E-007  0.1519607E+04  0.7818608E-02  0.8871518E-01
          2   -1    0    0  501    0  0.00000000000E+00  0.00000000000E+00  0.23345170135E+04  0.23345170135E+04  0.00000000000E+00 0. -1.
         -2   -1    0    0    0  501 -0.00000000000E+00 -0.00000000000E+00 -0.24728947124E+03  0.24728947124E+03  0.00000000000E+00 0.  1.
         23    2    1    2    0    0 -0.18636905041E+03  0.33098963358E+03  0.12057181496E+04  0.12675762317E+04  0.93304266938E+02 0.  0.
        254    2    1    2    0    0  0.18636905041E+03 -0.33098963358E+03  0.88150939262E+03  0.13142302531E+04  0.89769415076E+03 0.  0.
        -24    2    4    4    0    0  0.21573250511E+02  0.28804623680E+03  0.14234113737E+03  0.33272579465E+03  0.83722251294E+02 0.  0.
         24    2    4    4    0    0  0.16479579990E+03 -0.61903587038E+03  0.73916825525E+03  0.98150445842E+03  0.81352491283E+02 0.  0.
         13    1    3    3    0    0 -0.23949188398E+02  0.11844375785E+03  0.30822011446E+03  0.33106211858E+03  0.00000000000E+00 0.  1.
        -13    1    3    3    0    0 -0.16241986202E+03  0.21254587572E+03  0.89749803516E+03  0.93651411307E+03  0.00000000000E+00 0. -1.
          2    1    6    6  502    0  0.54738808064E+02 -0.36022205286E+03  0.42732909436E+03  0.56157494546E+03  0.00000000000E+00 0. -1.
          3    1    5    5  503    0  0.53083370465E+02  0.19136549697E+03  0.85323589651E+02  0.21614511931E+03  0.00000000000E+00 0. -1.
         -4    1    5    5    0  503 -0.31510119954E+02  0.96680739833E+02  0.57017547717E+02  0.11658067534E+03  0.00000000000E+00 0.  1.
         -1    1    6    6    0  502  0.11005699184E+03 -0.25881381752E+03  0.31183916089E+03  0.41992951296E+03  0.00000000000E+00 0.  1.
<mgrwt>
<rscale>  0 0.15196072E+04</rscale>
<asrwt>0</asrwt>
<pdfrwt beam="1">  1        2 0.35915645E+00 0.15196072E+04</pdfrwt>
<pdfrwt beam="2">  1       -2 0.38044536E-01 0.15196072E+04</pdfrwt>
<totfact> 0.27311280E+01</totfact>
</mgrwt>
</event>
<event>
12    1  0.1556559E-007  0.1684387E+04  0.7818608E-02  0.8770319E-01
         -1   -1    0    0    0  501 -0.00000000000E+00  0.00000000000E+00  0.43137689898E+03  0.43137689898E+03  0.00000000000E+00 0.  1.
          1   -1    0    0  501    0  0.00000000000E+00 -0.00000000000E+00 -0.16442464836E+04  0.16442464836E+04  0.00000000000E+00 0. -1.
         23    2    1    2    0    0 -0.30024607413E+01 -0.55392968177E+03 -0.72944240839E+03  0.92028941663E+03  0.89438672223E+02 0.  0.
        254    2    1    2    0    0  0.30024607413E+01  0.55392968177E+03 -0.48342717627E+03  0.11553339660E+04  0.89120571761E+03 0.  0.
        -24    2    4    4    0    0 -0.25289049665E+03  0.22127979727E+03  0.16216824027E+03  0.38127587055E+03  0.78449979852E+02 0.  0.
         24    2    4    4    0    0  0.25589295739E+03  0.33264988450E+03 -0.64559541654E+03  0.77405809544E+03  0.78964181469E+02 0.  0.
         13    1    3    3    0    0  0.20166270680E+02 -0.59799500880E+02 -0.11786313265E+03  0.13369508898E+03  0.00000000000E+00 0.  1.
        -13    1    3    3    0    0 -0.23168731421E+02 -0.49413018089E+03 -0.61157927574E+03  0.78659432765E+03  0.00000000000E+00 0. -1.
          4    1    6    6  502    0  0.13355898539E+02 -0.22120616839E+01 -0.22476614006E+02  0.26238738915E+02  0.00000000000E+00 0. -1.
          3    1    5    5  503    0 -0.36044436224E+02  0.58154456949E+02  0.61045818829E+02  0.91693697942E+02  0.00000000000E+00 0. -1.
         -4    1    5    5    0  503 -0.21684606042E+03  0.16312534032E+03  0.10112242144E+03  0.28958217261E+03  0.00000000000E+00 0.  1.
         -1    1    6    6    0  502  0.24253705885E+03  0.33486194618E+03 -0.62311880253E+03  0.74781935652E+03  0.00000000000E+00 0.  1.
<mgrwt>
<rscale>  0 0.16843871E+04</rscale>
<asrwt>0</asrwt>
<pdfrwt beam="1">  1        1 0.25296100E+00 0.16843871E+04</pdfrwt>
<pdfrwt beam="2">  1       -1 0.66365675E-01 0.16843871E+04</pdfrwt>
<totfact> 0.11406754E+01</totfact>
</mgrwt>
</event>
<event>
12    1  0.1556559E-007  0.3217085E+04  0.7818608E-02  0.8184320E-01
         -2   -1    0    0    0  501 -0.00000000000E+00  0.00000000000E+00  0.16046291478E+04  0.16046291478E+04  0.00000000000E+00 0. -1.
          2   -1    0    0  501    0  0.00000000000E+00 -0.00000000000E+00 -0.16124657264E+04  0.16124657264E+04  0.00000000000E+00 0.  1.
         23    2    1    2    0    0 -0.65481495648E+03  0.99043192910E+03  0.87779329431E+03  0.14795841791E+04  0.94394077939E+02 0.  0.
        254    2    1    2    0    0  0.65481495648E+03 -0.99043192910E+03 -0.88562987290E+03  0.17375106951E+04  0.90822084895E+03 0.  0.
        -24    2    4    4    0    0  0.42356904546E+03 -0.22604235868E+03 -0.79161476396E+03  0.92934931587E+03  0.80810470853E+02 0.  0.
         24    2    4    4    0    0  0.23124591103E+03 -0.76438957042E+03 -0.94015108942E+02  0.80816137925E+03  0.80745820122E+02 0.  0.
         11    1    3    3    0    0 -0.27614888403E+03  0.37489538501E+03  0.39356157377E+03  0.60966832639E+03  0.00000000000E+00 0.  1.
        -11    1    3    3    0    0 -0.37866607245E+03  0.61553654410E+03  0.48423172054E+03  0.86991585267E+03  0.00000000000E+00 0. -1.
          2    1    6    6  502    0  0.97294572655E+02 -0.37409315891E+03 -0.83121290052E+02  0.39537459994E+03  0.00000000000E+00 0. -1.
          3    1    5    5  503    0  0.19801719012E+03 -0.13537159158E+03 -0.33449218663E+03  0.41160818542E+03  0.00000000000E+00 0. -1.
         -4    1    5    5    0  503  0.22555185534E+03 -0.90670767103E+02 -0.45712257733E+03  0.51774113045E+03  0.00000000000E+00 0.  1.
         -1    1    6    6    0  502  0.13395133837E+03 -0.39029641151E+03 -0.10893818890E+02  0.41278677932E+03  0.00000000000E+00 0.  1.
<mgrwt>
<rscale>  0 0.32170853E+04</rscale>
<asrwt>0</asrwt>
<pdfrwt beam="1">  1        2 0.24807165E+00 0.32170853E+04</pdfrwt>
<pdfrwt beam="2">  1       -2 0.24686602E+00 0.32170853E+04</pdfrwt>
<totfact> 0.61999232E-01</totfact>
</mgrwt>
</event>
<event>
12    1  0.1556559E-007  0.2998267E+04  0.7818608E-02  0.8244226E-01
          2   -1    0    0  501    0  0.00000000000E+00  0.00000000000E+00  0.11664545231E+04  0.11664545231E+04  0.00000000000E+00 0. -1.
         -2   -1    0    0    0  501 -0.00000000000E+00 -0.00000000000E+00 -0.19266939639E+04  0.19266939639E+04  0.00000000000E+00 0.  1.
         23    2    1    2    0    0  0.11191712882E+03 -0.13569087164E+04 -0.17170423082E+03  0.13752823875E+04  0.90512950655E+02 0.  0.
        254    2    1    2    0    0 -0.11191712882E+03  0.13569087164E+04 -0.58853521001E+03  0.17178660995E+04  0.86658152181E+03 0.  0.
        -24    2    4    4    0    0 -0.50274620537E+02  0.65648521302E+03  0.16569501299E+03  0.68365980030E+03  0.80221648166E+02 0.  0.
         24    2    4    4    0    0 -0.61642508283E+02  0.70042350335E+03 -0.75423022300E+03  0.10342062991E+04  0.79539657067E+02 0.  0.
         13    1    3    3    0    0  0.60101439268E+02 -0.10103379592E+04 -0.95081460795E+02  0.10165802767E+04  0.00000000000E+00 0. -1.
        -13    1    3    3    0    0  0.51815689553E+02 -0.34657075713E+03 -0.76622770027E+02  0.35870211077E+03  0.00000000000E+00 0.  1.
          4    1    6    6  502    0 -0.72909810057E+02  0.37649740194E+03 -0.40777073903E+03  0.55977058665E+03  0.00000000000E+00 0. -1.
          3    1    5    5  503    0  0.21509961991E+02  0.10995154701E+03  0.26384646393E+02  0.11510069817E+03  0.00000000000E+00 0. -1.
         -4    1    5    5    0  503 -0.71784582528E+02  0.54653366602E+03  0.13931036659E+03  0.56855910213E+03  0.00000000000E+00 0.  1.
         -3    1    6    6    0  502  0.11267301773E+02  0.32392610140E+03 -0.34645948397E+03  0.47443571250E+03  0.00000000000E+00 0.  1.
<mgrwt>
<rscale>  0 0.29982668E+04</rscale>
<asrwt>0</asrwt>
<pdfrwt beam="1">  1        2 0.17945454E+00 0.29982668E+04</pdfrwt>
<pdfrwt beam="2">  1       -2 0.29641446E+00 0.29982668E+04</pdfrwt>
<totfact> 0.56785638E-01</totfact>
</mgrwt>
</event>
<event>
12    1  0.1882603E-007  0.2518558E+04  0.7818608E-02  0.8396404E-01
          2   -1    0    0  501    0  0.00000000000E+00  0.00000000000E+00  0.24046334784E+04  0.24046334784E+04  0.00000000000E+00 0. -1.
         -2   -1    0    0    0  501 -0.00000000000E+00 -0.00000000000E+00 -0.65946992211E+03  0.65946992211E+03  0.00000000000E+00 0.  1.
         23    2    1    2    0    0  0.33895112054E+03 -0.54495970625E+03  0.19077183232E+04  0.20147735426E+04  0.89745661908E+02 0.  0.
        254    2    1    2    0    0 -0.33895112054E+03  0.54495970625E+03 -0.16255476691E+03  0.10493298579E+04  0.81412539258E+03 0.  0.
        -24    2    4    4    0    0  0.10823972681E+03  0.55140420190E+03 -0.17626048630E+03  0.59450909365E+03  0.81307263364E+02 0.  0.
         24    2    4    4    0    0 -0.44719084735E+03 -0.64444956517E+01  0.13705719392E+02  0.45482076423E+03  0.81565282725E+02 0.  0.
         11    1    3    3    0    0  0.28523128080E+03 -0.41714951321E+03  0.15827834970E+04  0.16614975770E+04  0.00000000000E+00 0. -1.
        -11    1    3    3    0    0  0.53719839737E+02 -0.12781019304E+03  0.32493482617E+03  0.35327596561E+03  0.00000000000E+00 0.  1.
          4    1    6    6  502    0 -0.19123432840E+02  0.17000164917E+02 -0.31505488712E+01  0.25780559516E+02  0.00000000000E+00 0. -1.
          3    1    5    5  503    0 -0.11041418982E+02  0.18751405781E+02 -0.96327436555E+01  0.23797434782E+02  0.00000000000E+00 0. -1.
         -4    1    5    5    0  503  0.11928114580E+03  0.53265279612E+03 -0.16662774265E+03  0.57071165887E+03  0.00000000000E+00 0.  1.
         -1    1    6    6    0  502 -0.42806741452E+03 -0.23444660568E+02  0.16856268263E+02  0.42904020471E+03  0.00000000000E+00 0.  1.
<mgrwt>
<rscale>  0 0.25185579E+04</rscale>
<asrwt>0</asrwt>
<pdfrwt beam="1">  1        2 0.36994361E+00 0.25185579E+04</pdfrwt>
<pdfrwt beam="2">  1       -2 0.10145691E+00 0.25185579E+04</pdfrwt>
<totfact> 0.28075555E+00</totfact>
</mgrwt>
</event>
<event>
12    1  0.1556559E-007  0.3175496E+04  0.7818608E-02  0.8195319E-01
         -2   -1    0    0    0  501 -0.00000000000E+00  0.00000000000E+00  0.78758905680E+03  0.78758905680E+03  0.00000000000E+00 0.  1.
          2   -1    0    0  501    0  0.00000000000E+00 -0.00000000000E+00 -0.32008363801E+04  0.32008363801E+04  0.00000000000E+00 0. -1.
         23    2    1    2    0    0 -0.10351871725E+04 -0.72502210723E+03 -0.20227115734E+04  0.23869130187E+04  0.93392246235E+02 0.  0.
        254    2    1    2    0    0  0.10351871725E+04  0.72502210723E+03 -0.39053574989E+03  0.16015124182E+04  0.90280358637E+03 0.  0.
        -24    2    4    4    0    0  0.68989700180E+03  0.81996076902E+03 -0.54314394623E+03  0.12041055973E+04  0.81064216687E+02 0.  0.
         24    2    4    4    0    0  0.34529017070E+03 -0.94938661795E+02  0.15260819634E+03  0.39740682091E+03  0.80026671964E+02 0.  0.
         13    1    3    3    0    0 -0.78421362039E+03 -0.58937537984E+03 -0.16056613792E+04  0.18816223865E+04  0.00000000000E+00 0. -1.
        -13    1    3    3    0    0 -0.25097355211E+03 -0.13564672739E+03 -0.41705019427E+03  0.50529063226E+03  0.00000000000E+00 0.  1.
          4    1    6    6  502    0  0.35129381306E+02  0.84660776940E+01 -0.10594854653E+01  0.36150662676E+02  0.00000000000E+00 0. -1.
          1    1    5    5  503    0  0.91134869857E+02  0.90131943354E+02 -0.39408629569E+02  0.13409836614E+03  0.00000000000E+00 0. -1.
         -2    1    5    5    0  503  0.59876213195E+03  0.72982882567E+03 -0.50373531666E+03  0.10700072311E+04  0.00000000000E+00 0.  1.
         -3    1    6    6    0  502  0.31016078940E+03 -0.10340473949E+03  0.15366768181E+03  0.36125615823E+03  0.00000000000E+00 0.  1.
<mgrwt>
<rscale>  0 0.31754960E+04</rscale>
<asrwt>0</asrwt>
<pdfrwt beam="1">  1        2 0.49243637E+00 0.31754960E+04</pdfrwt>
<pdfrwt beam="2">  1       -2 0.12116755E+00 0.31754960E+04</pdfrwt>
<totfact> 0.56592246E-01</totfact>
</mgrwt>
</event>
<event>
12    1  0.1556559E-007  0.1441464E+04  0.7818608E-02  0.8924340E-01
          1   -1    0    0  501    0  0.00000000000E+00  0.00000000000E+00  0.14154275561E+04  0.14154275561E+04  0.00000000000E+00 0. -1.
         -1   -1    0    0    0  501 -0.00000000000E+00 -0.00000000000E+00 -0.36699464868E+03  0.36699464868E+03  0.00000000000E+00 0.  1.
         23    2    1    2    0    0 -0.26496738769E+03 -0.22859215824E+02 -0.10010129824E+03  0.29872135272E+03  0.92108177590E+02 0.  0.
        254    2    1    2    0    0  0.26496738769E+03  0.22859215824E+02  0.11485342057E+04  0.14837008521E+04  0.90083690896E+03 0.  0.
        -24    2    4    4    0    0  0.36039567001E+03 -0.13771356735E+03  0.12093163482E+04  0.12719084957E+04  0.80343797037E+02 0.  0.
         24    2    4    4    0    0 -0.95428282326E+02  0.16057278317E+03 -0.60782142530E+02  0.21179235640E+03  0.79191903722E+02 0.  0.
         11    1    3    3    0    0 -0.23140598773E+03 -0.30393639708E+02 -0.11622716807E+03  0.26073215968E+03  0.00000000000E+00 0.  1.
        -11    1    3    3    0    0 -0.33561399960E+02  0.75344238836E+01  0.16125869836E+02  0.37989193049E+02  0.00000000000E+00 0. -1.
          2    1    6    6  502    0 -0.85239211931E+01  0.49637157315E+02  0.13978116323E+02  0.52267507639E+02  0.00000000000E+00 0. -1.
          1    1    5    5  503    0  0.35971309109E+02 -0.42863597245E+02  0.18322912708E+03  0.19158323533E+03  0.00000000000E+00 0. -1.
         -2    1    5    5    0  503  0.32442436090E+03 -0.94849970102E+02  0.10260872212E+04  0.10803252604E+04  0.00000000000E+00 0.  1.
         -1    1    6    6    0  502 -0.86904361133E+02  0.11093562586E+03 -0.74760258853E+02  0.15952484876E+03  0.00000000000E+00 0.  1.
<mgrwt>
<rscale>  0 0.14414636E+04</rscale>
<asrwt>0</asrwt>
<pdfrwt beam="1">  1        1 0.21775808E+00 0.14414636E+04</pdfrwt>
<pdfrwt beam="2">  1       -1 0.56460716E-01 0.14414636E+04</pdfrwt>
<totfact> 0.23119069E+01</totfact>
</mgrwt>
</event>
<event>
12    1  0.1556559E-007  0.1492700E+04  0.7818608E-02  0.8889322E-01
          2   -1    0    0  501    0  0.00000000000E+00  0.00000000000E+00  0.11490731547E+04  0.11490731547E+04  0.00000000000E+00 0. -1.
         -2   -1    0    0    0  501 -0.00000000000E+00 -0.00000000000E+00 -0.48477188596E+03  0.48477188596E+03  0.00000000000E+00 0.  1.
         23    2    1    2    0    0 -0.11416482563E+03  0.30416609536E+03 -0.15640646150E+03  0.37173072938E+03  0.90388787961E+02 0.  0.
        254    2    1    2    0    0  0.11416482563E+03 -0.30416609536E+03  0.82070773019E+03  0.12621143112E+04  0.90212013349E+03 0.  0.
        -24    2    4    4    0    0 -0.26694928481E+03 -0.46121056712E+03  0.44789355995E+03  0.70076223654E+03  0.80510640472E+02 0.  0.
         24    2    4    4    0    0  0.38111411044E+03  0.15704447177E+03  0.37281417024E+03  0.56135207469E+03  0.78834097614E+02 0.  0.
         11    1    3    3    0    0  0.34428580200E+00  0.92971429082E+02 -0.18741049954E+02  0.94842143120E+02  0.00000000000E+00 0. -1.
        -11    1    3    3    0    0 -0.11450911143E+03  0.21119466627E+03 -0.13766541155E+03  0.27688858626E+03  0.00000000000E+00 0.  1.
          4    1    6    6  502    0  0.24047449420E+03  0.13882340061E+03  0.23874032358E+03  0.36619238252E+03  0.00000000000E+00 0. -1.
          1    1    5    5  503    0 -0.15937114054E+03 -0.28781424212E+03  0.22502988169E+03  0.39859082535E+03  0.00000000000E+00 0. -1.
         -2    1    5    5    0  503 -0.10757814427E+03 -0.17339632500E+03  0.22286367826E+03  0.30217141119E+03  0.00000000000E+00 0.  1.
         -3    1    6    6    0  502  0.14063961623E+03  0.18221071159E+02  0.13407384667E+03  0.19515969217E+03  0.00000000000E+00 0.  1.
<mgrwt>
<rscale>  0 0.14927001E+04</rscale>
<asrwt>0</asrwt>
<pdfrwt beam="1">  1        2 0.17678049E+00 0.14927001E+04</pdfrwt>
<pdfrwt beam="2">  1       -2 0.74580290E-01 0.14927001E+04</pdfrwt>
<totfact> 0.31778454E+01</totfact>
</mgrwt>
</event>
<event>
12    1  0.1556559E-007  0.2394896E+04  0.7818608E-02  0.8441417E-01
         -1   -1    0    0    0  501 -0.00000000000E+00  0.00000000000E+00  0.61820079107E+03  0.61820079107E+03  0.00000000000E+00 0.  1.
          1   -1    0    0  501    0  0.00000000000E+00 -0.00000000000E+00 -0.23194441820E+04  0.23194441820E+04  0.00000000000E+00 0. -1.
         23    2    1    2    0    0 -0.32800709944E+03  0.98776006717E+03 -0.67995369654E+03  0.12465827717E+04  0.91503933234E+02 0.  0.
        254    2    1    2    0    0  0.32800709944E+03 -0.98776006717E+03 -0.10212896944E+04  0.16910622013E+04  0.85638783347E+03 0.  0.
        -24    2    4    4    0    0 -0.15097478592E+02  0.86073536463E+02 -0.36674018350E+03  0.38513889328E+03  0.78721136864E+02 0.  0.
         24    2    4    4    0    0  0.34310457803E+03 -0.10738336036E+04 -0.65454951088E+03  0.13059233080E+04  0.78493722832E+02 0.  0.
         11    1    3    3    0    0 -0.23428368988E+03  0.72346056688E+03 -0.44757342892E+03  0.88238654424E+03  0.00000000000E+00 0.  1.
        -11    1    3    3    0    0 -0.93723409557E+02  0.26429950029E+03 -0.23238026762E+03  0.36419622751E+03  0.00000000000E+00 0. -1.
          4    1    6    6  502    0  0.33070103037E+03 -0.96293503403E+03 -0.59895965583E+03  0.11812534531E+04  0.00000000000E+00 0. -1.
          3    1    5    5  503    0  0.21204084820E+02  0.69324171544E+02 -0.28597098886E+03  0.29501671215E+03  0.00000000000E+00 0. -1.
         -4    1    5    5    0  503 -0.36301563413E+02  0.16749364919E+02 -0.80769194633E+02  0.90122181138E+02  0.00000000000E+00 0.  1.
         -3    1    6    6    0  502  0.12403547658E+02 -0.11089856960E+03 -0.55589855042E+02  0.12466985489E+03  0.00000000000E+00 0.  1.
<mgrwt>
<rscale>  0 0.23948964E+04</rscale>
<asrwt>0</asrwt>
<pdfrwt beam="1">  1        1 0.35683757E+00 0.23948964E+04</pdfrwt>
<pdfrwt beam="2">  1       -1 0.95107814E-01 0.23948964E+04</pdfrwt>
<totfact> 0.17277451E+00</totfact>
</mgrwt>
</event>
<event>
12    1  0.1556559E-007  0.1153755E+04  0.7818608E-02  0.9154326E-01
         -2   -1    0    0    0  501 -0.00000000000E+00  0.00000000000E+00  0.23023821651E+03  0.23023821651E+03  0.00000000000E+00 0.  1.
          2   -1    0    0  501    0  0.00000000000E+00 -0.00000000000E+00 -0.14454069227E+04  0.14454069227E+04  0.00000000000E+00 0. -1.
         23    2    1    2    0    0  0.24174460392E+01 -0.11884867500E+03  0.11842002897E+02  0.15033718860E+03  0.91269850708E+02 0.  0.
        254    2    1    2    0    0 -0.24174460392E+01  0.11884867500E+03 -0.12270107091E+04  0.15253079506E+04  0.89826399926E+03 0.  0.
        -24    2    4    4    0    0 -0.31389037567E+03  0.37429598342E+03 -0.68821460441E+03  0.84780761836E+03  0.80707898555E+02 0.  0.
         24    2    4    4    0    0  0.31147292964E+03 -0.25544730842E+03 -0.53879610464E+03  0.67750033221E+03  0.80229324414E+02 0.  0.
         13    1    3    3    0    0  0.25292488321E+02 -0.11179797952E+03 -0.13573355948E+02  0.11542414904E+03  0.00000000000E+00 0. -1.
        -13    1    3    3    0    0 -0.22875042281E+02 -0.70506954854E+01  0.25415358845E+02  0.34913039561E+02  0.00000000000E+00 0.  1.
          2    1    6    6  502    0  0.74222015696E+02 -0.21913411196E+02 -0.11430185734E+03  0.13803629883E+03  0.00000000000E+00 0. -1.
          1    1    5    5  503    0 -0.22941518210E+02  0.32327530035E+01 -0.25371272104E+02  0.34357901536E+02  0.00000000000E+00 0. -1.
         -2    1    5    5    0  503 -0.29094885746E+03  0.37106323042E+03 -0.66284333230E+03  0.81344971683E+03  0.00000000000E+00 0.  1.
         -1    1    6    6    0  502  0.23725091394E+03 -0.23353389722E+03 -0.42449424731E+03  0.53946403338E+03  0.00000000000E+00 0.  1.
<mgrwt>
<rscale>  0 0.11537555E+04</rscale>
<asrwt>0</asrwt>
<pdfrwt beam="1">  1        2 0.22237029E+00 0.11537555E+04</pdfrwt>
<pdfrwt beam="2">  1       -2 0.35421264E-01 0.11537555E+04</pdfrwt>
<totfact> 0.10093213E+02</totfact>
</mgrwt>
</event>
<event>
12    1  0.1556559E-007  0.1888519E+04  0.7818608E-02  0.8660593E-01
         -1   -1    0    0    0  501 -0.00000000000E+00  0.00000000000E+00  0.95383880385E+03  0.95383880385E+03  0.00000000000E+00 0.  1.
          1   -1    0    0  501    0  0.00000000000E+00 -0.00000000000E+00 -0.93477606692E+03  0.93477606692E+03  0.00000000000E+00 0. -1.
         23    2    1    2    0    0 -0.36222721566E+03  0.40792557861E+03  0.48871637342E+03  0.73771363001E+03  0.88124189631E+02 0.  0.
        254    2    1    2    0    0  0.36222721566E+03 -0.40792557861E+03 -0.46965363650E+03  0.11509012408E+04  0.89799069832E+03 0.  0.
        -24    2    4    4    0    0  0.10718060686E+03 -0.60936916070E+03 -0.52174052097E+03  0.81329488117E+03  0.80105780112E+02 0.  0.
         24    2    4    4    0    0  0.25504660880E+03  0.20144358209E+03  0.52086884476E+02  0.33760635960E+03  0.75078099879E+02 0.  0.
         13    1    3    3    0    0 -0.18047067063E+03  0.22896482496E+03  0.20622594860E+03  0.35710460079E+03  0.00000000000E+00 0.  1.
        -13    1    3    3    0    0 -0.18175654503E+03  0.17896075365E+03  0.28249042482E+03  0.38060902922E+03  0.00000000000E+00 0. -1.
          2    1    6    6  502    0  0.12523330927E+03  0.60239923281E+02  0.44611918094E+00  0.13896916611E+03  0.00000000000E+00 0. -1.
          1    1    5    5  503    0  0.28309736647E+02 -0.55517258731E+02 -0.73997629986E+02  0.96743250150E+02  0.00000000000E+00 0. -1.
         -2    1    5    5    0  503  0.78870870214E+02 -0.55385190197E+03 -0.44774289099E+03  0.71655163102E+03  0.00000000000E+00 0.  1.
         -1    1    6    6    0  502  0.12981329953E+03  0.14120365881E+03  0.51640765295E+02  0.19863719349E+03  0.00000000000E+00 0.  1.
<mgrwt>
<rscale>  0 0.18885187E+04</rscale>
<asrwt>0</asrwt>
<pdfrwt beam="1">  1        1 0.14381170E+00 0.18885187E+04</pdfrwt>
<pdfrwt beam="2">  1       -1 0.14674443E+00 0.18885187E+04</pdfrwt>
<totfact> 0.59095184E+00</totfact>
</mgrwt>
</event>
<event>
12    1  0.1556559E-007  0.1558558E+04  0.7818608E-02  0.8846420E-01
          1   -1    0    0  501    0  0.00000000000E+00  0.00000000000E+00  0.12991630671E+04  0.12991630671E+04  0.00000000000E+00 0. -1.
         -1   -1    0    0    0  501 -0.00000000000E+00 -0.00000000000E+00 -0.46743613855E+03  0.46743613855E+03  0.00000000000E+00 0.  1.
         23    2    1    2    0    0 -0.34960780741E+03 -0.36810240261E+03  0.34285524765E+03  0.61966111331E+03  0.93301536402E+02 0.  0.
        254    2    1    2    0    0  0.34960780741E+03  0.36810240261E+03  0.48887168088E+03  0.11469380923E+04  0.90484610263E+03 0.  0.
        -24    2    4    4    0    0  0.39290350115E+03  0.60093318387E+03  0.17155428666E+03  0.74263011724E+03  0.81084925040E+02 0.  0.
         24    2    4    4    0    0 -0.43295693739E+02 -0.23283078126E+03  0.31731739422E+03  0.40430797508E+03  0.81791932644E+02 0.  0.
         13    1    3    3    0    0 -0.24195899339E+03 -0.28010222705E+03  0.20169613353E+03  0.42152430815E+03  0.00000000000E+00 0. -1.
        -13    1    3    3    0    0 -0.10764881402E+03 -0.88000175562E+02  0.14115911413E+03  0.19813680516E+03  0.00000000000E+00 0.  1.
          4    1    6    6  502    0 -0.55880259060E+02 -0.21880892414E+03  0.31118409668E+03  0.38449381096E+03  0.00000000000E+00 0. -1.
          3    1    5    5  503    0  0.28217955309E+03  0.37275354626E+03  0.13320940402E+03  0.48612267150E+03  0.00000000000E+00 0. -1.
         -4    1    5    5    0  503  0.11072394806E+03  0.22817963761E+03  0.38344882644E+02  0.25650744574E+03  0.00000000000E+00 0.  1.
         -3    1    6    6    0  502  0.12584565321E+02 -0.14021857115E+02  0.61332975325E+01  0.19814164123E+02  0.00000000000E+00 0.  1.
<mgrwt>
<rscale>  0 0.15585580E+04</rscale>
<asrwt>0</asrwt>
<pdfrwt beam="1">  1        1 0.19987124E+00 0.15585580E+04</pdfrwt>
<pdfrwt beam="2">  1       -1 0.71913252E-01 0.15585580E+04</pdfrwt>
<totfact> 0.17019251E+01</totfact>
</mgrwt>
</event>
<event>
12    1  0.1556559E-007  0.1209578E+04  0.7818608E-02  0.9104514E-01
         -1   -1    0    0    0  501 -0.00000000000E+00  0.00000000000E+00  0.50410293157E+03  0.50410293157E+03  0.00000000000E+00 0.  1.
          1   -1    0    0  501    0  0.00000000000E+00 -0.00000000000E+00 -0.72558507847E+03  0.72558507847E+03  0.00000000000E+00 0. -1.
         23    2    1    2    0    0 -0.12184306136E+03 -0.10921402085E+03  0.15224483561E+03  0.24109207546E+03  0.90407217233E+02 0.  0.
        254    2    1    2    0    0  0.12184306136E+03  0.10921402085E+03 -0.37372698251E+03  0.98859593458E+03  0.90048688522E+03 0.  0.
        -24    2    4    4    0    0 -0.16091524172E+03  0.13233862622E+03 -0.58526525588E+03  0.62629118132E+03  0.79359920905E+02 0.  0.
         24    2    4    4    0    0  0.28275830308E+03 -0.23124605374E+02  0.21153827337E+03  0.36230475326E+03  0.77648488739E+02 0.  0.
         11    1    3    3    0    0 -0.68686030683E+02 -0.92434589151E+02  0.14455917573E+03  0.18482229132E+03  0.00000000000E+00 0.  1.
        -11    1    3    3    0    0 -0.53157030680E+02 -0.16779431701E+02  0.76856598760E+01  0.56269784136E+02  0.00000000000E+00 0. -1.
          2    1    6    6  502    0  0.25298327945E+03 -0.41454547016E+02  0.20107790468E+03  0.32580875203E+03  0.00000000000E+00 0. -1.
          1    1    5    5  503    0 -0.13026844366E+03  0.11182681642E+03 -0.54629955343E+03  0.57264151645E+03  0.00000000000E+00 0. -1.
         -2    1    5    5    0  503 -0.30646798061E+02  0.20511809803E+02 -0.38965702446E+02  0.53649664863E+02  0.00000000000E+00 0.  1.
         -1    1    6    6    0  502  0.29775023634E+02  0.18329941642E+02  0.10460368684E+02  0.36496001233E+02  0.00000000000E+00 0.  1.
<mgrwt>
<rscale>  0 0.12095777E+04</rscale>
<asrwt>0</asrwt>
<pdfrwt beam="1">  1        1 0.11162847E+00 0.12095777E+04</pdfrwt>
<pdfrwt beam="2">  1       -1 0.77554298E-01 0.12095777E+04</pdfrwt>
<totfact> 0.42511746E+01</totfact>
</mgrwt>
</event>
<event>
12    1  0.1556559E-007  0.1486965E+04  0.7818608E-02  0.8893167E-01
          3   -1    0    0  501    0  0.00000000000E+00  0.00000000000E+00  0.61286521046E+03  0.61286521046E+03  0.00000000000E+00 0. -1.
         -3   -1    0    0    0  501 -0.00000000000E+00 -0.00000000000E+00 -0.90193800918E+03  0.90193800918E+03  0.00000000000E+00 0.  1.
         23    2    1    2    0    0 -0.45421655295E+03 -0.19196812609E+02  0.19512454535E+01  0.46390283595E+03  0.92308392111E+02 0.  0.
        254    2    1    2    0    0  0.45421655295E+03  0.19196812609E+02 -0.29102404417E+03  0.10509003837E+04  0.90167368131E+03 0.  0.
        -24    2    4    4    0    0  0.45204534940E+03 -0.28319421554E+03 -0.44932512815E+03  0.70207562395E+03  0.80455884293E+02 0.  0.
         24    2    4    4    0    0  0.21712035518E+01  0.30239102815E+03  0.15830108398E+03  0.34882475975E+03  0.71933523421E+02 0.  0.
         11    1    3    3    0    0 -0.30909564843E+03 -0.29664001515E+02 -0.38482096594E+02  0.31289126646E+03  0.00000000000E+00 0. -1.
        -11    1    3    3    0    0 -0.14512090452E+03  0.10467188906E+02  0.40433342048E+02  0.15101156949E+03  0.00000000000E+00 0.  1.
          4    1    6    6  502    0 -0.14557418254E+02  0.20996155523E+03  0.75466805593E+02  0.22358669873E+03  0.00000000000E+00 0. -1.
          1    1    5    5  503    0  0.23931524126E+03 -0.19663164947E+03 -0.25293752807E+03  0.39989146450E+03  0.00000000000E+00 0. -1.
         -2    1    5    5    0  503  0.21273010814E+03 -0.86562566074E+02 -0.19638760009E+03  0.30218415945E+03  0.00000000000E+00 0.  1.
         -3    1    6    6    0  502  0.16728621806E+02  0.92429472920E+02  0.82834278390E+02  0.12523806102E+03  0.00000000000E+00 0.  1.
<mgrwt>
<rscale>  0 0.14869653E+04</rscale>
<asrwt>0</asrwt>
<pdfrwt beam="1">  1        3 0.94286956E-01 0.14869653E+04</pdfrwt>
<pdfrwt beam="2">  1       -3 0.13875969E+00 0.14869653E+04</pdfrwt>
<totfact> 0.10008341E+00</totfact>
</mgrwt>
</event>
<event>
12    1  0.1556559E-007  0.1584049E+04  0.7818608E-02  0.8830408E-01
          2   -1    0    0  501    0  0.00000000000E+00  0.00000000000E+00  0.29802805831E+04  0.29802805831E+04  0.00000000000E+00 0. -1.
         -2   -1    0    0    0  501 -0.00000000000E+00 -0.00000000000E+00 -0.21048438084E+03  0.21048438084E+03  0.00000000000E+00 0.  1.
         23    2    1    2    0    0  0.52240906115E+02  0.45878810784E+03  0.41488901142E+03  0.62861215847E+03  0.99018754816E+02 0.  0.
        254    2    1    2    0    0 -0.52240906115E+02 -0.45878810784E+03  0.23549071909E+04  0.25621528055E+04  0.89767671294E+03 0.  0.
        -24    2    4    4    0    0  0.11167255428E+03 -0.24562114432E+03  0.22417818250E+04  0.22593793768E+04  0.80055678437E+02 0.  0.
         24    2    4    4    0    0 -0.16391346039E+03 -0.21316696353E+03  0.11312536589E+03  0.30277342869E+03  0.81034707844E+02 0.  0.
         11    1    3    3    0    0 -0.26184951365E+01  0.22311123621E+03  0.25371713791E+03  0.33787255927E+03  0.00000000000E+00 0. -1.
        -11    1    3    3    0    0  0.54859401252E+02  0.23567687164E+03  0.16117187350E+03  0.29073959919E+03  0.00000000000E+00 0.  1.
          2    1    6    6  502    0 -0.16393802898E+03 -0.18554548141E+03  0.11872865677E+03  0.27458932419E+03  0.00000000000E+00 0. -1.
          1    1    5    5  503    0  0.10030211957E+03 -0.23010046652E+03  0.21861750398E+04  0.22005381261E+04  0.00000000000E+00 0. -1.
         -2    1    5    5    0  503  0.11370434711E+02 -0.15520677794E+02  0.55606785179E+02  0.58841250689E+02  0.00000000000E+00 0.  1.
         -1    1    6    6    0  502  0.24568589482E-01 -0.27621482113E+02 -0.56032908831E+01  0.28184104500E+02  0.00000000000E+00 0.  1.
<mgrwt>
<rscale>  0 0.15840486E+04</rscale>
<asrwt>0</asrwt>
<pdfrwt beam="1">  1        2 0.45850467E+00 0.15840486E+04</pdfrwt>
<pdfrwt beam="2">  1       -2 0.32382215E-01 0.15840486E+04</pdfrwt>
<totfact> 0.15368512E+01</totfact>
</mgrwt>
</event>
<event>
12    1  0.1556559E-007  0.3266551E+04  0.7818608E-02  0.8171459E-01
          2   -1    0    0  501    0  0.00000000000E+00  0.00000000000E+00  0.29124589526E+04  0.29124589526E+04  0.00000000000E+00 0. -1.
         -2   -1    0    0    0  501 -0.00000000000E+00 -0.00000000000E+00 -0.91592339259E+03  0.91592339259E+03  0.00000000000E+00 0.  1.
         23    2    1    2    0    0  0.10749855950E+04  0.37382298594E+03 -0.23665679419E+03  0.11660831787E+04  0.91683626007E+02 0.  0.
        254    2    1    2    0    0 -0.10749855950E+04 -0.37382298594E+03  0.22331923542E+04  0.26622991664E+04  0.89741356505E+03 0.  0.
        -24    2    4    4    0    0 -0.46501575246E+03 -0.44838931133E+03  0.17782795593E+04  0.18936515722E+04  0.79658404262E+02 0.  0.
         24    2    4    4    0    0 -0.60996984250E+03  0.74566325385E+02  0.45491279484E+03  0.76864759420E+03  0.79057748050E+02 0.  0.
         11    1    3    3    0    0  0.55837394848E+03  0.19515008924E+03 -0.76191570915E+02  0.59638090106E+03  0.00000000000E+00 0. -1.
        -11    1    3    3    0    0  0.51661164648E+03  0.17867289670E+03 -0.16046522327E+03  0.56970227766E+03  0.00000000000E+00 0.  1.
          2    1    6    6  502    0 -0.12528212018E+03 -0.25151827437E+01  0.12693054434E+03  0.17836282928E+03  0.00000000000E+00 0. -1.
          1    1    5    5  503    0 -0.37948738068E+03 -0.33603881374E+03  0.13141243247E+04  0.14084940530E+04  0.00000000000E+00 0. -1.
         -2    1    5    5    0  503 -0.85528371779E+02 -0.11235049759E+03  0.46415523460E+03  0.48515751926E+03  0.00000000000E+00 0.  1.
         -1    1    6    6    0  502 -0.48468772232E+03  0.77081508129E+02  0.32798225050E+03  0.59028476492E+03  0.00000000000E+00 0.  1.
<mgrwt>
<rscale>  0 0.32665513E+04</rscale>
<asrwt>0</asrwt>
<pdfrwt beam="1">  1        2 0.44807061E+00 0.32665513E+04</pdfrwt>
<pdfrwt beam="2">  1       -2 0.14091129E+00 0.32665513E+04</pdfrwt>
<totfact> 0.58340707E-01</totfact>
</mgrwt>
</event>
<event>
12    1  0.1556559E-007  0.1303399E+04  0.7818608E-02  0.9026874E-01
          2   -1    0    0  501    0  0.00000000000E+00  0.00000000000E+00  0.19755829992E+04  0.19755829992E+04  0.00000000000E+00 0. -1.
         -2   -1    0    0    0  501 -0.00000000000E+00 -0.00000000000E+00 -0.21498055940E+03  0.21498055940E+03  0.00000000000E+00 0.  1.
         23    2    1    2    0    0  0.26112533663E+03 -0.19239904410E+03  0.62120088536E+03  0.70628462400E+03  0.87997707481E+02 0.  0.
        254    2    1    2    0    0 -0.26112533663E+03  0.19239904410E+03  0.11394015544E+04  0.14842789345E+04  0.89422828170E+03 0.  0.
        -24    2    4    4    0    0 -0.30222431675E+03 -0.29245433670E+03  0.34728987532E+03  0.55127618936E+03  0.80162976315E+02 0.  0.
         24    2    4    4    0    0  0.41098980119E+02  0.48485338079E+03  0.79211167907E+03  0.93300274519E+03  0.79254547931E+02 0.  0.
         13    1    3    3    0    0  0.97155039448E+02 -0.79879859629E+02  0.33450363639E+03  0.35736896399E+03  0.00000000000E+00 0. -1.
        -13    1    3    3    0    0  0.16397029718E+03 -0.11251918447E+03  0.28669724897E+03  0.34891566001E+03  0.00000000000E+00 0.  1.
          2    1    6    6  502    0  0.11552326324E+02  0.26414116724E+03  0.50103811475E+03  0.56651849476E+03  0.00000000000E+00 0. -1.
          1    1    5    5  503    0 -0.50124423486E+02 -0.26540737295E+02  0.20521201917E+02  0.60315738362E+02  0.00000000000E+00 0. -1.
         -2    1    5    5    0  503 -0.25209989326E+03 -0.26591359940E+03  0.32676867340E+03  0.49096045100E+03  0.00000000000E+00 0.  1.
         -1    1    6    6    0  502  0.29546653795E+02  0.22071221355E+03  0.29107356433E+03  0.36648425043E+03  0.00000000000E+00 0.  1.
<mgrwt>
<rscale>  0 0.13033985E+04</rscale>
<asrwt>0</asrwt>
<pdfrwt beam="1">  1        2 0.30393583E+00 0.13033985E+04</pdfrwt>
<pdfrwt beam="2">  1       -2 0.33073934E-01 0.13033985E+04</pdfrwt>
<totfact> 0.57692616E+01</totfact>
</mgrwt>
</event>
<event>
12    1  0.1556559E-007  0.1842791E+04  0.7818608E-02  0.8683869E-01
          2   -1    0    0  501    0  0.00000000000E+00  0.00000000000E+00  0.10166120459E+04  0.10166120459E+04  0.00000000000E+00 0. -1.
         -2   -1    0    0    0  501 -0.00000000000E+00 -0.00000000000E+00 -0.83509664629E+03  0.83509664629E+03  0.00000000000E+00 0.  1.
         23    2    1    2    0    0  0.11572461479E+03 -0.24929008739E+03  0.73434773817E+03  0.78895719157E+03  0.87459221541E+02 0.  0.
        254    2    1    2    0    0 -0.11572461479E+03  0.24929008739E+03 -0.55283233856E+03  0.10627515006E+04  0.86503145803E+03 0.  0.
        -24    2    4    4    0    0  0.27221698414E+03 -0.15105905960E+02  0.54033147507E+02  0.29152883464E+03  0.87972754575E+02 0.  0.
         24    2    4    4    0    0 -0.38794159893E+03  0.26439599335E+03 -0.60686548607E+03  0.77122266598E+03  0.78068923820E+02 0.  0.
         13    1    3    3    0    0 -0.11916442520E+02 -0.16424596994E+02  0.30053003157E+02  0.36262266718E+02  0.00000000000E+00 0.  1.
        -13    1    3    3    0    0  0.12764105731E+03 -0.23286549039E+03  0.70429473501E+03  0.75269492485E+03  0.00000000000E+00 0. -1.
          2    1    6    6  502    0 -0.16013370923E+02  0.11766085733E+02 -0.60297835018E+02  0.63487776222E+02  0.00000000000E+00 0. -1.
          3    1    5    5  503    0  0.79029011488E+02  0.12846773767E+02 -0.20391438502E+02  0.82622242872E+02  0.00000000000E+00 0. -1.
         -4    1    5    5    0  503  0.19318797265E+03 -0.27952679727E+02  0.74424586009E+02  0.20890659177E+03  0.00000000000E+00 0.  1.
         -1    1    6    6    0  502 -0.37192822801E+03  0.25262990761E+03 -0.54656765105E+03  0.70773488976E+03  0.00000000000E+00 0.  1.
<mgrwt>
<rscale>  0 0.18427906E+04</rscale>
<asrwt>0</asrwt>
<pdfrwt beam="1">  1        2 0.15640185E+00 0.18427906E+04</pdfrwt>
<pdfrwt beam="2">  1       -2 0.12847641E+00 0.18427906E+04</pdfrwt>
<totfact> 0.10347423E+01</totfact>
</mgrwt>
</event>
<event>
12    1  0.1556559E-007  0.1794653E+04  0.7818608E-02  0.8709148E-01
         -1   -1    0    0    0  501 -0.00000000000E+00  0.00000000000E+00  0.24142937588E+04  0.24142937588E+04  0.00000000000E+00 0.  1.
          1   -1    0    0  501    0  0.00000000000E+00 -0.00000000000E+00 -0.33351169774E+03  0.33351169774E+03  0.00000000000E+00 0. -1.
         23    2    1    2    0    0 -0.64457829402E+03 -0.30538851148E+02  0.48232700319E+03  0.81085741356E+03  0.91851012923E+02 0.  0.
        254    2    1    2    0    0  0.64457829402E+03  0.30538851148E+02  0.15984550578E+04  0.19369480430E+04  0.88334328017E+03 0.  0.
        -24    2    4    4    0    0 -0.11938805754E+03 -0.23944263458E+03  0.38198655066E+03  0.47306800928E+03  0.79330529939E+02 0.  0.
         24    2    4    4    0    0  0.76396635156E+03  0.26998148573E+03  0.12164685072E+04  0.14638800337E+04  0.81329792068E+02 0.  0.
         13    1    3    3    0    0 -0.26584150821E+03  0.21730528555E+02  0.23519130165E+03  0.35561056189E+03  0.00000000000E+00 0.  1.
        -13    1    3    3    0    0 -0.37873678581E+03 -0.52269379703E+02  0.24713570154E+03  0.45524685167E+03  0.00000000000E+00 0. -1.
          2    1    6    6  502    0  0.52165755523E+03  0.17850702503E+03  0.89302937142E+03  0.10495202814E+04  0.00000000000E+00 0. -1.
          3    1    5    5  503    0 -0.95817377003E+02 -0.23498117269E+03  0.33449895516E+03  0.41986506435E+03  0.00000000000E+00 0. -1.
         -4    1    5    5    0  503 -0.23570680540E+02 -0.44614618887E+01  0.47487595498E+02  0.53202944932E+02  0.00000000000E+00 0.  1.
         -1    1    6    6    0  502  0.24230879633E+03  0.91474460695E+02  0.32343913576E+03  0.41435975224E+03  0.00000000000E+00 0.  1.
<mgrwt>
<rscale>  0 0.17946534E+04</rscale>
<asrwt>0</asrwt>
<pdfrwt beam="1">  1        1 0.51309494E-01 0.17946534E+04</pdfrwt>
<pdfrwt beam="2">  1       -1 0.37142980E+00 0.17946534E+04</pdfrwt>
<totfact> 0.80757085E-01</totfact>
</mgrwt>
</event>
<event>
12    1  0.1556559E-007  0.2430048E+04  0.7818608E-02  0.8428339E-01
          1   -1    0    0  501    0  0.00000000000E+00  0.00000000000E+00  0.23810000137E+04  0.23810000137E+04  0.00000000000E+00 0. -1.
         -1   -1    0    0    0  501 -0.00000000000E+00 -0.00000000000E+00 -0.62002675240E+03  0.62002675240E+03  0.00000000000E+00 0.  1.
         23    2    1    2    0    0  0.12455063777E+03 -0.66696586769E+03  0.17644338179E+04  0.18923274241E+04  0.85557303707E+02 0.  0.
        254    2    1    2    0    0 -0.12455063777E+03  0.66696586769E+03 -0.34605565912E+01  0.11086993420E+04  0.87683859716E+03 0.  0.
        -24    2    4    4    0    0 -0.37563545808E+03  0.74131493333E+03 -0.13789997061E+02  0.83490720434E+03  0.78930653708E+02 0.  0.
         24    2    4    4    0    0  0.25108482032E+03 -0.74349065644E+02  0.10329440470E+02  0.27379213766E+03  0.79272105738E+02 0.  0.
         11    1    3    3    0    0  0.63427876441E+02 -0.44385068437E+03  0.12594457173E+04  0.13368732327E+04  0.00000000000E+00 0. -1.
        -11    1    3    3    0    0  0.61122761324E+02 -0.22311518332E+03  0.50498810064E+03  0.55545419142E+03  0.00000000000E+00 0.  1.
          4    1    6    6  502    0  0.75296067518E+01 -0.23547488155E+02 -0.94176487565E+00  0.24739969630E+02  0.00000000000E+00 0. -1.
          1    1    5    5  503    0 -0.63235251206E+02  0.19344903603E+03 -0.16923232775E+02  0.20422444110E+03  0.00000000000E+00 0. -1.
         -2    1    5    5    0  503 -0.31240020688E+03  0.54786589731E+03  0.31332357145E+01  0.63068276325E+03  0.00000000000E+00 0.  1.
         -3    1    6    6    0  502  0.24355521357E+03 -0.50801577490E+02  0.11271205345E+02  0.24905216803E+03  0.00000000000E+00 0.  1.
<mgrwt>
<rscale>  0 0.24300483E+04</rscale>
<asrwt>0</asrwt>
<pdfrwt beam="1">  1        1 0.36630769E+00 0.24300483E+04</pdfrwt>
<pdfrwt beam="2">  1       -1 0.95388732E-01 0.24300483E+04</pdfrwt>
<totfact> 0.15522247E+00</totfact>
</mgrwt>
</event>
<event>
12    1  0.1556559E-007  0.1299482E+04  0.7818608E-02  0.9029976E-01
         -2   -1    0    0    0  501 -0.00000000000E+00  0.00000000000E+00  0.64074309910E+03  0.64074309910E+03  0.00000000000E+00 0.  1.
          2   -1    0    0  501    0  0.00000000000E+00 -0.00000000000E+00 -0.65886542010E+03  0.65886542010E+03  0.00000000000E+00 0. -1.
         23    2    1    2    0    0 -0.16223315952E+03  0.60523212482E+02  0.26309724091E+03  0.32811785688E+03  0.91970171955E+02 0.  0.
        254    2    1    2    0    0  0.16223315952E+03 -0.60523212482E+02 -0.28121956191E+03  0.97149066233E+03  0.91363395717E+03 0.  0.
        -24    2    4    4    0    0 -0.11485788663E+03  0.37783266962E+03 -0.15509363540E+03  0.43175460903E+03  0.80050898315E+02 0.  0.
         24    2    4    4    0    0  0.27709104615E+03 -0.43835588211E+03 -0.12612592652E+03  0.53973605330E+03  0.80448310458E+02 0.  0.
         11    1    3    3    0    0 -0.99843941062E+02  0.80535927210E+02  0.19673682275E+03  0.23486214162E+03  0.00000000000E+00 0.  1.
        -11    1    3    3    0    0 -0.62389218453E+02 -0.20012714728E+02  0.66360418161E+02  0.93255715259E+02  0.00000000000E+00 0. -1.
          2    1    6    6  502    0  0.14083943542E+03 -0.15052182819E+03 -0.56872899172E+02  0.21383894404E+03  0.00000000000E+00 0. -1.
          3    1    5    5  503    0 -0.11865467496E+03  0.37776652503E+03 -0.15863917806E+03  0.42655933719E+03  0.00000000000E+00 0. -1.
         -4    1    5    5    0  503  0.37967883308E+01  0.66144591939E-01  0.35455426645E+01  0.51952718429E+01  0.00000000000E+00 0.  1.
         -1    1    6    6    0  502  0.13625161073E+03 -0.28783405392E+03 -0.69253027346E+02  0.32589710925E+03  0.00000000000E+00 0.  1.
<mgrwt>
<rscale>  0 0.12994822E+04</rscale>
<asrwt>0</asrwt>
<pdfrwt beam="1">  1        2 0.10136391E+00 0.12994822E+04</pdfrwt>
<pdfrwt beam="2">  1       -2 0.98575862E-01 0.12994822E+04</pdfrwt>
<totfact> 0.37041998E+01</totfact>
</mgrwt>
</event>
<event>
12    1  0.1556559E-007  0.1382197E+04  0.7818608E-02  0.8966807E-01
          1   -1    0    0  501    0  0.00000000000E+00  0.00000000000E+00  0.20871285158E+04  0.20871285158E+04  0.00000000000E+00 0. -1.
         -1   -1    0    0    0  501 -0.00000000000E+00 -0.00000000000E+00 -0.22883951189E+03  0.22883951189E+03  0.00000000000E+00 0.  1.
         23    2    1    2    0    0  0.36092166848E+03 -0.12238710438E+03  0.62812294469E+03  0.74025520886E+03  0.90533344745E+02 0.  0.
        254    2    1    2    0    0 -0.36092166848E+03  0.12238710438E+03  0.12301660592E+04  0.15757128188E+04  0.90792031590E+03 0.  0.
        -24    2    4    4    0    0 -0.64283339653E+03  0.11703955681E+03  0.64812194499E+03  0.92394603653E+03  0.81738542238E+02 0.  0.
         24    2    4    4    0    0  0.28191172805E+03  0.53475475700E+01  0.58204411424E+03  0.65176678230E+03  0.80757469679E+02 0.  0.
         11    1    3    3    0    0  0.33244418204E+03 -0.11756637082E+03  0.61412344922E+03  0.70815859566E+03  0.00000000000E+00 0. -1.
        -11    1    3    3    0    0  0.28477486438E+02 -0.48207335601E+01  0.13999495463E+02  0.32096613203E+02  0.00000000000E+00 0.  1.
          4    1    6    6  502    0  0.22685123781E+03 -0.18439612821E+02  0.40153591147E+03  0.46155453807E+03  0.00000000000E+00 0. -1.
          3    1    5    5  503    0 -0.16242885910E+03  0.65905364693E+02  0.17917105992E+03  0.25065697692E+03  0.00000000000E+00 0. -1.
         -4    1    5    5    0  503 -0.48040453742E+03  0.51134192122E+02  0.46895088506E+03  0.67328905961E+03  0.00000000000E+00 0.  1.
         -3    1    6    6    0  502  0.55060490232E+02  0.23787160391E+02  0.18050820277E+03  0.19021224422E+03  0.00000000000E+00 0.  1.
<mgrwt>
<rscale>  0 0.13821975E+04</rscale>
<asrwt>0</asrwt>
<pdfrwt beam="1">  1        1 0.32109668E+00 0.13821975E+04</pdfrwt>
<pdfrwt beam="2">  1       -1 0.35206080E-01 0.13821975E+04</pdfrwt>
<totfact> 0.19521349E+01</totfact>
</mgrwt>
</event>
<event>
12    1  0.1556559E-007  0.2566825E+04  0.7818608E-02  0.8379558E-01
          1   -1    0    0  501    0  0.00000000000E+00  0.00000000000E+00  0.18794207400E+04  0.18794207400E+04  0.00000000000E+00 0. -1.
         -1   -1    0    0    0  501 -0.00000000000E+00 -0.00000000000E+00 -0.87641270972E+03  0.87641270972E+03  0.00000000000E+00 0.  1.
         23    2    1    2    0    0 -0.54500016598E+03  0.20772802000E+03 -0.59080765459E+03  0.83526323832E+03  0.91841610141E+02 0.  0.
        254    2    1    2    0    0  0.54500016598E+03 -0.20772802000E+03  0.15938156848E+04  0.19205702114E+04  0.89898019350E+03 0.  0.
        -24    2    4    4    0    0 -0.89322568568E+02 -0.29712584854E+03  0.18239577984E+03  0.36849505121E+03  0.79108097787E+02 0.  0.
         24    2    4    4    0    0  0.63432273455E+03  0.89397828536E+02  0.14114199050E+04  0.15520751602E+04  0.80460246210E+02 0.  0.
         13    1    3    3    0    0 -0.90847921781E+02  0.47253395877E+02 -0.60839627514E+02  0.11911208415E+03  0.00000000000E+00 0.  1.
        -13    1    3    3    0    0 -0.45415224420E+03  0.16047462412E+03 -0.52996802708E+03  0.71615115417E+03  0.00000000000E+00 0. -1.
          2    1    6    6  502    0  0.55833622548E+03  0.10035695489E+03  0.12757159562E+04  0.13961597545E+04  0.00000000000E+00 0. -1.
          3    1    5    5  503    0 -0.46518747518E+02 -0.24877267909E+03  0.12579433222E+03  0.28262351945E+03  0.00000000000E+00 0. -1.
         -4    1    5    5    0  503 -0.42803821050E+02 -0.48353169450E+02  0.56601447622E+02  0.85871531751E+02  0.00000000000E+00 0.  1.
         -1    1    6    6    0  502  0.75986509073E+02 -0.10959126356E+02  0.13570394877E+03  0.15591540566E+03  0.00000000000E+00 0.  1.
<mgrwt>
<rscale>  0 0.25668255E+04</rscale>
<asrwt>0</asrwt>
<pdfrwt beam="1">  1        1 0.28914165E+00 0.25668255E+04</pdfrwt>
<pdfrwt beam="2">  1       -1 0.13483273E+00 0.25668255E+04</pdfrwt>
<totfact> 0.14684615E+00</totfact>
</mgrwt>
</event>
<event>
12    1  0.1556559E-007  0.1809917E+04  0.7818608E-02  0.8701043E-01
         -2   -1    0    0    0  501 -0.00000000000E+00  0.00000000000E+00  0.70963781989E+03  0.70963781989E+03  0.00000000000E+00 0.  1.
          2   -1    0    0  501    0  0.00000000000E+00 -0.00000000000E+00 -0.11540393969E+04  0.11540393969E+04  0.00000000000E+00 0. -1.
         23    2    1    2    0    0 -0.44784203570E+03  0.51140575320E+03 -0.20007564349E+03  0.71463885432E+03  0.92628805718E+02 0.  0.
        254    2    1    2    0    0  0.44784203570E+03 -0.51140575320E+03 -0.24432593351E+03  0.11490383624E+04  0.89358584548E+03 0.  0.
        -24    2    4    4    0    0  0.60958303103E+03 -0.11072117335E+03  0.40297675668E+02  0.62594951094E+03  0.79613049399E+02 0.  0.
         24    2    4    4    0    0 -0.16174099533E+03 -0.40068457985E+03 -0.28462360917E+03  0.52308885151E+03  0.76831410061E+02 0.  0.
         11    1    3    3    0    0 -0.40991165534E+03  0.48989175538E+03 -0.20475824683E+03  0.67078121382E+03  0.00000000000E+00 0.  1.
        -11    1    3    3    0    0 -0.37930380361E+02  0.21513997825E+02  0.46826033431E+01  0.43857640506E+02  0.00000000000E+00 0. -1.
          4    1    6    6  502    0 -0.21740334542E+01 -0.75108118321E+02 -0.34997232623E+02  0.82890060626E+02  0.00000000000E+00 0. -1.
          3    1    5    5  503    0  0.16680067150E+03  0.52658296420E+01  0.14110870211E+02  0.16747928121E+03  0.00000000000E+00 0. -1.
         -4    1    5    5    0  503  0.44278235952E+03 -0.11598700299E+03  0.26186805457E+02  0.45847022973E+03  0.00000000000E+00 0.  1.
         -3    1    6    6    0  502 -0.15956696188E+03 -0.32557646153E+03 -0.24962637655E+03  0.44019879088E+03  0.00000000000E+00 0.  1.
<mgrwt>
<rscale>  0 0.18099171E+04</rscale>
<asrwt>0</asrwt>
<pdfrwt beam="1">  1        2 0.17754452E+00 0.18099171E+04</pdfrwt>
<pdfrwt beam="2">  1       -2 0.10917505E+00 0.18099171E+04</pdfrwt>
<totfact> 0.12744593E+01</totfact>
</mgrwt>
</event>
<event>
12    1  0.1558596E-007  0.1888862E+04  0.7818608E-02  0.8660420E-01
          2   -1    0    0  501    0  0.00000000000E+00  0.00000000000E+00  0.10435531876E+04  0.10435531876E+04  0.00000000000E+00 0. -1.
         -2   -1    0    0    0  501 -0.00000000000E+00 -0.00000000000E+00 -0.85472432522E+03  0.85472432522E+03  0.00000000000E+00 0.  1.
         23    2    1    2    0    0  0.22903809213E+03 -0.58406941248E+03  0.44063043194E+03  0.77213402382E+03  0.91870816630E+02 0.  0.
        254    2    1    2    0    0 -0.22903809213E+03  0.58406941248E+03 -0.25180156961E+03  0.11261434890E+04  0.90066619844E+03 0.  0.
        -24    2    4    4    0    0  0.28665764427E+02  0.36097343975E+03 -0.55243988255E+03  0.66543306605E+03  0.80546826743E+02 0.  0.
         24    2    4    4    0    0 -0.25770385655E+03  0.22309597273E+03  0.30063831294E+03  0.46071042290E+03  0.75416230555E+02 0.  0.
         13    1    3    3    0    0  0.12843145330E+03 -0.29097394547E+03  0.27665126134E+03  0.42154050285E+03  0.00000000000E+00 0. -1.
        -13    1    3    3    0    0  0.10060663882E+03 -0.29309546701E+03  0.16397917060E+03  0.35059352097E+03  0.00000000000E+00 0.  1.
          2    1    6    6  502    0 -0.41336915177E+01 -0.59920781549E+01  0.78495850469E+01  0.10705530888E+02  0.00000000000E+00 0. -1.
          3    1    5    5  503    0  0.50928636454E+01  0.10931670410E+03 -0.10570142625E+03  0.15214752895E+03  0.00000000000E+00 0. -1.
         -4    1    5    5    0  503  0.23572900781E+02  0.25165673565E+03 -0.44673845631E+03  0.51328553710E+03  0.00000000000E+00 0.  1.
         -1    1    6    6    0  502 -0.25357016503E+03  0.22908805088E+03  0.29278872790E+03  0.45000489201E+03  0.00000000000E+00 0.  1.
<mgrwt>
<rscale>  0 0.18888624E+04</rscale>
<asrwt>0</asrwt>
<pdfrwt beam="1">  1        2 0.16054665E+00 0.18888624E+04</pdfrwt>
<pdfrwt beam="2">  1       -2 0.13149605E+00 0.18888624E+04</pdfrwt>
<totfact> 0.93444978E+00</totfact>
</mgrwt>
</event>
<event>
12    1  0.1556559E-007  0.1520223E+04  0.7818608E-02  0.8871115E-01
         -1   -1    0    0    0  501 -0.00000000000E+00  0.00000000000E+00  0.10840475514E+04  0.10840475514E+04  0.00000000000E+00 0.  1.
          1   -1    0    0  501    0  0.00000000000E+00 -0.00000000000E+00 -0.53297414017E+03  0.53297414017E+03  0.00000000000E+00 0. -1.
         23    2    1    2    0    0  0.49819071887E+03  0.22571073884E+02  0.15417857018E+03  0.52970005442E+03  0.90042603260E+02 0.  0.
        254    2    1    2    0    0 -0.49819071887E+03 -0.22571073884E+02  0.39689484105E+03  0.10873216372E+04  0.88093097461E+03 0.  0.
        -24    2    4    4    0    0 -0.42221827307E+03 -0.14884004342E+03  0.64422580991E+03  0.78853484694E+03  0.79615840352E+02 0.  0.
         24    2    4    4    0    0 -0.75972445798E+02  0.12626896953E+03 -0.24733096886E+03  0.29878679022E+03  0.79907901138E+02 0.  0.
         11    1    3    3    0    0  0.39969464804E+03  0.15241877424E+02  0.15990891112E+03  0.43076558168E+03  0.00000000000E+00 0.  1.
        -11    1    3    3    0    0  0.98496070830E+02  0.73291964601E+01 -0.57303409384E+01  0.98934472744E+02  0.00000000000E+00 0. -1.
          2    1    6    6  502    0 -0.55528439973E+02  0.10866136802E+03 -0.12961776320E+03  0.17802096810E+03  0.00000000000E+00 0. -1.
          3    1    5    5  503    0 -0.33679401396E+03 -0.14898431384E+03  0.54259739568E+03  0.65577318289E+03  0.00000000000E+00 0. -1.
         -4    1    5    5    0  503 -0.85424259116E+02  0.14427042127E+00  0.10162841424E+03  0.13276166404E+03  0.00000000000E+00 0.  1.
         -3    1    6    6    0  502 -0.20444005825E+02  0.17607601512E+02 -0.11771320566E+03  0.12076582212E+03  0.00000000000E+00 0.  1.
<mgrwt>
<rscale>  0 0.15202228E+04</rscale>
<asrwt>0</asrwt>
<pdfrwt beam="1">  1        1 0.81996022E-01 0.15202228E+04</pdfrwt>
<pdfrwt beam="2">  1       -1 0.16677655E+00 0.15202228E+04</pdfrwt>
<totfact> 0.10178913E+01</totfact>
</mgrwt>
</event>
<event>
12    1  0.1556559E-007  0.1970152E+04  0.7818608E-02  0.8620704E-01
          2   -1    0    0  501    0  0.00000000000E+00  0.00000000000E+00  0.85183453805E+03  0.85183453805E+03  0.00000000000E+00 0. -1.
         -2   -1    0    0    0  501 -0.00000000000E+00 -0.00000000000E+00 -0.11391584309E+04  0.11391584309E+04  0.00000000000E+00 0.  1.
         23    2    1    2    0    0  0.30358282290E+03 -0.56976723493E+02  0.62713664953E+03  0.70906116939E+03  0.11856849234E+03 0.  0.
        254    2    1    2    0    0 -0.30358282290E+03  0.56976723493E+02 -0.91446054240E+03  0.12819317996E+04  0.84362442933E+03 0.  0.
        -24    2    4    4    0    0 -0.23699874462E+03 -0.21365926777E+03 -0.93547602910E+03  0.99165293564E+03  0.80258682282E+02 0.  0.
         24    2    4    4    0    0 -0.66584078277E+02  0.27063599127E+03  0.21015486698E+02  0.29027886394E+03  0.78376583984E+02 0.  0.
         13    1    3    3    0    0  0.26265588684E+03 -0.79227996454E+02  0.46042338779E+03  0.53596164633E+03  0.00000000000E+00 0. -1.
        -13    1    3    3    0    0  0.40926936056E+02  0.22251272961E+02  0.16671326174E+03  0.17309952306E+03  0.00000000000E+00 0.  1.
          4    1    6    6  502    0 -0.27371596834E+02  0.14380237985E+03  0.49450162311E+02  0.15451099416E+03  0.00000000000E+00 0. -1.
          1    1    5    5  503    0 -0.22315202857E+03 -0.19228425247E+03 -0.90607572936E+03  0.95275562919E+03  0.00000000000E+00 0. -1.
         -2    1    5    5    0  503 -0.13846716050E+02 -0.21375015305E+02 -0.29400299733E+02  0.38897306450E+02  0.00000000000E+00 0.  1.
         -3    1    6    6    0  502 -0.39212481443E+02  0.12683361142E+03 -0.28434675612E+02  0.13576786978E+03  0.00000000000E+00 0.  1.
<mgrwt>
<rscale>  0 0.19701518E+04</rscale>
<asrwt>0</asrwt>
<pdfrwt beam="1">  1        2 0.13105147E+00 0.19701518E+04</pdfrwt>
<pdfrwt beam="2">  1       -2 0.17525514E+00 0.19701518E+04</pdfrwt>
<totfact> 0.57641931E+00</totfact>
</mgrwt>
</event>
<event>
12    1  0.1556559E-007  0.1030209E+04  0.7818608E-02  0.9276019E-01
         -2   -1    0    0    0  501 -0.00000000000E+00  0.00000000000E+00  0.67384531862E+03  0.67384531862E+03  0.00000000000E+00 0.  1.
          2   -1    0    0  501    0  0.00000000000E+00 -0.00000000000E+00 -0.39375909862E+03  0.39375909862E+03  0.00000000000E+00 0. -1.
         23    2    1    2    0    0 -0.45320592659E+02  0.84038223684E+02  0.43734839859E+02  0.14054999283E+03  0.93408699315E+02 0.  0.
        254    2    1    2    0    0  0.45320592659E+02 -0.84038223684E+02  0.23635138014E+03  0.92705442441E+03  0.89132011745E+03 0.  0.
        -24    2    4    4    0    0  0.68259224721E+02  0.38585726697E+03  0.20478815472E+03  0.44876346728E+03  0.76846008479E+02 0.  0.
         24    2    4    4    0    0 -0.22938632062E+02 -0.46989549065E+03  0.31563225415E+02  0.47829095714E+03  0.80237456996E+02 0.  0.
         11    1    3    3    0    0 -0.18238886759E+02  0.54131778129E+02 -0.23799638970E+02  0.61881574064E+02  0.00000000000E+00 0. -1.
        -11    1    3    3    0    0 -0.27081705900E+02  0.29906445555E+02  0.67534478829E+02  0.78668418765E+02  0.00000000000E+00 0.  1.
          4    1    6    6  502    0 -0.45421188458E+02 -0.28594292992E+03  0.42580718743E+02  0.29264237756E+03  0.00000000000E+00 0. -1.
          1    1    5    5  503    0  0.45195455018E+02  0.18148987215E+03  0.57066422486E+02  0.19554482715E+03  0.00000000000E+00 0. -1.
         -2    1    5    5    0  503  0.23063769702E+02  0.20436739481E+03  0.14772173223E+03  0.25321864013E+03  0.00000000000E+00 0.  1.
         -3    1    6    6    0  502  0.22482556396E+02 -0.18395256073E+03 -0.11017493327E+02  0.18564857958E+03  0.00000000000E+00 0.  1.
<mgrwt>
<rscale>  0 0.10302092E+04</rscale>
<asrwt>0</asrwt>
<pdfrwt beam="1">  1        2 0.60578323E-01 0.10302092E+04</pdfrwt>
<pdfrwt beam="2">  1       -2 0.10366851E+00 0.10302092E+04</pdfrwt>
<totfact> 0.61163127E+01</totfact>
</mgrwt>
</event>
<event>
12    1  0.1556559E-007  0.2100018E+04  0.7818608E-02  0.8561235E-01
          2   -1    0    0  501    0  0.00000000000E+00  0.00000000000E+00  0.21935748940E+04  0.21935748940E+04  0.00000000000E+00 0. -1.
         -2   -1    0    0    0  501 -0.00000000000E+00 -0.00000000000E+00 -0.50261287616E+03  0.50261287616E+03  0.00000000000E+00 0.  1.
         23    2    1    2    0    0 -0.35434485673E+03  0.14932938195E+03 -0.30749300083E+03  0.50117111219E+03  0.93600194082E+02 0.  0.
        254    2    1    2    0    0  0.35434485673E+03 -0.14932938195E+03  0.19984550186E+04  0.21950166579E+04  0.82244521112E+03 0.  0.
        -24    2    4    4    0    0 -0.50833726118E+02 -0.39557903582E+03  0.68922814820E+03  0.80027130422E+03  0.79573103466E+02 0.  0.
         24    2    4    4    0    0  0.40517858285E+03  0.24624965387E+03  0.13092268704E+04  0.13947453537E+04  0.80193686843E+02 0.  0.
         13    1    3    3    0    0 -0.55851802212E+01 -0.10475329755E+02 -0.63405247448E+01  0.13458418392E+02  0.00000000000E+00 0. -1.
        -13    1    3    3    0    0 -0.34875967651E+03  0.15980471170E+03 -0.30115247608E+03  0.48771269380E+03  0.00000000000E+00 0.  1.
          4    1    6    6  502    0  0.14182468763E+03  0.99073442900E+02  0.37428134000E+03  0.41233034157E+03  0.00000000000E+00 0. -1.
          3    1    5    5  503    0 -0.32441783978E+02 -0.62995387044E+02  0.88448625236E+02  0.11333158184E+03  0.00000000000E+00 0. -1.
         -4    1    5    5    0  503 -0.18391942140E+02 -0.33258364877E+03  0.60077952296E+03  0.68693972237E+03  0.00000000000E+00 0.  1.
         -3    1    6    6    0  502  0.26335389523E+03  0.14717621097E+03  0.93494553042E+03  0.98241501213E+03  0.00000000000E+00 0.  1.
<mgrwt>
<rscale>  0 0.21000181E+04</rscale>
<asrwt>0</asrwt>
<pdfrwt beam="1">  1        2 0.33747306E+00 0.21000181E+04</pdfrwt>
<pdfrwt beam="2">  1       -2 0.77325059E-01 0.21000181E+04</pdfrwt>
<totfact> 0.71582175E+00</totfact>
</mgrwt>
</event>
<event>
12    1  0.1556559E-007  0.2557397E+04  0.7818608E-02  0.8382818E-01
          1   -1    0    0  501    0  0.00000000000E+00  0.00000000000E+00  0.12197332634E+04  0.12197332634E+04  0.00000000000E+00 0. -1.
         -1   -1    0    0    0  501 -0.00000000000E+00 -0.00000000000E+00 -0.13405139084E+04  0.13405139084E+04  0.00000000000E+00 0.  1.
         23    2    1    2    0    0 -0.56764863814E+03  0.71018552420E+03  0.60590255263E+03  0.10963971878E+04  0.91544716039E+02 0.  0.
        254    2    1    2    0    0  0.56764863814E+03 -0.71018552420E+03 -0.72668319766E+03  0.14638499840E+04  0.88780620113E+03 0.  0.
        -24    2    4    4    0    0  0.67502634333E+03 -0.22018424935E+03 -0.61705183367E+03  0.94402611966E+03  0.79313815372E+02 0.  0.
         24    2    4    4    0    0 -0.10737770520E+03 -0.49000127485E+03 -0.10963136399E+03  0.51982386434E+03  0.81034517639E+02 0.  0.
         13    1    3    3    0    0 -0.51858789988E+03  0.67725881474E+03  0.58212603932E+03  0.10327069467E+04  0.00000000000E+00 0. -1.
        -13    1    3    3    0    0 -0.49060738252E+02  0.32926709459E+02  0.23776513318E+02  0.63690241162E+02  0.00000000000E+00 0.  1.
          2    1    6    6  502    0 -0.25068338376E+02 -0.14119339659E+03  0.51798433987E+01  0.14349504384E+03  0.00000000000E+00 0. -1.
          3    1    5    5  503    0  0.10742967756E+03 -0.11982767185E+02 -0.11854931126E+03  0.16043273211E+03  0.00000000000E+00 0. -1.
         -4    1    5    5    0  503  0.56759666577E+03 -0.20820148217E+03 -0.49850252241E+03  0.78359338755E+03  0.00000000000E+00 0.  1.
         -1    1    6    6    0  502 -0.82309366823E+02 -0.34880787826E+03 -0.11481120739E+03  0.37632882050E+03  0.00000000000E+00 0.  1.
<mgrwt>
<rscale>  0 0.25573966E+04</rscale>
<asrwt>0</asrwt>
<pdfrwt beam="1">  1        1 0.18765127E+00 0.25573966E+04</pdfrwt>
<pdfrwt beam="2">  1       -1 0.20623291E+00 0.25573966E+04</pdfrwt>
<totfact> 0.12462335E+00</totfact>
</mgrwt>
</event>
<event>
12    1  0.1556559E-007  0.1976090E+04  0.7818608E-02  0.8617882E-01
          3   -1    0    0  501    0  0.00000000000E+00  0.00000000000E+00  0.24024084481E+04  0.24024084481E+04  0.00000000000E+00 0. -1.
         -3   -1    0    0    0  501 -0.00000000000E+00 -0.00000000000E+00 -0.40635596493E+03  0.40635596493E+03  0.00000000000E+00 0.  1.
         23    2    1    2    0    0  0.25282384927E+03  0.66352384150E+03  0.12603243853E+04  0.14494209660E+04  0.90663076812E+02 0.  0.
        254    2    1    2    0    0 -0.25282384927E+03 -0.66352384150E+03  0.73572809783E+03  0.13593434470E+04  0.89573153678E+03 0.  0.
        -24    2    4    4    0    0 -0.30211971066E+03  0.10346289290E+03  0.39302353719E+03  0.51421314720E+03  0.89256765483E+02 0.  0.
         24    2    4    4    0    0  0.49295861393E+02 -0.76698673440E+03  0.34270456064E+03  0.84513029981E+03  0.78102977342E+02 0.  0.
         11    1    3    3    0    0  0.88566261354E+01  0.86601402287E+02  0.19581355557E+03  0.21429230329E+03  0.00000000000E+00 0.  1.
        -11    1    3    3    0    0  0.24396722313E+03  0.57692243921E+03  0.10645108297E+04  0.12351286627E+04  0.00000000000E+00 0. -1.
          2    1    6    6  502    0 -0.63163753230E+01 -0.25919909177E+02 -0.20851782295E+00  0.26679238532E+02  0.00000000000E+00 0. -1.
          1    1    5    5  503    0 -0.29280404995E+02 -0.83392946161E+00  0.69712637716E+01  0.30110398097E+02  0.00000000000E+00 0. -1.
         -2    1    5    5    0  503 -0.27283930566E+03  0.10429682237E+03  0.38605227342E+03  0.48410274910E+03  0.00000000000E+00 0.  1.
         -1    1    6    6    0  502  0.55612236716E+02 -0.74106682522E+03  0.34291307846E+03  0.81845106128E+03  0.00000000000E+00 0.  1.
<mgrwt>
<rscale>  0 0.19760901E+04</rscale>
<asrwt>0</asrwt>
<pdfrwt beam="1">  1        3 0.36960129E+00 0.19760901E+04</pdfrwt>
<pdfrwt beam="2">  1       -3 0.62516303E-01 0.19760901E+04</pdfrwt>
<totfact> 0.98179996E-02</totfact>
</mgrwt>
</event>
<event>
12    1  0.1556559E-007  0.2602778E+04  0.7818608E-02  0.8367258E-01
         -2   -1    0    0    0  501 -0.00000000000E+00  0.00000000000E+00  0.55251525491E+03  0.55251525491E+03  0.00000000000E+00 0.  1.
          2   -1    0    0  501    0  0.00000000000E+00 -0.00000000000E+00 -0.30652797470E+04  0.30652797470E+04  0.00000000000E+00 0. -1.
         23    2    1    2    0    0  0.90060312518E+03  0.43404749062E+03 -0.33165432294E+03  0.10573168133E+04  0.91875135939E+02 0.  0.
        254    2    1    2    0    0 -0.90060312518E+03 -0.43404749062E+03 -0.21811101692E+04  0.25604781886E+04  0.89404908760E+03 0.  0.
        -24    2    4    4    0    0 -0.45146198830E+02 -0.73335260502E+02  0.60729005725E+02  0.13290529957E+03  0.80991152702E+02 0.  0.
         24    2    4    4    0    0 -0.85545692635E+03 -0.36071223012E+03 -0.22418391749E+04  0.24275728890E+04  0.73125779755E+02 0.  0.
         11    1    3    3    0    0  0.78928926263E+03  0.38943357951E+03 -0.26050581055E+03  0.91787762271E+03  0.00000000000E+00 0.  1.
        -11    1    3    3    0    0  0.11131386256E+03  0.44613911110E+02 -0.71148512395E+02  0.13943919061E+03  0.00000000000E+00 0. -1.
          2    1    6    6  502    0 -0.37375396197E+03 -0.18964423294E+03 -0.10656301786E+04  0.11450871743E+04  0.00000000000E+00 0. -1.
          1    1    5    5  503    0  0.30413066311E+01 -0.65574205758E+02  0.18081083360E+02  0.68089291245E+02  0.00000000000E+00 0. -1.
         -2    1    5    5    0  503 -0.48187505461E+02 -0.77610547445E+01  0.42647922365E+02  0.64816008326E+02  0.00000000000E+00 0.  1.
         -1    1    6    6    0  502 -0.48170296438E+03 -0.17106799718E+03 -0.11762089962E+04  0.12824857147E+04  0.00000000000E+00 0.  1.
<mgrwt>
<rscale>  0 0.26027784E+04</rscale>
<asrwt>0</asrwt>
<pdfrwt beam="1">  1        2 0.47158150E+00 0.26027784E+04</pdfrwt>
<pdfrwt beam="2">  1       -2 0.85002347E-01 0.26027784E+04</pdfrwt>
<totfact> 0.16872124E+00</totfact>
</mgrwt>
</event>
<event>
12    1  0.1556559E-007  0.1540528E+04  0.7818608E-02  0.8857941E-01
         -2   -1    0    0    0  501 -0.00000000000E+00  0.00000000000E+00  0.20467180128E+03  0.20467180128E+03  0.00000000000E+00 0.  1.
          2   -1    0    0  501    0  0.00000000000E+00 -0.00000000000E+00 -0.28988194222E+04  0.28988194222E+04  0.00000000000E+00 0. -1.
         23    2    1    2    0    0 -0.46457256956E+03  0.45029758557E+02 -0.61403028773E+03  0.77565817864E+03  0.82201364319E+02 0.  0.
        254    2    1    2    0    0  0.46457256956E+03 -0.45029758557E+02 -0.20801173331E+04  0.23278330448E+04  0.93491347902E+03 0.  0.
        -24    2    4    4    0    0  0.26102157274E+03  0.38692611792E+03 -0.14957643830E+04  0.15690293098E+04  0.81840107476E+02 0.  0.
         24    2    4    4    0    0  0.20355099682E+03 -0.43195587647E+03 -0.58435295011E+03  0.75880373502E+03  0.79346395403E+02 0.  0.
         13    1    3    3    0    0 -0.10823523822E+01 -0.10197309290E+01  0.25344075383E+01  0.29384620837E+01  0.00000000000E+00 0. -1.
        -13    1    3    3    0    0 -0.46349021718E+03  0.46049489486E+02 -0.61656469527E+03  0.77271971655E+03  0.00000000000E+00 0.  1.
          4    1    6    6  502    0  0.13125966946E+03 -0.33141002459E+03 -0.47292012647E+03  0.59221208299E+03  0.00000000000E+00 0. -1.
          1    1    5    5  503    0  0.90147669167E+02  0.10621163786E+03 -0.33952054506E+03  0.36699007451E+03  0.00000000000E+00 0. -1.
         -2    1    5    5    0  503  0.17087390357E+03  0.28071448005E+03 -0.11562438380E+04  0.12020392353E+04  0.00000000000E+00 0.  1.
         -3    1    6    6    0  502  0.72291327360E+02 -0.10054585188E+03 -0.11143282364E+03  0.16659165203E+03  0.00000000000E+00 0.  1.
<mgrwt>
<rscale>  0 0.15405280E+04</rscale>
<asrwt>0</asrwt>
<pdfrwt beam="1">  1        2 0.44597218E+00 0.15405280E+04</pdfrwt>
<pdfrwt beam="2">  1       -2 0.31487972E-01 0.15405280E+04</pdfrwt>
<totfact> 0.18256915E+01</totfact>
</mgrwt>
</event>
<event>
12    1  0.1556559E-007  0.2392974E+04  0.7818608E-02  0.8442139E-01
         -1   -1    0    0    0  501 -0.00000000000E+00  0.00000000000E+00  0.10007100233E+04  0.10007100233E+04  0.00000000000E+00 0.  1.
          1   -1    0    0  501    0  0.00000000000E+00 -0.00000000000E+00 -0.14305648716E+04  0.14305648716E+04  0.00000000000E+00 0. -1.
         23    2    1    2    0    0 -0.62378203987E+03 -0.14822134214E+03 -0.99427152002E+03  0.11863403984E+04  0.88057287512E+02 0.  0.
        254    2    1    2    0    0  0.62378203987E+03  0.14822134214E+03  0.56441667173E+03  0.12449344964E+04  0.90566115158E+03 0.  0.
        -24    2    4    4    0    0  0.18598657000E+03 -0.34086417539E+03  0.40081548072E+03  0.56391872940E+03  0.81067215922E+02 0.  0.
         24    2    4    4    0    0  0.43779546987E+03  0.48908551753E+03  0.16360119101E+03  0.68101576701E+03  0.78406685436E+02 0.  0.
         13    1    3    3    0    0 -0.60926968586E+02 -0.39592338791E+02 -0.13686171308E+03  0.15495411353E+03  0.00000000000E+00 0.  1.
        -13    1    3    3    0    0 -0.56285507128E+03 -0.10862900335E+03 -0.85740980694E+03  0.10313862849E+04  0.00000000000E+00 0. -1.
          2    1    6    6  502    0 -0.21812036125E+01  0.84321870329E+01  0.60973149114E+01  0.10631870790E+02  0.00000000000E+00 0. -1.
          3    1    5    5  503    0  0.82106602390E+02 -0.10867927143E+03  0.94597225802E+02  0.16583519929E+03  0.00000000000E+00 0. -1.
         -4    1    5    5    0  503  0.10387996761E+03 -0.23218490396E+03  0.30621825492E+03  0.39808353011E+03  0.00000000000E+00 0.  1.
         -1    1    6    6    0  502  0.43997667348E+03  0.48065333049E+03  0.15750387610E+03  0.67038389622E+03  0.00000000000E+00 0.  1.
<mgrwt>
<rscale>  0 0.23929736E+04</rscale>
<asrwt>0</asrwt>
<pdfrwt beam="1">  1        1 0.22008690E+00 0.23929736E+04</pdfrwt>
<pdfrwt beam="2">  1       -1 0.15395539E+00 0.23929736E+04</pdfrwt>
<totfact> 0.21317318E+00</totfact>
</mgrwt>
</event>
<event>
12    1  0.1556559E-007  0.1498049E+04  0.7818608E-02  0.8885751E-01
          3   -1    0    0  501    0  0.00000000000E+00  0.00000000000E+00  0.49777037947E+03  0.49777037947E+03  0.00000000000E+00 0. -1.
         -3   -1    0    0    0  501 -0.00000000000E+00 -0.00000000000E+00 -0.11271020121E+04  0.11271020121E+04  0.00000000000E+00 0.  1.
         23    2    1    2    0    0  0.30560966010E+03  0.38965930820E+03  0.26858365709E+02  0.50433938953E+03  0.91679917176E+02 0.  0.
        254    2    1    2    0    0 -0.30560966010E+03 -0.38965930820E+03 -0.65618999836E+03  0.11205330021E+04  0.76143105658E+03 0.  0.
        -24    2    4    4    0    0  0.24835335851E+03 -0.13921494534E+03 -0.22770256281E+03  0.37280018630E+03  0.77918740371E+02 0.  0.
         24    2    4    4    0    0 -0.55396301861E+03 -0.25044436286E+03 -0.42848743555E+03  0.74773281576E+03  0.76847097912E+02 0.  0.
         11    1    3    3    0    0  0.30895776735E+03  0.36537375169E+03  0.30927677889E+02  0.47948868776E+03  0.00000000000E+00 0. -1.
        -11    1    3    3    0    0 -0.33481072472E+01  0.24285556509E+02 -0.40693121801E+01  0.24850701775E+02  0.00000000000E+00 0.  1.
          4    1    6    6  502    0 -0.52929238585E+03 -0.24797724647E+03 -0.42503080720E+03  0.72269933690E+03  0.00000000000E+00 0. -1.
          3    1    5    5  503    0  0.19990246099E+03 -0.75901135135E+02 -0.14787210330E+03  0.25997718200E+03  0.00000000000E+00 0. -1.
         -4    1    5    5    0  503  0.48450897523E+02 -0.63313810200E+02 -0.79830459515E+02  0.11282300430E+03  0.00000000000E+00 0.  1.
         -3    1    6    6    0  502 -0.24670632762E+02 -0.24671163873E+01 -0.34566283512E+01  0.25033478857E+02  0.00000000000E+00 0.  1.
<mgrwt>
<rscale>  0 0.14980494E+04</rscale>
<asrwt>0</asrwt>
<pdfrwt beam="1">  1        3 0.76580058E-01 0.14980494E+04</pdfrwt>
<pdfrwt beam="2">  1       -3 0.17340031E+00 0.14980494E+04</pdfrwt>
<totfact> 0.88922232E-01</totfact>
</mgrwt>
</event>
<event>
12    1  0.1556559E-007  0.1589837E+04  0.7818608E-02  0.8826816E-01
          3   -1    0    0  501    0  0.00000000000E+00  0.00000000000E+00  0.13517280605E+04  0.13517280605E+04  0.00000000000E+00 0. -1.
         -3   -1    0    0    0  501 -0.00000000000E+00 -0.00000000000E+00 -0.46747205077E+03  0.46747205077E+03  0.00000000000E+00 0.  1.
         23    2    1    2    0    0 -0.12971628289E+02 -0.42239387086E+03 -0.75452731169E+02  0.43895400404E+03  0.91666011919E+02 0.  0.
        254    2    1    2    0    0  0.12971628289E+02  0.42239387086E+03  0.95970874086E+03  0.13802461072E+04  0.89747067020E+03 0.  0.
        -24    2    4    4    0    0 -0.35774899317E+03  0.32836232350E+03  0.83374289793E+03  0.96830234344E+03  0.81707104076E+02 0.  0.
         24    2    4    4    0    0  0.37072062146E+03  0.94031547356E+02  0.12596584292E+03  0.41194376375E+03  0.86916970941E+02 0.  0.
         13    1    3    3    0    0 -0.20459492790E+02 -0.17513725825E+03 -0.74917093882E+02  0.19158345709E+03  0.00000000000E+00 0.  1.
        -13    1    3    3    0    0  0.74878645013E+01 -0.24725661261E+03 -0.53563728791E+00  0.24737054695E+03  0.00000000000E+00 0. -1.
          2    1    6    6  502    0  0.15018886692E+03  0.14132163914E+02  0.12465272749E+02  0.15136643231E+03  0.00000000000E+00 0. -1.
          3    1    5    5  503    0 -0.77137201256E+02  0.84546826356E+02  0.26732294345E+03  0.29079179796E+03  0.00000000000E+00 0. -1.
         -4    1    5    5    0  503 -0.28061179191E+03  0.24381549714E+03  0.56641995448E+03  0.67751054549E+03  0.00000000000E+00 0.  1.
         -1    1    6    6    0  502  0.22053175454E+03  0.79899383442E+02  0.11350057018E+03  0.26057733145E+03  0.00000000000E+00 0.  1.
<mgrwt>
<rscale>  0 0.15898366E+04</rscale>
<asrwt>0</asrwt>
<pdfrwt beam="1">  1        3 0.20795816E+00 0.15898366E+04</pdfrwt>
<pdfrwt beam="2">  1       -3 0.71918778E-01 0.15898366E+04</pdfrwt>
<totfact> 0.60751993E-01</totfact>
</mgrwt>
</event>
<event>
12    1  0.1556559E-007  0.1308210E+04  0.7818608E-02  0.9023080E-01
         -3   -1    0    0    0  501 -0.00000000000E+00  0.00000000000E+00  0.44105559935E+03  0.44105559935E+03  0.00000000000E+00 0.  1.
          3   -1    0    0  501    0  0.00000000000E+00 -0.00000000000E+00 -0.97006602881E+03  0.97006602881E+03  0.00000000000E+00 0. -1.
         23    2    1    2    0    0 -0.38009065869E+03  0.14666359013E+03 -0.21595500360E+03  0.46994757323E+03  0.90747123972E+02 0.  0.
        254    2    1    2    0    0  0.38009065869E+03 -0.14666359013E+03 -0.31305542586E+03  0.94117405493E+03  0.78855930945E+03 0.  0.
        -24    2    4    4    0    0  0.61497621948E+03 -0.13472731648E+03 -0.18427024835E+03  0.66082887956E+03  0.79950505330E+02 0.  0.
         24    2    4    4    0    0 -0.23488556078E+03 -0.11936273647E+02 -0.12878517751E+03  0.28034517537E+03  0.81817443834E+02 0.  0.
         13    1    3    3    0    0 -0.78521795393E+02  0.43516980214E+02 -0.90355847906E+02  0.12737181466E+03  0.00000000000E+00 0.  1.
        -13    1    3    3    0    0 -0.30156886330E+03  0.10314660992E+03 -0.12559915569E+03  0.34257575857E+03  0.00000000000E+00 0. -1.
          2    1    6    6  502    0  0.56368152982E+01  0.43808560240E+01 -0.79389429548E+01  0.10676722411E+02  0.00000000000E+00 0. -1.
          1    1    5    5  503    0  0.68017120739E+02 -0.38567682931E+02 -0.10279969851E+02  0.78863633320E+02  0.00000000000E+00 0. -1.
         -2    1    5    5    0  503  0.54695909874E+03 -0.96159633554E+02 -0.17399027850E+03  0.58196524624E+03  0.00000000000E+00 0.  1.
         -1    1    6    6    0  502 -0.24052237608E+03 -0.16317129672E+02 -0.12084623455E+03  0.26966845296E+03  0.00000000000E+00 0.  1.
<mgrwt>
<rscale>  0 0.13082095E+04</rscale>
<asrwt>0</asrwt>
<pdfrwt beam="1">  1        3 0.14924093E+00 0.13082095E+04</pdfrwt>
<pdfrwt beam="2">  1       -3 0.67854708E-01 0.13082095E+04</pdfrwt>
<totfact> 0.17570109E+00</totfact>
</mgrwt>
</event>
<event>
12    1  0.1556559E-007  0.2475001E+04  0.7818608E-02  0.8411946E-01
         -2   -1    0    0    0  501 -0.00000000000E+00  0.00000000000E+00  0.12563130656E+04  0.12563130656E+04  0.00000000000E+00 0.  1.
          2   -1    0    0  501    0  0.00000000000E+00 -0.00000000000E+00 -0.12189694759E+04  0.12189694759E+04  0.00000000000E+00 0. -1.
         23    2    1    2    0    0  0.31414804562E+03  0.45251994807E+03 -0.90331087075E+03  0.10620438675E+04  0.92213606947E+02 0.  0.
        254    2    1    2    0    0 -0.31414804562E+03 -0.45251994807E+03  0.94065446048E+03  0.14132386740E+04  0.89941616494E+03 0.  0.
        -24    2    4    4    0    0 -0.35574116491E+03 -0.69427142259E+03  0.79470471076E+03  0.11165257275E+04  0.80681709653E+02 0.  0.
         24    2    4    4    0    0  0.41593119283E+02  0.24175147452E+03  0.14594974971E+03  0.29671294650E+03  0.81015308274E+02 0.  0.
         11    1    3    3    0    0  0.26719988859E+03  0.42512167113E+03 -0.83964588180E+03  0.97832991498E+03  0.00000000000E+00 0. -1.
        -11    1    3    3    0    0  0.46948157029E+02  0.27398276945E+02 -0.63664988952E+02  0.83713952519E+02  0.00000000000E+00 0.  1.
          2    1    6    6  502    0  0.34172338297E+02  0.24401610351E+03  0.12911584134E+03  0.27817711617E+03  0.00000000000E+00 0. -1.
          3    1    5    5  503    0 -0.12848544732E+03 -0.26442787829E+03  0.35542868691E+03  0.46125932454E+03  0.00000000000E+00 0. -1.
         -4    1    5    5    0  503 -0.22725571758E+03 -0.42984354430E+03  0.43927602385E+03  0.65526640298E+03  0.00000000000E+00 0.  1.
         -1    1    6    6    0  502  0.74207809863E+01 -0.22646289892E+01  0.16833908369E+02  0.18535830326E+02  0.00000000000E+00 0.  1.
<mgrwt>
<rscale>  0 0.24750008E+04</rscale>
<asrwt>0</asrwt>
<pdfrwt beam="1">  1        2 0.18753377E+00 0.24750008E+04</pdfrwt>
<pdfrwt beam="2">  1       -2 0.19327893E+00 0.24750008E+04</pdfrwt>
<totfact> 0.24302285E+00</totfact>
</mgrwt>
</event>
<event>
12    1  0.1556559E-007  0.2437511E+04  0.7818608E-02  0.8425592E-01
          2   -1    0    0  501    0  0.00000000000E+00  0.00000000000E+00  0.13772839403E+04  0.13772839403E+04  0.00000000000E+00 0. -1.
         -2   -1    0    0    0  501 -0.00000000000E+00 -0.00000000000E+00 -0.10784736553E+04  0.10784736553E+04  0.00000000000E+00 0.  1.
         23    2    1    2    0    0  0.15255152852E+03 -0.52640798679E+03  0.10299902781E+04  0.11703597721E+04  0.92112354190E+02 0.  0.
        254    2    1    2    0    0 -0.15255152852E+03  0.52640798679E+03 -0.73117999317E+03  0.12853978235E+04  0.90401661758E+03 0.  0.
        -24    2    4    4    0    0 -0.21384465751E+03  0.64824289901E+03 -0.17765544823E+03  0.70986417125E+03  0.79983058702E+02 0.  0.
         24    2    4    4    0    0  0.61293128995E+02 -0.12183491222E+03 -0.55352454493E+03  0.57553365226E+03  0.79050424036E+02 0.  0.
         13    1    3    3    0    0  0.34998119446E+01 -0.15984736785E+03  0.30932916782E+03  0.34820678305E+03  0.00000000000E+00 0.  1.
        -13    1    3    3    0    0  0.14905171657E+03 -0.36656061894E+03  0.72066111027E+03  0.82215298906E+03  0.00000000000E+00 0. -1.
          4    1    6    6  502    0  0.27599627273E+02  0.15266460435E+01 -0.13940022025E+03  0.14211436057E+03  0.00000000000E+00 0. -1.
          1    1    5    5  503    0 -0.59476115878E+02  0.19891749212E+03 -0.92053161751E+02  0.22711090159E+03  0.00000000000E+00 0. -1.
         -2    1    5    5    0  503 -0.15436854163E+03  0.44932540689E+03 -0.85602286483E+02  0.48275326967E+03  0.00000000000E+00 0.  1.
         -1    1    6    6    0  502  0.33693501722E+02 -0.12336155826E+03 -0.41412432468E+03  0.43341929169E+03  0.00000000000E+00 0.  1.
<mgrwt>
<rscale>  0 0.24375106E+04</rscale>
<asrwt>0</asrwt>
<pdfrwt beam="1">  1        2 0.21188984E+00 0.24375106E+04</pdfrwt>
<pdfrwt beam="2">  1       -2 0.16591902E+00 0.24375106E+04</pdfrwt>
<totfact> 0.30482403E+00</totfact>
</mgrwt>
</event>
<event>
12    1  0.1859020E-007  0.1884270E+04  0.7818608E-02  0.8662726E-01
         -2   -1    0    0    0  501 -0.00000000000E+00  0.00000000000E+00  0.84721116804E+03  0.84721116804E+03  0.00000000000E+00 0.  1.
          2   -1    0    0  501    0  0.00000000000E+00 -0.00000000000E+00 -0.10476938126E+04  0.10476938126E+04  0.00000000000E+00 0. -1.
         23    2    1    2    0    0  0.14406400318E+03  0.50188725744E+03 -0.57797932826E+03  0.78431073960E+03  0.91858457286E+02 0.  0.
        254    2    1    2    0    0 -0.14406400318E+03 -0.50188725744E+03  0.37749668367E+03  0.11105942411E+04  0.90458308956E+03 0.  0.
        -24    2    4    4    0    0  0.35285531597E+03 -0.26396080263E+03  0.16366802428E+02  0.44795114432E+03  0.78804670816E+02 0.  0.
         24    2    4    4    0    0 -0.49691931914E+03 -0.23792645481E+03  0.36112988124E+03  0.66264309675E+03  0.71716629187E+02 0.  0.
         13    1    3    3    0    0  0.10569540678E+03  0.36616224581E+03 -0.35729384632E+03  0.52240329429E+03  0.00000000000E+00 0.  1.
        -13    1    3    3    0    0  0.38368596399E+02  0.13572501163E+03 -0.22068548194E+03  0.26190744531E+03  0.00000000000E+00 0. -1.
          2    1    6    6  502    0 -0.44168578932E+03 -0.21274081006E+03  0.34609097338E+03  0.60010328329E+03  0.00000000000E+00 0. -1.
          1    1    5    5  503    0  0.30319861948E+03 -0.21709484305E+03 -0.14119215113E+02  0.37317412286E+03  0.00000000000E+00 0. -1.
         -2    1    5    5    0  503  0.49656696488E+02 -0.46865959575E+02  0.30486017540E+02  0.74777021461E+02  0.00000000000E+00 0.  1.
         -1    1    6    6    0  502 -0.55233529822E+02 -0.25185644746E+02  0.15038907862E+02  0.62539813459E+02  0.00000000000E+00 0.  1.
<mgrwt>
<rscale>  0 0.18842695E+04</rscale>
<asrwt>0</asrwt>
<pdfrwt beam="1">  1        2 0.16118366E+00 0.18842695E+04</pdfrwt>
<pdfrwt beam="2">  1       -2 0.13034018E+00 0.18842695E+04</pdfrwt>
<totfact> 0.95025686E+00</totfact>
</mgrwt>
</event>
<event>
12    1  0.1556559E-007  0.4641695E+04  0.7818608E-02  0.7886289E-01
         -1   -1    0    0    0  501 -0.00000000000E+00  0.00000000000E+00  0.12950772244E+04  0.12950772244E+04  0.00000000000E+00 0.  1.
          1   -1    0    0  501    0  0.00000000000E+00 -0.00000000000E+00 -0.41590819527E+04  0.41590819527E+04  0.00000000000E+00 0. -1.
         23    2    1    2    0    0  0.62708928447E+03  0.88268939761E+03 -0.36666077801E+04  0.38241874886E+04  0.89530952599E+02 0.  0.
        254    2    1    2    0    0 -0.62708928447E+03 -0.88268939761E+03  0.80260305180E+03  0.16299716885E+04  0.91665397137E+03 0.  0.
        -24    2    4    4    0    0 -0.60687528594E+03 -0.10597213687E+04  0.70063024966E+03  0.14101289402E+04  0.79207887545E+02 0.  0.
         24    2    4    4    0    0 -0.20213998529E+02  0.17703197106E+03  0.10197280213E+03  0.21984274827E+03  0.78634960897E+02 0.  0.
         13    1    3    3    0    0  0.72477713273E+02  0.15716269077E+03 -0.56018860349E+03  0.58631425172E+03  0.00000000000E+00 0.  1.
        -13    1    3    3    0    0  0.55461157119E+03  0.72552670685E+03 -0.31064191766E+04  0.32378732368E+04  0.00000000000E+00 0. -1.
          2    1    6    6  502    0  0.75394203501E+01  0.92719572375E+02  0.12589413891E+02  0.93873613453E+02  0.00000000000E+00 0. -1.
          1    1    5    5  503    0 -0.23457212064E+02 -0.78397276801E+02  0.39569001596E+02  0.90895982832E+02  0.00000000000E+00 0. -1.
         -2    1    5    5    0  503 -0.58341807387E+03 -0.98132409188E+03  0.66106124807E+03  0.13192329574E+04  0.00000000000E+00 0.  1.
         -1    1    6    6    0  502 -0.27753418879E+02  0.84312398689E+02  0.89383388241E+02  0.12596913481E+03  0.00000000000E+00 0.  1.
<mgrwt>
<rscale>  0 0.46416947E+04</rscale>
<asrwt>0</asrwt>
<pdfrwt beam="1">  1        1 0.63985874E+00 0.46416947E+04</pdfrwt>
<pdfrwt beam="2">  1       -1 0.19924266E+00 0.46416947E+04</pdfrwt>
<totfact> 0.77738960E-03</totfact>
</mgrwt>
</event>
<event>
12    1  0.1556559E-007  0.1813364E+04  0.7818608E-02  0.8699225E-01
          1   -1    0    0  501    0  0.00000000000E+00  0.00000000000E+00  0.19580119586E+04  0.19580119586E+04  0.00000000000E+00 0. -1.
         -1   -1    0    0    0  501 -0.00000000000E+00 -0.00000000000E+00 -0.41985036369E+03  0.41985036369E+03  0.00000000000E+00 0.  1.
         23    2    1    2    0    0  0.43285601852E+03 -0.37087476979E+03  0.97591163445E+02  0.58551954003E+03  0.91633339667E+02 0.  0.
        254    2    1    2    0    0 -0.43285601852E+03  0.37087476979E+03  0.14405704315E+04  0.17923427823E+04  0.90129742789E+03 0.  0.
        -24    2    4    4    0    0 -0.89979564231E+02 -0.33253499026E+02 -0.10070854695E+03  0.16058944231E+03  0.80278517525E+02 0.  0.
         24    2    4    4    0    0 -0.34287645429E+03  0.40412826882E+03  0.15412789785E+04  0.16317533400E+04  0.78702939102E+02 0.  0.
         13    1    3    3    0    0 -0.18615399003E+01  0.15438097637E+01  0.51297254981E+01  0.56712223614E+01  0.00000000000E+00 0. -1.
        -13    1    3    3    0    0  0.43471755842E+03 -0.37241857956E+03  0.92461437947E+02  0.57984831767E+03  0.00000000000E+00 0.  1.
          4    1    6    6  502    0 -0.20794521080E+02  0.60128900143E+02  0.21652190796E+03  0.22567594769E+03  0.00000000000E+00 0. -1.
          1    1    5    5  503    0 -0.17907453923E+02 -0.38350831890E+01 -0.77097273104E+02  0.79242503047E+02  0.00000000000E+00 0. -1.
         -2    1    5    5    0  503 -0.72072110308E+02 -0.29418415837E+02 -0.23611273841E+02  0.81346939260E+02  0.00000000000E+00 0.  1.
         -3    1    6    6    0  502 -0.32208193321E+03  0.34399936868E+03  0.13247570705E+04  0.14060773923E+04  0.00000000000E+00 0.  1.
<mgrwt>
<rscale>  0 0.18133638E+04</rscale>
<asrwt>0</asrwt>
<pdfrwt beam="1">  1        1 0.30123260E+00 0.18133638E+04</pdfrwt>
<pdfrwt beam="2">  1       -1 0.64592365E-01 0.18133638E+04</pdfrwt>
<totfact> 0.72896423E+00</totfact>
</mgrwt>
</event>
<event>
12    1  0.1556559E-007  0.1481248E+04  0.7818608E-02  0.8897019E-01
          2   -1    0    0  501    0  0.00000000000E+00  0.00000000000E+00  0.40630533404E+03  0.40630533404E+03  0.00000000000E+00 0. -1.
         -2   -1    0    0    0  501 -0.00000000000E+00 -0.00000000000E+00 -0.13500288304E+04  0.13500288304E+04  0.00000000000E+00 0.  1.
         23    2    1    2    0    0  0.79329870348E+02 -0.16405621873E+03  0.20220774042E+03  0.28643677990E+03  0.89164944686E+02 0.  0.
        254    2    1    2    0    0 -0.79329870348E+02  0.16405621873E+03 -0.11459312368E+04  0.14698973845E+04  0.90234818689E+03 0.  0.
        -24    2    4    4    0    0  0.44664662130E+02 -0.35737298315E+03 -0.36774698028E+03  0.52149891818E+03  0.83743053587E+02 0.  0.
         24    2    4    4    0    0 -0.12399453248E+03  0.52142920189E+03 -0.77818425652E+03  0.94839846637E+03  0.81399368840E+02 0.  0.
         13    1    3    3    0    0  0.47827817062E+02 -0.62420340284E+02  0.14664172892E+03  0.16639590027E+03  0.00000000000E+00 0. -1.
        -13    1    3    3    0    0  0.31502053286E+02 -0.10163587845E+03  0.55566011505E+02  0.12004087964E+03  0.00000000000E+00 0.  1.
          4    1    6    6  502    0 -0.54525698838E+02  0.37219889182E+03 -0.50992858537E+03  0.63366570767E+03  0.00000000000E+00 0. -1.
          1    1    5    5  503    0 -0.18388365712E+01 -0.18005430600E+03 -0.23051946012E+03  0.29251009542E+03  0.00000000000E+00 0. -1.
         -4    1    5    5    0  503  0.46503498701E+02 -0.17731867715E+03 -0.13722752016E+03  0.22898882276E+03  0.00000000000E+00 0.  1.
         -3    1    6    6    0  502 -0.69468833640E+02  0.14923031007E+03 -0.26825567116E+03  0.31473275870E+03  0.00000000000E+00 0.  1.
<mgrwt>
<rscale>  0 0.14812480E+04</rscale>
<asrwt>0</asrwt>
<pdfrwt beam="1">  1        2 0.62508512E-01 0.14812480E+04</pdfrwt>
<pdfrwt beam="2">  1       -2 0.20769675E+00 0.14812480E+04</pdfrwt>
<totfact> 0.89489831E+00</totfact>
</mgrwt>
</event>
<event>
12    1  0.1556559E-007  0.1177111E+04  0.7818608E-02  0.9133131E-01
          2   -1    0    0  501    0  0.00000000000E+00  0.00000000000E+00  0.78249803703E+03  0.78249803703E+03  0.00000000000E+00 0.  1.
         -2   -1    0    0    0  501 -0.00000000000E+00 -0.00000000000E+00 -0.44268156779E+03  0.44268156779E+03  0.00000000000E+00 0. -1.
         23    2    1    2    0    0 -0.17106274018E+03  0.64269770594E+02  0.16014622565E+03  0.27058260228E+03  0.11905908858E+03 0.  0.
        254    2    1    2    0    0  0.17106274018E+03 -0.64269770594E+02  0.17967024359E+03  0.95459700254E+03  0.91955477071E+03 0.  0.
        -24    2    4    4    0    0 -0.32493149726E+03  0.17083540316E+03  0.13282859586E+03  0.39782831637E+03  0.76542279459E+02 0.  0.
         24    2    4    4    0    0  0.49599423744E+03 -0.23510517375E+03  0.46841647736E+02  0.55676868618E+03  0.80700084538E+02 0.  0.
         13    1    3    3    0    0 -0.16223873180E+03  0.17393703419E+02  0.91746344552E+02  0.18719331920E+03  0.00000000000E+00 0. -1.
        -13    1    3    3    0    0 -0.88240083870E+01  0.46876067175E+02  0.68399881100E+02  0.83389283078E+02  0.00000000000E+00 0.  1.
          2    1    6    6  502    0  0.45292996563E+03 -0.18920713148E+03  0.52063197533E+02  0.49361469681E+03  0.00000000000E+00 0. -1.
          3    1    5    5  503    0 -0.19074216404E+03  0.63878919527E+02  0.49954301554E+02  0.20726437645E+03  0.00000000000E+00 0. -1.
         -4    1    5    5    0  503 -0.13418933322E+03  0.10695648363E+03  0.82874294303E+02  0.19056393992E+03  0.00000000000E+00 0.  1.
         -1    1    6    6    0  502  0.43064271815E+02 -0.45898042268E+02 -0.52215497977E+01  0.63153989370E+02  0.00000000000E+00 0.  1.
<mgrwt>
<rscale>  0 0.11771108E+04</rscale>
<asrwt>0</asrwt>
<pdfrwt beam="1">  1        2 0.12038431E+00 0.11771108E+04</pdfrwt>
<pdfrwt beam="2">  1       -2 0.68104857E-01 0.11771108E+04</pdfrwt>
<totfact> 0.69211388E+01</totfact>
</mgrwt>
</event>
<event>
12    1  0.1556559E-007  0.1500011E+04  0.7818608E-02  0.8884446E-01
         -2   -1    0    0    0  501 -0.00000000000E+00  0.00000000000E+00  0.25728143876E+03  0.25728143876E+03  0.00000000000E+00 0.  1.
          2   -1    0    0  501    0  0.00000000000E+00 -0.00000000000E+00 -0.21863536499E+04  0.21863536499E+04  0.00000000000E+00 0. -1.
         23    2    1    2    0    0 -0.37055082018E+02 -0.39610493526E+02  0.14702238038E+03  0.18124396990E+03  0.91058914946E+02 0.  0.
        254    2    1    2    0    0  0.37055082018E+02  0.39610493526E+02 -0.20760945915E+04  0.22623911187E+04  0.89738662290E+03 0.  0.
        -24    2    4    4    0    0  0.23481150987E+03 -0.32093061128E+03 -0.14722157100E+04  0.15272701943E+04  0.83679431183E+02 0.  0.
         24    2    4    4    0    0 -0.19775642785E+03  0.36054110481E+03 -0.60387888149E+03  0.73512092442E+03  0.81459051102E+02 0.  0.
         13    1    3    3    0    0  0.27589781694E+02 -0.29051509756E+02  0.63794088176E+02  0.75331746025E+02  0.00000000000E+00 0. -1.
        -13    1    3    3    0    0 -0.64644863712E+02 -0.10558983770E+02  0.83228292204E+02  0.10591222387E+03  0.00000000000E+00 0.  1.
          4    1    6    6  502    0 -0.54836462819E+02  0.72578581247E+02 -0.83670186318E+02  0.12359364138E+03  0.00000000000E+00 0. -1.
          1    1    5    5  503    0  0.57549059473E+02 -0.46114170183E+02 -0.38239287869E+03  0.38943898701E+03  0.00000000000E+00 0. -1.
         -2    1    5    5    0  503  0.17726245039E+03 -0.27481644110E+03 -0.10898228313E+04  0.11378312073E+04  0.00000000000E+00 0.  1.
         -3    1    6    6    0  502 -0.14291996503E+03  0.28796252356E+03 -0.52020869517E+03  0.61152728305E+03  0.00000000000E+00 0.  1.
<mgrwt>
<rscale>  0 0.15000110E+04</rscale>
<asrwt>0</asrwt>
<pdfrwt beam="1">  1        2 0.33636208E+00 0.15000110E+04</pdfrwt>
<pdfrwt beam="2">  1       -2 0.39581762E-01 0.15000110E+04</pdfrwt>
<totfact> 0.30690368E+01</totfact>
</mgrwt>
</event>
<event>
12    1  0.1556559E-007  0.1875890E+04  0.7818608E-02  0.8666951E-01
         -1   -1    0    0    0  501 -0.00000000000E+00  0.00000000000E+00  0.27016935232E+03  0.27016935232E+03  0.00000000000E+00 0.  1.
          1   -1    0    0  501    0  0.00000000000E+00 -0.00000000000E+00 -0.32562577138E+04  0.32562577138E+04  0.00000000000E+00 0. -1.
         23    2    1    2    0    0 -0.42216521144E+03  0.54170253847E+03 -0.15452708154E+04  0.16935009114E+04  0.91751501182E+02 0.  0.
        254    2    1    2    0    0  0.42216521144E+03 -0.54170253847E+03 -0.14408175461E+04  0.18329261547E+04  0.90110930618E+03 0.  0.
        -24    2    4    4    0    0 -0.17700279204E+03 -0.23734862600E+03 -0.86370651670E+02  0.31866130567E+03  0.80129767300E+02 0.  0.
         24    2    4    4    0    0  0.59916800348E+03 -0.30435391247E+03 -0.13544468944E+04  0.15142648490E+04  0.82692459840E+02 0.  0.
         11    1    3    3    0    0 -0.94935736942E+02  0.72709834032E+02 -0.22811294144E+03  0.25755587387E+03  0.00000000000E+00 0.  1.
        -11    1    3    3    0    0 -0.32722947450E+03  0.46899270444E+03 -0.13171578740E+04  0.14359450375E+04  0.00000000000E+00 0. -1.
          2    1    6    6  502    0  0.54819399821E+03 -0.26051263505E+03 -0.12571512463E+04  0.13959988355E+04  0.00000000000E+00 0. -1.
          3    1    5    5  503    0 -0.12660681943E+03 -0.20048891182E+03 -0.39036519177E+02  0.24031009200E+03  0.00000000000E+00 0. -1.
         -4    1    5    5    0  503 -0.50395972606E+02 -0.36859714187E+02 -0.47334132492E+02  0.78351213671E+02  0.00000000000E+00 0.  1.
         -1    1    6    6    0  502  0.50974005270E+02 -0.43841277423E+02 -0.97295648081E+02  0.11826601352E+03  0.00000000000E+00 0.  1.
<mgrwt>
<rscale>  0 0.18758902E+04</rscale>
<asrwt>0</asrwt>
<pdfrwt beam="1">  1        1 0.50096277E+00 0.18758902E+04</pdfrwt>
<pdfrwt beam="2">  1       -1 0.41564512E-01 0.18758902E+04</pdfrwt>
<totfact> 0.20597447E+00</totfact>
</mgrwt>
</event>
<event>
12    1  0.1556559E-007  0.1276264E+04  0.7818608E-02  0.9048603E-01
         -1   -1    0    0    0  501 -0.00000000000E+00  0.00000000000E+00  0.98796427862E+03  0.98796427862E+03  0.00000000000E+00 0.  1.
          1   -1    0    0  501    0  0.00000000000E+00 -0.00000000000E+00 -0.41217337226E+03  0.41217337226E+03  0.00000000000E+00 0. -1.
         23    2    1    2    0    0 -0.22870229495E+01 -0.17410816354E+03  0.40531199139E+03  0.45208804519E+03  0.98928798380E+02 0.  0.
        254    2    1    2    0    0  0.22870229495E+01  0.17410816354E+03  0.17047891497E+03  0.94804960569E+03  0.91619654623E+03 0.  0.
        -24    2    4    4    0    0  0.15683970216E+03 -0.66370811471E+02  0.48210984143E+03  0.51770020902E+03  0.81116153945E+02 0.  0.
         24    2    4    4    0    0 -0.15455267921E+03  0.24047897501E+03 -0.31163092645E+03  0.43034939667E+03  0.79812911346E+02 0.  0.
         11    1    3    3    0    0  0.62273514239E+01 -0.20114943694E+02  0.16635197380E+03  0.16767936681E+03  0.00000000000E+00 0. -1.
        -11    1    3    3    0    0 -0.85143743734E+01 -0.15399321985E+03  0.23896001759E+03  0.28440867838E+03  0.00000000000E+00 0.  1.
          2    1    6    6  502    0 -0.11797102149E+02  0.84252607517E+02 -0.94269097311E+02  0.12698163726E+03  0.00000000000E+00 0. -1.
          3    1    5    5  503    0  0.31057929961E+02 -0.21984651715E+02  0.37153362725E+02  0.53181691269E+02  0.00000000000E+00 0. -1.
         -4    1    5    5    0  503  0.12578177220E+03 -0.44386159756E+02  0.44495647870E+03  0.46451851775E+03  0.00000000000E+00 0.  1.
         -1    1    6    6    0  502 -0.14275557706E+03  0.15622636750E+03 -0.21736182914E+03  0.30336775942E+03  0.00000000000E+00 0.  1.
<mgrwt>
<rscale>  0 0.12762642E+04</rscale>
<asrwt>0</asrwt>
<pdfrwt beam="1">  1        1 0.63411288E-01 0.12762642E+04</pdfrwt>
<pdfrwt beam="2">  1       -1 0.15199450E+00 0.12762642E+04</pdfrwt>
<totfact> 0.19098976E+01</totfact>
</mgrwt>
</event>
<event>
12    1  0.1556559E-007  0.1377789E+04  0.7818608E-02  0.8970054E-01
          1   -1    0    0  501    0  0.00000000000E+00  0.00000000000E+00  0.21612131037E+04  0.21612131037E+04  0.00000000000E+00 0. -1.
         -1   -1    0    0    0  501 -0.00000000000E+00 -0.00000000000E+00 -0.21958772913E+03  0.21958772913E+03  0.00000000000E+00 0.  1.
         23    2    1    2    0    0 -0.37716978580E+03 -0.99940707034E+01  0.72606685140E+03  0.82324866687E+03  0.90600033343E+02 0.  0.
        254    2    1    2    0    0  0.37716978580E+03  0.99940707034E+01  0.12155585232E+04  0.15575521659E+04  0.89779134414E+03 0.  0.
        -24    2    4    4    0    0  0.43569936163E+03  0.15476875092E+03  0.12854569546E+04  0.13684638896E+04  0.80663095687E+02 0.  0.
         24    2    4    4    0    0 -0.58529575830E+02 -0.14477468022E+03 -0.69898431471E+02  0.18908827631E+03  0.80518111239E+02 0.  0.
         13    1    3    3    0    0 -0.14630015657E+03  0.94282147937E+01  0.37484142802E+03  0.40249064983E+03  0.00000000000E+00 0. -1.
        -13    1    3    3    0    0 -0.23086962922E+03 -0.19422285497E+02  0.35122542338E+03  0.42075801704E+03  0.00000000000E+00 0.  1.
          4    1    6    6  502    0 -0.59256819517E+02 -0.11204457168E+03 -0.85430993347E+02  0.15285225326E+03  0.00000000000E+00 0. -1.
          3    1    5    5  503    0  0.39055261032E+03  0.14020291727E+03  0.10655151563E+04  0.11434643623E+04  0.00000000000E+00 0. -1.
         -4    1    5    5    0  503  0.45146751309E+02  0.14565833657E+02  0.21994179831E+03  0.22499952735E+03  0.00000000000E+00 0.  1.
         -3    1    6    6    0  502  0.72724368719E+00 -0.32730108538E+02  0.15532561875E+02  0.36236023053E+02  0.00000000000E+00 0.  1.
<mgrwt>
<rscale>  0 0.13777894E+04</rscale>
<asrwt>0</asrwt>
<pdfrwt beam="1">  1        1 0.33249431E+00 0.13777894E+04</pdfrwt>
<pdfrwt beam="2">  1       -1 0.33782729E-01 0.13777894E+04</pdfrwt>
<totfact> 0.18728648E+01</totfact>
</mgrwt>
</event>
<event>
12    1  0.1556559E-007  0.2890712E+04  0.7818608E-02  0.8275646E-01
          2   -1    0    0  501    0  0.00000000000E+00  0.00000000000E+00  0.19866810206E+04  0.19866810206E+04  0.00000000000E+00 0. -1.
         -2   -1    0    0    0  501 -0.00000000000E+00 -0.00000000000E+00 -0.10515297336E+04  0.10515297336E+04  0.00000000000E+00 0.  1.
         23    2    1    2    0    0 -0.58299668785E+03 -0.24361038657E+03 -0.76210868333E+03  0.99411957445E+03  0.90735465010E+02 0.  0.
        254    2    1    2    0    0  0.58299668785E+03  0.24361038657E+03  0.16972599704E+04  0.20440911797E+04  0.94783236147E+03 0.  0.
        -24    2    4    4    0    0 -0.11321627147E+03  0.21050536686E+02 -0.50504260729E+02  0.14792576449E+03  0.77912144299E+02 0.  0.
         24    2    4    4    0    0  0.69621295932E+03  0.22255984988E+03  0.17477642311E+04  0.18961654152E+04  0.80734768415E+02 0.  0.
         13    1    3    3    0    0 -0.12395088246E+03 -0.70235336621E+02 -0.12196382882E+03  0.18754199347E+03  0.00000000000E+00 0. -1.
        -13    1    3    3    0    0 -0.45904580539E+03 -0.17337504994E+03 -0.64014485451E+03  0.80657758098E+03  0.00000000000E+00 0.  1.
          4    1    6    6  502    0  0.66324027606E+03  0.20788518149E+03  0.16074714350E+04  0.17513047498E+04  0.00000000000E+00 0. -1.
          3    1    5    5  503    0 -0.12189387705E+03  0.83155622382E+01 -0.37617313892E+02  0.12783711567E+03  0.00000000000E+00 0. -1.
         -4    1    5    5    0  503  0.86776055828E+01  0.12734974448E+02 -0.12886946838E+02  0.20088648826E+02  0.00000000000E+00 0.  1.
         -3    1    6    6    0  502  0.32972683261E+02  0.14674668389E+02  0.14029279616E+03  0.14486066543E+03  0.00000000000E+00 0.  1.
<mgrwt>
<rscale>  0 0.28907121E+04</rscale>
<asrwt>0</asrwt>
<pdfrwt beam="1">  1        2 0.30564323E+00 0.28907121E+04</pdfrwt>
<pdfrwt beam="2">  1       -2 0.16177381E+00 0.28907121E+04</pdfrwt>
<totfact> 0.14348754E+00</totfact>
</mgrwt>
</event>
<event>
12    1  0.1651092E-007  0.2720497E+04  0.7818608E-02  0.8328385E-01
         -1   -1    0    0    0  501 -0.00000000000E+00  0.00000000000E+00  0.66233856249E+03  0.66233856249E+03  0.00000000000E+00 0.  1.
          1   -1    0    0  501    0  0.00000000000E+00 -0.00000000000E+00 -0.27935504298E+04  0.27935504298E+04  0.00000000000E+00 0. -1.
         23    2    1    2    0    0 -0.94720850166E+03 -0.50318286810E+03 -0.16687236694E+04  0.19858126490E+04  0.91740110723E+02 0.  0.
        254    2    1    2    0    0  0.94720850166E+03  0.50318286810E+03 -0.46248819794E+03  0.14700763433E+04  0.89265456783E+03 0.  0.
        -24    2    4    4    0    0  0.91542299499E+03  0.33357556543E+03 -0.67256506217E+03  0.11865184282E+04  0.78805456005E+02 0.  0.
         24    2    4    4    0    0  0.31785506675E+02  0.16960730266E+03  0.21007686423E+03  0.28355791512E+03  0.80596816266E+02 0.  0.
         13    1    3    3    0    0 -0.87182027637E+03 -0.45394687264E+03 -0.14793644758E+04  0.17761355831E+04  0.00000000000E+00 0. -1.
        -13    1    3    3    0    0 -0.75388225290E+02 -0.49235995459E+02 -0.18935919358E+03  0.20967706588E+03  0.00000000000E+00 0.  1.
          2    1    6    6  502    0  0.12433870397E+02  0.17058982953E+03  0.19031930082E+03  0.25588459769E+03  0.00000000000E+00 0. -1.
          3    1    5    5  503    0  0.83708898953E+03  0.30051128556E+03 -0.58546409377E+03  0.10647972644E+04  0.00000000000E+00 0. -1.
         -2    1    5    5    0  503  0.78334005461E+02  0.33064279877E+02 -0.87100968398E+02  0.12172116378E+03  0.00000000000E+00 0.  1.
         -1    1    6    6    0  502  0.19351636278E+02 -0.98252686500E+00  0.19757563414E+02  0.27673317433E+02  0.00000000000E+00 0.  1.
<mgrwt>
<rscale>  0 0.27204971E+04</rscale>
<asrwt>0</asrwt>
<pdfrwt beam="1">  1        1 0.42977699E+00 0.27204971E+04</pdfrwt>
<pdfrwt beam="2">  1       -1 0.10189824E+00 0.27204971E+04</pdfrwt>
<totfact> 0.66973434E-01</totfact>
</mgrwt>
</event>
<event>
12    1  0.1556559E-007  0.1510769E+04  0.7818608E-02  0.8877323E-01
          2   -1    0    0  501    0  0.00000000000E+00  0.00000000000E+00  0.24122825572E+04  0.24122825572E+04  0.00000000000E+00 0. -1.
         -2   -1    0    0    0  501 -0.00000000000E+00 -0.00000000000E+00 -0.23654170779E+03  0.23654170779E+03  0.00000000000E+00 0.  1.
         23    2    1    2    0    0  0.20798488068E+03  0.81602847685E+02  0.14444104288E+04  0.14653509625E+04  0.10495342483E+03 0.  0.
        254    2    1    2    0    0 -0.20798488068E+03 -0.81602847685E+02  0.73133042067E+03  0.11834733025E+04  0.90324312237E+03 0.  0.
        -24    2    4    4    0    0 -0.48058671025E+03  0.20218923003E+03  0.37175370173E+03  0.64517688144E+03  0.78792910758E+02 0.  0.
         24    2    4    4    0    0  0.27260182958E+03 -0.28379207771E+03  0.35957671893E+03  0.53829642102E+03  0.74952779945E+02 0.  0.
         13    1    3    3    0    0 -0.52122422696E+01 -0.59761302649E+01  0.11183065747E+02  0.13709214490E+02  0.00000000000E+00 0.  1.
        -13    1    3    3    0    0  0.21319712294E+03  0.87578977950E+02  0.14332273630E+04  0.14516417481E+04  0.00000000000E+00 0. -1.
          2    1    6    6  502    0  0.26391421929E+03 -0.28749978242E+03  0.34482289459E+03  0.52077794564E+03  0.00000000000E+00 0. -1.
          3    1    5    5  503    0 -0.31384524946E+03  0.97690698646E+02  0.20623188014E+03  0.38803853107E+03  0.00000000000E+00 0. -1.
         -4    1    5    5    0  503 -0.16674146080E+03  0.10449853138E+03  0.16552182159E+03  0.25713835037E+03  0.00000000000E+00 0.  1.
         -3    1    6    6    0  502  0.86876102850E+01  0.37077047075E+01  0.14753824347E+02  0.17518475377E+02  0.00000000000E+00 0.  1.
<mgrwt>
<rscale>  0 0.15107686E+04</rscale>
<asrwt>0</asrwt>
<pdfrwt beam="1">  1        2 0.37112038E+00 0.15107686E+04</pdfrwt>
<pdfrwt beam="2">  1       -2 0.36391033E-01 0.15107686E+04</pdfrwt>
<totfact> 0.26898609E+01</totfact>
</mgrwt>
</event>
<event>
12    1  0.1556559E-007  0.1696204E+04  0.7818608E-02  0.8763532E-01
          2   -1    0    0  501    0  0.00000000000E+00  0.00000000000E+00  0.11932270557E+04  0.11932270557E+04  0.00000000000E+00 0. -1.
         -2   -1    0    0    0  501 -0.00000000000E+00 -0.00000000000E+00 -0.60280009141E+03  0.60280009141E+03  0.00000000000E+00 0.  1.
         23    2    1    2    0    0 -0.27204798508E+03  0.66528087362E+02 -0.35555461061E+03  0.46098309902E+03  0.87465672515E+02 0.  0.
        254    2    1    2    0    0  0.27204798508E+03 -0.66528087362E+02  0.94598157487E+03  0.13350440481E+04  0.89945838019E+03 0.  0.
        -24    2    4    4    0    0 -0.28382971326E+03 -0.18923208376E+03  0.24165219618E+03  0.42573207043E+03  0.80522817998E+02 0.  0.
         24    2    4    4    0    0  0.55587769833E+03  0.12270399640E+03  0.70432937869E+03  0.90931197764E+03  0.81927484803E+02 0.  0.
         13    1    3    3    0    0 -0.73968720085E+02  0.50064287095E+02 -0.15322174064E+03  0.17735474676E+03  0.00000000000E+00 0. -1.
        -13    1    3    3    0    0 -0.19807926499E+03  0.16463800267E+02 -0.20233286997E+03  0.28362835227E+03  0.00000000000E+00 0.  1.
          2    1    6    6  502    0 -0.28263244678E+01  0.14522075013E+01  0.22089604580E+01  0.38699512825E+01  0.00000000000E+00 0. -1.
          3    1    5    5  503    0 -0.19728398198E+03 -0.17283055802E+03  0.18598281456E+03  0.32152912566E+03  0.00000000000E+00 0. -1.
         -4    1    5    5    0  503 -0.86545731277E+02 -0.16401525733E+02  0.55669381623E+02  0.10420294477E+03  0.00000000000E+00 0.  1.
         -1    1    6    6    0  502  0.55870402280E+03  0.12125178889E+03  0.70212041823E+03  0.90544202636E+03  0.00000000000E+00 0.  1.
<mgrwt>
<rscale>  0 0.16962044E+04</rscale>
<asrwt>0</asrwt>
<pdfrwt beam="1">  1        2 0.18357339E+00 0.16962044E+04</pdfrwt>
<pdfrwt beam="2">  1       -2 0.92738476E-01 0.16962044E+04</pdfrwt>
<totfact> 0.17943863E+01</totfact>
</mgrwt>
</event>
<event>
12    1  0.1556559E-007  0.2922715E+04  0.7818608E-02  0.8266151E-01
         -1   -1    0    0    0  501 -0.00000000000E+00  0.00000000000E+00  0.72028863106E+03  0.72028863106E+03  0.00000000000E+00 0.  1.
          1   -1    0    0  501    0  0.00000000000E+00 -0.00000000000E+00 -0.29648758044E+04  0.29648758044E+04  0.00000000000E+00 0. -1.
         23    2    1    2    0    0  0.57054292354E+03 -0.11264201440E+04 -0.53835329808E+03  0.13757893524E+04  0.92900486442E+02 0.  0.
        254    2    1    2    0    0 -0.57054292354E+03  0.11264201440E+04 -0.17062338752E+04  0.23093750830E+04  0.90974593633E+03 0.  0.
        -24    2    4    4    0    0 -0.50508452277E+03  0.90696105967E+03 -0.65504381971E+03  0.12303558937E+04  0.83692775243E+02 0.  0.
         24    2    4    4    0    0 -0.65458400770E+02  0.21945908430E+03 -0.10511900555E+04  0.10790191893E+04  0.82672764960E+02 0.  0.
         11    1    3    3    0    0  0.28922766836E+02 -0.55119511655E+02 -0.57576438279E+01  0.62512698462E+02  0.00000000000E+00 0. -1.
        -11    1    3    3    0    0  0.54162015671E+03 -0.10713006323E+04 -0.53259565426E+03  0.13132766540E+04  0.00000000000E+00 0.  1.
          4    1    6    6  502    0 -0.37839388810E+02  0.16005970403E+03 -0.56552331441E+03  0.58895462248E+03  0.00000000000E+00 0. -1.
          1    1    5    5  503    0 -0.30684141236E+03  0.57128500139E+03 -0.45504962184E+03  0.79220474846E+03  0.00000000000E+00 0. -1.
         -2    1    5    5    0  503 -0.19824311042E+03  0.33567605827E+03 -0.19999419787E+03  0.43815114528E+03  0.00000000000E+00 0.  1.
         -3    1    6    6    0  502 -0.27619011959E+02  0.59399380268E+02 -0.48566674109E+03  0.49006456677E+03  0.00000000000E+00 0.  1.
<mgrwt>
<rscale>  0 0.29227154E+04</rscale>
<asrwt>0</asrwt>
<pdfrwt beam="1">  1        1 0.45613474E+00 0.29227154E+04</pdfrwt>
<pdfrwt beam="2">  1       -1 0.11081364E+00 0.29227154E+04</pdfrwt>
<totfact> 0.40707426E-01</totfact>
</mgrwt>
</event>
<event>
12    1  0.1556559E-007  0.2578091E+04  0.7818608E-02  0.8375681E-01
          2   -1    0    0  501    0  0.00000000000E+00  0.00000000000E+00  0.25424343091E+04  0.25424343091E+04  0.00000000000E+00 0. -1.
         -2   -1    0    0    0  501 -0.00000000000E+00 -0.00000000000E+00 -0.65356198614E+03  0.65356198614E+03  0.00000000000E+00 0.  1.
         23    2    1    2    0    0 -0.51578153353E+03  0.46813608469E+03 -0.26859889115E+03  0.75222908626E+03  0.92310615650E+02 0.  0.
        254    2    1    2    0    0  0.51578153353E+03 -0.46813608469E+03  0.21574712141E+04  0.24437672090E+04  0.91221387175E+03 0.  0.
        -24    2    4    4    0    0  0.51342134520E+03  0.13273842849E+03  0.11238587319E+04  0.12452650135E+04  0.80034594660E+02 0.  0.
         24    2    4    4    0    0  0.23601883249E+01 -0.60087451318E+03  0.10336124822E+04  0.11985021955E+04  0.83648061642E+02 0.  0.
         11    1    3    3    0    0 -0.28288811723E+02  0.42956119672E+02 -0.43373775102E+02  0.67281271187E+02  0.00000000000E+00 0. -1.
        -11    1    3    3    0    0 -0.48749272181E+03  0.42517996502E+03 -0.22522511605E+03  0.68494781507E+03  0.00000000000E+00 0.  1.
          4    1    6    6  502    0 -0.10056557194E+02 -0.35697242455E+03  0.53417293738E+03  0.64255052195E+03  0.00000000000E+00 0. -1.
          3    1    5    5  503    0  0.21738065507E+03  0.93101610037E+02  0.53731760631E+03  0.58705405973E+03  0.00000000000E+00 0. -1.
         -4    1    5    5    0  503  0.29604069013E+03  0.39636818452E+02  0.58654112560E+03  0.65821095373E+03  0.00000000000E+00 0.  1.
         -3    1    6    6    0  502  0.12416745519E+02 -0.24390208863E+03  0.49943954482E+03  0.55595167356E+03  0.00000000000E+00 0.  1.
<mgrwt>
<rscale>  0 0.25780911E+04</rscale>
<asrwt>0</asrwt>
<pdfrwt beam="1">  1        2 0.39114373E+00 0.25780911E+04</pdfrwt>
<pdfrwt beam="2">  1       -2 0.10054800E+00 0.25780911E+04</pdfrwt>
<totfact> 0.23757472E+00</totfact>
</mgrwt>
</event>
<event>
12    1  0.1556559E-007  0.1101873E+04  0.7818608E-02  0.9203369E-01
         -2   -1    0    0    0  501 -0.00000000000E+00  0.00000000000E+00  0.10040947050E+04  0.10040947050E+04  0.00000000000E+00 0.  1.
          2   -1    0    0  501    0  0.00000000000E+00 -0.00000000000E+00 -0.30229301423E+03  0.30229301423E+03  0.00000000000E+00 0. -1.
         23    2    1    2    0    0 -0.12724905972E+03 -0.70338116544E+02  0.12759912273E+02  0.16860393490E+03  0.84407924170E+02 0.  0.
        254    2    1    2    0    0  0.12724905972E+03  0.70338116544E+02  0.68904177847E+03  0.11377837843E+04  0.89366302011E+03 0.  0.
        -24    2    4    4    0    0  0.13913934592E+02 -0.36285804851E+03  0.84260374767E+02  0.38117931840E+03  0.79613447851E+02 0.  0.
         24    2    4    4    0    0  0.11333512513E+03  0.43319616506E+03  0.60478140370E+03  0.75660446590E+03  0.78651150974E+02 0.  0.
         11    1    3    3    0    0 -0.17800588601E+02 -0.32255264167E+02  0.34758187976E+02  0.50649725097E+02  0.00000000000E+00 0.  1.
        -11    1    3    3    0    0 -0.10944847112E+03 -0.38082852378E+02 -0.21998275703E+02  0.11795420980E+03  0.00000000000E+00 0. -1.
          2    1    6    6  502    0  0.11272369126E+03  0.39316321465E+03  0.57933902051E+03  0.70916686655E+03  0.00000000000E+00 0. -1.
          1    1    5    5  503    0  0.18146733883E+02 -0.29758141450E+03  0.98969753657E+02  0.31413216063E+03  0.00000000000E+00 0. -1.
         -2    1    5    5    0  503 -0.42327992909E+01 -0.65276634013E+02 -0.14709378890E+02  0.67047157771E+02  0.00000000000E+00 0.  1.
         -1    1    6    6    0  502  0.61143387109E+00  0.40032950409E+02  0.25442383187E+02  0.47437599349E+02  0.00000000000E+00 0.  1.
<mgrwt>
<rscale>  0 0.11018726E+04</rscale>
<asrwt>0</asrwt>
<pdfrwt beam="1">  1        2 0.46506618E-01 0.11018726E+04</pdfrwt>
<pdfrwt beam="2">  1       -2 0.15447611E+00 0.11018726E+04</pdfrwt>
<totfact> 0.29905727E+01</totfact>
</mgrwt>
</event>
<event>
12    1  0.1556559E-007  0.1521479E+04  0.7818608E-02  0.8870294E-01
         -1   -1    0    0    0  501 -0.00000000000E+00  0.00000000000E+00  0.17330695999E+04  0.17330695999E+04  0.00000000000E+00 0.  1.
          1   -1    0    0  501    0  0.00000000000E+00 -0.00000000000E+00 -0.33393023807E+03  0.33393023807E+03  0.00000000000E+00 0. -1.
         23    2    1    2    0    0  0.21354878811E+03 -0.41411660591E+03  0.66391933074E+03  0.81620296290E+03  0.91119431142E+02 0.  0.
        254    2    1    2    0    0 -0.21354878811E+03  0.41411660591E+03  0.73522003111E+03  0.12507968751E+04  0.89824756074E+03 0.  0.
        -24    2    4    4    0    0  0.49994032713E+02  0.40952120903E+03  0.85312361937E+03  0.95109722363E+03  0.80987621993E+02 0.  0.
         24    2    4    4    0    0 -0.26354282083E+03  0.45953968828E+01 -0.11790358826E+03  0.29969965145E+03  0.80266362033E+02 0.  0.
         11    1    3    3    0    0  0.68612709390E+02 -0.18417302590E+03  0.21403434149E+03  0.29058235785E+03  0.00000000000E+00 0. -1.
        -11    1    3    3    0    0  0.14493607872E+03 -0.22994358001E+03  0.44988498925E+03  0.52562060505E+03  0.00000000000E+00 0.  1.
          2    1    6    6  502    0 -0.24402730506E+03  0.10777688041E+02 -0.80726768063E+02  0.25725919859E+03  0.00000000000E+00 0. -1.
          1    1    5    5  503    0  0.60490092128E+02  0.35340866443E+03  0.67896923680E+03  0.76782547487E+03  0.00000000000E+00 0. -1.
         -2    1    5    5    0  503 -0.10496059416E+02  0.56112544604E+02  0.17415438257E+03  0.18327174876E+03  0.00000000000E+00 0.  1.
         -1    1    6    6    0  502 -0.19515515764E+02 -0.61822911579E+01 -0.37176820196E+02  0.42440452865E+02  0.00000000000E+00 0.  1.
<mgrwt>
<rscale>  0 0.15214787E+04</rscale>
<asrwt>0</asrwt>
<pdfrwt beam="1">  1        1 0.51373884E-01 0.15214787E+04</pdfrwt>
<pdfrwt beam="2">  1       -1 0.26662609E+00 0.15214787E+04</pdfrwt>
<totfact> 0.40024137E+00</totfact>
</mgrwt>
</event>
<event>
12    1  0.1556559E-007  0.1266394E+04  0.7818608E-02  0.9056648E-01
          2   -1    0    0  501    0  0.00000000000E+00  0.00000000000E+00  0.19198549116E+04  0.19198549116E+04  0.00000000000E+00 0. -1.
         -2   -1    0    0    0  501 -0.00000000000E+00 -0.00000000000E+00 -0.20883793646E+03  0.20883793646E+03  0.00000000000E+00 0.  1.
         23    2    1    2    0    0  0.26705906898E+03 -0.78327809192E+02  0.64238267656E+03  0.70506752273E+03  0.83719271677E+02 0.  0.
        254    2    1    2    0    0 -0.26705906898E+03  0.78327809192E+02  0.10686342986E+04  0.14236253253E+04  0.89848428522E+03 0.  0.
        -24    2    4    4    0    0 -0.53543344257E+03  0.66800680696E+02  0.33884374272E+03  0.64207255247E+03  0.79314426793E+02 0.  0.
         24    2    4    4    0    0  0.26837437359E+03  0.11527128497E+02  0.72979055586E+03  0.78155277285E+03  0.77928186417E+02 0.  0.
         13    1    3    3    0    0  0.46598912020E+02 -0.32302574009E+02  0.21035052913E+03  0.21785834847E+03  0.00000000000E+00 0. -1.
        -13    1    3    3    0    0  0.22046015696E+03 -0.46025235183E+02  0.43203214743E+03  0.48720917427E+03  0.00000000000E+00 0.  1.
          4    1    6    6  502    0  0.27200862122E+03  0.50005658601E+01  0.70541397900E+03  0.75605725805E+03  0.00000000000E+00 0. -1.
          1    1    5    5  503    0 -0.45952756364E+03  0.46192697783E+02  0.31790100146E+03  0.56067851198E+03  0.00000000000E+00 0. -1.
         -2    1    5    5    0  503 -0.75905878927E+02  0.20607982913E+02  0.20942741263E+02  0.81394040488E+02  0.00000000000E+00 0.  1.
         -3    1    6    6    0  502 -0.36342476321E+01  0.65265626365E+01  0.24376576860E+02  0.25495514804E+02  0.00000000000E+00 0.  1.
<mgrwt>
<rscale>  0 0.12663942E+04</rscale>
<asrwt>0</asrwt>
<pdfrwt beam="1">  1        2 0.29536228E+00 0.12663942E+04</pdfrwt>
<pdfrwt beam="2">  1       -2 0.32128915E-01 0.12663942E+04</pdfrwt>
<totfact> 0.65606992E+01</totfact>
</mgrwt>
</event>
<event>
12    1  0.1556559E-007  0.1161660E+04  0.7818608E-02  0.9147094E-01
         -2   -1    0    0    0  501 -0.00000000000E+00  0.00000000000E+00  0.15897743772E+03  0.15897743772E+03  0.00000000000E+00 0.  1.
          2   -1    0    0  501    0  0.00000000000E+00 -0.00000000000E+00 -0.21220834331E+04  0.21220834331E+04  0.00000000000E+00 0. -1.
         23    2    1    2    0    0 -0.98345100313E+02  0.19340504598E+03 -0.47932648371E+03  0.53303875184E+03  0.85435135692E+02 0.  0.
        254    2    1    2    0    0  0.98345100313E+02 -0.19340504598E+03 -0.14837795117E+04  0.17480221190E+04  0.89827747306E+03 0.  0.
        -24    2    4    4    0    0  0.21455358783E+03 -0.44878129255E+03 -0.13212423634E+04  0.14140226245E+04  0.79628569371E+02 0.  0.
         24    2    4    4    0    0 -0.11620848752E+03  0.25537624656E+03 -0.16253714827E+03  0.33399949452E+03  0.80099300164E+02 0.  0.
         11    1    3    3    0    0 -0.89945602737E+01  0.36646448172E+02 -0.17686934886E+03  0.18084974660E+03  0.00000000000E+00 0. -1.
        -11    1    3    3    0    0 -0.89350540039E+02  0.15675859781E+03 -0.30245713486E+03  0.35218900525E+03  0.00000000000E+00 0.  1.
          4    1    6    6  502    0 -0.11963376915E+02 -0.28363236639E+01 -0.13130410195E+02  0.17988184762E+02  0.00000000000E+00 0. -1.
          1    1    5    5  503    0  0.20889879443E+02 -0.97165288205E+02 -0.32808528733E+03  0.34280816218E+03  0.00000000000E+00 0. -1.
         -2    1    5    5    0  503  0.19366370839E+03 -0.35161600434E+03 -0.99315707607E+03  0.10712144623E+04  0.00000000000E+00 0.  1.
         -3    1    6    6    0  502 -0.10424511061E+03  0.25821257023E+03 -0.14940673808E+03  0.31601130975E+03  0.00000000000E+00 0.  1.
<mgrwt>
<rscale>  0 0.11616598E+04</rscale>
<asrwt>0</asrwt>
<pdfrwt beam="1">  1        2 0.32647435E+00 0.11616598E+04</pdfrwt>
<pdfrwt beam="2">  1       -2 0.24458070E-01 0.11616598E+04</pdfrwt>
<totfact> 0.84553046E+01</totfact>
</mgrwt>
</event>
<event>
12    1  0.1556559E-007  0.2045362E+04  0.7818608E-02  0.8585701E-01
          2   -1    0    0  501    0  0.00000000000E+00  0.00000000000E+00  0.40113378263E+04  0.40113378263E+04  0.00000000000E+00 0. -1.
         -2   -1    0    0    0  501 -0.00000000000E+00 -0.00000000000E+00 -0.26073016802E+03  0.26073016802E+03  0.00000000000E+00 0.  1.
         23    2    1    2    0    0 -0.72156438893E+03 -0.25198958962E+03  0.20356614198E+04  0.21763293864E+04  0.91314080249E+02 0.  0.
        254    2    1    2    0    0  0.72156438893E+03  0.25198958962E+03  0.17149462384E+04  0.20957386079E+04  0.93108849810E+03 0.  0.
        -24    2    4    4    0    0  0.33778853119E+03  0.56608035697E+03  0.12300054977E+04  0.13976977750E+04  0.78086384823E+02 0.  0.
         24    2    4    4    0    0  0.38377585775E+03 -0.31409076735E+03  0.48494074068E+03  0.69804083287E+03  0.78463770352E+02 0.  0.
         11    1    3    3    0    0 -0.39622659336E+03 -0.11249804047E+03  0.12026402447E+04  0.12712178730E+04  0.00000000000E+00 0.  1.
        -11    1    3    3    0    0 -0.32533779558E+03 -0.13949154915E+03  0.83302117511E+03  0.90511151340E+03  0.00000000000E+00 0. -1.
          2    1    6    6  502    0  0.11133476031E+03 -0.75224342856E+02  0.88097378157E+02  0.16067133736E+03  0.00000000000E+00 0. -1.
          1    1    5    5  503    0  0.25237436450E+02  0.92766001753E+02  0.19750782784E+03  0.21966292663E+03  0.00000000000E+00 0. -1.
         -2    1    5    5    0  503  0.31255109474E+03  0.47331435522E+03  0.10324976699E+04  0.11780348484E+04  0.00000000000E+00 0.  1.
         -1    1    6    6    0  502  0.27244109744E+03 -0.23886642449E+03  0.39684336252E+03  0.53736949551E+03  0.00000000000E+00 0.  1.
<mgrwt>
<rscale>  0 0.20453623E+04</rscale>
<asrwt>0</asrwt>
<pdfrwt beam="1">  1        2 0.61712885E+00 0.20453623E+04</pdfrwt>
<pdfrwt beam="2">  1       -2 0.40112336E-01 0.20453623E+04</pdfrwt>
<totfact> 0.18417121E+00</totfact>
</mgrwt>
</event>
<event>
12    1  0.1556559E-007  0.2013592E+04  0.7818608E-02  0.8600292E-01
         -2   -1    0    0    0  501 -0.00000000000E+00  0.00000000000E+00  0.17592195718E+04  0.17592195718E+04  0.00000000000E+00 0.  1.
          2   -1    0    0  501    0  0.00000000000E+00 -0.00000000000E+00 -0.57618625650E+03  0.57618625650E+03  0.00000000000E+00 0. -1.
         23    2    1    2    0    0  0.28381334151E+03 -0.24548569536E+03  0.13059225059E+04  0.13618474166E+04  0.91550833195E+02 0.  0.
        254    2    1    2    0    0 -0.28381334151E+03  0.24548569536E+03 -0.12288919066E+03  0.97355841170E+03  0.88988818869E+03 0.  0.
        -24    2    4    4    0    0 -0.26657106467E+03 -0.28908971809E+03 -0.15887083558E+03  0.43181233594E+03  0.81172368766E+02 0.  0.
         24    2    4    4    0    0 -0.17242276841E+02  0.53457541346E+03  0.35981644927E+02  0.54174607576E+03  0.78268531625E+02 0.  0.
         13    1    3    3    0    0  0.56009140745E+02 -0.58551091562E+02  0.16998580087E+03  0.18830939081E+03  0.00000000000E+00 0. -1.
        -13    1    3    3    0    0  0.22780420076E+03 -0.18693460380E+03  0.11359367051E+04  0.11735380258E+04  0.00000000000E+00 0.  1.
          2    1    6    6  502    0 -0.12374742548E+02  0.52749153596E+03  0.25584937129E+02  0.52825660788E+03  0.00000000000E+00 0. -1.
          3    1    5    5  503    0 -0.25702129919E+03 -0.24133520858E+03 -0.14457756216E+03  0.38105813548E+03  0.00000000000E+00 0. -1.
         -4    1    5    5    0  503 -0.95497654796E+01 -0.47754509515E+02 -0.14293273421E+02  0.50754200465E+02  0.00000000000E+00 0.  1.
         -1    1    6    6    0  502 -0.48675342926E+01  0.70838774934E+01  0.10396707797E+02  0.13489467872E+02  0.00000000000E+00 0.  1.
<mgrwt>
<rscale>  0 0.20135920E+04</rscale>
<asrwt>0</asrwt>
<pdfrwt beam="1">  1        2 0.88644040E-01 0.20135920E+04</pdfrwt>
<pdfrwt beam="2">  1       -2 0.27064916E+00 0.20135920E+04</pdfrwt>
<totfact> 0.23217113E+00</totfact>
</mgrwt>
</event>
<event>
12    1  0.1556559E-007  0.2136697E+04  0.7818608E-02  0.8545248E-01
          1   -1    0    0  501    0  0.00000000000E+00  0.00000000000E+00  0.24057274587E+04  0.24057274587E+04  0.00000000000E+00 0. -1.
         -1   -1    0    0    0  501 -0.00000000000E+00 -0.00000000000E+00 -0.47443821180E+03  0.47443821180E+03  0.00000000000E+00 0.  1.
         23    2    1    2    0    0 -0.18472454180E+03  0.11603112595E+03 -0.34670147321E+03  0.41960849912E+03  0.91011001932E+02 0.  0.
        254    2    1    2    0    0  0.18472454180E+03 -0.11603112595E+03  0.22779907201E+04  0.24605571713E+04  0.90416452826E+03 0.  0.
        -24    2    4    4    0    0  0.21299189385E+03 -0.35620809600E+03  0.21193405036E+04  0.21610577608E+04  0.79477802058E+02 0.  0.
         24    2    4    4    0    0 -0.28267352056E+02  0.24017697005E+03  0.15865021648E+03  0.29949941050E+03  0.77755935885E+02 0.  0.
         13    1    3    3    0    0  0.59436567609E+01  0.17814378099E+02 -0.50735327133E+02  0.54099468963E+02  0.00000000000E+00 0. -1.
        -13    1    3    3    0    0 -0.19066819856E+03  0.98216747853E+02 -0.29596614608E+03  0.36550903015E+03  0.00000000000E+00 0.  1.
          4    1    6    6  502    0 -0.30414165764E+02  0.19177115402E+03  0.86440462313E+02  0.21253976220E+03  0.00000000000E+00 0. -1.
          3    1    5    5  503    0  0.13686238388E+03 -0.26741419745E+03  0.16663499478E+04  0.16932110954E+04  0.00000000000E+00 0. -1.
         -4    1    5    5    0  503  0.76129509972E+02 -0.88793898556E+02  0.45299055579E+03  0.46784666542E+03  0.00000000000E+00 0.  1.
         -3    1    6    6    0  502  0.21468137076E+01  0.48405816033E+02  0.72209754169E+02  0.86959648298E+02  0.00000000000E+00 0.  1.
<mgrwt>
<rscale>  0 0.21366975E+04</rscale>
<asrwt>0</asrwt>
<pdfrwt beam="1">  1        1 0.37011191E+00 0.21366975E+04</pdfrwt>
<pdfrwt beam="2">  1       -1 0.72990495E-01 0.21366975E+04</pdfrwt>
<totfact> 0.27310824E+00</totfact>
</mgrwt>
</event>
<event>
12    1  0.1556559E-007  0.1533810E+04  0.7818608E-02  0.8862276E-01
         -2   -1    0    0    0  501 -0.00000000000E+00  0.00000000000E+00  0.79053872388E+03  0.79053872388E+03  0.00000000000E+00 0.  1.
          2   -1    0    0  501    0  0.00000000000E+00 -0.00000000000E+00 -0.74397807034E+03  0.74397807034E+03  0.00000000000E+00 0. -1.
         23    2    1    2    0    0 -0.33737802694E+03 -0.13755476458E+03  0.34256284042E+03  0.50863485626E+03  0.92816329627E+02 0.  0.
        254    2    1    2    0    0  0.33737802694E+03  0.13755476458E+03 -0.29600218689E+03  0.10258819380E+04  0.91217937362E+03 0.  0.
        -24    2    4    4    0    0  0.44590897185E+03  0.43117175969E+03 -0.31978102327E+03  0.70178516590E+03  0.74152671581E+02 0.  0.
         24    2    4    4    0    0 -0.10853094491E+03 -0.29361699511E+03  0.23778836379E+02  0.32409677206E+03  0.80519431067E+02 0.  0.
         13    1    3    3    0    0 -0.11539174694E+03 -0.96070153714E+02  0.13638435111E+03  0.20284334084E+03  0.00000000000E+00 0.  1.
        -13    1    3    3    0    0 -0.22198628000E+03 -0.41484610862E+02  0.20617848931E+03  0.30579151542E+03  0.00000000000E+00 0. -1.
          2    1    6    6  502    0 -0.96525546674E+02 -0.23530245236E+03 -0.12038101161E+02  0.25461606612E+03  0.00000000000E+00 0. -1.
          1    1    5    5  503    0  0.31318621180E+03  0.32196457454E+03 -0.19648254636E+03  0.49025726058E+03  0.00000000000E+00 0. -1.
         -2    1    5    5    0  503  0.13272276005E+03  0.10920718515E+03 -0.12329847691E+03  0.21152790532E+03  0.00000000000E+00 0.  1.
         -1    1    6    6    0  502 -0.12005398233E+02 -0.58314542751E+02  0.35816937540E+02  0.69480705939E+02  0.00000000000E+00 0.  1.
<mgrwt>
<rscale>  0 0.15338103E+04</rscale>
<asrwt>0</asrwt>
<pdfrwt beam="1">  1        2 0.11445817E+00 0.15338103E+04</pdfrwt>
<pdfrwt beam="2">  1       -2 0.12162134E+00 0.15338103E+04</pdfrwt>
<totfact> 0.18752368E+01</totfact>
</mgrwt>
</event>
<event>
12    1  0.1556559E-007  0.1826579E+04  0.7818608E-02  0.8692291E-01
         -4   -1    0    0    0  501 -0.00000000000E+00  0.00000000000E+00  0.41007788461E+03  0.41007788461E+03  0.00000000000E+00 0.  1.
          4   -1    0    0  501    0  0.00000000000E+00 -0.00000000000E+00 -0.20339992398E+04  0.20339992398E+04  0.00000000000E+00 0. -1.
         23    2    1    2    0    0 -0.16184760281E+03  0.21977496641E+03  0.22773931234E+03  0.36577542884E+03  0.86202015991E+02 0.  0.
        254    2    1    2    0    0  0.16184760281E+03 -0.21977496641E+03 -0.18516606675E+04  0.20783016956E+04  0.90343512646E+03 0.  0.
        -24    2    4    4    0    0  0.35812902698E+03  0.31930141502E+02 -0.16538799732E+04  0.16943736249E+04  0.79417134256E+02 0.  0.
         24    2    4    4    0    0 -0.19628142418E+03 -0.25170510791E+03 -0.19778069437E+03  0.38392807067E+03  0.80010634031E+02 0.  0.
         13    1    3    3    0    0 -0.16796391398E+03  0.22184918717E+03  0.22730918915E+03  0.35930266590E+03  0.00000000000E+00 0.  1.
        -13    1    3    3    0    0  0.61163111724E+01 -0.20742207624E+01  0.43012319056E+00  0.64727629408E+01  0.00000000000E+00 0. -1.
          4    1    6    6  502    0 -0.16133470124E+03 -0.16157575413E+03 -0.16553705944E+03  0.28202504888E+03  0.00000000000E+00 0. -1.
          3    1    5    5  503    0  0.19042835064E+03 -0.19672418188E+02 -0.79126744096E+03  0.81409712190E+03  0.00000000000E+00 0. -1.
         -4    1    5    5    0  503  0.16770067634E+03  0.51602559690E+02 -0.86261253220E+03  0.88027650299E+03  0.00000000000E+00 0.  1.
         -3    1    6    6    0  502 -0.34946722937E+02 -0.90129353777E+02 -0.32243634927E+02  0.10190302179E+03  0.00000000000E+00 0.  1.
<mgrwt>
<rscale>  0 0.18265794E+04</rscale>
<asrwt>0</asrwt>
<pdfrwt beam="1">  1        4 0.31292296E+00 0.18265794E+04</pdfrwt>
<pdfrwt beam="2">  1       -4 0.63088906E-01 0.18265794E+04</pdfrwt>
<totfact> 0.11401007E-01</totfact>
</mgrwt>
</event>
<event>
12    1  0.1556559E-007  0.1145101E+04  0.7818608E-02  0.9162315E-01
          2   -1    0    0  501    0  0.00000000000E+00  0.00000000000E+00  0.48717299682E+03  0.48717299682E+03  0.00000000000E+00 0. -1.
         -2   -1    0    0    0  501 -0.00000000000E+00 -0.00000000000E+00 -0.67289092142E+03  0.67289092142E+03  0.00000000000E+00 0.  1.
         23    2    1    2    0    0  0.15504363967E+03 -0.53546516169E+02 -0.15803624418E+03  0.24543188152E+03  0.91408940467E+02 0.  0.
        254    2    1    2    0    0 -0.15504363967E+03  0.53546516169E+02 -0.27681680430E+02  0.91463203672E+03  0.89937741108E+03 0.  0.
        -24    2    4    4    0    0  0.82448060888E+02  0.21208672951E+03 -0.38235258110E+03  0.45246962220E+03  0.82199751575E+02 0.  0.
         24    2    4    4    0    0 -0.23749170056E+03 -0.15854021335E+03  0.35467090067E+03  0.46216241452E+03  0.79153916712E+02 0.  0.
         11    1    3    3    0    0  0.12502219278E+03 -0.10202435053E+02 -0.14379181952E+03  0.19081594726E+03  0.00000000000E+00 0.  1.
        -11    1    3    3    0    0  0.30021446890E+02 -0.43344081115E+02 -0.14244424655E+02  0.54615934258E+02  0.00000000000E+00 0. -1.
          4    1    6    6  502    0 -0.20201594900E+03 -0.16132229135E+03  0.32830187290E+03  0.41787252253E+03  0.00000000000E+00 0. -1.
          1    1    5    5  503    0  0.53029061484E+02  0.20078549096E+03 -0.35212341984E+03  0.40880043730E+03  0.00000000000E+00 0. -1.
         -2    1    5    5    0  503  0.29418999404E+02  0.11301238557E+02 -0.30229161259E+02  0.43669184894E+02  0.00000000000E+00 0.  1.
         -3    1    6    6    0  502 -0.35475751565E+02  0.27820780023E+01  0.26369027764E+02  0.44289891988E+02  0.00000000000E+00 0.  1.
<mgrwt>
<rscale>  0 0.11451014E+04</rscale>
<asrwt>0</asrwt>
<pdfrwt beam="1">  1        2 0.74949692E-01 0.11451014E+04</pdfrwt>
<pdfrwt beam="2">  1       -2 0.10352168E+00 0.11451014E+04</pdfrwt>
<totfact> 0.47801726E+01</totfact>
</mgrwt>
</event>
<event>
12    1  0.1556559E-007  0.2656522E+04  0.7818608E-02  0.8349252E-01
          2   -1    0    0  501    0  0.00000000000E+00  0.00000000000E+00  0.16605374748E+04  0.16605374748E+04  0.00000000000E+00 0. -1.
         -2   -1    0    0    0  501 -0.00000000000E+00 -0.00000000000E+00 -0.10624734836E+04  0.10624734836E+04  0.00000000000E+00 0.  1.
         23    2    1    2    0    0  0.91322391114E+02  0.11679302569E+04  0.34393070599E+03  0.12243807447E+04  0.91755182456E+02 0.  0.
        254    2    1    2    0    0 -0.91322391114E+02 -0.11679302569E+04  0.25413328523E+03  0.14986302137E+04  0.89939308793E+03 0.  0.
        -24    2    4    4    0    0  0.31013540040E+03 -0.10388046334E+03  0.67851203778E+02  0.34338847308E+03  0.79603645274E+02 0.  0.
         24    2    4    4    0    0 -0.40145779152E+03 -0.10640497935E+04  0.18628208145E+03  0.11552417406E+04  0.80697855293E+02 0.  0.
         11    1    3    3    0    0  0.84538072902E+02  0.83161798305E+03  0.20667349795E+03  0.86107438137E+03  0.00000000000E+00 0. -1.
        -11    1    3    3    0    0  0.67843182118E+01  0.33631227381E+03  0.13725720804E+03  0.36330636335E+03  0.00000000000E+00 0.  1.
          4    1    6    6  502    0 -0.13129425677E+03 -0.30027819851E+03  0.86681816937E+02  0.33899692587E+03  0.00000000000E+00 0. -1.
          3    1    5    5  503    0  0.46427725767E+02 -0.47504844224E+02  0.58173492839E+01  0.66678973427E+02  0.00000000000E+00 0. -1.
         -4    1    5    5    0  503  0.26370767464E+03 -0.56375619113E+02  0.62033854494E+02  0.27670949965E+03  0.00000000000E+00 0.  1.
         -3    1    6    6    0  502 -0.27016353475E+03 -0.76377159502E+03  0.99600264513E+02  0.81624481472E+03  0.00000000000E+00 0.  1.
<mgrwt>
<rscale>  0 0.26565218E+04</rscale>
<asrwt>0</asrwt>
<pdfrwt beam="1">  1        2 0.25546730E+00 0.26565218E+04</pdfrwt>
<pdfrwt beam="2">  1       -2 0.16345746E+00 0.26565218E+04</pdfrwt>
<totfact> 0.21582550E+00</totfact>
</mgrwt>
</event>
<event>
12    1  0.1556559E-007  0.2412069E+04  0.7818608E-02  0.8434999E-01
         -2   -1    0    0    0  501 -0.00000000000E+00  0.00000000000E+00  0.88676701927E+03  0.88676701927E+03  0.00000000000E+00 0. -1.
          2   -1    0    0  501    0  0.00000000000E+00 -0.00000000000E+00 -0.16402492660E+04  0.16402492660E+04  0.00000000000E+00 0.  1.
         23    2    1    2    0    0  0.12449791206E+03 -0.15873178556E+03 -0.13824905668E+04  0.14006267664E+04  0.98892172896E+02 0.  0.
        254    2    1    2    0    0 -0.12449791206E+03  0.15873178556E+03  0.62900832000E+03  0.11263895188E+04  0.91236307010E+03 0.  0.
        -24    2    4    4    0    0  0.36069385908E+03  0.21971258679E+03  0.21700387918E+03  0.48204929100E+03  0.83109293151E+02 0.  0.
         24    2    4    4    0    0 -0.48519177114E+03 -0.60980801230E+02  0.41200444082E+03  0.64434022784E+03  0.79353368312E+02 0.  0.
         11    1    3    3    0    0  0.17174050932E+02 -0.47823734759E+02 -0.14701542581E+03  0.15554932677E+03  0.00000000000E+00 0. -1.
        -11    1    3    3    0    0  0.10732386113E+03 -0.11090805080E+03 -0.12354751409E+04  0.12450774397E+04  0.00000000000E+00 0.  1.
          4    1    6    6  502    0 -0.15894520711E+02  0.15215844348E+01 -0.11037069889E+01  0.16005285907E+02  0.00000000000E+00 0. -1.
          1    1    5    5  503    0  0.11008964604E+03  0.88940346812E+02  0.34802406322E+02  0.14574403227E+03  0.00000000000E+00 0. -1.
         -2    1    5    5    0  503  0.25060421303E+03  0.13077223998E+03  0.18220147286E+03  0.33630525873E+03  0.00000000000E+00 0.  1.
         -3    1    6    6    0  502 -0.46929725043E+03 -0.62502385665E+02  0.41310814781E+03  0.62833494194E+03  0.00000000000E+00 0.  1.
<mgrwt>
<rscale>  0 0.24120688E+04</rscale>
<asrwt>0</asrwt>
<pdfrwt beam="1">  1        2 0.25234604E+00 0.24120688E+04</pdfrwt>
<pdfrwt beam="2">  1       -2 0.13642570E+00 0.24120688E+04</pdfrwt>
<totfact> 0.36536895E+00</totfact>
</mgrwt>
</event>
<event>
12    1  0.1556559E-007  0.1101434E+04  0.7818608E-02  0.9203795E-01
          2   -1    0    0  501    0  0.00000000000E+00  0.00000000000E+00  0.61636294743E+03  0.61636294743E+03  0.00000000000E+00 0. -1.
         -2   -1    0    0    0  501 -0.00000000000E+00 -0.00000000000E+00 -0.49206282330E+03  0.49206282330E+03  0.00000000000E+00 0.  1.
         23    2    1    2    0    0  0.18226681044E+01 -0.90436047928E+02  0.16714661173E+03  0.21101027244E+03  0.91680665234E+02 0.  0.
        254    2    1    2    0    0 -0.18226681044E+01  0.90436047928E+02 -0.42846487603E+02  0.89741549830E+03  0.89181654739E+03 0.  0.
        -24    2    4    4    0    0 -0.40091198516E+03 -0.24419793029E+02 -0.18714561369E+03  0.45050138356E+03  0.81248198324E+02 0.  0.
         24    2    4    4    0    0  0.39908931705E+03  0.11485584096E+03  0.14429912609E+03  0.44691411474E+03  0.80285994857E+02 0.  0.
         13    1    3    3    0    0  0.20574697861E+02 -0.50300927573E+02  0.15619131272E+03  0.16537601905E+03  0.00000000000E+00 0. -1.
        -13    1    3    3    0    0 -0.18752029756E+02 -0.40135120354E+02  0.10955299006E+02  0.45634253386E+02  0.00000000000E+00 0.  1.
          2    1    6    6  502    0  0.38345169586E+03  0.95337014233E+02  0.12234096283E+03  0.41363227694E+03  0.00000000000E+00 0. -1.
          3    1    5    5  503    0 -0.30133947908E+03 -0.30107592902E+02 -0.17568505759E+03  0.35011025158E+03  0.00000000000E+00 0. -1.
         -4    1    5    5    0  503 -0.99572506083E+02  0.56877998726E+01 -0.11460556108E+02  0.10039113199E+03  0.00000000000E+00 0.  1.
         -1    1    6    6    0  502  0.15637621195E+02  0.19518826724E+02  0.21958163258E+02  0.33281837795E+02  0.00000000000E+00 0.  1.
<mgrwt>
<rscale>  0 0.11014341E+04</rscale>
<asrwt>0</asrwt>
<pdfrwt beam="1">  1        2 0.94825069E-01 0.11014341E+04</pdfrwt>
<pdfrwt beam="2">  1       -2 0.75701973E-01 0.11014341E+04</pdfrwt>
<totfact> 0.74581541E+01</totfact>
</mgrwt>
</event>
<event>
12    1  0.1556559E-007  0.1675117E+04  0.7818608E-02  0.8775685E-01
         -2   -1    0    0    0  501 -0.00000000000E+00  0.00000000000E+00  0.48699394236E+03  0.48699394236E+03  0.00000000000E+00 0.  1.
          2   -1    0    0  501    0  0.00000000000E+00 -0.00000000000E+00 -0.14404781094E+04  0.14404781094E+04  0.00000000000E+00 0. -1.
         23    2    1    2    0    0 -0.12517954473E+03  0.50427155107E+03 -0.67651171332E+03  0.85785599624E+03  0.91044474743E+02 0.  0.
        254    2    1    2    0    0  0.12517954473E+03 -0.50427155107E+03 -0.27697245370E+03  0.10696160555E+04  0.89297539185E+03 0.  0.
        -24    2    4    4    0    0  0.46306307604E+03 -0.46836771206E+03 -0.27662059251E+03  0.71846169753E+03  0.76632450858E+02 0.  0.
         24    2    4    4    0    0 -0.33788353130E+03 -0.35903839010E+02 -0.35186118713E+00  0.35115435798E+03  0.88627833896E+02 0.  0.
         13    1    3    3    0    0  0.52381348939E+01  0.17737072903E+02 -0.53992521864E+02  0.57072184377E+02  0.00000000000E+00 0.  1.
        -13    1    3    3    0    0 -0.13041767963E+03  0.48653447817E+03 -0.62251919145E+03  0.80078381186E+03  0.00000000000E+00 0. -1.
          4    1    6    6  502    0 -0.28448439927E+03 -0.60109511270E+02 -0.13463425667E+02  0.29107694963E+03  0.00000000000E+00 0. -1.
          3    1    5    5  503    0  0.93024004536E+02 -0.54845851202E+02 -0.51164314062E+02  0.11949610809E+03  0.00000000000E+00 0. -1.
         -4    1    5    5    0  503  0.37003907150E+03 -0.41352186086E+03 -0.22545627845E+03  0.59896558944E+03  0.00000000000E+00 0.  1.
         -1    1    6    6    0  502 -0.53399132031E+02  0.24205672260E+02  0.13111564480E+02  0.60077408352E+02  0.00000000000E+00 0.  1.
<mgrwt>
<rscale>  0 0.16751168E+04</rscale>
<asrwt>0</asrwt>
<pdfrwt beam="1">  1        2 0.22161202E+00 0.16751168E+04</pdfrwt>
<pdfrwt beam="2">  1       -2 0.74922144E-01 0.16751168E+04</pdfrwt>
<totfact> 0.20935517E+01</totfact>
</mgrwt>
</event>
<event>
12    1  0.1556559E-007  0.2333117E+04  0.7818608E-02  0.8464977E-01
          2   -1    0    0  501    0  0.00000000000E+00  0.00000000000E+00  0.21628232988E+04  0.21628232988E+04  0.00000000000E+00 0. -1.
         -2   -1    0    0    0  501 -0.00000000000E+00 -0.00000000000E+00 -0.62920491189E+03  0.62920491189E+03  0.00000000000E+00 0.  1.
         23    2    1    2    0    0 -0.90369893817E+03 -0.34826177148E+03  0.88889787209E+03  0.13178330141E+04  0.92662796268E+02 0.  0.
        254    2    1    2    0    0  0.90369893817E+03  0.34826177148E+03  0.64472051483E+03  0.14741951966E+04  0.90533358660E+03 0.  0.
        -24    2    4    4    0    0  0.71864639148E+03  0.60363083886E+03  0.27391252147E+03  0.98108227307E+03  0.81679443633E+02 0.  0.
         24    2    4    4    0    0  0.18505254669E+03 -0.25536906738E+03  0.37080799337E+03  0.49311292350E+03  0.78765358914E+02 0.  0.
         11    1    3    3    0    0 -0.46254861601E+03 -0.12870470925E+03  0.44263654424E+03  0.65302621283E+03  0.00000000000E+00 0. -1.
        -11    1    3    3    0    0 -0.44115032216E+03 -0.21955706223E+03  0.44626132785E+03  0.66480680130E+03  0.00000000000E+00 0.  1.
          2    1    6    6  502    0  0.14142468904E+02 -0.47773329215E+01  0.12020529919E+01  0.14975889554E+02  0.00000000000E+00 0. -1.
          1    1    5    5  503    0  0.20367048732E+03  0.20545606854E+03  0.11258045909E+03  0.31043231673E+03  0.00000000000E+00 0. -1.
         -2    1    5    5    0  503  0.51497590416E+03  0.39817477032E+03  0.16133206238E+03  0.67064995634E+03  0.00000000000E+00 0.  1.
         -1    1    6    6    0  502  0.17091007778E+03 -0.25059173446E+03  0.36960594038E+03  0.47813703395E+03  0.00000000000E+00 0.  1.
<mgrwt>
<rscale>  0 0.23331173E+04</rscale>
<asrwt>0</asrwt>
<pdfrwt beam="1">  1        2 0.33274204E+00 0.23331173E+04</pdfrwt>
<pdfrwt beam="2">  1       -2 0.96800756E-01 0.23331173E+04</pdfrwt>
<totfact> 0.43688594E+00</totfact>
</mgrwt>
</event>
<event>
12    1  0.1556559E-007  0.1853581E+04  0.7818608E-02  0.8678313E-01
          1   -1    0    0  501    0  0.00000000000E+00  0.00000000000E+00  0.41427669703E+03  0.41427669703E+03  0.00000000000E+00 0. -1.
         -1   -1    0    0    0  501 -0.00000000000E+00 -0.00000000000E+00 -0.20733501630E+04  0.20733501630E+04  0.00000000000E+00 0.  1.
         23    2    1    2    0    0 -0.49649976688E+03 -0.20855894197E+03 -0.28655605584E+02  0.54686436217E+03  0.90722853185E+02 0.  0.
        254    2    1    2    0    0  0.49649976688E+03  0.20855894197E+03 -0.16304178604E+04  0.19407624979E+04  0.90459262810E+03 0.  0.
        -24    2    4    4    0    0  0.37259244302E+03  0.15175174933E+03 -0.17142629736E+04  0.17622484122E+04  0.70485471534E+02 0.  0.
         24    2    4    4    0    0  0.12390732386E+03  0.56807192641E+02  0.83845113215E+02  0.17851408563E+03  0.79102425478E+02 0.  0.
         13    1    3    3    0    0 -0.42334502096E+03 -0.15073344716E+03 -0.23097999929E+00  0.44937916309E+03  0.00000000000E+00 0. -1.
        -13    1    3    3    0    0 -0.73154745926E+02 -0.57825494807E+02 -0.28424625585E+02  0.97485199086E+02  0.00000000000E+00 0.  1.
          4    1    6    6  502    0  0.12719103670E+03  0.64880564685E+02  0.89132459872E+02  0.16832006087E+03  0.00000000000E+00 0. -1.
          1    1    5    5  503    0  0.30521245799E+03  0.13241994160E+03 -0.12888492929E+04  0.13310981125E+04  0.00000000000E+00 0. -1.
         -2    1    5    5    0  503  0.67379985032E+02  0.19331807733E+02 -0.42541368071E+03  0.43115029967E+03  0.00000000000E+00 0.  1.
         -3    1    6    6    0  502 -0.32837128317E+01 -0.80733720441E+01 -0.52873466574E+01  0.10194024760E+02  0.00000000000E+00 0.  1.
<mgrwt>
<rscale>  0 0.18535810E+04</rscale>
<asrwt>0</asrwt>
<pdfrwt beam="1">  1        1 0.63734877E-01 0.18535810E+04</pdfrwt>
<pdfrwt beam="2">  1       -1 0.31897694E+00 0.18535810E+04</pdfrwt>
<totfact> 0.13384313E+00</totfact>
</mgrwt>
</event>
<event>
12    1  0.1556559E-007  0.1373665E+04  0.7818608E-02  0.8973105E-01
          2   -1    0    0  501    0  0.00000000000E+00  0.00000000000E+00  0.81710818665E+03  0.81710818665E+03  0.00000000000E+00 0. -1.
         -2   -1    0    0    0  501 -0.00000000000E+00 -0.00000000000E+00 -0.57732747584E+03  0.57732747584E+03  0.00000000000E+00 0.  1.
         23    2    1    2    0    0 -0.24908663541E+03 -0.22509223084E+03  0.27796962092E+03  0.44509868293E+03  0.90194584471E+02 0.  0.
        254    2    1    2    0    0  0.24908663541E+03  0.22509223084E+03 -0.38188910110E+02  0.94933697956E+03  0.88717058313E+03 0.  0.
        -24    2    4    4    0    0  0.57363030100E+03  0.87091186519E+02  0.34794187719E+01  0.58572743935E+03  0.80174371588E+02 0.  0.
         24    2    4    4    0    0 -0.32454366559E+03  0.13800104432E+03 -0.41668328882E+02  0.36360954020E+03  0.78120221359E+02 0.  0.
         13    1    3    3    0    0 -0.97796597952E+02 -0.10434999714E+03  0.17448926565E+03  0.22560939763E+03  0.00000000000E+00 0.  1.
        -13    1    3    3    0    0 -0.15129003746E+03 -0.12074223370E+03  0.10348035527E+03  0.21948928530E+03  0.00000000000E+00 0. -1.
          4    1    6    6  502    0 -0.25901035454E+03  0.75888583243E+02 -0.43030674265E+02  0.27330766501E+03  0.00000000000E+00 0. -1.
          3    1    5    5  503    0  0.51463993444E+03  0.99878407068E+02 -0.79098580988E+01  0.52430193989E+03  0.00000000000E+00 0. -1.
         -4    1    5    5    0  503  0.58990366562E+02 -0.12787220549E+02  0.11389276871E+02  0.61425499461E+02  0.00000000000E+00 0.  1.
         -3    1    6    6    0  502 -0.65533311054E+02  0.62112461076E+02  0.13623453830E+01  0.90301875194E+02  0.00000000000E+00 0.  1.
<mgrwt>
<rscale>  0 0.13736652E+04</rscale>
<asrwt>0</asrwt>
<pdfrwt beam="1">  1        2 0.12570895E+00 0.13736652E+04</pdfrwt>
<pdfrwt beam="2">  1       -2 0.88819612E-01 0.13736652E+04</pdfrwt>
<totfact> 0.35585285E+01</totfact>
</mgrwt>
</event>
<event>
12    1  0.1556559E-007  0.2417883E+04  0.7818608E-02  0.8432839E-01
         -2   -1    0    0    0  501 -0.00000000000E+00  0.00000000000E+00  0.88618982532E+03  0.88618982532E+03  0.00000000000E+00 0.  1.
          2   -1    0    0  501    0  0.00000000000E+00 -0.00000000000E+00 -0.16492400532E+04  0.16492400532E+04  0.00000000000E+00 0. -1.
         23    2    1    2    0    0  0.14012230338E+03 -0.68670279066E+03 -0.11214987289E+04  0.13256633198E+04  0.91808800024E+02 0.  0.
        254    2    1    2    0    0 -0.14012230338E+03  0.68670279066E+03  0.35844850103E+03  0.12097665588E+04  0.91861570650E+03 0.  0.
        -24    2    4    4    0    0 -0.38164782502E+03  0.51967692153E+03  0.54937415161E+03  0.85075363525E+03  0.79060889878E+02 0.  0.
         24    2    4    4    0    0  0.24152552164E+03  0.16702586913E+03 -0.19092565058E+03  0.35901292352E+03  0.78774720841E+02 0.  0.
         13    1    3    3    0    0  0.53192292673E+02 -0.45720748934E+03 -0.76682161189E+03  0.89436205911E+03  0.00000000000E+00 0. -1.
        -13    1    3    3    0    0  0.86930010706E+02 -0.22949530132E+03 -0.35467711704E+03  0.43130126065E+03  0.00000000000E+00 0.  1.
          4    1    6    6  502    0  0.90962072348E+02  0.20097342520E+02 -0.68266700891E+02  0.11549174963E+03  0.00000000000E+00 0. -1.
          1    1    5    5  503    0 -0.20266502281E+03  0.32053110951E+03  0.35914559824E+03  0.52230150715E+03  0.00000000000E+00 0. -1.
         -2    1    5    5    0  503 -0.17898280222E+03  0.19914581202E+03  0.19022855337E+03  0.32845212810E+03  0.00000000000E+00 0.  1.
         -3    1    6    6    0  502  0.15056344930E+03  0.14692852661E+03 -0.12265894969E+03  0.24352117389E+03  0.00000000000E+00 0.  1.
<mgrwt>
<rscale>  0 0.24178832E+04</rscale>
<asrwt>0</asrwt>
<pdfrwt beam="1">  1        2 0.25372924E+00 0.24178832E+04</pdfrwt>
<pdfrwt beam="2">  1       -2 0.13633690E+00 0.24178832E+04</pdfrwt>
<totfact> 0.36160122E+00</totfact>
</mgrwt>
</event>
<event>
12    1  0.1556559E-007  0.2025220E+04  0.7818608E-02  0.8594919E-01
          2   -1    0    0  501    0  0.00000000000E+00  0.00000000000E+00  0.59760589874E+03  0.59760589874E+03  0.00000000000E+00 0. -1.
         -2   -1    0    0    0  501 -0.00000000000E+00 -0.00000000000E+00 -0.17158115069E+04  0.17158115069E+04  0.00000000000E+00 0.  1.
         23    2    1    2    0    0 -0.61732838585E+03  0.49519360190E+03 -0.58825589631E+03  0.99371402222E+03  0.12292891880E+03 0.  0.
        254    2    1    2    0    0  0.61732838585E+03 -0.49519360190E+03 -0.52994971182E+03  0.13197033834E+04  0.91348742943E+03 0.  0.
        -24    2    4    4    0    0 -0.16740856704E+03 -0.16584455885E+03  0.88399597594E+02  0.26468420316E+03  0.81934074297E+02 0.  0.
         24    2    4    4    0    0  0.78473695289E+03 -0.32934904305E+03 -0.61834930941E+03  0.10550191802E+04  0.80166856062E+02 0.  0.
         13    1    3    3    0    0 -0.52816157749E+03  0.43791005969E+03 -0.55551802160E+03  0.88279111042E+03  0.00000000000E+00 0.  1.
        -13    1    3    3    0    0 -0.89166808366E+02  0.57283542215E+02 -0.32737874705E+02  0.11092291180E+03  0.00000000000E+00 0. -1.
          4    1    6    6  502    0  0.10322920606E+03 -0.40100850450E+02 -0.49188661179E+02  0.12117702579E+03  0.00000000000E+00 0. -1.
          1    1    5    5  503    0 -0.42140435036E+02 -0.67132148325E+00  0.16669359983E+02  0.45322560605E+02  0.00000000000E+00 0. -1.
         -2    1    5    5    0  503 -0.12526813200E+03 -0.16517323737E+03  0.71730237611E+02  0.21936164256E+03  0.00000000000E+00 0.  1.
         -3    1    6    6    0  502  0.68150774683E+03 -0.28924819260E+03 -0.56916064823E+03  0.93384215444E+03  0.00000000000E+00 0.  1.
<mgrwt>
<rscale>  0 0.20252201E+04</rscale>
<asrwt>0</asrwt>
<pdfrwt beam="1">  1        2 0.91939368E-01 0.20252201E+04</pdfrwt>
<pdfrwt beam="2">  1       -2 0.26397100E+00 0.20252201E+04</pdfrwt>
<totfact> 0.24379992E+00</totfact>
</mgrwt>
</event>
<event>
12    1  0.1556559E-007  0.1861395E+04  0.7818608E-02  0.8674315E-01
          4   -1    0    0  501    0  0.00000000000E+00  0.00000000000E+00  0.88160986132E+03  0.88160986132E+03  0.00000000000E+00 0. -1.
         -4   -1    0    0    0  501 -0.00000000000E+00 -0.00000000000E+00 -0.98251815917E+03  0.98251815917E+03  0.00000000000E+00 0.  1.
         23    2    1    2    0    0  0.43961582840E+03 -0.47945726061E+03  0.22963207046E+03  0.69835132623E+03  0.10873061082E+03 0.  0.
        254    2    1    2    0    0 -0.43961582840E+03  0.47945726061E+03 -0.33054036832E+03  0.11657766943E+04  0.90919581195E+03 0.  0.
        -24    2    4    4    0    0 -0.71126465183E+03  0.41052196005E+03 -0.21983094211E+03  0.85393764199E+03  0.80362731848E+02 0.  0.
         24    2    4    4    0    0  0.27164882343E+03  0.68935300563E+02 -0.11070942621E+03  0.31183905228E+03  0.80261189493E+02 0.  0.
         13    1    3    3    0    0  0.11355293448E+03 -0.18575128041E+03  0.10766548632E+03  0.24287787888E+03  0.00000000000E+00 0. -1.
        -13    1    3    3    0    0  0.32606289392E+03 -0.29370598020E+03  0.12196658414E+03  0.45547344735E+03  0.00000000000E+00 0.  1.
          2    1    6    6  502    0  0.20743555423E+03  0.16136394012E+02 -0.85753207502E+02  0.22504111840E+03  0.00000000000E+00 0. -1.
          1    1    5    5  503    0 -0.46483474913E+03  0.22338456556E+03 -0.13709005995E+03  0.53363441855E+03  0.00000000000E+00 0. -1.
         -2    1    5    5    0  503 -0.24642990270E+03  0.18713739449E+03 -0.82740882153E+02  0.32030322343E+03  0.00000000000E+00 0.  1.
         -1    1    6    6    0  502  0.64213269197E+02  0.52798906552E+02 -0.24956218706E+02  0.86797933882E+02  0.00000000000E+00 0.  1.
<mgrwt>
<rscale>  0 0.18613949E+04</rscale>
<asrwt>0</asrwt>
<pdfrwt beam="1">  1        4 0.13563229E+00 0.18613949E+04</pdfrwt>
<pdfrwt beam="2">  1       -4 0.15115664E+00 0.18613949E+04</pdfrwt>
<totfact> 0.21288800E-01</totfact>
</mgrwt>
</event>
<event>
12    1  0.1556559E-007  0.1691934E+04  0.7818608E-02  0.8765978E-01
          2   -1    0    0  501    0  0.00000000000E+00  0.00000000000E+00  0.16475031414E+04  0.16475031414E+04  0.00000000000E+00 0. -1.
         -2   -1    0    0    0  501 -0.00000000000E+00 -0.00000000000E+00 -0.43439052899E+03  0.43439052899E+03  0.00000000000E+00 0.  1.
         23    2    1    2    0    0  0.33418633879E+03  0.19276056336E+03  0.99223530203E+03  0.10686643517E+04  0.93142139322E+02 0.  0.
        254    2    1    2    0    0 -0.33418633879E+03 -0.19276056336E+03  0.22087731040E+03  0.10132293187E+04  0.91049971022E+03 0.  0.
        -24    2    4    4    0    0  0.30191611773E+03 -0.15500725714E+03  0.66935622855E+02  0.35284429207E+03  0.69556631073E+02 0.  0.
         24    2    4    4    0    0 -0.63610245652E+03 -0.37753306215E+02  0.15394168755E+03  0.66038502668E+03  0.79741413203E+02 0.  0.
         13    1    3    3    0    0  0.14289796170E+03  0.11702243484E+03  0.56599607832E+03  0.59537016921E+03  0.00000000000E+00 0. -1.
        -13    1    3    3    0    0  0.19128837709E+03  0.75738128518E+02  0.42623922372E+03  0.47329418246E+03  0.00000000000E+00 0.  1.
          4    1    6    6  502    0 -0.23063272632E+03  0.24030994097E+02  0.62702016225E+02  0.24020925454E+03  0.00000000000E+00 0. -1.
          3    1    5    5  503    0  0.54199697765E+02 -0.13458852274E+02 -0.11361845545E+02  0.56989819060E+02  0.00000000000E+00 0. -1.
         -4    1    5    5    0  503  0.24771641997E+03 -0.14154840487E+03  0.78297468400E+02  0.29585447301E+03  0.00000000000E+00 0.  1.
         -3    1    6    6    0  502 -0.40546973020E+03 -0.61784300312E+02  0.91239671323E+02  0.42017577214E+03  0.00000000000E+00 0.  1.
<mgrwt>
<rscale>  0 0.16919335E+04</rscale>
<asrwt>0</asrwt>
<pdfrwt beam="1">  1        2 0.25346202E+00 0.16919335E+04</pdfrwt>
<pdfrwt beam="2">  1       -2 0.66829313E-01 0.16919335E+04</pdfrwt>
<totfact> 0.20535953E+01</totfact>
</mgrwt>
</event>
<event>
12    1  0.1556559E-007  0.1621421E+04  0.7818608E-02  0.8807495E-01
         -2   -1    0    0    0  501 -0.00000000000E+00  0.00000000000E+00  0.18503075995E+03  0.18503075995E+03  0.00000000000E+00 0.  1.
          2   -1    0    0  501    0  0.00000000000E+00 -0.00000000000E+00 -0.35521197404E+04  0.35521197404E+04  0.00000000000E+00 0. -1.
         23    2    1    2    0    0 -0.18327260319E+03 -0.18687506611E+03 -0.35120322210E+02  0.27972315837E+03  0.92197998255E+02 0.  0.
        254    2    1    2    0    0  0.18327260319E+03  0.18687506611E+03 -0.33319686582E+04  0.34574273419E+04  0.88502968770E+03 0.  0.
        -24    2    4    4    0    0 -0.13072136487E+03 -0.73139642860E+02 -0.26738172037E+04  0.26791867953E+04  0.79410093466E+02 0.  0.
         24    2    4    4    0    0  0.31399396806E+03  0.26001470897E+03 -0.65815145453E+03  0.77824054663E+03  0.79341984155E+02 0.  0.
         13    1    3    3    0    0 -0.71773271182E+02 -0.70372335656E+02 -0.59230503645E+02  0.11667013604E+03  0.00000000000E+00 0.  1.
        -13    1    3    3    0    0 -0.11149933201E+03 -0.11650273046E+03  0.24110181435E+02  0.16305302233E+03  0.00000000000E+00 0. -1.
          2    1    6    6  502    0  0.58227912793E+02  0.14178392091E+02 -0.11104398556E+03  0.12618353046E+03  0.00000000000E+00 0. -1.
          3    1    5    5  503    0  0.11070847493E+02 -0.38678442409E+01 -0.18908838041E+03  0.18945168115E+03  0.00000000000E+00 0. -1.
         -4    1    5    5    0  503 -0.14179221236E+03 -0.69271798619E+02 -0.24847288233E+04  0.24897351142E+04  0.00000000000E+00 0.  1.
         -1    1    6    6    0  502  0.25576605526E+03  0.24583631688E+03 -0.54710746897E+03  0.65205701616E+03  0.00000000000E+00 0.  1.
<mgrwt>
<rscale>  0 0.16214209E+04</rscale>
<asrwt>0</asrwt>
<pdfrwt beam="1">  1        2 0.54647993E+00 0.16214209E+04</pdfrwt>
<pdfrwt beam="2">  1       -2 0.28466272E-01 0.16214209E+04</pdfrwt>
<totfact> 0.81845576E+00</totfact>
</mgrwt>
</event>
<event>
12    1  0.1556559E-007  0.1163272E+04  0.7818608E-02  0.9145626E-01
         -1   -1    0    0    0  501 -0.00000000000E+00  0.00000000000E+00  0.14821604215E+04  0.14821604215E+04  0.00000000000E+00 0.  1.
          1   -1    0    0  501    0  0.00000000000E+00 -0.00000000000E+00 -0.22824815560E+03  0.22824815560E+03  0.00000000000E+00 0. -1.
         23    2    1    2    0    0 -0.46235384589E+02  0.65006803686E+02 -0.45092962014E+02  0.13096117564E+03  0.93562059551E+02 0.  0.
        254    2    1    2    0    0  0.46235384589E+02 -0.65006803686E+02  0.12990052279E+04  0.15794474014E+04  0.89491670926E+03 0.  0.
        -24    2    4    4    0    0  0.20321243271E+03  0.36649063993E+03  0.69725108163E+03  0.81734681815E+03  0.79284729567E+02 0.  0.
         24    2    4    4    0    0 -0.15697704812E+03 -0.43149744362E+03  0.60175414624E+03  0.76210058327E+03  0.88642027403E+02 0.  0.
         11    1    3    3    0    0  0.76617777812E+01  0.98095460089E+01  0.24232313182E+02  0.27242155455E+02  0.00000000000E+00 0.  1.
        -11    1    3    3    0    0 -0.53897162370E+02  0.55197257677E+02 -0.69325275196E+02  0.10371902018E+03  0.00000000000E+00 0. -1.
          4    1    6    6  502    0 -0.57089352829E+02 -0.59474868623E+02  0.10513458871E+03  0.13360290396E+03  0.00000000000E+00 0. -1.
          1    1    5    5  503    0  0.70445935640E+02  0.62638810163E+02  0.13639452532E+03  0.16580023198E+03  0.00000000000E+00 0. -1.
         -2    1    5    5    0  503  0.13276649707E+03  0.30385182977E+03  0.56085655630E+03  0.65154658617E+03  0.00000000000E+00 0.  1.
         -3    1    6    6    0  502 -0.99887695293E+02 -0.37202257499E+03  0.49661955753E+03  0.62849767931E+03  0.00000000000E+00 0.  1.
<mgrwt>
<rscale>  0 0.11632719E+04</rscale>
<asrwt>0</asrwt>
<pdfrwt beam="1">  1        1 0.35115102E-01 0.11632719E+04</pdfrwt>
<pdfrwt beam="2">  1       -1 0.22802467E+00 0.11632719E+04</pdfrwt>
<totfact> 0.12107158E+01</totfact>
</mgrwt>
</event>
<event>
12    1  0.1556559E-007  0.2085204E+04  0.7818608E-02  0.8567789E-01
          1   -1    0    0  501    0  0.00000000000E+00  0.00000000000E+00  0.21127534661E+04  0.21127534661E+04  0.00000000000E+00 0. -1.
         -1   -1    0    0    0  501 -0.00000000000E+00 -0.00000000000E+00 -0.51450359587E+03  0.51450359587E+03  0.00000000000E+00 0.  1.
         23    2    1    2    0    0  0.53883843639E+03  0.58930888541E+03  0.10086192887E+04  0.12897448854E+04  0.92180132320E+02 0.  0.
        254    2    1    2    0    0 -0.53883843639E+03 -0.58930888541E+03  0.58963058148E+03  0.13375121766E+04  0.89646125233E+03 0.  0.
        -24    2    4    4    0    0 -0.44767858810E+03 -0.68660067437E+03  0.10741809490E+03  0.83096906945E+03  0.84465039931E+02 0.  0.
         24    2    4    4    0    0 -0.91159848282E+02  0.97291788962E+02  0.48221248657E+03  0.50654310713E+03  0.79254192534E+02 0.  0.
         13    1    3    3    0    0  0.49380651519E+03  0.53133611810E+03  0.86859278335E+03  0.11316432159E+04  0.00000000000E+00 0. -1.
        -13    1    3    3    0    0  0.45031921195E+02  0.57972767315E+02  0.14002650537E+03  0.15810166945E+03  0.00000000000E+00 0.  1.
          4    1    6    6  502    0 -0.52681802127E+01  0.62013408225E+02  0.19661858602E+03  0.20623356878E+03  0.00000000000E+00 0. -1.
          1    1    5    5  503    0 -0.10589950962E+03 -0.10609466886E+03  0.90202972278E+01  0.15017373493E+03  0.00000000000E+00 0. -1.
         -2    1    5    5    0  503 -0.34177907848E+03 -0.58050600551E+03  0.98397797677E+02  0.68079533452E+03  0.00000000000E+00 0.  1.
         -3    1    6    6    0  502 -0.85891668069E+02  0.35278380737E+02  0.28559390055E+03  0.30030953835E+03  0.00000000000E+00 0.  1.
<mgrwt>
<rscale>  0 0.20852043E+04</rscale>
<asrwt>0</asrwt>
<pdfrwt beam="1">  1        1 0.32503899E+00 0.20852043E+04</pdfrwt>
<pdfrwt beam="2">  1       -1 0.79154401E-01 0.20852043E+04</pdfrwt>
<totfact> 0.36701395E+00</totfact>
</mgrwt>
</event>
<event>
12    1  0.1556559E-007  0.3303564E+04  0.7818608E-02  0.8161989E-01
          2   -1    0    0  501    0  0.00000000000E+00  0.00000000000E+00  0.32052337032E+04  0.32052337032E+04  0.00000000000E+00 0. -1.
         -2   -1    0    0    0  501 -0.00000000000E+00 -0.00000000000E+00 -0.85122784360E+03  0.85122784360E+03  0.00000000000E+00 0.  1.
         23    2    1    2    0    0  0.37679837866E+03  0.63132081283E+03 -0.55397033683E+03  0.92507172965E+03  0.91277511114E+02 0.  0.
        254    2    1    2    0    0 -0.37679837866E+03 -0.63132081283E+03  0.29079761965E+04  0.31313898172E+04  0.89929619210E+03 0.  0.
        -24    2    4    4    0    0 -0.26079787254E+03 -0.72133720412E+03  0.28534199565E+04  0.29558170605E+04  0.80660737292E+02 0.  0.
         24    2    4    4    0    0 -0.11600050612E+03  0.90016391285E+02  0.54556239965E+02  0.17557275670E+03  0.79311672901E+02 0.  0.
         13    1    3    3    0    0  0.11195722977E+03  0.19344567754E+03 -0.11767908084E+03  0.25259457145E+03  0.00000000000E+00 0. -1.
        -13    1    3    3    0    0  0.26484114889E+03  0.43787513529E+03 -0.43629125599E+03  0.67247715820E+03  0.00000000000E+00 0.  1.
          4    1    6    6  502    0 -0.86963283229E+02  0.19585891188E+02  0.41309668895E+02  0.98248198496E+02  0.00000000000E+00 0. -1.
          1    1    5    5  503    0 -0.16939451232E+02 -0.13162340643E+03  0.52864883925E+03  0.54505161349E+03  0.00000000000E+00 0. -1.
         -2    1    5    5    0  503 -0.24385842131E+03 -0.58971379769E+03  0.23247711173E+04  0.24107654470E+04  0.00000000000E+00 0.  1.
         -3    1    6    6    0  502 -0.29037222889E+02  0.70430500097E+02  0.13246571070E+02  0.77324558208E+02  0.00000000000E+00 0.  1.
<mgrwt>
<rscale>  0 0.33035642E+04</rscale>
<asrwt>0</asrwt>
<pdfrwt beam="1">  1        2 0.49311287E+00 0.33035642E+04</pdfrwt>
<pdfrwt beam="2">  1       -2 0.13095813E+00 0.33035642E+04</pdfrwt>
<totfact> 0.45747995E-01</totfact>
</mgrwt>
</event>
<event>
12    1  0.1556559E-007  0.1552810E+04  0.7818608E-02  0.8850075E-01
          1   -1    0    0  501    0  0.00000000000E+00  0.00000000000E+00  0.14850504284E+04  0.14850504284E+04  0.00000000000E+00 0. -1.
         -1   -1    0    0    0  501 -0.00000000000E+00 -0.00000000000E+00 -0.40591548900E+03  0.40591548900E+03  0.00000000000E+00 0.  1.
         23    2    1    2    0    0  0.38739987963E+03  0.14515635431E+03  0.75460220371E+03  0.86577614032E+03  0.94840947742E+02 0.  0.
        254    2    1    2    0    0 -0.38739987963E+03 -0.14515635431E+03  0.32453273566E+03  0.10251897771E+04  0.88008155789E+03 0.  0.
        -24    2    4    4    0    0 -0.14252733815E+03 -0.49948520623E+03  0.24596328837E+03  0.58016271509E+03  0.79317863025E+02 0.  0.
         24    2    4    4    0    0 -0.24487254148E+03  0.35432885193E+03  0.78569447290E+02  0.44502706196E+03  0.79777383720E+02 0.  0.
         13    1    3    3    0    0  0.12208018090E+03  0.80441824668E+02  0.32992553327E+03  0.36086744828E+03  0.00000000000E+00 0.  1.
        -13    1    3    3    0    0  0.26531969873E+03  0.64714529638E+02  0.42467667044E+03  0.50490869204E+03  0.00000000000E+00 0. -1.
          2    1    6    6  502    0 -0.53988448055E+02  0.38007171518E+02 -0.50858913257E+01  0.66220570073E+02  0.00000000000E+00 0. -1.
          1    1    5    5  503    0  0.29794944388E+01 -0.97343578534E+02  0.36963104098E+02  0.10416775285E+03  0.00000000000E+00 0. -1.
         -2    1    5    5    0  503 -0.14550683259E+03 -0.40214162770E+03  0.20900018427E+03  0.47599496225E+03  0.00000000000E+00 0.  1.
         -1    1    6    6    0  502 -0.19088409343E+03  0.31632168041E+03  0.83655338615E+02  0.37880649189E+03  0.00000000000E+00 0.  1.
<mgrwt>
<rscale>  0 0.15528103E+04</rscale>
<asrwt>0</asrwt>
<pdfrwt beam="1">  1        1 0.22846929E+00 0.15528103E+04</pdfrwt>
<pdfrwt beam="2">  1       -1 0.62448538E-01 0.15528103E+04</pdfrwt>
<totfact> 0.16783932E+01</totfact>
</mgrwt>
</event>
<event>
12    1  0.1556559E-007  0.1517090E+04  0.7818608E-02  0.8873167E-01
         -2   -1    0    0    0  501 -0.00000000000E+00  0.00000000000E+00  0.60421483069E+03  0.60421483069E+03  0.00000000000E+00 0.  1.
          2   -1    0    0  501    0  0.00000000000E+00 -0.00000000000E+00 -0.95229428768E+03  0.95229428768E+03  0.00000000000E+00 0. -1.
         23    2    1    2    0    0 -0.27473659273E+03  0.70896680594E+02  0.28785218570E+03  0.41494099230E+03  0.93864858058E+02 0.  0.
        254    2    1    2    0    0  0.27473659273E+03 -0.70896680594E+02 -0.63593164269E+03  0.11415681261E+04  0.90457846402E+03 0.  0.
        -24    2    4    4    0    0 -0.82862861238E+02  0.22783112231E+03  0.94149669459E+02  0.27181246355E+03  0.79022661413E+02 0.  0.
         24    2    4    4    0    0  0.35759945397E+03 -0.29872780290E+03 -0.73008131215E+03  0.86975566252E+03  0.79627384869E+02 0.  0.
         13    1    3    3    0    0 -0.27182565025E+03  0.84263478440E+02  0.27964809103E+03  0.39898943940E+03  0.00000000000E+00 0.  1.
        -13    1    3    3    0    0 -0.29109424776E+01 -0.13366797846E+02  0.82040946640E+01  0.15951552903E+02  0.00000000000E+00 0. -1.
          2    1    6    6  502    0  0.31833471186E+03 -0.27066027056E+03 -0.69161208573E+03  0.80803542495E+03  0.00000000000E+00 0. -1.
          1    1    5    5  503    0 -0.18178802355E+02  0.15159240371E+03  0.74633105907E+02  0.16994359716E+03  0.00000000000E+00 0. -1.
         -2    1    5    5    0  503 -0.64684058883E+02  0.76238718601E+02  0.19516563552E+02  0.10186886639E+03  0.00000000000E+00 0.  1.
         -1    1    6    6    0  502  0.39264742110E+02 -0.28067532340E+02 -0.38469226421E+02  0.61720237573E+02  0.00000000000E+00 0.  1.
<mgrwt>
<rscale>  0 0.15170898E+04</rscale>
<asrwt>0</asrwt>
<pdfrwt beam="1">  1        2 0.14650681E+00 0.15170898E+04</pdfrwt>
<pdfrwt beam="2">  1       -2 0.92956128E-01 0.15170898E+04</pdfrwt>
<totfact> 0.25605178E+01</totfact>
</mgrwt>
</event>
<event>
12    1  0.1556559E-007  0.1817613E+04  0.7818608E-02  0.8696989E-01
          2   -1    0    0  501    0  0.00000000000E+00  0.00000000000E+00  0.12387771674E+04  0.12387771674E+04  0.00000000000E+00 0. -1.
         -2   -1    0    0    0  501 -0.00000000000E+00 -0.00000000000E+00 -0.66672956301E+03  0.66672956301E+03  0.00000000000E+00 0.  1.
         23    2    1    2    0    0  0.15278508259E+03  0.16957136243E+03  0.90064864719E+03  0.93357695436E+03  0.91105519123E+02 0.  0.
        254    2    1    2    0    0 -0.15278508259E+03 -0.16957136243E+03 -0.32860104277E+03  0.97192977607E+03  0.88576019096E+03 0.  0.
        -24    2    4    4    0    0  0.12403713595E+02  0.26239802418E+03  0.14105433828E+03  0.30835838617E+03  0.78625649577E+02 0.  0.
         24    2    4    4    0    0 -0.16518879619E+03 -0.43196938661E+03 -0.46965538105E+03  0.66357138990E+03  0.76589315083E+02 0.  0.
         11    1    3    3    0    0  0.11453249855E+03  0.10544047024E+03  0.74304687277E+03  0.75917984768E+03  0.00000000000E+00 0. -1.
        -11    1    3    3    0    0  0.38252584041E+02  0.64130892198E+02  0.15760177441E+03  0.17439710668E+03  0.00000000000E+00 0.  1.
          4    1    6    6  502    0 -0.89192079140E+02 -0.15565099658E+03 -0.21672160381E+03  0.28133736559E+03  0.00000000000E+00 0. -1.
          3    1    5    5  503    0 -0.23863824511E+01  0.25517979331E+03  0.14169155863E+03  0.29188853955E+03  0.00000000000E+00 0. -1.
         -4    1    5    5    0  503  0.14790096046E+02  0.72182308686E+01 -0.63722034897E+00  0.16469846621E+02  0.00000000000E+00 0.  1.
         -3    1    6    6    0  502 -0.75996717048E+02 -0.27631839003E+03 -0.25293377724E+03  0.38223402431E+03  0.00000000000E+00 0.  1.
<mgrwt>
<rscale>  0 0.18176131E+04</rscale>
<asrwt>0</asrwt>
<pdfrwt beam="1">  1        2 0.19058110E+00 0.18176131E+04</pdfrwt>
<pdfrwt beam="2">  1       -2 0.10257378E+00 0.18176131E+04</pdfrwt>
<totfact> 0.13165940E+01</totfact>
</mgrwt>
</event>
<event>
12    1  0.1556559E-007  0.1505536E+04  0.7818608E-02  0.8880780E-01
         -2   -1    0    0    0  501 -0.00000000000E+00  0.00000000000E+00  0.37363696019E+03  0.37363696019E+03  0.00000000000E+00 0.  1.
          2   -1    0    0  501    0  0.00000000000E+00 -0.00000000000E+00 -0.15166053327E+04  0.15166053327E+04  0.00000000000E+00 0. -1.
         23    2    1    2    0    0  0.29127835762E+03  0.22422239834E+03  0.11831365350E+02  0.37749579277E+03  0.85113611235E+02 0.  0.
        254    2    1    2    0    0 -0.29127835762E+03 -0.22422239834E+03 -0.11547997379E+04  0.15127465001E+04  0.90538432367E+03 0.  0.
        -24    2    4    4    0    0 -0.42267009843E+03  0.40377490076E+02 -0.14201634449E+03  0.45469281585E+03  0.79350871927E+02 0.  0.
         24    2    4    4    0    0  0.13139174081E+03 -0.26459988842E+03 -0.10127833934E+04  0.10580536843E+04  0.80439458032E+02 0.  0.
         11    1    3    3    0    0  0.21464885091E+03  0.12145542069E+03  0.28315563026E+02  0.24824850357E+03  0.00000000000E+00 0.  1.
        -11    1    3    3    0    0  0.76629506708E+02  0.10276697765E+03 -0.16484197676E+02  0.12924728920E+03  0.00000000000E+00 0. -1.
          2    1    6    6  502    0  0.46007910835E+02 -0.16219132337E+03 -0.47655945545E+03  0.50550140238E+03  0.00000000000E+00 0. -1.
          3    1    5    5  503    0  0.93397693416E-01 -0.35395803779E+01  0.39352400513E+01  0.52937195470E+01  0.00000000000E+00 0. -1.
         -4    1    5    5    0  503 -0.42276349612E+03  0.43917070454E+02 -0.14595158454E+03  0.44939909630E+03  0.00000000000E+00 0.  1.
         -1    1    6    6    0  502  0.85383829972E+02 -0.10240856504E+03 -0.53622393793E+03  0.55255228190E+03  0.00000000000E+00 0.  1.
<mgrwt>
<rscale>  0 0.15055362E+04</rscale>
<asrwt>0</asrwt>
<pdfrwt beam="1">  1        2 0.23332390E+00 0.15055362E+04</pdfrwt>
<pdfrwt beam="2">  1       -2 0.57482609E-01 0.15055362E+04</pdfrwt>
<totfact> 0.34006584E+01</totfact>
</mgrwt>
</event>
<event>
12    1  0.1556559E-007  0.2170178E+04  0.7818608E-02  0.8530944E-01
         -1   -1    0    0    0  501 -0.00000000000E+00  0.00000000000E+00  0.12152699240E+04  0.12152699240E+04  0.00000000000E+00 0.  1.
          1   -1    0    0  501    0  0.00000000000E+00 -0.00000000000E+00 -0.96885348460E+03  0.96885348460E+03  0.00000000000E+00 0. -1.
         23    2    1    2    0    0 -0.89704361835E+02  0.59245314249E+03 -0.56395068162E+03  0.82816210488E+03  0.93618919508E+02 0.  0.
        254    2    1    2    0    0  0.89704361835E+02 -0.59245314249E+03  0.81036712100E+03  0.13559613037E+04  0.90713206742E+03 0.  0.
        -24    2    4    4    0    0  0.17138904053E+03  0.18057829310E+03  0.38787885554E+03  0.46762081770E+03  0.78971510219E+02 0.  0.
         24    2    4    4    0    0 -0.81684678692E+02 -0.77303143559E+03  0.42248826546E+03  0.88834048599E+03  0.80015607552E+02 0.  0.
         13    1    3    3    0    0 -0.35971815294E+02  0.10070098825E+03 -0.62901527561E+02  0.12406152788E+03  0.00000000000E+00 0.  1.
        -13    1    3    3    0    0 -0.53732546541E+02  0.49175215424E+03 -0.50104915406E+03  0.70410057700E+03  0.00000000000E+00 0. -1.
          4    1    6    6  502    0 -0.40773446905E+02 -0.30876417440E+03  0.21327552797E+03  0.37747084681E+03  0.00000000000E+00 0. -1.
          3    1    5    5  503    0  0.38888631759E+02  0.35161070588E+02  0.33259144907E+02  0.62087013819E+02  0.00000000000E+00 0. -1.
         -4    1    5    5    0  503  0.13250040877E+03  0.14541722251E+03  0.35461971063E+03  0.40553380388E+03  0.00000000000E+00 0.  1.
         -3    1    6    6    0  502 -0.40911231787E+02 -0.46426726119E+03  0.20921273749E+03  0.51086963917E+03  0.00000000000E+00 0.  1.
<mgrwt>
<rscale>  0 0.21701783E+04</rscale>
<asrwt>0</asrwt>
<pdfrwt beam="1">  1        1 0.14905438E+00 0.21701783E+04</pdfrwt>
<pdfrwt beam="2">  1       -1 0.18696460E+00 0.21701783E+04</pdfrwt>
<totfact> 0.27166483E+00</totfact>
</mgrwt>
</event>
<event>
12    1  0.1556559E-007  0.1906542E+04  0.7818608E-02  0.8651607E-01
          2   -1    0    0  501    0  0.00000000000E+00  0.00000000000E+00  0.21634784863E+04  0.21634784863E+04  0.00000000000E+00 0.  1.
         -2   -1    0    0    0  501 -0.00000000000E+00 -0.00000000000E+00 -0.42002992728E+03  0.42002992728E+03  0.00000000000E+00 0. -1.
         23    2    1    2    0    0 -0.17388549269E+03  0.55503607271E+03  0.13141855901E+04  0.14399582051E+04  0.89970331669E+02 0.  0.
        254    2    1    2    0    0  0.17388549269E+03 -0.55503607271E+03  0.42926296891E+03  0.11435502085E+04  0.88608079555E+03 0.  0.
        -24    2    4    4    0    0 -0.20321862160E+03 -0.62971636591E+03  0.24746710380E+03  0.71092555162E+03  0.79590595087E+02 0.  0.
         24    2    4    4    0    0  0.37710411429E+03  0.74680293202E+02  0.18179586511E+03  0.43262465685E+03  0.79559398805E+02 0.  0.
         13    1    3    3    0    0 -0.16731195088E+03  0.54974355359E+03  0.13100937548E+04  0.14305792218E+04  0.00000000000E+00 0.  1.
        -13    1    3    3    0    0 -0.65735418095E+01  0.52925191172E+01  0.40918353200E+01  0.93789832505E+01  0.00000000000E+00 0. -1.
          4    1    6    6  502    0  0.21588637549E+03  0.77616185664E+02  0.85591782799E+02  0.24486149693E+03  0.00000000000E+00 0. -1.
          3    1    5    5  503    0 -0.70482088763E+02 -0.20830838397E+03  0.12271819777E+03  0.25183300764E+03  0.00000000000E+00 0. -1.
         -4    1    5    5    0  503 -0.13273653283E+03 -0.42140798194E+03  0.12474890603E+03  0.45909254399E+03  0.00000000000E+00 0.  1.
         -3    1    6    6    0  502  0.16121773880E+03 -0.29358924620E+01  0.96204082310E+02  0.18776315992E+03  0.00000000000E+00 0.  1.
<mgrwt>
<rscale>  0 0.19065421E+04</rscale>
<asrwt>0</asrwt>
<pdfrwt beam="1">  1        2 0.33284284E+00 0.19065421E+04</pdfrwt>
<pdfrwt beam="2">  1       -2 0.64619990E-01 0.19065421E+04</pdfrwt>
<totfact> 0.11204939E+01</totfact>
</mgrwt>
</event>
<event>
12    1  0.1556559E-007  0.1941204E+04  0.7818608E-02  0.8634614E-01
         -1   -1    0    0    0  501 -0.00000000000E+00  0.00000000000E+00  0.13047460516E+04  0.13047460516E+04  0.00000000000E+00 0.  1.
          1   -1    0    0  501    0  0.00000000000E+00 -0.00000000000E+00 -0.72203187895E+03  0.72203187895E+03  0.00000000000E+00 0. -1.
         23    2    1    2    0    0 -0.25135956932E+03  0.95070082818E+02 -0.47609633546E+03  0.55411075684E+03  0.90283201516E+02 0.  0.
        254    2    1    2    0    0  0.25135956932E+03 -0.95070082818E+02  0.10588105081E+04  0.14726671737E+04  0.98764819581E+03 0.  0.
        -24    2    4    4    0    0 -0.13080010268E+03 -0.46080398282E+03  0.56083194238E+03  0.74146566830E+03  0.76091341385E+02 0.  0.
         24    2    4    4    0    0  0.38215967199E+03  0.36573390000E+03  0.49797856572E+03  0.73120150540E+03  0.82859453703E+02 0.  0.
         11    1    3    3    0    0  0.69952911960E+01  0.76488582362E+01 -0.23520248158E+02  0.25702941556E+02  0.00000000000E+00 0.  1.
        -11    1    3    3    0    0 -0.25835486051E+03  0.87421224582E+02 -0.45257608730E+03  0.52840781529E+03  0.00000000000E+00 0. -1.
          4    1    6    6  502    0  0.27564056019E+02  0.23465787163E+02  0.68562284339E+02  0.77531975244E+02  0.00000000000E+00 0. -1.
          1    1    5    5  503    0 -0.76383834610E+02 -0.18087781407E+03  0.18570760801E+03  0.27025652534E+03  0.00000000000E+00 0. -1.
         -2    1    5    5    0  503 -0.54416268067E+02 -0.27992616875E+03  0.37512433436E+03  0.47120914296E+03  0.00000000000E+00 0.  1.
         -3    1    6    6    0  502  0.35459561597E+03  0.34226811284E+03  0.42941628138E+03  0.65366953015E+03  0.00000000000E+00 0.  1.
<mgrwt>
<rscale>  0 0.19412040E+04</rscale>
<asrwt>0</asrwt>
<pdfrwt beam="1">  1        1 0.11108183E+00 0.19412040E+04</pdfrwt>
<pdfrwt beam="2">  1       -1 0.20073016E+00 0.19412040E+04</pdfrwt>
<totfact> 0.36030812E+00</totfact>
</mgrwt>
</event>
<event>
12    1  0.1556559E-007  0.2733908E+04  0.7818608E-02  0.8324086E-01
          2   -1    0    0  501    0  0.00000000000E+00  0.00000000000E+00  0.29828144923E+04  0.29828144923E+04  0.00000000000E+00 0. -1.
         -2   -1    0    0    0  501 -0.00000000000E+00 -0.00000000000E+00 -0.62644317336E+03  0.62644317336E+03  0.00000000000E+00 0.  1.
         23    2    1    2    0    0 -0.51012037902E+03 -0.30268457947E+03 -0.35085574288E+03  0.69526435003E+03  0.91934805036E+02 0.  0.
        254    2    1    2    0    0  0.51012037902E+03  0.30268457947E+03  0.27072270618E+04  0.29139933156E+04  0.90024325797E+03 0.  0.
        -24    2    4    4    0    0  0.71768724865E+03  0.33613851844E+03  0.24301546062E+04  0.25572584406E+04  0.76519486273E+02 0.  0.
         24    2    4    4    0    0 -0.20756686963E+03 -0.33453938972E+02  0.27707245560E+03  0.35673487496E+03  0.79293467324E+02 0.  0.
         11    1    3    3    0    0 -0.97864283311E+02 -0.33604782408E+02 -0.30371390644E+02  0.10783840095E+03  0.00000000000E+00 0. -1.
        -11    1    3    3    0    0 -0.41225609571E+03 -0.26907979706E+03 -0.32048435223E+03  0.58742594909E+03  0.00000000000E+00 0.  1.
          4    1    6    6  502    0 -0.15592365117E+03 -0.56853968240E+02  0.18434717519E+03  0.24804926869E+03  0.00000000000E+00 0. -1.
          1    1    5    5  503    0  0.53882059831E+03  0.27789314490E+03  0.19252629150E+04  0.20184621693E+04  0.00000000000E+00 0. -1.
         -2    1    5    5    0  503  0.17886665034E+03  0.58245373538E+02  0.50489169118E+03  0.53879627130E+03  0.00000000000E+00 0.  1.
         -3    1    6    6    0  502 -0.51643218458E+02  0.23400029268E+02  0.92725280405E+02  0.10868560626E+03  0.00000000000E+00 0.  1.
<mgrwt>
<rscale>  0 0.27339084E+04</rscale>
<asrwt>0</asrwt>
<pdfrwt beam="1">  1        2 0.45889453E+00 0.27339084E+04</pdfrwt>
<pdfrwt beam="2">  1       -2 0.96375874E-01 0.27339084E+04</pdfrwt>
<totfact> 0.14066517E+00</totfact>
</mgrwt>
</event>
<event>
12    1  0.1556559E-007  0.2306650E+04  0.7818608E-02  0.8475304E-01
          2   -1    0    0  501    0  0.00000000000E+00  0.00000000000E+00  0.24873301691E+04  0.24873301691E+04  0.00000000000E+00 0. -1.
         -2   -1    0    0    0  501 -0.00000000000E+00 -0.00000000000E+00 -0.53477385007E+03  0.53477385007E+03  0.00000000000E+00 0.  1.
         23    2    1    2    0    0  0.92033750004E+03  0.21217627367E+03  0.11114739168E+04  0.14627073042E+04  0.10999320429E+03 0.  0.
        254    2    1    2    0    0 -0.92033750004E+03 -0.21217627367E+03  0.84108240221E+03  0.15593967149E+04  0.91228209570E+03 0.  0.
        -24    2    4    4    0    0 -0.62800413828E+03 -0.47113590880E+03  0.21618018661E+03  0.81789809935E+03  0.76584499570E+02 0.  0.
         24    2    4    4    0    0 -0.29233336176E+03  0.25895963513E+03  0.62490221561E+03  0.74149861558E+03  0.82453203789E+02 0.  0.
         13    1    3    3    0    0  0.66386409587E+03  0.13943212009E+03  0.86835881756E+03  0.11019092022E+04  0.00000000000E+00 0. -1.
        -13    1    3    3    0    0  0.25647340417E+03  0.72744153589E+02  0.24311509924E+03  0.36079810200E+03  0.00000000000E+00 0.  1.
          2    1    6    6  502    0 -0.24266958673E+03  0.21306071785E+03  0.56681139234E+03  0.65234848992E+03  0.00000000000E+00 0. -1.
          1    1    5    5  503    0 -0.58862326242E+03 -0.41622097135E+03  0.19103991363E+03  0.74579721819E+03  0.00000000000E+00 0. -1.
         -2    1    5    5    0  503 -0.39380875860E+02 -0.54914937455E+02  0.25140272974E+02  0.72100881162E+02  0.00000000000E+00 0.  1.
         -1    1    6    6    0  502 -0.49663775032E+02  0.45898917277E+02  0.58090823266E+02  0.89150125661E+02  0.00000000000E+00 0.  1.
<mgrwt>
<rscale>  0 0.23066505E+04</rscale>
<asrwt>0</asrwt>
<pdfrwt beam="1">  1        2 0.38266617E+00 0.23066505E+04</pdfrwt>
<pdfrwt beam="2">  1       -2 0.82272901E-01 0.23066505E+04</pdfrwt>
<totfact> 0.41625520E+00</totfact>
</mgrwt>
</event>
<event>
12    1  0.1556559E-007  0.2197983E+04  0.7818608E-02  0.8519268E-01
         -1   -1    0    0    0  501 -0.00000000000E+00  0.00000000000E+00  0.10239667313E+04  0.10239667313E+04  0.00000000000E+00 0.  1.
          1   -1    0    0  501    0  0.00000000000E+00 -0.00000000000E+00 -0.11795135966E+04  0.11795135966E+04  0.00000000000E+00 0. -1.
         23    2    1    2    0    0 -0.53494153631E+03  0.59885074668E+03 -0.48724011156E+03  0.94458966193E+03  0.10030971563E+03 0.  0.
        254    2    1    2    0    0  0.53494153631E+03 -0.59885074668E+03  0.33169324629E+03  0.12588906660E+04  0.91104370654E+03 0.  0.
        -24    2    4    4    0    0  0.67181807915E+03 -0.66673543801E+03  0.79640086516E+02  0.95317542911E+03  0.79530997153E+02 0.  0.
         24    2    4    4    0    0 -0.13687654284E+03  0.67884691332E+02  0.25205315978E+03  0.30571523689E+03  0.81163362511E+02 0.  0.
         11    1    3    3    0    0 -0.42666190221E+03  0.42057625596E+03 -0.33544678445E+03  0.68662166517E+03  0.00000000000E+00 0. -1.
        -11    1    3    3    0    0 -0.10827963410E+03  0.17827449071E+03 -0.15179332711E+03  0.25796799676E+03  0.00000000000E+00 0.  1.
          4    1    6    6  502    0 -0.13377502103E+03  0.34343921553E+02  0.21594778360E+03  0.25633709533E+03  0.00000000000E+00 0. -1.
          3    1    5    5  503    0  0.43343363038E+03 -0.37552848439E+03  0.51155369321E+02  0.57576316862E+03  0.00000000000E+00 0. -1.
         -4    1    5    5    0  503  0.23838444877E+03 -0.29120695362E+03  0.28484717194E+02  0.37741226049E+03  0.00000000000E+00 0.  1.
         -1    1    6    6    0  502 -0.31015218084E+01  0.33540769779E+02  0.36105376176E+02  0.49378141558E+02  0.00000000000E+00 0.  1.
<mgrwt>
<rscale>  0 0.21979833E+04</rscale>
<asrwt>0</asrwt>
<pdfrwt beam="1">  1        1 0.18146363E+00 0.21979833E+04</pdfrwt>
<pdfrwt beam="2">  1       -1 0.15753334E+00 0.21979833E+04</pdfrwt>
<totfact> 0.30784947E+00</totfact>
</mgrwt>
</event>
<event>
12    1  0.1706122E-007  0.2152451E+04  0.7818608E-02  0.8538484E-01
         -2   -1    0    0    0  501 -0.00000000000E+00  0.00000000000E+00  0.74321053951E+03  0.74321053951E+03  0.00000000000E+00 0. -1.
          2   -1    0    0  501    0  0.00000000000E+00 -0.00000000000E+00 -0.15584562618E+04  0.15584562618E+04  0.00000000000E+00 0.  1.
         23    2    1    2    0    0 -0.69513073039E+03 -0.54328676349E+03 -0.28402553320E+03  0.93134520756E+03  0.91466673852E+02 0.  0.
        254    2    1    2    0    0  0.69513073039E+03  0.54328676349E+03 -0.53122018913E+03  0.13703215938E+04  0.90400173748E+03 0.  0.
        -24    2    4    4    0    0  0.66868686515E+03  0.71393159976E+03 -0.62073670695E+03  0.11616312834E+04  0.85045436889E+02 0.  0.
         24    2    4    4    0    0  0.26443865238E+02 -0.17064483628E+03  0.89516517825E+02  0.20869031044E+03  0.75627379650E+02 0.  0.
         11    1    3    3    0    0 -0.35924662007E+02 -0.30265049649E+02 -0.38392931340E+02  0.60667715858E+02  0.00000000000E+00 0.  1.
        -11    1    3    3    0    0 -0.65920606839E+03 -0.51302171384E+03 -0.24563260186E+03  0.87067749170E+03  0.00000000000E+00 0. -1.
          2    1    6    6  502    0 -0.50440271850E+00 -0.36300433739E+02  0.57463251704E+02  0.67970590759E+02  0.00000000000E+00 0. -1.
          1    1    5    5  503    0  0.58310301145E+02  0.61103691279E+02 -0.83995207397E+02  0.11911736722E+03  0.00000000000E+00 0. -1.
         -4    1    5    5    0  503  0.61037656401E+03  0.65282790848E+03 -0.53674149955E+03  0.10425139161E+04  0.00000000000E+00 0.  1.
         -1    1    6    6    0  502  0.26948267957E+02 -0.13434440254E+03  0.32053266121E+02  0.14071971968E+03  0.00000000000E+00 0.  1.
<mgrwt>
<rscale>  0 0.21524508E+04</rscale>
<asrwt>0</asrwt>
<pdfrwt beam="1">  1        2 0.23976250E+00 0.21524508E+04</pdfrwt>
<pdfrwt beam="2">  1       -2 0.11434008E+00 0.21524508E+04</pdfrwt>
<totfact> 0.64575636E+00</totfact>
</mgrwt>
</event>
<event>
12    1  0.1556559E-007  0.1654768E+04  0.7818608E-02  0.8787591E-01
          2   -1    0    0  501    0  0.00000000000E+00  0.00000000000E+00  0.10670920879E+04  0.10670920879E+04  0.00000000000E+00 0. -1.
         -2   -1    0    0    0  501 -0.00000000000E+00 -0.00000000000E+00 -0.64152347307E+03  0.64152347307E+03  0.00000000000E+00 0.  1.
         23    2    1    2    0    0 -0.23522872968E+03  0.15234373785E+03  0.66506745940E+03  0.72742854593E+03  0.91084544023E+02 0.  0.
        254    2    1    2    0    0  0.23522872968E+03 -0.15234373785E+03 -0.23949884458E+03  0.98118701502E+03  0.90930033112E+03 0.  0.
        -24    2    4    4    0    0  0.55887242746E+03 -0.21007433370E+03 -0.22494108662E+03  0.64316529466E+03  0.81200295229E+02 0.  0.
         24    2    4    4    0    0 -0.32364369779E+03  0.57730595851E+02 -0.14557757963E+02  0.33802172036E+03  0.77257299381E+02 0.  0.
         11    1    3    3    0    0 -0.80466497020E+02  0.46982496474E+02  0.33755764206E+03  0.35018191534E+03  0.00000000000E+00 0. -1.
        -11    1    3    3    0    0 -0.15476223266E+03  0.10536124138E+03  0.32750981734E+03  0.37724663060E+03  0.00000000000E+00 0.  1.
          2    1    6    6  502    0 -0.22888414205E+03  0.35651757412E+02  0.25001491737E+02  0.23298942654E+03  0.00000000000E+00 0. -1.
          1    1    5    5  503    0  0.21314923843E+03 -0.74921947347E+02 -0.12733489550E+03  0.25934546776E+03  0.00000000000E+00 0. -1.
         -2    1    5    5    0  503  0.34572318904E+03 -0.13515238636E+03 -0.97606191118E+02  0.38381982690E+03  0.00000000000E+00 0.  1.
         -1    1    6    6    0  502 -0.94759555735E+02  0.22078838439E+02 -0.39559249700E+02  0.10503229383E+03  0.00000000000E+00 0.  1.
<mgrwt>
<rscale>  0 0.16547684E+04</rscale>
<asrwt>0</asrwt>
<pdfrwt beam="1">  1        2 0.16416801E+00 0.16547684E+04</pdfrwt>
<pdfrwt beam="2">  1       -2 0.98695919E-01 0.16547684E+04</pdfrwt>
<totfact> 0.18584538E+01</totfact>
</mgrwt>
</event>
<event>
12    1  0.1556559E-007  0.1200947E+04  0.7818608E-02  0.9112028E-01
          2   -1    0    0  501    0  0.00000000000E+00  0.00000000000E+00  0.27808644500E+04  0.27808644500E+04  0.00000000000E+00 0. -1.
         -2   -1    0    0    0  501 -0.00000000000E+00 -0.00000000000E+00 -0.12966056426E+03  0.12966056426E+03  0.00000000000E+00 0.  1.
         23    2    1    2    0    0  0.16008883429E+03 -0.33284812494E+02  0.10319183836E+04  0.10485111502E+04  0.88225666418E+02 0.  0.
        254    2    1    2    0    0 -0.16008883429E+03  0.33284812494E+02  0.16192855022E+04  0.18620138640E+04  0.90458486538E+03 0.  0.
        -24    2    4    4    0    0  0.70472369628E+02 -0.29482729825E+03  0.17091712083E+03  0.35694271261E+03  0.79409994441E+02 0.  0.
         24    2    4    4    0    0 -0.23056120392E+03  0.32811211074E+03  0.14483683813E+04  0.15050711514E+04  0.81560877833E+02 0.  0.
         13    1    3    3    0    0  0.12541275019E+03  0.59843144170E+01  0.84917489228E+03  0.85840676116E+03  0.00000000000E+00 0. -1.
        -13    1    3    3    0    0  0.34676084093E+02 -0.39269126911E+02  0.18274349127E+03  0.19010438906E+03  0.00000000000E+00 0.  1.
          4    1    6    6  502    0 -0.23144011853E+03  0.30975299709E+03  0.14160398667E+04  0.14678829490E+04  0.00000000000E+00 0. -1.
          3    1    5    5  503    0  0.61902673146E+02 -0.29124766801E+03  0.17647230128E+03  0.34612081443E+03  0.00000000000E+00 0. -1.
         -4    1    5    5    0  503  0.85696964822E+01 -0.35796302392E+01 -0.55551804433E+01  0.10821898179E+02  0.00000000000E+00 0.  1.
         -3    1    6    6    0  502  0.87891461597E+00  0.18359113654E+02  0.32328514586E+02  0.37188202436E+02  0.00000000000E+00 0.  1.
<mgrwt>
<rscale>  0 0.12009470E+04</rscale>
<asrwt>0</asrwt>
<pdfrwt beam="1">  1        2 0.42782526E+00 0.12009470E+04</pdfrwt>
<pdfrwt beam="2">  1       -2 0.19947781E-01 0.12009470E+04</pdfrwt>
<totfact> 0.50852487E+01</totfact>
</mgrwt>
</event>
<event>
12    1  0.1556559E-007  0.1844504E+04  0.7818608E-02  0.8682984E-01
         -2   -1    0    0    0  501 -0.00000000000E+00  0.00000000000E+00  0.75758867037E+03  0.75758867037E+03  0.00000000000E+00 0.  1.
          2   -1    0    0  501    0  0.00000000000E+00 -0.00000000000E+00 -0.11227055459E+04  0.11227055459E+04  0.00000000000E+00 0. -1.
         23    2    1    2    0    0 -0.63402416693E+03  0.22774127148E+03 -0.30769028511E+03  0.74623234454E+03  0.91305363996E+02 0.  0.
        254    2    1    2    0    0  0.63402416693E+03 -0.22774127148E+03 -0.57426590382E+02  0.11340618717E+04  0.91046459819E+03 0.  0.
        -24    2    4    4    0    0 -0.60472357825E+01  0.77331346504E+02  0.31141232602E+03  0.33061719873E+03  0.79456837914E+02 0.  0.
         24    2    4    4    0    0  0.64007140271E+03 -0.30507261799E+03 -0.36883891640E+03  0.80344467296E+03  0.81978615756E+02 0.  0.
         11    1    3    3    0    0 -0.41711580836E+03  0.15474109864E+03 -0.24953487620E+03  0.51009612784E+03  0.00000000000E+00 0. -1.
        -11    1    3    3    0    0 -0.21690835857E+03  0.73000172843E+02 -0.58155408908E+02  0.23613621670E+03  0.00000000000E+00 0.  1.
          2    1    6    6  502    0  0.53385014656E+03 -0.22500059673E+03 -0.27966176710E+03  0.64329771606E+03  0.00000000000E+00 0. -1.
          1    1    5    5  503    0 -0.41367500927E+02  0.45409337805E+02  0.14369841692E+03  0.15627703963E+03  0.00000000000E+00 0. -1.
         -4    1    5    5    0  503  0.35320265144E+02  0.31922008699E+02  0.16771390910E+03  0.17434015910E+03  0.00000000000E+00 0.  1.
         -1    1    6    6    0  502  0.10622125615E+03 -0.80072021257E+02 -0.89177149302E+02  0.16014695690E+03  0.00000000000E+00 0.  1.
<mgrwt>
<rscale>  0 0.18445043E+04</rscale>
<asrwt>0</asrwt>
<pdfrwt beam="1">  1        2 0.17272393E+00 0.18445043E+04</pdfrwt>
<pdfrwt beam="2">  1       -2 0.11655210E+00 0.18445043E+04</pdfrwt>
<totfact> 0.11325901E+01</totfact>
</mgrwt>
</event>
<event>
12    1  0.1556559E-007  0.1356162E+04  0.7818608E-02  0.8986177E-01
         -2   -1    0    0    0  501 -0.00000000000E+00  0.00000000000E+00  0.36814496240E+03  0.36814496240E+03  0.00000000000E+00 0.  1.
          2   -1    0    0  501    0  0.00000000000E+00 -0.00000000000E+00 -0.12489480632E+04  0.12489480632E+04  0.00000000000E+00 0. -1.
         23    2    1    2    0    0  0.10553521863E+03  0.21295339403E+03  0.10123029892E+03  0.26490958417E+03  0.58674389374E+02 0.  0.
        254    2    1    2    0    0 -0.10553521863E+03 -0.21295339403E+03 -0.98203339970E+03  0.13521834414E+04  0.89862318614E+03 0.  0.
        -24    2    4    4    0    0 -0.92317951355E+02 -0.38241206925E+03 -0.10715824675E+04  0.11443068578E+04  0.79922495465E+02 0.  0.
         24    2    4    4    0    0 -0.13217267275E+02  0.16945867522E+03  0.89549067778E+02  0.20787658363E+03  0.79389544138E+02 0.  0.
         11    1    3    3    0    0  0.75583411507E+02  0.88707540012E+02  0.40195180885E+02  0.12327827187E+03  0.00000000000E+00 0. -1.
        -11    1    3    3    0    0  0.29951807123E+02  0.12424585402E+03  0.61035118034E+02  0.14163131230E+03  0.00000000000E+00 0.  1.
          2    1    6    6  502    0 -0.32836420345E+02  0.14910573722E+03  0.52882302694E+02  0.16157750249E+03  0.00000000000E+00 0. -1.
          1    1    5    5  503    0 -0.90682432970E+02 -0.38642198699E+03 -0.10631496269E+04  0.11348270286E+04  0.00000000000E+00 0. -1.
         -2    1    5    5    0  503 -0.16355183852E+01  0.40099177424E+01 -0.84328405383E+01  0.94798291247E+01  0.00000000000E+00 0.  1.
         -1    1    6    6    0  502  0.19619153070E+02  0.20352938005E+02  0.36666765084E+02  0.46299081139E+02  0.00000000000E+00 0.  1.
<mgrwt>
<rscale>  0 0.13561621E+04</rscale>
<asrwt>0</asrwt>
<pdfrwt beam="1">  1        2 0.19214586E+00 0.13561621E+04</pdfrwt>
<pdfrwt beam="2">  1       -2 0.56637686E-01 0.13561621E+04</pdfrwt>
<totfact> 0.50567455E+01</totfact>
</mgrwt>
</event>
<event>
12    1  0.1556559E-007  0.2267337E+04  0.7818608E-02  0.8490912E-01
          3   -1    0    0  501    0  0.00000000000E+00  0.00000000000E+00  0.21621442009E+04  0.21621442009E+04  0.00000000000E+00 0. -1.
         -3   -1    0    0    0  501 -0.00000000000E+00 -0.00000000000E+00 -0.59441179755E+03  0.59441179755E+03  0.00000000000E+00 0.  1.
         23    2    1    2    0    0  0.19023411575E+03 -0.66443673986E+03  0.14578024432E+04  0.16162637850E+04  0.97239186391E+02 0.  0.
        254    2    1    2    0    0 -0.19023411575E+03  0.66443673986E+03  0.10992996017E+03  0.11402922134E+04  0.90028691858E+03 0.  0.
        -24    2    4    4    0    0 -0.50036963823E+03  0.25498955542E+03 -0.10848175499E+03  0.57645586985E+03  0.71719108184E+02 0.  0.
         24    2    4    4    0    0  0.31013552248E+03  0.40944718445E+03  0.21841171516E+03  0.56383634357E+03  0.79854278908E+02 0.  0.
         11    1    3    3    0    0  0.82554186509E+02 -0.22913970287E+03  0.41599442143E+03  0.48204932922E+03  0.00000000000E+00 0. -1.
        -11    1    3    3    0    0  0.10767992924E+03 -0.43529703700E+03  0.10418080217E+04  0.11342144558E+04  0.00000000000E+00 0.  1.
          2    1    6    6  502    0  0.92799382331E+02  0.14918962789E+03  0.38009654721E+02  0.17976096429E+03  0.00000000000E+00 0. -1.
          3    1    5    5  503    0 -0.53863069659E+02  0.31471479541E+02 -0.35629937940E+02  0.71841330550E+02  0.00000000000E+00 0. -1.
         -4    1    5    5    0  503 -0.44650656857E+03  0.22351807587E+03 -0.72851817051E+02  0.50461453929E+03  0.00000000000E+00 0.  1.
         -1    1    6    6    0  502  0.21733614015E+03  0.26025755655E+03  0.18040206044E+03  0.38407537928E+03  0.00000000000E+00 0.  1.
<mgrwt>
<rscale>  0 0.22673368E+04</rscale>
<asrwt>0</asrwt>
<pdfrwt beam="1">  1        3 0.33263756E+00 0.22673368E+04</pdfrwt>
<pdfrwt beam="2">  1       -3 0.91447970E-01 0.22673368E+04</pdfrwt>
<totfact> 0.65373328E-02</totfact>
</mgrwt>
</event>
<event>
12    1  0.1556559E-007  0.2051388E+04  0.7818608E-02  0.8582965E-01
         -1   -1    0    0    0  501 -0.00000000000E+00  0.00000000000E+00  0.49879683159E+03  0.49879683159E+03  0.00000000000E+00 0.  1.
          1   -1    0    0  501    0  0.00000000000E+00 -0.00000000000E+00 -0.21091711424E+04  0.21091711424E+04  0.00000000000E+00 0. -1.
         23    2    1    2    0    0 -0.76483453443E+03 -0.38216980966E+02 -0.26419806623E+03  0.81507680081E+03  0.90095340169E+02 0.  0.
        254    2    1    2    0    0  0.76483453443E+03  0.38216980966E+02 -0.13461762446E+04  0.17928911732E+04  0.90323633383E+03 0.  0.
        -24    2    4    4    0    0  0.53160282436E+03  0.43861334130E+02 -0.14333290596E+04  0.15313830069E+04  0.78589703324E+02 0.  0.
         24    2    4    4    0    0  0.23323171007E+03 -0.56443531636E+01  0.87152814929E+02  0.26150816629E+03  0.79762262891E+02 0.  0.
         13    1    3    3    0    0 -0.69381310633E+03 -0.60745376322E+02 -0.23487231277E+03  0.73500451058E+03  0.00000000000E+00 0. -1.
        -13    1    3    3    0    0 -0.71021428098E+02  0.22528395356E+02 -0.29325753456E+02  0.80072290227E+02  0.00000000000E+00 0.  1.
          2    1    6    6  502    0  0.45307477498E+02  0.18539685743E+02 -0.78029414018E+01  0.49571900903E+02  0.00000000000E+00 0. -1.
          1    1    5    5  503    0  0.11509787151E+02  0.13875997904E+02 -0.41212995275E+02  0.44983658118E+02  0.00000000000E+00 0. -1.
         -2    1    5    5    0  503  0.52009303721E+03  0.29985336226E+02 -0.13921160643E+04  0.14863993488E+04  0.00000000000E+00 0.  1.
         -1    1    6    6    0  502  0.18792423257E+03 -0.24184038907E+02  0.94955756331E+02  0.21193626539E+03  0.00000000000E+00 0.  1.
<mgrwt>
<rscale>  0 0.20513877E+04</rscale>
<asrwt>0</asrwt>
<pdfrwt beam="1">  1        1 0.32448787E+00 0.20513877E+04</pdfrwt>
<pdfrwt beam="2">  1       -1 0.76737973E-01 0.20513877E+04</pdfrwt>
<totfact> 0.39528510E+00</totfact>
</mgrwt>
</event>
<event>
12    1  0.1556559E-007  0.1525468E+04  0.7818608E-02  0.8867691E-01
          2   -1    0    0  501    0  0.00000000000E+00  0.00000000000E+00  0.20036399571E+04  0.20036399571E+04  0.00000000000E+00 0.  1.
         -2   -1    0    0    0  501 -0.00000000000E+00 -0.00000000000E+00 -0.29035328451E+03  0.29035328451E+03  0.00000000000E+00 0. -1.
         23    2    1    2    0    0  0.32162043190E+03 -0.10421356864E+03  0.19655154594E+02  0.34971091159E+03  0.87242343382E+02 0.  0.
        254    2    1    2    0    0 -0.32162043190E+03  0.10421356864E+03  0.16936315180E+04  0.19442823300E+04  0.89305424803E+03 0.  0.
        -24    2    4    4    0    0  0.22652807214E+03 -0.14448220627E+03  0.91400210982E+03  0.95611374914E+03  0.81015857347E+02 0.  0.
         24    2    4    4    0    0 -0.54814850405E+03  0.24869577491E+03  0.77962940814E+03  0.98816858083E+03  0.79616324805E+02 0.  0.
         11    1    3    3    0    0  0.29721148869E+02 -0.37809456539E+02 -0.92056641675E+01  0.48965763005E+02  0.00000000000E+00 0. -1.
        -11    1    3    3    0    0  0.29189928303E+03 -0.66404112102E+02  0.28860818761E+02  0.30074514859E+03  0.00000000000E+00 0.  1.
          4    1    6    6  502    0 -0.21771965589E+03  0.10582274945E+03  0.37743467899E+03  0.44839406749E+03  0.00000000000E+00 0. -1.
          3    1    5    5  503    0  0.22948631315E+03 -0.13884708448E+03  0.83875049217E+03  0.88059347539E+03  0.00000000000E+00 0. -1.
         -4    1    5    5    0  503 -0.29582410118E+01 -0.56351217890E+01  0.75251617651E+02  0.75520273745E+02  0.00000000000E+00 0.  1.
         -3    1    6    6    0  502 -0.33042884816E+03  0.14287302546E+03  0.40219472915E+03  0.53977451334E+03  0.00000000000E+00 0.  1.
<mgrwt>
<rscale>  0 0.15254684E+04</rscale>
<asrwt>0</asrwt>
<pdfrwt beam="1">  1        2 0.30825229E+00 0.15254684E+04</pdfrwt>
<pdfrwt beam="2">  1       -2 0.44669737E-01 0.15254684E+04</pdfrwt>
<totfact> 0.30489658E+01</totfact>
</mgrwt>
</event>
<event>
12    1  0.1556559E-007  0.2571733E+04  0.7818608E-02  0.8377867E-01
          2   -1    0    0  501    0  0.00000000000E+00  0.00000000000E+00  0.79885085300E+03  0.79885085300E+03  0.00000000000E+00 0. -1.
         -2   -1    0    0    0  501 -0.00000000000E+00 -0.00000000000E+00 -0.20697890182E+04  0.20697890182E+04  0.00000000000E+00 0.  1.
         23    2    1    2    0    0  0.97059668646E+03 -0.32864810354E+02  0.64244331351E+02  0.97757130124E+03  0.91543931378E+02 0.  0.
        254    2    1    2    0    0 -0.97059668646E+03  0.32864810354E+02 -0.13351824966E+04  0.18910685700E+04  0.92211171434E+03 0.  0.
        -24    2    4    4    0    0 -0.64058771810E+03  0.46027521372E+03 -0.83596187623E+03  0.11520563726E+04  0.78712960028E+02 0.  0.
         24    2    4    4    0    0 -0.33000896835E+03 -0.42741040337E+03 -0.49922062036E+03  0.73901219744E+03  0.73022106789E+02 0.  0.
         11    1    3    3    0    0  0.22992875012E+03  0.15986426857E+02  0.46236191677E+02  0.23507569291E+03  0.00000000000E+00 0.  1.
        -11    1    3    3    0    0  0.74066793633E+03 -0.48851237211E+02  0.18008139674E+02  0.74249560833E+03  0.00000000000E+00 0. -1.
          2    1    6    6  502    0 -0.19033060423E+03 -0.18798711272E+03 -0.25511005809E+03  0.36965664500E+03  0.00000000000E+00 0. -1.
          1    1    5    5  503    0 -0.58002551514E+02  0.68106946275E+02 -0.11337927924E+03  0.14442199651E+03  0.00000000000E+00 0. -1.
         -2    1    5    5    0  503 -0.58258516659E+03  0.39216826745E+03 -0.72258259699E+03  0.10076343761E+04  0.00000000000E+00 0.  1.
         -1    1    6    6    0  502 -0.13967836412E+03 -0.23942329065E+03 -0.24411056227E+03  0.36935555244E+03  0.00000000000E+00 0.  1.
<mgrwt>
<rscale>  0 0.25717331E+04</rscale>
<asrwt>0</asrwt>
<pdfrwt beam="1">  1        2 0.12290013E+00 0.25717331E+04</pdfrwt>
<pdfrwt beam="2">  1       -2 0.31842908E+00 0.25717331E+04</pdfrwt>
<totfact> 0.74939545E-01</totfact>
</mgrwt>
</event>
<event>
12    1  0.1556559E-007  0.1100224E+04  0.7818608E-02  0.9204974E-01
          2   -1    0    0  501    0  0.00000000000E+00  0.00000000000E+00  0.16862857230E+04  0.16862857230E+04  0.00000000000E+00 0. -1.
         -2   -1    0    0    0  501 -0.00000000000E+00 -0.00000000000E+00 -0.17946135536E+03  0.17946135536E+03  0.00000000000E+00 0.  1.
         23    2    1    2    0    0  0.44588151658E+02 -0.22382407188E+01 -0.12734307756E+02  0.10157035449E+03  0.90339699617E+02 0.  0.
        254    2    1    2    0    0 -0.44588151658E+02  0.22382407188E+01  0.15195586754E+04  0.17641767239E+04  0.89513565012E+03 0.  0.
        -24    2    4    4    0    0  0.27389307283E+03  0.77967896689E+02  0.11137753712E+03  0.31612242181E+03  0.80199884885E+02 0.  0.
         24    2    4    4    0    0 -0.31848122449E+03 -0.75729655970E+02  0.14081811383E+04  0.14480543021E+04  0.81987025748E+02 0.  0.
         11    1    3    3    0    0  0.19289261681E+02  0.80030202689E+01  0.38341279862E+02  0.43659794904E+02  0.00000000000E+00 0. -1.
        -11    1    3    3    0    0  0.25298889977E+02 -0.10241260988E+02 -0.51075587618E+02  0.57910559583E+02  0.00000000000E+00 0.  1.
          2    1    6    6  502    0 -0.72761010760E+02  0.16982113047E+02  0.32863926124E+03  0.33702569765E+03  0.00000000000E+00 0. -1.
          3    1    5    5  503    0  0.93418962240E+02  0.17276791919E+02 -0.10365920358E+01  0.95008760481E+02  0.00000000000E+00 0. -1.
         -4    1    5    5    0  503  0.18047411059E+03  0.60691104769E+02  0.11241412915E+03  0.22111366133E+03  0.00000000000E+00 0.  1.
         -1    1    6    6    0  502 -0.24572021373E+03 -0.92711769017E+02  0.10795418771E+04  0.11110286044E+04  0.00000000000E+00 0.  1.
<mgrwt>
<rscale>  0 0.11002238E+04</rscale>
<asrwt>0</asrwt>
<pdfrwt beam="1">  1        2 0.25942856E+00 0.11002238E+04</pdfrwt>
<pdfrwt beam="2">  1       -2 0.27609440E-01 0.11002238E+04</pdfrwt>
<totfact> 0.11853917E+02</totfact>
</mgrwt>
</event>
<event>
12    1  0.1556559E-007  0.1981645E+04  0.7818608E-02  0.8615250E-01
          3   -1    0    0  501    0  0.00000000000E+00  0.00000000000E+00  0.69285682327E+03  0.69285682327E+03  0.00000000000E+00 0. -1.
         -3   -1    0    0    0  501 -0.00000000000E+00 -0.00000000000E+00 -0.14169299318E+04  0.14169299318E+04  0.00000000000E+00 0.  1.
         23    2    1    2    0    0  0.39957461831E+03 -0.59311517976E+03  0.63821194220E+02  0.72376087378E+03  0.91165593937E+02 0.  0.
        254    2    1    2    0    0 -0.39957461831E+03  0.59311517976E+03 -0.78789430278E+03  0.13860258813E+04  0.88816936407E+03 0.  0.
        -24    2    4    4    0    0 -0.19160230165E+03  0.11426980364E+03  0.17028036514E+03  0.29190478582E+03  0.80274349635E+02 0.  0.
         24    2    4    4    0    0 -0.20797231666E+03  0.47884537612E+03 -0.95817466792E+03  0.10941210955E+04  0.80354829675E+02 0.  0.
         11    1    3    3    0    0  0.31203709032E+03 -0.46809322035E+03  0.12369668878E+02  0.56270011319E+03  0.00000000000E+00 0.  1.
        -11    1    3    3    0    0  0.87537527987E+02 -0.12502195941E+03  0.51451525341E+02  0.16106076058E+03  0.00000000000E+00 0. -1.
          2    1    6    6  502    0 -0.17625769218E+03  0.32363415131E+03 -0.70397608453E+03  0.79459937424E+03  0.00000000000E+00 0. -1.
          3    1    5    5  503    0 -0.22691607898E+02  0.51754259467E+02  0.32971469643E+02  0.65425761382E+02  0.00000000000E+00 0. -1.
         -4    1    5    5    0  503 -0.16891069375E+03  0.62515544177E+02  0.13730889550E+03  0.22647902443E+03  0.00000000000E+00 0.  1.
         -1    1    6    6    0  502 -0.31714624480E+02  0.15521122481E+03 -0.25419858339E+03  0.29952172126E+03  0.00000000000E+00 0.  1.
<mgrwt>
<rscale>  0 0.19816453E+04</rscale>
<asrwt>0</asrwt>
<pdfrwt beam="1">  1        3 0.10659336E+00 0.19816453E+04</pdfrwt>
<pdfrwt beam="2">  1       -3 0.21798922E+00 0.19816453E+04</pdfrwt>
<totfact> 0.20719473E-01</totfact>
</mgrwt>
</event>
<event>
12    1  0.1556559E-007  0.1312306E+04  0.7818608E-02  0.9019863E-01
          2   -1    0    0  501    0  0.00000000000E+00  0.00000000000E+00  0.16004234892E+04  0.16004234892E+04  0.00000000000E+00 0. -1.
         -2   -1    0    0    0  501 -0.00000000000E+00 -0.00000000000E+00 -0.26901417500E+03  0.26901417500E+03  0.00000000000E+00 0.  1.
         23    2    1    2    0    0  0.27735600953E+03  0.16222106681E+03  0.20377063535E+03  0.39367305714E+03  0.10106420508E+03 0.  0.
        254    2    1    2    0    0 -0.27735600953E+03 -0.16222106681E+03  0.11276386788E+04  0.14757646070E+04  0.89614181626E+03 0.  0.
        -24    2    4    4    0    0  0.31200000974E+03  0.37884821210E+02  0.41160982291E+03  0.52367325088E+03  0.77664416658E+02 0.  0.
         24    2    4    4    0    0 -0.58935601927E+03 -0.20010588801E+03  0.71602885593E+03  0.95209135616E+03  0.79985899322E+02 0.  0.
         13    1    3    3    0    0  0.12941734759E+03  0.80056836645E+02  0.38145941264E+02  0.15688549897E+03  0.00000000000E+00 0. -1.
        -13    1    3    3    0    0  0.14793866194E+03  0.82164230161E+02  0.16562469409E+03  0.23678755817E+03  0.00000000000E+00 0.  1.
          2    1    6    6  502    0 -0.23754831199E+03 -0.40165548463E+02  0.28483881237E+03  0.37306248919E+03  0.00000000000E+00 0. -1.
          1    1    5    5  503    0  0.28167105113E+02  0.23411282084E+02  0.72438716300E+02  0.81171679534E+02  0.00000000000E+00 0. -1.
         -2    1    5    5    0  503  0.28383290463E+03  0.14473539126E+02  0.33917110661E+03  0.44250157135E+03  0.00000000000E+00 0.  1.
         -1    1    6    6    0  502 -0.35180770728E+03 -0.15994033955E+03  0.43119004356E+03  0.57902886697E+03  0.00000000000E+00 0.  1.
<mgrwt>
<rscale>  0 0.13123058E+04</rscale>
<asrwt>0</asrwt>
<pdfrwt beam="1">  1        2 0.24621899E+00 0.13123058E+04</pdfrwt>
<pdfrwt beam="2">  1       -2 0.41386797E-01 0.13123058E+04</pdfrwt>
<totfact> 0.60354786E+01</totfact>
</mgrwt>
</event>
<event>
12    1  0.1556559E-007  0.1765275E+04  0.7818608E-02  0.8724987E-01
          2   -1    0    0  501    0  0.00000000000E+00  0.00000000000E+00  0.79095270491E+03  0.79095270491E+03  0.00000000000E+00 0. -1.
         -2   -1    0    0    0  501 -0.00000000000E+00 -0.00000000000E+00 -0.98495038792E+03  0.98495038792E+03  0.00000000000E+00 0.  1.
         23    2    1    2    0    0  0.21271722041E+03 -0.48843986177E+03 -0.44711837863E+03  0.70140912642E+03  0.90762347298E+02 0.  0.
        254    2    1    2    0    0 -0.21271722041E+03  0.48843986177E+03  0.25312069562E+03  0.10744939664E+04  0.89813422319E+03 0.  0.
        -24    2    4    4    0    0  0.10092104883E+03  0.45400552539E+03  0.48350586103E+03  0.67585208315E+03  0.81804923241E+02 0.  0.
         24    2    4    4    0    0 -0.31363826925E+03  0.34434336377E+02 -0.23038516541E+03  0.39864188325E+03  0.79267516583E+02 0.  0.
         13    1    3    3    0    0  0.10544540074E+03 -0.23109489814E+03 -0.27200663473E+03  0.37217092017E+03  0.00000000000E+00 0. -1.
        -13    1    3    3    0    0  0.10727181968E+03 -0.25734496362E+03 -0.17511174390E+03  0.32923820625E+03  0.00000000000E+00 0.  1.
          2    1    6    6  502    0 -0.14654852051E+03 -0.23610476430E+02 -0.10406192519E+03  0.18128101868E+03  0.00000000000E+00 0. -1.
          1    1    5    5  503    0  0.66876014130E+01  0.15954222302E+03  0.12753872173E+03  0.20436381891E+03  0.00000000000E+00 0. -1.
         -2    1    5    5    0  503  0.94233447421E+02  0.29446330237E+03  0.35596713930E+03  0.47148826425E+03  0.00000000000E+00 0.  1.
         -1    1    6    6    0  502 -0.16708974874E+03  0.58044812807E+02 -0.12632324022E+03  0.21736086458E+03  0.00000000000E+00 0.  1.
<mgrwt>
<rscale>  0 0.17652752E+04</rscale>
<asrwt>0</asrwt>
<pdfrwt beam="1">  1        2 0.12168503E+00 0.17652752E+04</pdfrwt>
<pdfrwt beam="2">  1       -2 0.15153083E+00 0.17652752E+04</pdfrwt>
<totfact> 0.96511302E+00</totfact>
</mgrwt>
</event>
<event>
12    1  0.1556559E-007  0.1688528E+04  0.7818608E-02  0.8767934E-01
         -1   -1    0    0    0  501 -0.00000000000E+00  0.00000000000E+00  0.63605094272E+03  0.63605094272E+03  0.00000000000E+00 0.  1.
          1   -1    0    0  501    0  0.00000000000E+00 -0.00000000000E+00 -0.11206362229E+04  0.11206362229E+04  0.00000000000E+00 0. -1.
         23    2    1    2    0    0 -0.38753224833E+03  0.34374826124E+03 -0.48674248530E+03  0.71664134521E+03  0.91172693666E+02 0.  0.
        254    2    1    2    0    0  0.38753224833E+03 -0.34374826124E+03  0.21572051281E+01  0.10400458204E+04  0.90185727496E+03 0.  0.
        -24    2    4    4    0    0 -0.56488655842E+02 -0.52164037640E+03 -0.11215778907E+03  0.54164552552E+03  0.74167749925E+02 0.  0.
         24    2    4    4    0    0  0.44402090418E+03  0.17789211516E+03  0.11431499420E+03  0.49840029488E+03  0.80837912269E+02 0.  0.
         11    1    3    3    0    0 -0.37411208375E+03  0.32940444091E+03 -0.43604183392E+03  0.66226853906E+03  0.00000000000E+00 0. -1.
        -11    1    3    3    0    0 -0.13420164584E+02  0.14343820336E+02 -0.50700651376E+02  0.54372806156E+02  0.00000000000E+00 0.  1.
          4    1    6    6  502    0  0.22912676264E+03  0.11911186972E+03  0.93493715927E+02  0.27464119463E+03  0.00000000000E+00 0. -1.
          3    1    5    5  503    0 -0.63394968183E+02 -0.24289536651E+03 -0.56604281690E+02  0.25733465715E+03  0.00000000000E+00 0. -1.
         -4    1    5    5    0  503  0.69063123418E+01 -0.27874500989E+03 -0.55553507377E+02  0.28431086837E+03  0.00000000000E+00 0.  1.
         -1    1    6    6    0  502  0.21489414153E+03  0.58780245441E+02  0.20821278268E+02  0.22375910026E+03  0.00000000000E+00 0.  1.
<mgrwt>
<rscale>  0 0.16885280E+04</rscale>
<asrwt>0</asrwt>
<pdfrwt beam="1">  1        1 0.17240557E+00 0.16885280E+04</pdfrwt>
<pdfrwt beam="2">  1       -1 0.97853992E-01 0.16885280E+04</pdfrwt>
<totfact> 0.11671969E+01</totfact>
</mgrwt>
</event>
<event>
12    1  0.1556559E-007  0.1517765E+04  0.7818608E-02  0.8872725E-01
          1   -1    0    0  501    0  0.00000000000E+00  0.00000000000E+00  0.10609444710E+04  0.10609444710E+04  0.00000000000E+00 0. -1.
         -1   -1    0    0    0  501 -0.00000000000E+00 -0.00000000000E+00 -0.54282071991E+03  0.54282071991E+03  0.00000000000E+00 0.  1.
         23    2    1    2    0    0 -0.31160774834E+03 -0.24333533441E+03  0.37220524551E+03  0.55426285494E+03  0.11117146120E+03 0.  0.
        254    2    1    2    0    0  0.31160774834E+03  0.24333533441E+03  0.14591850556E+03  0.10495023360E+04  0.96117192484E+03 0.  0.
        -24    2    4    4    0    0  0.78690255236E+02  0.59739720944E+03  0.97132900038E+02  0.61590218631E+03  0.82614288812E+02 0.  0.
         24    2    4    4    0    0  0.23291749310E+03 -0.35406187503E+03  0.48785605519E+02  0.43360014964E+03  0.77580181202E+02 0.  0.
         11    1    3    3    0    0 -0.28265958518E+03 -0.18354371607E+03  0.34553274932E+03  0.48267755040E+03  0.00000000000E+00 0. -1.
        -11    1    3    3    0    0 -0.28948163158E+02 -0.59791618337E+02  0.26672496190E+02  0.71585304544E+02  0.00000000000E+00 0.  1.
          4    1    6    6  502    0  0.53191229320E+02 -0.49177851408E+02  0.32259087893E+02  0.79299537813E+02  0.00000000000E+00 0. -1.
          1    1    5    5  503    0  0.35661301685E+02  0.75044934025E+02  0.25474867561E+02  0.86904772239E+02  0.00000000000E+00 0. -1.
         -2    1    5    5    0  503  0.43028953550E+02  0.52235227542E+03  0.71658032477E+02  0.52899741407E+03  0.00000000000E+00 0.  1.
         -3    1    6    6    0  502  0.17972626378E+03 -0.30488402362E+03  0.16526517627E+02  0.35430061183E+03  0.00000000000E+00 0.  1.
<mgrwt>
<rscale>  0 0.15177650E+04</rscale>
<asrwt>0</asrwt>
<pdfrwt beam="1">  1        1 0.16322223E+00 0.15177650E+04</pdfrwt>
<pdfrwt beam="2">  1       -1 0.83510880E-01 0.15177650E+04</pdfrwt>
<totfact> 0.18656487E+01</totfact>
</mgrwt>
</event>
<event>
12    1  0.1556559E-007  0.2059910E+04  0.7818608E-02  0.8579112E-01
          2   -1    0    0  501    0  0.00000000000E+00  0.00000000000E+00  0.52882790309E+04  0.52882790309E+04  0.00000000000E+00 0. -1.
         -2   -1    0    0    0  501 -0.00000000000E+00 -0.00000000000E+00 -0.20059593937E+03  0.20059593937E+03  0.00000000000E+00 0.  1.
         23    2    1    2    0    0  0.72722396753E+03 -0.34152089830E+02  0.99272055877E+03  0.12344191099E+04  0.90969043306E+02 0.  0.
        254    2    1    2    0    0 -0.72722396753E+03  0.34152089830E+02  0.40949625327E+04  0.42544558603E+04  0.89535214246E+03 0.  0.
        -24    2    4    4    0    0 -0.64452377698E+03 -0.22865946193E+03  0.15846477374E+04  0.17277772985E+04  0.80061807772E+02 0.  0.
         24    2    4    4    0    0 -0.82700190556E+02  0.26281155176E+03  0.25103147953E+04  0.25266785618E+04  0.80715239153E+02 0.  0.
         11    1    3    3    0    0  0.15769691390E+03 -0.45219837894E+02  0.22188161934E+03  0.27594311623E+03  0.00000000000E+00 0. -1.
        -11    1    3    3    0    0  0.56952705363E+03  0.11067748064E+02  0.77083893943E+03  0.95847599365E+03  0.00000000000E+00 0.  1.
          2    1    6    6  502    0 -0.86254731524E+02  0.14264857910E+03  0.14138940924E+04  0.14236871146E+04  0.00000000000E+00 0. -1.
          1    1    5    5  503    0 -0.24455851349E+02  0.38833834706E+01  0.82341231541E+02  0.85983997023E+02  0.00000000000E+00 0. -1.
         -2    1    5    5    0  503 -0.62006792563E+03 -0.23254284540E+03  0.15023065059E+04  0.16417933015E+04  0.00000000000E+00 0.  1.
         -1    1    6    6    0  502  0.35545409682E+01  0.12016297266E+03  0.10964207029E+04  0.11029914472E+04  0.00000000000E+00 0.  1.
<mgrwt>
<rscale>  0 0.20599100E+04</rscale>
<asrwt>0</asrwt>
<pdfrwt beam="1">  1        2 0.81358128E+00 0.20599100E+04</pdfrwt>
<pdfrwt beam="2">  1       -2 0.30860918E-01 0.20599100E+04</pdfrwt>
<totfact> 0.12596892E-01</totfact>
</mgrwt>
</event>
<event>
12    1  0.1556559E-007  0.1277235E+04  0.7818608E-02  0.9047815E-01
         -2   -1    0    0    0  501 -0.00000000000E+00  0.00000000000E+00  0.43736459925E+03  0.43736459925E+03  0.00000000000E+00 0.  1.
          2   -1    0    0  501    0  0.00000000000E+00 -0.00000000000E+00 -0.93247664688E+03  0.93247664688E+03  0.00000000000E+00 0. -1.
         23    2    1    2    0    0 -0.93718749762E+02  0.24321152397E+01  0.18945596054E+03  0.23540980972E+03  0.10361031938E+03 0.  0.
        254    2    1    2    0    0  0.93718749762E+02 -0.24321152397E+01 -0.68456800818E+03  0.11344314364E+04  0.89972896300E+03 0.  0.
        -24    2    4    4    0    0 -0.29096233971E+03  0.12981506424E+02 -0.67675709392E+03  0.74120203570E+03  0.80948693149E+02 0.  0.
         24    2    4    4    0    0  0.38468108947E+03 -0.15413621664E+02 -0.78109142572E+01  0.39322940071E+03  0.79694610069E+02 0.  0.
         13    1    3    3    0    0 -0.40193655156E+02 -0.49247701499E+02  0.68914806651E+02  0.93755621663E+02  0.00000000000E+00 0.  1.
        -13    1    3    3    0    0 -0.53525094606E+02  0.51679816739E+02  0.12054115389E+03  0.14165418805E+03  0.00000000000E+00 0. -1.
          4    1    6    6  502    0  0.62120214681E+02  0.18549222073E+02 -0.22309107541E+02  0.68561585387E+02  0.00000000000E+00 0. -1.
          1    1    5    5  503    0 -0.95608594948E+02 -0.36482806407E+01 -0.13837556753E+03  0.16823231279E+03  0.00000000000E+00 0. -1.
         -2    1    5    5    0  503 -0.19535374476E+03  0.16629787064E+02 -0.53838152639E+03  0.57296972291E+03  0.00000000000E+00 0.  1.
         -3    1    6    6    0  502  0.32256087479E+03 -0.33962843736E+02  0.14498193284E+02  0.32466781532E+03  0.00000000000E+00 0.  1.
<mgrwt>
<rscale>  0 0.12772349E+04</rscale>
<asrwt>0</asrwt>
<pdfrwt beam="1">  1        2 0.14345795E+00 0.12772349E+04</pdfrwt>
<pdfrwt beam="2">  1       -2 0.67286861E-01 0.12772349E+04</pdfrwt>
<totfact> 0.55477883E+01</totfact>
</mgrwt>
</event>
<event>
12    1  0.1556559E-007  0.2509752E+04  0.7818608E-02  0.8399520E-01
         -2   -1    0    0    0  501 -0.00000000000E+00  0.00000000000E+00  0.98646336065E+03  0.98646336065E+03  0.00000000000E+00 0.  1.
          2   -1    0    0  501    0  0.00000000000E+00 -0.00000000000E+00 -0.15963226408E+04  0.15963226408E+04  0.00000000000E+00 0. -1.
         23    2    1    2    0    0 -0.11767935222E+03  0.56900916091E+03 -0.12071197375E+04  0.13426915609E+04  0.89792605448E+02 0.  0.
        254    2    1    2    0    0  0.11767935222E+03 -0.56900916091E+03  0.59726045733E+03  0.12400944405E+04  0.91841946431E+03 0.  0.
        -24    2    4    4    0    0  0.43898289324E+03 -0.35736583315E+02  0.33334103076E+03  0.55925850054E+03  0.87582781888E+02 0.  0.
         24    2    4    4    0    0 -0.32130354102E+03 -0.53327257759E+03  0.26391942657E+03  0.68083594000E+03  0.79173897163E+02 0.  0.
         13    1    3    3    0    0 -0.51987295592E+02  0.21580595542E+03 -0.56256857806E+03  0.60477954192E+03  0.00000000000E+00 0.  1.
        -13    1    3    3    0    0 -0.65692056631E+02  0.35320320549E+03 -0.64455115942E+03  0.73791201900E+03  0.00000000000E+00 0. -1.
          4    1    6    6  502    0 -0.30516694174E+03 -0.52379548880E+03  0.24390549279E+03  0.65343589267E+03  0.00000000000E+00 0. -1.
          1    1    5    5  503    0  0.25314428349E+03 -0.31388570643E+02  0.13969271160E+03  0.29082868549E+03  0.00000000000E+00 0. -1.
         -2    1    5    5    0  503  0.18583860975E+03 -0.43480126718E+01  0.19364831916E+03  0.26842981504E+03  0.00000000000E+00 0.  1.
         -3    1    6    6    0  502 -0.16136599278E+02 -0.94770887958E+01  0.20013933786E+02  0.27400047333E+02  0.00000000000E+00 0.  1.
<mgrwt>
<rscale>  0 0.25097520E+04</rscale>
<asrwt>0</asrwt>
<pdfrwt beam="1">  1        2 0.24558810E+00 0.25097520E+04</pdfrwt>
<pdfrwt beam="2">  1       -2 0.15176359E+00 0.25097520E+04</pdfrwt>
<totfact> 0.29007570E+00</totfact>
</mgrwt>
</event>
<event>
12    1  0.1556559E-007  0.2132805E+04  0.7818608E-02  0.8546929E-01
          2   -1    0    0  501    0  0.00000000000E+00  0.00000000000E+00  0.21129417680E+04  0.21129417680E+04  0.00000000000E+00 0.  1.
         -2   -1    0    0    0  501 -0.00000000000E+00 -0.00000000000E+00 -0.53821370358E+03  0.53821370358E+03  0.00000000000E+00 0. -1.
         23    2    1    2    0    0 -0.12575830441E+03  0.35282798989E+03 -0.33398119534E+03  0.51033820808E+03  0.92730287436E+02 0.  0.
        254    2    1    2    0    0  0.12575830441E+03 -0.35282798989E+03  0.19087092598E+04  0.21408172635E+04  0.89421740971E+03 0.  0.
        -24    2    4    4    0    0 -0.15744531452E+03 -0.32434670387E+03  0.22728426968E+03  0.43365394668E+03  0.80048702976E+02 0.  0.
         24    2    4    4    0    0  0.28320361894E+03 -0.28481286017E+02  0.16814249901E+04  0.17071633168E+04  0.78747187803E+02 0.  0.
         13    1    3    3    0    0 -0.10346355977E+03  0.29322704001E+03 -0.31793314844E+03  0.44471147059E+03  0.00000000000E+00 0. -1.
        -13    1    3    3    0    0 -0.22294744639E+02  0.59600949881E+02 -0.16048046905E+02  0.65626737498E+02  0.00000000000E+00 0.  1.
          2    1    6    6  502    0  0.29105053185E+02 -0.12772988267E+02  0.88758843435E+02  0.94278235230E+02  0.00000000000E+00 0. -1.
          3    1    5    5  503    0 -0.26276026782E+02 -0.98759182818E+02  0.10125930345E+03  0.14386539650E+03  0.00000000000E+00 0. -1.
         -4    1    5    5    0  503 -0.13116928774E+03 -0.22558752105E+03  0.12602496622E+03  0.28978855018E+03  0.00000000000E+00 0.  1.
         -1    1    6    6    0  502  0.25409856575E+03 -0.15708297750E+02  0.15926661467E+04  0.16128850816E+04  0.00000000000E+00 0.  1.
<mgrwt>
<rscale>  0 0.21328049E+04</rscale>
<asrwt>0</asrwt>
<pdfrwt beam="1">  1        2 0.32506796E+00 0.21328049E+04</pdfrwt>
<pdfrwt beam="2">  1       -2 0.82802109E-01 0.21328049E+04</pdfrwt>
<totfact> 0.67914178E+00</totfact>
</mgrwt>
</event>
<event>
12    1  0.1556559E-007  0.1231348E+04  0.7818608E-02  0.9085851E-01
          1   -1    0    0  501    0  0.00000000000E+00  0.00000000000E+00  0.11082847523E+04  0.11082847523E+04  0.00000000000E+00 0. -1.
         -1   -1    0    0    0  501 -0.00000000000E+00 -0.00000000000E+00 -0.34201916841E+03  0.34201916841E+03  0.00000000000E+00 0.  1.
         23    2    1    2    0    0 -0.48707644469E+02  0.20044654105E+03 -0.60617168136E+02  0.23321018698E+03  0.90339912483E+02 0.  0.
        254    2    1    2    0    0  0.48707644469E+02 -0.20044654105E+03  0.82688275202E+03  0.12170937337E+04  0.86892509494E+03 0.  0.
        -24    2    4    4    0    0 -0.26725234657E+03  0.11238866495E+03  0.67807058277E+03  0.74195424201E+03  0.81617113778E+02 0.  0.
         24    2    4    4    0    0  0.31595999104E+03 -0.31283520601E+03  0.14881216925E+03  0.47513949171E+03  0.76914841277E+02 0.  0.
         13    1    3    3    0    0 -0.36695374560E+02  0.14904236538E+03 -0.88695896587E+00  0.15349581066E+03  0.00000000000E+00 0.  1.
        -13    1    3    3    0    0 -0.12012269909E+02  0.51404175671E+02 -0.59730209170E+02  0.79714376322E+02  0.00000000000E+00 0. -1.
          2    1    6    6  502    0  0.94960236056E+02 -0.10008762990E+03  0.96960381864E+01  0.13830760372E+03  0.00000000000E+00 0. -1.
          1    1    5    5  503    0 -0.12450559196E+02 -0.13326614736E+01  0.92029818390E+02  0.92877768512E+02  0.00000000000E+00 0. -1.
         -4    1    5    5    0  503 -0.25480178738E+03  0.11372132643E+03  0.58604076438E+03  0.64907647350E+03  0.00000000000E+00 0.  1.
         -3    1    6    6    0  502  0.22099975499E+03 -0.21274757611E+03  0.13911613106E+03  0.33683188799E+03  0.00000000000E+00 0.  1.
<mgrwt>
<rscale>  0 0.12313483E+04</rscale>
<asrwt>0</asrwt>
<pdfrwt beam="1">  1        1 0.17050534E+00 0.12313483E+04</pdfrwt>
<pdfrwt beam="2">  1       -1 0.52618334E-01 0.12313483E+04</pdfrwt>
<totfact> 0.44912620E+01</totfact>
</mgrwt>
</event>
<event>
12    1  0.1556559E-007  0.1323491E+04  0.7818608E-02  0.9011141E-01
         -2   -1    0    0    0  501 -0.00000000000E+00  0.00000000000E+00  0.26365069994E+03  0.26365069994E+03  0.00000000000E+00 0.  1.
          2   -1    0    0  501    0  0.00000000000E+00 -0.00000000000E+00 -0.16609363679E+04  0.16609363679E+04  0.00000000000E+00 0. -1.
         23    2    1    2    0    0 -0.33804551023E+03 -0.25766939781E+02 -0.23202544562E+03  0.41837812887E+03  0.79156485086E+02 0.  0.
        254    2    1    2    0    0  0.33804551023E+03  0.25766939781E+02 -0.11652602223E+04  0.15062089390E+04  0.89212963176E+03 0.  0.
        -24    2    4    4    0    0 -0.27178562263E+03  0.13784834131E+03 -0.27355066498E+03  0.41706251208E+03  0.79003688523E+02 0.  0.
         24    2    4    4    0    0  0.60983113286E+03 -0.11208140153E+03 -0.89170955736E+03  0.10891464269E+04  0.81472408364E+02 0.  0.
         11    1    3    3    0    0 -0.13326561576E+03  0.21693990171E+02 -0.64784238868E+02  0.14975764141E+03  0.00000000000E+00 0. -1.
        -11    1    3    3    0    0 -0.20477989447E+03 -0.47460929952E+02 -0.16724120675E+03  0.26862048746E+03  0.00000000000E+00 0.  1.
          2    1    6    6  502    0  0.49550253827E+03 -0.11755139672E+03 -0.75732789975E+03  0.91262623458E+03  0.00000000000E+00 0. -1.
          1    1    5    5  503    0 -0.17176558177E+03  0.43770073897E+02 -0.16238965623E+03  0.24039474807E+03  0.00000000000E+00 0. -1.
         -4    1    5    5    0  503 -0.10002004086E+03  0.94078267416E+02 -0.11116100875E+03  0.17666776401E+03  0.00000000000E+00 0.  1.
         -1    1    6    6    0  502  0.11432859459E+03  0.54699951851E+01 -0.13438165761E+03  0.17652019230E+03  0.00000000000E+00 0.  1.
<mgrwt>
<rscale>  0 0.13234909E+04</rscale>
<asrwt>0</asrwt>
<pdfrwt beam="1">  1        2 0.25552868E+00 0.13234909E+04</pdfrwt>
<pdfrwt beam="2">  1       -2 0.40561646E-01 0.13234909E+04</pdfrwt>
<totfact> 0.58052413E+01</totfact>
</mgrwt>
</event>
<event>
12    1  0.1556559E-007  0.1423005E+04  0.7818608E-02  0.8937333E-01
          2   -1    0    0  501    0  0.00000000000E+00  0.00000000000E+00  0.89096709992E+03  0.89096709992E+03  0.00000000000E+00 0. -1.
         -2   -1    0    0    0  501 -0.00000000000E+00 -0.00000000000E+00 -0.56818683800E+03  0.56818683800E+03  0.00000000000E+00 0.  1.
         23    2    1    2    0    0  0.23375886114E+03 -0.22745307493E+03 -0.19358219696E+03  0.38987251261E+03  0.90268503085E+02 0.  0.
        254    2    1    2    0    0 -0.23375886114E+03  0.22745307493E+03  0.51636245888E+03  0.10692814253E+04  0.87769839417E+03 0.  0.
        -24    2    4    4    0    0  0.19771083286E+03  0.40911978452E+03  0.26952404611E+03  0.53388651876E+03  0.76961236747E+02 0.  0.
         24    2    4    4    0    0 -0.43146969400E+03 -0.18166670959E+03  0.24683841276E+03  0.53539490655E+03  0.80929683862E+02 0.  0.
         13    1    3    3    0    0  0.86235967919E+02 -0.29122045318E+02 -0.45969310375E+02  0.10197015830E+03  0.00000000000E+00 0. -1.
        -13    1    3    3    0    0  0.14752289322E+03 -0.19833102962E+03 -0.14761288658E+03  0.28790235431E+03  0.00000000000E+00 0.  1.
          4    1    6    6  502    0 -0.13132159481E+03 -0.46304831332E+02  0.11547610981E+03  0.18089839856E+03  0.00000000000E+00 0. -1.
          1    1    5    5  503    0  0.97728406749E+02  0.23559491703E+03  0.10965123565E+03  0.27763141014E+03  0.00000000000E+00 0. -1.
         -2    1    5    5    0  503  0.99982426111E+02  0.17352486750E+03  0.15987281046E+03  0.25625510862E+03  0.00000000000E+00 0.  1.
         -3    1    6    6    0  502 -0.30014809920E+03 -0.13536187826E+03  0.13136230296E+03  0.35449650799E+03  0.00000000000E+00 0.  1.
<mgrwt>
<rscale>  0 0.14230050E+04</rscale>
<asrwt>0</asrwt>
<pdfrwt beam="1">  1        2 0.13707186E+00 0.14230050E+04</pdfrwt>
<pdfrwt beam="2">  1       -2 0.87413360E-01 0.14230050E+04</pdfrwt>
<totfact> 0.32668918E+01</totfact>
</mgrwt>
</event>
<event>
12    1  0.1556559E-007  0.1496234E+04  0.7818608E-02  0.8886961E-01
          2   -1    0    0  501    0  0.00000000000E+00  0.00000000000E+00  0.88290657223E+03  0.88290657223E+03  0.00000000000E+00 0. -1.
         -2   -1    0    0    0  501 -0.00000000000E+00 -0.00000000000E+00 -0.63390485652E+03  0.63390485652E+03  0.00000000000E+00 0.  1.
         23    2    1    2    0    0  0.10950361923E+03  0.45991436235E+03  0.63950565988E+02  0.48336892166E+03  0.77740441361E+02 0.  0.
        254    2    1    2    0    0 -0.10950361923E+03 -0.45991436235E+03  0.18505114973E+03  0.10334425071E+04  0.90013733625E+03 0.  0.
        -24    2    4    4    0    0 -0.29753335236E+03  0.16988634432E+03  0.26363737818E+02  0.35246779639E+03  0.78428534763E+02 0.  0.
         24    2    4    4    0    0  0.18802973313E+03 -0.62980070667E+03  0.15868741191E+03  0.68097471069E+03  0.80874911102E+02 0.  0.
         13    1    3    3    0    0  0.34880308368E+02  0.20019534216E+03 -0.91890632443E+01  0.20341890231E+03  0.00000000000E+00 0. -1.
        -13    1    3    3    0    0  0.74623310866E+02  0.25971902018E+03  0.73139629233E+02  0.27995001935E+03  0.00000000000E+00 0.  1.
          4    1    6    6  502    0  0.10084903867E+02 -0.14985499974E+03  0.42327424665E+02  0.15604434341E+03  0.00000000000E+00 0. -1.
          3    1    5    5  503    0 -0.94330713004E+02  0.97161810892E+02  0.38880930121E+01  0.13547626426E+03  0.00000000000E+00 0. -1.
         -4    1    5    5    0  503 -0.20320263936E+03  0.72724533429E+02  0.22475644806E+02  0.21699153212E+03  0.00000000000E+00 0.  1.
         -3    1    6    6    0  502  0.17794482926E+03 -0.47994570693E+03  0.11635998725E+03  0.52493036728E+03  0.00000000000E+00 0.  1.
<mgrwt>
<rscale>  0 0.14962336E+04</rscale>
<asrwt>0</asrwt>
<pdfrwt beam="1">  1        2 0.13583178E+00 0.14962336E+04</pdfrwt>
<pdfrwt beam="2">  1       -2 0.97523824E-01 0.14962336E+04</pdfrwt>
<totfact> 0.25516240E+01</totfact>
</mgrwt>
</event>
<event>
12    1  0.1556559E-007  0.1633911E+04  0.7818608E-02  0.8799982E-01
         -2   -1    0    0    0  501 -0.00000000000E+00  0.00000000000E+00  0.27626814873E+03  0.27626814873E+03  0.00000000000E+00 0.  1.
          2   -1    0    0  501    0  0.00000000000E+00 -0.00000000000E+00 -0.24158276748E+04  0.24158276748E+04  0.00000000000E+00 0. -1.
         23    2    1    2    0    0  0.20215773934E+03 -0.13577054697E+03 -0.15918559019E+04  0.16129601914E+04  0.91290599700E+02 0.  0.
        254    2    1    2    0    0 -0.20215773934E+03  0.13577054697E+03 -0.54770362421E+03  0.10791356322E+04  0.89735893579E+03 0.  0.
        -24    2    4    4    0    0 -0.54377335862E+03  0.94523890452E+01 -0.26270367690E+03  0.60929270321E+03  0.80284264467E+02 0.  0.
         24    2    4    4    0    0  0.34161561928E+03  0.12631815793E+03 -0.28499994731E+03  0.46984292896E+03  0.82884857305E+02 0.  0.
         11    1    3    3    0    0  0.21291788353E+02 -0.21497828309E+02 -0.71689963065E+02  0.77813544306E+02  0.00000000000E+00 0.  1.
        -11    1    3    3    0    0  0.18086595098E+03 -0.11427271866E+03 -0.15201659388E+04  0.15351466471E+04  0.00000000000E+00 0. -1.
          4    1    6    6  502    0  0.27532189038E+03  0.12853327278E+03 -0.25654647633E+03  0.39766699643E+03  0.00000000000E+00 0. -1.
          1    1    5    5  503    0 -0.43494017031E+03 -0.20126475296E+02 -0.22680315761E+03  0.49093553453E+03  0.00000000000E+00 0. -1.
         -2    1    5    5    0  503 -0.10883318831E+03  0.29578864341E+02 -0.35900519294E+02  0.11835716868E+03  0.00000000000E+00 0.  1.
         -3    1    6    6    0  502  0.66293728908E+02 -0.22151148555E+01 -0.28453470978E+02  0.72175932533E+02  0.00000000000E+00 0.  1.
<mgrwt>
<rscale>  0 0.16339109E+04</rscale>
<asrwt>0</asrwt>
<pdfrwt beam="1">  1        2 0.37166579E+00 0.16339109E+04</pdfrwt>
<pdfrwt beam="2">  1       -2 0.42502793E-01 0.16339109E+04</pdfrwt>
<totfact> 0.19569408E+01</totfact>
</mgrwt>
</event>
<event>
12    1  0.1556559E-007  0.1633785E+04  0.7818608E-02  0.8800057E-01
         -2   -1    0    0    0  501 -0.00000000000E+00  0.00000000000E+00  0.67137082649E+03  0.67137082649E+03  0.00000000000E+00 0.  1.
          2   -1    0    0  501    0  0.00000000000E+00 -0.00000000000E+00 -0.99395652248E+03  0.99395652248E+03  0.00000000000E+00 0. -1.
         23    2    1    2    0    0  0.39602038637E+03  0.29948060470E+03 -0.37513171712E+03  0.62909886068E+03  0.92308137823E+02 0.  0.
        254    2    1    2    0    0 -0.39602038637E+03 -0.29948060470E+03  0.52546021127E+02  0.10362284883E+04  0.90801300464E+03 0.  0.
        -24    2    4    4    0    0 -0.10145956487E+03 -0.51534332976E+03  0.27774642501E+03  0.60037572867E+03  0.86227305058E+02 0.  0.
         24    2    4    4    0    0 -0.29456082150E+03  0.21586272507E+03 -0.22520040388E+03  0.43585275962E+03  0.76743810990E+02 0.  0.
         11    1    3    3    0    0  0.27688267919E+03  0.22888660017E+03 -0.31628268516E+03  0.47863120532E+03  0.00000000000E+00 0. -1.
        -11    1    3    3    0    0  0.11913770717E+03  0.70594004524E+02 -0.58849031959E+02  0.15046765535E+03  0.00000000000E+00 0.  1.
          2    1    6    6  502    0 -0.14473000669E+03  0.15272548086E+03 -0.12056922992E+03  0.24250522993E+03  0.00000000000E+00 0. -1.
          1    1    5    5  503    0 -0.10219186994E+03 -0.39143890102E+03  0.24200588698E+03  0.47141748042E+03  0.00000000000E+00 0. -1.
         -2    1    5    5    0  503  0.73230506970E+00 -0.12390442875E+03  0.35740538024E+02  0.12895824825E+03  0.00000000000E+00 0.  1.
         -1    1    6    6    0  502 -0.14983081481E+03  0.63137244206E+02 -0.10463117396E+03  0.19334752969E+03  0.00000000000E+00 0.  1.
<mgrwt>
<rscale>  0 0.16337851E+04</rscale>
<asrwt>0</asrwt>
<pdfrwt beam="1">  1        2 0.15291639E+00 0.16337851E+04</pdfrwt>
<pdfrwt beam="2">  1       -2 0.10328782E+00 0.16337851E+04</pdfrwt>
<totfact> 0.18590832E+01</totfact>
</mgrwt>
</event>
<event>
12    1  0.1556559E-007  0.1650967E+04  0.7818608E-02  0.8789834E-01
          2   -1    0    0  501    0  0.00000000000E+00  0.00000000000E+00  0.11024409762E+04  0.11024409762E+04  0.00000000000E+00 0.  1.
         -2   -1    0    0    0  501 -0.00000000000E+00 -0.00000000000E+00 -0.61810406541E+03  0.61810406541E+03  0.00000000000E+00 0. -1.
         23    2    1    2    0    0  0.89658560205E+02 -0.39484082007E+02 -0.42185019238E+03  0.44261014127E+03  0.91370138428E+02 0.  0.
        254    2    1    2    0    0 -0.89658560205E+02  0.39484082007E+02  0.90618710321E+03  0.12779349004E+04  0.89573706713E+03 0.  0.
        -24    2    4    4    0    0 -0.25133345991E+03  0.97375518912E+02 -0.64863695071E+02  0.28838159611E+03  0.79411247820E+02 0.  0.
         24    2    4    4    0    0  0.16167489971E+03 -0.57891436904E+02  0.97105079828E+03  0.98955330427E+03  0.82376559128E+02 0.  0.
         13    1    3    3    0    0  0.44156322257E+02 -0.64795673546E+02 -0.30048571435E+03  0.31054778156E+03  0.00000000000E+00 0. -1.
        -13    1    3    3    0    0  0.45502237948E+02  0.25311591539E+02 -0.12136447803E+03  0.13206235971E+03  0.00000000000E+00 0.  1.
          4    1    6    6  502    0  0.14660493884E+03 -0.51129197152E+02  0.65813287942E+03  0.67619974110E+03  0.00000000000E+00 0. -1.
          3    1    5    5  503    0 -0.24587556945E+03  0.90642943916E+02 -0.77307749881E+02  0.27321681340E+03  0.00000000000E+00 0. -1.
         -4    1    5    5    0  503 -0.54578904633E+01  0.67325749956E+01  0.12444054810E+02  0.15164782706E+02  0.00000000000E+00 0.  1.
         -3    1    6    6    0  502  0.15069960865E+02 -0.67622397520E+01  0.31291791887E+03  0.31335356318E+03  0.00000000000E+00 0.  1.
<mgrwt>
<rscale>  0 0.16509673E+04</rscale>
<asrwt>0</asrwt>
<pdfrwt beam="1">  1        2 0.16960630E+00 0.16509673E+04</pdfrwt>
<pdfrwt beam="2">  1       -2 0.95092933E-01 0.16509673E+04</pdfrwt>
<totfact> 0.19287180E+01</totfact>
</mgrwt>
</event>
<event>
12    1  0.1556559E-007  0.3182240E+04  0.7818608E-02  0.8193523E-01
          2   -1    0    0  501    0  0.00000000000E+00  0.00000000000E+00  0.31517512801E+04  0.31517512801E+04  0.00000000000E+00 0. -1.
         -2   -1    0    0    0  501 -0.00000000000E+00 -0.00000000000E+00 -0.80325605315E+03  0.80325605315E+03  0.00000000000E+00 0.  1.
         23    2    1    2    0    0  0.37777587664E+03 -0.73183582426E+03 -0.41903502407E+03  0.92899934105E+03  0.95661578709E+02 0.  0.
        254    2    1    2    0    0 -0.37777587664E+03  0.73183582426E+03  0.27675302510E+04  0.30260079922E+04  0.90509800125E+03 0.  0.
        -24    2    4    4    0    0 -0.55671113065E+03  0.62739162556E+03  0.13511838324E+04  0.15924018864E+04  0.80613174409E+02 0.  0.
         24    2    4    4    0    0  0.17893525401E+03  0.10444419870E+03  0.14163464186E+04  0.14336061058E+04  0.79138318348E+02 0.  0.
         11    1    3    3    0    0  0.29641154542E+02 -0.21634744731E+02 -0.77036323120E+01  0.37496748832E+02  0.00000000000E+00 0. -1.
        -11    1    3    3    0    0  0.34813472209E+03 -0.71020107953E+03 -0.41133139176E+03  0.89150259222E+03  0.00000000000E+00 0.  1.
          4    1    6    6  502    0  0.10141860781E+02  0.39358684400E+02  0.23521638825E+03  0.23870214218E+03  0.00000000000E+00 0. -1.
          3    1    5    5  503    0 -0.24762944503E+03  0.22665520639E+03  0.57435289581E+03  0.66526248470E+03  0.00000000000E+00 0. -1.
         -2    1    5    5    0  503 -0.30908168562E+03  0.40073641917E+03  0.77683093664E+03  0.92713940168E+03  0.00000000000E+00 0.  1.
         -3    1    6    6    0  502  0.16879339323E+03  0.65085514298E+02  0.11811300303E+04  0.11949039636E+04  0.00000000000E+00 0.  1.
<mgrwt>
<rscale>  0 0.31822403E+04</rscale>
<asrwt>0</asrwt>
<pdfrwt beam="1">  1        2 0.48488481E+00 0.31822403E+04</pdfrwt>
<pdfrwt beam="2">  1       -2 0.12357786E+00 0.31822403E+04</pdfrwt>
<totfact> 0.57949575E-01</totfact>
</mgrwt>
</event>
<event>
12    1  0.1556559E-007  0.1280894E+04  0.7818608E-02  0.9044855E-01
         -3   -1    0    0    0  501 -0.00000000000E+00  0.00000000000E+00  0.13744801096E+04  0.13744801096E+04  0.00000000000E+00 0.  1.
          3   -1    0    0  501    0  0.00000000000E+00 -0.00000000000E+00 -0.29841981033E+03  0.29841981033E+03  0.00000000000E+00 0. -1.
         23    2    1    2    0    0 -0.18869520696E+03 -0.47974072833E+02  0.59611120610E+03  0.63374260593E+03  0.91508074677E+02 0.  0.
        254    2    1    2    0    0  0.18869520696E+03  0.47974072833E+02  0.47994909320E+03  0.10391573140E+04  0.90088256641E+03 0.  0.
        -24    2    4    4    0    0  0.42252944804E+03  0.23785684439E+03  0.30646448373E+02  0.49240969655E+03  0.80131713920E+02 0.  0.
         24    2    4    4    0    0 -0.23383424107E+03 -0.18988277156E+03  0.44930264482E+03  0.54674761749E+03  0.79537232500E+02 0.  0.
         13    1    3    3    0    0 -0.84992792568E+02 -0.64265802964E+02  0.35794575422E+03  0.37346891596E+03  0.00000000000E+00 0.  1.
        -13    1    3    3    0    0 -0.10370241440E+03  0.16291730131E+02  0.23816545188E+03  0.26027368997E+03  0.00000000000E+00 0. -1.
          2    1    6    6  502    0 -0.81217431846E+02 -0.22232533852E+02  0.10668414103E+03  0.13591196689E+03  0.00000000000E+00 0. -1.
          1    1    5    5  503    0  0.30654626215E+03  0.12966818130E+03  0.19966738056E+02  0.33344132723E+03  0.00000000000E+00 0. -1.
         -4    1    5    5    0  503  0.11598318589E+03  0.10818866309E+03  0.10679710317E+02  0.15896836931E+03  0.00000000000E+00 0.  1.
         -1    1    6    6    0  502 -0.15261680923E+03 -0.16765023771E+03  0.34261850379E+03  0.41083565060E+03  0.00000000000E+00 0.  1.
<mgrwt>
<rscale>  0 0.12808936E+04</rscale>
<asrwt>0</asrwt>
<pdfrwt beam="1">  1        3 0.45910741E-01 0.12808936E+04</pdfrwt>
<pdfrwt beam="2">  1       -3 0.21145847E+00 0.12808936E+04</pdfrwt>
<totfact> 0.15092319E+00</totfact>
</mgrwt>
</event>
<event>
12    1  0.1556559E-007  0.2063557E+04  0.7818608E-02  0.8577469E-01
          1   -1    0    0  501    0  0.00000000000E+00  0.00000000000E+00  0.22173754284E+04  0.22173754284E+04  0.00000000000E+00 0. -1.
         -1   -1    0    0    0  501 -0.00000000000E+00 -0.00000000000E+00 -0.48010234701E+03  0.48010234701E+03  0.00000000000E+00 0.  1.
         23    2    1    2    0    0  0.64988398288E+03  0.30181048122E+03  0.12551438154E+04  0.14482085235E+04  0.92104139923E+02 0.  0.
        254    2    1    2    0    0 -0.64988398288E+03 -0.30181048122E+03  0.48212926597E+03  0.12492692518E+04  0.90265512611E+03 0.  0.
        -24    2    4    4    0    0 -0.21910509236E+03 -0.27011772562E+03 -0.22113934579E+03  0.41976502377E+03  0.79557763516E+02 0.  0.
         24    2    4    4    0    0 -0.43077889052E+03 -0.31692755601E+02  0.70326861176E+03  0.82950422806E+03  0.83160331932E+02 0.  0.
         11    1    3    3    0    0  0.13558051804E+03  0.90435388636E+02  0.22867980916E+03  0.28081148749E+03  0.00000000000E+00 0.  1.
        -11    1    3    3    0    0  0.51430346484E+03  0.21137509259E+03  0.10264640062E+04  0.11673970360E+04  0.00000000000E+00 0. -1.
          4    1    6    6  502    0 -0.11362240541E+02 -0.36973616715E+01  0.23115410167E+01  0.12170218376E+02  0.00000000000E+00 0. -1.
          1    1    5    5  503    0 -0.91107615958E+02 -0.55337037498E+02 -0.72016294115E+02  0.12864342977E+03  0.00000000000E+00 0. -1.
         -2    1    5    5    0  503 -0.12799747640E+03 -0.21478068812E+03 -0.14912305167E+03  0.29112159401E+03  0.00000000000E+00 0.  1.
         -3    1    6    6    0  502 -0.41941664997E+03 -0.27995393930E+02  0.70095707075E+03  0.81733400968E+03  0.00000000000E+00 0.  1.
<mgrwt>
<rscale>  0 0.20635573E+04</rscale>
<asrwt>0</asrwt>
<pdfrwt beam="1">  1        1 0.34113468E+00 0.20635573E+04</pdfrwt>
<pdfrwt beam="2">  1       -1 0.73861901E-01 0.20635573E+04</pdfrwt>
<totfact> 0.36102620E+00</totfact>
</mgrwt>
</event>
<event>
12    1  0.1556559E-007  0.1272195E+04  0.7818608E-02  0.9051910E-01
          2   -1    0    0  501    0  0.00000000000E+00  0.00000000000E+00  0.21091850864E+04  0.21091850864E+04  0.00000000000E+00 0. -1.
         -2   -1    0    0    0  501 -0.00000000000E+00 -0.00000000000E+00 -0.19183702793E+03  0.19183702793E+03  0.00000000000E+00 0.  1.
         23    2    1    2    0    0 -0.67386065664E+02 -0.26795619145E+03  0.24608861478E+03  0.38120681181E+03  0.91747613903E+02 0.  0.
        254    2    1    2    0    0  0.67386065664E+02  0.26795619145E+03  0.16712594437E+04  0.19198153025E+04  0.90346071596E+03 0.  0.
        -24    2    4    4    0    0  0.36475998861E+03  0.45186721399E+03  0.10163425639E+04  0.11731548541E+04  0.78142665287E+02 0.  0.
         24    2    4    4    0    0 -0.29737392295E+03 -0.18391102253E+03  0.65491687980E+03  0.74666044843E+03  0.79568784983E+02 0.  0.
         11    1    3    3    0    0 -0.81468307417E+02 -0.26000131031E+03  0.24224530362E+03  0.36458271161E+03  0.00000000000E+00 0.  1.
        -11    1    3    3    0    0  0.14082241752E+02 -0.79548811412E+01  0.38433111673E+01  0.16624100200E+02  0.00000000000E+00 0. -1.
          4    1    6    6  502    0 -0.17336100602E+03 -0.14027131566E+03  0.46463979596E+03  0.51538356628E+03  0.00000000000E+00 0. -1.
          3    1    5    5  503    0  0.21811661834E+03  0.29691473444E+03  0.57416831829E+03  0.68220413107E+03  0.00000000000E+00 0. -1.
         -4    1    5    5    0  503  0.14664337028E+03  0.15495247954E+03  0.44217424559E+03  0.49095072301E+03  0.00000000000E+00 0.  1.
         -3    1    6    6    0  502 -0.12401291693E+03 -0.43639706876E+02  0.19027708384E+03  0.23127688215E+03  0.00000000000E+00 0.  1.
<mgrwt>
<rscale>  0 0.12721946E+04</rscale>
<asrwt>0</asrwt>
<pdfrwt beam="1">  1        2 0.32449000E+00 0.12721946E+04</pdfrwt>
<pdfrwt beam="2">  1       -2 0.29513390E-01 0.12721946E+04</pdfrwt>
<totfact> 0.60386547E+01</totfact>
</mgrwt>
</event>
<event>
12    1  0.1556559E-007  0.1860512E+04  0.7818608E-02  0.8674765E-01
         -2   -1    0    0    0  501 -0.00000000000E+00  0.00000000000E+00  0.10526963586E+04  0.10526963586E+04  0.00000000000E+00 0. -1.
          2   -1    0    0  501    0  0.00000000000E+00 -0.00000000000E+00 -0.82205718253E+03  0.82205718253E+03  0.00000000000E+00 0.  1.
         23    2    1    2    0    0 -0.15622880180E+03 -0.68491502199E+03  0.15037761987E+03  0.72388591613E+03  0.88777053045E+02 0.  0.
        254    2    1    2    0    0  0.15622880180E+03  0.68491502199E+03  0.80261556186E+02  0.11508676250E+04  0.90804093905E+03 0.  0.
        -24    2    4    4    0    0  0.28032460501E+03  0.41333103810E+03 -0.35428248413E+03  0.61732560952E+03  0.78424475627E+02 0.  0.
         24    2    4    4    0    0 -0.12409580321E+03  0.27158398389E+03  0.43454404032E+03  0.53354201547E+03  0.81736959951E+02 0.  0.
         13    1    3    3    0    0 -0.75524675261E+02 -0.37545758943E+03  0.12590444759E+03  0.40314303660E+03  0.00000000000E+00 0.  1.
        -13    1    3    3    0    0 -0.80704126539E+02 -0.30945743256E+03  0.24473172282E+02  0.32074287953E+03  0.00000000000E+00 0. -1.
          2    1    6    6  502    0  0.94674582618E+01  0.19731500945E+02  0.52337497034E+02  0.56728991630E+02  0.00000000000E+00 0. -1.
          1    1    5    5  503    0  0.27944807875E+02  0.62129619698E+02 -0.20879466554E+02  0.71252747698E+02  0.00000000000E+00 0. -1.
         -2    1    5    5    0  503  0.25237979713E+03  0.35120141840E+03 -0.33340301758E+03  0.54607286182E+03  0.00000000000E+00 0.  1.
         -1    1    6    6    0  502 -0.13356326147E+03  0.25185248294E+03  0.38220654328E+03  0.47681302384E+03  0.00000000000E+00 0.  1.
<mgrwt>
<rscale>  0 0.18605124E+04</rscale>
<asrwt>0</asrwt>
<pdfrwt beam="1">  1        2 0.12647034E+00 0.18605124E+04</pdfrwt>
<pdfrwt beam="2">  1       -2 0.16195329E+00 0.18605124E+04</pdfrwt>
<totfact> 0.76005435E+00</totfact>
</mgrwt>
</event>
<event>
12    1  0.1556559E-007  0.4393110E+04  0.7818608E-02  0.7929622E-01
          1   -1    0    0  501    0  0.00000000000E+00  0.00000000000E+00  0.35859265844E+04  0.35859265844E+04  0.00000000000E+00 0. -1.
         -1   -1    0    0    0  501 -0.00000000000E+00 -0.00000000000E+00 -0.13454969008E+04  0.13454969008E+04  0.00000000000E+00 0.  1.
         23    2    1    2    0    0  0.61670263425E+02  0.13951091039E+04 -0.72104936059E+03  0.15743312805E+04  0.92055240809E+02 0.  0.
        254    2    1    2    0    0 -0.61670263425E+02 -0.13951091039E+04  0.29614790442E+04  0.33570922047E+04  0.74133481530E+03 0.  0.
        -24    2    4    4    0    0 -0.23264272973E+03 -0.80478276161E+03  0.23041357844E+04  0.24530538262E+04  0.81445859847E+02 0.  0.
         24    2    4    4    0    0  0.17097246630E+03 -0.59032634228E+03  0.65734325976E+03  0.90403837847E+03  0.86420217417E+02 0.  0.
         11    1    3    3    0    0  0.50737583523E+02  0.30077028720E+03 -0.14985184206E+03  0.33984208482E+03  0.00000000000E+00 0. -1.
        -11    1    3    3    0    0  0.10932679903E+02  0.10943388167E+04 -0.57119751852E+03  0.12344891957E+04  0.00000000000E+00 0.  1.
          2    1    6    6  502    0 -0.66412550303E+01 -0.74231660219E+02  0.88396867342E+02  0.11562202127E+03  0.00000000000E+00 0. -1.
          1    1    5    5  503    0 -0.86647069965E+00  0.16069062004E+01  0.16645120391E+01  0.24705301736E+01  0.00000000000E+00 0. -1.
         -2    1    5    5    0  503 -0.23177625903E+03 -0.80638966781E+03  0.23024712724E+04  0.24505832960E+04  0.00000000000E+00 0.  1.
         -1    1    6    6    0  502  0.17761372133E+03 -0.51609468206E+03  0.56894639241E+03  0.78841635720E+03  0.00000000000E+00 0.  1.
<mgrwt>
<rscale>  0 0.43931097E+04</rscale>
<asrwt>0</asrwt>
<pdfrwt beam="1">  1        1 0.55168101E+00 0.43931097E+04</pdfrwt>
<pdfrwt beam="2">  1       -1 0.20699952E+00 0.43931097E+04</pdfrwt>
<totfact> 0.21769843E-02</totfact>
</mgrwt>
</event>
<event>
12    1  0.1556559E-007  0.1874638E+04  0.7818608E-02  0.8667585E-01
         -3   -1    0    0    0  501 -0.00000000000E+00  0.00000000000E+00  0.79432885401E+03  0.79432885401E+03  0.00000000000E+00 0.  1.
          3   -1    0    0  501    0  0.00000000000E+00 -0.00000000000E+00 -0.11060488734E+04  0.11060488734E+04  0.00000000000E+00 0. -1.
         23    2    1    2    0    0  0.38028001452E+03  0.47672141834E+02 -0.73393431691E+03  0.83267671330E+03  0.88348201955E+02 0.  0.
        254    2    1    2    0    0 -0.38028001452E+03 -0.47672141834E+02  0.42221429747E+03  0.10677010142E+04  0.90268212571E+03 0.  0.
        -24    2    4    4    0    0 -0.37265949515E+03 -0.26384100999E+03  0.61294600550E+03  0.76855124497E+03  0.80504860801E+02 0.  0.
         24    2    4    4    0    0 -0.76205193683E+01  0.21616886816E+03 -0.19073170803E+03  0.29914976918E+03  0.79529542147E+02 0.  0.
         11    1    3    3    0    0  0.13237976594E+03 -0.30052368095E+01 -0.33554338417E+03  0.36072537551E+03  0.00000000000E+00 0.  1.
        -11    1    3    3    0    0  0.24790024858E+03  0.50677378643E+02 -0.39839093274E+03  0.47195133779E+03  0.00000000000E+00 0. -1.
          4    1    6    6  502    0  0.13389840579E+02  0.20153150395E+03 -0.18260572853E+03  0.27228493717E+03  0.00000000000E+00 0. -1.
          3    1    5    5  503    0 -0.15941615686E+03 -0.15814041920E+03  0.32399134390E+03  0.39419829296E+03  0.00000000000E+00 0. -1.
         -4    1    5    5    0  503 -0.21324333829E+03 -0.10570059080E+03  0.28895466160E+03  0.37435295201E+03  0.00000000000E+00 0.  1.
         -3    1    6    6    0  502 -0.21010359947E+02  0.14637364211E+02 -0.81259794946E+01  0.26864832010E+02  0.00000000000E+00 0.  1.
<mgrwt>
<rscale>  0 0.18746376E+04</rscale>
<asrwt>0</asrwt>
<pdfrwt beam="1">  1        3 0.17016136E+00 0.18746376E+04</pdfrwt>
<pdfrwt beam="2">  1       -3 0.12220444E+00 0.18746376E+04</pdfrwt>
<totfact> 0.30739880E-01</totfact>
</mgrwt>
</event>
<event>
12    1  0.1556559E-007  0.1950203E+04  0.7818608E-02  0.8630263E-01
         -2   -1    0    0    0  501 -0.00000000000E+00  0.00000000000E+00  0.37033575653E+03  0.37033575653E+03  0.00000000000E+00 0.  1.
          2   -1    0    0  501    0  0.00000000000E+00 -0.00000000000E+00 -0.25674631697E+04  0.25674631697E+04  0.00000000000E+00 0. -1.
         23    2    1    2    0    0  0.34010295734E+03 -0.39801350971E+02  0.15672514112E+03  0.39420605264E+03  0.11653957675E+03 0.  0.
        254    2    1    2    0    0 -0.34010295734E+03  0.39801350971E+02 -0.23538525543E+04  0.25435928736E+04  0.90110415054E+03 0.  0.
        -24    2    4    4    0    0  0.30327135985E+03  0.27546652659E+02 -0.82923684145E+03  0.88678691406E+03  0.77620589747E+02 0.  0.
         24    2    4    4    0    0 -0.64337431720E+03  0.12254698312E+02 -0.15246157129E+04  0.16568059596E+04  0.80450146314E+02 0.  0.
         13    1    3    3    0    0  0.20246104635E+03 -0.80595667085E+02  0.87449600979E+02  0.23480538655E+03  0.00000000000E+00 0. -1.
        -13    1    3    3    0    0  0.13764191099E+03  0.40794316114E+02  0.69275540137E+02  0.15940066609E+03  0.00000000000E+00 0.  1.
          2    1    6    6  502    0 -0.36171908211E+03  0.40652876655E+02 -0.91159212511E+03  0.98157707456E+03  0.00000000000E+00 0. -1.
          3    1    5    5  503    0  0.92086375792E+02 -0.25910249032E+02 -0.22561211097E+03  0.24505523098E+03  0.00000000000E+00 0. -1.
         -4    1    5    5    0  503  0.21118498406E+03  0.53456901690E+02 -0.60362473047E+03  0.64173168308E+03  0.00000000000E+00 0.  1.
         -1    1    6    6    0  502 -0.28165523508E+03 -0.28398178343E+02 -0.61302358776E+03  0.67522888500E+03  0.00000000000E+00 0.  1.
<mgrwt>
<rscale>  0 0.19502035E+04</rscale>
<asrwt>0</asrwt>
<pdfrwt beam="1">  1        2 0.39499432E+00 0.19502035E+04</pdfrwt>
<pdfrwt beam="2">  1       -2 0.56974733E-01 0.19502035E+04</pdfrwt>
<totfact> 0.85743635E+00</totfact>
</mgrwt>
</event>
<event>
12    1  0.1556559E-007  0.2571808E+04  0.7818608E-02  0.8377841E-01
          1   -1    0    0  501    0  0.00000000000E+00  0.00000000000E+00  0.12359021187E+04  0.12359021187E+04  0.00000000000E+00 0. -1.
         -1   -1    0    0    0  501 -0.00000000000E+00 -0.00000000000E+00 -0.13379284360E+04  0.13379284360E+04  0.00000000000E+00 0.  1.
         23    2    1    2    0    0  0.33795893183E+02 -0.61688233460E+03  0.89611630416E+03  0.10920658509E+04  0.88867400617E+02 0.  0.
        254    2    1    2    0    0 -0.33795893183E+02  0.61688233460E+03 -0.99814262151E+03  0.14817647038E+04  0.90424110033E+03 0.  0.
        -24    2    4    4    0    0 -0.54469747525E+02  0.43922724374E+03  0.15280153601E+02  0.44956006496E+03  0.77351430966E+02 0.  0.
         24    2    4    4    0    0  0.20673854342E+02  0.17765509085E+03 -0.10134227751E+04  0.10322046389E+04  0.80199475305E+02 0.  0.
         13    1    3    3    0    0  0.25267414641E+02 -0.42902812274E+02  0.62248443720E+02  0.79711744990E+02  0.00000000000E+00 0.  1.
        -13    1    3    3    0    0  0.85284785422E+01 -0.57397952232E+03  0.83386786044E+03  0.10123541059E+04  0.00000000000E+00 0. -1.
          2    1    6    6  502    0 -0.14054607639E+02  0.99804906270E+02 -0.70689989897E+03  0.71404903086E+03  0.00000000000E+00 0. -1.
          1    1    5    5  503    0 -0.38793166247E+02  0.42407278235E+03  0.22911105644E+02  0.42645932190E+03  0.00000000000E+00 0. -1.
         -2    1    5    5    0  503 -0.15676581279E+02  0.15154461393E+02 -0.76309520431E+01  0.23100743057E+02  0.00000000000E+00 0.  1.
         -1    1    6    6    0  502  0.34728461981E+02  0.77850184585E+02 -0.30652287614E+03  0.31815560801E+03  0.00000000000E+00 0.  1.
<mgrwt>
<rscale>  0 0.25718076E+04</rscale>
<asrwt>0</asrwt>
<pdfrwt beam="1">  1        1 0.19013879E+00 0.25718076E+04</pdfrwt>
<pdfrwt beam="2">  1       -1 0.20583514E+00 0.25718076E+04</pdfrwt>
<totfact> 0.12190385E+00</totfact>
</mgrwt>
</event>
<event>
12    1  0.1556559E-007  0.1642109E+04  0.7818608E-02  0.8795089E-01
         -2   -1    0    0    0  501 -0.00000000000E+00  0.00000000000E+00  0.93562488417E+03  0.93562488417E+03  0.00000000000E+00 0. -1.
          2   -1    0    0  501    0  0.00000000000E+00 -0.00000000000E+00 -0.72051321370E+03  0.72051321370E+03  0.00000000000E+00 0.  1.
         23    2    1    2    0    0 -0.35545049350E+03 -0.44930098593E+03  0.19931822725E+03  0.61346164216E+03  0.91602409387E+02 0.  0.
        254    2    1    2    0    0  0.35545049350E+03  0.44930098593E+03  0.15793443225E+02  0.10426764557E+04  0.87103864963E+03 0.  0.
        -24    2    4    4    0    0  0.49032194600E+03  0.18453052449E+03 -0.29412844849E+03  0.60606469799E+03  0.79597416627E+02 0.  0.
         24    2    4    4    0    0 -0.13487145250E+03  0.26477046144E+03  0.30992189172E+03  0.43661175772E+03  0.79275103687E+02 0.  0.
         11    1    3    3    0    0 -0.16972211600E+03 -0.26596769736E+03  0.14340298888E+03  0.34656720837E+03  0.00000000000E+00 0.  1.
        -11    1    3    3    0    0 -0.18572837750E+03 -0.18333328857E+03  0.55915238360E+02  0.26689443379E+03  0.00000000000E+00 0. -1.
          2    1    6    6  502    0 -0.86103516506E+02  0.22943619495E+03  0.26849049340E+03  0.36351331221E+03  0.00000000000E+00 0. -1.
          1    1    5    5  503    0  0.25437028333E+03  0.13432491053E+03 -0.17860718426E+03  0.33859703026E+03  0.00000000000E+00 0. -1.
         -4    1    5    5    0  503  0.23595166267E+03  0.50205613963E+02 -0.11552126423E+03  0.26746766773E+03  0.00000000000E+00 0.  1.
         -1    1    6    6    0  502 -0.48767935997E+02  0.35334266490E+02  0.41431398316E+02  0.73098445512E+02  0.00000000000E+00 0.  1.
<mgrwt>
<rscale>  0 0.16421085E+04</rscale>
<asrwt>0</asrwt>
<pdfrwt beam="1">  1        2 0.11084819E+00 0.16421085E+04</pdfrwt>
<pdfrwt beam="2">  1       -2 0.14394229E+00 0.16421085E+04</pdfrwt>
<totfact> 0.12603270E+01</totfact>
</mgrwt>
</event>
<event>
12    1  0.1556559E-007  0.1309624E+04  0.7818608E-02  0.9021968E-01
         -1   -1    0    0    0  501 -0.00000000000E+00  0.00000000000E+00  0.66375496652E+03  0.66375496652E+03  0.00000000000E+00 0.  1.
          1   -1    0    0  501    0  0.00000000000E+00 -0.00000000000E+00 -0.64598965836E+03  0.64598965836E+03  0.00000000000E+00 0. -1.
         23    2    1    2    0    0 -0.20542789979E+03 -0.25126278372E+03 -0.75882267680E+02  0.34572892050E+03  0.91851834131E+02 0.  0.
        254    2    1    2    0    0  0.20542789979E+03  0.25126278372E+03  0.93647575837E+02  0.96401570438E+03  0.90289689408E+03 0.  0.
        -24    2    4    4    0    0  0.43787227747E+03  0.15685600338E+02 -0.22411669098E+03  0.49827296366E+03  0.77906904117E+02 0.  0.
         24    2    4    4    0    0 -0.23244437768E+03  0.23557718338E+03  0.31776426682E+03  0.46574274072E+03  0.80094776494E+02 0.  0.
         11    1    3    3    0    0 -0.41207846646E+02 -0.25186142553E+02 -0.42469377040E+02  0.64312334649E+02  0.00000000000E+00 0.  1.
        -11    1    3    3    0    0 -0.16422005314E+03 -0.22607664116E+03 -0.33412890640E+02  0.28141658585E+03  0.00000000000E+00 0. -1.
          2    1    6    6  502    0 -0.15340115337E+03  0.20430747722E+03  0.23670598456E+03  0.34828606378E+03  0.00000000000E+00 0. -1.
          1    1    5    5  503    0  0.24868879357E+03  0.28726965296E+02 -0.90094027324E+02  0.26606068545E+03  0.00000000000E+00 0. -1.
         -2    1    5    5    0  503  0.18918348390E+03 -0.13041364958E+02 -0.13402266366E+03  0.23221227821E+03  0.00000000000E+00 0.  1.
         -3    1    6    6    0  502 -0.79043224314E+02  0.31269706161E+02  0.81058282261E+02  0.11745667693E+03  0.00000000000E+00 0.  1.
<mgrwt>
<rscale>  0 0.13096241E+04</rscale>
<asrwt>0</asrwt>
<pdfrwt beam="1">  1        1 0.99383025E-01 0.13096241E+04</pdfrwt>
<pdfrwt beam="2">  1       -1 0.10211615E+00 0.13096241E+04</pdfrwt>
<totfact> 0.27423191E+01</totfact>
</mgrwt>
</event>
<event>
12    1  0.1556559E-007  0.1075162E+04  0.7818608E-02  0.9229744E-01
          2   -1    0    0  501    0  0.00000000000E+00  0.00000000000E+00  0.34114727001E+04  0.34114727001E+04  0.00000000000E+00 0. -1.
         -2   -1    0    0    0  501 -0.00000000000E+00 -0.00000000000E+00 -0.84712253867E+02  0.84712253867E+02  0.00000000000E+00 0.  1.
         23    2    1    2    0    0  0.76548528571E+02  0.40602227886E+02  0.84217364763E+03  0.85176224081E+03  0.93457177237E+02 0.  0.
        254    2    1    2    0    0 -0.76548528571E+02 -0.40602227886E+02  0.24845867986E+04  0.26444227131E+04  0.90127227179E+03 0.  0.
        -24    2    4    4    0    0 -0.27541843360E+03 -0.29595193272E+02  0.23947147718E+04  0.24120129157E+04  0.80101672882E+02 0.  0.
         24    2    4    4    0    0  0.19886990502E+03 -0.11007034614E+02  0.89872026737E+02  0.23240979743E+03  0.79163999495E+02 0.  0.
         13    1    3    3    0    0 -0.16868681602E+02  0.21981254744E+02  0.11081535309E+03  0.11422683773E+03  0.00000000000E+00 0. -1.
        -13    1    3    3    0    0  0.93417210172E+02  0.18620973142E+02  0.73135829455E+03  0.73753540308E+03  0.00000000000E+00 0.  1.
          2    1    6    6  502    0  0.63126015586E+02  0.19834929163E+01  0.70540033054E+02  0.94682228276E+02  0.00000000000E+00 0. -1.
          1    1    5    5  503    0 -0.20467338295E+03 -0.40936935378E+02  0.15029695730E+04  0.15173940041E+04  0.00000000000E+00 0. -1.
         -2    1    5    5    0  503 -0.70745050642E+02  0.11341742106E+02  0.89174519882E+03  0.89461891157E+03  0.00000000000E+00 0.  1.
         -1    1    6    6    0  502  0.13574388944E+03 -0.12990527531E+02  0.19331993683E+02  0.13772756915E+03  0.00000000000E+00 0.  1.
<mgrwt>
<rscale>  0 0.10751624E+04</rscale>
<asrwt>0</asrwt>
<pdfrwt beam="1">  1        2 0.52484185E+00 0.10751624E+04</pdfrwt>
<pdfrwt beam="2">  1       -2 0.13032657E-01 0.10751624E+04</pdfrwt>
<totfact> 0.42708254E+01</totfact>
</mgrwt>
</event>
<event>
12    1  0.1556559E-007  0.1888611E+04  0.7818608E-02  0.8660546E-01
         -2   -1    0    0    0  501 -0.00000000000E+00  0.00000000000E+00  0.30144850240E+03  0.30144850240E+03  0.00000000000E+00 0.  1.
          2   -1    0    0  501    0  0.00000000000E+00 -0.00000000000E+00 -0.29580944995E+04  0.29580944995E+04  0.00000000000E+00 0. -1.
         23    2    1    2    0    0  0.58179619796E+03  0.32382704326E+03 -0.13409194707E+04  0.15000844290E+04  0.94007965229E+02 0.  0.
        254    2    1    2    0    0 -0.58179619796E+03 -0.32382704326E+03 -0.13157265265E+04  0.17594585729E+04  0.95979550290E+03 0.  0.
        -24    2    4    4    0    0 -0.73720128119E+03  0.50875363145E+02 -0.72610794229E+03  0.10393515340E+04  0.83455591512E+02 0.  0.
         24    2    4    4    0    0  0.15540508323E+03 -0.37470240640E+03 -0.58961858419E+03  0.72010703893E+03  0.79695918579E+02 0.  0.
         13    1    3    3    0    0  0.50554987355E+02  0.62282610592E+02 -0.15185474825E+03  0.17174048706E+03  0.00000000000E+00 0.  1.
        -13    1    3    3    0    0  0.53124121061E+03  0.26154443266E+03 -0.11890647224E+04  0.13283439420E+04  0.00000000000E+00 0. -1.
          2    1    6    6  502    0  0.15226845851E+03 -0.36545419475E+03 -0.58978008289E+03  0.71034005807E+03  0.00000000000E+00 0. -1.
          3    1    5    5  503    0 -0.37688968391E+03  0.14964569378E+01 -0.32223466687E+03  0.49586616517E+03  0.00000000000E+00 0. -1.
         -4    1    5    5    0  503 -0.36031159728E+03  0.49378906208E+02 -0.40387327542E+03  0.54348536881E+03  0.00000000000E+00 0.  1.
         -1    1    6    6    0  502  0.31366247206E+01 -0.92482116521E+01  0.16149870083E+00  0.97669808657E+01  0.00000000000E+00 0.  1.
<mgrwt>
<rscale>  0 0.18886113E+04</rscale>
<asrwt>0</asrwt>
<pdfrwt beam="1">  1        2 0.45509145E+00 0.18886113E+04</pdfrwt>
<pdfrwt beam="2">  1       -2 0.46376693E-01 0.18886113E+04</pdfrwt>
<totfact> 0.76642246E+00</totfact>
</mgrwt>
</event>
<event>
12    1  0.1585620E-007  0.1462430E+04  0.7818608E-02  0.8909828E-01
          2   -1    0    0  501    0  0.00000000000E+00  0.00000000000E+00  0.23599700779E+04  0.23599700779E+04  0.00000000000E+00 0. -1.
         -2   -1    0    0    0  501 -0.00000000000E+00 -0.00000000000E+00 -0.22656022533E+03  0.22656022533E+03  0.00000000000E+00 0.  1.
         23    2    1    2    0    0  0.25225220543E+03 -0.36664230773E+03  0.66055431425E+03  0.80071969054E+03  0.82232984792E+02 0.  0.
        254    2    1    2    0    0 -0.25225220543E+03  0.36664230773E+03  0.14728555383E+04  0.17858106127E+04  0.90650888064E+03 0.  0.
        -24    2    4    4    0    0 -0.49656609811E+03  0.22626296769E+03  0.13693131805E+04  0.14762743776E+04  0.81207336408E+02 0.  0.
         24    2    4    4    0    0  0.24431389268E+03  0.14037934003E+03  0.10354235780E+03  0.30953623503E+03  0.75472005875E+02 0.  0.
         11    1    3    3    0    0  0.30026927844E+02 -0.20774082535E+02  0.26755440106E+02  0.45266239917E+02  0.00000000000E+00 0.  1.
        -11    1    3    3    0    0  0.22222527758E+03 -0.34586822519E+03  0.63379887414E+03  0.75545345062E+03  0.00000000000E+00 0. -1.
          4    1    6    6  502    0  0.23870929417E+03  0.12012259690E+03  0.10769142253E+03  0.28811283882E+03  0.00000000000E+00 0. -1.
          1    1    5    5  503    0 -0.49918389419E+03  0.22553846749E+03  0.13520352270E+04  0.14587842251E+04  0.00000000000E+00 0. -1.
         -2    1    5    5    0  503  0.26177960877E+01  0.72450020504E+00  0.17277953513E+02  0.17490152501E+02  0.00000000000E+00 0.  1.
         -3    1    6    6    0  502  0.56045985124E+01  0.20256743134E+02 -0.41490647253E+01  0.21423396205E+02  0.00000000000E+00 0.  1.
<mgrwt>
<rscale>  0 0.14624300E+04</rscale>
<asrwt>0</asrwt>
<pdfrwt beam="1">  1        2 0.36307230E+00 0.14624300E+04</pdfrwt>
<pdfrwt beam="2">  1       -2 0.34855421E-01 0.14624300E+04</pdfrwt>
<totfact> 0.31420983E+01</totfact>
</mgrwt>
</event>
<event>
12    1  0.1556559E-007  0.1075633E+04  0.7818608E-02  0.9229273E-01
         -2   -1    0    0    0  501 -0.00000000000E+00  0.00000000000E+00  0.20883404809E+04  0.20883404809E+04  0.00000000000E+00 0.  1.
          2   -1    0    0  501    0  0.00000000000E+00 -0.00000000000E+00 -0.13850541627E+03  0.13850541627E+03  0.00000000000E+00 0. -1.
         23    2    1    2    0    0  0.47162879251E+02  0.12828308327E+03  0.34939329028E+03  0.38700646727E+03  0.94960243210E+02 0.  0.
        254    2    1    2    0    0 -0.47162879251E+02 -0.12828308327E+03  0.16004417744E+04  0.18398394299E+04  0.89717020018E+03 0.  0.
        -24    2    4    4    0    0  0.34011847358E+03 -0.24585561303E+03  0.11604171826E+04  0.12365307296E+04  0.79464766296E+02 0.  0.
         24    2    4    4    0    0 -0.38728135283E+03  0.11757252976E+03  0.44002459175E+03  0.60330870028E+03  0.80929602060E+02 0.  0.
         13    1    3    3    0    0  0.19653057796E+02  0.35042073509E+02  0.22679627330E+02  0.46136266563E+02  0.00000000000E+00 0. -1.
        -13    1    3    3    0    0  0.27509821454E+02  0.93241009757E+02  0.32671366295E+03  0.34087020071E+03  0.00000000000E+00 0.  1.
          2    1    6    6  502    0 -0.38311758201E+03  0.10217987238E+03  0.41834082436E+03  0.57639296777E+03  0.00000000000E+00 0. -1.
          3    1    5    5  503    0  0.21473136283E+03 -0.19028957294E+03  0.71290989757E+03  0.76847914858E+03  0.00000000000E+00 0. -1.
         -4    1    5    5    0  503  0.12538711075E+03 -0.55566040093E+02  0.44750728503E+03  0.46805158104E+03  0.00000000000E+00 0.  1.
         -1    1    6    6    0  502 -0.41637708168E+01  0.15392657379E+02  0.21683767388E+02  0.26915732513E+02  0.00000000000E+00 0.  1.
<mgrwt>
<rscale>  0 0.10756328E+04</rscale>
<asrwt>0</asrwt>
<pdfrwt beam="1">  1        2 0.21308527E-01 0.10756328E+04</pdfrwt>
<pdfrwt beam="2">  1       -2 0.32128313E+00 0.10756328E+04</pdfrwt>
<totfact> 0.62701083E+00</totfact>
</mgrwt>
</event>
<event>
12    1  0.1556559E-007  0.2037160E+04  0.7818608E-02  0.8589442E-01
          1   -1    0    0  501    0  0.00000000000E+00  0.00000000000E+00  0.33384993849E+04  0.33384993849E+04  0.00000000000E+00 0. -1.
         -1   -1    0    0    0  501 -0.00000000000E+00 -0.00000000000E+00 -0.31076979920E+03  0.31076979920E+03  0.00000000000E+00 0.  1.
         23    2    1    2    0    0 -0.49534998397E+03  0.57117642584E+03  0.17502706822E+04  0.19086143609E+04  0.88018189121E+02 0.  0.
        254    2    1    2    0    0  0.49534998397E+03 -0.57117642584E+03  0.12774589036E+04  0.17406548233E+04  0.90904556949E+03 0.  0.
        -24    2    4    4    0    0 -0.72719361070E+02  0.19602532219E+03  0.22812367772E+03  0.31970161316E+03  0.80341002647E+02 0.  0.
         24    2    4    4    0    0  0.56806934504E+03 -0.76720174803E+03  0.10493352259E+04  0.14209532101E+04  0.81867613609E+02 0.  0.
         11    1    3    3    0    0 -0.29589813877E+03  0.29723455612E+03  0.10500107948E+04  0.11306753553E+04  0.00000000000E+00 0. -1.
        -11    1    3    3    0    0 -0.19945184520E+03  0.27394186972E+03  0.70025988738E+03  0.77793900559E+03  0.00000000000E+00 0.  1.
          4    1    6    6  502    0  0.19426419421E+02 -0.85238814400E+01  0.31623240859E+02  0.38079806838E+02  0.00000000000E+00 0. -1.
          3    1    5    5  503    0  0.16064091356E+02  0.30510106651E+02  0.50798964070E+02  0.61395898800E+02  0.00000000000E+00 0. -1.
         -4    1    5    5    0  503 -0.88783452425E+02  0.16551521554E+03  0.17732471365E+03  0.25830571436E+03  0.00000000000E+00 0.  1.
         -3    1    6    6    0  502  0.54864292562E+03 -0.75867786659E+03  0.10177119850E+04  0.13828734033E+04  0.00000000000E+00 0.  1.
<mgrwt>
<rscale>  0 0.20371596E+04</rscale>
<asrwt>0</asrwt>
<pdfrwt beam="1">  1        1 0.51361527E+00 0.20371596E+04</pdfrwt>
<pdfrwt beam="2">  1       -1 0.47810741E-01 0.20371596E+04</pdfrwt>
<totfact> 0.13528284E+00</totfact>
</mgrwt>
</event>
<event>
12    1  0.1556559E-007  0.1285827E+04  0.7818608E-02  0.9040881E-01
         -1   -1    0    0    0  501 -0.00000000000E+00  0.00000000000E+00  0.10169460651E+04  0.10169460651E+04  0.00000000000E+00 0.  1.
          1   -1    0    0  501    0  0.00000000000E+00 -0.00000000000E+00 -0.40644999269E+03  0.40644999269E+03  0.00000000000E+00 0. -1.
         23    2    1    2    0    0 -0.19088736735E+03  0.20031144289E+02  0.44539306662E+03  0.49371139052E+03  0.92394369856E+02 0.  0.
        254    2    1    2    0    0  0.19088736735E+03 -0.20031144289E+02  0.16510300579E+03  0.92968466728E+03  0.89454756402E+03 0.  0.
        -24    2    4    4    0    0  0.27425608471E+03 -0.13264171839E+03  0.48164266053E+03  0.57535525545E+03  0.79017669383E+02 0.  0.
         24    2    4    4    0    0 -0.83368717358E+02  0.11261057410E+03 -0.31653965475E+03  0.35432941182E+03  0.75633951524E+02 0.  0.
         11    1    3    3    0    0 -0.36813321977E+02  0.41689842130E+02  0.90711781757E+02  0.10640437473E+03  0.00000000000E+00 0. -1.
        -11    1    3    3    0    0 -0.15407404537E+03 -0.21658697840E+02  0.35468128487E+03  0.38730701580E+03  0.00000000000E+00 0.  1.
          2    1    6    6  502    0 -0.22745003338E+02  0.36009354964E+02 -0.18865234900E+03  0.19340040746E+03  0.00000000000E+00 0. -1.
          1    1    5    5  503    0  0.24594403985E+03 -0.11283542459E+03  0.36933231860E+03  0.45785004679E+03  0.00000000000E+00 0. -1.
         -2    1    5    5    0  503  0.28312044855E+02 -0.19806293798E+02  0.11231034194E+03  0.11750520867E+03  0.00000000000E+00 0.  1.
         -1    1    6    6    0  502 -0.60623714020E+02  0.76601219140E+02 -0.12788730575E+03  0.16092900437E+03  0.00000000000E+00 0.  1.
<mgrwt>
<rscale>  0 0.12858269E+04</rscale>
<asrwt>0</asrwt>
<pdfrwt beam="1">  1        1 0.62530768E-01 0.12858269E+04</pdfrwt>
<pdfrwt beam="2">  1       -1 0.15645324E+00 0.12858269E+04</pdfrwt>
<totfact> 0.17965582E+01</totfact>
</mgrwt>
</event>
<event>
12    1  0.1556559E-007  0.1897090E+04  0.7818608E-02  0.8656306E-01
         -2   -1    0    0    0  501 -0.00000000000E+00  0.00000000000E+00  0.78767520709E+03  0.78767520709E+03  0.00000000000E+00 0.  1.
          2   -1    0    0  501    0  0.00000000000E+00 -0.00000000000E+00 -0.11422701152E+04  0.11422701152E+04  0.00000000000E+00 0. -1.
         23    2    1    2    0    0  0.11393449473E+02  0.36528859689E+03 -0.78418075315E+03  0.86985807028E+03  0.90266489347E+02 0.  0.
        254    2    1    2    0    0 -0.11393449473E+02 -0.36528859689E+03  0.42958584509E+03  0.10600872520E+04  0.89759423672E+03 0.  0.
        -24    2    4    4    0    0 -0.11070805964E+03 -0.56698329007E+03  0.17171261318E+02  0.58344559689E+03  0.79922378789E+02 0.  0.
         24    2    4    4    0    0  0.99314610168E+02  0.20169469318E+03  0.41241458377E+03  0.47664165508E+03  0.80977388255E+02 0.  0.
         13    1    3    3    0    0  0.41019105868E+02  0.31118767740E+03 -0.67631144357E+03  0.74559875691E+03  0.00000000000E+00 0. -1.
        -13    1    3    3    0    0 -0.29625656395E+02  0.54100919498E+02 -0.10786930959E+03  0.12425931336E+03  0.00000000000E+00 0.  1.
          4    1    6    6  502    0  0.88324433936E+01  0.10607678297E+03  0.20477597006E+03  0.23078885124E+03  0.00000000000E+00 0. -1.
          1    1    5    5  503    0 -0.51128106765E+02 -0.15605631322E+03  0.34730619183E+02  0.16785074354E+03  0.00000000000E+00 0. -1.
         -2    1    5    5    0  503 -0.59579952877E+02 -0.41092697685E+03 -0.17559357865E+02  0.41559485336E+03  0.00000000000E+00 0.  1.
         -3    1    6    6    0  502  0.90482166775E+02  0.95617910203E+02  0.20763861370E+03  0.24585280384E+03  0.00000000000E+00 0.  1.
<mgrwt>
<rscale>  0 0.18970902E+04</rscale>
<asrwt>0</asrwt>
<pdfrwt beam="1">  1        2 0.17573386E+00 0.18970902E+04</pdfrwt>
<pdfrwt beam="2">  1       -2 0.12118080E+00 0.18970902E+04</pdfrwt>
<totfact> 0.99643955E+00</totfact>
</mgrwt>
</event>
<event>
12    1  0.1556559E-007  0.1864473E+04  0.7818608E-02  0.8672745E-01
         -1   -1    0    0    0  501 -0.00000000000E+00  0.00000000000E+00  0.37530410617E+03  0.37530410617E+03  0.00000000000E+00 0.  1.
          1   -1    0    0  501    0  0.00000000000E+00 -0.00000000000E+00 -0.23156287142E+04  0.23156287142E+04  0.00000000000E+00 0. -1.
         23    2    1    2    0    0  0.96280087684E+02 -0.38473228663E+03 -0.16187479860E+04  0.16690654979E+04  0.90254122315E+02 0.  0.
        254    2    1    2    0    0 -0.96280087684E+02  0.38473228663E+03 -0.32157662208E+03  0.10218673225E+04  0.88516242194E+03 0.  0.
        -24    2    4    4    0    0 -0.57778421575E+02  0.32977305777E+03 -0.61831534879E+03  0.70752183919E+03  0.78642652264E+02 0.  0.
         24    2    4    4    0    0 -0.38501666109E+02  0.54959228863E+02  0.29673872671E+03  0.31434548328E+03  0.79096876029E+02 0.  0.
         13    1    3    3    0    0  0.17693582537E+02 -0.68994633842E+02 -0.17168314133E+03  0.18587206186E+03  0.00000000000E+00 0. -1.
        -13    1    3    3    0    0  0.78586505147E+02 -0.31573765279E+03 -0.14470648446E+04  0.14831934361E+04  0.00000000000E+00 0.  1.
          4    1    6    6  502    0 -0.25233087640E+02  0.67675590794E+02  0.15025217210E+03  0.16671055612E+03  0.00000000000E+00 0. -1.
          1    1    5    5  503    0 -0.49939112734E+02  0.33191270159E+03 -0.60648396172E+03  0.69316863193E+03  0.00000000000E+00 0. -1.
         -2    1    5    5    0  503 -0.78393088415E+01 -0.21396438294E+01 -0.11831387068E+02  0.14353207264E+02  0.00000000000E+00 0.  1.
         -3    1    6    6    0  502 -0.13268578469E+02 -0.12716361931E+02  0.14648655461E+03  0.14763492716E+03  0.00000000000E+00 0.  1.
<mgrwt>
<rscale>  0 0.18644731E+04</rscale>
<asrwt>0</asrwt>
<pdfrwt beam="1">  1        1 0.35625057E+00 0.18644731E+04</pdfrwt>
<pdfrwt beam="2">  1       -1 0.57739094E-01 0.18644731E+04</pdfrwt>
<totfact> 0.51798261E+00</totfact>
</mgrwt>
</event>
<event>
12    1  0.1556559E-007  0.1402059E+04  0.7818608E-02  0.8952330E-01
          2   -1    0    0  501    0  0.00000000000E+00  0.00000000000E+00  0.64876345542E+03  0.64876345542E+03  0.00000000000E+00 0. -1.
         -2   -1    0    0    0  501 -0.00000000000E+00 -0.00000000000E+00 -0.75750586870E+03  0.75750586870E+03  0.00000000000E+00 0.  1.
         23    2    1    2    0    0  0.49395799891E+02 -0.33105028409E+03  0.16340716045E+03  0.38347982973E+03  0.91217564506E+02 0.  0.
        254    2    1    2    0    0 -0.49395799891E+02  0.33105028409E+03 -0.27214957373E+03  0.10227894944E+04  0.92736116142E+03 0.  0.
        -24    2    4    4    0    0 -0.63952720430E+01 -0.13032954047E+03 -0.48336282599E+03  0.50685724427E+03  0.78980731170E+02 0.  0.
         24    2    4    4    0    0 -0.43000527848E+02  0.46137982456E+03  0.21121325226E+03  0.51593225012E+03  0.82792879377E+02 0.  0.
         13    1    3    3    0    0  0.34167089672E+02 -0.83071287730E+02  0.74311499758E+01  0.90130188348E+02  0.00000000000E+00 0. -1.
        -13    1    3    3    0    0  0.15228710219E+02 -0.24797899636E+03  0.15597601047E+03  0.29334964138E+03  0.00000000000E+00 0.  1.
          2    1    6    6  502    0 -0.37469660285E+02  0.36094148222E+03  0.12610618032E+03  0.38416857985E+03  0.00000000000E+00 0. -1.
          3    1    5    5  503    0  0.25403267439E+02 -0.10229138979E+03 -0.28135540742E+03  0.30044919655E+03  0.00000000000E+00 0. -1.
         -4    1    5    5    0  503 -0.31798539482E+02 -0.28038150674E+02 -0.20200741857E+03  0.20640804772E+03  0.00000000000E+00 0.  1.
         -1    1    6    6    0  502 -0.55308675633E+01  0.10043834234E+03  0.85107071945E+02  0.13176367027E+03  0.00000000000E+00 0.  1.
<mgrwt>
<rscale>  0 0.14020587E+04</rscale>
<asrwt>0</asrwt>
<pdfrwt beam="1">  1        2 0.99809763E-01 0.14020587E+04</pdfrwt>
<pdfrwt beam="2">  1       -2 0.11653936E+00 0.14020587E+04</pdfrwt>
<totfact> 0.25031082E+01</totfact>
</mgrwt>
</event>
<event>
12    1  0.1556559E-007  0.1989406E+04  0.7818608E-02  0.8611590E-01
         -2   -1    0    0    0  501 -0.00000000000E+00  0.00000000000E+00  0.45575005426E+03  0.45575005426E+03  0.00000000000E+00 0.  1.
          2   -1    0    0  501    0  0.00000000000E+00 -0.00000000000E+00 -0.21710009601E+04  0.21710009601E+04  0.00000000000E+00 0. -1.
         23    2    1    2    0    0 -0.65958203325E+03 -0.28729764738E+03 -0.26747731784E+03  0.77297829677E+03  0.91449083804E+02 0.  0.
        254    2    1    2    0    0  0.65958203325E+03  0.28729764738E+03 -0.14477735880E+04  0.18537727176E+04  0.90710337314E+03 0.  0.
        -24    2    4    4    0    0  0.56991487700E+03 -0.20071489898E+03 -0.53108563747E+03  0.80840000942E+03  0.79807162608E+02 0.  0.
         24    2    4    4    0    0  0.89667156256E+02  0.48801254636E+03 -0.91668795051E+03  0.10453727082E+04  0.79314916772E+02 0.  0.
         11    1    3    3    0    0 -0.12810955381E+03 -0.72414622031E+02 -0.19771558958E+02  0.14848181641E+03  0.00000000000E+00 0. -1.
        -11    1    3    3    0    0 -0.53147247944E+03 -0.21488302535E+03 -0.24770575889E+03  0.62449648035E+03  0.00000000000E+00 0.  1.
          2    1    6    6  502    0  0.46500053055E+02  0.41283953098E+03 -0.77268157518E+03  0.87728874944E+03  0.00000000000E+00 0. -1.
          3    1    5    5  503    0  0.45743763799E+03 -0.13781285388E+03 -0.44888268204E+03  0.65554346735E+03  0.00000000000E+00 0. -1.
         -4    1    5    5    0  503  0.11247723901E+03 -0.62902045098E+02 -0.82202955424E+02  0.15285654207E+03  0.00000000000E+00 0.  1.
         -1    1    6    6    0  502  0.43167103201E+02  0.75173015381E+02 -0.14400637533E+03  0.16808395871E+03  0.00000000000E+00 0.  1.
<mgrwt>
<rscale>  0 0.19894057E+04</rscale>
<asrwt>0</asrwt>
<pdfrwt beam="1">  1        2 0.33400014E+00 0.19894057E+04</pdfrwt>
<pdfrwt beam="2">  1       -2 0.70115395E-01 0.19894057E+04</pdfrwt>
<totfact> 0.92341158E+00</totfact>
</mgrwt>
</event>
<event>
12    1  0.1556559E-007  0.1463926E+04  0.7818608E-02  0.8908802E-01
         -1   -1    0    0    0  501 -0.00000000000E+00  0.00000000000E+00  0.11832426800E+04  0.11832426800E+04  0.00000000000E+00 0.  1.
          1   -1    0    0  501    0  0.00000000000E+00 -0.00000000000E+00 -0.45279808097E+03  0.45279808097E+03  0.00000000000E+00 0. -1.
         23    2    1    2    0    0  0.20518594180E+03 -0.12175127329E+03 -0.19753072239E+03  0.32293254764E+03  0.91336743873E+02 0.  0.
        254    2    1    2    0    0 -0.20518594180E+03  0.12175127329E+03  0.92797532142E+03  0.13131082133E+04  0.89788102747E+03 0.  0.
        -24    2    4    4    0    0 -0.47669950685E+03  0.21273018504E+03  0.27349969568E+03  0.59443017322E+03  0.77772719073E+02 0.  0.
         24    2    4    4    0    0  0.27151356505E+03 -0.90978911752E+02  0.65447562573E+03  0.71867804011E+03  0.78504791378E+02 0.  0.
         11    1    3    3    0    0  0.21436767611E+03 -0.12090300447E+03 -0.19230755535E+03  0.31233512914E+03  0.00000000000E+00 0. -1.
        -11    1    3    3    0    0 -0.91817343131E+01 -0.84826881666E+00 -0.52231670403E+01  0.10597418502E+02  0.00000000000E+00 0.  1.
          2    1    6    6  502    0  0.22845482022E+03 -0.43202382994E+02  0.50499249203E+03  0.55594556189E+03  0.00000000000E+00 0. -1.
          3    1    5    5  503    0 -0.31009910594E+03  0.10086506762E+03  0.15132913992E+03  0.35949370782E+03  0.00000000000E+00 0. -1.
         -4    1    5    5    0  503 -0.16660040091E+03  0.11186511742E+03  0.12217055576E+03  0.23493646540E+03  0.00000000000E+00 0.  1.
         -1    1    6    6    0  502  0.43058744833E+02 -0.47776528758E+02  0.14948313370E+03  0.16273247822E+03  0.00000000000E+00 0.  1.
<mgrwt>
<rscale>  0 0.14639262E+04</rscale>
<asrwt>0</asrwt>
<pdfrwt beam="1">  1        1 0.69661244E-01 0.14639262E+04</pdfrwt>
<pdfrwt beam="2">  1       -1 0.18203733E+00 0.14639262E+04</pdfrwt>
<totfact> 0.99107799E+00</totfact>
</mgrwt>
</event>
<event>
12    1  0.1556559E-007  0.1323441E+04  0.7818608E-02  0.9011180E-01
         -1   -1    0    0    0  501 -0.00000000000E+00  0.00000000000E+00  0.13214652126E+03  0.13214652126E+03  0.00000000000E+00 0.  1.
          1   -1    0    0  501    0  0.00000000000E+00 -0.00000000000E+00 -0.33135495254E+04  0.33135495254E+04  0.00000000000E+00 0. -1.
         23    2    1    2    0    0 -0.14817349841E+03 -0.29135696376E+03 -0.69108928475E+03  0.76984609436E+03  0.90633015737E+02 0.  0.
        254    2    1    2    0    0  0.14817349841E+03  0.29135696376E+03 -0.24903137194E+04  0.26758499523E+04  0.92285767064E+03 0.  0.
        -24    2    4    4    0    0  0.46626449643E+03  0.24922650920E+02 -0.18449857245E+04  0.19048368225E+04  0.80045472154E+02 0.  0.
         24    2    4    4    0    0 -0.31809099802E+03  0.26643431284E+03 -0.64532799492E+03  0.77101312982E+03  0.76445400408E+02 0.  0.
         11    1    3    3    0    0 -0.20617316472E+01 -0.68986002348E+02 -0.98617484426E+02  0.12036913014E+03  0.00000000000E+00 0. -1.
        -11    1    3    3    0    0 -0.14611176676E+03 -0.22237096141E+03 -0.59247180033E+03  0.64947696422E+03  0.00000000000E+00 0.  1.
          4    1    6    6  502    0 -0.16111363837E+03  0.11061906809E+03 -0.24240473504E+03  0.31137475534E+03  0.00000000000E+00 0. -1.
          1    1    5    5  503    0  0.32227841008E+03  0.54069231025E+02 -0.12858245077E+04  0.13266994836E+04  0.00000000000E+00 0. -1.
         -2    1    5    5    0  503  0.14398608635E+03 -0.29146580105E+02 -0.55916121678E+03  0.57813733883E+03  0.00000000000E+00 0.  1.
         -3    1    6    6    0  502 -0.15697735965E+03  0.15581524474E+03 -0.40292325988E+03  0.45963837447E+03  0.00000000000E+00 0.  1.
<mgrwt>
<rscale>  0 0.13234410E+04</rscale>
<asrwt>0</asrwt>
<pdfrwt beam="1">  1        1 0.50977684E+00 0.13234410E+04</pdfrwt>
<pdfrwt beam="2">  1       -1 0.20330234E-01 0.13234410E+04</pdfrwt>
<totfact> 0.69020208E+00</totfact>
</mgrwt>
</event>
<event>
12    1  0.1556559E-007  0.1562134E+04  0.7818608E-02  0.8844154E-01
          1   -1    0    0  501    0  0.00000000000E+00  0.00000000000E+00  0.68196993502E+03  0.68196993502E+03  0.00000000000E+00 0. -1.
         -1   -1    0    0    0  501 -0.00000000000E+00 -0.00000000000E+00 -0.89456361424E+03  0.89456361424E+03  0.00000000000E+00 0.  1.
         23    2    1    2    0    0 -0.39476732722E+03 -0.30843007715E+03  0.54672915372E+02  0.51240821470E+03  0.92750717988E+02 0.  0.
        254    2    1    2    0    0  0.39476732722E+03  0.30843007715E+03 -0.26726659459E+03  0.10641253346E+04  0.89997829970E+03 0.  0.
        -24    2    4    4    0    0  0.31147147849E+03 -0.25700487420E+03  0.33610903276E+02  0.41357783514E+03  0.82770439316E+02 0.  0.
         24    2    4    4    0    0  0.83295848723E+02  0.56543495135E+03 -0.30087749787E+03  0.65054749941E+03  0.77652415606E+02 0.  0.
         11    1    3    3    0    0 -0.17078837402E+03 -0.87833895461E+02  0.48036029315E+02  0.19796697200E+03  0.00000000000E+00 0. -1.
        -11    1    3    3    0    0 -0.22397895320E+03 -0.22059618169E+03  0.66368860574E+01  0.31444124270E+03  0.00000000000E+00 0.  1.
          2    1    6    6  502    0  0.90229246363E+01  0.45619951445E+02 -0.24351133705E+01  0.46567401860E+02  0.00000000000E+00 0. -1.
          1    1    5    5  503    0  0.57890025625E+02 -0.41034611726E+02 -0.25276258950E+02  0.75325850097E+02  0.00000000000E+00 0. -1.
         -4    1    5    5    0  503  0.25358145287E+03 -0.21597026247E+03  0.58887162226E+02  0.33825198504E+03  0.00000000000E+00 0.  1.
         -1    1    6    6    0  502  0.74272924086E+02  0.51981499990E+03 -0.29844238450E+03  0.60398009755E+03  0.00000000000E+00 0.  1.
<mgrwt>
<rscale>  0 0.15621338E+04</rscale>
<asrwt>0</asrwt>
<pdfrwt beam="1">  1        1 0.10491845E+00 0.15621338E+04</pdfrwt>
<pdfrwt beam="2">  1       -1 0.13762517E+00 0.15621338E+04</pdfrwt>
<totfact> 0.11959249E+01</totfact>
</mgrwt>
</event>
<event>
12    1  0.1556559E-007  0.1259038E+04  0.7818608E-02  0.9062694E-01
         -2   -1    0    0    0  501 -0.00000000000E+00  0.00000000000E+00  0.82611976364E+03  0.82611976364E+03  0.00000000000E+00 0.  1.
          2   -1    0    0  501    0  0.00000000000E+00 -0.00000000000E+00 -0.47970559435E+03  0.47970559435E+03  0.00000000000E+00 0. -1.
         23    2    1    2    0    0 -0.62750649049E+02 -0.13966342186E+03 -0.18438419502E+03  0.25850078144E+03  0.96858697444E+02 0.  0.
        254    2    1    2    0    0  0.62750649049E+02  0.13966342186E+03  0.53079836432E+03  0.10473245766E+04  0.88977432517E+03 0.  0.
        -24    2    4    4    0    0 -0.22254308115E+03  0.25045822288E+03  0.62837874583E+03  0.71637157624E+03  0.77933578547E+02 0.  0.
         24    2    4    4    0    0  0.28529373019E+03 -0.11079480102E+03 -0.97580381516E+02  0.33095300031E+03  0.79623847774E+02 0.  0.
         11    1    3    3    0    0 -0.66330619085E+02 -0.92872764311E+02 -0.67611486262E+02  0.13265147739E+03  0.00000000000E+00 0. -1.
        -11    1    3    3    0    0  0.35799700363E+01 -0.46790657546E+02 -0.11677270876E+03  0.12584930405E+03  0.00000000000E+00 0.  1.
          4    1    6    6  502    0  0.25117536247E+03 -0.12224789423E+03 -0.78234616403E+02  0.29009354622E+03  0.00000000000E+00 0. -1.
          1    1    5    5  503    0 -0.15257391421E+03  0.17540174148E+03  0.50470279243E+03  0.55567029694E+03  0.00000000000E+00 0. -1.
         -2    1    5    5    0  503 -0.69969166938E+02  0.75056481391E+02  0.12367595340E+03  0.16070127931E+03  0.00000000000E+00 0.  1.
         -3    1    6    6    0  502  0.34118367723E+02  0.11453093213E+02 -0.19345765113E+02  0.40859454084E+02  0.00000000000E+00 0.  1.
<mgrwt>
<rscale>  0 0.12590382E+04</rscale>
<asrwt>0</asrwt>
<pdfrwt beam="1">  1        2 0.73800861E-01 0.12590382E+04</pdfrwt>
<pdfrwt beam="2">  1       -2 0.12709535E+00 0.12590382E+04</pdfrwt>
<totfact> 0.29189660E+01</totfact>
</mgrwt>
</event>
<event>
12    1  0.1556559E-007  0.2029322E+04  0.7818608E-02  0.8593033E-01
          1   -1    0    0  501    0  0.00000000000E+00  0.00000000000E+00  0.45557716480E+03  0.45557716480E+03  0.00000000000E+00 0. -1.
         -1   -1    0    0    0  501 -0.00000000000E+00 -0.00000000000E+00 -0.22598529149E+04  0.22598529149E+04  0.00000000000E+00 0.  1.
         23    2    1    2    0    0 -0.41395906921E+03 -0.17816600412E+03  0.17786604467E+03  0.49318657023E+03  0.92148940361E+02 0.  0.
        254    2    1    2    0    0  0.41395906921E+03  0.17816600412E+03 -0.19821417948E+04  0.22222435095E+04  0.89798378873E+03 0.  0.
        -24    2    4    4    0    0  0.64099708694E+02 -0.70453492036E+02 -0.16983651525E+04  0.17029530219E+04  0.80822871278E+02 0.  0.
         24    2    4    4    0    0  0.34985936051E+03  0.24861949616E+03 -0.28377664229E+03  0.51929048755E+03  0.70144149747E+02 0.  0.
         13    1    3    3    0    0 -0.36650998590E+03 -0.15214219181E+03  0.18634786704E+03  0.43840887747E+03  0.00000000000E+00 0. -1.
        -13    1    3    3    0    0 -0.47449083304E+02 -0.26023812315E+02 -0.84818223712E+01  0.54777692764E+02  0.00000000000E+00 0.  1.
          2    1    6    6  502    0  0.28913657046E+03  0.17434894135E+03 -0.23734404605E+03  0.41271019605E+03  0.00000000000E+00 0. -1.
          3    1    5    5  503    0  0.22056255554E+02 -0.23382592649E+01 -0.96098601723E+03  0.96124194206E+03  0.00000000000E+00 0. -1.
         -4    1    5    5    0  503  0.42043453140E+02 -0.68115232771E+02 -0.73737913527E+03  0.74171107988E+03  0.00000000000E+00 0.  1.
         -1    1    6    6    0  502  0.60722790050E+02  0.74270554802E+02 -0.46432596234E+02  0.10658029150E+03  0.00000000000E+00 0.  1.
<mgrwt>
<rscale>  0 0.20293224E+04</rscale>
<asrwt>0</asrwt>
<pdfrwt beam="1">  1        1 0.70088795E-01 0.20293224E+04</pdfrwt>
<pdfrwt beam="2">  1       -1 0.34766968E+00 0.20293224E+04</pdfrwt>
<totfact> 0.75123333E-01</totfact>
</mgrwt>
</event>
<event>
12    1  0.1556559E-007  0.1790487E+04  0.7818608E-02  0.8711375E-01
         -1   -1    0    0    0  501 -0.00000000000E+00  0.00000000000E+00  0.26763886667E+03  0.26763886667E+03  0.00000000000E+00 0.  1.
          1   -1    0    0  501    0  0.00000000000E+00 -0.00000000000E+00 -0.29945601874E+04  0.29945601874E+04  0.00000000000E+00 0. -1.
         23    2    1    2    0    0 -0.32755891755E+03  0.57433001163E+03 -0.89233539403E+03  0.11142411368E+04  0.90116861401E+02 0.  0.
        254    2    1    2    0    0  0.32755891755E+03 -0.57433001163E+03 -0.18345859267E+04  0.21479579173E+04  0.90048202945E+03 0.  0.
        -24    2    4    4    0    0 -0.15660917160E+03 -0.12121512027E+03 -0.12260277017E+04  0.12444851374E+04  0.79873611203E+02 0.  0.
         24    2    4    4    0    0  0.48416808915E+03 -0.45311489137E+03 -0.60855822503E+03  0.90347277998E+03  0.78664525560E+02 0.  0.
         13    1    3    3    0    0 -0.17691754850E+03  0.36747995693E+03 -0.60308712762E+03  0.72804905138E+03  0.00000000000E+00 0.  1.
        -13    1    3    3    0    0 -0.15064136905E+03  0.20685005470E+03 -0.28924826641E+03  0.38619208539E+03  0.00000000000E+00 0. -1.
          4    1    6    6  502    0  0.42837813041E+03 -0.40884251083E+03 -0.50776040502E+03  0.78005169712E+03  0.00000000000E+00 0. -1.
          1    1    5    5  503    0 -0.14148101354E+03 -0.79504909826E+02 -0.80998756000E+03  0.82608580379E+03  0.00000000000E+00 0. -1.
         -2    1    5    5    0  503 -0.15128158053E+02 -0.41710210441E+02 -0.41604014171E+03  0.41839933358E+03  0.00000000000E+00 0.  1.
         -3    1    6    6    0  502  0.55789958732E+02 -0.44272380533E+02 -0.10079782001E+03  0.12342108285E+03  0.00000000000E+00 0.  1.
<mgrwt>
<rscale>  0 0.17904867E+04</rscale>
<asrwt>0</asrwt>
<pdfrwt beam="1">  1        1 0.46070155E+00 0.17904867E+04</pdfrwt>
<pdfrwt beam="2">  1       -1 0.41175212E-01 0.17904867E+04</pdfrwt>
<totfact> 0.33005732E+00</totfact>
</mgrwt>
</event>
<event>
12    1  0.1556559E-007  0.1858725E+04  0.7818608E-02  0.8675679E-01
         -3   -1    0    0    0  501 -0.00000000000E+00  0.00000000000E+00  0.11406334542E+04  0.11406334542E+04  0.00000000000E+00 0.  1.
          3   -1    0    0  501    0  0.00000000000E+00 -0.00000000000E+00 -0.75722345902E+03  0.75722345902E+03  0.00000000000E+00 0. -1.
         23    2    1    2    0    0  0.13681364592E+03 -0.39525798051E+03  0.72863892618E+03  0.84511732619E+03  0.91442689203E+02 0.  0.
        254    2    1    2    0    0 -0.13681364592E+03  0.39525798051E+03 -0.34522893098E+03  0.10527395870E+04  0.90229195856E+03 0.  0.
        -24    2    4    4    0    0 -0.83370271968E+02  0.42724691216E+03 -0.61947204387E+03  0.76122011933E+03  0.78866537532E+02 0.  0.
         24    2    4    4    0    0 -0.53443373949E+02 -0.31988931641E+02  0.27424311289E+03  0.29151946772E+03  0.76777790571E+02 0.  0.
         13    1    3    3    0    0  0.12614266272E+03 -0.28022068831E+03  0.46615912974E+03  0.55833676196E+03  0.00000000000E+00 0.  1.
        -13    1    3    3    0    0  0.10670983198E+02 -0.11503729220E+03  0.26247979644E+03  0.28678056423E+03  0.00000000000E+00 0. -1.
          4    1    6    6  502    0  0.17589187610E+02  0.55658287019E+01  0.47137131018E+02  0.50618841260E+02  0.00000000000E+00 0. -1.
          1    1    5    5  503    0 -0.32006908041E+02  0.11004988382E+03 -0.22438098859E+03  0.25195683586E+03  0.00000000000E+00 0. -1.
         -2    1    5    5    0  503 -0.51363363927E+02  0.31719702833E+03 -0.39509105528E+03  0.50926328347E+03  0.00000000000E+00 0.  1.
         -3    1    6    6    0  502 -0.71032561559E+02 -0.37554760343E+02  0.22710598187E+03  0.24090062646E+03  0.00000000000E+00 0.  1.
<mgrwt>
<rscale>  0 0.18587247E+04</rscale>
<asrwt>0</asrwt>
<pdfrwt beam="1">  1        3 0.11649592E+00 0.18587247E+04</pdfrwt>
<pdfrwt beam="2">  1       -3 0.17548207E+00 0.18587247E+04</pdfrwt>
<totfact> 0.31718491E-01</totfact>
</mgrwt>
</event>
<event>
12    1  0.1556559E-007  0.2509990E+04  0.7818608E-02  0.8399435E-01
          2   -1    0    0  501    0  0.00000000000E+00  0.00000000000E+00  0.68415519072E+03  0.68415519072E+03  0.00000000000E+00 0. -1.
         -2   -1    0    0    0  501 -0.00000000000E+00 -0.00000000000E+00 -0.23021271115E+04  0.23021271115E+04  0.00000000000E+00 0.  1.
         23    2    1    2    0    0  0.94995235919E+02 -0.79739622224E+03 -0.15922860833E+04  0.17858395614E+04  0.94779416321E+02 0.  0.
        254    2    1    2    0    0 -0.94995235919E+02  0.79739622224E+03 -0.25685837432E+02  0.12004427408E+04  0.89192947124E+03 0.  0.
        -24    2    4    4    0    0 -0.31142880364E+02  0.82244560549E+03  0.28321132461E+03  0.87486011051E+03  0.88232111936E+02 0.  0.
         24    2    4    4    0    0 -0.63852355555E+02 -0.25049383257E+02 -0.30889716204E+03  0.32558263031E+03  0.76694181860E+02 0.  0.
         11    1    3    3    0    0  0.93047741140E+01 -0.47163033988E+03 -0.93757925091E+03  0.10495601974E+04  0.00000000000E+00 0. -1.
        -11    1    3    3    0    0  0.85690461805E+02 -0.32576588236E+03 -0.65470683239E+03  0.73627936392E+03  0.00000000000E+00 0.  1.
          4    1    6    6  502    0  0.37958498321E+01 -0.32565275890E+02 -0.72234944896E+02  0.79327126091E+02  0.00000000000E+00 0. -1.
          1    1    5    5  503    0  0.54384462893E+01  0.10074305410E+03  0.64950955333E+02  0.11998902552E+03  0.00000000000E+00 0. -1.
         -2    1    5    5    0  503 -0.36581326653E+02  0.72170255139E+03  0.21826036928E+03  0.75487108498E+03  0.00000000000E+00 0.  1.
         -3    1    6    6    0  502 -0.67648205387E+02  0.75158926329E+01 -0.23666221715E+03  0.24625550422E+03  0.00000000000E+00 0.  1.
<mgrwt>
<rscale>  0 0.25099898E+04</rscale>
<asrwt>0</asrwt>
<pdfrwt beam="1">  1        2 0.10525465E+00 0.25099898E+04</pdfrwt>
<pdfrwt beam="2">  1       -2 0.35417340E+00 0.25099898E+04</pdfrwt>
<totfact> 0.55057999E-01</totfact>
</mgrwt>
</event>
<event>
12    1  0.1556559E-007  0.1456240E+04  0.7818608E-02  0.8914086E-01
         -1   -1    0    0    0  501 -0.00000000000E+00  0.00000000000E+00  0.77098869593E+03  0.77098869593E+03  0.00000000000E+00 0.  1.
          1   -1    0    0  501    0  0.00000000000E+00 -0.00000000000E+00 -0.68763442924E+03  0.68763442924E+03  0.00000000000E+00 0. -1.
         23    2    1    2    0    0 -0.18395847919E+03 -0.28588875335E+03  0.30588667802E+03  0.46629515788E+03  0.91057196972E+02 0.  0.
        254    2    1    2    0    0  0.18395847919E+03  0.28588875335E+03 -0.22253241133E+03  0.99232796729E+03  0.90532923249E+03 0.  0.
        -24    2    4    4    0    0 -0.22197062760E+00  0.34173396146E+03 -0.52083283283E+03  0.62797469222E+03  0.79392850002E+02 0.  0.
         24    2    4    4    0    0  0.18418044982E+03 -0.55845208107E+02  0.29830042150E+03  0.36435327507E+03  0.82030739508E+02 0.  0.
         13    1    3    3    0    0 -0.41366941518E+02 -0.20757343454E+02  0.17712739323E+02  0.49556354710E+02  0.00000000000E+00 0. -1.
        -13    1    3    3    0    0 -0.14259153767E+03 -0.26513140989E+03  0.28817393869E+03  0.41673880317E+03  0.00000000000E+00 0.  1.
          4    1    6    6  502    0  0.16707663820E+03 -0.22144706255E+02  0.21754636478E+03  0.27519340812E+03  0.00000000000E+00 0. -1.
          3    1    5    5  503    0 -0.14405624761E+02  0.28023314870E+02 -0.86093055051E+02  0.91677927164E+02  0.00000000000E+00 0. -1.
         -2    1    5    5    0  503  0.14183654134E+02  0.31371064659E+03 -0.43473977778E+03  0.53629676505E+03  0.00000000000E+00 0.  1.
         -3    1    6    6    0  502  0.17103811621E+02 -0.33700501852E+02  0.80754056722E+02  0.89159866948E+02  0.00000000000E+00 0.  1.
<mgrwt>
<rscale>  0 0.14562395E+04</rscale>
<asrwt>0</asrwt>
<pdfrwt beam="1">  1        1 0.10578991E+00 0.14562395E+04</pdfrwt>
<pdfrwt beam="2">  1       -1 0.11861364E+00 0.14562395E+04</pdfrwt>
<totfact> 0.17313679E+01</totfact>
</mgrwt>
</event>
<event>
12    1  0.1556559E-007  0.1578770E+04  0.7818608E-02  0.8833698E-01
         -1   -1    0    0    0  501 -0.00000000000E+00  0.00000000000E+00  0.93752961430E+03  0.93752961430E+03  0.00000000000E+00 0.  1.
          1   -1    0    0  501    0  0.00000000000E+00 -0.00000000000E+00 -0.66464927377E+03  0.66464927377E+03  0.00000000000E+00 0. -1.
         23    2    1    2    0    0  0.45089429484E+03  0.32415491416E+02 -0.19051797151E+03  0.49860258962E+03  0.89168468082E+02 0.  0.
        254    2    1    2    0    0 -0.45089429484E+03 -0.32415491416E+02  0.46339831204E+03  0.11035762984E+04  0.89374841073E+03 0.  0.
        -24    2    4    4    0    0 -0.29452144342E+02 -0.85770979876E+02 -0.24563352337E+03  0.27317004624E+03  0.77858567698E+02 0.  0.
         24    2    4    4    0    0 -0.42144215050E+03  0.53355488460E+02  0.70903183541E+03  0.83040625221E+03  0.79925626135E+02 0.  0.
         13    1    3    3    0    0  0.39180614398E+03  0.43157005129E+02 -0.19216708620E+03  0.43852339797E+03  0.00000000000E+00 0. -1.
        -13    1    3    3    0    0  0.59088150867E+02 -0.10741513713E+02  0.16491146912E+01  0.60079191648E+02  0.00000000000E+00 0.  1.
          2    1    6    6  502    0 -0.30270473368E+03  0.15048190894E+02  0.44533177150E+03  0.53868078725E+03  0.00000000000E+00 0. -1.
          1    1    5    5  503    0 -0.98327759419E+01 -0.94008881173E+02 -0.16900006772E+03  0.19363722811E+03  0.00000000000E+00 0. -1.
         -2    1    5    5    0  503 -0.19619368400E+02  0.82379012963E+01 -0.76633455653E+02  0.79532818129E+02  0.00000000000E+00 0.  1.
         -1    1    6    6    0  502 -0.11873741682E+03  0.38307297566E+02  0.26370006391E+03  0.29172546496E+03  0.00000000000E+00 0.  1.
<mgrwt>
<rscale>  0 0.15787696E+04</rscale>
<asrwt>0</asrwt>
<pdfrwt beam="1">  1        1 0.10225373E+00 0.15787696E+04</pdfrwt>
<pdfrwt beam="2">  1       -1 0.14423533E+00 0.15787696E+04</pdfrwt>
<totfact> 0.10974164E+01</totfact>
</mgrwt>
</event>
<event>
12    1  0.1974129E-007  0.1490224E+04  0.7818608E-02  0.8890980E-01
         -1   -1    0    0    0  501 -0.00000000000E+00  0.00000000000E+00  0.56135084011E+03  0.56135084011E+03  0.00000000000E+00 0. -1.
          1   -1    0    0  501    0  0.00000000000E+00 -0.00000000000E+00 -0.98902792632E+03  0.98902792632E+03  0.00000000000E+00 0.  1.
         23    2    1    2    0    0 -0.52912550486E+02 -0.42109947393E+03 -0.33088114257E+03  0.54564700059E+03  0.90132201772E+02 0.  0.
        254    2    1    2    0    0  0.52912550486E+02  0.42109947393E+03 -0.96795943640E+02  0.10047317658E+04  0.90553407537E+03 0.  0.
        -24    2    4    4    0    0 -0.39905401796E+03  0.30462647174E+03 -0.14574312938E+03  0.52887954931E+03  0.80194272729E+02 0.  0.
         24    2    4    4    0    0  0.45196656845E+03  0.11647300219E+03  0.48947185737E+02  0.47585221654E+03  0.78738591300E+02 0.  0.
         13    1    3    3    0    0 -0.72677083297E+02 -0.39206739898E+03 -0.30317674508E+03  0.50091410694E+03  0.00000000000E+00 0.  1.
        -13    1    3    3    0    0  0.19764532812E+02 -0.29032074955E+02 -0.27704397491E+02  0.44732893645E+02  0.00000000000E+00 0. -1.
          4    1    6    6  502    0  0.34315834159E+03  0.74070027485E+02  0.67837793857E+02  0.35755556582E+03  0.00000000000E+00 0. -1.
          3    1    5    5  503    0 -0.32571798345E+03  0.27279164901E+03 -0.14501505940E+03  0.44892856443E+03  0.00000000000E+00 0. -1.
         -4    1    5    5    0  503 -0.73336034514E+02  0.31834822731E+02 -0.72806997618E+00  0.79950984875E+02  0.00000000000E+00 0.  1.
         -3    1    6    6    0  502  0.10880822686E+03  0.42402974709E+02 -0.18890608120E+02  0.11829665072E+03  0.00000000000E+00 0.  1.
<mgrwt>
<rscale>  0 0.14902237E+04</rscale>
<asrwt>0</asrwt>
<pdfrwt beam="1">  1        1 0.15215814E+00 0.14902237E+04</pdfrwt>
<pdfrwt beam="2">  1       -1 0.86361669E-01 0.14902237E+04</pdfrwt>
<totfact> 0.19766081E+01</totfact>
</mgrwt>
</event>
<event>
12    1  0.1556559E-007  0.2100980E+04  0.7818608E-02  0.8560812E-01
          2   -1    0    0  501    0  0.00000000000E+00  0.00000000000E+00  0.15187271882E+04  0.15187271882E+04  0.00000000000E+00 0. -1.
         -2   -1    0    0    0  501 -0.00000000000E+00 -0.00000000000E+00 -0.72661464933E+03  0.72661464933E+03  0.00000000000E+00 0.  1.
         23    2    1    2    0    0  0.20174655451E+03  0.53920885477E+03 -0.34624241983E+03  0.67749058788E+03  0.87531834527E+02 0.  0.
        254    2    1    2    0    0 -0.20174655451E+03 -0.53920885477E+03  0.11383549587E+04  0.15678512496E+04  0.91151394268E+03 0.  0.
        -24    2    4    4    0    0  0.31148086702E+02  0.24271275485E+03  0.26827342706E+03  0.37198032822E+03  0.80740623238E+02 0.  0.
         24    2    4    4    0    0 -0.23289464121E+03 -0.78192160963E+03  0.87008153162E+03  0.11958709214E+04  0.86163051888E+02 0.  0.
         11    1    3    3    0    0  0.28585462263E+02  0.34215666738E+02 -0.74415585705E+01  0.45201961208E+02  0.00000000000E+00 0. -1.
        -11    1    3    3    0    0  0.17316109225E+03  0.50499318804E+03 -0.33880086126E+03  0.63228862668E+03  0.00000000000E+00 0.  1.
          4    1    6    6  502    0 -0.62976774222E+02 -0.31808268780E+03  0.30279484612E+03  0.44365232920E+03  0.00000000000E+00 0. -1.
          1    1    5    5  503    0 -0.18618337171E+02  0.29438910296E+02  0.17310738874E+02  0.38896704215E+02  0.00000000000E+00 0. -1.
         -2    1    5    5    0  503  0.49766423873E+02  0.21327384456E+03  0.25096268819E+03  0.33308362400E+03  0.00000000000E+00 0.  1.
         -3    1    6    6    0  502 -0.16991786699E+03 -0.46383892183E+03  0.56728668550E+03  0.75221859221E+03  0.00000000000E+00 0.  1.
<mgrwt>
<rscale>  0 0.21009802E+04</rscale>
<asrwt>0</asrwt>
<pdfrwt beam="1">  1        2 0.23365034E+00 0.21009802E+04</pdfrwt>
<pdfrwt beam="2">  1       -2 0.11178687E+00 0.21009802E+04</pdfrwt>
<totfact> 0.72136313E+00</totfact>
</mgrwt>
</event>
<event>
12    1  0.1556559E-007  0.1354163E+04  0.7818608E-02  0.8987683E-01
          2   -1    0    0  501    0  0.00000000000E+00  0.00000000000E+00  0.16014185300E+04  0.16014185300E+04  0.00000000000E+00 0. -1.
         -2   -1    0    0    0  501 -0.00000000000E+00 -0.00000000000E+00 -0.28627066072E+03  0.28627066072E+03  0.00000000000E+00 0.  1.
         23    2    1    2    0    0  0.31418407992E+03  0.19568218511E+03  0.37347381349E+03  0.53345621516E+03  0.89942706658E+02 0.  0.
        254    2    1    2    0    0 -0.31418407992E+03 -0.19568218511E+03  0.94167405577E+03  0.13542329755E+04  0.90010764416E+03 0.  0.
        -24    2    4    4    0    0 -0.58581645751E+02  0.33875165003E+03  0.50002175818E+03  0.61190070474E+03  0.78843035134E+02 0.  0.
         24    2    4    4    0    0 -0.25560243417E+03 -0.53443383514E+03  0.44165229759E+03  0.74233227079E+03  0.71051529157E+02 0.  0.
         11    1    3    3    0    0  0.21886261882E+03  0.14778165489E+03  0.20615865392E+03  0.33502485583E+03  0.00000000000E+00 0.  1.
        -11    1    3    3    0    0  0.95321461101E+02  0.47900530220E+02  0.16731515957E+03  0.19843135932E+03  0.00000000000E+00 0. -1.
          2    1    6    6  502    0 -0.75786093446E+02 -0.93818130965E+02  0.82494208987E+02  0.14611867839E+03  0.00000000000E+00 0. -1.
          3    1    5    5  503    0 -0.10239730833E+02  0.24099029336E+03  0.37631943903E+03  0.44698712932E+03  0.00000000000E+00 0. -1.
         -4    1    5    5    0  503 -0.48341914918E+02  0.97761356671E+02  0.12370231915E+03  0.16491357542E+03  0.00000000000E+00 0.  1.
         -1    1    6    6    0  502 -0.17981634072E+03 -0.44061570418E+03  0.35915808860E+03  0.59621359240E+03  0.00000000000E+00 0.  1.
<mgrwt>
<rscale>  0 0.13541627E+04</rscale>
<asrwt>0</asrwt>
<pdfrwt beam="1">  1        2 0.24637208E+00 0.13541627E+04</pdfrwt>
<pdfrwt beam="2">  1       -2 0.44041641E-01 0.13541627E+04</pdfrwt>
<totfact> 0.53130422E+01</totfact>
</mgrwt>
</event>
<event>
12    1  0.1556559E-007  0.2133787E+04  0.7818608E-02  0.8546504E-01
          2   -1    0    0  501    0  0.00000000000E+00  0.00000000000E+00  0.92212110609E+03  0.92212110609E+03  0.00000000000E+00 0.  1.
         -2   -1    0    0    0  501 -0.00000000000E+00 -0.00000000000E+00 -0.12343950613E+04  0.12343950613E+04  0.00000000000E+00 0. -1.
         23    2    1    2    0    0 -0.38429368355E+03  0.34462545605E+03 -0.84037209583E+03  0.99048229034E+03  0.91550903112E+02 0.  0.
        254    2    1    2    0    0  0.38429368355E+03 -0.34462545605E+03  0.52809814063E+03  0.11660338770E+04  0.90238518167E+03 0.  0.
        -24    2    4    4    0    0  0.16604484603E+03 -0.32619619598E+02  0.71257590557E+03  0.73593837122E+03  0.72152162611E+02 0.  0.
         24    2    4    4    0    0  0.21824883752E+03 -0.31200583646E+03 -0.18447776494E+03  0.43009550582E+03  0.77265136411E+02 0.  0.
         13    1    3    3    0    0 -0.11817013342E+03  0.15201750291E+03 -0.36452316274E+03  0.41225069776E+03  0.00000000000E+00 0.  1.
        -13    1    3    3    0    0 -0.26612355013E+03  0.19260795314E+03 -0.47584893309E+03  0.57823159259E+03  0.00000000000E+00 0. -1.
          2    1    6    6  502    0  0.15820255324E+03 -0.18412890758E+03 -0.14752761896E+03  0.28407023923E+03  0.00000000000E+00 0. -1.
          1    1    5    5  503    0  0.68623745701E+02 -0.46929189900E+02  0.38548256511E+03  0.39434550250E+03  0.00000000000E+00 0. -1.
         -4    1    5    5    0  503  0.97421100325E+02  0.14309570302E+02  0.32709334046E+03  0.34159286872E+03  0.00000000000E+00 0.  1.
         -1    1    6    6    0  502  0.60046284282E+02 -0.12787692887E+03 -0.36950145977E+02  0.14602526659E+03  0.00000000000E+00 0.  1.
<mgrwt>
<rscale>  0 0.21337870E+04</rscale>
<asrwt>0</asrwt>
<pdfrwt beam="1">  1        2 0.14186479E+00 0.21337870E+04</pdfrwt>
<pdfrwt beam="2">  1       -2 0.18990693E+00 0.21337870E+04</pdfrwt>
<totfact> 0.40404110E+00</totfact>
</mgrwt>
</event>
<event>
12    1  0.1556559E-007  0.2412746E+04  0.7818608E-02  0.8434747E-01
          1   -1    0    0  501    0  0.00000000000E+00  0.00000000000E+00  0.76896559219E+03  0.76896559219E+03  0.00000000000E+00 0. -1.
         -1   -1    0    0    0  501 -0.00000000000E+00 -0.00000000000E+00 -0.18925895259E+04  0.18925895259E+04  0.00000000000E+00 0.  1.
         23    2    1    2    0    0  0.70635446541E+03 -0.11374898178E+03  0.34694870000E+03  0.80011044716E+03  0.89038562227E+02 0.  0.
        254    2    1    2    0    0 -0.70635446541E+03  0.11374898178E+03 -0.14705726337E+04  0.18614446709E+04  0.88911019015E+03 0.  0.
        -24    2    4    4    0    0 -0.34308404062E+03  0.21709347784E+03 -0.14124030456E+04  0.14717696852E+04  0.79921248735E+02 0.  0.
         24    2    4    4    0    0 -0.36327042479E+03 -0.10334449607E+03 -0.58169588123E+02  0.38967498574E+03  0.76271928848E+02 0.  0.
         13    1    3    3    0    0  0.68170842021E+03 -0.12542262737E+03  0.33957455403E+03  0.77186014496E+03  0.00000000000E+00 0. -1.
        -13    1    3    3    0    0  0.24646045206E+02  0.11673645587E+02  0.73741459612E+01  0.28250302197E+02  0.00000000000E+00 0.  1.
          4    1    6    6  502    0 -0.71921497774E+02  0.82544477637E+01 -0.21603129262E+02  0.75548216020E+02  0.00000000000E+00 0. -1.
          1    1    5    5  503    0 -0.21677151402E+02  0.23409647932E+02 -0.20285487467E+03  0.20534851031E+03  0.00000000000E+00 0. -1.
         -2    1    5    5    0  503 -0.32140688922E+03  0.19368382991E+03 -0.12095481709E+04  0.12664211749E+04  0.00000000000E+00 0.  1.
         -3    1    6    6    0  502 -0.29134892702E+03 -0.11159894383E+03 -0.36566458861E+02  0.31412676972E+03  0.00000000000E+00 0.  1.
<mgrwt>
<rscale>  0 0.24127463E+04</rscale>
<asrwt>0</asrwt>
<pdfrwt beam="1">  1        1 0.11830240E+00 0.24127463E+04</pdfrwt>
<pdfrwt beam="2">  1       -1 0.29116762E+00 0.24127463E+04</pdfrwt>
<totfact> 0.79435658E-01</totfact>
</mgrwt>
</event>
<event>
12    1  0.1556559E-007  0.1567010E+04  0.7818608E-02  0.8841076E-01
         -2   -1    0    0    0  501 -0.00000000000E+00  0.00000000000E+00  0.94400697296E+03  0.94400697296E+03  0.00000000000E+00 0.  1.
          2   -1    0    0  501    0  0.00000000000E+00 -0.00000000000E+00 -0.65029162819E+03  0.65029162819E+03  0.00000000000E+00 0. -1.
         23    2    1    2    0    0 -0.62928206490E+02 -0.45091783869E+03  0.35445605118E+03  0.58427893767E+03  0.91956121940E+02 0.  0.
        254    2    1    2    0    0  0.62928206490E+02  0.45091783869E+03 -0.60740706412E+02  0.10100196635E+04  0.89953511926E+03 0.  0.
        -24    2    4    4    0    0  0.13171271087E+03  0.68599097416E+03 -0.18179947234E+03  0.72622283977E+03  0.80104369647E+02 0.  0.
         24    2    4    4    0    0 -0.68784504379E+02 -0.23507313547E+03  0.12105876593E+03  0.28379682371E+03  0.76777114304E+02 0.  0.
         11    1    3    3    0    0 -0.38556715927E+02 -0.10282944763E+03  0.47927372855E+02  0.11982298908E+03  0.00000000000E+00 0. -1.
        -11    1    3    3    0    0 -0.24371490564E+02 -0.34808839106E+03  0.30652867833E+03  0.46445594859E+03  0.00000000000E+00 0.  1.
          2    1    6    6  502    0 -0.76989061365E+02 -0.13146045619E+03  0.64160409711E+02  0.16530494634E+03  0.00000000000E+00 0. -1.
          3    1    5    5  503    0  0.12466966696E+03  0.68272565704E+03 -0.18429595583E+03  0.71806813603E+03  0.00000000000E+00 0. -1.
         -4    1    5    5    0  503  0.70430439063E+01  0.32653171162E+01  0.24964834944E+01  0.81547037452E+01  0.00000000000E+00 0.  1.
         -1    1    6    6    0  502  0.82045569855E+01 -0.10361267928E+03  0.56898356217E+02  0.11849187737E+03  0.00000000000E+00 0.  1.
<mgrwt>
<rscale>  0 0.15670097E+04</rscale>
<asrwt>0</asrwt>
<pdfrwt beam="1">  1        2 0.10004487E+00 0.15670097E+04</pdfrwt>
<pdfrwt beam="2">  1       -2 0.14523184E+00 0.15670097E+04</pdfrwt>
<totfact> 0.14088177E+01</totfact>
</mgrwt>
</event>
<event>
12    1  0.1556559E-007  0.1947436E+04  0.7818608E-02  0.8631598E-01
         -1   -1    0    0    0  501 -0.00000000000E+00  0.00000000000E+00  0.11452898962E+04  0.11452898962E+04  0.00000000000E+00 0.  1.
          1   -1    0    0  501    0  0.00000000000E+00 -0.00000000000E+00 -0.82784889835E+03  0.82784889835E+03  0.00000000000E+00 0. -1.
         23    2    1    2    0    0  0.18021830521E+03 -0.18099727598E+03  0.85622878967E+03  0.89807940808E+03  0.90444632287E+02 0.  0.
        254    2    1    2    0    0 -0.18021830521E+03  0.18099727598E+03 -0.53878779178E+03  0.10750593865E+04  0.89455114360E+03 0.  0.
        -24    2    4    4    0    0 -0.18636727362E+03  0.22102025605E+03  0.18033214264E+03  0.34969425707E+03  0.78636362424E+02 0.  0.
         24    2    4    4    0    0  0.61489684099E+01 -0.40022980079E+02 -0.71911993442E+03  0.72536512945E+03  0.85915319925E+02 0.  0.
         13    1    3    3    0    0  0.11185973163E+03 -0.54646842279E+02  0.46246593600E+03  0.47892965965E+03  0.00000000000E+00 0. -1.
        -13    1    3    3    0    0  0.68358573584E+02 -0.12635043370E+03  0.39376285367E+03  0.41914974843E+03  0.00000000000E+00 0.  1.
          2    1    6    6  502    0  0.16352006308E+01 -0.13909129230E+02 -0.66458036430E+03  0.66472791303E+03  0.00000000000E+00 0. -1.
          1    1    5    5  503    0 -0.12755143246E+03  0.96967279841E+02  0.11760445366E+03  0.19875318564E+03  0.00000000000E+00 0. -1.
         -2    1    5    5    0  503 -0.58815841165E+02  0.12405297621E+03  0.62727688972E+02  0.15094107143E+03  0.00000000000E+00 0.  1.
         -1    1    6    6    0  502  0.45137677791E+01 -0.26113850849E+02 -0.54539570121E+02  0.60637216416E+02  0.00000000000E+00 0.  1.
<mgrwt>
<rscale>  0 0.19474362E+04</rscale>
<asrwt>0</asrwt>
<pdfrwt beam="1">  1        1 0.12736137E+00 0.19474362E+04</pdfrwt>
<pdfrwt beam="2">  1       -1 0.17619845E+00 0.19474362E+04</pdfrwt>
<totfact> 0.43208264E+00</totfact>
</mgrwt>
</event>
<event>
12    1  0.1556559E-007  0.2151419E+04  0.7818608E-02  0.8538925E-01
          1   -1    0    0  501    0  0.00000000000E+00  0.00000000000E+00  0.24861696246E+04  0.24861696246E+04  0.00000000000E+00 0. -1.
         -1   -1    0    0    0  501 -0.00000000000E+00 -0.00000000000E+00 -0.46543515838E+03  0.46543515838E+03  0.00000000000E+00 0.  1.
         23    2    1    2    0    0 -0.20256872253E+03  0.24659669417E+03 -0.30092259633E+03  0.44777674587E+03  0.90031040412E+02 0.  0.
        254    2    1    2    0    0  0.20256872253E+03 -0.24659669417E+03  0.23216570626E+04  0.25038280372E+04  0.88160042334E+03 0.  0.
        -24    2    4    4    0    0  0.95262423661E+02  0.23609915959E+03  0.22421408506E+03  0.34739659720E+03  0.74797709116E+02 0.  0.
         24    2    4    4    0    0  0.10730629887E+03 -0.48269585376E+03  0.20974429775E+04  0.21564314400E+04  0.80122295215E+02 0.  0.
         13    1    3    3    0    0 -0.11769812755E+02  0.68388228702E+02 -0.48815256912E+02  0.84843430062E+02  0.00000000000E+00 0. -1.
        -13    1    3    3    0    0 -0.19079890978E+03  0.17820846547E+03 -0.25210733941E+03  0.36293331581E+03  0.00000000000E+00 0.  1.
          4    1    6    6  502    0  0.49195560587E+02 -0.21753356081E+03  0.11202534136E+04  0.11422384882E+04  0.00000000000E+00 0. -1.
          1    1    5    5  503    0  0.81382370582E+01  0.51759922878E+01 -0.47361775272E+01  0.10744913967E+02  0.00000000000E+00 0. -1.
         -2    1    5    5    0  503  0.87124186603E+02  0.23092316730E+03  0.22895026259E+03  0.33665168324E+03  0.00000000000E+00 0.  1.
         -3    1    6    6    0  502  0.58110738282E+02 -0.26516229295E+03  0.97718956396E+03  0.10141929518E+04  0.00000000000E+00 0.  1.
<mgrwt>
<rscale>  0 0.21514188E+04</rscale>
<asrwt>0</asrwt>
<pdfrwt beam="1">  1        1 0.38248763E+00 0.21514188E+04</pdfrwt>
<pdfrwt beam="2">  1       -1 0.71605410E-01 0.21514188E+04</pdfrwt>
<totfact> 0.24970651E+00</totfact>
</mgrwt>
</event>
<event>
12    1  0.1556559E-007  0.1760022E+04  0.7818608E-02  0.8727853E-01
          2   -1    0    0  501    0  0.00000000000E+00  0.00000000000E+00  0.13682336597E+04  0.13682336597E+04  0.00000000000E+00 0.  1.
         -2   -1    0    0    0  501 -0.00000000000E+00 -0.00000000000E+00 -0.56599903640E+03  0.56599903640E+03  0.00000000000E+00 0. -1.
         23    2    1    2    0    0  0.26878113707E+03  0.58350160287E+03  0.38813888728E+03  0.75618570814E+03  0.91910876281E+02 0.  0.
        254    2    1    2    0    0 -0.26878113707E+03 -0.58350160287E+03  0.41409573603E+03  0.11780469880E+04  0.89643851270E+03 0.  0.
        -24    2    4    4    0    0  0.44363027570E+02 -0.72576199980E+03  0.18111512624E+03  0.75356304156E+03  0.79724588998E+02 0.  0.
         24    2    4    4    0    0 -0.31314416464E+03  0.14226039693E+03  0.23298060979E+03  0.42448394640E+03  0.87231690519E+02 0.  0.
         13    1    3    3    0    0  0.25389074174E+03  0.51036593704E+03  0.31313898688E+03  0.65037675507E+03  0.00000000000E+00 0. -1.
        -13    1    3    3    0    0  0.14890395324E+02  0.73135665829E+02  0.74999900393E+02  0.10580895306E+03  0.00000000000E+00 0.  1.
          4    1    6    6  502    0 -0.36433882590E+02 -0.95273921523E+01  0.38028366864E+02  0.53519675710E+02  0.00000000000E+00 0. -1.
          1    1    5    5  503    0  0.67650694723E+02 -0.52778158350E+03  0.12874902810E+03  0.54745440780E+03  0.00000000000E+00 0. -1.
         -2    1    5    5    0  503 -0.23287667154E+02 -0.19798041630E+03  0.52366098137E+02  0.20610863377E+03  0.00000000000E+00 0.  1.
         -3    1    6    6    0  502 -0.27671028205E+03  0.15178778908E+03  0.19495224292E+03  0.37096427069E+03  0.00000000000E+00 0.  1.
<mgrwt>
<rscale>  0 0.17600215E+04</rscale>
<asrwt>0</asrwt>
<pdfrwt beam="1">  1        2 0.21049748E+00 0.17600215E+04</pdfrwt>
<pdfrwt beam="2">  1       -2 0.87076775E-01 0.17600215E+04</pdfrwt>
<totfact> 0.16298541E+01</totfact>
</mgrwt>
</event>
<event>
12    1  0.1556559E-007  0.1568223E+04  0.7818608E-02  0.8840311E-01
          2   -1    0    0  501    0  0.00000000000E+00  0.00000000000E+00  0.13568018953E+04  0.13568018953E+04  0.00000000000E+00 0. -1.
         -2   -1    0    0    0  501 -0.00000000000E+00 -0.00000000000E+00 -0.45314722401E+03  0.45314722401E+03  0.00000000000E+00 0.  1.
         23    2    1    2    0    0 -0.30989970998E+03 -0.13504487257E+03 -0.15722042736E+03  0.38358240344E+03  0.90234414692E+02 0.  0.
        254    2    1    2    0    0  0.30989970998E+03  0.13504487257E+03  0.10608750987E+04  0.14263667159E+04  0.89151056381E+03 0.  0.
        -24    2    4    4    0    0  0.58183640214E+03  0.10184873771E+03  0.43748241288E+03  0.73950959149E+03  0.81097534519E+02 0.  0.
         24    2    4    4    0    0 -0.27193669216E+03  0.33196134861E+02  0.62339268581E+03  0.68685712442E+03  0.90015113912E+02 0.  0.
         11    1    3    3    0    0 -0.28650636284E+03 -0.92210799600E+02 -0.13213350274E+03  0.32870654094E+03  0.00000000000E+00 0.  1.
        -11    1    3    3    0    0 -0.23393347135E+02 -0.42834072972E+02 -0.25086924622E+02  0.54875862495E+02  0.00000000000E+00 0. -1.
          4    1    6    6  502    0 -0.21341381615E+03  0.50427653218E+02  0.54542668398E+03  0.58785939878E+03  0.00000000000E+00 0. -1.
          3    1    5    5  503    0  0.41277896916E+03  0.10918330388E+03  0.30978419488E+03  0.52751655768E+03  0.00000000000E+00 0. -1.
         -4    1    5    5    0  503  0.16905743298E+03 -0.73345661680E+01  0.12769821800E+03  0.21199303381E+03  0.00000000000E+00 0.  1.
         -3    1    6    6    0  502 -0.58522876007E+02 -0.17231518356E+02  0.77966001831E+02  0.98997725643E+02  0.00000000000E+00 0.  1.
<mgrwt>
<rscale>  0 0.15682232E+04</rscale>
<asrwt>0</asrwt>
<pdfrwt beam="1">  1        2 0.20873875E+00 0.15682232E+04</pdfrwt>
<pdfrwt beam="2">  1       -2 0.69714958E-01 0.15682232E+04</pdfrwt>
<totfact> 0.27624836E+01</totfact>
</mgrwt>
</event>
<event>
12    1  0.1556559E-007  0.2058380E+04  0.7818608E-02  0.8579802E-01
          3   -1    0    0  501    0  0.00000000000E+00  0.00000000000E+00  0.10186687093E+04  0.10186687093E+04  0.00000000000E+00 0. -1.
         -3   -1    0    0    0  501 -0.00000000000E+00 -0.00000000000E+00 -0.10398197547E+04  0.10398197547E+04  0.00000000000E+00 0.  1.
         23    2    1    2    0    0 -0.55167468173E+02 -0.43119887026E+03  0.69565617658E+03  0.82500959966E+03  0.87905678193E+02 0.  0.
        254    2    1    2    0    0  0.55167468173E+02  0.43119887026E+03 -0.71680722195E+03  0.12334788644E+04  0.90481025647E+03 0.  0.
        -24    2    4    4    0    0 -0.76041362026E+02 -0.67665866061E+02  0.16426905112E+03  0.20935577868E+03  0.80526782758E+02 0.  0.
         24    2    4    4    0    0  0.13120883020E+03  0.49886473632E+03 -0.88107627307E+03  0.10241230857E+04  0.80317578787E+02 0.  0.
         13    1    3    3    0    0 -0.44015189678E+02 -0.30737888365E+03  0.41729917600E+03  0.52015162917E+03  0.00000000000E+00 0. -1.
        -13    1    3    3    0    0 -0.11152278495E+02 -0.12381998661E+03  0.27835700058E+03  0.30485797049E+03  0.00000000000E+00 0.  1.
          4    1    6    6  502    0  0.90267855807E+02  0.22917025173E+03 -0.36398544015E+03  0.43949140004E+03  0.00000000000E+00 0. -1.
          3    1    5    5  503    0 -0.39202496321E+01 -0.58530037135E+00 -0.91199904702E+01  0.99441017634E+01  0.00000000000E+00 0. -1.
         -4    1    5    5    0  503 -0.72121112394E+02 -0.67080565689E+02  0.17338904159E+03  0.19941167692E+03  0.00000000000E+00 0.  1.
         -3    1    6    6    0  502  0.40940974391E+02  0.26969448459E+03 -0.51709083293E+03  0.58463168568E+03  0.00000000000E+00 0.  1.
<mgrwt>
<rscale>  0 0.20583798E+04</rscale>
<asrwt>0</asrwt>
<pdfrwt beam="1">  1        3 0.15671826E+00 0.20583798E+04</pdfrwt>
<pdfrwt beam="2">  1       -3 0.15997227E+00 0.20583798E+04</pdfrwt>
<totfact> 0.18983382E-01</totfact>
</mgrwt>
</event>
<event>
12    1  0.1556559E-007  0.2287384E+04  0.7818608E-02  0.8482912E-01
          1   -1    0    0  501    0  0.00000000000E+00  0.00000000000E+00  0.22740006975E+04  0.22740006975E+04  0.00000000000E+00 0. -1.
         -1   -1    0    0    0  501 -0.00000000000E+00 -0.00000000000E+00 -0.57521127401E+03  0.57521127401E+03  0.00000000000E+00 0.  1.
         23    2    1    2    0    0 -0.55936446800E+02 -0.94493985793E+03  0.50025989266E+03  0.10745377009E+04  0.91274800898E+02 0.  0.
        254    2    1    2    0    0  0.55936446800E+02  0.94493985793E+03  0.11985295309E+04  0.17746742706E+04  0.90385591182E+03 0.  0.
        -24    2    4    4    0    0 -0.25407997540E+03  0.36891620500E+02  0.55500330616E+03  0.61660677003E+03  0.79105078418E+02 0.  0.
         24    2    4    4    0    0  0.31001642221E+03  0.90804823743E+03  0.64352622470E+03  0.11580675006E+04  0.79577324378E+02 0.  0.
         11    1    3    3    0    0 -0.80662770279E+01 -0.55664842585E+03  0.25119979437E+03  0.61075680228E+03  0.00000000000E+00 0.  1.
        -11    1    3    3    0    0 -0.47870169772E+02 -0.38829143208E+03  0.24906009828E+03  0.46378089863E+03  0.00000000000E+00 0. -1.
          2    1    6    6  502    0  0.21783325314E+03  0.59673105964E+03  0.38288544456E+03  0.74171459967E+03  0.00000000000E+00 0. -1.
          3    1    5    5  503    0 -0.23952922580E+03  0.27096107639E+02  0.45337407610E+03  0.51347492825E+03  0.00000000000E+00 0. -1.
         -4    1    5    5    0  503 -0.14550749608E+02  0.97955128620E+01  0.10162923006E+03  0.10313184178E+03  0.00000000000E+00 0.  1.
         -1    1    6    6    0  502  0.92183169063E+02  0.31131717779E+03  0.26064078014E+03  0.41635290094E+03  0.00000000000E+00 0.  1.
<mgrwt>
<rscale>  0 0.22873835E+04</rscale>
<asrwt>0</asrwt>
<pdfrwt beam="1">  1        1 0.34984625E+00 0.22873835E+04</pdfrwt>
<pdfrwt beam="2">  1       -1 0.88494044E-01 0.22873835E+04</pdfrwt>
<totfact> 0.21993603E+00</totfact>
</mgrwt>
</event>
<event>
12    1  0.1556559E-007  0.1808107E+04  0.7818608E-02  0.8702000E-01
         -2   -1    0    0    0  501 -0.00000000000E+00  0.00000000000E+00  0.36861582668E+03  0.36861582668E+03  0.00000000000E+00 0.  1.
          2   -1    0    0  501    0  0.00000000000E+00 -0.00000000000E+00 -0.22172471897E+04  0.22172471897E+04  0.00000000000E+00 0. -1.
         23    2    1    2    0    0  0.29843281670E+03 -0.26719641390E+03  0.81151785059E+02  0.41889606889E+03  0.91827199854E+02 0.  0.
        254    2    1    2    0    0 -0.29843281670E+03  0.26719641390E+03 -0.19297831480E+04  0.21669669474E+04  0.90068123284E+03 0.  0.
        -24    2    4    4    0    0 -0.28587492670E+03  0.53202682610E+03 -0.81077260366E+03  0.10140432494E+04  0.78450490501E+02 0.  0.
         24    2    4    4    0    0 -0.12557889995E+02 -0.26483041220E+03 -0.11190105444E+04  0.11529236980E+04  0.82192500825E+02 0.  0.
         13    1    3    3    0    0  0.16835594144E+03 -0.10574920891E+03  0.71717479726E+02  0.21135282137E+03  0.00000000000E+00 0.  1.
        -13    1    3    3    0    0  0.13007687526E+03 -0.16144720498E+03  0.94343053332E+01  0.20754324752E+03  0.00000000000E+00 0. -1.
          4    1    6    6  502    0 -0.43581686453E+02 -0.11008483066E+03 -0.42413968076E+03  0.44035497287E+03  0.00000000000E+00 0. -1.
          3    1    5    5  503    0 -0.20723005666E+03  0.43025941837E+03 -0.67680638530E+03  0.82833226827E+03  0.00000000000E+00 0. -1.
         -4    1    5    5    0  503 -0.78644870044E+02  0.10176740773E+03 -0.13396621836E+03  0.18571098115E+03  0.00000000000E+00 0.  1.
         -3    1    6    6    0  502  0.31023796458E+02 -0.15474558154E+03 -0.69487086362E+03  0.71256872515E+03  0.00000000000E+00 0.  1.
<mgrwt>
<rscale>  0 0.18081066E+04</rscale>
<asrwt>0</asrwt>
<pdfrwt beam="1">  1        2 0.34111495E+00 0.18081066E+04</pdfrwt>
<pdfrwt beam="2">  1       -2 0.56710127E-01 0.18081066E+04</pdfrwt>
<totfact> 0.13898390E+01</totfact>
</mgrwt>
</event>
<event>
12    1  0.1556559E-007  0.1262414E+04  0.7818608E-02  0.9059914E-01
         -1   -1    0    0    0  501 -0.00000000000E+00  0.00000000000E+00  0.74101697445E+03  0.74101697445E+03  0.00000000000E+00 0.  1.
          1   -1    0    0  501    0  0.00000000000E+00 -0.00000000000E+00 -0.53766959774E+03  0.53766959774E+03  0.00000000000E+00 0. -1.
         23    2    1    2    0    0  0.13400679463E+03 -0.45744469661E+01 -0.21595107518E+03  0.27122264190E+03  0.94594439752E+02 0.  0.
        254    2    1    2    0    0 -0.13400679463E+03  0.45744469661E+01  0.41929845189E+03  0.10074639303E+04  0.90619734745E+03 0.  0.
        -24    2    4    4    0    0  0.65773307015E+02 -0.26262075088E+03 -0.16814640115E+03  0.32718079142E+03  0.74015345337E+02 0.  0.
         24    2    4    4    0    0 -0.19978010164E+03  0.26719519785E+03  0.58744485304E+03  0.68028313888E+03  0.79927034904E+02 0.  0.
         11    1    3    3    0    0  0.77508579128E+02  0.39315237675E+02 -0.15283860894E+03  0.17582067039E+03  0.00000000000E+00 0. -1.
        -11    1    3    3    0    0  0.56498215500E+02 -0.43889684642E+02 -0.63112466243E+02  0.95401971509E+02  0.00000000000E+00 0.  1.
          2    1    6    6  502    0 -0.68522865078E+02  0.78283663244E+02  0.11671070964E+03  0.15634930353E+03  0.00000000000E+00 0. -1.
          3    1    5    5  503    0  0.23357006025E+02 -0.42918431239E+02 -0.63599388845E+02  0.80202392308E+02  0.00000000000E+00 0. -1.
         -4    1    5    5    0  503  0.42416300989E+02 -0.21970231964E+03 -0.10454701230E+03  0.24697839911E+03  0.00000000000E+00 0.  1.
         -1    1    6    6    0  502 -0.13125723657E+03  0.18891153461E+03  0.47073414340E+03  0.52393383535E+03  0.00000000000E+00 0.  1.
<mgrwt>
<rscale>  0 0.12624140E+04</rscale>
<asrwt>0</asrwt>
<pdfrwt beam="1">  1        1 0.82718399E-01 0.12624140E+04</pdfrwt>
<pdfrwt beam="2">  1       -1 0.11400261E+00 0.12624140E+04</pdfrwt>
<totfact> 0.27671216E+01</totfact>
</mgrwt>
</event>
<event>
12    1  0.1556559E-007  0.1274820E+04  0.7818608E-02  0.9049775E-01
          3   -1    0    0  501    0  0.00000000000E+00  0.00000000000E+00  0.15344788017E+04  0.15344788017E+04  0.00000000000E+00 0. -1.
         -3   -1    0    0    0  501 -0.00000000000E+00 -0.00000000000E+00 -0.26477506492E+03  0.26477506492E+03  0.00000000000E+00 0.  1.
         23    2    1    2    0    0 -0.14462833638E+03 -0.19614691041E+03  0.59117612563E+03  0.64594634389E+03  0.91468582163E+02 0.  0.
        254    2    1    2    0    0  0.14462833638E+03  0.19614691041E+03  0.67852761111E+03  0.11533075227E+04  0.90018195755E+03 0.  0.
        -24    2    4    4    0    0  0.48112786762E+03  0.26754740963E+03  0.54120971380E+03  0.77631585318E+03  0.81808973691E+02 0.  0.
         24    2    4    4    0    0 -0.33649953124E+03 -0.71400499221E+02  0.13731789730E+03  0.37699166951E+03  0.70260573173E+02 0.  0.
         11    1    3    3    0    0  0.60437904911E+01 -0.30174280659E+02  0.12418084375E+03  0.12793708052E+03  0.00000000000E+00 0.  1.
        -11    1    3    3    0    0 -0.15067212687E+03 -0.16597262975E+03  0.46699528188E+03  0.51800926337E+03  0.00000000000E+00 0. -1.
          4    1    6    6  502    0 -0.25595778146E+03 -0.84390078857E+02  0.10535263714E+03  0.28937043638E+03  0.00000000000E+00 0. -1.
          3    1    5    5  503    0  0.47342071806E+03  0.24758049817E+03  0.52815280063E+03  0.75124474053E+03  0.00000000000E+00 0. -1.
         -4    1    5    5    0  503  0.77071495611E+01  0.19966911462E+02  0.13056913175E+02  0.25071112647E+02  0.00000000000E+00 0.  1.
         -3    1    6    6    0  502 -0.80541749785E+02  0.12989579635E+02  0.31965260158E+02  0.87621233126E+02  0.00000000000E+00 0.  1.
<mgrwt>
<rscale>  0 0.12748203E+04</rscale>
<asrwt>0</asrwt>
<pdfrwt beam="1">  1        3 0.23607366E+00 0.12748203E+04</pdfrwt>
<pdfrwt beam="2">  1       -3 0.40734626E-01 0.12748203E+04</pdfrwt>
<totfact> 0.13776105E+00</totfact>
</mgrwt>
</event>
<event>
12    1  0.1556559E-007  0.1886404E+04  0.7818608E-02  0.8661654E-01
         -1   -1    0    0    0  501 -0.00000000000E+00  0.00000000000E+00  0.86008983788E+03  0.86008983788E+03  0.00000000000E+00 0.  1.
          1   -1    0    0  501    0  0.00000000000E+00 -0.00000000000E+00 -0.10343454668E+04  0.10343454668E+04  0.00000000000E+00 0. -1.
         23    2    1    2    0    0 -0.58877836493E+03  0.32150035696E+03 -0.34510014941E+03  0.75999243066E+03  0.92043136611E+02 0.  0.
        254    2    1    2    0    0  0.58877836493E+03 -0.32150035696E+03  0.17084452051E+03  0.11344428740E+04  0.89874932081E+03 0.  0.
        -24    2    4    4    0    0  0.62434098694E+03 -0.46382619118E+03 -0.12762682583E+03  0.79235861047E+03  0.81284422319E+02 0.  0.
         24    2    4    4    0    0 -0.35562622010E+02  0.14232583422E+03  0.29847134634E+03  0.34208426353E+03  0.80094666495E+02 0.  0.
         11    1    3    3    0    0 -0.53394461344E+03  0.28438750260E+03 -0.27817553540E+03  0.66584887952E+03  0.00000000000E+00 0. -1.
        -11    1    3    3    0    0 -0.54833751493E+02  0.37112854357E+02 -0.66924614009E+02  0.94143551142E+02  0.00000000000E+00 0.  1.
          2    1    6    6  502    0 -0.55609436910E+02  0.12912379649E+03  0.23041926532E+03  0.26992295590E+03  0.00000000000E+00 0. -1.
          1    1    5    5  503    0  0.57336225716E+03 -0.44911987251E+03 -0.12690901477E+03  0.73929617600E+03  0.00000000000E+00 0. -1.
         -4    1    5    5    0  503  0.50978729783E+02 -0.14706318676E+02 -0.71781105381E+00  0.53062434471E+02  0.00000000000E+00 0.  1.
         -1    1    6    6    0  502  0.20046814900E+02  0.13202037735E+02  0.68052081023E+02  0.72161307634E+02  0.00000000000E+00 0.  1.
<mgrwt>
<rscale>  0 0.18864040E+04</rscale>
<asrwt>0</asrwt>
<pdfrwt beam="1">  1        1 0.15913007E+00 0.18864040E+04</pdfrwt>
<pdfrwt beam="2">  1       -1 0.13232151E+00 0.18864040E+04</pdfrwt>
<totfact> 0.64630828E+00</totfact>
</mgrwt>
</event>
<event>
12    1  0.1556559E-007  0.1305756E+04  0.7818608E-02  0.9025013E-01
          1   -1    0    0  501    0  0.00000000000E+00  0.00000000000E+00  0.19271711517E+04  0.19271711517E+04  0.00000000000E+00 0. -1.
         -1   -1    0    0    0  501 -0.00000000000E+00 -0.00000000000E+00 -0.22117890522E+03  0.22117890522E+03  0.00000000000E+00 0.  1.
         23    2    1    2    0    0  0.18355686939E+03  0.33027879698E+03  0.60344941876E+03  0.72222650127E+03  0.12117223324E+03 0.  0.
        254    2    1    2    0    0 -0.18355686939E+03 -0.33027879698E+03  0.11025428278E+04  0.14261235557E+04  0.82185795671E+03 0.  0.
        -24    2    4    4    0    0 -0.74655790245E+02 -0.27378863617E+03 -0.18944172858E+02  0.29519432536E+03  0.79038621769E+02 0.  0.
         24    2    4    4    0    0 -0.10890107914E+03 -0.56490160815E+02  0.11214870006E+04  0.11309292303E+04  0.78849528500E+02 0.  0.
         13    1    3    3    0    0  0.14185576303E+03  0.13397819535E+03  0.27179568059E+03  0.33458348184E+03  0.00000000000E+00 0.  1.
        -13    1    3    3    0    0  0.41701106352E+02  0.19630060163E+03  0.33165373817E+03  0.38764301943E+03  0.00000000000E+00 0. -1.
          2    1    6    6  502    0 -0.70771942387E+02 -0.68064473394E+02  0.60590052213E+03  0.61380524850E+03  0.00000000000E+00 0. -1.
          3    1    5    5  503    0 -0.82549270925E+02 -0.25691372031E+03 -0.32995232696E+02  0.27185975648E+03  0.00000000000E+00 0. -1.
         -4    1    5    5    0  503  0.78934806793E+01 -0.16874915857E+02  0.14051059837E+02  0.23334568883E+02  0.00000000000E+00 0.  1.
         -1    1    6    6    0  502 -0.38129136752E+02  0.11574312579E+02  0.51558647849E+03  0.51712398183E+03  0.00000000000E+00 0.  1.
<mgrwt>
<rscale>  0 0.13057559E+04</rscale>
<asrwt>0</asrwt>
<pdfrwt beam="1">  1        1 0.29648786E+00 0.13057559E+04</pdfrwt>
<pdfrwt beam="2">  1       -1 0.34027525E-01 0.13057559E+04</pdfrwt>
<totfact> 0.26791189E+01</totfact>
</mgrwt>
</event>
<event>
12    1  0.1556559E-007  0.1696262E+04  0.7818608E-02  0.8763499E-01
          1   -1    0    0  501    0  0.00000000000E+00  0.00000000000E+00  0.59305440401E+03  0.59305440401E+03  0.00000000000E+00 0. -1.
         -1   -1    0    0    0  501 -0.00000000000E+00 -0.00000000000E+00 -0.12129170372E+04  0.12129170372E+04  0.00000000000E+00 0.  1.
         23    2    1    2    0    0 -0.11754413954E+02 -0.35369507414E+03 -0.76567548712E+03  0.84854026813E+03  0.92321521599E+02 0.  0.
        254    2    1    2    0    0  0.11754413954E+02  0.35369507414E+03  0.14581285390E+03  0.95743117311E+03  0.87759597262E+03 0.  0.
        -24    2    4    4    0    0  0.13311277014E+03 -0.95264024456E+02  0.38658754004E+03  0.42733845611E+03  0.79837247128E+02 0.  0.
         24    2    4    4    0    0 -0.12135835619E+03  0.44895909859E+03 -0.24077468614E+03  0.53009271699E+03  0.82059224339E+02 0.  0.
         11    1    3    3    0    0 -0.27045434524E+01 -0.11647772593E+03 -0.15935645869E+03  0.19740530924E+03  0.00000000000E+00 0. -1.
        -11    1    3    3    0    0 -0.90498705012E+01 -0.23721734821E+03 -0.60631902843E+03  0.65113495889E+03  0.00000000000E+00 0.  1.
          4    1    6    6  502    0 -0.58608884186E+02  0.16103168907E+03 -0.13070075985E+03  0.21552005665E+03  0.00000000000E+00 0. -1.
          1    1    5    5  503    0  0.75529081439E+02 -0.84185765251E+01  0.13308098818E+03  0.15325163617E+03  0.00000000000E+00 0. -1.
         -2    1    5    5    0  503  0.57583688702E+02 -0.86845447931E+02  0.25350655186E+03  0.27408681994E+03  0.00000000000E+00 0.  1.
         -3    1    6    6    0  502 -0.62749472001E+02  0.28792740952E+03 -0.11007392629E+03  0.31457266035E+03  0.00000000000E+00 0.  1.
<mgrwt>
<rscale>  0 0.16962615E+04</rscale>
<asrwt>0</asrwt>
<pdfrwt beam="1">  1        1 0.91239139E-01 0.16962615E+04</pdfrwt>
<pdfrwt beam="2">  1       -1 0.18660262E+00 0.16962615E+04</pdfrwt>
<totfact> 0.61897754E+00</totfact>
</mgrwt>
</event>
<event>
12    1  0.1556559E-007  0.1266300E+04  0.7818608E-02  0.9056725E-01
         -1   -1    0    0    0  501 -0.00000000000E+00  0.00000000000E+00  0.14594510995E+04  0.14594510995E+04  0.00000000000E+00 0.  1.
          1   -1    0    0  501    0  0.00000000000E+00 -0.00000000000E+00 -0.27467773514E+03  0.27467773514E+03  0.00000000000E+00 0. -1.
         23    2    1    2    0    0  0.11512605018E+03  0.18751236295E+03  0.68030731531E+01  0.23721423291E+03  0.88370904710E+02 0.  0.
        254    2    1    2    0    0 -0.11512605018E+03 -0.18751236295E+03  0.11779702912E+04  0.14969146017E+04  0.89706433673E+03 0.  0.
        -24    2    4    4    0    0  0.10643318927E+03  0.85907121487E+02  0.11205173460E+04  0.11316898352E+04  0.80341166573E+02 0.  0.
         24    2    4    4    0    0 -0.22155923945E+03 -0.27341948444E+03  0.57452945195E+02  0.36522476655E+03  0.79003658967E+02 0.  0.
         11    1    3    3    0    0  0.64945676092E+02  0.86213612928E+02  0.46323312878E+02  0.11745883199E+03  0.00000000000E+00 0. -1.
        -11    1    3    3    0    0  0.50180374085E+02  0.10129875003E+03 -0.39520239725E+02  0.11975540091E+03  0.00000000000E+00 0.  1.
          2    1    6    6  502    0 -0.22791486211E+03 -0.26495538326E+03  0.52077548344E+02  0.35335337912E+03  0.00000000000E+00 0. -1.
          3    1    5    5  503    0  0.11438801512E+03  0.93417999457E+02  0.10433997432E+04  0.10538000592E+04  0.00000000000E+00 0. -1.
         -4    1    5    5    0  503 -0.79548258448E+01 -0.75108779702E+01  0.77117602825E+02  0.77889776015E+02  0.00000000000E+00 0.  1.
         -1    1    6    6    0  502  0.63556226636E+01 -0.84641011790E+01  0.53753968513E+01  0.11871387430E+02  0.00000000000E+00 0.  1.
<mgrwt>
<rscale>  0 0.12662997E+04</rscale>
<asrwt>0</asrwt>
<pdfrwt beam="1">  1        1 0.42258114E-01 0.12662997E+04</pdfrwt>
<pdfrwt beam="2">  1       -1 0.22453093E+00 0.12662997E+04</pdfrwt>
<totfact> 0.99517839E+00</totfact>
</mgrwt>
</event>
<event>
12    1  0.1556559E-007  0.2242020E+04  0.7818608E-02  0.8501139E-01
          2   -1    0    0  501    0  0.00000000000E+00  0.00000000000E+00  0.62460195070E+03  0.62460195070E+03  0.00000000000E+00 0. -1.
         -2   -1    0    0    0  501 -0.00000000000E+00 -0.00000000000E+00 -0.20119419591E+04  0.20119419591E+04  0.00000000000E+00 0.  1.
         23    2    1    2    0    0  0.20732359651E+03  0.37068754132E+03 -0.15677034742E+04  0.16267507624E+04  0.90727796900E+02 0.  0.
        254    2    1    2    0    0 -0.20732359651E+03 -0.37068754132E+03  0.18036346578E+03  0.10097931474E+04  0.89819758056E+03 0.  0.
        -24    2    4    4    0    0 -0.20722370909E+03  0.24565508568E+03  0.20254975532E+03  0.38792453228E+03  0.78555411249E+02 0.  0.
         24    2    4    4    0    0 -0.99887424612E-01 -0.61634262700E+03 -0.22186289544E+02  0.62186861508E+03  0.79687509325E+02 0.  0.
         13    1    3    3    0    0  0.42217498739E+02  0.10776774548E+03 -0.57876950863E+03  0.59022906425E+03  0.00000000000E+00 0. -1.
        -13    1    3    3    0    0  0.16510609777E+03  0.26291979584E+03 -0.98893396555E+03  0.10365216982E+04  0.00000000000E+00 0.  1.
          2    1    6    6  502    0  0.25237701374E+02 -0.52467349692E+03 -0.54962342559E+01  0.52530888869E+03  0.00000000000E+00 0. -1.
          1    1    5    5  503    0 -0.93821781511E+02  0.54307098029E+02  0.64780524851E+02  0.12628659463E+03  0.00000000000E+00 0. -1.
         -2    1    5    5    0  503 -0.11340192758E+03  0.19134798765E+03  0.13776923047E+03  0.26163793766E+03  0.00000000000E+00 0.  1.
         -1    1    6    6    0  502 -0.25337588799E+02 -0.91669130079E+02 -0.16690055288E+02  0.96559726393E+02  0.00000000000E+00 0.  1.
<mgrwt>
<rscale>  0 0.22420195E+04</rscale>
<asrwt>0</asrwt>
<pdfrwt beam="1">  1        2 0.96092610E-01 0.22420195E+04</pdfrwt>
<pdfrwt beam="2">  1       -2 0.30952953E+00 0.22420195E+04</pdfrwt>
<totfact> 0.11958020E+00</totfact>
</mgrwt>
</event>
<event>
12    1  0.1556559E-007  0.1540828E+04  0.7818608E-02  0.8857748E-01
          2   -1    0    0  501    0  0.00000000000E+00  0.00000000000E+00  0.93097019106E+03  0.93097019106E+03  0.00000000000E+00 0. -1.
         -2   -1    0    0    0  501 -0.00000000000E+00 -0.00000000000E+00 -0.63754725467E+03  0.63754725467E+03  0.00000000000E+00 0.  1.
         23    2    1    2    0    0  0.45045042534E+03 -0.20302992603E+03  0.18750915228E+03  0.53618422999E+03  0.90593099920E+02 0.  0.
        254    2    1    2    0    0 -0.45045042534E+03  0.20302992603E+03  0.10591378411E+03  0.10323332157E+04  0.90020408913E+03 0.  0.
        -24    2    4    4    0    0  0.20066376588E+03 -0.25766248019E+02 -0.17886294406E+03  0.28138933186E+03  0.79108513156E+02 0.  0.
         24    2    4    4    0    0 -0.65111419122E+03  0.22879617405E+03  0.28477672817E+03  0.75094388388E+03  0.80756130179E+02 0.  0.
         13    1    3    3    0    0  0.42752143554E+03 -0.18291270280E+03  0.15165965589E+03  0.48911377605E+03  0.00000000000E+00 0. -1.
        -13    1    3    3    0    0  0.22928989795E+02 -0.20117223223E+02  0.35849496384E+02  0.47070453941E+02  0.00000000000E+00 0.  1.
          2    1    6    6  502    0 -0.50982924009E+03  0.19605146415E+03  0.25532658115E+03  0.60295413896E+03  0.00000000000E+00 0. -1.
          3    1    5    5  503    0  0.17208547848E+03  0.57878448441E+01 -0.15917280331E+03  0.23448431156E+03  0.00000000000E+00 0. -1.
         -4    1    5    5    0  503  0.28578287397E+02 -0.31554092864E+02 -0.19690140745E+02  0.46905020302E+02  0.00000000000E+00 0.  1.
         -1    1    6    6    0  502 -0.14128495113E+03  0.32744709899E+02  0.29450147021E+02  0.14798974492E+03  0.00000000000E+00 0.  1.
<mgrwt>
<rscale>  0 0.15408277E+04</rscale>
<asrwt>0</asrwt>
<pdfrwt beam="1">  1        2 0.14322618E+00 0.15408277E+04</pdfrwt>
<pdfrwt beam="2">  1       -2 0.98084193E-01 0.15408277E+04</pdfrwt>
<totfact> 0.23283419E+01</totfact>
</mgrwt>
</event>
<event>
12    1  0.1556559E-007  0.1298444E+04  0.7818608E-02  0.9030800E-01
         -1   -1    0    0    0  501 -0.00000000000E+00  0.00000000000E+00  0.64249910503E+03  0.64249910503E+03  0.00000000000E+00 0.  1.
          1   -1    0    0  501    0  0.00000000000E+00 -0.00000000000E+00 -0.65601538293E+03  0.65601538293E+03  0.00000000000E+00 0. -1.
         23    2    1    2    0    0  0.17481678917E+03 -0.44522369333E+02 -0.27449785672E+03  0.34113567701E+03  0.92094112932E+02 0.  0.
        254    2    1    2    0    0 -0.17481678917E+03  0.44522369333E+02  0.26098157882E+03  0.95737881096E+03  0.90328270882E+03 0.  0.
        -24    2    4    4    0    0  0.16346580088E+03 -0.34817873293E+03  0.15493240681E+03  0.42256746623E+03  0.81300152007E+02 0.  0.
         24    2    4    4    0    0 -0.33828259004E+03  0.39270110226E+03  0.10604917200E+03  0.53481134473E+03  0.78278228942E+02 0.  0.
         13    1    3    3    0    0  0.40886400827E+02 -0.14150711151E+02 -0.14880668254E+03  0.15496892968E+03  0.00000000000E+00 0.  1.
        -13    1    3    3    0    0  0.13393038834E+03 -0.30371658182E+02 -0.12569117418E+03  0.18616674732E+03  0.00000000000E+00 0. -1.
          2    1    6    6  502    0 -0.31543986229E+03  0.33336220023E+03  0.78926970431E+02  0.46568458202E+03  0.00000000000E+00 0. -1.
          3    1    5    5  503    0  0.15830541627E+03 -0.29698965147E+03  0.15636796905E+03  0.37109890817E+03  0.00000000000E+00 0. -1.
         -4    1    5    5    0  503  0.51603846088E+01 -0.51189081455E+02 -0.14355622410E+01  0.51468558057E+02  0.00000000000E+00 0.  1.
         -1    1    6    6    0  502 -0.22842727751E+02  0.59338902030E+02  0.27122201573E+02  0.69126762714E+02  0.00000000000E+00 0.  1.
<mgrwt>
<rscale>  0 0.12984441E+04</rscale>
<asrwt>0</asrwt>
<pdfrwt beam="1">  1        1 0.10092544E+00 0.12984441E+04</pdfrwt>
<pdfrwt beam="2">  1       -1 0.98846017E-01 0.12984441E+04</pdfrwt>
<totfact> 0.28907555E+01</totfact>
</mgrwt>
</event>
<event>
12    1  0.1556559E-007  0.3561986E+04  0.7818608E-02  0.8099255E-01
          2   -1    0    0  501    0  0.00000000000E+00  0.00000000000E+00  0.20893970341E+04  0.20893970341E+04  0.00000000000E+00 0. -1.
         -2   -1    0    0    0  501 -0.00000000000E+00 -0.00000000000E+00 -0.15181103127E+04  0.15181103127E+04  0.00000000000E+00 0.  1.
         23    2    1    2    0    0 -0.13923016643E+04 -0.65132623074E+03 -0.38415415390E+03  0.15870233325E+04  0.91317362993E+02 0.  0.
        254    2    1    2    0    0  0.13923016643E+04  0.65132623074E+03  0.95544087526E+03  0.20204840143E+04  0.89819741855E+03 0.  0.
        -24    2    4    4    0    0  0.99777326705E+03  0.20529756777E+03  0.17760152890E+03  0.10371614507E+04  0.80392711125E+02 0.  0.
         24    2    4    4    0    0  0.39452839721E+03  0.44602866297E+03  0.77783934635E+03  0.98332256356E+03  0.85410718771E+02 0.  0.
         13    1    3    3    0    0 -0.28018595276E+02 -0.34162691752E+01 -0.16148360435E+02  0.32518950184E+02  0.00000000000E+00 0. -1.
        -13    1    3    3    0    0 -0.13642830690E+04 -0.64790996157E+03 -0.36800579347E+03  0.15545043823E+04  0.00000000000E+00 0.  1.
          2    1    6    6  502    0  0.13981341671E+03  0.17796984909E+03  0.36128654156E+03  0.42632033002E+03  0.00000000000E+00 0. -1.
          1    1    5    5  503    0  0.85187023673E+03  0.18904783235E+03  0.17694568112E+03  0.89035484904E+03  0.00000000000E+00 0. -1.
         -2    1    5    5    0  503  0.14590303033E+03  0.16249735422E+02  0.65584777935E+00  0.14680660168E+03  0.00000000000E+00 0.  1.
         -1    1    6    6    0  502  0.25471498050E+03  0.26805881388E+03  0.41655280480E+03  0.55700223354E+03  0.00000000000E+00 0.  1.
<mgrwt>
<rscale>  0 0.35619855E+04</rscale>
<asrwt>0</asrwt>
<pdfrwt beam="1">  1        2 0.32144570E+00 0.35619855E+04</pdfrwt>
<pdfrwt beam="2">  1       -2 0.23355543E+00 0.35619855E+04</pdfrwt>
<totfact> 0.39562659E-01</totfact>
</mgrwt>
</event>
<event>
12    1  0.1556559E-007  0.1327971E+04  0.7818608E-02  0.9007673E-01
          2   -1    0    0  501    0  0.00000000000E+00  0.00000000000E+00  0.10827267491E+04  0.10827267491E+04  0.00000000000E+00 0. -1.
         -2   -1    0    0    0  501 -0.00000000000E+00 -0.00000000000E+00 -0.40719127592E+03  0.40719127592E+03  0.00000000000E+00 0.  1.
         23    2    1    2    0    0  0.32218345223E+03  0.46200352317E+02  0.33941198024E+03  0.47871705254E+03  0.89626305349E+02 0.  0.
        254    2    1    2    0    0 -0.32218345223E+03 -0.46200352317E+02  0.33612349291E+03  0.10112009725E+04  0.89644394960E+03 0.  0.
        -24    2    4    4    0    0  0.84029074642E+02 -0.37142544060E+03  0.52342593089E+01  0.38921200307E+03  0.80254859974E+02 0.  0.
         24    2    4    4    0    0 -0.40621252688E+03  0.32522508828E+03  0.33088923360E+03  0.62198896939E+03  0.81256495706E+02 0.  0.
         13    1    3    3    0    0  0.13702698747E+03  0.63893283559E+02  0.16385482614E+03  0.22295100589E+03  0.00000000000E+00 0.  1.
        -13    1    3    3    0    0  0.18515646477E+03 -0.17692931242E+02  0.17555715411E+03  0.25576604665E+03  0.00000000000E+00 0. -1.
          2    1    6    6  502    0 -0.12826391890E+03  0.15004459533E+03  0.10847235230E+03  0.22523601998E+03  0.00000000000E+00 0. -1.
          3    1    5    5  503    0  0.86230333652E+02 -0.36985048765E+03 -0.37919920110E+01  0.37978866868E+03  0.00000000000E+00 0. -1.
         -4    1    5    5    0  503 -0.22012590093E+01 -0.15749529520E+01  0.90262513199E+01  0.94233343842E+01  0.00000000000E+00 0.  1.
         -1    1    6    6    0  502 -0.27794860798E+03  0.17518049295E+03  0.22241688129E+03  0.39675294942E+03  0.00000000000E+00 0.  1.
<mgrwt>
<rscale>  0 0.13279712E+04</rscale>
<asrwt>0</asrwt>
<pdfrwt beam="1">  1        2 0.16657334E+00 0.13279712E+04</pdfrwt>
<pdfrwt beam="2">  1       -2 0.62644812E-01 0.13279712E+04</pdfrwt>
<totfact> 0.51623644E+01</totfact>
</mgrwt>
</event>
<event>
12    1  0.1556559E-007  0.2057829E+04  0.7818608E-02  0.8580051E-01
         -2   -1    0    0    0  501 -0.00000000000E+00  0.00000000000E+00  0.49402412611E+03  0.49402412611E+03  0.00000000000E+00 0. -1.
          2   -1    0    0  501    0  0.00000000000E+00 -0.00000000000E+00 -0.21429417873E+04  0.21429417873E+04  0.00000000000E+00 0.  1.
         23    2    1    2    0    0 -0.81313505846E+03  0.14169712967E+03 -0.63021235594E+03  0.10430728736E+04  0.97809540374E+02 0.  0.
        254    2    1    2    0    0  0.81313505846E+03 -0.14169712967E+03 -0.10187053053E+04  0.15938930398E+04  0.90634862145E+03 0.  0.
        -24    2    4    4    0    0  0.11362075517E+03  0.13733815342E+03 -0.77359943375E+03  0.79783144124E+03  0.79419647006E+02 0.  0.
         24    2    4    4    0    0  0.69951430329E+03 -0.27903528308E+03 -0.24510587150E+03  0.79606159859E+03  0.80350673899E+02 0.  0.
         13    1    3    3    0    0 -0.71566389510E+02 -0.32021576726E+00 -0.26392759809E+02  0.76278623585E+02  0.00000000000E+00 0.  1.
        -13    1    3    3    0    0 -0.74156866895E+03  0.14201734544E+03 -0.60381959613E+03  0.96679425001E+03  0.00000000000E+00 0. -1.
          2    1    6    6  502    0  0.14525154453E+03 -0.24186541949E+02 -0.42773000276E+02  0.15333795862E+03  0.00000000000E+00 0. -1.
          1    1    5    5  503    0  0.56706887009E+02  0.25242252247E+02 -0.36791884789E+03  0.37311810592E+03  0.00000000000E+00 0. -1.
         -2    1    5    5    0  503  0.56913868165E+02  0.11209590117E+03 -0.40568058586E+03  0.42471333532E+03  0.00000000000E+00 0.  1.
         -1    1    6    6    0  502  0.55426275875E+03 -0.25484874114E+03 -0.20233287122E+03  0.64272363997E+03  0.00000000000E+00 0.  1.
<mgrwt>
<rscale>  0 0.20578289E+04</rscale>
<asrwt>0</asrwt>
<pdfrwt beam="1">  1        2 0.32968335E+00 0.20578289E+04</pdfrwt>
<pdfrwt beam="2">  1       -2 0.76003712E-01 0.20578289E+04</pdfrwt>
<totfact> 0.79694828E+00</totfact>
</mgrwt>
</event>
<event>
12    1  0.1556559E-007  0.1336099E+04  0.7818608E-02  0.9001418E-01
          2   -1    0    0  501    0  0.00000000000E+00  0.00000000000E+00  0.19451639577E+04  0.19451639577E+04  0.00000000000E+00 0. -1.
         -2   -1    0    0    0  501 -0.00000000000E+00 -0.00000000000E+00 -0.22943586951E+03  0.22943586951E+03  0.00000000000E+00 0.  1.
         23    2    1    2    0    0 -0.13852812255E+02  0.26329431692E+03  0.89312586765E+03  0.93585370306E+03  0.92911465083E+02 0.  0.
        254    2    1    2    0    0  0.13852812255E+02 -0.26329431692E+03  0.82260222053E+03  0.12387461241E+04  0.88786358699E+03 0.  0.
        -24    2    4    4    0    0  0.12581223966E+03  0.39095406531E+02 -0.14739688949E+03  0.21337627326E+03  0.80289603924E+02 0.  0.
         24    2    4    4    0    0 -0.11195942740E+03 -0.30238972345E+03  0.96999911002E+03  0.10253698509E+04  0.80688285469E+02 0.  0.
         13    1    3    3    0    0 -0.27178066162E+02  0.55889488972E+02  0.11820537112E+03  0.13354696560E+03  0.00000000000E+00 0.  1.
        -13    1    3    3    0    0  0.13325253907E+02  0.20740482794E+03  0.77492049653E+03  0.80230673747E+03  0.00000000000E+00 0. -1.
          4    1    6    6  502    0 -0.10329925994E+03 -0.16767489099E+03  0.54878998736E+03  0.58305750694E+03  0.00000000000E+00 0. -1.
          3    1    5    5  503    0  0.66764091168E+02 -0.77363066357E+01 -0.29388165912E+02  0.73355017589E+02  0.00000000000E+00 0. -1.
         -4    1    5    5    0  503  0.59048148488E+02  0.46831713167E+02 -0.11800872358E+03  0.14002125567E+03  0.00000000000E+00 0.  1.
         -3    1    6    6    0  502 -0.86601674604E+01 -0.13471483246E+03  0.42120912266E+03  0.44231234394E+03  0.00000000000E+00 0.  1.
<mgrwt>
<rscale>  0 0.13360994E+04</rscale>
<asrwt>0</asrwt>
<pdfrwt beam="1">  1        2 0.29925598E+00 0.13360994E+04</pdfrwt>
<pdfrwt beam="2">  1       -2 0.35297827E-01 0.13360994E+04</pdfrwt>
<totfact> 0.52847977E+01</totfact>
</mgrwt>
</event>
<event>
12    1  0.1556559E-007  0.1163612E+04  0.7818608E-02  0.9145317E-01
         -2   -1    0    0    0  501 -0.00000000000E+00  0.00000000000E+00  0.30787811828E+03  0.30787811828E+03  0.00000000000E+00 0. -1.
          2   -1    0    0  501    0  0.00000000000E+00 -0.00000000000E+00 -0.10994548383E+04  0.10994548383E+04  0.00000000000E+00 0.  1.
         23    2    1    2    0    0 -0.27296277614E+02 -0.88390447732E+02 -0.39873281930E+03  0.41929802604E+03  0.90912130308E+02 0.  0.
        254    2    1    2    0    0  0.27296277614E+02  0.88390447732E+02 -0.39284390071E+03  0.98803493053E+03  0.90184740150E+03 0.  0.
        -24    2    4    4    0    0  0.11656437927E+03 -0.26359036389E+03 -0.51424185806E+03  0.59479893313E+03  0.79208255982E+02 0.  0.
         24    2    4    4    0    0 -0.89268101658E+02  0.35198081162E+03  0.12139795735E+03  0.39323599740E+03  0.89653777806E+02 0.  0.
         13    1    3    3    0    0 -0.46894616136E+02 -0.97419886421E+02 -0.33387707306E+03  0.35094677547E+03  0.00000000000E+00 0.  1.
        -13    1    3    3    0    0  0.19598338522E+02  0.90294386887E+01 -0.64855746233E+02  0.68351250576E+02  0.00000000000E+00 0. -1.
          2    1    6    6  502    0 -0.42431461955E+02  0.14607806507E+03  0.51791175701E+01  0.15220398588E+03  0.00000000000E+00 0. -1.
          3    1    5    5  503    0  0.12642539245E+03 -0.21909737331E+03 -0.42463548680E+03  0.49426949683E+03  0.00000000000E+00 0. -1.
         -4    1    5    5    0  503 -0.98610131740E+01 -0.44492990583E+02 -0.89606371263E+02  0.10052943630E+03  0.00000000000E+00 0.  1.
         -1    1    6    6    0  502 -0.46836639704E+02  0.20590274655E+03  0.11621883978E+03  0.24103201152E+03  0.00000000000E+00 0.  1.
<mgrwt>
<rscale>  0 0.11636118E+04</rscale>
<asrwt>0</asrwt>
<pdfrwt beam="1">  1        2 0.16914690E+00 0.11636118E+04</pdfrwt>
<pdfrwt beam="2">  1       -2 0.47365864E-01 0.11636118E+04</pdfrwt>
<totfact> 0.91060253E+01</totfact>
</mgrwt>
</event>
<event>
12    1  0.1556559E-007  0.1639464E+04  0.7818608E-02  0.8796664E-01
         -2   -1    0    0    0  501 -0.00000000000E+00  0.00000000000E+00  0.61455723524E+03  0.61455723524E+03  0.00000000000E+00 0.  1.
          2   -1    0    0  501    0  0.00000000000E+00 -0.00000000000E+00 -0.10934057562E+04  0.10934057562E+04  0.00000000000E+00 0. -1.
         23    2    1    2    0    0 -0.48786782779E+03  0.25983630032E+03 -0.31851871136E+02  0.56135834944E+03  0.92621457722E+02 0.  0.
        254    2    1    2    0    0  0.48786782779E+03 -0.25983630032E+03 -0.44699664984E+03  0.11466046420E+04  0.89964786433E+03 0.  0.
        -24    2    4    4    0    0  0.17760563886E+03 -0.16062590229E+03 -0.68822820418E+03  0.73296065708E+03  0.78922876013E+02 0.  0.
         24    2    4    4    0    0  0.31026218893E+03 -0.99210398032E+02  0.24123155433E+03  0.41364398495E+03  0.82482449792E+02 0.  0.
         13    1    3    3    0    0 -0.47117946823E+03  0.25458328223E+03 -0.47796747724E+02  0.53768696094E+03  0.00000000000E+00 0.  1.
        -13    1    3    3    0    0 -0.16688359555E+02  0.52530180911E+01  0.15944876589E+02  0.23671388492E+02  0.00000000000E+00 0. -1.
          4    1    6    6  502    0  0.44057567062E+02  0.13661771373E+02  0.43091771275E+02  0.63123798714E+02  0.00000000000E+00 0. -1.
          1    1    5    5  503    0  0.24928619705E+02 -0.87940285656E+01 -0.27994412365E+02  0.38502703054E+02  0.00000000000E+00 0. -1.
         -2    1    5    5    0  503  0.15267701916E+03 -0.15183187372E+03 -0.66023379181E+03  0.69445795402E+03  0.00000000000E+00 0.  1.
         -3    1    6    6    0  502  0.26620462186E+03 -0.11287216941E+03  0.19813978306E+03  0.35052018623E+03  0.00000000000E+00 0.  1.
<mgrwt>
<rscale>  0 0.16394638E+04</rscale>
<asrwt>0</asrwt>
<pdfrwt beam="1">  1        2 0.16821627E+00 0.16394638E+04</pdfrwt>
<pdfrwt beam="2">  1       -2 0.94547267E-01 0.16394638E+04</pdfrwt>
<totfact> 0.19819245E+01</totfact>
</mgrwt>
</event>
<event>
12    1  0.1556559E-007  0.1200264E+04  0.7818608E-02  0.9112626E-01
          2   -1    0    0  501    0  0.00000000000E+00  0.00000000000E+00  0.24757800623E+04  0.24757800623E+04  0.00000000000E+00 0. -1.
         -2   -1    0    0    0  501 -0.00000000000E+00 -0.00000000000E+00 -0.14547258665E+03  0.14547258665E+03  0.00000000000E+00 0.  1.
         23    2    1    2    0    0 -0.66337360820E+02  0.24238771793E+03  0.62602021503E+03  0.68046833842E+03  0.89349866980E+02 0.  0.
        254    2    1    2    0    0  0.66337360820E+02 -0.24238771793E+03  0.17042872606E+04  0.19407843106E+04  0.89380994740E+03 0.  0.
        -24    2    4    4    0    0  0.23319068195E+03 -0.46722730216E+03  0.60121993936E+03  0.79989497078E+03  0.75414208022E+02 0.  0.
         24    2    4    4    0    0 -0.16685332112E+03  0.22483958424E+03  0.11030673213E+04  0.11408893398E+04  0.80486650486E+02 0.  0.
         13    1    3    3    0    0 -0.31864422560E+02  0.20268422464E+03  0.55779092094E+03  0.59432898955E+03  0.00000000000E+00 0. -1.
        -13    1    3    3    0    0 -0.34472938261E+02  0.39703493289E+02  0.68229294091E+02  0.86139348870E+02  0.00000000000E+00 0.  1.
          2    1    6    6  502    0 -0.55591683851E+02  0.41067893362E+02  0.39315814414E+03  0.39918709082E+03  0.00000000000E+00 0. -1.
          3    1    5    5  503    0  0.70720253873E+02 -0.18083997003E+03  0.17576766723E+03  0.26191357718E+03  0.00000000000E+00 0. -1.
         -4    1    5    5    0  503  0.16247042807E+03 -0.28638733213E+03  0.42545227213E+03  0.53798139360E+03  0.00000000000E+00 0.  1.
         -1    1    6    6    0  502 -0.11126163727E+03  0.18377169087E+03  0.70990917716E+03  0.74170224896E+03  0.00000000000E+00 0.  1.
<mgrwt>
<rscale>  0 0.12002635E+04</rscale>
<asrwt>0</asrwt>
<pdfrwt beam="1">  1        2 0.38088921E+00 0.12002635E+04</pdfrwt>
<pdfrwt beam="2">  1       -2 0.22380400E-01 0.12002635E+04</pdfrwt>
<totfact> 0.62504433E+01</totfact>
</mgrwt>
</event>
<event>
12    1  0.1556559E-007  0.1396817E+04  0.7818608E-02  0.8956126E-01
          2   -1    0    0  501    0  0.00000000000E+00  0.00000000000E+00  0.37420917831E+03  0.37420917831E+03  0.00000000000E+00 0. -1.
         -2   -1    0    0    0  501 -0.00000000000E+00 -0.00000000000E+00 -0.13034797524E+04  0.13034797524E+04  0.00000000000E+00 0.  1.
         23    2    1    2    0    0  0.15795626115E+03  0.94790210154E+02 -0.71729668206E+03  0.74646828363E+03  0.93621600053E+02 0.  0.
        254    2    1    2    0    0 -0.15795626115E+03 -0.94790210154E+02 -0.21197389199E+03  0.93122064704E+03  0.88786462832E+03 0.  0.
        -24    2    4    4    0    0 -0.94182427211E+02  0.68142667149E+02 -0.53632850576E+03  0.55430808053E+03  0.78073230760E+02 0.  0.
         24    2    4    4    0    0 -0.63773833936E+02 -0.16293287730E+03  0.32435461378E+03  0.37691256651E+03  0.79012295985E+02 0.  0.
         13    1    3    3    0    0  0.78936693701E+02  0.11925136217E+02 -0.17697901165E+03  0.19415143845E+03  0.00000000000E+00 0.  1.
        -13    1    3    3    0    0  0.79019567446E+02  0.82865073937E+02 -0.54031767041E+03  0.55231684518E+03  0.00000000000E+00 0. -1.
          4    1    6    6  502    0  0.16964449986E+02 -0.44439593587E+02  0.64780220941E+02  0.80368818996E+02  0.00000000000E+00 0. -1.
          1    1    5    5  503    0 -0.56387948033E+01 -0.13711336847E+02 -0.26024867043E+02  0.29951468571E+02  0.00000000000E+00 0. -1.
         -2    1    5    5    0  503 -0.88543632408E+02  0.81854003996E+02 -0.51030363872E+03  0.52435661196E+03  0.00000000000E+00 0.  1.
         -3    1    6    6    0  502 -0.80738283922E+02 -0.11849328372E+03  0.25957439284E+03  0.29654374752E+03  0.00000000000E+00 0.  1.
<mgrwt>
<rscale>  0 0.13968165E+04</rscale>
<asrwt>0</asrwt>
<pdfrwt beam="1">  1        2 0.57570643E-01 0.13968165E+04</pdfrwt>
<pdfrwt beam="2">  1       -2 0.20053534E+00 0.13968165E+04</pdfrwt>
<totfact> 0.10999327E+01</totfact>
</mgrwt>
</event>
<event>
12    1  0.1556559E-007  0.3544667E+04  0.7818608E-02  0.8103285E-01
         -1   -1    0    0    0  501 -0.00000000000E+00  0.00000000000E+00  0.20473074213E+04  0.20473074213E+04  0.00000000000E+00 0.  1.
          1   -1    0    0  501    0  0.00000000000E+00 -0.00000000000E+00 -0.15342915603E+04  0.15342915603E+04  0.00000000000E+00 0. -1.
         23    2    1    2    0    0 -0.11299125626E+04 -0.31428084826E+02 -0.98235207223E+03  0.15005040955E+04  0.93844675677E+02 0.  0.
        254    2    1    2    0    0  0.11299125626E+04  0.31428084826E+02  0.14953679333E+04  0.20810948860E+04  0.90395826516E+03 0.  0.
        -24    2    4    4    0    0  0.34359804667E+03  0.18777122177E+03  0.20234677800E+02  0.40044787542E+03  0.81433465747E+02 0.  0.
         24    2    4    4    0    0  0.78631451596E+03 -0.15634313695E+03  0.14751332555E+04  0.16806470106E+04  0.76305690738E+02 0.  0.
         13    1    3    3    0    0 -0.93751603569E+03 -0.39559953887E+02 -0.85640537015E+03  0.12704060237E+04  0.00000000000E+00 0. -1.
        -13    1    3    3    0    0 -0.19239652693E+03  0.81318690610E+01 -0.12594670207E+03  0.23009807177E+03  0.00000000000E+00 0.  1.
          4    1    6    6  502    0  0.13984309177E+03 -0.26318857115E+02  0.20512317932E+03  0.24964833517E+03  0.00000000000E+00 0. -1.
          1    1    5    5  503    0  0.11798852146E+03  0.51935366312E+02  0.43553541969E+02  0.13607161529E+03  0.00000000000E+00 0. -1.
         -2    1    5    5    0  503  0.22560952521E+03  0.13583585546E+03 -0.23318864169E+02  0.26437626013E+03  0.00000000000E+00 0.  1.
         -3    1    6    6    0  502  0.64647142419E+03 -0.13002427983E+03  0.12700100761E+04  0.14309986755E+04  0.00000000000E+00 0.  1.
<mgrwt>
<rscale>  0 0.35446673E+04</rscale>
<asrwt>0</asrwt>
<pdfrwt beam="1">  1        1 0.23604485E+00 0.35446673E+04</pdfrwt>
<pdfrwt beam="2">  1       -1 0.31497037E+00 0.35446673E+04</pdfrwt>
<totfact> 0.13284701E-01</totfact>
</mgrwt>
</event>
<event>
12    1  0.1556559E-007  0.2102685E+04  0.7818608E-02  0.8560061E-01
         -1   -1    0    0    0  501 -0.00000000000E+00  0.00000000000E+00  0.91506533730E+03  0.91506533730E+03  0.00000000000E+00 0.  1.
          1   -1    0    0  501    0  0.00000000000E+00 -0.00000000000E+00 -0.12079153476E+04  0.12079153476E+04  0.00000000000E+00 0. -1.
         23    2    1    2    0    0 -0.55314368945E+03 -0.41800701560E+03  0.38951718055E+03  0.80044360503E+03  0.91041334650E+02 0.  0.
        254    2    1    2    0    0  0.55314368945E+03  0.41800701560E+03 -0.68236719081E+03  0.13225370798E+04  0.89598076887E+03 0.  0.
        -24    2    4    4    0    0  0.33263986994E+03  0.26366268527E+02  0.14944861913E+03  0.37428720533E+03  0.80072211954E+02 0.  0.
         24    2    4    4    0    0  0.22050381951E+03  0.39164074707E+03 -0.83181580994E+03  0.94824987451E+03  0.72497404358E+02 0.  0.
         11    1    3    3    0    0 -0.43193866060E+03 -0.34292686416E+03  0.26835095202E+03  0.61333683578E+03  0.00000000000E+00 0. -1.
        -11    1    3    3    0    0 -0.12120502885E+03 -0.75080151443E+02  0.12116622853E+03  0.18710676924E+03  0.00000000000E+00 0.  1.
          4    1    6    6  502    0  0.19411089111E+03  0.32390218309E+03 -0.74320006991E+03  0.83362941777E+03  0.00000000000E+00 0. -1.
          1    1    5    5  503    0  0.34740267920E+02  0.26181583648E+02  0.32297004251E+02  0.54179867303E+02  0.00000000000E+00 0. -1.
         -2    1    5    5    0  503  0.29789960202E+03  0.18468487915E+00  0.11715161488E+03  0.32010733803E+03  0.00000000000E+00 0.  1.
         -3    1    6    6    0  502  0.26392928398E+02  0.67738563987E+02 -0.88615740034E+02  0.11462045674E+03  0.00000000000E+00 0.  1.
<mgrwt>
<rscale>  0 0.21026854E+04</rscale>
<asrwt>0</asrwt>
<pdfrwt beam="1">  1        1 0.18583313E+00 0.21026854E+04</pdfrwt>
<pdfrwt beam="2">  1       -1 0.14077928E+00 0.21026854E+04</pdfrwt>
<totfact> 0.40053590E+00</totfact>
</mgrwt>
</event>
<event>
12    1  0.1556559E-007  0.1648162E+04  0.7818608E-02  0.8791495E-01
          2   -1    0    0  501    0  0.00000000000E+00  0.00000000000E+00  0.12047144649E+04  0.12047144649E+04  0.00000000000E+00 0. -1.
         -2   -1    0    0    0  501 -0.00000000000E+00 -0.00000000000E+00 -0.56370967761E+03  0.56370967761E+03  0.00000000000E+00 0.  1.
         23    2    1    2    0    0  0.40011104561E+03 -0.28001896036E+03 -0.10279198281E+03  0.50740862045E+03  0.91639780653E+02 0.  0.
        254    2    1    2    0    0 -0.40011104561E+03  0.28001896036E+03  0.74379677009E+03  0.12610155220E+04  0.89354744958E+03 0.  0.
        -24    2    4    4    0    0 -0.84473377868E+02  0.53550466690E+03  0.21294218938E+03  0.58794665293E+03  0.80224004040E+02 0.  0.
         24    2    4    4    0    0 -0.31563766775E+03 -0.25548570654E+03  0.53085458071E+03  0.67306886912E+03  0.79467182962E+02 0.  0.
         11    1    3    3    0    0  0.21655101859E+02  0.58565189983E+01 -0.19803135316E+01  0.22520299576E+02  0.00000000000E+00 0. -1.
        -11    1    3    3    0    0  0.37845594376E+03 -0.28587547936E+03 -0.10081166928E+03  0.48488832088E+03  0.00000000000E+00 0.  1.
          2    1    6    6  502    0 -0.13267577649E+03 -0.58732313926E+02  0.18382192022E+03  0.23418549212E+03  0.00000000000E+00 0. -1.
          1    1    5    5  503    0 -0.46729887327E+02  0.39455007725E+03  0.12037850806E+03  0.41514386787E+03  0.00000000000E+00 0. -1.
         -4    1    5    5    0  503 -0.37743490541E+02  0.14095458965E+03  0.92563681326E+02  0.17280278505E+03  0.00000000000E+00 0.  1.
         -1    1    6    6    0  502 -0.18296189126E+03 -0.19675339262E+03  0.34703266050E+03  0.43888337700E+03  0.00000000000E+00 0.  1.
<mgrwt>
<rscale>  0 0.16481616E+04</rscale>
<asrwt>0</asrwt>
<pdfrwt beam="1">  1        2 0.18534069E+00 0.16481616E+04</pdfrwt>
<pdfrwt beam="2">  1       -2 0.86724566E-01 0.16481616E+04</pdfrwt>
<totfact> 0.20694228E+01</totfact>
</mgrwt>
</event>
<event>
12    1  0.1556559E-007  0.1682383E+04  0.7818608E-02  0.8771476E-01
         -1   -1    0    0    0  501 -0.00000000000E+00  0.00000000000E+00  0.26233965123E+03  0.26233965123E+03  0.00000000000E+00 0.  1.
          1   -1    0    0  501    0  0.00000000000E+00 -0.00000000000E+00 -0.26972784226E+04  0.26972784226E+04  0.00000000000E+00 0. -1.
         23    2    1    2    0    0 -0.20559834750E+03 -0.56352460599E+03 -0.14092743631E+04  0.15344260315E+04  0.92619401324E+02 0.  0.
        254    2    1    2    0    0  0.20559834750E+03  0.56352460599E+03 -0.10256644083E+04  0.14251920424E+04  0.78699060806E+03 0.  0.
        -24    2    4    4    0    0  0.32674896358E+03 -0.15859182424E+02 -0.61304433904E+03  0.69932807304E+03  0.78866933766E+02 0.  0.
         24    2    4    4    0    0 -0.12115061609E+03  0.57938378842E+03 -0.41262006923E+03  0.72586396933E+03  0.79121010965E+02 0.  0.
         13    1    3    3    0    0 -0.20482152757E+03 -0.56689875991E+03 -0.14055262497E+04  0.15293234128E+04  0.00000000000E+00 0. -1.
        -13    1    3    3    0    0 -0.77681992183E+00  0.33741539209E+01 -0.37481134122E+01  0.51026187417E+01  0.00000000000E+00 0.  1.
          2    1    6    6  502    0  0.11364594881E+02  0.64453146860E+02 -0.47248305133E+02  0.80720285523E+02  0.00000000000E+00 0. -1.
          1    1    5    5  503    0  0.36250239807E+02  0.40727215526E+01 -0.13266457361E+03  0.13758835721E+03  0.00000000000E+00 0. -1.
         -2    1    5    5    0  503  0.29049872377E+03 -0.19931903977E+02 -0.48037976542E+03  0.56173971583E+03  0.00000000000E+00 0.  1.
         -1    1    6    6    0  502 -0.13251521097E+03  0.51493064156E+03 -0.36537176410E+03  0.64514368380E+03  0.00000000000E+00 0.  1.
<mgrwt>
<rscale>  0 0.16823829E+04</rscale>
<asrwt>0</asrwt>
<pdfrwt beam="1">  1        1 0.41496591E+00 0.16823829E+04</pdfrwt>
<pdfrwt beam="2">  1       -1 0.40359946E-01 0.16823829E+04</pdfrwt>
<totfact> 0.56425279E+00</totfact>
</mgrwt>
</event>
<event>
12    1  0.1556559E-007  0.3538143E+04  0.7818608E-02  0.8104809E-01
         -2   -1    0    0    0  501 -0.00000000000E+00  0.00000000000E+00  0.11396133995E+04  0.11396133995E+04  0.00000000000E+00 0.  1.
          2   -1    0    0  501    0  0.00000000000E+00 -0.00000000000E+00 -0.27462074809E+04  0.27462074809E+04  0.00000000000E+00 0. -1.
         23    2    1    2    0    0 -0.15378106345E+04  0.21930437683E+02 -0.14405119076E+04  0.21091856347E+04  0.90812960244E+02 0.  0.
        254    2    1    2    0    0  0.15378106345E+04 -0.21930437683E+02 -0.16608217375E+03  0.17766352457E+04  0.87378888526E+03 0.  0.
        -24    2    4    4    0    0  0.81087858878E+03 -0.42008207374E+03  0.42836938661E+02  0.91802368220E+03  0.83303321314E+02 0.  0.
         24    2    4    4    0    0  0.72693204576E+03  0.39815163606E+03 -0.20891911241E+03  0.85861156349E+03  0.81312342193E+02 0.  0.
         11    1    3    3    0    0  0.89425059184E+00  0.10869343892E+01 -0.32169942505E+01  0.35114331113E+01  0.00000000000E+00 0. -1.
        -11    1    3    3    0    0 -0.15387048851E+04  0.20843503294E+02 -0.14372949134E+04  0.21056742016E+04  0.00000000000E+00 0.  1.
          2    1    6    6  502    0  0.55050152990E+03  0.33811606100E+03 -0.17312907414E+03  0.66884084912E+03  0.00000000000E+00 0. -1.
          1    1    5    5  503    0  0.56022011193E+03 -0.24605738670E+03  0.27557587419E+02  0.61249508731E+03  0.00000000000E+00 0. -1.
         -2    1    5    5    0  503  0.25065847685E+03 -0.17402468704E+03  0.15279351242E+02  0.30552859488E+03  0.00000000000E+00 0.  1.
         -1    1    6    6    0  502  0.17643051585E+03  0.60035575053E+02 -0.35790038279E+02  0.18977071438E+03  0.00000000000E+00 0.  1.
<mgrwt>
<rscale>  0 0.35381435E+04</rscale>
<asrwt>0</asrwt>
<pdfrwt beam="1">  1        2 0.42249346E+00 0.35381435E+04</pdfrwt>
<pdfrwt beam="2">  1       -2 0.17532514E+00 0.35381435E+04</pdfrwt>
<totfact> 0.39879790E-01</totfact>
</mgrwt>
</event>
<event>
12    1  0.1556559E-007  0.1238949E+04  0.7818608E-02  0.9079431E-01
          1   -1    0    0  501    0  0.00000000000E+00  0.00000000000E+00  0.38244570177E+04  0.38244570177E+04  0.00000000000E+00 0. -1.
         -1   -1    0    0    0  501 -0.00000000000E+00 -0.00000000000E+00 -0.10034072300E+03  0.10034072300E+03  0.00000000000E+00 0.  1.
         23    2    1    2    0    0  0.92508570837E+02 -0.11825319064E+03  0.18190275035E+04  0.18274625236E+04  0.90645265882E+02 0.  0.
        254    2    1    2    0    0 -0.92508570837E+02  0.11825319064E+03  0.19050887913E+04  0.20973352171E+04  0.86423958335E+03 0.  0.
        -24    2    4    4    0    0 -0.41806299117E+03  0.27533751821E+03  0.10830521100E+04  0.11957825543E+04  0.79414296752E+02 0.  0.
         24    2    4    4    0    0  0.32555442033E+03 -0.15708432756E+03  0.82203668124E+03  0.90155266282E+03  0.79948308116E+02 0.  0.
         11    1    3    3    0    0  0.47607441746E+02 -0.10512286537E+03  0.15586189726E+04  0.15628852764E+04  0.00000000000E+00 0. -1.
        -11    1    3    3    0    0  0.44901129091E+02 -0.13130325271E+02  0.26040853081E+03  0.26457724723E+03  0.00000000000E+00 0.  1.
          2    1    6    6  502    0  0.30753160660E+03 -0.13705331194E+03  0.70248828291E+03  0.77900519061E+03  0.00000000000E+00 0. -1.
          3    1    5    5  503    0 -0.26194063856E+03  0.21049682262E+03  0.76628241163E+03  0.83672608710E+03  0.00000000000E+00 0. -1.
         -4    1    5    5    0  503 -0.15612235261E+03  0.64840695585E+02  0.31676969839E+03  0.35905646715E+03  0.00000000000E+00 0.  1.
         -1    1    6    6    0  502  0.18022813732E+02 -0.20031015623E+02  0.11954839834E+03  0.12254747222E+03  0.00000000000E+00 0.  1.
<mgrwt>
<rscale>  0 0.12389492E+04</rscale>
<asrwt>0</asrwt>
<pdfrwt beam="1">  1        1 0.58837789E+00 0.12389492E+04</pdfrwt>
<pdfrwt beam="2">  1       -1 0.15437037E-01 0.12389492E+04</pdfrwt>
<totfact> 0.43299219E+00</totfact>
</mgrwt>
</event>
<event>
12    1  0.1556559E-007  0.1596150E+04  0.7818608E-02  0.8822917E-01
          1   -1    0    0  501    0  0.00000000000E+00  0.00000000000E+00  0.87181424209E+03  0.87181424209E+03  0.00000000000E+00 0. -1.
         -1   -1    0    0    0  501 -0.00000000000E+00 -0.00000000000E+00 -0.73057256281E+03  0.73057256281E+03  0.00000000000E+00 0.  1.
         23    2    1    2    0    0  0.23516455518E+03  0.13303962575E+03 -0.42456798433E+03  0.51133357176E+03  0.90565657183E+02 0.  0.
        254    2    1    2    0    0 -0.23516455518E+03 -0.13303962575E+03  0.56580966360E+03  0.10910532331E+04  0.89289118714E+03 0.  0.
        -24    2    4    4    0    0 -0.26280107348E+03  0.20200814907E+03  0.65146733720E+03  0.73525000710E+03  0.79442966883E+02 0.  0.
         24    2    4    4    0    0  0.27636518295E+02 -0.33504777483E+03 -0.85657673601E+02  0.35580322604E+03  0.78980440949E+02 0.  0.
         11    1    3    3    0    0  0.14013208107E+03  0.12221291479E+03 -0.31597559986E+03  0.36662457146E+03  0.00000000000E+00 0.  1.
        -11    1    3    3    0    0  0.95032474115E+02  0.10826710967E+02 -0.10859238446E+03  0.14470900031E+03  0.00000000000E+00 0. -1.
          2    1    6    6  502    0 -0.15030386259E+02 -0.22797592389E+03 -0.73002883060E+02  0.23985069381E+03  0.00000000000E+00 0. -1.
          1    1    5    5  503    0 -0.39151061635E+01 -0.29309860385E+01  0.40281737155E+02  0.40577544081E+02  0.00000000000E+00 0. -1.
         -2    1    5    5    0  503 -0.25888596732E+03  0.20493913511E+03  0.61118560004E+03  0.69467246302E+03  0.00000000000E+00 0.  1.
         -1    1    6    6    0  502  0.42666904553E+02 -0.10707185094E+03 -0.12654790541E+02  0.11595253223E+03  0.00000000000E+00 0.  1.
<mgrwt>
<rscale>  0 0.15961498E+04</rscale>
<asrwt>0</asrwt>
<pdfrwt beam="1">  1        1 0.13412527E+00 0.15961498E+04</pdfrwt>
<pdfrwt beam="2">  1       -1 0.11239578E+00 0.15961498E+04</pdfrwt>
<totfact> 0.13366795E+01</totfact>
</mgrwt>
</event>
<event>
12    1  0.1556559E-007  0.2066635E+04  0.7818608E-02  0.8576085E-01
          2   -1    0    0  501    0  0.00000000000E+00  0.00000000000E+00  0.79206435209E+03  0.79206435209E+03  0.00000000000E+00 0. -1.
         -2   -1    0    0    0  501 -0.00000000000E+00 -0.00000000000E+00 -0.13480532242E+04  0.13480532242E+04  0.00000000000E+00 0.  1.
         23    2    1    2    0    0  0.59587074229E+03  0.40913865042E+03 -0.66112486247E+03  0.98393861232E+03  0.92696991574E+02 0.  0.
        254    2    1    2    0    0 -0.59587074229E+03 -0.40913865042E+03  0.10513599034E+03  0.11561789640E+04  0.89623648862E+03 0.  0.
        -24    2    4    4    0    0 -0.55109154358E+03 -0.33746682684E+03  0.45084140784E+03  0.79136380430E+03  0.73572733428E+02 0.  0.
         24    2    4    4    0    0 -0.44779198704E+02 -0.71671823580E+02 -0.34570541750E+03  0.36481515969E+03  0.80223675556E+02 0.  0.
         11    1    3    3    0    0  0.58509669485E+03  0.39740882801E+03 -0.66088663458E+03  0.96800984637E+03  0.00000000000E+00 0.  1.
        -11    1    3    3    0    0  0.10774047441E+02  0.11729822416E+02 -0.23822789231E+00  0.15928765950E+02  0.00000000000E+00 0. -1.
          2    1    6    6  502    0 -0.38658763663E+02  0.55420560469E+01 -0.11856623266E+03  0.12483255152E+03  0.00000000000E+00 0. -1.
          3    1    5    5  503    0 -0.49221657584E+03 -0.32536224620E+03  0.40272484323E+03  0.71437038582E+03  0.00000000000E+00 0. -1.
         -4    1    5    5    0  503 -0.58874967738E+02 -0.12104580647E+02  0.48116564617E+02  0.76993418480E+02  0.00000000000E+00 0.  1.
         -1    1    6    6    0  502 -0.61204350408E+01 -0.77213879627E+02 -0.22713918485E+03  0.23998260817E+03  0.00000000000E+00 0.  1.
<mgrwt>
<rscale>  0 0.20666349E+04</rscale>
<asrwt>0</asrwt>
<pdfrwt beam="1">  1        2 0.12185605E+00 0.20666349E+04</pdfrwt>
<pdfrwt beam="2">  1       -2 0.20739280E+00 0.20666349E+04</pdfrwt>
<totfact> 0.38374792E+00</totfact>
</mgrwt>
</event>
<event>
12    1  0.1556559E-007  0.1427120E+04  0.7818608E-02  0.8934418E-01
          2   -1    0    0  501    0  0.00000000000E+00  0.00000000000E+00  0.86746447130E+03  0.86746447130E+03  0.00000000000E+00 0. -1.
         -2   -1    0    0    0  501 -0.00000000000E+00 -0.00000000000E+00 -0.58696113020E+03  0.58696113020E+03  0.00000000000E+00 0.  1.
         23    2    1    2    0    0  0.22926308544E+03  0.18159812344E+03 -0.21498467093E+03  0.37396067401E+03  0.89937401497E+02 0.  0.
        254    2    1    2    0    0 -0.22926308544E+03 -0.18159812344E+03  0.49548801202E+03  0.10804649275E+04  0.91452536799E+03 0.  0.
        -24    2    4    4    0    0 -0.17448957121E+03 -0.15280678486E+03 -0.23709188534E+03  0.34103958656E+03  0.79365695008E+02 0.  0.
         24    2    4    4    0    0 -0.54773514236E+02 -0.28791338578E+02  0.73257989736E+03  0.73942534093E+03  0.79040810689E+02 0.  0.
         13    1    3    3    0    0  0.10603668237E+03  0.12577494052E+03 -0.80281532634E+02  0.18305255572E+03  0.00000000000E+00 0. -1.
        -13    1    3    3    0    0  0.12322640307E+03  0.55823182920E+02 -0.13470313829E+03  0.19090811829E+03  0.00000000000E+00 0.  1.
          2    1    6    6  502    0 -0.93877096563E+01 -0.23077068041E+01  0.53165016160E+03  0.53173804541E+03  0.00000000000E+00 0. -1.
          3    1    5    5  503    0 -0.17086883074E+03 -0.11984434967E+03 -0.22169393374E+03  0.30447828449E+03  0.00000000000E+00 0. -1.
         -4    1    5    5    0  503 -0.36207404665E+01 -0.32962435197E+02 -0.15397951598E+02  0.36561302070E+02  0.00000000000E+00 0.  1.
         -1    1    6    6    0  502 -0.45385804580E+02 -0.26483631774E+02  0.20092973576E+03  0.20768729552E+03  0.00000000000E+00 0.  1.
<mgrwt>
<rscale>  0 0.14271201E+04</rscale>
<asrwt>0</asrwt>
<pdfrwt beam="1">  1        2 0.13345607E+00 0.14271201E+04</pdfrwt>
<pdfrwt beam="2">  1       -2 0.90301712E-01 0.14271201E+04</pdfrwt>
<totfact> 0.31449817E+01</totfact>
</mgrwt>
</event>
<event>
12    1  0.1556559E-007  0.2059005E+04  0.7818608E-02  0.8579520E-01
          2   -1    0    0  501    0  0.00000000000E+00  0.00000000000E+00  0.61952685270E+03  0.61952685270E+03  0.00000000000E+00 0. -1.
         -2   -1    0    0    0  501 -0.00000000000E+00 -0.00000000000E+00 -0.17107815006E+04  0.17107815006E+04  0.00000000000E+00 0.  1.
         23    2    1    2    0    0  0.16023677557E+03  0.84121938519E+03 -0.47073138739E+03  0.98119050522E+03  0.88435797060E+02 0.  0.
        254    2    1    2    0    0 -0.16023677557E+03 -0.84121938519E+03 -0.62052326051E+03  0.13491178481E+04  0.83770160134E+03 0.  0.
        -24    2    4    4    0    0  0.20160829920E+03 -0.53387293463E+03 -0.16844022342E+02  0.57682259268E+03  0.82306534988E+02 0.  0.
         24    2    4    4    0    0 -0.36184507476E+03 -0.30734645055E+03 -0.60367923817E+03  0.77229525539E+03  0.81348878919E+02 0.  0.
         11    1    3    3    0    0  0.12993816194E+03  0.49150094634E+03 -0.25000843286E+03  0.56653448499E+03  0.00000000000E+00 0. -1.
        -11    1    3    3    0    0  0.30298613632E+02  0.34971843885E+03 -0.22072295453E+03  0.41465602023E+03  0.00000000000E+00 0.  1.
          4    1    6    6  502    0 -0.88816835667E+00  0.40644420728E+00 -0.20682960095E+02  0.20706010678E+02  0.00000000000E+00 0. -1.
          3    1    5    5  503    0  0.31554256967E+02 -0.10574745700E+03  0.28380041328E+02  0.11394569997E+03  0.00000000000E+00 0. -1.
         -2    1    5    5    0  503  0.17005404223E+03 -0.42812547763E+03 -0.45224063670E+02  0.46287689271E+03  0.00000000000E+00 0.  1.
         -3    1    6    6    0  502 -0.36095690641E+03 -0.30775289476E+03 -0.58299627808E+03  0.75158924471E+03  0.00000000000E+00 0.  1.
<mgrwt>
<rscale>  0 0.20590047E+04</rscale>
<asrwt>0</asrwt>
<pdfrwt beam="1">  1        2 0.95311826E-01 0.20590047E+04</pdfrwt>
<pdfrwt beam="2">  1       -2 0.26319715E+00 0.20590047E+04</pdfrwt>
<totfact> 0.23524449E+00</totfact>
</mgrwt>
</event>
<event>
12    1  0.1556559E-007  0.1431772E+04  0.7818608E-02  0.8931136E-01
         -1   -1    0    0    0  501 -0.00000000000E+00  0.00000000000E+00  0.43654414157E+03  0.43654414157E+03  0.00000000000E+00 0.  1.
          1   -1    0    0  501    0  0.00000000000E+00 -0.00000000000E+00 -0.11739771607E+04  0.11739771607E+04  0.00000000000E+00 0. -1.
         23    2    1    2    0    0  0.14276985652E+03 -0.38835324573E+03 -0.17050206744E+03  0.45679333046E+03  0.91584476636E+02 0.  0.
        254    2    1    2    0    0 -0.14276985652E+03  0.38835324573E+03 -0.56693095175E+03  0.11537279719E+04  0.91568338065E+03 0.  0.
        -24    2    4    4    0    0  0.22461944345E+03 -0.12982480810E+03 -0.41452324605E+03  0.49562100968E+03  0.80636769159E+02 0.  0.
         24    2    4    4    0    0 -0.36738929996E+03  0.51817805383E+03 -0.15240770569E+03  0.65810696218E+03  0.79957937163E+02 0.  0.
         13    1    3    3    0    0  0.85677316304E+02 -0.33296952515E+03 -0.13039616073E+03  0.36771247727E+03  0.00000000000E+00 0. -1.
        -13    1    3    3    0    0  0.57092540212E+02 -0.55383720573E+02 -0.40105906706E+02  0.89080853190E+02  0.00000000000E+00 0.  1.
          4    1    6    6  502    0 -0.35752917092E+03  0.48064466076E+03 -0.12894537438E+03  0.61275876783E+03  0.00000000000E+00 0. -1.
          1    1    5    5  503    0  0.20870881974E+03 -0.12627488819E+03 -0.41245183103E+03  0.47918809641E+03  0.00000000000E+00 0. -1.
         -2    1    5    5    0  503  0.15910623711E+02 -0.35499199105E+01 -0.20714150279E+01  0.16432913267E+02  0.00000000000E+00 0.  1.
         -3    1    6    6    0  502 -0.98601290413E+01  0.37533393066E+02 -0.23462331317E+02  0.45348194348E+02  0.00000000000E+00 0.  1.
<mgrwt>
<rscale>  0 0.14317721E+04</rscale>
<asrwt>0</asrwt>
<pdfrwt beam="1">  1        1 0.18061187E+00 0.14317721E+04</pdfrwt>
<pdfrwt beam="2">  1       -1 0.67160637E-01 0.14317721E+04</pdfrwt>
<totfact> 0.24391986E+01</totfact>
</mgrwt>
</event>
<event>
12    1  0.1556559E-007  0.2948580E+04  0.7818608E-02  0.8258569E-01
          2   -1    0    0  501    0  0.00000000000E+00  0.00000000000E+00  0.41413517650E+04  0.41413517650E+04  0.00000000000E+00 0.  1.
         -2   -1    0    0    0  501 -0.00000000000E+00 -0.00000000000E+00 -0.52483611113E+03  0.52483611113E+03  0.00000000000E+00 0. -1.
         23    2    1    2    0    0 -0.21269816869E+03  0.10198637258E+04  0.31816293998E+03  0.10922241403E+04  0.79770834524E+02 0.  0.
        254    2    1    2    0    0  0.21269816869E+03 -0.10198637258E+04  0.32983527139E+04  0.35739637359E+04  0.89929062601E+03 0.  0.
        -24    2    4    4    0    0  0.11437442948E+03  0.96808034337E+01  0.14311420679E+04  0.14379407257E+04  0.79565594469E+02 0.  0.
         24    2    4    4    0    0  0.98323739207E+02 -0.10295445292E+04  0.18672106460E+04  0.21360230102E+04  0.80555623643E+02 0.  0.
         11    1    3    3    0    0 -0.18683869969E+03  0.91681021033E+03  0.30995944882E+03  0.98565943479E+03  0.00000000000E+00 0.  1.
        -11    1    3    3    0    0 -0.25859468995E+02  0.10305351545E+03  0.82034911598E+01  0.10656470547E+03  0.00000000000E+00 0. -1.
          4    1    6    6  502    0  0.10291885113E+03 -0.95279043531E+03  0.17613792423E+04  0.20052079041E+04  0.00000000000E+00 0. -1.
          1    1    5    5  503    0  0.10321524721E+03  0.11516551843E+02  0.14111898246E+04  0.14150062683E+04  0.00000000000E+00 0. -1.
         -2    1    5    5    0  503  0.11159182271E+02 -0.18357484098E+01  0.19952243348E+02  0.22934457391E+02  0.00000000000E+00 0.  1.
         -3    1    6    6    0  502 -0.45951119214E+01 -0.76754093908E+02  0.10583140364E+03  0.13081510609E+03  0.00000000000E+00 0.  1.
<mgrwt>
<rscale>  0 0.29485800E+04</rscale>
<asrwt>0</asrwt>
<pdfrwt beam="1">  1        2 0.63713102E+00 0.29485800E+04</pdfrwt>
<pdfrwt beam="2">  1       -2 0.80744020E-01 0.29485800E+04</pdfrwt>
<totfact> 0.30383827E-01</totfact>
</mgrwt>
</event>
<event>
12    1  0.1556559E-007  0.1642371E+04  0.7818608E-02  0.8794933E-01
          1   -1    0    0  501    0  0.00000000000E+00  0.00000000000E+00  0.12199352679E+04  0.12199352679E+04  0.00000000000E+00 0. -1.
         -1   -1    0    0    0  501 -0.00000000000E+00 -0.00000000000E+00 -0.55277140983E+03  0.55277140983E+03  0.00000000000E+00 0.  1.
         23    2    1    2    0    0  0.37314406748E+03  0.72972198247E+02 -0.22402923403E+03  0.44958840670E+03  0.85902275448E+02 0.  0.
        254    2    1    2    0    0 -0.37314406748E+03 -0.72972198247E+02  0.89119309207E+03  0.13231182710E+04  0.90103018533E+03 0.  0.
        -24    2    4    4    0    0  0.10884235158E+03  0.28560073069E+03  0.53232256661E+03  0.61893409246E+03  0.79357803773E+02 0.  0.
         24    2    4    4    0    0 -0.48198641906E+03 -0.35857292894E+03  0.35887052546E+03  0.70418417853E+03  0.78751823587E+02 0.  0.
         13    1    3    3    0    0  0.73005238529E+02  0.49032598915E+02 -0.62634124364E+02  0.10796756061E+03  0.00000000000E+00 0.  1.
        -13    1    3    3    0    0  0.30013882895E+03  0.23939599331E+02 -0.16139510967E+03  0.34162084609E+03  0.00000000000E+00 0. -1.
          2    1    6    6  502    0 -0.20113669542E+03 -0.15721752799E+03  0.10822081776E+03  0.27728156583E+03  0.00000000000E+00 0. -1.
          1    1    5    5  503    0  0.30351807146E+02  0.10693659565E+03  0.26999178821E+03  0.29197985100E+03  0.00000000000E+00 0. -1.
         -2    1    5    5    0  503  0.78490544439E+02  0.17866413505E+03  0.26233077839E+03  0.32695424146E+03  0.00000000000E+00 0.  1.
         -1    1    6    6    0  502 -0.28084972364E+03 -0.20135540095E+03  0.25064970770E+03  0.42690261270E+03  0.00000000000E+00 0.  1.
<mgrwt>
<rscale>  0 0.16423706E+04</rscale>
<asrwt>0</asrwt>
<pdfrwt beam="1">  1        1 0.18768235E+00 0.16423706E+04</pdfrwt>
<pdfrwt beam="2">  1       -1 0.85041756E-01 0.16423706E+04</pdfrwt>
<totfact> 0.13514228E+01</totfact>
</mgrwt>
</event>
<event>
12    1  0.1556559E-007  0.2004431E+04  0.7818608E-02  0.8604552E-01
          1   -1    0    0  501    0  0.00000000000E+00  0.00000000000E+00  0.90647625503E+03  0.90647625503E+03  0.00000000000E+00 0. -1.
         -1   -1    0    0    0  501 -0.00000000000E+00 -0.00000000000E+00 -0.11080665959E+04  0.11080665959E+04  0.00000000000E+00 0.  1.
         23    2    1    2    0    0  0.14435749134E+03 -0.19795786735E+03  0.68334858305E+03  0.73152059148E+03  0.90170323585E+02 0.  0.
        254    2    1    2    0    0 -0.14435749134E+03  0.19795786735E+03 -0.88493892394E+03  0.12830222595E+04  0.89610424430E+03 0.  0.
        -24    2    4    4    0    0 -0.10024476785E+03  0.24909087497E+02 -0.10285463427E+04  0.10368269294E+04  0.80206148017E+02 0.  0.
         24    2    4    4    0    0 -0.44112723487E+02  0.17304877985E+03  0.14360741878E+03  0.24619533012E+03  0.89984650146E+02 0.  0.
         13    1    3    3    0    0  0.10474867184E+03 -0.85820484091E+02  0.44502384677E+03  0.46517057510E+03  0.00000000000E+00 0. -1.
        -13    1    3    3    0    0  0.39608819498E+02 -0.11213738325E+03  0.23832473628E+03  0.26635001639E+03  0.00000000000E+00 0.  1.
          4    1    6    6  502    0  0.23842984518E+02  0.86745313893E+02  0.59715525628E+02  0.10797768933E+03  0.00000000000E+00 0. -1.
          3    1    5    5  503    0 -0.10725887843E+03  0.24961378194E+01 -0.84079432382E+03  0.84761181721E+03  0.00000000000E+00 0. -1.
         -4    1    5    5    0  503  0.70141105856E+01  0.22412949678E+02 -0.18775201891E+03  0.18921511215E+03  0.00000000000E+00 0.  1.
         -3    1    6    6    0  502 -0.67955708005E+02  0.86303465956E+02  0.83891893157E+02  0.13821764078E+03  0.00000000000E+00 0.  1.
<mgrwt>
<rscale>  0 0.20044311E+04</rscale>
<asrwt>0</asrwt>
<pdfrwt beam="1">  1        1 0.13945788E+00 0.20044311E+04</pdfrwt>
<pdfrwt beam="2">  1       -1 0.17047178E+00 0.20044311E+04</pdfrwt>
<totfact> 0.40689049E+00</totfact>
</mgrwt>
</event>
<event>
12    1  0.1556559E-007  0.3433954E+04  0.7818608E-02  0.8129623E-01
         -1   -1    0    0    0  501 -0.00000000000E+00  0.00000000000E+00  0.24141337645E+04  0.24141337645E+04  0.00000000000E+00 0.  1.
          1   -1    0    0  501    0  0.00000000000E+00 -0.00000000000E+00 -0.12211458095E+04  0.12211458095E+04  0.00000000000E+00 0. -1.
         23    2    1    2    0    0  0.94971842062E+03  0.12491286377E+04  0.83561907143E+03  0.17800390764E+04  0.89400499243E+02 0.  0.
        254    2    1    2    0    0 -0.94971842062E+03 -0.12491286377E+04  0.35736888364E+03  0.18552404975E+04  0.92299369055E+03 0.  0.
        -24    2    4    4    0    0  0.17667587236E+03 -0.18280397806E+03  0.30792833804E+02  0.26816787687E+03  0.79587394117E+02 0.  0.
         24    2    4    4    0    0 -0.11263942930E+04 -0.10663246596E+04  0.32657604984E+03  0.15870726207E+04  0.79593994666E+02 0.  0.
         13    1    3    3    0    0  0.56716680118E+03  0.77035071941E+03  0.55555192163E+03  0.11062352141E+04  0.00000000000E+00 0. -1.
        -13    1    3    3    0    0  0.38255161944E+03  0.47877791826E+03  0.28006714980E+03  0.67380386237E+03  0.00000000000E+00 0.  1.
          4    1    6    6  502    0 -0.11230154972E+04 -0.10587384917E+04  0.31941778653E+03  0.15761087282E+04  0.00000000000E+00 0. -1.
          1    1    5    5  503    0  0.15452031970E+03 -0.14196784393E+03 -0.44022669617E+01  0.20988277172E+03  0.00000000000E+00 0. -1.
         -2    1    5    5    0  503  0.22155552658E+02 -0.40836134136E+02  0.35195100765E+02  0.58285105153E+02  0.00000000000E+00 0.  1.
         -3    1    6    6    0  502 -0.33787957862E+01 -0.75861679061E+01  0.71582633041E+01  0.10963892466E+02  0.00000000000E+00 0.  1.
<mgrwt>
<rscale>  0 0.34339536E+04</rscale>
<asrwt>0</asrwt>
<pdfrwt beam="1">  1        1 0.18786859E+00 0.34339536E+04</pdfrwt>
<pdfrwt beam="2">  1       -1 0.37140519E+00 0.34339536E+04</pdfrwt>
<totfact> 0.94525088E-02</totfact>
</mgrwt>
</event>
<event>
12    1  0.1556559E-007  0.1891544E+04  0.7818608E-02  0.8659077E-01
         -2   -1    0    0    0  501 -0.00000000000E+00  0.00000000000E+00  0.37540303599E+03  0.37540303599E+03  0.00000000000E+00 0.  1.
          2   -1    0    0  501    0  0.00000000000E+00 -0.00000000000E+00 -0.23827307283E+04  0.23827307283E+04  0.00000000000E+00 0. -1.
         23    2    1    2    0    0 -0.45902783874E+03 -0.55991676160E+03 -0.84573098105E+03  0.11171972759E+04  0.93035069822E+02 0.  0.
        254    2    1    2    0    0  0.45902783874E+03  0.55991676160E+03 -0.11615967113E+04  0.16409364884E+04  0.90507033030E+03 0.  0.
        -24    2    4    4    0    0  0.31278383990E+03  0.38434133557E+03 -0.51319829182E+02  0.50457782296E+03  0.80081594814E+02 0.  0.
         24    2    4    4    0    0  0.14624399883E+03  0.17557542603E+03 -0.11102768821E+04  0.11363586655E+04  0.79888824524E+02 0.  0.
         13    1    3    3    0    0 -0.36330852343E+03 -0.48427241266E+03 -0.73702843109E+03  0.95379440190E+03  0.00000000000E+00 0. -1.
        -13    1    3    3    0    0 -0.95719315305E+02 -0.75644348933E+02 -0.10870254996E+03  0.16340287395E+03  0.00000000000E+00 0.  1.
          2    1    6    6  502    0  0.13133550859E+02  0.32150590959E+02 -0.33395214682E+03  0.33575316383E+03  0.00000000000E+00 0. -1.
          3    1    5    5  503    0  0.61106377583E+02  0.64399169558E+02  0.20774595280E+02  0.91174701700E+02  0.00000000000E+00 0. -1.
         -4    1    5    5    0  503  0.25167746232E+03  0.31994216601E+03 -0.72094424463E+02  0.41340312126E+03  0.00000000000E+00 0.  1.
         -1    1    6    6    0  502  0.13311044797E+03  0.14342483507E+03 -0.77632473526E+03  0.80060550163E+03  0.00000000000E+00 0.  1.
<mgrwt>
<rscale>  0 0.18915437E+04</rscale>
<asrwt>0</asrwt>
<pdfrwt beam="1">  1        2 0.36657396E+00 0.18915437E+04</pdfrwt>
<pdfrwt beam="2">  1       -2 0.57754313E-01 0.18915437E+04</pdfrwt>
<totfact> 0.10704648E+01</totfact>
</mgrwt>
</event>
<event>
12    1  0.1556559E-007  0.1107138E+04  0.7818608E-02  0.9198263E-01
         -2   -1    0    0    0  501 -0.00000000000E+00  0.00000000000E+00  0.21559572499E+03  0.21559572499E+03  0.00000000000E+00 0. -1.
          2   -1    0    0  501    0  0.00000000000E+00 -0.00000000000E+00 -0.14213576085E+04  0.14213576085E+04  0.00000000000E+00 0.  1.
         23    2    1    2    0    0  0.14134691035E+03 -0.83872201769E+02 -0.19855193397E+03  0.27399942307E+03  0.92947932026E+02 0.  0.
        254    2    1    2    0    0 -0.14134691035E+03  0.83872201769E+02 -0.10072099495E+04  0.13629539104E+04  0.90341462471E+03 0.  0.
        -24    2    4    4    0    0 -0.51454388762E+02 -0.37188774545E+02 -0.11426170001E+04  0.11471241612E+04  0.79307460297E+02 0.  0.
         24    2    4    4    0    0 -0.89892521583E+02  0.12106097631E+03  0.13540705057E+03  0.21582974918E+03  0.74236014607E+02 0.  0.
         13    1    3    3    0    0  0.37902812472E+01 -0.28804216875E+02 -0.38147596906E+01  0.29301903235E+02  0.00000000000E+00 0. -1.
        -13    1    3    3    0    0  0.13755662910E+03 -0.55067984894E+02 -0.19473717428E+03  0.24469751984E+03  0.00000000000E+00 0.  1.
          4    1    6    6  502    0 -0.72590026851E+02  0.52437788614E+02  0.10710772892E+03  0.13961052707E+03  0.00000000000E+00 0. -1.
          3    1    5    5  503    0 -0.46084156158E+02 -0.37728810946E+02 -0.11391573126E+04  0.11407131960E+04  0.00000000000E+00 0. -1.
         -4    1    5    5    0  503 -0.53702326040E+01  0.54003640127E+00 -0.34596874651E+01  0.64109652075E+01  0.00000000000E+00 0.  1.
         -3    1    6    6    0  502 -0.17302494732E+02  0.68623187700E+02  0.28299321650E+02  0.76219222116E+02  0.00000000000E+00 0.  1.
<mgrwt>
<rscale>  0 0.11071380E+04</rscale>
<asrwt>0</asrwt>
<pdfrwt beam="1">  1        2 0.21867041E+00 0.11071380E+04</pdfrwt>
<pdfrwt beam="2">  1       -2 0.33168572E-01 0.11071380E+04</pdfrwt>
<totfact> 0.11840875E+02</totfact>
</mgrwt>
</event>
<event>
12    1  0.1556559E-007  0.1570558E+04  0.7818608E-02  0.8838842E-01
          2   -1    0    0  501    0  0.00000000000E+00  0.00000000000E+00  0.23635777033E+04  0.23635777033E+04  0.00000000000E+00 0. -1.
         -2   -1    0    0    0  501 -0.00000000000E+00 -0.00000000000E+00 -0.26090230967E+03  0.26090230967E+03  0.00000000000E+00 0.  1.
         23    2    1    2    0    0  0.67923618481E+02 -0.18303831499E+03  0.14974749733E+04  0.15129176788E+04  0.91498439410E+02 0.  0.
        254    2    1    2    0    0 -0.67923618481E+02  0.18303831499E+03  0.60520042031E+03  0.11115623342E+04  0.91169437385E+03 0.  0.
        -24    2    4    4    0    0  0.70216802801E+02  0.32822757769E+02 -0.22566238463E+03  0.25264574041E+03  0.83057964641E+02 0.  0.
         24    2    4    4    0    0 -0.13814042128E+03  0.15021555722E+03  0.83086280493E+03  0.85891659375E+03  0.75876378293E+02 0.  0.
         11    1    3    3    0    0  0.38411527286E+02 -0.17579685871E+03  0.13752231488E+04  0.13869458136E+04  0.00000000000E+00 0. -1.
        -11    1    3    3    0    0  0.29512091196E+02 -0.72414562714E+01  0.12225182453E+03  0.12597186518E+03  0.00000000000E+00 0.  1.
          2    1    6    6  502    0 -0.53684929701E+02  0.18378365975E+02  0.30528180927E+03  0.31051057805E+03  0.00000000000E+00 0. -1.
          1    1    5    5  503    0  0.34587602932E+02  0.54964441216E+02 -0.92413257873E+02  0.11294955646E+03  0.00000000000E+00 0. -1.
         -2    1    5    5    0  503  0.35629199869E+02 -0.22141683447E+02 -0.13324912675E+03  0.13969618395E+03  0.00000000000E+00 0.  1.
         -1    1    6    6    0  502 -0.84455491581E+02  0.13183719124E+03  0.52558099567E+03  0.54840601570E+03  0.00000000000E+00 0.  1.
<mgrwt>
<rscale>  0 0.15705577E+04</rscale>
<asrwt>0</asrwt>
<pdfrwt beam="1">  1        2 0.36362733E+00 0.15705577E+04</pdfrwt>
<pdfrwt beam="2">  1       -2 0.40138818E-01 0.15705577E+04</pdfrwt>
<totfact> 0.23584561E+01</totfact>
</mgrwt>
</event>
<event>
12    1  0.1556559E-007  0.4943659E+04  0.7818608E-02  0.7837258E-01
          2   -1    0    0  501    0  0.00000000000E+00  0.00000000000E+00  0.26249145238E+04  0.26249145238E+04  0.00000000000E+00 0. -1.
         -2   -1    0    0    0  501 -0.00000000000E+00 -0.00000000000E+00 -0.23276721483E+04  0.23276721483E+04  0.00000000000E+00 0.  1.
         23    2    1    2    0    0 -0.95761316554E+03 -0.15074113340E+04  0.17379741664E+04  0.24938062124E+04  0.95933920499E+02 0.  0.
        254    2    1    2    0    0  0.95761316554E+03  0.15074113340E+04 -0.14407317909E+04  0.24587804597E+04  0.88350515058E+03 0.  0.
        -24    2    4    4    0    0  0.96945519260E+03  0.15721068112E+04 -0.12201568058E+04  0.22151521286E+04  0.82177403939E+02 0.  0.
         24    2    4    4    0    0 -0.11842027053E+02 -0.64695477222E+02 -0.22057498510E+03  0.24362833113E+03  0.79847988692E+02 0.  0.
         13    1    3    3    0    0 -0.69538398849E+02 -0.76392659994E+02  0.82273307920E+02  0.13206182117E+03  0.00000000000E+00 0.  1.
        -13    1    3    3    0    0 -0.88807476669E+03 -0.14310186740E+04  0.16557008584E+04  0.23617443912E+04  0.00000000000E+00 0. -1.
          2    1    6    6  502    0  0.13164335342E+02  0.28819158561E+01 -0.21771096588E+01  0.13650823069E+02  0.00000000000E+00 0. -1.
          3    1    5    5  503    0  0.57359056077E+02  0.99378088424E+02 -0.53324471162E+02  0.12652890973E+03  0.00000000000E+00 0. -1.
         -4    1    5    5    0  503  0.91209613652E+03  0.14727287228E+04 -0.11668323346E+04  0.20886232188E+04  0.00000000000E+00 0.  1.
         -1    1    6    6    0  502 -0.25006362394E+02 -0.67577393078E+02 -0.21839787544E+03  0.22997750806E+03  0.00000000000E+00 0.  1.
<mgrwt>
<rscale>  0 0.49436587E+04</rscale>
<asrwt>0</asrwt>
<pdfrwt beam="1">  1        2 0.40383300E+00 0.49436587E+04</pdfrwt>
<pdfrwt beam="2">  1       -2 0.35810341E+00 0.49436587E+04</pdfrwt>
<totfact> 0.29749627E-02</totfact>
</mgrwt>
</event>
<event>
12    1  0.1556559E-007  0.1884964E+04  0.7818608E-02  0.8662377E-01
         -1   -1    0    0    0  501 -0.00000000000E+00  0.00000000000E+00  0.12741083389E+04  0.12741083389E+04  0.00000000000E+00 0.  1.
          1   -1    0    0  501    0  0.00000000000E+00 -0.00000000000E+00 -0.69717174139E+03  0.69717174139E+03  0.00000000000E+00 0. -1.
         23    2    1    2    0    0  0.40639493487E+03 -0.58656747028E+03  0.93041306410E+02  0.72542732221E+03  0.91487020010E+02 0.  0.
        254    2    1    2    0    0 -0.40639493487E+03  0.58656747028E+03  0.48389529109E+03  0.12458527581E+04  0.89931985511E+03 0.  0.
        -24    2    4    4    0    0 -0.30610040751E+02  0.35887532536E+03 -0.20786550076E+03  0.42243716161E+03  0.74273921088E+02 0.  0.
         24    2    4    4    0    0 -0.37578489412E+03  0.22769214492E+03  0.69176079185E+03  0.82341559647E+03  0.80138953442E+02 0.  0.
         11    1    3    3    0    0  0.40465840875E+03 -0.57312261529E+03  0.79176087632E+02  0.70603598547E+03  0.00000000000E+00 0. -1.
        -11    1    3    3    0    0  0.17365261200E+01 -0.13444854989E+02  0.13865218778E+02  0.19391336736E+02  0.00000000000E+00 0.  1.
          4    1    6    6  502    0 -0.33299615361E+01  0.15944950029E+02  0.13430994262E+02  0.21112121687E+02  0.00000000000E+00 0. -1.
          1    1    5    5  503    0 -0.33845335979E+02  0.21519338219E+03 -0.16235480023E+03  0.27168507442E+03  0.00000000000E+00 0. -1.
         -2    1    5    5    0  503  0.32352952274E+01  0.14368194317E+03 -0.45510700535E+02  0.15075208719E+03  0.00000000000E+00 0.  1.
         -3    1    6    6    0  502 -0.37245493258E+03  0.21174719489E+03  0.67832979759E+03  0.80230347478E+03  0.00000000000E+00 0.  1.
<mgrwt>
<rscale>  0 0.18849640E+04</rscale>
<asrwt>0</asrwt>
<pdfrwt beam="1">  1        1 0.10725719E+00 0.18849640E+04</pdfrwt>
<pdfrwt beam="2">  1       -1 0.19601667E+00 0.18849640E+04</pdfrwt>
<totfact> 0.41180792E+00</totfact>
</mgrwt>
</event>
<event>
12    1  0.1556559E-007  0.2064072E+04  0.7818608E-02  0.8577237E-01
          1   -1    0    0  501    0  0.00000000000E+00  0.00000000000E+00  0.25105629215E+04  0.25105629215E+04  0.00000000000E+00 0. -1.
         -1   -1    0    0    0  501 -0.00000000000E+00 -0.00000000000E+00 -0.42424673567E+03  0.42424673567E+03  0.00000000000E+00 0.  1.
         23    2    1    2    0    0  0.27642163610E+03 -0.24344849992E+03  0.19141047769E+04  0.19513504933E+04  0.91079953985E+02 0.  0.
        254    2    1    2    0    0 -0.27642163610E+03  0.24344849992E+03  0.17221140894E+03  0.98345916380E+03  0.89546583658E+03 0.  0.
        -24    2    4    4    0    0 -0.39023813637E+03 -0.23741471513E+03  0.38009337061E+02  0.46492934010E+03  0.77865470792E+02 0.  0.
         24    2    4    4    0    0  0.11381650027E+03  0.48086321506E+03  0.13420207188E+03  0.51852982370E+03  0.81727318847E+02 0.  0.
         13    1    3    3    0    0  0.19296627800E+03 -0.19195955916E+03  0.11959679440E+04  0.12265495424E+04  0.00000000000E+00 0. -1.
        -13    1    3    3    0    0  0.83455358098E+02 -0.51488940764E+02  0.71813683287E+03  0.72480095098E+03  0.00000000000E+00 0.  1.
          4    1    6    6  502    0  0.44304707450E+02  0.14254526265E+03  0.78589320802E+02  0.16869599981E+03  0.00000000000E+00 0. -1.
          3    1    5    5  503    0 -0.57819920630E+01 -0.75934704479E+01  0.13256486179E+02  0.16334829398E+02  0.00000000000E+00 0. -1.
         -4    1    5    5    0  503 -0.38445614431E+03 -0.22982124468E+03  0.24752850882E+02  0.44859451070E+03  0.00000000000E+00 0.  1.
         -3    1    6    6    0  502  0.69511792820E+02  0.33831795240E+03  0.55612751077E+02  0.34983382390E+03  0.00000000000E+00 0.  1.
<mgrwt>
<rscale>  0 0.20640718E+04</rscale>
<asrwt>0</asrwt>
<pdfrwt beam="1">  1        1 0.38624044E+00 0.20640718E+04</pdfrwt>
<pdfrwt beam="2">  1       -1 0.65268730E-01 0.20640718E+04</pdfrwt>
<totfact> 0.29254093E+00</totfact>
</mgrwt>
</event>
<event>
12    1  0.1556559E-007  0.1847006E+04  0.7818608E-02  0.8681694E-01
         -1   -1    0    0    0  501 -0.00000000000E+00  0.00000000000E+00  0.13726174012E+04  0.13726174012E+04  0.00000000000E+00 0.  1.
          1   -1    0    0  501    0  0.00000000000E+00 -0.00000000000E+00 -0.62133693239E+03  0.62133693239E+03  0.00000000000E+00 0. -1.
         23    2    1    2    0    0 -0.25827169237E+03  0.13508655516E+03  0.97813837397E+03  0.10247864848E+04  0.92087004480E+02 0.  0.
        254    2    1    2    0    0  0.25827169237E+03 -0.13508655516E+03 -0.22685790515E+03  0.96916784878E+03  0.89602966776E+03 0.  0.
        -24    2    4    4    0    0  0.17075671386E+03  0.25073844902E+00 -0.55986435084E+03  0.59092952628E+03  0.81189257224E+02 0.  0.
         24    2    4    4    0    0  0.87514978515E+02 -0.13533729361E+03  0.33300644569E+03  0.37823832250E+03  0.78713920200E+02 0.  0.
         13    1    3    3    0    0 -0.88712606571E+00 -0.61711078314E+01  0.72017011211E+02  0.72286371248E+02  0.00000000000E+00 0. -1.
        -13    1    3    3    0    0 -0.25738456631E+03  0.14125766299E+03  0.90612136276E+03  0.95250011359E+03  0.00000000000E+00 0.  1.
          4    1    6    6  502    0 -0.40320224920E+01 -0.55488824584E+02  0.78368698948E+02  0.96108895706E+02  0.00000000000E+00 0. -1.
          3    1    5    5  503    0  0.36822313956E+02  0.12537677231E+01 -0.25888572487E+03  0.26149430832E+03  0.00000000000E+00 0. -1.
         -4    1    5    5    0  503  0.13393439990E+03 -0.10030292740E+01 -0.30097862596E+03  0.32943521796E+03  0.00000000000E+00 0.  1.
         -3    1    6    6    0  502  0.91547001007E+02 -0.79848469024E+02  0.25463774674E+03  0.28212942679E+03  0.00000000000E+00 0.  1.
<mgrwt>
<rscale>  0 0.18470061E+04</rscale>
<asrwt>0</asrwt>
<pdfrwt beam="1">  1        1 0.95590298E-01 0.18470061E+04</pdfrwt>
<pdfrwt beam="2">  1       -1 0.21117191E+00 0.18470061E+04</pdfrwt>
<totfact> 0.38607037E+00</totfact>
</mgrwt>
</event>
<event>
12    1  0.1556559E-007  0.1183243E+04  0.7818608E-02  0.9127651E-01
          3   -1    0    0  501    0  0.00000000000E+00  0.00000000000E+00  0.18046112971E+03  0.18046112971E+03  0.00000000000E+00 0. -1.
         -3   -1    0    0    0  501 -0.00000000000E+00 -0.00000000000E+00 -0.19395650401E+04  0.19395650401E+04  0.00000000000E+00 0.  1.
         23    2    1    2    0    0 -0.12380818079E+03 -0.15441565105E+03 -0.44883823607E+03  0.49875491362E+03  0.90155658614E+02 0.  0.
        254    2    1    2    0    0  0.12380818079E+03  0.15441565105E+03 -0.13102656743E+04  0.16212712562E+04  0.93410475321E+03 0.  0.
        -24    2    4    4    0    0 -0.26113939048E+03  0.19053769047E+03 -0.10044012128E+03  0.34871925660E+03  0.83776543345E+02 0.  0.
         24    2    4    4    0    0  0.38494757127E+03 -0.36122039422E+02 -0.12098255530E+04  0.12725519996E+04  0.78875145283E+02 0.  0.
         11    1    3    3    0    0 -0.39384702284E+02 -0.22505694621E+02 -0.38332606622E+02  0.59388970313E+02  0.00000000000E+00 0. -1.
        -11    1    3    3    0    0 -0.84423478510E+02 -0.13190995642E+03 -0.41050562945E+03  0.43936594330E+03  0.00000000000E+00 0.  1.
          4    1    6    6  502    0  0.34623560994E+03 -0.39733163955E+02 -0.11459639988E+04  0.11977860028E+04  0.00000000000E+00 0. -1.
          1    1    5    5  503    0 -0.19708304797E+03  0.17662681524E+03 -0.58924580185E+02  0.27112887306E+03  0.00000000000E+00 0. -1.
         -2    1    5    5    0  503 -0.64056342508E+02  0.13910875227E+02 -0.41515541098E+02  0.77590383539E+02  0.00000000000E+00 0.  1.
         -3    1    6    6    0  502  0.38711961327E+02  0.36111245329E+01 -0.63861554200E+02  0.74765996783E+02  0.00000000000E+00 0.  1.
<mgrwt>
<rscale>  0 0.11832432E+04</rscale>
<asrwt>0</asrwt>
<pdfrwt beam="1">  1        3 0.27763253E-01 0.11832432E+04</pdfrwt>
<pdfrwt beam="2">  1       -3 0.29839460E+00 0.11832432E+04</pdfrwt>
<totfact> 0.12737474E+00</totfact>
</mgrwt>
</event>
<event>
12    1  0.1556559E-007  0.1360081E+04  0.7818608E-02  0.8983232E-01
          2   -1    0    0  501    0  0.00000000000E+00  0.00000000000E+00  0.21224975331E+04  0.21224975331E+04  0.00000000000E+00 0. -1.
         -2   -1    0    0    0  501 -0.00000000000E+00 -0.00000000000E+00 -0.21788254008E+03  0.21788254008E+03  0.00000000000E+00 0.  1.
         23    2    1    2    0    0 -0.14945957439E+01 -0.15007477101E+03 -0.44194869007E+02  0.17710941691E+03  0.83005351645E+02 0.  0.
        254    2    1    2    0    0  0.14945957439E+01  0.15007477101E+03  0.19488098621E+04  0.21632706563E+04  0.92701423033E+03 0.  0.
        -24    2    4    4    0    0  0.28031467350E+03  0.16313219625E+03  0.18118869477E+04  0.18423979773E+04  0.79420186787E+02 0.  0.
         24    2    4    4    0    0 -0.27882007775E+03 -0.13057425246E+02  0.13692291440E+03  0.32087267899E+03  0.79374174145E+02 0.  0.
         13    1    3    3    0    0 -0.33886035269E+02 -0.10617204100E+03 -0.50178086630E+02  0.12222359042E+03  0.00000000000E+00 0.  1.
        -13    1    3    3    0    0  0.32391439525E+02 -0.43902730007E+02  0.59832176230E+01  0.54885826492E+02  0.00000000000E+00 0. -1.
          2    1    6    6  502    0 -0.27720142621E+03 -0.15428747680E+02  0.14434661530E+03  0.31291312260E+03  0.00000000000E+00 0. -1.
          3    1    5    5  503    0  0.24022210372E+03  0.11929964687E+03  0.16007005110E+04  0.16230160784E+04  0.00000000000E+00 0. -1.
         -4    1    5    5    0  503  0.40092569781E+02  0.43832549383E+02  0.21118643665E+03  0.21938189889E+03  0.00000000000E+00 0.  1.
         -3    1    6    6    0  502 -0.16186515447E+01  0.23713224342E+01 -0.74237008971E+01  0.79595563896E+01  0.00000000000E+00 0.  1.
<mgrwt>
<rscale>  0 0.13600811E+04</rscale>
<asrwt>0</asrwt>
<pdfrwt beam="1">  1        2 0.32653807E+00 0.13600811E+04</pdfrwt>
<pdfrwt beam="2">  1       -2 0.33520392E-01 0.13600811E+04</pdfrwt>
<totfact> 0.46410587E+01</totfact>
</mgrwt>
</event>
<event>
12    1  0.1556559E-007  0.1534306E+04  0.7818608E-02  0.8861955E-01
          2   -1    0    0  501    0  0.00000000000E+00  0.00000000000E+00  0.17360143492E+04  0.17360143492E+04  0.00000000000E+00 0. -1.
         -2   -1    0    0    0  501 -0.00000000000E+00 -0.00000000000E+00 -0.33900872586E+03  0.33900872586E+03  0.00000000000E+00 0.  1.
         23    2    1    2    0    0 -0.87043871908E+02 -0.10301531619E+03 -0.19245710074E+03  0.25172592387E+03  0.90207616731E+02 0.  0.
        254    2    1    2    0    0  0.87043871908E+02  0.10301531619E+03  0.15894627241E+04  0.18232971512E+04  0.88308094722E+03 0.  0.
        -24    2    4    4    0    0  0.37353497127E+03  0.48391885309E+01  0.14137522012E+04  0.14644262277E+04  0.79354253353E+02 0.  0.
         24    2    4    4    0    0 -0.28649109936E+03  0.98176127656E+02  0.17571052286E+03  0.35887092347E+03  0.78730234405E+02 0.  0.
         11    1    3    3    0    0 -0.10002878222E+03 -0.75991666537E+02 -0.12181100198E+03  0.17498117286E+03  0.00000000000E+00 0. -1.
        -11    1    3    3    0    0  0.12984910308E+02 -0.27023649651E+02 -0.70646098761E+02  0.76744751002E+02  0.00000000000E+00 0.  1.
          4    1    6    6  502    0 -0.28608919534E+03  0.95690294209E+02  0.15716199608E+03  0.34015224989E+03  0.00000000000E+00 0. -1.
          1    1    5    5  503    0  0.32410185708E+03  0.22816734916E+02  0.11274093339E+04  0.11732921304E+04  0.00000000000E+00 0. -1.
         -2    1    5    5    0  503  0.49433114194E+02 -0.17977546385E+02  0.28634286734E+03  0.29113409733E+03  0.00000000000E+00 0.  1.
         -3    1    6    6    0  502 -0.40190402844E+00  0.24858334468E+01  0.18548526778E+02  0.18718673575E+02  0.00000000000E+00 0.  1.
<mgrwt>
<rscale>  0 0.15343064E+04</rscale>
<asrwt>0</asrwt>
<pdfrwt beam="1">  1        2 0.26707913E+00 0.15343064E+04</pdfrwt>
<pdfrwt beam="2">  1       -2 0.52155190E-01 0.15343064E+04</pdfrwt>
<totfact> 0.31316788E+01</totfact>
</mgrwt>
</event>
<event>
12    1  0.1556559E-007  0.1101845E+04  0.7818608E-02  0.9203396E-01
          1   -1    0    0  501    0  0.00000000000E+00  0.00000000000E+00  0.73196651159E+03  0.73196651159E+03  0.00000000000E+00 0. -1.
         -1   -1    0    0    0  501 -0.00000000000E+00 -0.00000000000E+00 -0.41465745713E+03  0.41465745713E+03  0.00000000000E+00 0.  1.
         23    2    1    2    0    0 -0.82942630809E+02 -0.96477813384E+02 -0.15506712382E+02  0.15539082453E+03  0.87854434941E+02 0.  0.
        254    2    1    2    0    0  0.82942630809E+02  0.96477813384E+02  0.33281576684E+03  0.99123314419E+03  0.92498073655E+03 0.  0.
        -24    2    4    4    0    0 -0.27448826093E+03 -0.25740434630E+03  0.28763047264E+03  0.48014897124E+03  0.78809535663E+02 0.  0.
         24    2    4    4    0    0  0.35743089174E+03  0.35388215969E+03  0.45185294204E+02  0.51108417294E+03  0.78586867268E+02 0.  0.
         13    1    3    3    0    0  0.14249559223E+02 -0.18164991620E+02  0.14177591045E+02  0.27092820939E+02  0.00000000000E+00 0. -1.
        -13    1    3    3    0    0 -0.97192190032E+02 -0.78312821764E+02 -0.29684303427E+02  0.12829800359E+03  0.00000000000E+00 0.  1.
          4    1    6    6  502    0  0.32138776391E+03  0.34326416225E+03  0.51266198712E+02  0.47302072154E+03  0.00000000000E+00 0. -1.
          1    1    5    5  503    0 -0.24112625235E+03 -0.24326722624E+03  0.23177520201E+03  0.41357049847E+03  0.00000000000E+00 0. -1.
         -2    1    5    5    0  503 -0.33362008579E+02 -0.14137120061E+02  0.55855270630E+02  0.66578472776E+02  0.00000000000E+00 0.  1.
         -3    1    6    6    0  502  0.36043127826E+02  0.10617997441E+02 -0.60809045078E+01  0.38063451403E+02  0.00000000000E+00 0.  1.
<mgrwt>
<rscale>  0 0.11018446E+04</rscale>
<asrwt>0</asrwt>
<pdfrwt beam="1">  1        1 0.11261023E+00 0.11018446E+04</pdfrwt>
<pdfrwt beam="2">  1       -1 0.63793455E-01 0.11018446E+04</pdfrwt>
<totfact> 0.63175872E+01</totfact>
</mgrwt>
</event>
<event>
12    1  0.1556559E-007  0.1354211E+04  0.7818608E-02  0.8987646E-01
          2   -1    0    0  501    0  0.00000000000E+00  0.00000000000E+00  0.85210243108E+03  0.85210243108E+03  0.00000000000E+00 0. -1.
         -2   -1    0    0    0  501 -0.00000000000E+00 -0.00000000000E+00 -0.53804787621E+03  0.53804787621E+03  0.00000000000E+00 0.  1.
         23    2    1    2    0    0 -0.65470026902E+02 -0.16623340887E+03  0.41659926730E+03  0.46209647707E+03  0.89768223548E+02 0.  0.
        254    2    1    2    0    0  0.65470026902E+02  0.16623340887E+03 -0.10254471242E+03  0.92805383023E+03  0.90490254896E+03 0.  0.
        -24    2    4    4    0    0  0.36508192682E+03  0.23748935796E+03  0.20246594601E+03  0.48752015803E+03  0.83650682943E+02 0.  0.
         24    2    4    4    0    0 -0.29961189991E+03 -0.71255949088E+02 -0.30501065843E+03  0.44053367220E+03  0.78700150815E+02 0.  0.
         11    1    3    3    0    0 -0.31474170557E+02 -0.34515221734E+02  0.20712501214E+03  0.21232685793E+03  0.00000000000E+00 0. -1.
        -11    1    3    3    0    0 -0.33995856345E+02 -0.13171818714E+03  0.20947425515E+03  0.24976961914E+03  0.00000000000E+00 0.  1.
          4    1    6    6  502    0 -0.66910366041E+02 -0.44339727722E+02 -0.51526347950E+02  0.95383295557E+02  0.00000000000E+00 0. -1.
          3    1    5    5  503    0  0.25084971257E+02  0.16150525550E+02  0.41380983616E+02  0.51014518165E+02  0.00000000000E+00 0. -1.
         -4    1    5    5    0  503  0.33999695556E+03  0.22133883241E+03  0.16108496239E+03  0.43650563986E+03  0.00000000000E+00 0.  1.
         -3    1    6    6    0  502 -0.23270153387E+03 -0.26916221366E+02 -0.25348431048E+03  0.34515037665E+03  0.00000000000E+00 0.  1.
<mgrwt>
<rscale>  0 0.13542111E+04</rscale>
<asrwt>0</asrwt>
<pdfrwt beam="1">  1        2 0.13109268E+00 0.13542111E+04</pdfrwt>
<pdfrwt beam="2">  1       -2 0.82776597E-01 0.13542111E+04</pdfrwt>
<totfact> 0.39542372E+01</totfact>
</mgrwt>
</event>
<event>
12    1  0.1556559E-007  0.1699216E+04  0.7818608E-02  0.8761812E-01
          2   -1    0    0  501    0  0.00000000000E+00  0.00000000000E+00  0.69432562565E+03  0.69432562565E+03  0.00000000000E+00 0. -1.
         -2   -1    0    0    0  501 -0.00000000000E+00 -0.00000000000E+00 -0.10396184948E+04  0.10396184948E+04  0.00000000000E+00 0.  1.
         23    2    1    2    0    0  0.46949820294E+02 -0.21450873412E+02 -0.76481578754E+03  0.77158694721E+03  0.87970464603E+02 0.  0.
        254    2    1    2    0    0 -0.46949820294E+02  0.21450873412E+02  0.41952291840E+03  0.96235717323E+03  0.86456198402E+03 0.  0.
        -24    2    4    4    0    0  0.19207984159E+03 -0.18567439129E+03  0.54599233504E+03  0.61300037294E+03  0.79323276333E+02 0.  0.
         24    2    4    4    0    0 -0.23902966188E+03  0.20712526470E+03 -0.12646941664E+03  0.34935680029E+03  0.77586120078E+02 0.  0.
         11    1    3    3    0    0  0.24659736546E+02 -0.29349539748E+02 -0.11267349401E+03  0.11901602557E+03  0.00000000000E+00 0. -1.
        -11    1    3    3    0    0  0.22290083748E+02  0.78986663359E+01 -0.65214229353E+03  0.65257092164E+03  0.00000000000E+00 0.  1.
          4    1    6    6  502    0 -0.16088217819E+03  0.12341697925E+03 -0.42038081076E+02  0.20707975827E+03  0.00000000000E+00 0. -1.
          1    1    5    5  503    0  0.18951898763E+03 -0.15957068480E+03  0.45233349783E+03  0.51573815389E+03  0.00000000000E+00 0. -1.
         -2    1    5    5    0  503  0.25608539585E+01 -0.26103706492E+02  0.93658837210E+02  0.97262219043E+02  0.00000000000E+00 0.  1.
         -3    1    6    6    0  502 -0.78147483694E+02  0.83708285456E+02 -0.84431335565E+02  0.14227704202E+03  0.00000000000E+00 0.  1.
<mgrwt>
<rscale>  0 0.16992160E+04</rscale>
<asrwt>0</asrwt>
<pdfrwt beam="1">  1        2 0.10681933E+00 0.16992160E+04</pdfrwt>
<pdfrwt beam="2">  1       -2 0.15994131E+00 0.16992160E+04</pdfrwt>
<totfact> 0.99265630E+00</totfact>
</mgrwt>
</event>
<event>
12    1  0.1556559E-007  0.2312925E+04  0.7818608E-02  0.8472842E-01
         -2   -1    0    0    0  501 -0.00000000000E+00  0.00000000000E+00  0.44283817390E+03  0.44283817390E+03  0.00000000000E+00 0.  1.
          2   -1    0    0  501    0  0.00000000000E+00 -0.00000000000E+00 -0.30200778766E+04  0.30200778766E+04  0.00000000000E+00 0. -1.
         23    2    1    2    0    0 -0.69941243986E+03  0.20744272684E+03 -0.11578304813E+03  0.74431171423E+03  0.91564009101E+02 0.  0.
        254    2    1    2    0    0  0.69941243986E+03 -0.20744272684E+03 -0.24614566545E+04  0.27186043362E+04  0.89433239283E+03 0.  0.
        -24    2    4    4    0    0  0.23208565609E+03  0.34491813590E+03 -0.82897585908E+03  0.93112958875E+03  0.83480919229E+02 0.  0.
         24    2    4    4    0    0  0.46732678377E+03 -0.55236086274E+03 -0.16324807955E+04  0.17874747475E+04  0.81089949040E+02 0.  0.
         13    1    3    3    0    0 -0.11289322039E+03 -0.69583975485E+00 -0.17587116667E+02  0.11425703512E+03  0.00000000000E+00 0. -1.
        -13    1    3    3    0    0 -0.58651921947E+03  0.20813856659E+03 -0.98195931466E+02  0.63005467911E+03  0.00000000000E+00 0.  1.
          4    1    6    6  502    0  0.41922724394E+03 -0.49681599361E+03 -0.15193838503E+04  0.16526054877E+04  0.00000000000E+00 0. -1.
          1    1    5    5  503    0  0.23934035284E+03  0.33595700960E+03 -0.80557072944E+03  0.90503873781E+03  0.00000000000E+00 0. -1.
         -2    1    5    5    0  503 -0.72546967554E+01  0.89611263020E+01 -0.23405129636E+02  0.26090850942E+02  0.00000000000E+00 0.  1.
         -3    1    6    6    0  502  0.48099539834E+02 -0.55544869131E+02 -0.11309694516E+03  0.13486925974E+03  0.00000000000E+00 0.  1.
<mgrwt>
<rscale>  0 0.23129252E+04</rscale>
<asrwt>0</asrwt>
<pdfrwt beam="1">  1        2 0.46462737E+00 0.23129252E+04</pdfrwt>
<pdfrwt beam="2">  1       -2 0.68128950E-01 0.23129252E+04</pdfrwt>
<totfact> 0.30230809E+00</totfact>
</mgrwt>
</event>
<event>
12    1  0.1556559E-007  0.1623294E+04  0.7818608E-02  0.8806364E-01
          1   -1    0    0  501    0  0.00000000000E+00  0.00000000000E+00  0.18150930809E+04  0.18150930809E+04  0.00000000000E+00 0. -1.
         -1   -1    0    0    0  501 -0.00000000000E+00 -0.00000000000E+00 -0.36294074687E+03  0.36294074687E+03  0.00000000000E+00 0.  1.
         23    2    1    2    0    0 -0.19217321070E+03  0.15001687778E+03  0.11731515933E+04  0.12016800045E+04  0.91184240683E+02 0.  0.
        254    2    1    2    0    0  0.19217321070E+03 -0.15001687778E+03  0.27900074068E+03  0.97635382325E+03  0.90332151991E+03 0.  0.
        -24    2    4    4    0    0  0.35321587934E+03 -0.32260558395E+03  0.46078064942E+03  0.66917735569E+03  0.81508933730E+02 0.  0.
         24    2    4    4    0    0 -0.16104266864E+03  0.17258870617E+03 -0.18177990874E+03  0.30717646756E+03  0.74778635866E+02 0.  0.
         11    1    3    3    0    0 -0.17456161007E+03  0.14068768863E+03  0.11474964342E+04  0.11691932467E+04  0.00000000000E+00 0. -1.
        -11    1    3    3    0    0 -0.17611600627E+02  0.93291891495E+01  0.25655159088E+02  0.32486757836E+02  0.00000000000E+00 0.  1.
          2    1    6    6  502    0 -0.21161586517E+02 -0.51991874872E+00 -0.23564841361E+01  0.21298734162E+02  0.00000000000E+00 0. -1.
          1    1    5    5  503    0  0.62080446484E+02 -0.22705856905E+02  0.79860374643E+02  0.10366878610E+03  0.00000000000E+00 0. -1.
         -2    1    5    5    0  503  0.29113543286E+03 -0.29989972704E+03  0.38092027478E+03  0.56550856959E+03  0.00000000000E+00 0.  1.
         -1    1    6    6    0  502 -0.13988108212E+03  0.17310862492E+03 -0.17942342460E+03  0.28587773340E+03  0.00000000000E+00 0.  1.
<mgrwt>
<rscale>  0 0.16232945E+04</rscale>
<asrwt>0</asrwt>
<pdfrwt beam="1">  1        1 0.27924509E+00 0.16232945E+04</pdfrwt>
<pdfrwt beam="2">  1       -1 0.55837039E-01 0.16232945E+04</pdfrwt>
<totfact> 0.12363900E+01</totfact>
</mgrwt>
</event>
<event>
12    1  0.1556559E-007  0.1802012E+04  0.7818608E-02  0.8705230E-01
         -2   -1    0    0    0  501 -0.00000000000E+00  0.00000000000E+00  0.60892471861E+03  0.60892471861E+03  0.00000000000E+00 0.  1.
          2   -1    0    0  501    0  0.00000000000E+00 -0.00000000000E+00 -0.13331887970E+04  0.13331887970E+04  0.00000000000E+00 0. -1.
         23    2    1    2    0    0 -0.35948333777E+03  0.17821469302E+03 -0.84911362612E+03  0.94368711988E+03  0.92534767593E+02 0.  0.
        254    2    1    2    0    0  0.35948333777E+03 -0.17821469302E+03  0.12484954776E+03  0.99842639569E+03  0.90569261402E+03 0.  0.
        -24    2    4    4    0    0  0.55941551845E+03  0.16207437303E+03  0.82938558403E+02  0.59406655114E+03  0.82598051035E+02 0.  0.
         24    2    4    4    0    0 -0.19993218068E+03 -0.34028906605E+03  0.41910989362E+02  0.40435984455E+03  0.77335810024E+02 0.  0.
         11    1    3    3    0    0 -0.13120717042E+03  0.67447891345E+02 -0.42017841230E+03  0.44532509224E+03  0.00000000000E+00 0. -1.
        -11    1    3    3    0    0 -0.22827616735E+03  0.11076680168E+03 -0.42893521382E+03  0.49836202764E+03  0.00000000000E+00 0.  1.
          4    1    6    6  502    0 -0.19038465158E+03 -0.29383966015E+03  0.16392841507E+02  0.35050932468E+03  0.00000000000E+00 0. -1.
          3    1    5    5  503    0  0.52788042767E+03  0.13109867682E+03  0.73408763616E+02  0.54884738823E+03  0.00000000000E+00 0. -1.
         -2    1    5    5    0  503  0.31535090776E+02  0.30975696208E+02  0.95297947875E+01  0.45219162912E+02  0.00000000000E+00 0.  1.
         -3    1    6    6    0  502 -0.95475290931E+01 -0.46449405901E+02  0.25518147854E+02  0.53850519870E+02  0.00000000000E+00 0.  1.
<mgrwt>
<rscale>  0 0.18020118E+04</rscale>
<asrwt>0</asrwt>
<pdfrwt beam="1">  1        2 0.20510597E+00 0.18020118E+04</pdfrwt>
<pdfrwt beam="2">  1       -2 0.93680726E-01 0.18020118E+04</pdfrwt>
<totfact> 0.14374374E+01</totfact>
</mgrwt>
</event>
<event>
12    1  0.1556559E-007  0.1694857E+04  0.7818608E-02  0.8764303E-01
          2   -1    0    0  501    0  0.00000000000E+00  0.00000000000E+00  0.70087804577E+03  0.70087804577E+03  0.00000000000E+00 0. -1.
         -2   -1    0    0    0  501 -0.00000000000E+00 -0.00000000000E+00 -0.10246215085E+04  0.10246215085E+04  0.00000000000E+00 0.  1.
         23    2    1    2    0    0 -0.35235942931E+03  0.48219372988E+03 -0.28333729661E+02  0.60521690655E+03  0.93897514204E+02 0.  0.
        254    2    1    2    0    0  0.35235942931E+03 -0.48219372988E+03 -0.29540973308E+03  0.11202826477E+04  0.90060998208E+03 0.  0.
        -24    2    4    4    0    0  0.35504770885E+03 -0.23385608902E+03  0.26130680065E+03  0.50541234419E+03  0.80080257643E+02 0.  0.
         24    2    4    4    0    0 -0.26882795352E+01 -0.24833764086E+03 -0.55671653373E+03  0.61487030353E+03  0.80332935428E+02 0.  0.
         13    1    3    3    0    0 -0.15963980993E+03  0.20909998372E+03  0.33825599274E+02  0.26523921896E+03  0.00000000000E+00 0. -1.
        -13    1    3    3    0    0 -0.19271961938E+03  0.27309374616E+03 -0.62159328935E+02  0.33997768759E+03  0.00000000000E+00 0.  1.
          2    1    6    6  502    0  0.49701524297E+00 -0.24005104737E+03 -0.55641352021E+03  0.60598742383E+03  0.00000000000E+00 0. -1.
          3    1    5    5  503    0  0.34428902590E+03 -0.20872345289E+03  0.25722430569E+03  0.47777061084E+03  0.00000000000E+00 0. -1.
         -4    1    5    5    0  503  0.10758682948E+02 -0.25132636133E+02  0.40824949595E+01  0.27641733355E+02  0.00000000000E+00 0.  1.
         -3    1    6    6    0  502 -0.31852947782E+01 -0.82865934965E+01 -0.30301352400E+00  0.88828797018E+01  0.00000000000E+00 0.  1.
<mgrwt>
<rscale>  0 0.16948566E+04</rscale>
<asrwt>0</asrwt>
<pdfrwt beam="1">  1        2 0.10782739E+00 0.16948566E+04</pdfrwt>
<pdfrwt beam="2">  1       -2 0.15763408E+00 0.16948566E+04</pdfrwt>
<totfact> 0.10208074E+01</totfact>
</mgrwt>
</event>
<event>
12    1  0.1556559E-007  0.1579182E+04  0.7818608E-02  0.8833440E-01
          1   -1    0    0  501    0  0.00000000000E+00  0.00000000000E+00  0.99409819601E+03  0.99409819601E+03  0.00000000000E+00 0. -1.
         -1   -1    0    0    0  501 -0.00000000000E+00 -0.00000000000E+00 -0.62715551847E+03  0.62715551847E+03  0.00000000000E+00 0.  1.
         23    2    1    2    0    0  0.58351452886E+02 -0.21983852275E+03 -0.36578936825E+03  0.44077034533E+03  0.93502766032E+02 0.  0.
        254    2    1    2    0    0 -0.58351452886E+02  0.21983852275E+03  0.73273204579E+03  0.11804833692E+04  0.89716824831E+03 0.  0.
        -24    2    4    4    0    0 -0.94539067328E+02 -0.33903919281E+03  0.29080528194E+03  0.46354634089E+03  0.80139182890E+02 0.  0.
         24    2    4    4    0    0  0.36187614442E+02  0.55887771556E+03  0.44192676385E+03  0.71693702827E+03  0.71032341263E+02 0.  0.
         13    1    3    3    0    0  0.22930397557E+02 -0.11070309984E+03 -0.98689830025E+02  0.15006885752E+03  0.00000000000E+00 0. -1.
        -13    1    3    3    0    0  0.35421055328E+02 -0.10913542291E+03 -0.26709953823E+03  0.29070148781E+03  0.00000000000E+00 0.  1.
          2    1    6    6  502    0  0.16262118274E+00  0.41073251986E+03  0.34375938806E+03  0.53560409464E+03  0.00000000000E+00 0. -1.
          3    1    5    5  503    0 -0.56269666272E+02 -0.92765860890E+02  0.11782270722E+03  0.16016856941E+03  0.00000000000E+00 0. -1.
         -4    1    5    5    0  503 -0.38269401056E+02 -0.24627333192E+03  0.17298257471E+03  0.30337777148E+03  0.00000000000E+00 0.  1.
         -1    1    6    6    0  502  0.36024993259E+02  0.14814519570E+03  0.98167375790E+02  0.18133293362E+03  0.00000000000E+00 0.  1.
<mgrwt>
<rscale>  0 0.15791823E+04</rscale>
<asrwt>0</asrwt>
<pdfrwt beam="1">  1        1 0.15293818E+00 0.15791823E+04</pdfrwt>
<pdfrwt beam="2">  1       -1 0.96485464E-01 0.15791823E+04</pdfrwt>
<totfact> 0.15201775E+01</totfact>
</mgrwt>
</event>
<event>
12    1  0.1570999E-007  0.1398774E+04  0.7818608E-02  0.8954706E-01
         -2   -1    0    0    0  501 -0.00000000000E+00  0.00000000000E+00  0.29502945086E+03  0.29502945086E+03  0.00000000000E+00 0.  1.
          2   -1    0    0  501    0  0.00000000000E+00 -0.00000000000E+00 -0.16579436687E+04  0.16579436687E+04  0.00000000000E+00 0. -1.
         23    2    1    2    0    0 -0.23489497049E+03 -0.42802181006E+02  0.44793144834E+02  0.26124243023E+03  0.96091142511E+02 0.  0.
        254    2    1    2    0    0  0.23489497049E+03  0.42802181006E+02 -0.14077073627E+04  0.16917306893E+04  0.90736157755E+03 0.  0.
        -24    2    4    4    0    0  0.28135636242E+02  0.31166882127E+03 -0.12818600263E+04  0.13219152416E+04  0.79785404716E+02 0.  0.
         24    2    4    4    0    0  0.20675933425E+03 -0.26886664027E+03 -0.12584733640E+03  0.36981544774E+03  0.76728226615E+02 0.  0.
         13    1    3    3    0    0 -0.23608273986E+03 -0.53280588269E+02  0.31177175631E+02  0.24402028077E+03  0.00000000000E+00 0.  1.
        -13    1    3    3    0    0  0.11877693691E+01  0.10478407263E+02  0.13615969202E+02  0.17222149464E+02  0.00000000000E+00 0. -1.
          4    1    6    6  502    0  0.19171821538E+03 -0.26838988466E+03 -0.12947737727E+03  0.35433514575E+03  0.00000000000E+00 0. -1.
          1    1    5    5  503    0  0.13305877177E+02  0.30477037920E+03 -0.12399896252E+04  0.12769637039E+04  0.00000000000E+00 0. -1.
         -2    1    5    5    0  503  0.14829759065E+02  0.68984420715E+01 -0.41870401083E+02  0.44951537724E+02  0.00000000000E+00 0.  1.
         -3    1    6    6    0  502  0.15041118871E+02 -0.47675560818E+00  0.36300408631E+01  0.15480301983E+02  0.00000000000E+00 0.  1.
<mgrwt>
<rscale>  0 0.13987740E+04</rscale>
<asrwt>0</asrwt>
<pdfrwt beam="1">  1        2 0.25506826E+00 0.13987740E+04</pdfrwt>
<pdfrwt beam="2">  1       -2 0.45389147E-01 0.13987740E+04</pdfrwt>
<totfact> 0.46368925E+01</totfact>
</mgrwt>
</event>
<event>
12    1  0.1556559E-007  0.2342915E+04  0.7818608E-02  0.8461190E-01
          2   -1    0    0  501    0  0.00000000000E+00  0.00000000000E+00  0.74555828192E+03  0.74555828192E+03  0.00000000000E+00 0. -1.
         -2   -1    0    0    0  501 -0.00000000000E+00 -0.00000000000E+00 -0.18406506948E+04  0.18406506948E+04  0.00000000000E+00 0.  1.
         23    2    1    2    0    0  0.29924223944E+03  0.48721987400E+03  0.44084637165E+03  0.72678339081E+03  0.83303362887E+02 0.  0.
        254    2    1    2    0    0 -0.29924223944E+03 -0.48721987400E+03 -0.15359387846E+04  0.18594255859E+04  0.87830885016E+03 0.  0.
        -24    2    4    4    0    0  0.30347336036E+03 -0.12363212226E+03 -0.43898022397E+03  0.55364669649E+03  0.80249893463E+02 0.  0.
         24    2    4    4    0    0 -0.60271559980E+03 -0.36358775175E+03 -0.10969585606E+04  0.13057788895E+04  0.79235579298E+02 0.  0.
         13    1    3    3    0    0  0.38190837765E+02  0.33077739628E+02  0.18160111544E+02  0.53688607725E+02  0.00000000000E+00 0.  1.
        -13    1    3    3    0    0  0.26105140167E+03  0.45414213438E+03  0.42268626011E+03  0.67309478309E+03  0.00000000000E+00 0. -1.
          2    1    6    6  502    0 -0.47768774608E+03 -0.32198407023E+03 -0.87324752558E+03  0.10461455755E+04  0.00000000000E+00 0. -1.
          1    1    5    5  503    0  0.16569335949E+03 -0.24403246646E+02 -0.22472042764E+03  0.28026608505E+03  0.00000000000E+00 0. -1.
         -2    1    5    5    0  503  0.13778000086E+03 -0.99228875611E+02 -0.21425979632E+03  0.27338061145E+03  0.00000000000E+00 0.  1.
         -1    1    6    6    0  502 -0.12502785371E+03 -0.41603681517E+02 -0.22371103501E+03  0.25963331393E+03  0.00000000000E+00 0.  1.
<mgrwt>
<rscale>  0 0.23429147E+04</rscale>
<asrwt>0</asrwt>
<pdfrwt beam="1">  1        2 0.11470127E+00 0.23429147E+04</pdfrwt>
<pdfrwt beam="2">  1       -2 0.28317703E+00 0.23429147E+04</pdfrwt>
<totfact> 0.13752118E+00</totfact>
</mgrwt>
</event>
<event>
12    1  0.1556559E-007  0.1673059E+04  0.7818608E-02  0.8776881E-01
         -2   -1    0    0    0  501 -0.00000000000E+00  0.00000000000E+00  0.35416337573E+03  0.35416337573E+03  0.00000000000E+00 0.  1.
          2   -1    0    0  501    0  0.00000000000E+00 -0.00000000000E+00 -0.19758730125E+04  0.19758730125E+04  0.00000000000E+00 0. -1.
         23    2    1    2    0    0  0.50296165535E+03  0.58530021313E+02 -0.91833295287E+03  0.10527815754E+04  0.92830183429E+02 0.  0.
        254    2    1    2    0    0 -0.50296165535E+03 -0.58530021313E+02 -0.70337668392E+03  0.12772548129E+04  0.93821367897E+03 0.  0.
        -24    2    4    4    0    0  0.51111198103E+02  0.24465963152E+03  0.73922142782E+02  0.27251380406E+03  0.79552500560E+02 0.  0.
         24    2    4    4    0    0 -0.55407285345E+03 -0.30318965283E+03 -0.77729882671E+03  0.10047410088E+04  0.79939578991E+02 0.  0.
         13    1    3    3    0    0  0.36562262223E+03  0.53904251746E+00 -0.64327995800E+03  0.73992519677E+03  0.00000000000E+00 0. -1.
        -13    1    3    3    0    0  0.13733903312E+03  0.57990978796E+02 -0.27505299487E+03  0.31285637859E+03  0.00000000000E+00 0.  1.
          4    1    6    6  502    0 -0.29273627489E+03 -0.20168101873E+03 -0.45940581128E+03  0.58088162253E+03  0.00000000000E+00 0. -1.
          1    1    5    5  503    0  0.14560494291E+02  0.20804406943E+03  0.72374805611E+02  0.22075428717E+03  0.00000000000E+00 0. -1.
         -2    1    5    5    0  503  0.36550703812E+02  0.36615562090E+02  0.15473371712E+01  0.51759516890E+02  0.00000000000E+00 0.  1.
         -1    1    6    6    0  502 -0.26133657856E+03 -0.10150863410E+03 -0.31789301543E+03  0.42385938629E+03  0.00000000000E+00 0.  1.
<mgrwt>
<rscale>  0 0.16730593E+04</rscale>
<asrwt>0</asrwt>
<pdfrwt beam="1">  1        2 0.30398046E+00 0.16730593E+04</pdfrwt>
<pdfrwt beam="2">  1       -2 0.54486674E-01 0.16730593E+04</pdfrwt>
<totfact> 0.20833033E+01</totfact>
</mgrwt>
</event>
<event>
12    1  0.1556559E-007  0.2730543E+04  0.7818608E-02  0.8325162E-01
          2   -1    0    0  501    0  0.00000000000E+00  0.00000000000E+00  0.11283310203E+04  0.11283310203E+04  0.00000000000E+00 0. -1.
         -2   -1    0    0    0  501 -0.00000000000E+00 -0.00000000000E+00 -0.16519678626E+04  0.16519678626E+04  0.00000000000E+00 0.  1.
         23    2    1    2    0    0  0.20005808447E+03  0.41647107636E+03  0.91393652408E+03  0.10280143368E+04  0.89789264391E+02 0.  0.
        254    2    1    2    0    0 -0.20005808447E+03 -0.41647107636E+03 -0.14375733664E+04  0.17522845461E+04  0.88905149019E+03 0.  0.
        -24    2    4    4    0    0  0.34147256311E+03 -0.20279948789E+03 -0.70259341035E+03  0.81100481432E+03  0.79750642271E+02 0.  0.
         24    2    4    4    0    0 -0.54153064758E+03 -0.21367158846E+03 -0.73497995604E+03  0.94127973179E+03  0.83072304206E+02 0.  0.
         13    1    3    3    0    0  0.23392435591E+02  0.43135747434E+02  0.17199007865E+03  0.17885325242E+03  0.00000000000E+00 0.  1.
        -13    1    3    3    0    0  0.17666564888E+03  0.37333532892E+03  0.74194644544E+03  0.84916108437E+03  0.00000000000E+00 0. -1.
          2    1    6    6  502    0 -0.38813941814E+03 -0.19185360969E+03 -0.53163481307E+03  0.68563517262E+03  0.00000000000E+00 0. -1.
          1    1    5    5  503    0  0.30615102735E+03 -0.16156637152E+03 -0.64387870991E+03  0.73103483982E+03  0.00000000000E+00 0. -1.
         -2    1    5    5    0  503  0.35321535752E+02 -0.41233116377E+02 -0.58714700434E+02  0.79969974497E+02  0.00000000000E+00 0.  1.
         -1    1    6    6    0  502 -0.15339122944E+03 -0.21817978767E+02 -0.20334514297E+03  0.25564455917E+03  0.00000000000E+00 0.  1.
<mgrwt>
<rscale>  0 0.27305432E+04</rscale>
<asrwt>0</asrwt>
<pdfrwt beam="1">  1        2 0.17358939E+00 0.27305432E+04</pdfrwt>
<pdfrwt beam="2">  1       -2 0.25414890E+00 0.27305432E+04</pdfrwt>
<totfact> 0.11098165E+00</totfact>
</mgrwt>
</event>
<event>
12    1  0.1556559E-007  0.1274389E+04  0.7818608E-02  0.9050125E-01
         -2   -1    0    0    0  501 -0.00000000000E+00  0.00000000000E+00  0.16549869489E+03  0.16549869489E+03  0.00000000000E+00 0. -1.
          2   -1    0    0  501    0  0.00000000000E+00 -0.00000000000E+00 -0.24532934179E+04  0.24532934179E+04  0.00000000000E+00 0.  1.
         23    2    1    2    0    0 -0.20171779523E+03  0.84042368310E+02 -0.12685526072E+03  0.26903636649E+03  0.92385717191E+02 0.  0.
        254    2    1    2    0    0  0.20171779523E+03 -0.84042368310E+02 -0.21609394623E+04  0.23497557463E+04  0.89662674452E+03 0.  0.
        -24    2    4    4    0    0  0.15238051400E+02 -0.46962799919E+03 -0.95639608094E+03  0.10689183523E+04  0.84322740248E+02 0.  0.
         24    2    4    4    0    0  0.18647974383E+03  0.38558563088E+03 -0.12045433814E+04  0.12808373940E+04  0.78541062985E+02 0.  0.
         11    1    3    3    0    0 -0.11331763650E+03  0.46802037588E+02 -0.12204431688E+03  0.17299171294E+03  0.00000000000E+00 0.  1.
        -11    1    3    3    0    0 -0.88400158730E+02  0.37240330722E+02 -0.48109438457E+01  0.96044653555E+02  0.00000000000E+00 0. -1.
          2    1    6    6  502    0  0.14342437584E+03  0.20942352546E+03 -0.67989970676E+03  0.72573574795E+03  0.00000000000E+00 0. -1.
          3    1    5    5  503    0 -0.29035984761E+02 -0.31889627814E+03 -0.63318800410E+03  0.70955265708E+03  0.00000000000E+00 0. -1.
         -4    1    5    5    0  503  0.44274036161E+02 -0.15073172105E+03 -0.32320807683E+03  0.35936569527E+03  0.00000000000E+00 0.  1.
         -1    1    6    6    0  502  0.43055367991E+02  0.17616210542E+03 -0.52464367463E+03  0.55510164603E+03  0.00000000000E+00 0.  1.
<mgrwt>
<rscale>  0 0.12743890E+04</rscale>
<asrwt>0</asrwt>
<pdfrwt beam="1">  1        2 0.37742973E+00 0.12743890E+04</pdfrwt>
<pdfrwt beam="2">  1       -2 0.25461339E-01 0.12743890E+04</pdfrwt>
<totfact> 0.50710465E+01</totfact>
</mgrwt>
</event>
<event>
12    1  0.1556559E-007  0.2034898E+04  0.7818608E-02  0.8590477E-01
         -2   -1    0    0    0  501 -0.00000000000E+00  0.00000000000E+00  0.52183043515E+03  0.52183043515E+03  0.00000000000E+00 0.  1.
          2   -1    0    0  501    0  0.00000000000E+00 -0.00000000000E+00 -0.19837901620E+04  0.19837901620E+04  0.00000000000E+00 0. -1.
         23    2    1    2    0    0  0.44440475787E+02  0.67826398616E+03 -0.25991976036E+02  0.68598686666E+03  0.88799817621E+02 0.  0.
        254    2    1    2    0    0 -0.44440475787E+02 -0.67826398616E+03 -0.14359677508E+04  0.18196337305E+04  0.88715643544E+03 0.  0.
        -24    2    4    4    0    0  0.38430001240E+03 -0.24987231059E+03 -0.86816170434E+03  0.98505359139E+03  0.80642184404E+02 0.  0.
         24    2    4    4    0    0 -0.42874048819E+03 -0.42839167557E+03 -0.56780604646E+03  0.83458013908E+03  0.82355742051E+02 0.  0.
         13    1    3    3    0    0 -0.74202986024E+01  0.17454524371E+03 -0.40742111666E+02  0.17939069819E+03  0.00000000000E+00 0. -1.
        -13    1    3    3    0    0  0.51860774389E+02  0.50371874245E+03  0.14750135630E+02  0.50659616847E+03  0.00000000000E+00 0.  1.
          2    1    6    6  502    0 -0.12581920995E+02 -0.20938021062E+02 -0.55492502505E+01  0.25049942919E+02  0.00000000000E+00 0. -1.
          3    1    5    5  503    0  0.14395204584E+03 -0.12871431883E+03 -0.42022096026E+03  0.46246645588E+03  0.00000000000E+00 0. -1.
         -4    1    5    5    0  503  0.24034796656E+03 -0.12115799176E+03 -0.44794074408E+03  0.52258713551E+03  0.00000000000E+00 0.  1.
         -1    1    6    6    0  502 -0.41615856719E+03 -0.40745365451E+03 -0.56225679621E+03  0.80953019616E+03  0.00000000000E+00 0.  1.
<mgrwt>
<rscale>  0 0.20348976E+04</rscale>
<asrwt>0</asrwt>
<pdfrwt beam="1">  1        2 0.30519848E+00 0.20348976E+04</pdfrwt>
<pdfrwt beam="2">  1       -2 0.80281607E-01 0.20348976E+04</pdfrwt>
<totfact> 0.86660209E+00</totfact>
</mgrwt>
</event>
<event>
12    1  0.1556559E-007  0.2201222E+04  0.7818608E-02  0.8517920E-01
         -2   -1    0    0    0  501 -0.00000000000E+00  0.00000000000E+00  0.75257399769E+03  0.75257399769E+03  0.00000000000E+00 0.  1.
          2   -1    0    0  501    0  0.00000000000E+00 -0.00000000000E+00 -0.16096023882E+04  0.16096023882E+04  0.00000000000E+00 0. -1.
         23    2    1    2    0    0 -0.37751329365E+03  0.23326004944E+03 -0.12295128704E+04  0.13103413985E+04  0.91466631016E+02 0.  0.
        254    2    1    2    0    0  0.37751329365E+03 -0.23326004944E+03  0.37248447989E+03  0.10518349874E+04  0.87788701744E+03 0.  0.
        -24    2    4    4    0    0  0.44954989025E+03 -0.17389309358E+03  0.61033159145E+03  0.78185157307E+03  0.80332552451E+02 0.  0.
         24    2    4    4    0    0 -0.72036596602E+02 -0.59366955858E+02 -0.23784711155E+03  0.26998341432E+03  0.87212893736E+02 0.  0.
         13    1    3    3    0    0 -0.18328096519E+03  0.11771182373E+03 -0.47210550235E+03  0.51993421795E+03  0.00000000000E+00 0.  1.
        -13    1    3    3    0    0 -0.19423232846E+03  0.11554822571E+03 -0.75740736804E+03  0.79040718054E+03  0.00000000000E+00 0. -1.
          2    1    6    6  502    0 -0.44954549333E+02 -0.51847279210E+02 -0.63857114296E+02  0.93737841416E+02  0.00000000000E+00 0. -1.
          3    1    5    5  503    0  0.12152834102E+01  0.36153984554E+01  0.16328236872E+02  0.16767806628E+02  0.00000000000E+00 0. -1.
         -4    1    5    5    0  503  0.44833460684E+03 -0.17750849204E+03  0.59400335457E+03  0.76508376645E+03  0.00000000000E+00 0.  1.
         -1    1    6    6    0  502 -0.27082047269E+02 -0.75196766478E+01 -0.17398999726E+03  0.17624557290E+03  0.00000000000E+00 0.  1.
<mgrwt>
<rscale>  0 0.22012223E+04</rscale>
<asrwt>0</asrwt>
<pdfrwt beam="1">  1        2 0.24763113E+00 0.22012223E+04</pdfrwt>
<pdfrwt beam="2">  1       -2 0.11578062E+00 0.22012223E+04</pdfrwt>
<totfact> 0.58393064E+00</totfact>
</mgrwt>
</event>
<event>
12    1  0.1556559E-007  0.1599743E+04  0.7818608E-02  0.8820706E-01
          2   -1    0    0  501    0  0.00000000000E+00  0.00000000000E+00  0.27837970479E+04  0.27837970479E+04  0.00000000000E+00 0. -1.
         -2   -1    0    0    0  501 -0.00000000000E+00 -0.00000000000E+00 -0.22982785919E+03  0.22982785919E+03  0.00000000000E+00 0.  1.
         23    2    1    2    0    0 -0.23311008901E+03  0.35029864590E+01  0.18008216883E+04  0.18187247837E+04  0.10221790974E+03 0.  0.
        254    2    1    2    0    0  0.23311008901E+03 -0.35029864590E+01  0.75314750041E+03  0.11949001235E+04  0.89788783439E+03 0.  0.
        -24    2    4    4    0    0  0.50168330843E+03 -0.10626628909E+03  0.18073131626E+03  0.54921565262E+03  0.77429698758E+02 0.  0.
         24    2    4    4    0    0 -0.26857321941E+03  0.10276330263E+03  0.57241618415E+03  0.64568447084E+03  0.80970843232E+02 0.  0.
         11    1    3    3    0    0 -0.48822957852E+02  0.21133767786E+01  0.15264693471E+03  0.16027861445E+03  0.00000000000E+00 0.  1.
        -11    1    3    3    0    0 -0.18428713116E+03  0.13896096805E+01  0.16481747536E+04  0.16584461692E+04  0.00000000000E+00 0. -1.
          4    1    6    6  502    0 -0.11367994781E+03  0.15306905599E+01  0.22084474525E+03  0.24839056957E+03  0.00000000000E+00 0. -1.
          3    1    5    5  503    0  0.31249650447E+03 -0.43602651785E+02  0.14284246852E+03  0.34635130628E+03  0.00000000000E+00 0. -1.
         -4    1    5    5    0  503  0.18918680395E+03 -0.62663637304E+02  0.37888847744E+02  0.20286434633E+03  0.00000000000E+00 0.  1.
         -3    1    6    6    0  502 -0.15489327160E+03  0.10123261207E+03  0.35157143890E+03  0.39729390126E+03  0.00000000000E+00 0.  1.
<mgrwt>
<rscale>  0 0.15997426E+04</rscale>
<asrwt>0</asrwt>
<pdfrwt beam="1">  1        2 0.42827645E+00 0.15997426E+04</pdfrwt>
<pdfrwt beam="2">  1       -2 0.35358134E-01 0.15997426E+04</pdfrwt>
<totfact> 0.17109314E+01</totfact>
</mgrwt>
</event>
<event>
12    1  0.1556559E-007  0.1260827E+04  0.7818608E-02  0.9061220E-01
         -2   -1    0    0    0  501 -0.00000000000E+00  0.00000000000E+00  0.13354071107E+03  0.13354071107E+03  0.00000000000E+00 0. -1.
          2   -1    0    0  501    0  0.00000000000E+00 -0.00000000000E+00 -0.29760282786E+04  0.29760282786E+04  0.00000000000E+00 0.  1.
         23    2    1    2    0    0  0.32761774084E+01 -0.28821522693E+03 -0.56664058273E+03  0.64230307931E+03  0.91613019421E+02 0.  0.
        254    2    1    2    0    0 -0.32761774084E+01  0.28821522693E+03 -0.22758469848E+04  0.24672659104E+04  0.90820857948E+03 0.  0.
        -24    2    4    4    0    0  0.41351856237E+03  0.31245840652E+03 -0.13629870254E+04  0.14604239559E+04  0.80477588936E+02 0.  0.
         24    2    4    4    0    0 -0.41679473978E+03 -0.24243179587E+02 -0.91285995942E+03  0.10068419545E+04  0.78178187045E+02 0.  0.
         11    1    3    3    0    0 -0.12951383990E+01 -0.16031567175E+03 -0.40869402328E+03  0.43901434675E+03  0.00000000000E+00 0.  1.
        -11    1    3    3    0    0  0.45713158074E+01 -0.12789955518E+03 -0.15794655945E+03  0.20328873256E+03  0.00000000000E+00 0. -1.
          4    1    6    6  502    0 -0.54996518115E+02  0.15471827694E+02 -0.83988866612E+02  0.10157816779E+03  0.00000000000E+00 0. -1.
          3    1    5    5  503    0  0.27101864998E+03  0.17182614350E+03 -0.91803944524E+03  0.97250797182E+03  0.00000000000E+00 0. -1.
         -4    1    5    5    0  503  0.14249991239E+03  0.14063226302E+03 -0.44494758017E+03  0.48791598409E+03  0.00000000000E+00 0.  1.
         -3    1    6    6    0  502 -0.36179822166E+03 -0.39715007281E+02 -0.82887109281E+03  0.90526378669E+03  0.00000000000E+00 0.  1.
<mgrwt>
<rscale>  0 0.12608266E+04</rscale>
<asrwt>0</asrwt>
<pdfrwt beam="1">  1        2 0.45785046E+00 0.12608266E+04</pdfrwt>
<pdfrwt beam="2">  1       -2 0.20544727E-01 0.12608266E+04</pdfrwt>
<totfact> 0.36549886E+01</totfact>
</mgrwt>
</event>
<event>
12    1  0.1556559E-007  0.1592157E+04  0.7818608E-02  0.8825381E-01
         -2   -1    0    0    0  501 -0.00000000000E+00  0.00000000000E+00  0.29977845264E+03  0.29977845264E+03  0.00000000000E+00 0.  1.
          2   -1    0    0  501    0  0.00000000000E+00 -0.00000000000E+00 -0.21140319993E+04  0.21140319993E+04  0.00000000000E+00 0. -1.
         23    2    1    2    0    0 -0.12614133160E+03  0.30317844420E+03 -0.12595813115E+04  0.13055401035E+04  0.10030491993E+03 0.  0.
        254    2    1    2    0    0  0.12614133160E+03 -0.30317844420E+03 -0.55467223510E+03  0.11082703484E+04  0.90153927933E+03 0.  0.
        -24    2    4    4    0    0 -0.16801043647E+03 -0.49869082200E+03 -0.12679047467E+03  0.54707117396E+03  0.79315838292E+02 0.  0.
         24    2    4    4    0    0  0.29415176807E+03  0.19551237780E+03 -0.42788176043E+03  0.56119917444E+03  0.84328879685E+02 0.  0.
         11    1    3    3    0    0 -0.34878813687E+02  0.10379168824E+03 -0.25867312289E+03  0.28089327279E+03  0.00000000000E+00 0. -1.
        -11    1    3    3    0    0 -0.91262517910E+02  0.19938675595E+03 -0.10009081886E+04  0.10246468307E+04  0.00000000000E+00 0.  1.
          4    1    6    6  502    0  0.39374686060E+02  0.18179697227E+02 -0.10350766901E+03  0.11222613259E+03  0.00000000000E+00 0. -1.
          3    1    5    5  503    0 -0.57514163778E+02 -0.25538700157E+03 -0.32926094992E+02  0.26384565060E+03  0.00000000000E+00 0. -1.
         -4    1    5    5    0  503 -0.11049627269E+03 -0.24330382042E+03 -0.93864379679E+02  0.28322552336E+03  0.00000000000E+00 0.  1.
         -3    1    6    6    0  502  0.25477708201E+03  0.17733268057E+03 -0.32437409142E+03  0.44897304184E+03  0.00000000000E+00 0.  1.
<mgrwt>
<rscale>  0 0.15921573E+04</rscale>
<asrwt>0</asrwt>
<pdfrwt beam="1">  1        2 0.32523569E+00 0.15921573E+04</pdfrwt>
<pdfrwt beam="2">  1       -2 0.46119763E-01 0.15921573E+04</pdfrwt>
<totfact> 0.24694827E+01</totfact>
</mgrwt>
</event>
<event>
12    1  0.1556559E-007  0.1940886E+04  0.7818608E-02  0.8634768E-01
          2   -1    0    0  501    0  0.00000000000E+00  0.00000000000E+00  0.23698465182E+04  0.23698465182E+04  0.00000000000E+00 0. -1.
         -2   -1    0    0    0  501 -0.00000000000E+00 -0.00000000000E+00 -0.39739263402E+03  0.39739263402E+03  0.00000000000E+00 0.  1.
         23    2    1    2    0    0 -0.21059021919E+03 -0.21778034876E+03 -0.21507230829E+03  0.38205419162E+03  0.89066193453E+02 0.  0.
        254    2    1    2    0    0  0.21059021919E+03  0.21778034876E+03  0.21875261925E+04  0.23851849606E+04  0.90114368043E+03 0.  0.
        -24    2    4    4    0    0 -0.25154547911E+03 -0.26692199767E+02  0.14705329180E+04  0.14943627123E+04  0.81640989763E+02 0.  0.
         24    2    4    4    0    0  0.46213569831E+03  0.24447254853E+03  0.71699327449E+03  0.89082224837E+03  0.78413595163E+02 0.  0.
         13    1    3    3    0    0 -0.67295885713E+02 -0.28298917574E+02 -0.22950692192E+02  0.76526461056E+02  0.00000000000E+00 0. -1.
        -13    1    3    3    0    0 -0.14329433348E+03 -0.18948143119E+03 -0.19212161610E+03  0.30552773056E+03  0.00000000000E+00 0.  1.
          2    1    6    6  502    0  0.40434852430E+03  0.24038160648E+03  0.64781788811E+03  0.80059294401E+03  0.00000000000E+00 0. -1.
          3    1    5    5  503    0 -0.18117725876E+03  0.12224729951E+02  0.11276084716E+04  0.11421363791E+04  0.00000000000E+00 0. -1.
         -4    1    5    5    0  503 -0.70368220351E+02 -0.38916929718E+02  0.34292444639E+03  0.35222633318E+03  0.00000000000E+00 0.  1.
         -1    1    6    6    0  502  0.57787174003E+02  0.40909420491E+01  0.69175386378E+02  0.90229304368E+02  0.00000000000E+00 0.  1.
<mgrwt>
<rscale>  0 0.19408859E+04</rscale>
<asrwt>0</asrwt>
<pdfrwt beam="1">  1        2 0.36459177E+00 0.19408859E+04</pdfrwt>
<pdfrwt beam="2">  1       -2 0.61137329E-01 0.19408859E+04</pdfrwt>
<totfact> 0.96145150E+00</totfact>
</mgrwt>
</event>
<event>
12    1  0.1556559E-007  0.1723938E+04  0.7818608E-02  0.8747828E-01
          2   -1    0    0  501    0  0.00000000000E+00  0.00000000000E+00  0.19795675924E+04  0.19795675924E+04  0.00000000000E+00 0.  1.
         -2   -1    0    0    0  501 -0.00000000000E+00 -0.00000000000E+00 -0.37532983740E+03  0.37532983740E+03  0.00000000000E+00 0. -1.
         23    2    1    2    0    0 -0.25153982099E+03 -0.56367374770E+03  0.47632849724E+03  0.78501197076E+03  0.91403400163E+02 0.  0.
        254    2    1    2    0    0  0.25153982099E+03  0.56367374770E+03  0.11279092577E+04  0.15698854590E+04  0.90075561911E+03 0.  0.
        -24    2    4    4    0    0  0.14835508125E+03  0.29823134222E+03  0.12125863168E+04  0.12600267556E+04  0.79691189440E+02 0.  0.
         24    2    4    4    0    0  0.10318473974E+03  0.26544240548E+03 -0.84677059063E+02  0.30985870337E+03  0.87951410328E+02 0.  0.
         11    1    3    3    0    0 -0.20984888416E+03 -0.51228111616E+03  0.45137025693E+03  0.71428538064E+03  0.00000000000E+00 0.  1.
        -11    1    3    3    0    0 -0.41690936827E+02 -0.51392631538E+02  0.24958240312E+02  0.70726590116E+02  0.00000000000E+00 0. -1.
          4    1    6    6  502    0  0.10589440704E+02  0.58377696383E+02  0.16365116070E+02  0.61545988605E+02  0.00000000000E+00 0. -1.
          3    1    5    5  503    0  0.80782182424E+02  0.81594782168E+02  0.44747018740E+03  0.46196649022E+03  0.00000000000E+00 0. -1.
         -4    1    5    5    0  503  0.67572898826E+02  0.21663656005E+03  0.76511612937E+03  0.79806026541E+03  0.00000000000E+00 0.  1.
         -3    1    6    6    0  502  0.92595299035E+02  0.20706470909E+03 -0.10104217513E+03  0.24831271476E+03  0.00000000000E+00 0.  1.
<mgrwt>
<rscale>  0 0.17239383E+04</rscale>
<asrwt>0</asrwt>
<pdfrwt beam="1">  1        2 0.30454885E+00 0.17239383E+04</pdfrwt>
<pdfrwt beam="2">  1       -2 0.57743053E-01 0.17239383E+04</pdfrwt>
<totfact> 0.18292418E+01</totfact>
</mgrwt>
</event>
<event>
12    1  0.1556559E-007  0.1415819E+04  0.7818608E-02  0.8942447E-01
          1   -1    0    0  501    0  0.00000000000E+00  0.00000000000E+00  0.42489801177E+03  0.42489801177E+03  0.00000000000E+00 0. -1.
         -1   -1    0    0    0  501 -0.00000000000E+00 -0.00000000000E+00 -0.11794264742E+04  0.11794264742E+04  0.00000000000E+00 0.  1.
         23    2    1    2    0    0  0.64247358051E+02  0.29545595054E+03  0.10282007041E+03  0.33231130839E+03  0.91852583412E+02 0.  0.
        254    2    1    2    0    0 -0.64247358051E+02 -0.29545595054E+03 -0.85734853284E+03  0.12720131776E+04  0.88969043798E+03 0.  0.
        -24    2    4    4    0    0 -0.25761017873E+02 -0.49959996148E+03 -0.91200928807E+03  0.10432302436E+04  0.79401814127E+02 0.  0.
         24    2    4    4    0    0 -0.38486340178E+02  0.20414401094E+03  0.54660755230E+02  0.22878293398E+03  0.78726470358E+02 0.  0.
         13    1    3    3    0    0  0.61091449858E+02  0.30179107699E+03  0.10426725330E+03  0.32508718755E+03  0.00000000000E+00 0. -1.
        -13    1    3    3    0    0  0.31559081935E+01 -0.63351264507E+01 -0.14471828864E+01  0.72241208447E+01  0.00000000000E+00 0.  1.
          2    1    6    6  502    0 -0.26993281114E+02  0.12792122975E+03 -0.57232576776E+01  0.13086341706E+03  0.00000000000E+00 0. -1.
          3    1    5    5  503    0  0.88512860968E+00 -0.27519691271E+03 -0.42460651906E+03  0.50598895269E+03  0.00000000000E+00 0. -1.
         -4    1    5    5    0  503 -0.26646146483E+02 -0.22440304877E+03 -0.48740276901E+03  0.53724129091E+03  0.00000000000E+00 0.  1.
         -1    1    6    6    0  502 -0.11493059065E+02  0.76222781186E+02  0.60384012907E+02  0.97919516917E+02  0.00000000000E+00 0.  1.
<mgrwt>
<rscale>  0 0.14158191E+04</rscale>
<asrwt>0</asrwt>
<pdfrwt beam="1">  1        1 0.65368926E-01 0.14158191E+04</pdfrwt>
<pdfrwt beam="2">  1       -1 0.18145023E+00 0.14158191E+04</pdfrwt>
<totfact> 0.10947294E+01</totfact>
</mgrwt>
</event>
<event>
12    1  0.1556559E-007  0.2031619E+04  0.7818608E-02  0.8591979E-01
         -1   -1    0    0    0  501 -0.00000000000E+00  0.00000000000E+00  0.56674775562E+03  0.56674775562E+03  0.00000000000E+00 0.  1.
          1   -1    0    0  501    0  0.00000000000E+00 -0.00000000000E+00 -0.18206840478E+04  0.18206840478E+04  0.00000000000E+00 0. -1.
         23    2    1    2    0    0 -0.41350834828E+03 -0.39687871808E+03  0.11108646795E+03  0.59090284297E+03  0.91236481225E+02 0.  0.
        254    2    1    2    0    0  0.41350834828E+03  0.39687871808E+03 -0.13650227601E+04  0.17965289604E+04  0.10177068827E+04 0.  0.
        -24    2    4    4    0    0 -0.26878499439E+03 -0.12337494342E+03 -0.35717851557E+03  0.47052413530E+03  0.79685130602E+02 0.  0.
         24    2    4    4    0    0  0.68229334267E+03  0.52025366150E+03 -0.10078442445E+04  0.13260048251E+04  0.79691262200E+02 0.  0.
         11    1    3    3    0    0 -0.10139782906E+03 -0.51398485037E+02  0.36394153179E+02  0.11936439330E+03  0.00000000000E+00 0. -1.
        -11    1    3    3    0    0 -0.31211051922E+03 -0.34548023304E+03  0.74692314774E+02  0.47153844966E+03  0.00000000000E+00 0.  1.
          2    1    6    6  502    0  0.68088225252E+03  0.52278662919E+03 -0.10063525851E+04  0.13227441276E+04  0.00000000000E+00 0. -1.
          1    1    5    5  503    0 -0.17627165734E+03 -0.11570492835E+03 -0.21853609214E+03  0.30367309922E+03  0.00000000000E+00 0. -1.
         -2    1    5    5    0  503 -0.92513337049E+02 -0.76700150706E+01 -0.13864242343E+03  0.16685103607E+03  0.00000000000E+00 0.  1.
         -1    1    6    6    0  502  0.14110901457E+01 -0.25329676908E+01 -0.14916594154E+01  0.32606975532E+01  0.00000000000E+00 0.  1.
<mgrwt>
<rscale>  0 0.20316187E+04</rscale>
<asrwt>0</asrwt>
<pdfrwt beam="1">  1        1 0.28010523E+00 0.20316187E+04</pdfrwt>
<pdfrwt beam="2">  1       -1 0.87191964E-01 0.20316187E+04</pdfrwt>
<totfact> 0.47253760E+00</totfact>
</mgrwt>
</event>
<event>
12    1  0.1556559E-007  0.1308989E+04  0.7818608E-02  0.9022467E-01
          2   -1    0    0  501    0  0.00000000000E+00  0.00000000000E+00  0.22255600172E+04  0.22255600172E+04  0.00000000000E+00 0.  1.
         -2   -1    0    0    0  501 -0.00000000000E+00 -0.00000000000E+00 -0.19247415638E+03  0.19247415638E+03  0.00000000000E+00 0. -1.
         23    2    1    2    0    0 -0.21346342214E+03 -0.42118660769E+02  0.69918241826E+02  0.24644190317E+03  0.92219504018E+02 0.  0.
        254    2    1    2    0    0  0.21346342214E+03  0.42118660769E+02  0.19631676190E+04  0.21715922704E+04  0.90246621787E+03 0.  0.
        -24    2    4    4    0    0 -0.26968554736E+03 -0.14585402424E+02  0.21292841089E+03  0.35327865944E+03  0.80772982062E+02 0.  0.
         24    2    4    4    0    0  0.48314896951E+03  0.56704063193E+02  0.17502392081E+04  0.18183136110E+04  0.79239035115E+02 0.  0.
         13    1    3    3    0    0 -0.74398903101E+01  0.17334067394E+02 -0.46290335915E+01  0.19422919766E+02  0.00000000000E+00 0.  1.
        -13    1    3    3    0    0 -0.20602353183E+03 -0.59452728163E+02  0.74547275417E+02  0.22701898341E+03  0.00000000000E+00 0. -1.
          2    1    6    6  502    0  0.43718421482E+03  0.72200658504E+02  0.16129313910E+04  0.16726896439E+04  0.00000000000E+00 0. -1.
          3    1    5    5  503    0 -0.11318511081E+03 -0.33518513858E+02  0.12835725077E+03  0.17438447152E+03  0.00000000000E+00 0. -1.
         -4    1    5    5    0  503 -0.15650043655E+03  0.18933111434E+02  0.84571160125E+02  0.17889418793E+03  0.00000000000E+00 0.  1.
         -1    1    6    6    0  502  0.45964754692E+02 -0.15496595311E+02  0.13730781708E+03  0.14562396702E+03  0.00000000000E+00 0.  1.
<mgrwt>
<rscale>  0 0.13089886E+04</rscale>
<asrwt>0</asrwt>
<pdfrwt beam="1">  1        2 0.34239383E+00 0.13089886E+04</pdfrwt>
<pdfrwt beam="2">  1       -2 0.29611410E-01 0.13089886E+04</pdfrwt>
<totfact> 0.51529441E+01</totfact>
</mgrwt>
</event>
<event>
12    1  0.1556559E-007  0.1691124E+04  0.7818608E-02  0.8766443E-01
         -2   -1    0    0    0  501 -0.00000000000E+00  0.00000000000E+00  0.11254952391E+04  0.11254952391E+04  0.00000000000E+00 0. -1.
          2   -1    0    0  501    0  0.00000000000E+00 -0.00000000000E+00 -0.63525345375E+03  0.63525345375E+03  0.00000000000E+00 0.  1.
         23    2    1    2    0    0  0.83896986011E+02 -0.50982263471E+01  0.79799537648E+03  0.80727117540E+03  0.88461480679E+02 0.  0.
        254    2    1    2    0    0 -0.83896986011E+02  0.50982263471E+01 -0.30775359116E+03  0.95347751743E+03  0.89852234652E+03 0.  0.
        -24    2    4    4    0    0 -0.74471848539E+02  0.36790897981E+03  0.10432582092E+03  0.39755628637E+03  0.79145753329E+02 0.  0.
         24    2    4    4    0    0 -0.94251374722E+01 -0.36281075346E+03 -0.41207941208E+03  0.55592123106E+03  0.86709268477E+02 0.  0.
         13    1    3    3    0    0  0.44117532523E+02 -0.46296060186E+02  0.37445304856E+03  0.37987467334E+03  0.00000000000E+00 0.  1.
        -13    1    3    3    0    0  0.39779453488E+02  0.41197833839E+02  0.42354232792E+03  0.42739650206E+03  0.00000000000E+00 0. -1.
          2    1    6    6  502    0  0.32116835695E+02 -0.23468234883E+03 -0.28681728394E+03  0.37198313182E+03  0.00000000000E+00 0. -1.
          3    1    5    5  503    0 -0.82472536644E+02  0.22056296309E+03  0.74761282925E+02  0.24706069985E+03  0.00000000000E+00 0. -1.
         -4    1    5    5    0  503  0.80006881042E+01  0.14734601672E+03  0.29564537996E+02  0.15049558651E+03  0.00000000000E+00 0.  1.
         -1    1    6    6    0  502 -0.41541973167E+02 -0.12812840463E+03 -0.12526212813E+03  0.18393809924E+03  0.00000000000E+00 0.  1.
<mgrwt>
<rscale>  0 0.16911236E+04</rscale>
<asrwt>0</asrwt>
<pdfrwt beam="1">  1        2 0.97731300E-01 0.16911236E+04</pdfrwt>
<pdfrwt beam="2">  1       -2 0.17315311E+00 0.16911236E+04</pdfrwt>
<totfact> 0.89094816E+00</totfact>
</mgrwt>
</event>
<event>
12    1  0.1556559E-007  0.2675518E+04  0.7818608E-02  0.8342992E-01
         -2   -1    0    0    0  501 -0.00000000000E+00  0.00000000000E+00  0.10815224272E+04  0.10815224272E+04  0.00000000000E+00 0.  1.
          2   -1    0    0  501    0  0.00000000000E+00 -0.00000000000E+00 -0.16547039358E+04  0.16547039358E+04  0.00000000000E+00 0. -1.
         23    2    1    2    0    0  0.38259150462E+03 -0.12942146940E+03  0.88332195189E+03  0.97646670934E+03  0.10051560878E+03 0.  0.
        254    2    1    2    0    0 -0.38259150462E+03  0.12942146940E+03 -0.14565034606E+04  0.17597596537E+04  0.90123555853E+03 0.  0.
        -24    2    4    4    0    0 -0.33874828734E+03  0.47574852916E+03 -0.11311323388E+04  0.12757476188E+04  0.83573642348E+02 0.  0.
         24    2    4    4    0    0 -0.43843217277E+02 -0.34632705976E+03 -0.32537112172E+03  0.48401203490E+03  0.80849385002E+02 0.  0.
         13    1    3    3    0    0  0.85644435145E+01 -0.81825065573E+01  0.28369724568E+01  0.12179963834E+02  0.00000000000E+00 0. -1.
        -13    1    3    3    0    0  0.37402706110E+03 -0.12123896284E+03  0.88048497943E+03  0.96428674551E+03  0.00000000000E+00 0.  1.
          2    1    6    6  502    0 -0.79095138615E+01 -0.44474832710E+02 -0.85824713301E+02  0.96986868015E+02  0.00000000000E+00 0. -1.
          1    1    5    5  503    0 -0.15635572390E+03  0.24621645925E+03 -0.64809339973E+03  0.71070015617E+03  0.00000000000E+00 0. -1.
         -2    1    5    5    0  503 -0.18239256345E+03  0.22953206990E+03 -0.48303893910E+03  0.56504746261E+03  0.00000000000E+00 0.  1.
         -1    1    6    6    0  502 -0.35933703415E+02 -0.30185222705E+03 -0.23954640842E+03  0.38702516688E+03  0.00000000000E+00 0.  1.
<mgrwt>
<rscale>  0 0.26755182E+04</rscale>
<asrwt>0</asrwt>
<pdfrwt beam="1">  1        2 0.25456984E+00 0.26755182E+04</pdfrwt>
<pdfrwt beam="2">  1       -2 0.16638807E+00 0.26755182E+04</pdfrwt>
<totfact> 0.20673204E+00</totfact>
</mgrwt>
</event>
<event>
12    1  0.1556559E-007  0.1709050E+04  0.7818608E-02  0.8756220E-01
          2   -1    0    0  501    0  0.00000000000E+00  0.00000000000E+00  0.25634543515E+04  0.25634543515E+04  0.00000000000E+00 0. -1.
         -2   -1    0    0    0  501 -0.00000000000E+00 -0.00000000000E+00 -0.28485511996E+03  0.28485511996E+03  0.00000000000E+00 0.  1.
         23    2    1    2    0    0 -0.40740882492E+03 -0.45167225340E+03  0.90656622663E+03  0.10954216113E+04  0.89980043452E+02 0.  0.
        254    2    1    2    0    0  0.40740882492E+03  0.45167225340E+03  0.13720330049E+04  0.17528878601E+04  0.90562216650E+03 0.  0.
        -24    2    4    4    0    0 -0.68730207048E+02  0.62523434070E+02  0.10446268750E+04  0.10518647417E+04  0.80877102688E+02 0.  0.
         24    2    4    4    0    0  0.47613903197E+03  0.38914881934E+03  0.32740612993E+03  0.70102311841E+03  0.78060600008E+02 0.  0.
         11    1    3    3    0    0 -0.38708591436E+03 -0.39067223579E+03  0.79577893365E+03  0.96732849237E+03  0.00000000000E+00 0. -1.
        -11    1    3    3    0    0 -0.20322910558E+02 -0.61000017617E+02  0.11078729298E+03  0.12809311897E+03  0.00000000000E+00 0.  1.
          2    1    6    6  502    0  0.46456916878E+03  0.37561367440E+03  0.33080939435E+03  0.68289457486E+03  0.00000000000E+00 0. -1.
          3    1    5    5  503    0 -0.81833779166E+02  0.70334763567E+02  0.90855552638E+03  0.91494092208E+03  0.00000000000E+00 0. -1.
         -4    1    5    5    0  503  0.13103572118E+02 -0.78113294970E+01  0.13607134862E+03  0.13692381964E+03  0.00000000000E+00 0.  1.
         -1    1    6    6    0  502  0.11569863194E+02  0.13535144931E+02 -0.34032644224E+01  0.18128543553E+02  0.00000000000E+00 0.  1.
<mgrwt>
<rscale>  0 0.17090501E+04</rscale>
<asrwt>0</asrwt>
<pdfrwt beam="1">  1        2 0.39437758E+00 0.17090501E+04</pdfrwt>
<pdfrwt beam="2">  1       -2 0.43823866E-01 0.17090501E+04</pdfrwt>
<totfact> 0.15039372E+01</totfact>
</mgrwt>
</event>
<event>
12    1  0.1556559E-007  0.2385862E+04  0.7818608E-02  0.8444816E-01
          2   -1    0    0  501    0  0.00000000000E+00  0.00000000000E+00  0.16991791829E+04  0.16991791829E+04  0.00000000000E+00 0. -1.
         -2   -1    0    0    0  501 -0.00000000000E+00 -0.00000000000E+00 -0.83751293685E+03  0.83751293685E+03  0.00000000000E+00 0.  1.
         23    2    1    2    0    0 -0.57116941569E+03 -0.83915552393E+03  0.47345097182E+03  0.11239200032E+04  0.92864719548E+02 0.  0.
        254    2    1    2    0    0  0.57116941569E+03  0.83915552393E+03  0.38821527423E+03  0.14127721165E+04  0.90266132041E+03 0.  0.
        -24    2    4    4    0    0  0.82908114505E+02  0.85478620829E+03  0.28623930319E+03  0.90889470377E+03  0.81384436591E+02 0.  0.
         24    2    4    4    0    0  0.48826130119E+03 -0.15630684359E+02  0.10197597104E+03  0.50387741277E+03  0.69641452481E+02 0.  0.
         11    1    3    3    0    0 -0.31018529243E+03 -0.38075012645E+03  0.20696678603E+03  0.53293604208E+03  0.00000000000E+00 0. -1.
        -11    1    3    3    0    0 -0.26098412326E+03 -0.45840539748E+03  0.26648418579E+03  0.59098396113E+03  0.00000000000E+00 0.  1.
          4    1    6    6  502    0  0.10556493907E+01  0.48726228074E+01 -0.18357041849E+01  0.53128766703E+01  0.00000000000E+00 0. -1.
          3    1    5    5  503    0  0.97474826536E+02  0.64233856837E+03  0.21407789812E+03  0.68405374401E+03  0.00000000000E+00 0. -1.
         -4    1    5    5    0  503 -0.14566712030E+02  0.21244763991E+03  0.72161405075E+02  0.22484095976E+03  0.00000000000E+00 0.  1.
         -3    1    6    6    0  502  0.48720565180E+03 -0.20503307166E+02  0.10381167522E+03  0.49856453610E+03  0.00000000000E+00 0.  1.
<mgrwt>
<rscale>  0 0.23858621E+04</rscale>
<asrwt>0</asrwt>
<pdfrwt beam="1">  1        2 0.26141218E+00 0.23858621E+04</pdfrwt>
<pdfrwt beam="2">  1       -2 0.12884814E+00 0.23858621E+04</pdfrwt>
<totfact> 0.39264433E+00</totfact>
</mgrwt>
</event>
<event>
12    1  0.1556559E-007  0.1420627E+04  0.7818608E-02  0.8939022E-01
         -2   -1    0    0    0  501 -0.00000000000E+00  0.00000000000E+00  0.23165761767E+03  0.23165761767E+03  0.00000000000E+00 0.  1.
          2   -1    0    0  501    0  0.00000000000E+00 -0.00000000000E+00 -0.21779781138E+04  0.21779781138E+04  0.00000000000E+00 0. -1.
         23    2    1    2    0    0  0.26440471148E+03 -0.25843130503E+03 -0.23858918387E+03  0.44984259291E+03  0.93471754336E+02 0.  0.
        254    2    1    2    0    0 -0.26440471148E+03  0.25843130503E+03 -0.17077313123E+04  0.19597931386E+04  0.88755074232E+03 0.  0.
        -24    2    4    4    0    0 -0.41625817641E+03 -0.17110712117E+03 -0.11353110448E+04  0.12238637827E+04  0.79767623631E+02 0.  0.
         24    2    4    4    0    0  0.15185346492E+03  0.42953842621E+03 -0.57242026745E+03  0.73592935586E+03  0.79776687285E+02 0.  0.
         13    1    3    3    0    0  0.43927274750E+01  0.11765984853E+01 -0.23821416702E+02  0.24251604738E+02  0.00000000000E+00 0.  1.
        -13    1    3    3    0    0  0.26001198401E+03 -0.25960790352E+03 -0.21476776717E+03  0.42559098817E+03  0.00000000000E+00 0. -1.
          2    1    6    6  502    0  0.15723967858E+03  0.36136776825E+03 -0.48412908343E+03  0.62425311363E+03  0.00000000000E+00 0. -1.
          1    1    5    5  503    0 -0.38226049939E+03 -0.17837266035E+03 -0.10626839033E+04  0.11433446435E+04  0.00000000000E+00 0. -1.
         -2    1    5    5    0  503 -0.33997677011E+02  0.72655391737E+01 -0.72627141500E+02  0.80519139241E+02  0.00000000000E+00 0.  1.
         -3    1    6    6    0  502 -0.53862136604E+01  0.68170657956E+02 -0.88291184022E+02  0.11167624223E+03  0.00000000000E+00 0.  1.
<mgrwt>
<rscale>  0 0.14206269E+04</rscale>
<asrwt>0</asrwt>
<pdfrwt beam="1">  1        2 0.33507354E+00 0.14206269E+04</pdfrwt>
<pdfrwt beam="2">  1       -2 0.35639635E-01 0.14206269E+04</pdfrwt>
<totfact> 0.38257957E+01</totfact>
</mgrwt>
</event>
<event>
12    1  0.1556559E-007  0.1439664E+04  0.7818608E-02  0.8925598E-01
          2   -1    0    0  501    0  0.00000000000E+00  0.00000000000E+00  0.19423256226E+04  0.19423256226E+04  0.00000000000E+00 0. -1.
         -2   -1    0    0    0  501 -0.00000000000E+00 -0.00000000000E+00 -0.26677208650E+03  0.26677208650E+03  0.00000000000E+00 0.  1.
         23    2    1    2    0    0  0.20079389653E+03 -0.17756013677E+02  0.10947898035E+04  0.11168945625E+04  0.90858598725E+02 0.  0.
        254    2    1    2    0    0 -0.20079389653E+03  0.17756013677E+02  0.58076373258E+03  0.10922031466E+04  0.90276671152E+03 0.  0.
        -24    2    4    4    0    0 -0.26448431184E+03  0.40320477574E+03  0.47259527037E+03  0.67997446545E+03  0.80578791895E+02 0.  0.
         24    2    4    4    0    0  0.63690415305E+02 -0.38544876206E+03  0.10816846221E+03  0.41222868113E+03  0.74865560559E+02 0.  0.
         11    1    3    3    0    0  0.15618161455E+03  0.26193751042E+02  0.80090259043E+03  0.81640906945E+03  0.00000000000E+00 0. -1.
        -11    1    3    3    0    0  0.44612281978E+02 -0.43949764718E+02  0.29388721306E+03  0.30048549303E+03  0.00000000000E+00 0.  1.
          4    1    6    6  502    0  0.30151303296E+02 -0.46756800918E+02  0.29226746215E+02  0.62845065175E+02  0.00000000000E+00 0. -1.
          3    1    5    5  503    0 -0.18632285493E+02  0.62588242645E+01  0.77767623473E+01  0.21137951095E+02  0.00000000000E+00 0. -1.
         -4    1    5    5    0  503 -0.24585202634E+03  0.39694595147E+03  0.46481850803E+03  0.65883651436E+03  0.00000000000E+00 0.  1.
         -3    1    6    6    0  502  0.33539112009E+02 -0.33869196114E+03  0.78941715990E+02  0.34938361596E+03  0.00000000000E+00 0.  1.
<mgrwt>
<rscale>  0 0.14396642E+04</rscale>
<asrwt>0</asrwt>
<pdfrwt beam="1">  1        2 0.29881932E+00 0.14396642E+04</pdfrwt>
<pdfrwt beam="2">  1       -2 0.41041861E-01 0.14396642E+04</pdfrwt>
<totfact> 0.39267450E+01</totfact>
</mgrwt>
</event>
<event>
12    1  0.1556559E-007  0.2095198E+04  0.7818608E-02  0.8563361E-01
         -1   -1    0    0    0  501 -0.00000000000E+00  0.00000000000E+00  0.92652046060E+03  0.92652046060E+03  0.00000000000E+00 0.  1.
          1   -1    0    0  501    0  0.00000000000E+00 -0.00000000000E+00 -0.11845006371E+04  0.11845006371E+04  0.00000000000E+00 0. -1.
         23    2    1    2    0    0 -0.30858723016E+03  0.76555246187E+03 -0.33625638296E+03  0.89628927205E+03  0.94707199384E+02 0.  0.
        254    2    1    2    0    0  0.30858723016E+03 -0.76555246187E+03  0.78276206446E+02  0.12147318257E+04  0.88777789638E+03 0.  0.
        -24    2    4    4    0    0  0.18007545589E+03 -0.88367272831E+03  0.26861282474E+03  0.94448239924E+03  0.81175687729E+02 0.  0.
         24    2    4    4    0    0  0.12851177427E+03  0.11812026644E+03 -0.19033661829E+03  0.27024942643E+03  0.79618155917E+02 0.  0.
         13    1    3    3    0    0 -0.11942386452E+03  0.31183590007E+03 -0.18619272855E+03  0.38232371121E+03  0.00000000000E+00 0. -1.
        -13    1    3    3    0    0 -0.18916336564E+03  0.45371656180E+03 -0.15006365441E+03  0.51396556084E+03  0.00000000000E+00 0.  1.
          2    1    6    6  502    0  0.33323931736E+02 -0.38393495853E+01 -0.56384323978E+02  0.65608056076E+02  0.00000000000E+00 0. -1.
          3    1    5    5  503    0  0.64316914057E+02 -0.16792749505E+03  0.39637536239E+02  0.18413973853E+03  0.00000000000E+00 0. -1.
         -2    1    5    5    0  503  0.11575854183E+03 -0.71574523326E+03  0.22897528850E+03  0.76034266070E+03  0.00000000000E+00 0.  1.
         -1    1    6    6    0  502  0.95187842536E+02  0.12195961603E+03 -0.13395229432E+03  0.20464137035E+03  0.00000000000E+00 0.  1.
<mgrwt>
<rscale>  0 0.20951984E+04</rscale>
<asrwt>0</asrwt>
<pdfrwt beam="1">  1        1 0.18223087E+00 0.20951984E+04</pdfrwt>
<pdfrwt beam="2">  1       -1 0.14254161E+00 0.20951984E+04</pdfrwt>
<totfact> 0.40351822E+00</totfact>
</mgrwt>
</event>
<event>
12    1  0.1556559E-007  0.2997716E+04  0.7818608E-02  0.8244383E-01
          2   -1    0    0  501    0  0.00000000000E+00  0.00000000000E+00  0.25300357055E+04  0.25300357055E+04  0.00000000000E+00 0.  1.
         -2   -1    0    0    0  501 -0.00000000000E+00 -0.00000000000E+00 -0.88796210058E+03  0.88796210058E+03  0.00000000000E+00 0. -1.
         23    2    1    2    0    0 -0.65495149580E+03  0.11441957998E+04  0.33104290344E+03  0.13623433003E+04  0.90798535118E+02 0.  0.
        254    2    1    2    0    0  0.65495149580E+03 -0.11441957998E+04  0.13110307015E+04  0.20556545058E+04  0.87679442107E+03 0.  0.
        -24    2    4    4    0    0  0.29341488657E+03 -0.14872726613E+03  0.81680055277E+03  0.88423202397E+03  0.80566952704E+02 0.  0.
         24    2    4    4    0    0  0.36153660923E+03 -0.99546853362E+03  0.49423014874E+03  0.11714224818E+04  0.79378017810E+02 0.  0.
         11    1    3    3    0    0 -0.38585816925E+03  0.63506669589E+03  0.22833044988E+03  0.77738730975E+03  0.00000000000E+00 0. -1.
        -11    1    3    3    0    0 -0.26909332655E+03  0.50912910386E+03  0.10271245356E+03  0.58495599057E+03  0.00000000000E+00 0.  1.
          2    1    6    6  502    0  0.10946873630E+03 -0.39329670028E+03  0.21511773483E+03  0.46145567341E+03  0.00000000000E+00 0. -1.
          1    1    5    5  503    0  0.18120274848E+03 -0.11742628953E+03  0.44521151665E+03  0.49480972513E+03  0.00000000000E+00 0. -1.
         -2    1    5    5    0  503  0.11221213809E+03 -0.31300976602E+02  0.37158903612E+03  0.38942229884E+03  0.00000000000E+00 0.  1.
         -1    1    6    6    0  502  0.25206787293E+03 -0.60217183334E+03  0.27911241391E+03  0.70996680840E+03  0.00000000000E+00 0.  1.
<mgrwt>
<rscale>  0 0.29977163E+04</rscale>
<asrwt>0</asrwt>
<pdfrwt beam="1">  1        2 0.38923626E+00 0.29977163E+04</pdfrwt>
<pdfrwt beam="2">  1       -2 0.13660956E+00 0.29977163E+04</pdfrwt>
<totfact> 0.10954715E+00</totfact>
</mgrwt>
</event>
<event>
12    1  0.1556559E-007  0.3549932E+04  0.7818608E-02  0.8102058E-01
         -2   -1    0    0    0  501 -0.00000000000E+00  0.00000000000E+00  0.13721753385E+04  0.13721753385E+04  0.00000000000E+00 0.  1.
          2   -1    0    0  501    0  0.00000000000E+00 -0.00000000000E+00 -0.22959923497E+04  0.22959923497E+04  0.00000000000E+00 0. -1.
         23    2    1    2    0    0  0.14851022654E+04  0.56501729761E+03  0.67640063363E+02  0.15928978040E+04  0.89302578379E+02 0.  0.
        254    2    1    2    0    0 -0.14851022654E+04 -0.56501729761E+03 -0.99145707458E+03  0.20752698842E+04  0.89385942766E+03 0.  0.
        -24    2    4    4    0    0 -0.28028551883E+03 -0.44342902762E+03 -0.59694206428E+03  0.79863899618E+03  0.79341940411E+02 0.  0.
         24    2    4    4    0    0 -0.12048167466E+04 -0.12158827000E+03 -0.39451501030E+03  0.12766308881E+04  0.88188609205E+02 0.  0.
         13    1    3    3    0    0  0.81263887069E+03  0.34504111390E+03  0.84360165112E+01  0.88289663654E+03  0.00000000000E+00 0.  1.
        -13    1    3    3    0    0  0.67246339471E+03  0.21997618371E+03  0.59204046851E+02  0.71000116746E+03  0.00000000000E+00 0. -1.
          2    1    6    6  502    0 -0.11329670480E+04 -0.98515728235E+02 -0.38461944700E+03  0.12005214698E+04  0.00000000000E+00 0. -1.
          1    1    5    5  503    0 -0.28071122356E+03 -0.43145922892E+03 -0.56395650193E+03  0.76354619593E+03  0.00000000000E+00 0. -1.
         -2    1    5    5    0  503  0.42570473156E+00 -0.11969798695E+02 -0.32985562354E+02  0.35092800246E+02  0.00000000000E+00 0.  1.
         -1    1    6    6    0  502 -0.71849698600E+02 -0.23072541760E+02 -0.98955633034E+01  0.76109418243E+02  0.00000000000E+00 0.  1.
<mgrwt>
<rscale>  0 0.35499319E+04</rscale>
<asrwt>0</asrwt>
<pdfrwt beam="1">  1        2 0.35322959E+00 0.35499319E+04</pdfrwt>
<pdfrwt beam="2">  1       -2 0.21110390E+00 0.35499319E+04</pdfrwt>
<totfact> 0.42015034E-01</totfact>
</mgrwt>
</event>
<event>
12    1  0.1556559E-007  0.1239187E+04  0.7818608E-02  0.9079231E-01
          2   -1    0    0  501    0  0.00000000000E+00  0.00000000000E+00  0.21715099906E+04  0.21715099906E+04  0.00000000000E+00 0. -1.
         -2   -1    0    0    0  501 -0.00000000000E+00 -0.00000000000E+00 -0.17678776975E+03  0.17678776975E+03  0.00000000000E+00 0.  1.
         23    2    1    2    0    0  0.22551922213E+03 -0.13400389376E+03  0.25732389130E+03  0.37843946285E+03  0.90470320649E+02 0.  0.
        254    2    1    2    0    0 -0.22551922213E+03  0.13400389376E+03  0.17373983295E+04  0.19698582975E+04  0.89049019849E+03 0.  0.
        -24    2    4    4    0    0  0.19505903547E+03 -0.17837192043E+03  0.11321328850E+04  0.11653314071E+04  0.80049046846E+02 0.  0.
         24    2    4    4    0    0 -0.42057825760E+03  0.31237581419E+03  0.60526544452E+03  0.80452689031E+03  0.80327696636E+02 0.  0.
         11    1    3    3    0    0  0.10706747519E+03 -0.15246370882E+02  0.12107537697E+03  0.16234267146E+03  0.00000000000E+00 0. -1.
        -11    1    3    3    0    0  0.11845174694E+03 -0.11875752288E+03  0.13624851433E+03  0.21609679139E+03  0.00000000000E+00 0.  1.
          4    1    6    6  502    0 -0.12553768839E+03  0.54125585560E+02  0.18092339018E+03  0.22676543681E+03  0.00000000000E+00 0. -1.
          3    1    5    5  503    0 -0.63702195701E+01 -0.91218940367E+01  0.24946263552E+02  0.27314917415E+02  0.00000000000E+00 0. -1.
         -4    1    5    5    0  503  0.20142925504E+03 -0.16925002640E+03  0.11071866214E+04  0.11380164897E+04  0.00000000000E+00 0.  1.
         -3    1    6    6    0  502 -0.29504056920E+03  0.25825022863E+03  0.42434205434E+03  0.57776145350E+03  0.00000000000E+00 0.  1.
<mgrwt>
<rscale>  0 0.12391875E+04</rscale>
<asrwt>0</asrwt>
<pdfrwt beam="1">  1        2 0.33407844E+00 0.12391875E+04</pdfrwt>
<pdfrwt beam="2">  1       -2 0.27198120E-01 0.12391875E+04</pdfrwt>
<totfact> 0.65007178E+01</totfact>
</mgrwt>
</event>
<event>
12    1  0.1556559E-007  0.1764254E+04  0.7818608E-02  0.8725543E-01
          1   -1    0    0  501    0  0.00000000000E+00  0.00000000000E+00  0.16882434463E+04  0.16882434463E+04  0.00000000000E+00 0. -1.
         -1   -1    0    0    0  501 -0.00000000000E+00 -0.00000000000E+00 -0.46092146134E+03  0.46092146134E+03  0.00000000000E+00 0.  1.
         23    2    1    2    0    0  0.13637884121E+03 -0.55515249319E+03  0.83930245318E+03  0.10195376152E+04  0.90746139746E+02 0.  0.
        254    2    1    2    0    0 -0.13637884121E+03  0.55515249319E+03  0.38801953182E+03  0.11296272925E+04  0.89370307363E+03 0.  0.
        -24    2    4    4    0    0  0.15842756456E+02 -0.22011737569E+03  0.21254769397E+03  0.31668200186E+03  0.80051958622E+02 0.  0.
         24    2    4    4    0    0 -0.15222159766E+03  0.77526986888E+03  0.17547183785E+03  0.81294529062E+03  0.76647865417E+02 0.  0.
         13    1    3    3    0    0  0.66765046634E+01 -0.24987932184E+02  0.12241060289E+02  0.28614961582E+02  0.00000000000E+00 0.  1.
        -13    1    3    3    0    0  0.12970233654E+03 -0.53016456101E+03  0.82706139289E+03  0.99092265362E+03  0.00000000000E+00 0. -1.
          4    1    6    6  502    0 -0.31060535832E+02  0.25842213157E+03  0.89071608586E+02  0.27510090227E+03  0.00000000000E+00 0. -1.
          3    1    5    5  503    0  0.21911309697E+02 -0.14631263633E+02  0.10274296805E+02  0.28279684280E+02  0.00000000000E+00 0. -1.
         -4    1    5    5    0  503 -0.60685532410E+01 -0.20548611206E+03  0.20227339716E+03  0.28840231758E+03  0.00000000000E+00 0.  1.
         -3    1    6    6    0  502 -0.12116106183E+03  0.51684773731E+03  0.86400229269E+02  0.53784438835E+03  0.00000000000E+00 0.  1.
<mgrwt>
<rscale>  0 0.17642535E+04</rscale>
<asrwt>0</asrwt>
<pdfrwt beam="1">  1        1 0.25972976E+00 0.17642535E+04</pdfrwt>
<pdfrwt beam="2">  1       -1 0.70910995E-01 0.17642535E+04</pdfrwt>
<totfact> 0.92309304E+00</totfact>
</mgrwt>
</event>
<event>
12    1  0.1556559E-007  0.1603346E+04  0.7818608E-02  0.8818495E-01
         -1   -1    0    0    0  501 -0.00000000000E+00  0.00000000000E+00  0.14670273553E+04  0.14670273553E+04  0.00000000000E+00 0.  1.
          1   -1    0    0  501    0  0.00000000000E+00 -0.00000000000E+00 -0.43808310115E+03  0.43808310115E+03  0.00000000000E+00 0. -1.
         23    2    1    2    0    0 -0.32801813749E+02 -0.10973692439E+03 -0.27881971813E+03  0.31495792527E+03  0.91323096278E+02 0.  0.
        254    2    1    2    0    0  0.32801813749E+02  0.10973692439E+03  0.13077639723E+04  0.15901525312E+04  0.89734068989E+03 0.  0.
        -24    2    4    4    0    0  0.21434283270E+03  0.27177750181E+03  0.11987054644E+03  0.37509242835E+03  0.80743553797E+02 0.  0.
         24    2    4    4    0    0 -0.18154101895E+03 -0.16204057742E+03  0.11878934259E+04  0.12150601029E+04  0.77884350608E+02 0.  0.
         11    1    3    3    0    0 -0.53827724823E+02 -0.55862617876E+02 -0.97252538584E+02  0.12440302366E+03  0.00000000000E+00 0.  1.
        -11    1    3    3    0    0  0.21025911074E+02 -0.53874306512E+02 -0.18156717954E+03  0.19055490160E+03  0.00000000000E+00 0. -1.
          4    1    6    6  502    0 -0.78687696493E+02 -0.86166365881E+02  0.74537736854E+03  0.75445597468E+03  0.00000000000E+00 0. -1.
          3    1    5    5  503    0  0.16269845217E+03  0.17668706124E+03  0.11620767122E+03  0.26682077655E+03  0.00000000000E+00 0. -1.
         -4    1    5    5    0  503  0.51644380530E+02  0.95090440572E+02  0.36628752200E+01  0.10827165180E+03  0.00000000000E+00 0.  1.
         -3    1    6    6    0  502 -0.10285332246E+03 -0.75874211539E+02  0.44251605734E+03  0.46060412821E+03  0.00000000000E+00 0.  1.
<mgrwt>
<rscale>  0 0.16033464E+04</rscale>
<asrwt>0</asrwt>
<pdfrwt beam="1">  1        1 0.67397401E-01 0.16033464E+04</pdfrwt>
<pdfrwt beam="2">  1       -1 0.22569651E+00 0.16033464E+04</pdfrwt>
<totfact> 0.51351489E+00</totfact>
</mgrwt>
</event>
<event>
12    1  0.1556559E-007  0.2762939E+04  0.7818608E-02  0.8314867E-01
          2   -1    0    0  501    0  0.00000000000E+00  0.00000000000E+00  0.32488883283E+04  0.32488883283E+04  0.00000000000E+00 0. -1.
         -2   -1    0    0    0  501 -0.00000000000E+00 -0.00000000000E+00 -0.58741894754E+03  0.58741894754E+03  0.00000000000E+00 0.  1.
         23    2    1    2    0    0  0.47141799630E+03  0.28839858215E+02 -0.38868545900E+03  0.61886802549E+03  0.94098789995E+02 0.  0.
        254    2    1    2    0    0 -0.47141799630E+03 -0.28839858215E+02  0.30501548397E+04  0.32174392503E+04  0.90851753887E+03 0.  0.
        -24    2    4    4    0    0 -0.37613223596E+02 -0.39037283565E+02 -0.35060366449E+02  0.10074968573E+03  0.77347306231E+02 0.  0.
         24    2    4    4    0    0 -0.43380477271E+03  0.10197425350E+02  0.30852152062E+04  0.31166895646E+04  0.83128847105E+02 0.  0.
         13    1    3    3    0    0  0.47033525406E+02 -0.14432048583E+02 -0.73623530332E+02  0.88548634981E+02  0.00000000000E+00 0. -1.
        -13    1    3    3    0    0  0.42438447090E+03  0.43271906798E+02 -0.31506192867E+03  0.53031939051E+03  0.00000000000E+00 0.  1.
          4    1    6    6  502    0 -0.27838682850E+02 -0.17279438441E+02  0.32447384237E+03  0.32612397280E+03  0.00000000000E+00 0. -1.
          1    1    5    5  503    0  0.15167812623E+02 -0.37767187059E+02 -0.82139166189E+01  0.41519771005E+02  0.00000000000E+00 0. -1.
         -2    1    5    5    0  503 -0.52781036219E+02 -0.12700965059E+01 -0.26846449830E+02  0.59229914722E+02  0.00000000000E+00 0.  1.
         -3    1    6    6    0  502 -0.40596608986E+03  0.27476863791E+02  0.27607413638E+04  0.27905655918E+04  0.00000000000E+00 0.  1.
<mgrwt>
<rscale>  0 0.27629394E+04</rscale>
<asrwt>0</asrwt>
<pdfrwt beam="1">  1        2 0.49982896E+00 0.27629394E+04</pdfrwt>
<pdfrwt beam="2">  1       -2 0.90372148E-01 0.27629394E+04</pdfrwt>
<totfact> 0.11000461E+00</totfact>
</mgrwt>
</event>
<event>
12    1  0.1556559E-007  0.1533905E+04  0.7818608E-02  0.8862214E-01
          1   -1    0    0  501    0  0.00000000000E+00  0.00000000000E+00  0.61789146468E+03  0.61789146468E+03  0.00000000000E+00 0. -1.
         -1   -1    0    0    0  501 -0.00000000000E+00 -0.00000000000E+00 -0.95197349048E+03  0.95197349048E+03  0.00000000000E+00 0.  1.
         23    2    1    2    0    0  0.27333922378E+02 -0.28434808935E+03  0.29837185965E+03  0.42475168285E+03  0.98930512111E+02 0.  0.
        254    2    1    2    0    0 -0.27333922378E+02  0.28434808935E+03 -0.63245388544E+03  0.11451132723E+04  0.91087074274E+03 0.  0.
        -24    2    4    4    0    0 -0.34767738258E+03 -0.11982952610E+02  0.18686257615E+02  0.35701154985E+03  0.78005877926E+02 0.  0.
         24    2    4    4    0    0  0.32034346020E+03  0.29633104196E+03 -0.65114014305E+03  0.78810172246E+03  0.81785207226E+02 0.  0.
         13    1    3    3    0    0 -0.18358327304E+02 -0.18295185092E+03  0.22896493306E+03  0.29365515236E+03  0.00000000000E+00 0. -1.
        -13    1    3    3    0    0  0.45692249681E+02 -0.10139623843E+03  0.69406926589E+02  0.13109653050E+03  0.00000000000E+00 0.  1.
          2    1    6    6  502    0  0.20410043294E+03  0.23464497041E+03 -0.48526443782E+03  0.57636518239E+03  0.00000000000E+00 0. -1.
          3    1    5    5  503    0 -0.34699793136E+03 -0.29557103906E+01  0.15304826400E+02  0.34734786354E+03  0.00000000000E+00 0. -1.
         -4    1    5    5    0  503 -0.67945121812E+00 -0.90272422199E+01  0.33814312150E+01  0.96636863110E+01  0.00000000000E+00 0.  1.
         -1    1    6    6    0  502  0.11624302727E+03  0.61686071551E+02 -0.16587570524E+03  0.21173654007E+03  0.00000000000E+00 0.  1.
<mgrwt>
<rscale>  0 0.15339052E+04</rscale>
<asrwt>0</asrwt>
<pdfrwt beam="1">  1        1 0.95060226E-01 0.15339052E+04</pdfrwt>
<pdfrwt beam="2">  1       -1 0.14645746E+00 0.15339052E+04</pdfrwt>
<totfact> 0.11778587E+01</totfact>
</mgrwt>
</event>
<event>
12    1  0.1556559E-007  0.1930838E+04  0.7818608E-02  0.8639657E-01
         -2   -1    0    0    0  501 -0.00000000000E+00  0.00000000000E+00  0.12899033946E+04  0.12899033946E+04  0.00000000000E+00 0. -1.
          2   -1    0    0  501    0  0.00000000000E+00 -0.00000000000E+00 -0.72256099341E+03  0.72256099341E+03  0.00000000000E+00 0.  1.
         23    2    1    2    0    0  0.14623255315E+03 -0.64745501963E+03  0.58420584456E+03  0.88931479347E+03  0.94880825368E+02 0.  0.
        254    2    1    2    0    0 -0.14623255315E+03  0.64745501963E+03 -0.16863443335E+02  0.11231495946E+04  0.90586901593E+03 0.  0.
        -24    2    4    4    0    0  0.24592484947E+03  0.25121187853E+03 -0.32049948795E+03  0.48331628063E+03  0.85371340864E+02 0.  0.
         24    2    4    4    0    0 -0.39215740262E+03  0.39624314110E+03  0.30363604462E+03  0.63983331395E+03  0.79973537787E+02 0.  0.
         13    1    3    3    0    0  0.40277140732E+02 -0.33250913584E+03  0.33717630619E+03  0.47526038645E+03  0.00000000000E+00 0. -1.
        -13    1    3    3    0    0  0.10595541242E+03 -0.31494588380E+03  0.24702953837E+03  0.41405440701E+03  0.00000000000E+00 0.  1.
          4    1    6    6  502    0 -0.21743101707E+03  0.24637476125E+03  0.21745379931E+03  0.39403416730E+03  0.00000000000E+00 0. -1.
          3    1    5    5  503    0  0.20538449514E+03  0.23709151137E+03 -0.30543901489E+03  0.43782207279E+03  0.00000000000E+00 0. -1.
         -4    1    5    5    0  503  0.40540354327E+02  0.14120367162E+02 -0.15060473066E+02  0.45494207837E+02  0.00000000000E+00 0.  1.
         -3    1    6    6    0  502 -0.17472638554E+03  0.14986837985E+03  0.86182245305E+02  0.24579914664E+03  0.00000000000E+00 0.  1.
<mgrwt>
<rscale>  0 0.19308380E+04</rscale>
<asrwt>0</asrwt>
<pdfrwt beam="1">  1        2 0.11116323E+00 0.19308380E+04</pdfrwt>
<pdfrwt beam="2">  1       -2 0.19844668E+00 0.19308380E+04</pdfrwt>
<totfact> 0.50025247E+00</totfact>
</mgrwt>
</event>
<event>
12    1  0.1556559E-007  0.1830457E+04  0.7818608E-02  0.8690268E-01
         -1   -1    0    0    0  501 -0.00000000000E+00  0.00000000000E+00  0.17741864676E+04  0.17741864676E+04  0.00000000000E+00 0.  1.
          1   -1    0    0  501    0  0.00000000000E+00 -0.00000000000E+00 -0.47212816366E+03  0.47212816366E+03  0.00000000000E+00 0. -1.
         23    2    1    2    0    0 -0.53616521204E+03 -0.15173787152E+03 -0.11435963363E+02  0.56450430505E+03  0.89648273328E+02 0.  0.
        254    2    1    2    0    0  0.53616521204E+03  0.15173787152E+03  0.13134942673E+04  0.16818103262E+04  0.89034895791E+03 0.  0.
        -24    2    4    4    0    0  0.32810045144E+03  0.51135261365E+03  0.91487541804E+03  0.11011116021E+04  0.79487910850E+02 0.  0.
         24    2    4    4    0    0  0.20806476060E+03 -0.35961474213E+03  0.39861884926E+03  0.58069872413E+03  0.75500422930E+02 0.  0.
         13    1    3    3    0    0 -0.52505077291E+03 -0.13228927573E+03 -0.61780913980E+01  0.54149509270E+03  0.00000000000E+00 0. -1.
        -13    1    3    3    0    0 -0.11114439131E+02 -0.19448595794E+02 -0.52578719655E+01  0.23009212354E+02  0.00000000000E+00 0.  1.
          4    1    6    6  502    0 -0.16008317431E+01 -0.16751270607E+02  0.34526284419E+02  0.38408749589E+02  0.00000000000E+00 0. -1.
          3    1    5    5  503    0  0.15448241820E+03  0.23244165261E+03  0.35010856002E+03  0.44773869969E+03  0.00000000000E+00 0. -1.
         -4    1    5    5    0  503  0.17361803324E+03  0.27891096104E+03  0.56476685802E+03  0.65337290239E+03  0.00000000000E+00 0.  1.
         -3    1    6    6    0  502  0.20966559234E+03 -0.34286347152E+03  0.36409256484E+03  0.54228997454E+03  0.00000000000E+00 0.  1.
<mgrwt>
<rscale>  0 0.18304572E+04</rscale>
<asrwt>0</asrwt>
<pdfrwt beam="1">  1        1 0.72635103E-01 0.18304572E+04</pdfrwt>
<pdfrwt beam="2">  1       -1 0.27295176E+00 0.18304572E+04</pdfrwt>
<totfact> 0.22327607E+00</totfact>
</mgrwt>
</event>
<event>
12    1  0.1556559E-007  0.1542563E+04  0.7818608E-02  0.8856632E-01
          2   -1    0    0  501    0  0.00000000000E+00  0.00000000000E+00  0.31790190999E+04  0.31790190999E+04  0.00000000000E+00 0. -1.
         -2   -1    0    0    0  501 -0.00000000000E+00 -0.00000000000E+00 -0.18712533378E+03  0.18712533378E+03  0.00000000000E+00 0.  1.
         23    2    1    2    0    0  0.15626100868E+03  0.92422213408E+01  0.20890622698E+04  0.20969181124E+04  0.91550433361E+02 0.  0.
        254    2    1    2    0    0 -0.15626100868E+03 -0.92422213408E+01  0.90283149637E+03  0.12692263212E+04  0.87825270977E+03 0.  0.
        -24    2    4    4    0    0 -0.26916671681E+03  0.38126739033E+03  0.53356279803E+03  0.71427204703E+03  0.87634201983E+02 0.  0.
         24    2    4    4    0    0  0.11290570814E+03 -0.39050961167E+03  0.36926869834E+03  0.55495427421E+03  0.79808640841E+02 0.  0.
         13    1    3    3    0    0  0.14998327167E+03  0.33176758155E+02  0.19079196614E+04  0.19140932875E+04  0.00000000000E+00 0. -1.
        -13    1    3    3    0    0  0.62777370108E+01 -0.23934536815E+02  0.18114260840E+03  0.18282482494E+03  0.00000000000E+00 0.  1.
          2    1    6    6  502    0  0.63727190612E+02 -0.32884648703E+03  0.30855914591E+03  0.45542278531E+03  0.00000000000E+00 0. -1.
          1    1    5    5  503    0 -0.11029880166E+03  0.21666627896E+03  0.31469367564E+03  0.39767098408E+03  0.00000000000E+00 0. -1.
         -2    1    5    5    0  503 -0.15886791515E+03  0.16460111137E+03  0.21886912239E+03  0.31660106296E+03  0.00000000000E+00 0.  1.
         -1    1    6    6    0  502  0.49178517524E+02 -0.61663124647E+02  0.60709552427E+02  0.99531488902E+02  0.00000000000E+00 0.  1.
<mgrwt>
<rscale>  0 0.15425628E+04</rscale>
<asrwt>0</asrwt>
<pdfrwt beam="1">  1        2 0.48907982E+00 0.15425628E+04</pdfrwt>
<pdfrwt beam="2">  1       -2 0.28788515E-01 0.15425628E+04</pdfrwt>
<totfact> 0.14396422E+01</totfact>
</mgrwt>
</event>
<event>
12    1  0.1556559E-007  0.1334450E+04  0.7818608E-02  0.9002683E-01
          1   -1    0    0  501    0  0.00000000000E+00  0.00000000000E+00  0.74900850655E+03  0.74900850655E+03  0.00000000000E+00 0. -1.
         -1   -1    0    0    0  501 -0.00000000000E+00 -0.00000000000E+00 -0.59437175531E+03  0.59437175531E+03  0.00000000000E+00 0.  1.
         23    2    1    2    0    0 -0.26848400925E+03 -0.16698944064E+03 -0.12314923469E+03  0.35103522295E+03  0.89949192550E+02 0.  0.
        254    2    1    2    0    0  0.26848400925E+03  0.16698944064E+03  0.27778598593E+03  0.99234503891E+03  0.89867373711E+03 0.  0.
        -24    2    4    4    0    0  0.52484562344E+03  0.13088397818E+03 -0.69469001192E+02  0.55110208128E+03  0.79334845308E+02 0.  0.
         24    2    4    4    0    0 -0.25636161420E+03  0.36105462463E+02  0.34725498712E+03  0.44124295763E+03  0.84169115010E+02 0.  0.
         13    1    3    3    0    0 -0.13830916209E+03 -0.59188193651E+02 -0.99508014032E+02  0.18037325590E+03  0.00000000000E+00 0.  1.
        -13    1    3    3    0    0 -0.13017484715E+03 -0.10780124699E+03 -0.23641220658E+02  0.17066196705E+03  0.00000000000E+00 0. -1.
          4    1    6    6  502    0 -0.23360501522E+03  0.15804195054E+02  0.26554282427E+03  0.35402551778E+03  0.00000000000E+00 0. -1.
          1    1    5    5  503    0  0.43390496977E+03  0.92876302050E+02 -0.83570977548E+02  0.45153475898E+03  0.00000000000E+00 0. -1.
         -2    1    5    5    0  503  0.90940653667E+02  0.38007676128E+02  0.14101976356E+02  0.99567322306E+02  0.00000000000E+00 0.  1.
         -3    1    6    6    0  502 -0.22756598971E+02  0.20301267410E+02  0.81712162853E+02  0.87217439845E+02  0.00000000000E+00 0.  1.
<mgrwt>
<rscale>  0 0.13344504E+04</rscale>
<asrwt>0</asrwt>
<pdfrwt beam="1">  1        1 0.11523208E+00 0.13344504E+04</pdfrwt>
<pdfrwt beam="2">  1       -1 0.91441808E-01 0.13344504E+04</pdfrwt>
<totfact> 0.28061119E+01</totfact>
</mgrwt>
</event>
<event>
12    1  0.1556559E-007  0.2338674E+04  0.7818608E-02  0.8462827E-01
         -2   -1    0    0    0  501 -0.00000000000E+00  0.00000000000E+00  0.55931917141E+03  0.55931917141E+03  0.00000000000E+00 0. -1.
          2   -1    0    0  501    0  0.00000000000E+00 -0.00000000000E+00 -0.24446671603E+04  0.24446671603E+04  0.00000000000E+00 0.  1.
         23    2    1    2    0    0 -0.91567465295E+03  0.31932590877E+03 -0.55232770325E+03  0.11213422893E+04  0.10914912696E+03 0.  0.
        254    2    1    2    0    0  0.91567465295E+03 -0.31932590877E+03 -0.13330202856E+04  0.18826440424E+04  0.90938242915E+03 0.  0.
        -24    2    4    4    0    0  0.47326821417E+03 -0.57543601805E+03 -0.49577509169E+03  0.89840792836E+03  0.78958538391E+02 0.  0.
         24    2    4    4    0    0  0.44240643878E+03  0.25611010928E+03 -0.83724519394E+03  0.98423611405E+03  0.80158394872E+02 0.  0.
         13    1    3    3    0    0 -0.83498833214E+03  0.32184715779E+03 -0.49901451178E+03  0.10246006982E+04  0.00000000000E+00 0.  1.
        -13    1    3    3    0    0 -0.80686320814E+02 -0.25212490207E+01 -0.53313191474E+02  0.96741591098E+02  0.00000000000E+00 0. -1.
          2    1    6    6  502    0  0.28815262238E+03  0.12238214778E+03 -0.52080001663E+03  0.60765284596E+03  0.00000000000E+00 0. -1.
          3    1    5    5  503    0  0.40141103919E+03 -0.51096123910E+03 -0.40355677295E+03  0.76489886864E+03  0.00000000000E+00 0. -1.
         -4    1    5    5    0  503  0.71857174979E+02 -0.64474778950E+02 -0.92218318744E+02  0.13350905972E+03  0.00000000000E+00 0.  1.
         -1    1    6    6    0  502  0.15425381640E+03  0.13372796150E+03 -0.31644517731E+03  0.37658326809E+03  0.00000000000E+00 0.  1.
<mgrwt>
<rscale>  0 0.23386742E+04</rscale>
<asrwt>0</asrwt>
<pdfrwt beam="1">  1        2 0.37610264E+00 0.23386742E+04</pdfrwt>
<pdfrwt beam="2">  1       -2 0.86049103E-01 0.23386742E+04</pdfrwt>
<totfact> 0.39674859E+00</totfact>
</mgrwt>
</event>
<event>
12    1  0.1556559E-007  0.1256932E+04  0.7818608E-02  0.9064433E-01
          2   -1    0    0  501    0  0.00000000000E+00  0.00000000000E+00  0.24547112611E+04  0.24547112611E+04  0.00000000000E+00 0. -1.
         -2   -1    0    0    0  501 -0.00000000000E+00 -0.00000000000E+00 -0.16090269983E+03  0.16090269983E+03  0.00000000000E+00 0.  1.
         23    2    1    2    0    0  0.15211044046E+03  0.23347395450E+03  0.82427237921E+03  0.87437567325E+03  0.86372387444E+02 0.  0.
        254    2    1    2    0    0 -0.15211044046E+03 -0.23347395450E+03  0.14695361821E+04  0.17412382877E+04  0.89147434655E+03 0.  0.
        -24    2    4    4    0    0 -0.46734475408E+03 -0.21759528773E+03  0.12328324730E+04  0.13387119569E+04  0.80715355321E+02 0.  0.
         24    2    4    4    0    0  0.31523431361E+03 -0.15878666771E+02  0.23670370906E+03  0.40252633080E+03  0.79837313132E+02 0.  0.
         13    1    3    3    0    0  0.14453327917E+03  0.24072274538E+03  0.80267458824E+03  0.85036686409E+03  0.00000000000E+00 0. -1.
        -13    1    3    3    0    0  0.75771612944E+01 -0.72487908833E+01  0.21597790974E+02  0.24008809165E+02  0.00000000000E+00 0.  1.
          2    1    6    6  502    0  0.26146638374E+03 -0.43453415087E+02  0.19650708203E+03  0.32995136368E+03  0.00000000000E+00 0. -1.
          1    1    5    5  503    0 -0.46737427689E+03 -0.21468753484E+03  0.12328191013E+04  0.13358040234E+04  0.00000000000E+00 0. -1.
         -2    1    5    5    0  503  0.29522816503E-01 -0.29077528879E+01  0.13371699010E-01  0.29079335027E+01  0.00000000000E+00 0.  1.
         -1    1    6    6    0  502  0.53767929878E+02  0.27574748317E+02  0.40196627026E+02  0.72574967119E+02  0.00000000000E+00 0.  1.
<mgrwt>
<rscale>  0 0.12569322E+04</rscale>
<asrwt>0</asrwt>
<pdfrwt beam="1">  1        2 0.37764786E+00 0.12569322E+04</pdfrwt>
<pdfrwt beam="2">  1       -2 0.24754263E-01 0.12569322E+04</pdfrwt>
<totfact> 0.53348893E+01</totfact>
</mgrwt>
</event>
<event>
12    1  0.1556559E-007  0.2249610E+04  0.7818608E-02  0.8498059E-01
          2   -1    0    0  501    0  0.00000000000E+00  0.00000000000E+00  0.16889868022E+04  0.16889868022E+04  0.00000000000E+00 0. -1.
         -2   -1    0    0    0  501 -0.00000000000E+00 -0.00000000000E+00 -0.74907975327E+03  0.74907975327E+03  0.00000000000E+00 0.  1.
         23    2    1    2    0    0 -0.32608728182E+03 -0.63612127267E+03  0.10534908448E+04  0.12764898576E+04  0.92737303936E+02 0.  0.
        254    2    1    2    0    0  0.32608728182E+03  0.63612127267E+03 -0.11358379582E+03  0.11615766979E+04  0.90850204049E+03 0.  0.
        -24    2    4    4    0    0 -0.85395673255E+02  0.71714131489E+03 -0.42352991282E+02  0.72789992625E+03  0.80376863733E+02 0.  0.
         24    2    4    4    0    0  0.41148295507E+03 -0.81020042226E+02 -0.71230804540E+02  0.43367677167E+03  0.84375619792E+02 0.  0.
         13    1    3    3    0    0 -0.87778710513E+02 -0.13077503835E+03  0.29523540861E+03  0.33462091861E+03  0.00000000000E+00 0.  1.
        -13    1    3    3    0    0 -0.23830857131E+03 -0.50534623431E+03  0.75825543615E+03  0.94186893894E+03  0.00000000000E+00 0. -1.
          4    1    6    6  502    0 -0.31999268237E+01  0.12325153009E+01  0.28682029419E+01  0.44704824974E+01  0.00000000000E+00 0. -1.
          3    1    5    5  503    0 -0.65323698967E+02  0.31831628901E+03 -0.48336627136E+02  0.32852530347E+03  0.00000000000E+00 0. -1.
         -4    1    5    5    0  503 -0.20071974288E+02  0.39882502588E+03  0.59836358543E+01  0.39937462278E+03  0.00000000000E+00 0.  1.
         -3    1    6    6    0  502  0.41468288190E+03 -0.82252557527E+02 -0.74099007482E+02  0.42920628918E+03  0.00000000000E+00 0.  1.
<mgrwt>
<rscale>  0 0.22496096E+04</rscale>
<asrwt>0</asrwt>
<pdfrwt beam="1">  1        2 0.25984412E+00 0.22496096E+04</pdfrwt>
<pdfrwt beam="2">  1       -2 0.11524304E+00 0.22496096E+04</pdfrwt>
<totfact> 0.53121109E+00</totfact>
</mgrwt>
</event>
<event>
12    1  0.1556559E-007  0.2031316E+04  0.7818608E-02  0.8592118E-01
         -1   -1    0    0    0  501 -0.00000000000E+00  0.00000000000E+00  0.36691472686E+03  0.36691472686E+03  0.00000000000E+00 0.  1.
          1   -1    0    0  501    0  0.00000000000E+00 -0.00000000000E+00 -0.28114472984E+04  0.28114472984E+04  0.00000000000E+00 0. -1.
         23    2    1    2    0    0  0.87242739941E+02 -0.13079673794E+03  0.26397619687E+03  0.31990327088E+03  0.89081916660E+02 0.  0.
        254    2    1    2    0    0 -0.87242739941E+02  0.13079673794E+03 -0.27085087684E+04  0.28584587544E+04  0.90002645498E+03 0.  0.
        -24    2    4    4    0    0 -0.35577418035E+02  0.11381389966E+02  0.46402662963E+02  0.99349384623E+02  0.79509775395E+02 0.  0.
         24    2    4    4    0    0 -0.51665321906E+02  0.11941534797E+03 -0.27549114313E+04  0.27591093697E+04  0.78855493215E+02 0.  0.
         13    1    3    3    0    0  0.47947508741E+02 -0.65284337378E+02  0.21347652856E+03  0.22832703858E+03  0.00000000000E+00 0.  1.
        -13    1    3    3    0    0  0.39295231201E+02 -0.65512400562E+02  0.50499668316E+02  0.91576232301E+02  0.00000000000E+00 0. -1.
          4    1    6    6  502    0 -0.18224799193E+02 -0.80308691372E+01 -0.44117018404E+03  0.44161948491E+03  0.00000000000E+00 0. -1.
          3    1    5    5  503    0  0.23545939457E+02  0.15510301988E+02  0.10689846317E+02  0.30153831381E+02  0.00000000000E+00 0. -1.
         -4    1    5    5    0  503 -0.59123357493E+02 -0.41289120216E+01  0.35712816646E+02  0.69195553242E+02  0.00000000000E+00 0.  1.
         -3    1    6    6    0  502 -0.33440522713E+02  0.12744621711E+03 -0.23137412473E+04  0.23174898848E+04  0.00000000000E+00 0.  1.
<mgrwt>
<rscale>  0 0.20313162E+04</rscale>
<asrwt>0</asrwt>
<pdfrwt beam="1">  1        1 0.43253034E+00 0.20313162E+04</pdfrwt>
<pdfrwt beam="2">  1       -1 0.56448421E-01 0.20313162E+04</pdfrwt>
<totfact> 0.24058160E+00</totfact>
</mgrwt>
</event>
<event>
12    1  0.1556559E-007  0.2349515E+04  0.7818608E-02  0.8458650E-01
          2   -1    0    0  501    0  0.00000000000E+00  0.00000000000E+00  0.26577965211E+04  0.26577965211E+04  0.00000000000E+00 0. -1.
         -2   -1    0    0    0  501 -0.00000000000E+00 -0.00000000000E+00 -0.51924796729E+03  0.51924796729E+03  0.00000000000E+00 0.  1.
         23    2    1    2    0    0 -0.86847647718E+03  0.37372532598E+03  0.47380365854E+03  0.10611829551E+04  0.87734524046E+02 0.  0.
        254    2    1    2    0    0  0.86847647718E+03 -0.37372532598E+03  0.16647448953E+04  0.21158615333E+04  0.90087316032E+03 0.  0.
        -24    2    4    4    0    0  0.20600791166E+02 -0.16851561365E+03  0.99647812731E+03  0.10140197316E+04  0.80283580644E+02 0.  0.
         24    2    4    4    0    0  0.84787568602E+03 -0.20520971233E+03  0.66826676800E+03  0.11018418017E+04  0.80440522791E+02 0.  0.
         13    1    3    3    0    0 -0.78791236629E+03  0.35901817772E+03  0.41375733491E+03  0.95963278450E+03  0.00000000000E+00 0.  1.
        -13    1    3    3    0    0 -0.80564110888E+02  0.14707148256E+02  0.60046323630E+02  0.10155017063E+03  0.00000000000E+00 0. -1.
          2    1    6    6  502    0  0.23373961978E+02 -0.48888557649E+01  0.37999695916E+02  0.44880061263E+02  0.00000000000E+00 0. -1.
          3    1    5    5  503    0  0.35983244329E+02 -0.34460173862E+02  0.35704953161E+03  0.36050889792E+03  0.00000000000E+00 0. -1.
         -4    1    5    5    0  503 -0.15382453163E+02 -0.13405543979E+03  0.63942859570E+03  0.65351083373E+03  0.00000000000E+00 0.  1.
         -1    1    6    6    0  502  0.82450172404E+03 -0.20032085656E+03  0.63026707208E+03  0.10569617404E+04  0.00000000000E+00 0.  1.
<mgrwt>
<rscale>  0 0.23495152E+04</rscale>
<asrwt>0</asrwt>
<pdfrwt beam="1">  1        2 0.40889176E+00 0.23495152E+04</pdfrwt>
<pdfrwt beam="2">  1       -2 0.79884304E-01 0.23495152E+04</pdfrwt>
<totfact> 0.35232178E+00</totfact>
</mgrwt>
</event>
<event>
12    1  0.1556559E-007  0.2591158E+04  0.7818608E-02  0.8371211E-01
          2   -1    0    0  501    0  0.00000000000E+00  0.00000000000E+00  0.28505361487E+04  0.28505361487E+04  0.00000000000E+00 0. -1.
         -2   -1    0    0    0  501 -0.00000000000E+00 -0.00000000000E+00 -0.58884557139E+03  0.58884557139E+03  0.00000000000E+00 0.  1.
         23    2    1    2    0    0 -0.40014468382E+03 -0.90905841062E+03  0.26092958553E+03  0.10308505097E+04  0.89808479063E+02 0.  0.
        254    2    1    2    0    0  0.40014468382E+03  0.90905841062E+03  0.20007609917E+04  0.24085312103E+04  0.90081911787E+03 0.  0.
        -24    2    4    4    0    0 -0.16387933176E+03  0.67612242056E+03  0.12960658791E+04  0.14730864893E+04  0.78734230405E+02 0.  0.
         24    2    4    4    0    0  0.56402401558E+03  0.23293599006E+03  0.70469511267E+03  0.93544472105E+03  0.77970242362E+02 0.  0.
         13    1    3    3    0    0 -0.33728984048E+03 -0.72330508774E+03  0.24134305634E+03  0.83377524387E+03  0.00000000000E+00 0.  1.
        -13    1    3    3    0    0 -0.62854843336E+02 -0.18575332288E+03  0.19586529195E+02  0.19707526587E+03  0.00000000000E+00 0. -1.
          4    1    6    6  502    0  0.42206414785E+03  0.19853916877E+03  0.57236861494E+03  0.73835071464E+03  0.00000000000E+00 0. -1.
          1    1    5    5  503    0 -0.43122260589E+02  0.71049012489E+02  0.14997318870E+03  0.17146267484E+03  0.00000000000E+00 0. -1.
         -2    1    5    5    0  503 -0.12075707118E+03  0.60507340807E+03  0.11460926904E+04  0.13016238144E+04  0.00000000000E+00 0.  1.
         -3    1    6    6    0  502  0.14195986773E+03  0.34396821290E+02  0.13232649773E+03  0.19709400641E+03  0.00000000000E+00 0.  1.
<mgrwt>
<rscale>  0 0.25911585E+04</rscale>
<asrwt>0</asrwt>
<pdfrwt beam="1">  1        2 0.43854402E+00 0.25911585E+04</pdfrwt>
<pdfrwt beam="2">  1       -2 0.90591628E-01 0.25911585E+04</pdfrwt>
<totfact> 0.19848348E+00</totfact>
</mgrwt>
</event>
<event>
12    1  0.1556559E-007  0.1137514E+04  0.7818608E-02  0.9169380E-01
          2   -1    0    0  501    0  0.00000000000E+00  0.00000000000E+00  0.78127859043E+03  0.78127859043E+03  0.00000000000E+00 0.  1.
         -2   -1    0    0    0  501 -0.00000000000E+00 -0.00000000000E+00 -0.41404538807E+03  0.41404538807E+03  0.00000000000E+00 0. -1.
         23    2    1    2    0    0  0.19514444213E+03  0.33466134403E+00  0.15675014422E+03  0.26565166234E+03  0.88987261438E+02 0.  0.
        254    2    1    2    0    0 -0.19514444213E+03 -0.33466134403E+00  0.21048305814E+03  0.92967231616E+03  0.88425450656E+03 0.  0.
        -24    2    4    4    0    0  0.30648311908E+03  0.58222544601E+02  0.26249054110E+03  0.41567408096E+03  0.81005496345E+02 0.  0.
         24    2    4    4    0    0 -0.50162756121E+03 -0.58557205945E+02 -0.52007482953E+02  0.51399823520E+03  0.80188845641E+02 0.  0.
         11    1    3    3    0    0  0.14627844587E+03  0.39826275632E+02  0.10834584135E+03  0.18633930690E+03  0.00000000000E+00 0.  1.
        -11    1    3    3    0    0  0.48865996260E+02 -0.39491614288E+02  0.48404302863E+02  0.79312355438E+02  0.00000000000E+00 0. -1.
          2    1    6    6  502    0 -0.42977427929E+03 -0.78273446354E+02 -0.43470197353E+02  0.43900150524E+03  0.00000000000E+00 0. -1.
          3    1    5    5  503    0  0.15037025603E+03  0.49869503663E+02  0.17679507322E+03  0.23739140508E+03  0.00000000000E+00 0. -1.
         -4    1    5    5    0  503  0.15611286305E+03  0.83530409374E+01  0.85695467877E+02  0.17828267588E+03  0.00000000000E+00 0.  1.
         -1    1    6    6    0  502 -0.71853281918E+02  0.19716240410E+02 -0.85372856004E+01  0.74996729953E+02  0.00000000000E+00 0.  1.
<mgrwt>
<rscale>  0 0.11375145E+04</rscale>
<asrwt>0</asrwt>
<pdfrwt beam="1">  1        2 0.12019671E+00 0.11375145E+04</pdfrwt>
<pdfrwt beam="2">  1       -2 0.63699290E-01 0.11375145E+04</pdfrwt>
<totfact> 0.80319442E+01</totfact>
</mgrwt>
</event>
<event>
12    1  0.1556559E-007  0.4051040E+04  0.7818608E-02  0.7994329E-01
          1   -1    0    0  501    0  0.00000000000E+00  0.00000000000E+00  0.30401334731E+04  0.30401334731E+04  0.00000000000E+00 0. -1.
         -1   -1    0    0    0  501 -0.00000000000E+00 -0.00000000000E+00 -0.13495235729E+04  0.13495235729E+04  0.00000000000E+00 0.  1.
         23    2    1    2    0    0 -0.69750039555E+03  0.38277849448E+03  0.27026182600E+04  0.28189434576E+04  0.96283850256E+02 0.  0.
        254    2    1    2    0    0  0.69750039555E+03 -0.38277849448E+03 -0.10120083598E+04  0.15707135885E+04  0.89997448799E+03 0.  0.
        -24    2    4    4    0    0  0.45960997699E+03  0.92264757697E+02 -0.90614916709E+03  0.10235008346E+04  0.81813989443E+02 0.  0.
         24    2    4    4    0    0  0.23789041855E+03 -0.47504325218E+03 -0.10585919273E+03  0.54721275391E+03  0.77315500871E+02 0.  0.
         13    1    3    3    0    0 -0.40091635824E+03  0.18010826788E+03  0.13711794937E+04  0.14398979542E+04  0.00000000000E+00 0. -1.
        -13    1    3    3    0    0 -0.29658403730E+03  0.20267022660E+03  0.13314387663E+04  0.13790455034E+04  0.00000000000E+00 0.  1.
          2    1    6    6  502    0  0.15519768684E+03 -0.33128261675E+03 -0.37217906382E+02  0.36772226845E+03  0.00000000000E+00 0. -1.
          3    1    5    5  503    0  0.30018207548E+03  0.98847409692E+02 -0.61804749053E+03  0.69416337371E+03  0.00000000000E+00 0. -1.
         -4    1    5    5    0  503  0.15942790151E+03 -0.65826519951E+01 -0.28810167656E+03  0.32933746086E+03  0.00000000000E+00 0.  1.
         -1    1    6    6    0  502  0.82692731718E+02 -0.14376063543E+03 -0.68641286353E+02  0.17949048546E+03  0.00000000000E+00 0.  1.
<mgrwt>
<rscale>  0 0.40510403E+04</rscale>
<asrwt>0</asrwt>
<pdfrwt beam="1">  1        1 0.46771284E+00 0.40510403E+04</pdfrwt>
<pdfrwt beam="2">  1       -1 0.20761901E+00 0.40510403E+04</pdfrwt>
<totfact> 0.58068617E-02</totfact>
</mgrwt>
</event>
<event>
12    1  0.1556559E-007  0.2956538E+04  0.7818608E-02  0.8256252E-01
          2   -1    0    0  501    0  0.00000000000E+00  0.00000000000E+00  0.24665122894E+04  0.24665122894E+04  0.00000000000E+00 0.  1.
         -2   -1    0    0    0  501 -0.00000000000E+00 -0.00000000000E+00 -0.88597918123E+03  0.88597918123E+03  0.00000000000E+00 0. -1.
         23    2    1    2    0    0  0.32660346557E+03  0.23915711312E+03 -0.72901871725E+03  0.83886390582E+03  0.91424361693E+02 0.  0.
        254    2    1    2    0    0 -0.32660346557E+03 -0.23915711312E+03  0.23095518254E+04  0.25136275648E+04  0.90577477980E+03 0.  0.
        -24    2    4    4    0    0 -0.44665992416E+03  0.17512638611E+03  0.75328252235E+03  0.89642966902E+03  0.77312703096E+02 0.  0.
         24    2    4    4    0    0  0.12005645859E+03 -0.41428349923E+03  0.15562693031E+04  0.16171978958E+04  0.85501575700E+02 0.  0.
         11    1    3    3    0    0  0.25982433533E+03  0.21114587640E+03 -0.52801018422E+03  0.62520878192E+03  0.00000000000E+00 0. -1.
        -11    1    3    3    0    0  0.66779130242E+02  0.28011236717E+02 -0.20100853303E+03  0.21365512390E+03  0.00000000000E+00 0.  1.
          2    1    6    6  502    0  0.99974293638E+02 -0.34055111283E+03  0.13831691152E+04  0.14279799442E+04  0.00000000000E+00 0. -1.
          1    1    5    5  503    0 -0.43167434116E+03  0.17126215789E+03  0.74728112123E+03  0.87983097109E+03  0.00000000000E+00 0. -1.
         -2    1    5    5    0  503 -0.14985583005E+02  0.38642282224E+01  0.60014011228E+01  0.16598697937E+02  0.00000000000E+00 0.  1.
         -1    1    6    6    0  502  0.20082164948E+02 -0.73732386400E+02  0.17310018789E+03  0.18921795158E+03  0.00000000000E+00 0.  1.
<mgrwt>
<rscale>  0 0.29565375E+04</rscale>
<asrwt>0</asrwt>
<pdfrwt beam="1">  1        2 0.37946343E+00 0.29565375E+04</pdfrwt>
<pdfrwt beam="2">  1       -2 0.13630449E+00 0.29565375E+04</pdfrwt>
<totfact> 0.12034306E+00</totfact>
</mgrwt>
</event>
<event>
12    1  0.1556559E-007  0.2831951E+04  0.7818608E-02  0.8293417E-01
         -1   -1    0    0    0  501 -0.00000000000E+00  0.00000000000E+00  0.18466168323E+04  0.18466168323E+04  0.00000000000E+00 0.  1.
          1   -1    0    0  501    0  0.00000000000E+00 -0.00000000000E+00 -0.10857624325E+04  0.10857624325E+04  0.00000000000E+00 0. -1.
         23    2    1    2    0    0  0.17244593728E+03 -0.28260454586E+01  0.16619871051E+04  0.16733270980E+04  0.89871304916E+02 0.  0.
        254    2    1    2    0    0 -0.17244593728E+03  0.28260454586E+01 -0.90113270527E+03  0.12590521668E+04  0.86222190787E+03 0.  0.
        -24    2    4    4    0    0 -0.40977905058E+03 -0.19792234657E+03 -0.23155157423E+03  0.51645584860E+03  0.77578260251E+02 0.  0.
         24    2    4    4    0    0  0.23733311330E+03  0.20074839203E+03 -0.66958113104E+03  0.74259631820E+03  0.80520042218E+02 0.  0.
         11    1    3    3    0    0  0.55714631962E+02 -0.43556423627E+02  0.57595597301E+03  0.58028145335E+03  0.00000000000E+00 0. -1.
        -11    1    3    3    0    0  0.11673130531E+03  0.40730378168E+02  0.10860311321E+04  0.10930456447E+04  0.00000000000E+00 0.  1.
          4    1    6    6  502    0  0.77748262194E+01  0.23700049734E+02 -0.10515696174E+03  0.10807463570E+03  0.00000000000E+00 0. -1.
          1    1    5    5  503    0 -0.14204538698E+02  0.37292896567E+01  0.19134584748E+01  0.14810058889E+02  0.00000000000E+00 0. -1.
         -2    1    5    5    0  503 -0.39557451188E+03 -0.20165163623E+03 -0.23346503270E+03  0.50164578971E+03  0.00000000000E+00 0.  1.
         -3    1    6    6    0  502  0.22955828708E+03  0.17704834229E+03 -0.56442416930E+03  0.63452168250E+03  0.00000000000E+00 0.  1.
<mgrwt>
<rscale>  0 0.28319514E+04</rscale>
<asrwt>0</asrwt>
<pdfrwt beam="1">  1        1 0.16704037E+00 0.28319514E+04</pdfrwt>
<pdfrwt beam="2">  1       -1 0.28409490E+00 0.28319514E+04</pdfrwt>
<totfact> 0.46980756E-01</totfact>
</mgrwt>
</event>
<event>
12    1  0.1556559E-007  0.1760139E+04  0.7818608E-02  0.8727789E-01
          2   -1    0    0  501    0  0.00000000000E+00  0.00000000000E+00  0.19800839124E+04  0.19800839124E+04  0.00000000000E+00 0. -1.
         -2   -1    0    0    0  501 -0.00000000000E+00 -0.00000000000E+00 -0.39115647607E+03  0.39115647607E+03  0.00000000000E+00 0.  1.
         23    2    1    2    0    0  0.36126396892E+03 -0.47487437539E+03  0.26554410590E+03  0.65910317468E+03  0.88803125213E+02 0.  0.
        254    2    1    2    0    0 -0.36126396892E+03  0.47487437539E+03  0.13233833305E+04  0.17121372138E+04  0.90777368985E+03 0.  0.
        -24    2    4    4    0    0 -0.59287882569E+03  0.11159887354E+03  0.53589274871E+03  0.81090187955E+03  0.80132450431E+02 0.  0.
         24    2    4    4    0    0  0.23161485677E+03  0.36327550186E+03  0.78749058177E+03  0.90123533429E+03  0.80431208341E+02 0.  0.
         13    1    3    3    0    0  0.64276860640E+01 -0.44575770862E+02  0.26905004727E+02  0.52461355067E+02  0.00000000000E+00 0. -1.
        -13    1    3    3    0    0  0.35483628286E+03 -0.43029860453E+03  0.23863910117E+03  0.60664181961E+03  0.00000000000E+00 0.  1.
          4    1    6    6  502    0  0.11408073227E+03  0.21833748105E+03  0.37739149311E+03  0.45067727719E+03  0.00000000000E+00 0. -1.
          1    1    5    5  503    0 -0.33518134693E+03  0.40908048954E+02  0.34313534667E+03  0.48141652437E+03  0.00000000000E+00 0. -1.
         -2    1    5    5    0  503 -0.25769747876E+03  0.70690824583E+02  0.19275740204E+03  0.32948535518E+03  0.00000000000E+00 0.  1.
         -3    1    6    6    0  502  0.11753412450E+03  0.14493802081E+03  0.41009908866E+03  0.45055805710E+03  0.00000000000E+00 0.  1.
<mgrwt>
<rscale>  0 0.17601394E+04</rscale>
<asrwt>0</asrwt>
<pdfrwt beam="1">  1        2 0.30462829E+00 0.17601394E+04</pdfrwt>
<pdfrwt beam="2">  1       -2 0.60177921E-01 0.17601394E+04</pdfrwt>
<totfact> 0.16706619E+01</totfact>
</mgrwt>
</event>
<event>
12    1  0.1556559E-007  0.1640558E+04  0.7818608E-02  0.8796012E-01
          1   -1    0    0  501    0  0.00000000000E+00  0.00000000000E+00  0.14810789963E+04  0.14810789963E+04  0.00000000000E+00 0. -1.
         -1   -1    0    0    0  501 -0.00000000000E+00 -0.00000000000E+00 -0.45430228393E+03  0.45430228393E+03  0.00000000000E+00 0.  1.
         23    2    1    2    0    0 -0.10133471992E+03  0.78672518439E+02 -0.29388164968E+03  0.33290313414E+03  0.89442618922E+02 0.  0.
        254    2    1    2    0    0  0.10133471992E+03 -0.78672518439E+02  0.13206583621E+04  0.16024781461E+04  0.89852078932E+03 0.  0.
        -24    2    4    4    0    0  0.19356476939E+03  0.33574248642E+03  0.30650278863E+03  0.50019830376E+03  0.77871987995E+02 0.  0.
         24    2    4    4    0    0 -0.92230049467E+02 -0.41441500486E+03  0.10141555735E+04  0.11022798424E+04  0.79140036909E+02 0.  0.
         13    1    3    3    0    0  0.39907374749E+01  0.35057276883E+02 -0.33474036648E+02  0.48635889810E+02  0.00000000000E+00 0. -1.
        -13    1    3    3    0    0 -0.10532545739E+03  0.43615241556E+02 -0.26040761303E+03  0.28426724433E+03  0.00000000000E+00 0.  1.
          4    1    6    6  502    0 -0.67941239499E+02 -0.16352448709E+03  0.35869190272E+03  0.40002018821E+03  0.00000000000E+00 0. -1.
          3    1    5    5  503    0  0.86128099898E+02  0.12219538756E+03  0.16392224046E+03  0.22185640232E+03  0.00000000000E+00 0. -1.
         -4    1    5    5    0  503  0.10743666949E+03  0.21354709886E+03  0.14258054817E+03  0.27834190144E+03  0.00000000000E+00 0.  1.
         -3    1    6    6    0  502 -0.24288809967E+02 -0.25089051777E+03  0.65546367074E+03  0.70225965416E+03  0.00000000000E+00 0.  1.
<mgrwt>
<rscale>  0 0.16405579E+04</rscale>
<asrwt>0</asrwt>
<pdfrwt beam="1">  1        1 0.22785831E+00 0.16405579E+04</pdfrwt>
<pdfrwt beam="2">  1       -1 0.69892659E-01 0.16405579E+04</pdfrwt>
<totfact> 0.13345763E+01</totfact>
</mgrwt>
</event>
<event>
12    1  0.1556559E-007  0.2007407E+04  0.7818608E-02  0.8603165E-01
         -2   -1    0    0    0  501 -0.00000000000E+00  0.00000000000E+00  0.31792494433E+03  0.31792494433E+03  0.00000000000E+00 0.  1.
          2   -1    0    0  501    0  0.00000000000E+00 -0.00000000000E+00 -0.31687375503E+04  0.31687375503E+04  0.00000000000E+00 0. -1.
         23    2    1    2    0    0  0.68821319802E+03  0.14958830973E+03 -0.49011307510E+03  0.86316419307E+03  0.93954933260E+02 0.  0.
        254    2    1    2    0    0 -0.68821319802E+03 -0.14958830973E+03 -0.23606995309E+04  0.26234983016E+04  0.90212360288E+03 0.  0.
        -24    2    4    4    0    0 -0.86684128511E+03 -0.48615639384E+02 -0.15075289936E+04  0.17416332481E+04  0.82857772475E+02 0.  0.
         24    2    4    4    0    0  0.17862808709E+03 -0.10097267034E+03 -0.85317053726E+03  0.88186505343E+03  0.87650060762E+02 0.  0.
         11    1    3    3    0    0  0.26459367533E+03  0.10257507262E+03 -0.21215637200E+03  0.35431876147E+03  0.00000000000E+00 0. -1.
        -11    1    3    3    0    0  0.42361952270E+03  0.47013237109E+02 -0.27795670309E+03  0.50884543161E+03  0.00000000000E+00 0.  1.
          4    1    6    6  502    0  0.16931227018E+03 -0.11608117571E+03 -0.79191097131E+03  0.81808585776E+03  0.00000000000E+00 0. -1.
          3    1    5    5  503    0 -0.81483964618E+03 -0.65484772828E+02 -0.14152462636E+04  0.16343726292E+04  0.00000000000E+00 0. -1.
         -4    1    5    5    0  503 -0.52001638932E+02  0.16869133444E+02 -0.92282729989E+02  0.10726061891E+03  0.00000000000E+00 0.  1.
         -3    1    6    6    0  502  0.93158169045E+01  0.15108505369E+02 -0.61259565949E+02  0.63779195662E+02  0.00000000000E+00 0.  1.
<mgrwt>
<rscale>  0 0.20074070E+04</rscale>
<asrwt>0</asrwt>
<pdfrwt beam="1">  1        2 0.48749807E+00 0.20074070E+04</pdfrwt>
<pdfrwt beam="2">  1       -2 0.48911531E-01 0.20074070E+04</pdfrwt>
<totfact> 0.50105233E+00</totfact>
</mgrwt>
</event>
<event>
12    1  0.1556559E-007  0.1324424E+04  0.7818608E-02  0.9010418E-01
         -1   -1    0    0    0  501 -0.00000000000E+00  0.00000000000E+00  0.12068857101E+04  0.12068857101E+04  0.00000000000E+00 0.  1.
          1   -1    0    0  501    0  0.00000000000E+00 -0.00000000000E+00 -0.36335239354E+03  0.36335239354E+03  0.00000000000E+00 0. -1.
         23    2    1    2    0    0  0.17139828720E+03  0.36594054350E+02  0.51103807604E+03  0.54752166525E+03  0.88901974610E+02 0.  0.
        254    2    1    2    0    0 -0.17139828720E+03 -0.36594054350E+02  0.33249524053E+03  0.10227164384E+04  0.95114632456E+03 0.  0.
        -24    2    4    4    0    0  0.20135618874E+03  0.35104427411E+03  0.66577927557E+02  0.41784751527E+03  0.79922014836E+02 0.  0.
         24    2    4    4    0    0 -0.37275447593E+03 -0.38763832846E+03  0.26591731297E+03  0.60486892313E+03  0.77103980528E+02 0.  0.
         13    1    3    3    0    0  0.57193939485E+02  0.54820192846E+02  0.24330530373E+03  0.25587862568E+03  0.00000000000E+00 0.  1.
        -13    1    3    3    0    0  0.11420434771E+03 -0.18226138496E+02  0.26773277230E+03  0.29164303956E+03  0.00000000000E+00 0. -1.
          2    1    6    6  502    0 -0.80891491067E+02 -0.51586318748E+02  0.68876829273E+02  0.11810418799E+03  0.00000000000E+00 0. -1.
          3    1    5    5  503    0  0.12188104070E+03  0.15421762581E+03  0.59847068683E+02  0.20547441647E+03  0.00000000000E+00 0. -1.
         -4    1    5    5    0  503  0.79475148039E+02  0.19682664829E+03  0.67308588748E+01  0.21237309880E+03  0.00000000000E+00 0.  1.
         -1    1    6    6    0  502 -0.29186298487E+03 -0.33605200971E+03  0.19704048370E+03  0.48676473515E+03  0.00000000000E+00 0.  1.
<mgrwt>
<rscale>  0 0.13244241E+04</rscale>
<asrwt>0</asrwt>
<pdfrwt beam="1">  1        1 0.55900369E-01 0.13244241E+04</pdfrwt>
<pdfrwt beam="2">  1       -1 0.18567472E+00 0.13244241E+04</pdfrwt>
<totfact> 0.12671869E+01</totfact>
</mgrwt>
</event>
<event>
12    1  0.1556559E-007  0.1679586E+04  0.7818608E-02  0.8773094E-01
          2   -1    0    0  501    0  0.00000000000E+00  0.00000000000E+00  0.81503886076E+03  0.81503886076E+03  0.00000000000E+00 0. -1.
         -2   -1    0    0    0  501 -0.00000000000E+00 -0.00000000000E+00 -0.86529868445E+03  0.86529868445E+03  0.00000000000E+00 0.  1.
         23    2    1    2    0    0 -0.39722508570E+03  0.35154543453E+03 -0.25795176259E+03  0.59772898355E+03  0.96792895974E+02 0.  0.
        254    2    1    2    0    0  0.39722508570E+03 -0.35154543453E+03  0.20769193890E+03  0.10826085616E+04  0.92061576949E+03 0.  0.
        -24    2    4    4    0    0  0.27940382038E+03  0.28322901121E+03  0.13408960327E+03  0.42783391256E+03  0.82320516276E+02 0.  0.
         24    2    4    4    0    0  0.11782126532E+03 -0.63477444574E+03  0.73602335626E+02  0.65477464909E+03  0.80573505304E+02 0.  0.
         11    1    3    3    0    0 -0.92254336802E+01  0.24158721136E+02  0.44761475726E+01  0.26244777207E+02  0.00000000000E+00 0. -1.
        -11    1    3    3    0    0 -0.38799965202E+03  0.32738671339E+03 -0.26242791016E+03  0.57148420635E+03  0.00000000000E+00 0.  1.
          2    1    6    6  502    0  0.57779141052E+01 -0.82454322260E+02  0.35379098799E+02  0.89909844748E+02  0.00000000000E+00 0. -1.
          1    1    5    5  503    0  0.29467007221E+02  0.49482682679E+02 -0.63270752575E+01  0.57938521564E+02  0.00000000000E+00 0. -1.
         -2    1    5    5    0  503  0.24993681316E+03  0.23374632853E+03  0.14041667853E+03  0.36989539100E+03  0.00000000000E+00 0.  1.
         -1    1    6    6    0  502  0.11204335122E+03 -0.55232012348E+03  0.38223236827E+02  0.56486480434E+03  0.00000000000E+00 0.  1.
<mgrwt>
<rscale>  0 0.16795857E+04</rscale>
<asrwt>0</asrwt>
<pdfrwt beam="1">  1        2 0.12539059E+00 0.16795857E+04</pdfrwt>
<pdfrwt beam="2">  1       -2 0.13312287E+00 0.16795857E+04</pdfrwt>
<totfact> 0.13089926E+01</totfact>
</mgrwt>
</event>
<event>
12    1  0.1556559E-007  0.1439457E+04  0.7818608E-02  0.8925742E-01
          2   -1    0    0  501    0  0.00000000000E+00  0.00000000000E+00  0.97234689320E+03  0.97234689320E+03  0.00000000000E+00 0.  1.
         -2   -1    0    0    0  501 -0.00000000000E+00 -0.00000000000E+00 -0.53274114973E+03  0.53274114973E+03  0.00000000000E+00 0. -1.
         23    2    1    2    0    0 -0.15584381513E+03  0.46261448864E+02  0.55238567769E+03  0.58281433273E+03  0.90084366863E+02 0.  0.
        254    2    1    2    0    0  0.15584381513E+03 -0.46261448864E+02 -0.11277993422E+03  0.92227371020E+03  0.90080079185E+03 0.  0.
        -24    2    4    4    0    0  0.25624983041E+03  0.34849840426E+03  0.10613299761E+03  0.45225249215E+03  0.78440997671E+02 0.  0.
         24    2    4    4    0    0 -0.10040601528E+03 -0.39475985313E+03 -0.21891293183E+03  0.47002121805E+03  0.84144899729E+02 0.  0.
         13    1    3    3    0    0 -0.84113343937E+02  0.69865831665E+02  0.29655444382E+03  0.31607092118E+03  0.00000000000E+00 0. -1.
        -13    1    3    3    0    0 -0.71730471194E+02 -0.23604382801E+02  0.25583123387E+03  0.26674341155E+03  0.00000000000E+00 0.  1.
          4    1    6    6  502    0 -0.97189507383E+02 -0.23174018933E+03 -0.11257574018E+03  0.27535906191E+03  0.00000000000E+00 0. -1.
          3    1    5    5  503    0  0.43263741089E+02  0.11807534709E+03  0.26219582928E+02  0.12845623928E+03  0.00000000000E+00 0. -1.
         -4    1    5    5    0  503  0.21298608933E+03  0.23042305718E+03  0.79913414685E+02  0.32379625287E+03  0.00000000000E+00 0.  1.
         -3    1    6    6    0  502 -0.32165079001E+01 -0.16301966379E+03 -0.10633719165E+03  0.19466215614E+03  0.00000000000E+00 0.  1.
<mgrwt>
<rscale>  0 0.14394571E+04</rscale>
<asrwt>0</asrwt>
<pdfrwt beam="1">  1        2 0.14959183E+00 0.14394571E+04</pdfrwt>
<pdfrwt beam="2">  1       -2 0.81960177E-01 0.14394571E+04</pdfrwt>
<totfact> 0.33351330E+01</totfact>
</mgrwt>
</event>
<event>
12    1  0.1556559E-007  0.1805997E+04  0.7818608E-02  0.8703117E-01
          3   -1    0    0  501    0  0.00000000000E+00  0.00000000000E+00  0.88096624462E+03  0.88096624462E+03  0.00000000000E+00 0. -1.
         -3   -1    0    0    0  501 -0.00000000000E+00 -0.00000000000E+00 -0.92558150076E+03  0.92558150076E+03  0.00000000000E+00 0.  1.
         23    2    1    2    0    0 -0.31698635375E+03  0.32240972510E+03  0.50594624839E+03  0.68478740174E+03  0.92324428087E+02 0.  0.
        254    2    1    2    0    0  0.31698635375E+03 -0.32240972510E+03 -0.55056150454E+03  0.11217603436E+04  0.86648711414E+03 0.  0.
        -24    2    4    4    0    0  0.14169040867E+03 -0.60478942757E+03 -0.42940906347E+03  0.75925296520E+03  0.78908160351E+02 0.  0.
         24    2    4    4    0    0  0.17529594509E+03  0.28237970248E+03 -0.12115244107E+03  0.36250737844E+03  0.79162621916E+02 0.  0.
         13    1    3    3    0    0 -0.20351108770E+03  0.20479429310E+03  0.25437755176E+03  0.38479267684E+03  0.00000000000E+00 0. -1.
        -13    1    3    3    0    0 -0.11347526605E+03  0.11761543199E+03  0.25156869663E+03  0.29999472491E+03  0.00000000000E+00 0.  1.
          4    1    6    6  502    0  0.56096475211E+01  0.33418751151E+02 -0.35949049341E+02  0.49402583154E+02  0.00000000000E+00 0. -1.
          1    1    5    5  503    0  0.11446143006E+03 -0.34723329292E+03 -0.22483900496E+03  0.42921434836E+03  0.00000000000E+00 0. -1.
         -2    1    5    5    0  503  0.27228978609E+02 -0.25755613465E+03 -0.20457005850E+03  0.33003861684E+03  0.00000000000E+00 0.  1.
         -3    1    6    6    0  502  0.16968629756E+03  0.24896095132E+03 -0.85203391733E+02  0.31310479528E+03  0.00000000000E+00 0.  1.
<mgrwt>
<rscale>  0 0.18059967E+04</rscale>
<asrwt>0</asrwt>
<pdfrwt beam="1">  1        3 0.13553327E+00 0.18059967E+04</pdfrwt>
<pdfrwt beam="2">  1       -3 0.14239715E+00 0.18059967E+04</pdfrwt>
<totfact> 0.38160279E-01</totfact>
</mgrwt>
</event>
<event>
12    1  0.1556559E-007  0.1145077E+04  0.7818608E-02  0.9162337E-01
          1   -1    0    0  501    0  0.00000000000E+00  0.00000000000E+00  0.22862782450E+04  0.22862782450E+04  0.00000000000E+00 0. -1.
         -1   -1    0    0    0  501 -0.00000000000E+00 -0.00000000000E+00 -0.14337726529E+03  0.14337726529E+03  0.00000000000E+00 0.  1.
         23    2    1    2    0    0 -0.13799000632E+03  0.24554571788E+02  0.75517512264E+03  0.77330692785E+03  0.89833011577E+02 0.  0.
        254    2    1    2    0    0  0.13799000632E+03 -0.24554571788E+02  0.13877258570E+04  0.16563485824E+04  0.89334394457E+03 0.  0.
        -24    2    4    4    0    0 -0.32570674296E+03 -0.51569796816E+02  0.24237858164E+03  0.41739448088E+03  0.82014934473E+02 0.  0.
         24    2    4    4    0    0  0.46369674928E+03  0.27015225028E+02  0.11453472754E+04  0.12389541015E+04  0.86269268830E+02 0.  0.
         13    1    3    3    0    0 -0.67596320078E+02  0.57343790237E+02  0.42026854399E+03  0.42951510082E+03  0.00000000000E+00 0. -1.
        -13    1    3    3    0    0 -0.70393686239E+02 -0.32789218448E+02  0.33490657865E+03  0.34379182703E+03  0.00000000000E+00 0.  1.
          2    1    6    6  502    0  0.41725219798E+03  0.48623488454E+02  0.10454324902E+04  0.11266733031E+04  0.00000000000E+00 0. -1.
          1    1    5    5  503    0 -0.27865060028E+03 -0.45709511064E+02  0.16617829272E+03  0.32764422994E+03  0.00000000000E+00 0. -1.
         -2    1    5    5    0  503 -0.47056142677E+02 -0.58602857521E+01  0.76200288916E+02  0.89750250939E+02  0.00000000000E+00 0.  1.
         -1    1    6    6    0  502  0.46444551298E+02 -0.21608263425E+02  0.99914785178E+02  0.11228079841E+03  0.00000000000E+00 0.  1.
<mgrwt>
<rscale>  0 0.11450770E+04</rscale>
<asrwt>0</asrwt>
<pdfrwt beam="1">  1        1 0.35173509E+00 0.11450770E+04</pdfrwt>
<pdfrwt beam="2">  1       -1 0.22058042E-01 0.11450770E+04</pdfrwt>
<totfact> 0.32936101E+01</totfact>
</mgrwt>
</event>
<event>
12    1  0.1556559E-007  0.1265743E+04  0.7818608E-02  0.9057181E-01
          1   -1    0    0  501    0  0.00000000000E+00  0.00000000000E+00  0.87014233998E+03  0.87014233998E+03  0.00000000000E+00 0. -1.
         -1   -1    0    0    0  501 -0.00000000000E+00 -0.00000000000E+00 -0.46030007898E+03  0.46030007898E+03  0.00000000000E+00 0.  1.
         23    2    1    2    0    0  0.12661892179E+03  0.20202218190E+03  0.28550662779E+03  0.38265502978E+03  0.89808262251E+02 0.  0.
        254    2    1    2    0    0 -0.12661892179E+03 -0.20202218190E+03  0.12433563321E+03  0.94778738919E+03  0.90884337049E+03 0.  0.
        -24    2    4    4    0    0  0.68480332600E+02  0.24465006337E+03 -0.22040329332E+03  0.34548322122E+03  0.78979965660E+02 0.  0.
         24    2    4    4    0    0 -0.19509925439E+03 -0.44667224528E+03  0.34473892653E+03  0.60230416796E+03  0.79659083055E+02 0.  0.
         13    1    3    3    0    0  0.13418115988E+03  0.15704519782E+03  0.25317302317E+03  0.32674815606E+03  0.00000000000E+00 0. -1.
        -13    1    3    3    0    0 -0.75622380896E+01  0.44976984079E+02  0.32333604621E+02  0.55906873724E+02  0.00000000000E+00 0.  1.
          4    1    6    6  502    0 -0.15753021727E+03 -0.36468862785E+03  0.31613228477E+03  0.50769398865E+03  0.00000000000E+00 0. -1.
          3    1    5    5  503    0  0.65761751954E+02  0.21040579217E+03 -0.21954675985E+03  0.31112053157E+03  0.00000000000E+00 0. -1.
         -4    1    5    5    0  503  0.27185806455E+01  0.34244271202E+02 -0.85653347231E+00  0.34362689657E+02  0.00000000000E+00 0.  1.
         -3    1    6    6    0  502 -0.37569037124E+02 -0.81983617430E+02  0.28606641762E+02  0.94610179316E+02  0.00000000000E+00 0.  1.
<mgrwt>
<rscale>  0 0.12657434E+04</rscale>
<asrwt>0</asrwt>
<pdfrwt beam="1">  1        1 0.13386805E+00 0.12657434E+04</pdfrwt>
<pdfrwt beam="2">  1       -1 0.70815397E-01 0.12657434E+04</pdfrwt>
<totfact> 0.38234813E+01</totfact>
</mgrwt>
</event>
<event>
12    1  0.1556559E-007  0.2563671E+04  0.7818608E-02  0.8380647E-01
         -2   -1    0    0    0  501 -0.00000000000E+00  0.00000000000E+00  0.62597469141E+03  0.62597469141E+03  0.00000000000E+00 0.  1.
          2   -1    0    0  501    0  0.00000000000E+00 -0.00000000000E+00 -0.26248709404E+04  0.26248709404E+04  0.00000000000E+00 0. -1.
         23    2    1    2    0    0 -0.59680612013E+03 -0.39319831599E+03 -0.19688966277E+04  0.20965835489E+04  0.91247938951E+02 0.  0.
        254    2    1    2    0    0  0.59680612013E+03  0.39319831599E+03 -0.29999621277E+02  0.11542620829E+04  0.90589100776E+03 0.  0.
        -24    2    4    4    0    0 -0.35786002565E+02 -0.20803801670E+03 -0.14726410647E+03  0.27010631372E+03  0.81916111259E+02 0.  0.
         24    2    4    4    0    0  0.63259212269E+03  0.60123633269E+03  0.11726448519E+03  0.88415576914E+03  0.79514421187E+02 0.  0.
         13    1    3    3    0    0 -0.54554981140E+03 -0.34281884920E+03 -0.18314007536E+04  0.19414371173E+04  0.00000000000E+00 0. -1.
        -13    1    3    3    0    0 -0.51256308729E+02 -0.50379466781E+02 -0.13749587410E+03  0.15514643164E+03  0.00000000000E+00 0.  1.
          2    1    6    6  502    0  0.24186149525E+03  0.21753871273E+03  0.60798882377E+01  0.32535678795E+03  0.00000000000E+00 0. -1.
          1    1    5    5  503    0 -0.53123305341E+02 -0.13833725181E+03 -0.67701226869E+02  0.16291941851E+03  0.00000000000E+00 0. -1.
         -2    1    5    5    0  503  0.17337302775E+02 -0.69700764897E+02 -0.79562879600E+02  0.10718689521E+03  0.00000000000E+00 0.  1.
         -1    1    6    6    0  502  0.39073062744E+03  0.38369761996E+03  0.11118459696E+03  0.55879898119E+03  0.00000000000E+00 0.  1.
<mgrwt>
<rscale>  0 0.25636714E+04</rscale>
<asrwt>0</asrwt>
<pdfrwt beam="1">  1        2 0.40382630E+00 0.25636714E+04</pdfrwt>
<pdfrwt beam="2">  1       -2 0.96303798E-01 0.25636714E+04</pdfrwt>
<totfact> 0.23560536E+00</totfact>
</mgrwt>
</event>
<event>
12    1  0.1556559E-007  0.1247705E+04  0.7818608E-02  0.9072096E-01
         -1   -1    0    0    0  501 -0.00000000000E+00  0.00000000000E+00  0.75106236989E+03  0.75106236989E+03  0.00000000000E+00 0.  1.
          1   -1    0    0  501    0  0.00000000000E+00 -0.00000000000E+00 -0.51818831067E+03  0.51818831067E+03  0.00000000000E+00 0. -1.
         23    2    1    2    0    0 -0.80411760865E+02 -0.27788756501E+03  0.90998154972E+02  0.31691899433E+03  0.92029531614E+02 0.  0.
        254    2    1    2    0    0  0.80411760865E+02  0.27788756501E+03  0.14187590425E+03  0.95233168623E+03  0.89616924647E+03 0.  0.
        -24    2    4    4    0    0 -0.18258554784E+03  0.28172290157E+03 -0.28273990280E+03  0.44650859819E+03  0.81992683053E+02 0.  0.
         24    2    4    4    0    0  0.26299730870E+03 -0.38353365647E+01  0.42461580706E+03  0.50582308804E+03  0.79850601771E+02 0.  0.
         11    1    3    3    0    0  0.12133891043E+02 -0.10511121075E+02  0.19170574176E+02  0.25004517439E+02  0.00000000000E+00 0. -1.
        -11    1    3    3    0    0 -0.92545651908E+02 -0.26737644393E+03  0.71827580795E+02  0.29191447689E+03  0.00000000000E+00 0.  1.
          4    1    6    6  502    0  0.13989575460E+03 -0.20772115128E+02  0.16040773480E+03  0.21385262287E+03  0.00000000000E+00 0. -1.
          3    1    5    5  503    0 -0.71435627179E+02  0.11579951066E+03 -0.64156261310E+02  0.15042806043E+03  0.00000000000E+00 0. -1.
         -4    1    5    5    0  503 -0.11114992066E+03  0.16592339092E+03 -0.21858364149E+03  0.29608053777E+03  0.00000000000E+00 0.  1.
         -1    1    6    6    0  502  0.12310155410E+03  0.16936778563E+02  0.26420807226E+03  0.29197046518E+03  0.00000000000E+00 0.  1.
<mgrwt>
<rscale>  0 0.12477047E+04</rscale>
<asrwt>0</asrwt>
<pdfrwt beam="1">  1        1 0.79721278E-01 0.12477047E+04</pdfrwt>
<pdfrwt beam="2">  1       -1 0.11554806E+00 0.12477047E+04</pdfrwt>
<totfact> 0.28241840E+01</totfact>
</mgrwt>
</event>
<event>
12    1  0.1556559E-007  0.2087392E+04  0.7818608E-02  0.8566818E-01
         -1   -1    0    0    0  501 -0.00000000000E+00  0.00000000000E+00  0.14173400011E+04  0.14173400011E+04  0.00000000000E+00 0.  1.
          1   -1    0    0  501    0  0.00000000000E+00 -0.00000000000E+00 -0.76855338733E+03  0.76855338733E+03  0.00000000000E+00 0. -1.
         23    2    1    2    0    0  0.57114379877E+02  0.52767752034E+03 -0.42521862755E+03  0.68634365835E+03  0.92472256858E+02 0.  0.
        254    2    1    2    0    0 -0.57114379877E+02 -0.52767752034E+03  0.10740052413E+04  0.14995497301E+04  0.90191824283E+03 0.  0.
        -24    2    4    4    0    0 -0.85073611233E+02 -0.72953843453E+03  0.52005593125E+03  0.90358340802E+03  0.80876182121E+02 0.  0.
         24    2    4    4    0    0  0.27959231356E+02  0.20186091420E+03  0.55394931009E+03  0.59596632207E+03  0.82380043685E+02 0.  0.
         11    1    3    3    0    0  0.43878490799E+02  0.48367833923E+03 -0.41601724581E+03  0.63948448504E+03  0.00000000000E+00 0. -1.
        -11    1    3    3    0    0  0.13235889078E+02  0.43999181108E+02 -0.92013817421E+01  0.46859173316E+02  0.00000000000E+00 0.  1.
          2    1    6    6  502    0 -0.86173156518E+01  0.56113970207E+02  0.25659421869E+03  0.26279959826E+03  0.00000000000E+00 0. -1.
          1    1    5    5  503    0 -0.21329265454E+02 -0.36016945264E+02  0.38439485384E+02  0.56830906623E+02  0.00000000000E+00 0. -1.
         -2    1    5    5    0  503 -0.63744345779E+02 -0.69352148927E+03  0.48161644587E+03  0.84675250140E+03  0.00000000000E+00 0.  1.
         -1    1    6    6    0  502  0.36576547007E+02  0.14574694399E+03  0.29735509140E+03  0.33316672381E+03  0.00000000000E+00 0.  1.
<mgrwt>
<rscale>  0 0.20873921E+04</rscale>
<asrwt>0</asrwt>
<pdfrwt beam="1">  1        1 0.11823898E+00 0.20873921E+04</pdfrwt>
<pdfrwt beam="2">  1       -1 0.21805231E+00 0.20873921E+04</pdfrwt>
<totfact> 0.24608357E+00</totfact>
</mgrwt>
</event>
<event>
12    1  0.1773580E-007  0.1361232E+04  0.7818608E-02  0.8982369E-01
         -4   -1    0    0    0  501 -0.00000000000E+00  0.00000000000E+00  0.10566120579E+04  0.10566120579E+04  0.00000000000E+00 0.  1.
          4   -1    0    0  501    0  0.00000000000E+00 -0.00000000000E+00 -0.43841869187E+03  0.43841869187E+03  0.00000000000E+00 0. -1.
         23    2    1    2    0    0 -0.22632356299E+03  0.52104259648E+02 -0.14005032867E+03  0.29736391018E+03  0.12195897458E+03 0.  0.
        254    2    1    2    0    0  0.22632356299E+03 -0.52104259648E+02  0.75824369471E+03  0.11976668396E+04  0.89751609960E+03 0.  0.
        -24    2    4    4    0    0  0.53378150691E+03 -0.19363226468E+03  0.53947428234E+03  0.78686050825E+03  0.75503689232E+02 0.  0.
         24    2    4    4    0    0 -0.30745794392E+03  0.14152800504E+03  0.21876941237E+03  0.41080633134E+03  0.79631793855E+02 0.  0.
         11    1    3    3    0    0 -0.20543060964E+03  0.82175035275E+02 -0.13784052273E+03  0.26068080387E+03  0.00000000000E+00 0. -1.
        -11    1    3    3    0    0 -0.20892953344E+02 -0.30070775627E+02 -0.22098059421E+01  0.36683106310E+02  0.00000000000E+00 0.  1.
          2    1    6    6  502    0 -0.22454477579E+02 -0.97122381451E+01  0.95471681736E+01  0.26261750765E+02  0.00000000000E+00 0. -1.
          1    1    5    5  503    0  0.19084753438E+02 -0.15516044708E+01  0.40130156347E+02  0.44464196143E+02  0.00000000000E+00 0. -1.
         -2    1    5    5    0  503  0.51469675347E+03 -0.19208066021E+03  0.49934412600E+03  0.74239631210E+03  0.00000000000E+00 0.  1.
         -1    1    6    6    0  502 -0.28500346634E+03  0.15124024318E+03  0.20922224420E+03  0.38454458058E+03  0.00000000000E+00 0.  1.
<mgrwt>
<rscale>  0 0.13612325E+04</rscale>
<asrwt>0</asrwt>
<pdfrwt beam="1">  1        4 0.67449029E-01 0.13612325E+04</pdfrwt>
<pdfrwt beam="2">  1       -4 0.16255570E+00 0.13612325E+04</pdfrwt>
<totfact> 0.94908776E-01</totfact>
</mgrwt>
</event>
<event>
12    1  0.1556559E-007  0.1527417E+04  0.7818608E-02  0.8866423E-01
         -2   -1    0    0    0  501 -0.00000000000E+00  0.00000000000E+00  0.25217458495E+03  0.25217458495E+03  0.00000000000E+00 0.  1.
          2   -1    0    0  501    0  0.00000000000E+00 -0.00000000000E+00 -0.23128852056E+04  0.23128852056E+04  0.00000000000E+00 0. -1.
         23    2    1    2    0    0 -0.17978925101E+03  0.62713491918E+02 -0.14671011785E+04  0.14822665870E+04  0.92039176661E+02 0.  0.
        254    2    1    2    0    0  0.17978925101E+03 -0.62713491918E+02 -0.59360944216E+03  0.10827932036E+04  0.88533146058E+03 0.  0.
        -24    2    4    4    0    0 -0.49537898156E+02  0.38562316996E+03 -0.23644071003E+03  0.46066334459E+03  0.71744512869E+02 0.  0.
         24    2    4    4    0    0  0.22932714916E+03 -0.44833666188E+03 -0.35716873213E+03  0.62212985900E+03  0.76676949115E+02 0.  0.
         11    1    3    3    0    0 -0.43352041261E+02  0.44038106316E+02 -0.25560790191E+03  0.26297177379E+03  0.00000000000E+00 0.  1.
        -11    1    3    3    0    0 -0.13643720974E+03  0.18675385603E+02 -0.12114932766E+04  0.12192948132E+04  0.00000000000E+00 0. -1.
          2    1    6    6  502    0  0.17919562535E+03 -0.36943983914E+03 -0.25356402562E+03  0.48258841882E+03  0.00000000000E+00 0. -1.
          1    1    5    5  503    0  0.18630110613E+02  0.74900111501E+02 -0.42975652183E+02  0.88340332832E+02  0.00000000000E+00 0. -1.
         -2    1    5    5    0  503 -0.68168008770E+02  0.31072305846E+03 -0.19346505785E+03  0.37232301176E+03  0.00000000000E+00 0.  1.
         -1    1    6    6    0  502  0.50131523815E+02 -0.78896822735E+02 -0.10360470651E+03  0.13954144018E+03  0.00000000000E+00 0.  1.
<mgrwt>
<rscale>  0 0.15274173E+04</rscale>
<asrwt>0</asrwt>
<pdfrwt beam="1">  1        2 0.35582850E+00 0.15274173E+04</pdfrwt>
<pdfrwt beam="2">  1       -2 0.38796089E-01 0.15274173E+04</pdfrwt>
<totfact> 0.27026664E+01</totfact>
</mgrwt>
</event>
<event>
12    1  0.1556559E-007  0.2120838E+04  0.7818608E-02  0.8552119E-01
          2   -1    0    0  501    0  0.00000000000E+00  0.00000000000E+00  0.40253948679E+04  0.40253948679E+04  0.00000000000E+00 0. -1.
         -2   -1    0    0    0  501 -0.00000000000E+00 -0.00000000000E+00 -0.27934853052E+03  0.27934853052E+03  0.00000000000E+00 0.  1.
         23    2    1    2    0    0  0.58627719383E+03  0.13200710050E+03  0.28733144934E+04  0.29369279313E+04  0.91992787015E+02 0.  0.
        254    2    1    2    0    0 -0.58627719383E+03 -0.13200710050E+03  0.87273184396E+03  0.13678154671E+04  0.86493436636E+03 0.  0.
        -24    2    4    4    0    0  0.43451418066E+02 -0.67508274093E+02 -0.13465442150E+03  0.17563396312E+03  0.79183855474E+02 0.  0.
         24    2    4    4    0    0 -0.62972861190E+03 -0.64498826408E+02  0.10073862655E+04  0.11921815040E+04  0.75838166257E+02 0.  0.
         13    1    3    3    0    0  0.40196732711E+03  0.72272258590E+02  0.21283236326E+04  0.21671553928E+04  0.00000000000E+00 0. -1.
        -13    1    3    3    0    0  0.18430986672E+03  0.59734841911E+02  0.74499086082E+03  0.76977253849E+03  0.00000000000E+00 0.  1.
          4    1    6    6  502    0 -0.26340010447E+03  0.10104989008E+01  0.46463430636E+03  0.53410268188E+03  0.00000000000E+00 0. -1.
          1    1    5    5  503    0  0.25919102767E+02 -0.32613913270E+02 -0.12975270227E+03  0.13627630378E+03  0.00000000000E+00 0. -1.
         -2    1    5    5    0  503  0.17532315299E+02 -0.34894360822E+02 -0.49017192348E+01  0.39357659336E+02  0.00000000000E+00 0.  1.
         -3    1    6    6    0  502 -0.36632850743E+03 -0.65509325309E+02  0.54275195910E+03  0.65807882215E+03  0.00000000000E+00 0.  1.
<mgrwt>
<rscale>  0 0.21208377E+04</rscale>
<asrwt>0</asrwt>
<pdfrwt beam="1">  1        2 0.61929148E+00 0.21208377E+04</pdfrwt>
<pdfrwt beam="2">  1       -2 0.42976700E-01 0.21208377E+04</pdfrwt>
<totfact> 0.15540409E+00</totfact>
</mgrwt>
</event>
<event>
12    1  0.1556559E-007  0.1577304E+04  0.7818608E-02  0.8834614E-01
          1   -1    0    0  501    0  0.00000000000E+00  0.00000000000E+00  0.97862357433E+03  0.97862357433E+03  0.00000000000E+00 0. -1.
         -1   -1    0    0    0  501 -0.00000000000E+00 -0.00000000000E+00 -0.63555790781E+03  0.63555790781E+03  0.00000000000E+00 0.  1.
         23    2    1    2    0    0  0.18285153757E+03 -0.26725264633E+03  0.53927329229E+03  0.63493295588E+03  0.86403199719E+02 0.  0.
        254    2    1    2    0    0 -0.18285153757E+03  0.26725264633E+03 -0.19620762577E+03  0.97924852626E+03  0.90309001877E+03 0.  0.
        -24    2    4    4    0    0  0.15138482292E+03 -0.26289842128E+03 -0.14258721040E+03  0.34472740848E+03  0.80454515493E+02 0.  0.
         24    2    4    4    0    0 -0.33423636049E+03  0.53015106761E+03 -0.53620415375E+02  0.63452111779E+03  0.83473353887E+02 0.  0.
         11    1    3    3    0    0  0.14980877040E+03 -0.20427058062E+03  0.47835005228E+03  0.54128357661E+03  0.00000000000E+00 0. -1.
        -11    1    3    3    0    0  0.33042767176E+02 -0.62982065710E+02  0.60923240010E+02  0.93649379267E+02  0.00000000000E+00 0.  1.
          2    1    6    6  502    0 -0.28848401084E+03  0.39685758162E+03 -0.29249070682E+02  0.49150226117E+03  0.00000000000E+00 0. -1.
          3    1    5    5  503    0  0.12793031644E+03 -0.25520427101E+03 -0.14451359992E+03  0.31996807086E+03  0.00000000000E+00 0. -1.
         -4    1    5    5    0  503  0.23454506481E+02 -0.76941502699E+01  0.19263895252E+01  0.24759337617E+02  0.00000000000E+00 0.  1.
         -1    1    6    6    0  502 -0.45752349654E+02  0.13329348599E+03 -0.24371344693E+02  0.14301885661E+03  0.00000000000E+00 0.  1.
<mgrwt>
<rscale>  0 0.15773040E+04</rscale>
<asrwt>0</asrwt>
<pdfrwt beam="1">  1        1 0.15055747E+00 0.15773040E+04</pdfrwt>
<pdfrwt beam="2">  1       -1 0.97778139E-01 0.15773040E+04</pdfrwt>
<totfact> 0.15172384E+01</totfact>
</mgrwt>
</event>
<event>
12    1  0.1556559E-007  0.1831083E+04  0.7818608E-02  0.8689943E-01
          1   -1    0    0  501    0  0.00000000000E+00  0.00000000000E+00  0.52835050375E+03  0.52835050375E+03  0.00000000000E+00 0. -1.
         -1   -1    0    0    0  501 -0.00000000000E+00 -0.00000000000E+00 -0.15864769225E+04  0.15864769225E+04  0.00000000000E+00 0.  1.
         23    2    1    2    0    0 -0.10224177933E+03 -0.23239058541E+03 -0.11173387292E+04  0.11505942946E+04  0.10470257637E+03 0.  0.
        254    2    1    2    0    0  0.10224177933E+03  0.23239058541E+03  0.59212310409E+02  0.96423313163E+03  0.92832142537E+03 0.  0.
        -24    2    4    4    0    0  0.15437656003E+03 -0.40588088597E+02 -0.38981784532E+03  0.43024613217E+03  0.87602890946E+02 0.  0.
         24    2    4    4    0    0 -0.52134780704E+02  0.27297867400E+03  0.44903015572E+03  0.53398699945E+03  0.79237888770E+02 0.  0.
         13    1    3    3    0    0 -0.59056195298E+02 -0.17058813047E+03 -0.95077721429E+03  0.96776301627E+03  0.00000000000E+00 0.  1.
        -13    1    3    3    0    0 -0.43185584029E+02 -0.61802454939E+02 -0.16656151489E+03  0.18283127836E+03  0.00000000000E+00 0. -1.
          2    1    6    6  502    0 -0.42755111591E+02  0.10679384028E+03  0.24509271005E+03  0.27074593332E+03  0.00000000000E+00 0. -1.
          1    1    5    5  503    0  0.83763807623E+02  0.18575682030E+02 -0.23399261596E+03  0.24922675570E+03  0.00000000000E+00 0. -1.
         -2    1    5    5    0  503  0.70612752408E+02 -0.59163770627E+02 -0.15582522935E+03  0.18101937648E+03  0.00000000000E+00 0.  1.
         -1    1    6    6    0  502 -0.93796691128E+01  0.16618483372E+03  0.20393744567E+03  0.26324106614E+03  0.00000000000E+00 0.  1.
<mgrwt>
<rscale>  0 0.18310826E+04</rscale>
<asrwt>0</asrwt>
<pdfrwt beam="1">  1        1 0.81284694E-01 0.18310826E+04</pdfrwt>
<pdfrwt beam="2">  1       -1 0.24407337E+00 0.18310826E+04</pdfrwt>
<totfact> 0.29449050E+00</totfact>
</mgrwt>
</event>
<event>
12    1  0.1556559E-007  0.1762793E+04  0.7818608E-02  0.8726340E-01
         -2   -1    0    0    0  501 -0.00000000000E+00  0.00000000000E+00  0.21950604600E+03  0.21950604600E+03  0.00000000000E+00 0.  1.
          2   -1    0    0  501    0  0.00000000000E+00 -0.00000000000E+00 -0.35391254571E+04  0.35391254571E+04  0.00000000000E+00 0. -1.
         23    2    1    2    0    0 -0.33802223897E+03 -0.18575315065E+02 -0.24952510908E+04  0.25194375515E+04  0.81752635216E+02 0.  0.
        254    2    1    2    0    0  0.33802223897E+03  0.18575315065E+02 -0.82436832032E+03  0.12391939516E+04  0.86105426416E+03 0.  0.
        -24    2    4    4    0    0  0.41829799420E+02  0.73973772864E+02 -0.90869539030E+03  0.91637418990E+03  0.82416578342E+02 0.  0.
         24    2    4    4    0    0  0.29619243955E+03 -0.55398457799E+02  0.84327069976E+02  0.32281976172E+03  0.79388874866E+02 0.  0.
         11    1    3    3    0    0 -0.15594939054E+03 -0.18770099817E+02 -0.14460102459E+04  0.14545164696E+04  0.00000000000E+00 0.  1.
        -11    1    3    3    0    0 -0.18207284843E+03  0.19478475116E+00 -0.10492408449E+04  0.10649210819E+04  0.00000000000E+00 0. -1.
          2    1    6    6  502    0  0.23394536308E+03 -0.45398647318E+02  0.99056422026E+02  0.25807681963E+03  0.00000000000E+00 0. -1.
          3    1    5    5  503    0  0.54289508442E+02  0.49058138742E+02 -0.82340344421E+03  0.82664822243E+03  0.00000000000E+00 0. -1.
         -4    1    5    5    0  503 -0.12459709023E+02  0.24915634122E+02 -0.85291946085E+02  0.89725967477E+02  0.00000000000E+00 0.  1.
         -1    1    6    6    0  502  0.62247076474E+02 -0.99998104814E+01 -0.14729352050E+02  0.64742942094E+02  0.00000000000E+00 0.  1.
<mgrwt>
<rscale>  0 0.17627926E+04</rscale>
<asrwt>0</asrwt>
<pdfrwt beam="1">  1        2 0.54448077E+00 0.17627926E+04</pdfrwt>
<pdfrwt beam="2">  1       -2 0.33770165E-01 0.17627926E+04</pdfrwt>
<totfact> 0.59814123E+00</totfact>
</mgrwt>
</event>
<event>
12    1  0.1556559E-007  0.1482707E+04  0.7818608E-02  0.8896035E-01
          4   -1    0    0  501    0  0.00000000000E+00  0.00000000000E+00  0.75107861968E+03  0.75107861968E+03  0.00000000000E+00 0. -1.
         -4   -1    0    0    0  501 -0.00000000000E+00 -0.00000000000E+00 -0.73175410776E+03  0.73175410776E+03  0.00000000000E+00 0.  1.
         23    2    1    2    0    0  0.43630438648E+03  0.17755397708E+03  0.14248457113E+03  0.50057864211E+03  0.91597988426E+02 0.  0.
        254    2    1    2    0    0 -0.43630438648E+03 -0.17755397708E+03 -0.12316005921E+03  0.98225408533E+03  0.85309305208E+03 0.  0.
        -24    2    4    4    0    0 -0.41389049001E+02  0.32211942458E+03 -0.43389101644E+02  0.33527413168E+03  0.71078492993E+02 0.  0.
         24    2    4    4    0    0 -0.39491533748E+03 -0.49967340166E+03 -0.79770957562E+02  0.64697995364E+03  0.81166635025E+02 0.  0.
         11    1    3    3    0    0 -0.55544627210E+00 -0.39133614415E+01  0.77739543276E+01  0.87210827436E+01  0.00000000000E+00 0. -1.
        -11    1    3    3    0    0  0.43685983276E+03  0.18146733852E+03  0.13471061680E+03  0.49185755937E+03  0.00000000000E+00 0.  1.
          4    1    6    6  502    0 -0.47845348402E+02 -0.30503184723E+02  0.62444101228E+01  0.57084273664E+02  0.00000000000E+00 0. -1.
          1    1    5    5  503    0 -0.22242456361E+02  0.20581739853E+02 -0.33897152485E+01  0.30493032808E+02  0.00000000000E+00 0. -1.
         -2    1    5    5    0  503 -0.19146592639E+02  0.30153768472E+03 -0.39999386396E+02  0.30478109887E+03  0.00000000000E+00 0.  1.
         -3    1    6    6    0  502 -0.34706998908E+03 -0.46917021694E+03 -0.86015367684E+02  0.58989567998E+03  0.00000000000E+00 0.  1.
<mgrwt>
<rscale>  0 0.14827068E+04</rscale>
<asrwt>0</asrwt>
<pdfrwt beam="1">  1        4 0.11555056E+00 0.14827068E+04</pdfrwt>
<pdfrwt beam="2">  1       -4 0.11257755E+00 0.14827068E+04</pdfrwt>
<totfact> 0.69686097E-01</totfact>
</mgrwt>
</event>
<event>
12    1  0.1556559E-007  0.1586849E+04  0.7818608E-02  0.8828668E-01
         -2   -1    0    0    0  501 -0.00000000000E+00  0.00000000000E+00  0.33552346675E+03  0.33552346675E+03  0.00000000000E+00 0.  1.
          2   -1    0    0  501    0  0.00000000000E+00 -0.00000000000E+00 -0.18762386159E+04  0.18762386159E+04  0.00000000000E+00 0. -1.
         23    2    1    2    0    0 -0.23202143223E+03  0.72308029858E+02  0.13569313515E+03  0.29267060169E+03  0.90449201047E+02 0.  0.
        254    2    1    2    0    0  0.23202143223E+03 -0.72308029858E+02 -0.16764082844E+04  0.19190914810E+04  0.90194510946E+03 0.  0.
        -24    2    4    4    0    0 -0.28329552430E+03 -0.39101583535E+02 -0.11079779134E+04  0.11470757047E+04  0.79889472641E+02 0.  0.
         24    2    4    4    0    0  0.51531695652E+03 -0.33206446324E+02 -0.56843037096E+03  0.77201577631E+03  0.79000243559E+02 0.  0.
         11    1    3    3    0    0 -0.56812021143E+02  0.37849234363E+02 -0.21777100080E+00  0.68265787276E+02  0.00000000000E+00 0. -1.
        -11    1    3    3    0    0 -0.17520941108E+03  0.34458795495E+02  0.13591090616E+03  0.22440481441E+03  0.00000000000E+00 0.  1.
          2    1    6    6  502    0  0.47953366545E+02  0.73679712074E-01 -0.23675111098E+02  0.53479357487E+02  0.00000000000E+00 0. -1.
          1    1    5    5  503    0 -0.29112234076E+02 -0.31096388634E+02 -0.16413442957E+03  0.16957186833E+03  0.00000000000E+00 0. -1.
         -2    1    5    5    0  503 -0.25418329022E+03 -0.80051949002E+01 -0.94384348382E+03  0.97750383638E+03  0.00000000000E+00 0.  1.
         -1    1    6    6    0  502  0.46736358998E+03 -0.33280126036E+02 -0.54475525986E+03  0.71853641882E+03  0.00000000000E+00 0.  1.
<mgrwt>
<rscale>  0 0.15868486E+04</rscale>
<asrwt>0</asrwt>
<pdfrwt beam="1">  1        2 0.28865210E+00 0.15868486E+04</pdfrwt>
<pdfrwt beam="2">  1       -2 0.51618994E-01 0.15868486E+04</pdfrwt>
<totfact> 0.26636807E+01</totfact>
</mgrwt>
</event>
<event>
12    1  0.1556559E-007  0.1246492E+04  0.7818608E-02  0.9073108E-01
          2   -1    0    0  501    0  0.00000000000E+00  0.00000000000E+00  0.15538691118E+04  0.15538691118E+04  0.00000000000E+00 0. -1.
         -2   -1    0    0    0  501 -0.00000000000E+00 -0.00000000000E+00 -0.24997958859E+03  0.24997958859E+03  0.00000000000E+00 0.  1.
         23    2    1    2    0    0 -0.16918944361E+02  0.22442091495E+03  0.59173758299E+02  0.24985205597E+03  0.90958883336E+02 0.  0.
        254    2    1    2    0    0  0.16918944361E+02 -0.22442091495E+03  0.12447157649E+04  0.15539966444E+04  0.90273874276E+03 0.  0.
        -24    2    4    4    0    0  0.24191552421E+03 -0.19837653657E+03  0.40805261658E+02  0.32644767832E+03  0.83825092803E+02 0.  0.
         24    2    4    4    0    0 -0.22499657985E+03 -0.26044378377E+02  0.12039105032E+04  0.12275489661E+04  0.78576037907E+02 0.  0.
         11    1    3    3    0    0 -0.24834598310E+02  0.15257401443E+03 -0.28484485408E+01  0.15460821715E+03  0.00000000000E+00 0.  1.
        -11    1    3    3    0    0  0.79156539487E+01  0.71846900520E+02  0.62022206840E+02  0.95243838819E+02  0.00000000000E+00 0. -1.
          4    1    6    6  502    0 -0.98375290888E+02 -0.41538339292E+02  0.42201874539E+03  0.43531936891E+03  0.00000000000E+00 0. -1.
          1    1    5    5  503    0  0.58689358783E+02 -0.82638452255E+01  0.15116029284E+02  0.61165564770E+02  0.00000000000E+00 0. -1.
         -2    1    5    5    0  503  0.18322616543E+03 -0.19011269135E+03  0.25689232374E+02  0.26528211355E+03  0.00000000000E+00 0.  1.
         -3    1    6    6    0  502 -0.12662128896E+03  0.15493960915E+02  0.78189175786E+03  0.79222959718E+03  0.00000000000E+00 0.  1.
<mgrwt>
<rscale>  0 0.12464920E+04</rscale>
<asrwt>0</asrwt>
<pdfrwt beam="1">  1        2 0.23905678E+00 0.12464920E+04</pdfrwt>
<pdfrwt beam="2">  1       -2 0.38458399E-01 0.12464920E+04</pdfrwt>
<totfact> 0.74330031E+01</totfact>
</mgrwt>
</event>
<event>
12    1  0.1556559E-007  0.1438892E+04  0.7818608E-02  0.8926138E-01
         -1   -1    0    0    0  501 -0.00000000000E+00  0.00000000000E+00  0.17464100845E+04  0.17464100845E+04  0.00000000000E+00 0. -1.
          1   -1    0    0  501    0  0.00000000000E+00 -0.00000000000E+00 -0.29638075978E+03  0.29638075978E+03  0.00000000000E+00 0.  1.
         23    2    1    2    0    0 -0.11535506980E+03 -0.18033288529E+03 -0.83738560728E+02  0.24803699706E+03  0.93185104561E+02 0.  0.
        254    2    1    2    0    0  0.11535506980E+03  0.18033288529E+03  0.15337678855E+04  0.17947538472E+04  0.90712221011E+03 0.  0.
        -24    2    4    4    0    0  0.32285255711E+03  0.32893367108E+03  0.14356408327E+04  0.15094906950E+04  0.71178817317E+02 0.  0.
         24    2    4    4    0    0 -0.20749748731E+03 -0.14860078579E+03  0.98127052732E+02  0.28526315226E+03  0.81294198939E+02 0.  0.
         11    1    3    3    0    0  0.56209663975E+01 -0.64734574916E+02 -0.34749885758E+02  0.73686599955E+02  0.00000000000E+00 0. -1.
        -11    1    3    3    0    0 -0.12097603619E+03 -0.11559831037E+03 -0.48988674970E+02  0.17435039710E+03  0.00000000000E+00 0.  1.
          4    1    6    6  502    0 -0.66926347301E+02 -0.81578974530E+02  0.91726357955E+01  0.10591695943E+03  0.00000000000E+00 0. -1.
          1    1    5    5  503    0  0.17576118649E+02  0.30829001657E+02  0.66131543771E+02  0.75051504792E+02  0.00000000000E+00 0. -1.
         -4    1    5    5    0  503  0.30527643846E+03  0.29810466942E+03  0.13695092889E+04  0.14344391902E+04  0.00000000000E+00 0.  1.
         -3    1    6    6    0  502 -0.14057114001E+03 -0.67021811262E+02  0.88954416937E+02  0.17934619283E+03  0.00000000000E+00 0.  1.
<mgrwt>
<rscale>  0 0.14388917E+04</rscale>
<asrwt>0</asrwt>
<pdfrwt beam="1">  1        1 0.45597041E-01 0.14388917E+04</pdfrwt>
<pdfrwt beam="2">  1       -1 0.26867847E+00 0.14388917E+04</pdfrwt>
<totfact> 0.45703704E+00</totfact>
</mgrwt>
</event>
<event>
12    1  0.1556559E-007  0.2257184E+04  0.7818608E-02  0.8494997E-01
          1   -1    0    0  501    0  0.00000000000E+00  0.00000000000E+00  0.28399011151E+04  0.28399011151E+04  0.00000000000E+00 0. -1.
         -1   -1    0    0    0  501 -0.00000000000E+00 -0.00000000000E+00 -0.44850858035E+03  0.44850858035E+03  0.00000000000E+00 0.  1.
         23    2    1    2    0    0  0.69487064697E+03 -0.23780301119E+03  0.13657795858E+03  0.75438305989E+03  0.10509412030E+03 0.  0.
        254    2    1    2    0    0 -0.69487064697E+03  0.23780301119E+03  0.22548145762E+04  0.25340266356E+04  0.89314429333E+03 0.  0.
        -24    2    4    4    0    0 -0.67758627408E+03  0.84885521429E+01  0.21724471645E+04  0.22770904325E+04  0.80118291500E+02 0.  0.
         24    2    4    4    0    0 -0.17284372890E+02  0.22931445905E+03  0.82367411690E+02  0.25693620314E+03  0.79674031548E+02 0.  0.
         11    1    3    3    0    0  0.40094620773E+01 -0.15460690616E+01  0.13211521288E+02  0.13892818664E+02  0.00000000000E+00 0. -1.
        -11    1    3    3    0    0  0.69086118489E+03 -0.23625694213E+03  0.12336643729E+03  0.74049024122E+03  0.00000000000E+00 0.  1.
          4    1    6    6  502    0 -0.27439429389E+02  0.21081735540E+03  0.94437097060E+02  0.23262683621E+03  0.00000000000E+00 0. -1.
          3    1    5    5  503    0 -0.47934773216E+03 -0.29068286654E+02  0.14952148590E+04  0.15704415584E+04  0.00000000000E+00 0. -1.
         -4    1    5    5    0  503 -0.19823854192E+03  0.37556838797E+02  0.67723230548E+03  0.70664887408E+03  0.00000000000E+00 0.  1.
         -3    1    6    6    0  502  0.10155056500E+02  0.18497103645E+02 -0.12069685370E+02  0.24309366933E+02  0.00000000000E+00 0.  1.
<mgrwt>
<rscale>  0 0.22571841E+04</rscale>
<asrwt>0</asrwt>
<pdfrwt beam="1">  1        1 0.43690785E+00 0.22571841E+04</pdfrwt>
<pdfrwt beam="2">  1       -1 0.69001322E-01 0.22571841E+04</pdfrwt>
<totfact> 0.15050746E+00</totfact>
</mgrwt>
</event>
<event>
12    1  0.1556559E-007  0.1416236E+04  0.7818608E-02  0.8942150E-01
         -1   -1    0    0    0  501 -0.00000000000E+00  0.00000000000E+00  0.16608795605E+03  0.16608795605E+03  0.00000000000E+00 0.  1.
          1   -1    0    0  501    0  0.00000000000E+00 -0.00000000000E+00 -0.30190680612E+04  0.30190680612E+04  0.00000000000E+00 0. -1.
         23    2    1    2    0    0 -0.78535926470E+01 -0.41110686959E+03 -0.77275655005E+03  0.87980983688E+03  0.88555780645E+02 0.  0.
        254    2    1    2    0    0  0.78535926470E+01  0.41110686959E+03 -0.20802235552E+04  0.23053461804E+04  0.90455537972E+03 0.  0.
        -24    2    4    4    0    0 -0.12509756087E+03  0.27102364974E+03 -0.11579865467E+03  0.32972465106E+03  0.78776891495E+02 0.  0.
         24    2    4    4    0    0  0.13295115352E+03  0.14008321985E+03 -0.19644249005E+04  0.19756215294E+04  0.82558584856E+02 0.  0.
         13    1    3    3    0    0 -0.11289025083E+02 -0.37239337762E+03 -0.74187030117E+03  0.83016613610E+03  0.00000000000E+00 0. -1.
        -13    1    3    3    0    0  0.34354324356E+01 -0.38713491973E+02 -0.30886248884E+02  0.49643700778E+02  0.00000000000E+00 0.  1.
          2    1    6    6  502    0  0.90448200684E+02  0.38389887951E+02 -0.80672240499E+03  0.81268425555E+03  0.00000000000E+00 0. -1.
          1    1    5    5  503    0 -0.62532590016E+02  0.61834946969E+02 -0.52365954607E+02  0.10235271703E+03  0.00000000000E+00 0. -1.
         -2    1    5    5    0  503 -0.62564970853E+02  0.20918870277E+03 -0.63432700066E+02  0.22737193403E+03  0.00000000000E+00 0.  1.
         -3    1    6    6    0  502  0.42502952832E+02  0.10169333190E+03 -0.11577024955E+04  0.11629372738E+04  0.00000000000E+00 0.  1.
<mgrwt>
<rscale>  0 0.14162356E+04</rscale>
<asrwt>0</asrwt>
<pdfrwt beam="1">  1        1 0.46447205E+00 0.14162356E+04</pdfrwt>
<pdfrwt beam="2">  1       -1 0.25551991E-01 0.14162356E+04</pdfrwt>
<totfact> 0.76645447E+00</totfact>
</mgrwt>
</event>
<event>
12    1  0.1556559E-007  0.2201934E+04  0.7818608E-02  0.8517624E-01
         -1   -1    0    0    0  501 -0.00000000000E+00  0.00000000000E+00  0.13397080234E+04  0.13397080234E+04  0.00000000000E+00 0.  1.
          1   -1    0    0  501    0  0.00000000000E+00 -0.00000000000E+00 -0.90477012385E+03  0.90477012385E+03  0.00000000000E+00 0. -1.
         23    2    1    2    0    0  0.53711404380E+03 -0.35099771359E+03  0.84819719069E+03  0.10675001617E+04  0.91799945325E+02 0.  0.
        254    2    1    2    0    0 -0.53711404380E+03  0.35099771359E+03 -0.41325929117E+03  0.11769779855E+04  0.89599277099E+03 0.  0.
        -24    2    4    4    0    0 -0.26353567448E+03  0.18828080671E+02  0.25658915982E+03  0.37677086090E+03  0.79452730193E+02 0.  0.
         24    2    4    4    0    0 -0.27357836931E+03  0.33216963291E+03 -0.66984845100E+03  0.80020712462E+03  0.80328735883E+02 0.  0.
         11    1    3    3    0    0  0.51385734447E+02 -0.69141972317E+02  0.12654780173E+03  0.15308642057E+03  0.00000000000E+00 0. -1.
        -11    1    3    3    0    0  0.48572830935E+03 -0.28185574127E+03  0.72164938895E+03  0.91441374113E+03  0.00000000000E+00 0.  1.
          4    1    6    6  502    0 -0.10187794298E+03  0.90911106505E+02 -0.27095376933E+03  0.30341372689E+03  0.00000000000E+00 0. -1.
          3    1    5    5  503    0 -0.51306131593E+02  0.29550551715E+02  0.30907947556E+02  0.66789635931E+02  0.00000000000E+00 0. -1.
         -4    1    5    5    0  503 -0.21222954289E+03 -0.10722471044E+02  0.22568121227E+03  0.30998122497E+03  0.00000000000E+00 0.  1.
         -1    1    6    6    0  502 -0.17170042633E+03  0.24125852641E+03 -0.39889468167E+03  0.49679339773E+03  0.00000000000E+00 0.  1.
<mgrwt>
<rscale>  0 0.22019335E+04</rscale>
<asrwt>0</asrwt>
<pdfrwt beam="1">  1        1 0.13919540E+00 0.22019335E+04</pdfrwt>
<pdfrwt beam="2">  1       -1 0.20610893E+00 0.22019335E+04</pdfrwt>
<totfact> 0.22461417E+00</totfact>
</mgrwt>
</event>
<event>
12    1  0.1556559E-007  0.1450458E+04  0.7818608E-02  0.8918083E-01
          2   -1    0    0  501    0  0.00000000000E+00  0.00000000000E+00  0.70211970515E+03  0.70211970515E+03  0.00000000000E+00 0. -1.
         -2   -1    0    0    0  501 -0.00000000000E+00 -0.00000000000E+00 -0.74909881376E+03  0.74909881376E+03  0.00000000000E+00 0.  1.
         23    2    1    2    0    0 -0.10602581493E+03  0.33204582461E+03  0.25345540795E+03  0.43993906484E+03  0.88378922158E+02 0.  0.
        254    2    1    2    0    0  0.10602581493E+03 -0.33204582461E+03 -0.30043451656E+03  0.10112794541E+04  0.90051614778E+03 0.  0.
        -24    2    4    4    0    0  0.20244664483E+03  0.25192838736E+03 -0.24176794388E+03  0.41148790536E+03  0.80112428594E+02 0.  0.
         24    2    4    4    0    0 -0.96420829901E+02 -0.58397421196E+03 -0.58666572681E+02  0.59979154871E+03  0.77364581531E+02 0.  0.
         11    1    3    3    0    0 -0.19133822681E+02  0.13214032929E+03  0.14276289192E+03  0.19546972427E+03  0.00000000000E+00 0. -1.
        -11    1    3    3    0    0 -0.86891992245E+02  0.19990549532E+03  0.11069251603E+03  0.24446934057E+03  0.00000000000E+00 0.  1.
          4    1    6    6  502    0 -0.42237696779E+00 -0.19624929567E+03 -0.12518801008E+01  0.19625374304E+03  0.00000000000E+00 0. -1.
          1    1    5    5  503    0  0.51012228995E+02  0.87805286449E+02 -0.11976353572E+03  0.15702012713E+03  0.00000000000E+00 0. -1.
         -2    1    5    5    0  503  0.15143441583E+03  0.16412310091E+03 -0.12200440816E+03  0.25446777824E+03  0.00000000000E+00 0.  1.
         -3    1    6    6    0  502 -0.95998452933E+02 -0.38772491629E+03 -0.57414692580E+02  0.40353780567E+03  0.00000000000E+00 0.  1.
<mgrwt>
<rscale>  0 0.14504579E+04</rscale>
<asrwt>0</asrwt>
<pdfrwt beam="1">  1        2 0.10801842E+00 0.14504579E+04</pdfrwt>
<pdfrwt beam="2">  1       -2 0.11524597E+00 0.14504579E+04</pdfrwt>
<totfact> 0.23216515E+01</totfact>
</mgrwt>
</event>
<event>
12    1  0.1556559E-007  0.1367587E+04  0.7818608E-02  0.8977621E-01
         -1   -1    0    0    0  501 -0.00000000000E+00  0.00000000000E+00  0.60640049821E+03  0.60640049821E+03  0.00000000000E+00 0.  1.
          1   -1    0    0  501    0  0.00000000000E+00 -0.00000000000E+00 -0.77106349869E+03  0.77106349869E+03  0.00000000000E+00 0. -1.
         23    2    1    2    0    0 -0.31998969805E+03 -0.16030482409E+03  0.85034052846E+02  0.37856595694E+03  0.89388758374E+02 0.  0.
        254    2    1    2    0    0  0.31998969805E+03  0.16030482409E+03 -0.24969705333E+03  0.99889803996E+03  0.89853081879E+03 0.  0.
        -24    2    4    4    0    0  0.48354991984E+02 -0.15500751665E+03  0.27162185154E+03  0.32704507138E+03  0.82550063665E+02 0.  0.
         24    2    4    4    0    0  0.27163470607E+03  0.31531234074E+03 -0.52131890487E+03  0.67185296859E+03  0.80035773667E+02 0.  0.
         11    1    3    3    0    0 -0.19142253764E+03 -0.11588379087E+03  0.92965375231E+02  0.24231013576E+03  0.00000000000E+00 0.  1.
        -11    1    3    3    0    0 -0.12856716041E+03 -0.44421033220E+02 -0.79313223851E+01  0.13625582118E+03  0.00000000000E+00 0. -1.
          2    1    6    6  502    0  0.19965173848E+03  0.23033562594E+03 -0.43392722311E+03  0.53029062995E+03  0.00000000000E+00 0. -1.
          3    1    5    5  503    0  0.63359826503E+02 -0.10184213305E+03  0.22408195420E+03  0.25416335274E+03  0.00000000000E+00 0. -1.
         -4    1    5    5    0  503 -0.15004834519E+02 -0.53165383601E+02  0.47539897337E+02  0.72881718635E+02  0.00000000000E+00 0.  1.
         -1    1    6    6    0  502  0.71982967584E+02  0.84976714799E+02 -0.87391681754E+02  0.14156233864E+03  0.00000000000E+00 0.  1.
<mgrwt>
<rscale>  0 0.13675866E+04</rscale>
<asrwt>0</asrwt>
<pdfrwt beam="1">  1        1 0.11862515E+00 0.13675866E+04</pdfrwt>
<pdfrwt beam="2">  1       -1 0.93292385E-01 0.13675866E+04</pdfrwt>
<totfact> 0.25573237E+01</totfact>
</mgrwt>
</event>
<event>
12    1  0.1556559E-007  0.2100980E+04  0.7818608E-02  0.8560812E-01
          2   -1    0    0  501    0  0.00000000000E+00  0.00000000000E+00  0.12758725639E+04  0.12758725639E+04  0.00000000000E+00 0. -1.
         -2   -1    0    0    0  501 -0.00000000000E+00 -0.00000000000E+00 -0.86492092014E+03  0.86492092014E+03  0.00000000000E+00 0.  1.
         23    2    1    2    0    0 -0.16770637678E+03  0.38797247082E+03  0.92203927852E+03  0.10184490804E+04  0.91836982521E+02 0.  0.
        254    2    1    2    0    0  0.16770637678E+03 -0.38797247082E+03 -0.51108763480E+03  0.11223444036E+04  0.90542714941E+03 0.  0.
        -24    2    4    4    0    0  0.40091851700E+03 -0.51364359199E+03 -0.53273461260E+03  0.84528177141E+03  0.78292456522E+02 0.  0.
         24    2    4    4    0    0 -0.23321214023E+03  0.12567112118E+03  0.21646977800E+02  0.27706263217E+03  0.78191927008E+02 0.  0.
         11    1    3    3    0    0 -0.12492402009E+03  0.25942408769E+03  0.52278268827E+03  0.59683214326E+03  0.00000000000E+00 0.  1.
        -11    1    3    3    0    0 -0.42782356690E+02  0.12854838312E+03  0.39925659025E+03  0.42161693717E+03  0.00000000000E+00 0. -1.
          2    1    6    6  502    0 -0.84477670751E+02  0.85518585933E+01 -0.86237002233E+01  0.85346232175E+02  0.00000000000E+00 0. -1.
          3    1    5    5  503    0 -0.90621379274E+00 -0.55258392021E+00 -0.93900134514E+01  0.94498108470E+01  0.00000000000E+00 0. -1.
         -4    1    5    5    0  503  0.40182473080E+03 -0.51309100807E+03 -0.52334459915E+03  0.83583196057E+03  0.00000000000E+00 0.  1.
         -1    1    6    6    0  502 -0.14873446947E+03  0.11711926258E+03  0.30270678024E+02  0.19171639999E+03  0.00000000000E+00 0.  1.
<mgrwt>
<rscale>  0 0.21009796E+04</rscale>
<asrwt>0</asrwt>
<pdfrwt beam="1">  1        2 0.19628809E+00 0.21009796E+04</pdfrwt>
<pdfrwt beam="2">  1       -2 0.13306476E+00 0.21009796E+04</pdfrwt>
<totfact> 0.64426016E+00</totfact>
</mgrwt>
</event>
<event>
12    1  0.1556559E-007  0.1346815E+04  0.7818608E-02  0.8993243E-01
          1   -1    0    0  501    0  0.00000000000E+00  0.00000000000E+00  0.76938020741E+03  0.76938020741E+03  0.00000000000E+00 0. -1.
         -1   -1    0    0    0  501 -0.00000000000E+00 -0.00000000000E+00 -0.58940631425E+03  0.58940631425E+03  0.00000000000E+00 0.  1.
         23    2    1    2    0    0  0.13978954194E+03 -0.59175221206E+02 -0.28100127325E+03  0.33184586718E+03  0.90095178346E+02 0.  0.
        254    2    1    2    0    0 -0.13978954194E+03  0.59175221206E+02  0.46097516642E+03  0.10269406545E+04  0.90502275160E+03 0.  0.
        -24    2    4    4    0    0 -0.40883513164E+03  0.48088666881E+02  0.58610412764E+03  0.72087007323E+03  0.81712479457E+02 0.  0.
         24    2    4    4    0    0  0.26904558970E+03  0.11086554325E+02 -0.12512896122E+03  0.30607058124E+03  0.74252964526E+02 0.  0.
         11    1    3    3    0    0  0.52349265219E+02  0.32260614960E+01 -0.34023662253E+02  0.62517698573E+02  0.00000000000E+00 0. -1.
        -11    1    3    3    0    0  0.87440276718E+02 -0.62401282702E+02 -0.24697761099E+03  0.26932816861E+03  0.00000000000E+00 0.  1.
          2    1    6    6  502    0  0.20906727756E+03  0.37934520119E+02 -0.83604885438E+02  0.22833731896E+03  0.00000000000E+00 0. -1.
          3    1    5    5  503    0 -0.36686222557E+03  0.21959507046E+02  0.54046390251E+03  0.65358346247E+03  0.00000000000E+00 0. -1.
         -4    1    5    5    0  503 -0.41972906068E+02  0.26129159835E+02  0.45640225126E+02  0.67286610756E+02  0.00000000000E+00 0.  1.
         -1    1    6    6    0  502  0.59978312144E+02 -0.26847965793E+02 -0.41524075786E+02  0.77733262281E+02  0.00000000000E+00 0.  1.
<mgrwt>
<rscale>  0 0.13468148E+04</rscale>
<asrwt>0</asrwt>
<pdfrwt beam="1">  1        1 0.11836619E+00 0.13468148E+04</pdfrwt>
<pdfrwt beam="2">  1       -1 0.90677894E-01 0.13468148E+04</pdfrwt>
<totfact> 0.27381553E+01</totfact>
</mgrwt>
</event>
<event>
12    1  0.1556559E-007  0.1573574E+04  0.7818608E-02  0.8836949E-01
          2   -1    0    0  501    0  0.00000000000E+00  0.00000000000E+00  0.30788263052E+04  0.30788263052E+04  0.00000000000E+00 0. -1.
         -2   -1    0    0    0  501 -0.00000000000E+00 -0.00000000000E+00 -0.20106166610E+03  0.20106166610E+03  0.00000000000E+00 0.  1.
         23    2    1    2    0    0  0.11431054552E+03 -0.45573166004E+03  0.15506218545E+04  0.16232946695E+04  0.99494732312E+02 0.  0.
        254    2    1    2    0    0 -0.11431054552E+03  0.45573166004E+03  0.13271427846E+04  0.16565933017E+04  0.87306079392E+03 0.  0.
        -24    2    4    4    0    0 -0.35378134711E+02  0.69914193220E+03  0.10946302842E+04  0.13016685256E+04  0.77938679653E+02 0.  0.
         24    2    4    4    0    0 -0.78932410806E+02 -0.24341027216E+03  0.23251250039E+03  0.35492477610E+03  0.80191319858E+02 0.  0.
         13    1    3    3    0    0  0.13250742579E+03 -0.41189465728E+03  0.14078781541E+04  0.14728667025E+04  0.00000000000E+00 0. -1.
        -13    1    3    3    0    0 -0.18196880270E+02 -0.43837002757E+02  0.14274370040E+03  0.15042796703E+03  0.00000000000E+00 0.  1.
          2    1    6    6  502    0 -0.11916156441E+02 -0.15567158465E+03  0.11672134522E+03  0.19493462874E+03  0.00000000000E+00 0. -1.
          1    1    5    5  503    0 -0.47099471691E+02  0.21641932583E+03  0.34769868697E+03  0.41224999908E+03  0.00000000000E+00 0. -1.
         -2    1    5    5    0  503  0.11721336980E+02  0.48272260637E+03  0.74693159724E+03  0.88941852656E+03  0.00000000000E+00 0.  1.
         -1    1    6    6    0  502 -0.67016254364E+02 -0.87738687502E+02  0.11579115517E+03  0.15999014735E+03  0.00000000000E+00 0.  1.
<mgrwt>
<rscale>  0 0.15735742E+04</rscale>
<asrwt>0</asrwt>
<pdfrwt beam="1">  1        2 0.47366555E+00 0.15735742E+04</pdfrwt>
<pdfrwt beam="2">  1       -2 0.30932566E-01 0.15735742E+04</pdfrwt>
<totfact> 0.14547167E+01</totfact>
</mgrwt>
</event>
<event>
12    1  0.1556559E-007  0.1381132E+04  0.7818608E-02  0.8967591E-01
         -2   -1    0    0    0  501 -0.00000000000E+00  0.00000000000E+00  0.52023951640E+03  0.52023951640E+03  0.00000000000E+00 0. -1.
          2   -1    0    0  501    0  0.00000000000E+00 -0.00000000000E+00 -0.91665686967E+03  0.91665686967E+03  0.00000000000E+00 0.  1.
         23    2    1    2    0    0 -0.36545716180E+02  0.16490827478E+03 -0.48022076828E+03  0.51712964935E+03  0.90998678507E+02 0.  0.
        254    2    1    2    0    0  0.36545716180E+02 -0.16490827478E+03  0.83803415009E+02  0.91976673672E+03  0.90023191965E+03 0.  0.
        -24    2    4    4    0    0 -0.18945191846E+03 -0.36136473946E+03  0.32359052766E+03  0.52699258951E+03  0.80832267568E+02 0.  0.
         24    2    4    4    0    0  0.22599763464E+03  0.19645646468E+03 -0.23978711265E+03  0.39277414721E+03  0.84282844919E+02 0.  0.
         13    1    3    3    0    0 -0.55091338469E+02  0.46744130344E+02 -0.18182180925E+03  0.19565081041E+03  0.00000000000E+00 0. -1.
        -13    1    3    3    0    0  0.18545622289E+02  0.11816414444E+03 -0.29839895903E+03  0.32147883894E+03  0.00000000000E+00 0.  1.
          2    1    6    6  502    0 -0.57377297043E+01  0.87108657650E+01 -0.56988405543E+00  0.10446314775E+02  0.00000000000E+00 0. -1.
          3    1    5    5  503    0 -0.25946597522E+02 -0.11460549922E+03  0.67099201059E+02  0.13531426073E+03  0.00000000000E+00 0. -1.
         -4    1    5    5    0  503 -0.16350532094E+03 -0.24675924024E+03  0.25649132660E+03  0.39167832878E+03  0.00000000000E+00 0.  1.
         -1    1    6    6    0  502  0.23173536434E+03  0.18774559892E+03 -0.23921722859E+03  0.38232783243E+03  0.00000000000E+00 0.  1.
<mgrwt>
<rscale>  0 0.13811316E+04</rscale>
<asrwt>0</asrwt>
<pdfrwt beam="1">  1        2 0.14102413E+00 0.13811316E+04</pdfrwt>
<pdfrwt beam="2">  1       -2 0.80036850E-01 0.13811316E+04</pdfrwt>
<totfact> 0.38466161E+01</totfact>
</mgrwt>
</event>
<event>
12    1  0.1556559E-007  0.2578417E+04  0.7818608E-02  0.8375570E-01
         -1   -1    0    0    0  501 -0.00000000000E+00  0.00000000000E+00  0.64459381472E+03  0.64459381472E+03  0.00000000000E+00 0.  1.
          1   -1    0    0  501    0  0.00000000000E+00 -0.00000000000E+00 -0.25784591459E+04  0.25784591459E+04  0.00000000000E+00 0. -1.
         23    2    1    2    0    0 -0.76276285108E+03 -0.26806394175E+03 -0.18614542170E+04  0.20315073392E+04  0.91350006501E+02 0.  0.
        254    2    1    2    0    0  0.76276285108E+03  0.26806394175E+03 -0.72411114254E+02  0.11915456214E+04  0.87227986023E+03 0.  0.
        -24    2    4    4    0    0  0.60833374724E+03  0.31032395544E+03 -0.41647159234E+03  0.80395241116E+03  0.80746435403E+02 0.  0.
         24    2    4    4    0    0  0.15442910384E+03 -0.42260013684E+02  0.34406047809E+03  0.38759321025E+03  0.78845590725E+02 0.  0.
         11    1    3    3    0    0 -0.59556729057E+03 -0.22863677412E+03 -0.15429567607E+04  0.16696379061E+04  0.00000000000E+00 0. -1.
        -11    1    3    3    0    0 -0.16719556051E+03 -0.39427167635E+02 -0.31849745629E+03  0.36186943317E+03  0.00000000000E+00 0.  1.
          2    1    6    6  502    0  0.13755320935E+03 -0.85647460927E+01  0.29606209665E+03  0.32656853087E+03  0.00000000000E+00 0. -1.
          1    1    5    5  503    0  0.42545569852E+03  0.18860148342E+03 -0.31498849553E+03  0.56196158523E+03  0.00000000000E+00 0. -1.
         -2    1    5    5    0  503  0.18287804872E+03  0.12172247202E+03 -0.10148309681E+03  0.24199082593E+03  0.00000000000E+00 0.  1.
         -1    1    6    6    0  502  0.16875894490E+02 -0.33695267592E+02  0.47998381439E+02  0.61024679382E+02  0.00000000000E+00 0.  1.
<mgrwt>
<rscale>  0 0.25784172E+04</rscale>
<asrwt>0</asrwt>
<pdfrwt beam="1">  1        1 0.39668603E+00 0.25784172E+04</pdfrwt>
<pdfrwt beam="2">  1       -1 0.99168278E-01 0.25784172E+04</pdfrwt>
<totfact> 0.10236451E+00</totfact>
</mgrwt>
</event>
<event>
12    1  0.1556559E-007  0.2193351E+04  0.7818608E-02  0.8521201E-01
          2   -1    0    0  501    0  0.00000000000E+00  0.00000000000E+00  0.11019707494E+04  0.11019707494E+04  0.00000000000E+00 0.  1.
         -2   -1    0    0    0  501 -0.00000000000E+00 -0.00000000000E+00 -0.10914052262E+04  0.10914052262E+04  0.00000000000E+00 0. -1.
         23    2    1    2    0    0 -0.32295257084E+03  0.35085063333E+03  0.77713130715E+03  0.91630854427E+03  0.91070027062E+02 0.  0.
        254    2    1    2    0    0  0.32295257084E+03 -0.35085063333E+03 -0.76656578401E+03  0.12770674313E+04  0.90326274857E+03 0.  0.
        -24    2    4    4    0    0 -0.41809974875E+02 -0.18135852311E+03 -0.83658968458E+03  0.86077116612E+03  0.80035693090E+02 0.  0.
         24    2    4    4    0    0  0.36476254571E+03 -0.16949211023E+03  0.70023900565E+02  0.41629626519E+03  0.81363035676E+02 0.  0.
         13    1    3    3    0    0 -0.25046847876E+03  0.20916119114E+03  0.52462404430E+03  0.61782946724E+03  0.00000000000E+00 0.  1.
        -13    1    3    3    0    0 -0.72484092078E+02  0.14168944219E+03  0.25250726285E+03  0.29847907703E+03  0.00000000000E+00 0. -1.
          2    1    6    6  502    0  0.22142562339E+03 -0.13995625632E+03  0.24800862821E+02  0.26312001667E+03  0.00000000000E+00 0. -1.
          1    1    5    5  503    0 -0.27969930452E+02 -0.17884852354E+03 -0.81598430586E+03  0.83582264793E+03  0.00000000000E+00 0. -1.
         -2    1    5    5    0  503 -0.13840044424E+02 -0.25099995621E+01 -0.20605378719E+02  0.24948518184E+02  0.00000000000E+00 0.  1.
         -1    1    6    6    0  502  0.14333692232E+03 -0.29535853911E+02  0.45223037744E+02  0.15317624851E+03  0.00000000000E+00 0.  1.
<mgrwt>
<rscale>  0 0.21933505E+04</rscale>
<asrwt>0</asrwt>
<pdfrwt beam="1">  1        2 0.16953396E+00 0.21933505E+04</pdfrwt>
<pdfrwt beam="2">  1       -2 0.16790850E+00 0.21933505E+04</pdfrwt>
<totfact> 0.43827156E+00</totfact>
</mgrwt>
</event>
<event>
12    1  0.1556559E-007  0.2107098E+04  0.7818608E-02  0.8558123E-01
         -1   -1    0    0    0  501 -0.00000000000E+00  0.00000000000E+00  0.63368381471E+03  0.63368381471E+03  0.00000000000E+00 0.  1.
          1   -1    0    0  501    0  0.00000000000E+00 -0.00000000000E+00 -0.17516081479E+04  0.17516081479E+04  0.00000000000E+00 0. -1.
         23    2    1    2    0    0 -0.80325311791E+03  0.15864343949E+03 -0.74994419418E+03  0.11140127580E+04  0.90690784132E+02 0.  0.
        254    2    1    2    0    0  0.80325311791E+03 -0.15864343949E+03 -0.36798013900E+03  0.12712792046E+04  0.90019893411E+03 0.  0.
        -24    2    4    4    0    0  0.61766484855E+03 -0.51324836137E+03 -0.28869814625E+03  0.85710066482E+03  0.79631554167E+02 0.  0.
         24    2    4    4    0    0  0.18558826936E+03  0.35460492187E+03 -0.79281992758E+02  0.41417853976E+03  0.71207949570E+02 0.  0.
         11    1    3    3    0    0 -0.49792654525E+03  0.87572080118E+02 -0.51979657771E+03  0.72511254015E+03  0.00000000000E+00 0. -1.
        -11    1    3    3    0    0 -0.30532657266E+03  0.71071359376E+02 -0.23014761647E+03  0.38890021788E+03  0.00000000000E+00 0.  1.
          2    1    6    6  502    0  0.64124306978E+01  0.33366496671E+02  0.10478114385E+02  0.35556057833E+02  0.00000000000E+00 0. -1.
          1    1    5    5  503    0  0.20511094784E+03 -0.15633790849E+03 -0.55341909651E+02  0.26377029688E+03  0.00000000000E+00 0. -1.
         -2    1    5    5    0  503  0.41255390071E+03 -0.35691045287E+03 -0.23335623659E+03  0.59333036794E+03  0.00000000000E+00 0.  1.
         -1    1    6    6    0  502  0.17917583867E+03  0.32123842520E+03 -0.89760107143E+02  0.37862248193E+03  0.00000000000E+00 0.  1.
<mgrwt>
<rscale>  0 0.21070982E+04</rscale>
<asrwt>0</asrwt>
<pdfrwt beam="1">  1        1 0.26947817E+00 0.21070982E+04</pdfrwt>
<pdfrwt beam="2">  1       -1 0.97489818E-01 0.21070982E+04</pdfrwt>
<totfact> 0.40793239E+00</totfact>
</mgrwt>
</event>
<event>
12    1  0.1556559E-007  0.1292601E+04  0.7818608E-02  0.9035453E-01
          1   -1    0    0  501    0  0.00000000000E+00  0.00000000000E+00  0.11402989975E+04  0.11402989975E+04  0.00000000000E+00 0. -1.
         -1   -1    0    0    0  501 -0.00000000000E+00 -0.00000000000E+00 -0.36631125996E+03  0.36631125996E+03  0.00000000000E+00 0.  1.
         23    2    1    2    0    0  0.28869020965E+03 -0.28857535042E+02  0.33325331759E+02  0.30587609698E+03  0.90966007310E+02 0.  0.
        254    2    1    2    0    0 -0.28869020965E+03  0.28857535042E+02  0.74066240579E+03  0.12007341605E+04  0.89944812544E+03 0.  0.
        -24    2    4    4    0    0 -0.12727457342E+03  0.44891629182E+03  0.27233086292E+03  0.54634452872E+03  0.81262482513E+02 0.  0.
         24    2    4    4    0    0 -0.16141563623E+03 -0.42005875677E+03  0.46833154287E+03  0.65438963178E+03  0.79918642195E+02 0.  0.
         11    1    3    3    0    0  0.26605204539E+03 -0.39814897744E+02  0.52700161350E+02  0.27412811593E+03  0.00000000000E+00 0.  1.
        -11    1    3    3    0    0  0.22638164264E+02  0.10957362702E+02 -0.19374829592E+02  0.31747981043E+02  0.00000000000E+00 0. -1.
          2    1    6    6  502    0 -0.63454518010E+02 -0.82200312444E+02  0.12926099581E+03  0.16580643009E+03  0.00000000000E+00 0. -1.
          3    1    5    5  503    0 -0.19896122057E+02  0.42967870866E+02  0.29230057540E+01  0.47440884923E+02  0.00000000000E+00 0. -1.
         -4    1    5    5    0  503 -0.10737845136E+03  0.40594842095E+03  0.26940785716E+03  0.49890364379E+03  0.00000000000E+00 0.  1.
         -1    1    6    6    0  502 -0.97961118223E+02 -0.33785844433E+03  0.33907054707E+03  0.48858320169E+03  0.00000000000E+00 0.  1.
<mgrwt>
<rscale>  0 0.12926010E+04</rscale>
<asrwt>0</asrwt>
<pdfrwt beam="1">  1        1 0.17543061E+00 0.12926010E+04</pdfrwt>
<pdfrwt beam="2">  1       -1 0.56355579E-01 0.12926010E+04</pdfrwt>
<totfact> 0.37042554E+01</totfact>
</mgrwt>
</event>
<event>
12    1  0.1556559E-007  0.1308940E+04  0.7818608E-02  0.9022506E-01
          2   -1    0    0  501    0  0.00000000000E+00  0.00000000000E+00  0.17826133594E+04  0.17826133594E+04  0.00000000000E+00 0.  1.
         -2   -1    0    0    0  501 -0.00000000000E+00 -0.00000000000E+00 -0.24028248397E+03  0.24028248397E+03  0.00000000000E+00 0. -1.
         23    2    1    2    0    0  0.12226513295E+03 -0.12510183131E+03 -0.31634710487E+02  0.19980489505E+03  0.91225052720E+02 0.  0.
        254    2    1    2    0    0 -0.12226513295E+03  0.12510183131E+03  0.15739655859E+04  0.18230909483E+04  0.90315763256E+03 0.  0.
        -24    2    4    4    0    0 -0.41502482479E+03  0.17242895400E+03  0.13941566987E+04  0.14671745219E+04  0.83371625021E+02 0.  0.
         24    2    4    4    0    0  0.29275969184E+03 -0.47327122682E+02  0.17980888718E+03  0.35591642637E+03  0.79982328938E+02 0.  0.
         11    1    3    3    0    0 -0.86206005010E+01 -0.12277155220E+02  0.14590975505E+02  0.20927012675E+02  0.00000000000E+00 0.  1.
        -11    1    3    3    0    0  0.13088573345E+03 -0.11282467609E+03 -0.46225685992E+02  0.17887788237E+03  0.00000000000E+00 0. -1.
          2    1    6    6  502    0  0.15943509421E+03 -0.62646999521E+02  0.11900971567E+03  0.20858453500E+03  0.00000000000E+00 0. -1.
          3    1    5    5  503    0 -0.25796144029E+03  0.12308322285E+03  0.99927903585E+03  0.10393518057E+04  0.00000000000E+00 0. -1.
         -4    1    5    5    0  503 -0.15706338450E+03  0.49345731142E+02  0.39487766287E+03  0.42782271629E+03  0.00000000000E+00 0.  1.
         -1    1    6    6    0  502  0.13332459763E+03  0.15319876839E+02  0.60799171504E+02  0.14733189137E+03  0.00000000000E+00 0.  1.
<mgrwt>
<rscale>  0 0.13089397E+04</rscale>
<asrwt>0</asrwt>
<pdfrwt beam="1">  1        2 0.27424820E+00 0.13089397E+04</pdfrwt>
<pdfrwt beam="2">  1       -2 0.36966537E-01 0.13089397E+04</pdfrwt>
<totfact> 0.59599335E+01</totfact>
</mgrwt>
</event>
<event>
12    1  0.1556559E-007  0.1841351E+04  0.7818608E-02  0.8684613E-01
         -1   -1    0    0    0  501 -0.00000000000E+00  0.00000000000E+00  0.48187802783E+03  0.48187802783E+03  0.00000000000E+00 0.  1.
          1   -1    0    0  501    0  0.00000000000E+00 -0.00000000000E+00 -0.17590420113E+04  0.17590420113E+04  0.00000000000E+00 0. -1.
         23    2    1    2    0    0 -0.18888801137E+01  0.41995723918E+03  0.18222365082E+03  0.46682993246E+03  0.91417046112E+02 0.  0.
        254    2    1    2    0    0  0.18888801137E+01 -0.41995723918E+03 -0.14593876343E+04  0.17740901067E+04  0.91717816638E+03 0.  0.
        -24    2    4    4    0    0  0.18417830417E+03 -0.61812393334E+03 -0.12935408413E+04  0.14481923611E+04  0.89522968556E+02 0.  0.
         24    2    4    4    0    0 -0.18228942406E+03  0.19816669416E+03 -0.16584679301E+03  0.32589774561E+03  0.78769975522E+02 0.  0.
         13    1    3    3    0    0 -0.31313602656E+02  0.36134326163E+03  0.13973270866E+03  0.38868332136E+03  0.00000000000E+00 0.  1.
        -13    1    3    3    0    0  0.29424722542E+02  0.58613977546E+02  0.42490942163E+02  0.78146611099E+02  0.00000000000E+00 0. -1.
          2    1    6    6  502    0 -0.14370616327E+03  0.13068199790E+03 -0.15266036116E+03  0.24705147603E+03  0.00000000000E+00 0. -1.
          3    1    5    5  503    0  0.16947510176E+03 -0.58375912125E+03 -0.12552305319E+04  0.13946684947E+04  0.00000000000E+00 0. -1.
         -4    1    5    5    0  503  0.14703202414E+02 -0.34364812091E+02 -0.38310309376E+02  0.53523866413E+02  0.00000000000E+00 0.  1.
         -1    1    6    6    0  502 -0.38583260787E+02  0.67484696256E+02 -0.13186431848E+02  0.78846269580E+02  0.00000000000E+00 0.  1.
<mgrwt>
<rscale>  0 0.18413513E+04</rscale>
<asrwt>0</asrwt>
<pdfrwt beam="1">  1        1 0.27062185E+00 0.18413513E+04</pdfrwt>
<pdfrwt beam="2">  1       -1 0.74135079E-01 0.18413513E+04</pdfrwt>
<totfact> 0.74817302E+00</totfact>
</mgrwt>
</event>
<event>
12    1  0.1556559E-007  0.1731815E+04  0.7818608E-02  0.8743424E-01
         -2   -1    0    0    0  501 -0.00000000000E+00  0.00000000000E+00  0.50356160544E+03  0.50356160544E+03  0.00000000000E+00 0. -1.
          2   -1    0    0  501    0  0.00000000000E+00 -0.00000000000E+00 -0.14889849711E+04  0.14889849711E+04  0.00000000000E+00 0.  1.
         23    2    1    2    0    0 -0.28321234677E+03  0.55202381876E+03 -0.47574271282E+03  0.78705039426E+03  0.90430439939E+02 0.  0.
        254    2    1    2    0    0  0.28321234677E+03 -0.55202381876E+03 -0.50968065284E+03  0.12054961823E+04  0.89917025518E+03 0.  0.
        -24    2    4    4    0    0  0.15317468688E+03 -0.61240928575E+03 -0.70658227478E+03  0.95089901928E+03  0.80267153035E+02 0.  0.
         24    2    4    4    0    0  0.13003765989E+03  0.60385466998E+02  0.19690162194E+03  0.25459716301E+03  0.74116591085E+02 0.  0.
         11    1    3    3    0    0 -0.24020226605E+02  0.33452764470E+02 -0.63498198847E+02  0.75684080187E+02  0.00000000000E+00 0.  1.
        -11    1    3    3    0    0 -0.25919212017E+03  0.51857105429E+03 -0.41224451397E+03  0.71136631408E+03  0.00000000000E+00 0. -1.
          4    1    6    6  502    0  0.45418772763E+02 -0.14115467533E+02  0.45419812501E+02  0.65765269791E+02  0.00000000000E+00 0. -1.
          3    1    5    5  503    0  0.51906743487E+02 -0.35602722932E+03 -0.42510954860E+03  0.55692712840E+03  0.00000000000E+00 0. -1.
         -4    1    5    5    0  503  0.10126794340E+03 -0.25638205644E+03 -0.28147272618E+03  0.39397189088E+03  0.00000000000E+00 0.  1.
         -3    1    6    6    0  502  0.84618887125E+02  0.74500934531E+02  0.15148180944E+03  0.18883189322E+03  0.00000000000E+00 0.  1.
<mgrwt>
<rscale>  0 0.17318148E+04</rscale>
<asrwt>0</asrwt>
<pdfrwt beam="1">  1        2 0.22907461E+00 0.17318148E+04</pdfrwt>
<pdfrwt beam="2">  1       -2 0.77471017E-01 0.17318148E+04</pdfrwt>
<totfact> 0.18157560E+01</totfact>
</mgrwt>
</event>
<event>
12    1  0.1556559E-007  0.2241659E+04  0.7818608E-02  0.8501286E-01
          2   -1    0    0  501    0  0.00000000000E+00  0.00000000000E+00  0.24645014959E+04  0.24645014959E+04  0.00000000000E+00 0. -1.
         -2   -1    0    0    0  501 -0.00000000000E+00 -0.00000000000E+00 -0.50974136311E+03  0.50974136311E+03  0.00000000000E+00 0.  1.
         23    2    1    2    0    0  0.14350319709E+03  0.55000092837E+03 -0.16845810657E+03  0.59990581924E+03  0.91731507723E+02 0.  0.
        254    2    1    2    0    0 -0.14350319709E+03 -0.55000092837E+03  0.21232182394E+04  0.23743370398E+04  0.89795684622E+03 0.  0.
        -24    2    4    4    0    0 -0.12078837475E+03 -0.71249595758E+03  0.20552019997E+04  0.21799565095E+04  0.78197203055E+02 0.  0.
         24    2    4    4    0    0 -0.22714822342E+02  0.16249502921E+03  0.68016239633E+02  0.19438053027E+03  0.78974578324E+02 0.  0.
         13    1    3    3    0    0  0.10414810780E+00 -0.21995669212E+01 -0.64760282881E+01  0.68401669466E+01  0.00000000000E+00 0. -1.
        -13    1    3    3    0    0  0.14339904898E+03  0.55220049529E+03 -0.16198207828E+03  0.59306565229E+03  0.00000000000E+00 0.  1.
          2    1    6    6  502    0  0.99755478935E+01  0.19117704196E+02  0.38888133990E+02  0.44466674428E+02  0.00000000000E+00 0. -1.
          3    1    5    5  503    0 -0.74890885542E+02 -0.29998204442E+03  0.78678922692E+03  0.84536096391E+03  0.00000000000E+00 0. -1.
         -4    1    5    5    0  503 -0.45897489207E+02 -0.41251391316E+03  0.12684127728E+04  0.13345955456E+04  0.00000000000E+00 0.  1.
         -1    1    6    6    0  502 -0.32690370236E+02  0.14337732502E+03  0.29128105643E+02  0.14991385584E+03  0.00000000000E+00 0.  1.
<mgrwt>
<rscale>  0 0.22416586E+04</rscale>
<asrwt>0</asrwt>
<pdfrwt beam="1">  1        2 0.37915407E+00 0.22416586E+04</pdfrwt>
<pdfrwt beam="2">  1       -2 0.78421749E-01 0.22416586E+04</pdfrwt>
<totfact> 0.48061126E+00</totfact>
</mgrwt>
</event>
<event>
12    1  0.1556559E-007  0.1228803E+04  0.7818608E-02  0.9088013E-01
          2   -1    0    0  501    0  0.00000000000E+00  0.00000000000E+00  0.11562996143E+04  0.11562996143E+04  0.00000000000E+00 0. -1.
         -2   -1    0    0    0  501 -0.00000000000E+00 -0.00000000000E+00 -0.32646298462E+03  0.32646298462E+03  0.00000000000E+00 0.  1.
         23    2    1    2    0    0  0.22152084512E+03 -0.10588944792E+03  0.15318775101E+03  0.30368172182E+03  0.92043691293E+02 0.  0.
        254    2    1    2    0    0 -0.22152084512E+03  0.10588944792E+03  0.67664887872E+03  0.11790808771E+04  0.93385970561E+03 0.  0.
        -24    2    4    4    0    0 -0.14207183733E+03  0.57077426087E+01 -0.21773091159E+03  0.27186284120E+03  0.79282212886E+02 0.  0.
         24    2    4    4    0    0 -0.79449007791E+02  0.10018170531E+03  0.89437979030E+03  0.90721803593E+03  0.82345834776E+02 0.  0.
         13    1    3    3    0    0  0.20240717277E+03 -0.85433456278E+02  0.16348504566E+03  0.27385196584E+03  0.00000000000E+00 0. -1.
        -13    1    3    3    0    0  0.19113672346E+02 -0.20455991640E+02 -0.10297294653E+02  0.29829755978E+02  0.00000000000E+00 0.  1.
          2    1    6    6  502    0 -0.79106956397E+02  0.10883559734E+03  0.88142395054E+03  0.89163404959E+03  0.00000000000E+00 0. -1.
          1    1    5    5  503    0 -0.38798961747E+02  0.25467999244E+02 -0.11858723138E+03  0.12734563151E+03  0.00000000000E+00 0. -1.
         -4    1    5    5    0  503 -0.10327287558E+03 -0.19760256635E+02 -0.99143680203E+02  0.14451720969E+03  0.00000000000E+00 0.  1.
         -1    1    6    6    0  502 -0.34205139395E+00 -0.86538920339E+01  0.12955839765E+02  0.15583986348E+02  0.00000000000E+00 0.  1.
<mgrwt>
<rscale>  0 0.12288027E+04</rscale>
<asrwt>0</asrwt>
<pdfrwt beam="1">  1        2 0.17789225E+00 0.12288027E+04</pdfrwt>
<pdfrwt beam="2">  1       -2 0.50225075E-01 0.12288027E+04</pdfrwt>
<totfact> 0.74301366E+01</totfact>
</mgrwt>
</event>
<event>
12    1  0.1556559E-007  0.1575971E+04  0.7818608E-02  0.8835447E-01
          2   -1    0    0  501    0  0.00000000000E+00  0.00000000000E+00  0.19756721114E+04  0.19756721114E+04  0.00000000000E+00 0.  1.
         -2   -1    0    0    0  501 -0.00000000000E+00 -0.00000000000E+00 -0.31428366577E+03  0.31428366577E+03  0.00000000000E+00 0. -1.
         23    2    1    2    0    0 -0.73055596661E+02 -0.45641654790E+03  0.93191520537E+03  0.10442406795E+04  0.91211081687E+02 0.  0.
        254    2    1    2    0    0  0.73055596661E+02  0.45641654790E+03  0.72947324030E+03  0.12457150977E+04  0.89778711888E+03 0.  0.
        -24    2    4    4    0    0  0.14767851116E+03  0.70390398999E+03  0.62279912081E+03  0.95470827997E+03  0.79368666261E+02 0.  0.
         24    2    4    4    0    0 -0.74622914499E+02 -0.24748744209E+03  0.10667411950E+03  0.29100681769E+03  0.80541832680E+02 0.  0.
         11    1    3    3    0    0 -0.15422415425E+02 -0.12093602348E+03  0.16479455566E+03  0.20498931252E+03  0.00000000000E+00 0. -1.
        -11    1    3    3    0    0 -0.57633181236E+02 -0.33548052442E+03  0.76712064971E+03  0.83925136702E+03  0.00000000000E+00 0.  1.
          4    1    6    6  502    0 -0.31747956891E+02 -0.28816444476E+02 -0.23321494618E+01  0.42939016757E+02  0.00000000000E+00 0. -1.
          3    1    5    5  503    0  0.10736176156E+02  0.15877081050E+02  0.33146719330E+02  0.38289060885E+02  0.00000000000E+00 0. -1.
         -4    1    5    5    0  503  0.13694233500E+03  0.68802690894E+03  0.58965240148E+03  0.91641921908E+03  0.00000000000E+00 0.  1.
         -3    1    6    6    0  502 -0.42874957607E+02 -0.21867099762E+03  0.10900626896E+03  0.24806780093E+03  0.00000000000E+00 0.  1.
<mgrwt>
<rscale>  0 0.15759714E+04</rscale>
<asrwt>0</asrwt>
<pdfrwt beam="1">  1        2 0.30394955E+00 0.15759714E+04</pdfrwt>
<pdfrwt beam="2">  1       -2 0.48351334E-01 0.15759714E+04</pdfrwt>
<totfact> 0.26834842E+01</totfact>
</mgrwt>
</event>
<event>
12    1  0.1556559E-007  0.3568421E+04  0.7818608E-02  0.8097764E-01
         -2   -1    0    0    0  501 -0.00000000000E+00  0.00000000000E+00  0.75181252725E+03  0.75181252725E+03  0.00000000000E+00 0. -1.
          2   -1    0    0  501    0  0.00000000000E+00 -0.00000000000E+00 -0.42343105891E+04  0.42343105891E+04  0.00000000000E+00 0.  1.
         23    2    1    2    0    0  0.12729134075E+04  0.90004438958E+03 -0.24600051991E+04  0.29138014103E+04  0.90689761993E+02 0.  0.
        254    2    1    2    0    0 -0.12729134075E+04 -0.90004438958E+03 -0.10224928628E+04  0.20723217060E+04  0.90478569433E+03 0.  0.
        -24    2    4    4    0    0 -0.10877623696E+04 -0.50937003676E+03 -0.10943797483E+04  0.16269455309E+04  0.81239890384E+02 0.  0.
         24    2    4    4    0    0 -0.18515103792E+03 -0.39067435282E+03  0.71886885559E+02  0.44537617517E+03  0.79277085624E+02 0.  0.
         13    1    3    3    0    0  0.85338093711E+03  0.55054682035E+03 -0.16047671423E+04  0.18991151640E+04  0.00000000000E+00 0.  1.
        -13    1    3    3    0    0  0.41953247042E+03  0.34949756923E+03 -0.85523805683E+03  0.10146862463E+04  0.00000000000E+00 0. -1.
          4    1    6    6  502    0 -0.25075664013E+02 -0.13239770883E+03  0.35470744989E+02  0.13934172376E+03  0.00000000000E+00 0. -1.
          3    1    5    5  503    0 -0.90453278844E+03 -0.41152583871E+03 -0.86488157757E+03  0.13174039716E+04  0.00000000000E+00 0. -1.
         -4    1    5    5    0  503 -0.18322958117E+03 -0.97844198047E+02 -0.22949817076E+03  0.30954155923E+03  0.00000000000E+00 0.  1.
         -3    1    6    6    0  502 -0.16007537391E+03 -0.25827664399E+03  0.36416140570E+02  0.30603445142E+03  0.00000000000E+00 0.  1.
<mgrwt>
<rscale>  0 0.35684214E+04</rscale>
<asrwt>0</asrwt>
<pdfrwt beam="1">  1        2 0.65143241E+00 0.35684214E+04</pdfrwt>
<pdfrwt beam="2">  1       -2 0.11566346E+00 0.35684214E+04</pdfrwt>
<totfact> 0.10271669E-01</totfact>
</mgrwt>
</event>
<event>
12    1  0.1556559E-007  0.1531896E+04  0.7818608E-02  0.8863515E-01
          1   -1    0    0  501    0  0.00000000000E+00  0.00000000000E+00  0.71356319431E+03  0.71356319431E+03  0.00000000000E+00 0. -1.
         -1   -1    0    0    0  501 -0.00000000000E+00 -0.00000000000E+00 -0.82217889968E+03  0.82217889968E+03  0.00000000000E+00 0.  1.
         23    2    1    2    0    0 -0.24420596031E+03 -0.82538721959E+02  0.39787310944E+03  0.48302704510E+03  0.92536065464E+02 0.  0.
        254    2    1    2    0    0  0.24420596031E+03  0.82538721959E+02 -0.50648881481E+03  0.10527150489E+04  0.88613140276E+03 0.  0.
        -24    2    4    4    0    0  0.51836502407E+03 -0.10858264787E+03 -0.14796040189E+03  0.55597575680E+03  0.82001658614E+02 0.  0.
         24    2    4    4    0    0 -0.27415906376E+03  0.19112136983E+03 -0.35852841292E+03  0.49673929209E+03  0.80726273219E+02 0.  0.
         11    1    3    3    0    0 -0.14488320351E+03 -0.23609748588E+02  0.28980110552E+03  0.32485880571E+03  0.00000000000E+00 0. -1.
        -11    1    3    3    0    0 -0.99322756798E+02 -0.58928973371E+02  0.10807200392E+03  0.15816823939E+03  0.00000000000E+00 0.  1.
          2    1    6    6  502    0 -0.25248890753E+02  0.19089062090E+02 -0.77800441587E+02  0.83992901407E+02  0.00000000000E+00 0. -1.
          1    1    5    5  503    0  0.15122234040E+02 -0.15268199572E+02  0.44472294063E+01  0.21944879356E+02  0.00000000000E+00 0. -1.
         -2    1    5    5    0  503  0.50324279003E+03 -0.93314448302E+02 -0.15240763130E+03  0.53403087744E+03  0.00000000000E+00 0.  1.
         -1    1    6    6    0  502 -0.24891017301E+03  0.17203230774E+03 -0.28072797133E+03  0.41274639068E+03  0.00000000000E+00 0.  1.
<mgrwt>
<rscale>  0 0.15318963E+04</rscale>
<asrwt>0</asrwt>
<pdfrwt beam="1">  1        1 0.10977895E+00 0.15318963E+04</pdfrwt>
<pdfrwt beam="2">  1       -1 0.12648906E+00 0.15318963E+04</pdfrwt>
<totfact> 0.13872743E+01</totfact>
</mgrwt>
</event>
<event>
12    1  0.1556559E-007  0.1520456E+04  0.7818608E-02  0.8870963E-01
         -1   -1    0    0    0  501 -0.00000000000E+00  0.00000000000E+00  0.62455040481E+03  0.62455040481E+03  0.00000000000E+00 0.  1.
          1   -1    0    0  501    0  0.00000000000E+00 -0.00000000000E+00 -0.92538005039E+03  0.92538005039E+03  0.00000000000E+00 0. -1.
         23    2    1    2    0    0  0.58305699351E+02 -0.25052247986E+03  0.31786908487E+03  0.41917445166E+03  0.92224716403E+02 0.  0.
        254    2    1    2    0    0 -0.58305699351E+02  0.25052247986E+03 -0.61869873045E+03  0.11307560035E+04  0.91085671375E+03 0.  0.
        -24    2    4    4    0    0 -0.45332647499E+03  0.26780404758E+03 -0.43356709111E+03  0.68678803148E+03  0.80457919811E+02 0.  0.
         24    2    4    4    0    0  0.39502077564E+03 -0.17281567723E+02 -0.18513163934E+03  0.44396797205E+03  0.80583934834E+02 0.  0.
         11    1    3    3    0    0  0.82981181932E+02 -0.19993696440E+03  0.24171893794E+03  0.32448222023E+03  0.00000000000E+00 0.  1.
        -11    1    3    3    0    0 -0.24675482580E+02 -0.50585515452E+02  0.76150146934E+02  0.94692231425E+02  0.00000000000E+00 0. -1.
          2    1    6    6  502    0  0.25776782803E+03 -0.14546784302E+02 -0.77604235902E+02  0.26958909387E+03  0.00000000000E+00 0. -1.
          3    1    5    5  503    0 -0.41043449867E+03  0.25769912864E+03 -0.41819047487E+03  0.64011607687E+03  0.00000000000E+00 0. -1.
         -4    1    5    5    0  503 -0.42891976327E+02  0.10104918935E+02 -0.15376616244E+02  0.46671954609E+02  0.00000000000E+00 0.  1.
         -1    1    6    6    0  502  0.13725294761E+03 -0.27347834216E+01 -0.10752740343E+03  0.17437887819E+03  0.00000000000E+00 0.  1.
<mgrwt>
<rscale>  0 0.15204558E+04</rscale>
<asrwt>0</asrwt>
<pdfrwt beam="1">  1        1 0.14236616E+00 0.15204558E+04</pdfrwt>
<pdfrwt beam="2">  1       -1 0.96084679E-01 0.15204558E+04</pdfrwt>
<totfact> 0.17492698E+01</totfact>
</mgrwt>
</event>
<event>
12    1  0.1556559E-007  0.3040444E+04  0.7818608E-02  0.8232275E-01
          2   -1    0    0  501    0  0.00000000000E+00  0.00000000000E+00  0.34999370709E+04  0.34999370709E+04  0.00000000000E+00 0. -1.
         -2   -1    0    0    0  501 -0.00000000000E+00 -0.00000000000E+00 -0.66031906063E+03  0.66031906063E+03  0.00000000000E+00 0.  1.
         23    2    1    2    0    0 -0.34777097750E+03 -0.44793286334E+03  0.30207983001E+04  0.30749883398E+04  0.93500894468E+02 0.  0.
        254    2    1    2    0    0  0.34777097750E+03  0.44793286334E+03 -0.18118028983E+03  0.10852677917E+04  0.90740915769E+03 0.  0.
        -24    2    4    4    0    0  0.95488185862E+02 -0.56241148110E+02  0.30614614070E+03  0.33565869380E+03  0.81610286598E+02 0.  0.
         24    2    4    4    0    0  0.25228279163E+03  0.50417401145E+03 -0.48732643053E+03  0.74960909791E+03  0.81170862973E+02 0.  0.
         13    1    3    3    0    0 -0.25010820290E+03 -0.31913090672E+03  0.19163410545E+04  0.19587653473E+04  0.00000000000E+00 0.  1.
        -13    1    3    3    0    0 -0.97662774599E+02 -0.12880195663E+03  0.11044572456E+04  0.11162229925E+04  0.00000000000E+00 0. -1.
          4    1    6    6  502    0  0.70249015295E+02  0.18316337615E+03 -0.21449163778E+03  0.29067233991E+03  0.00000000000E+00 0. -1.
          1    1    5    5  503    0  0.82079012943E+02 -0.49676326038E+02  0.30604249292E+03  0.32072840412E+03  0.00000000000E+00 0. -1.
         -2    1    5    5    0  503  0.13409172919E+02 -0.65648220719E+01  0.10364778000E+00  0.14930289684E+02  0.00000000000E+00 0.  1.
         -3    1    6    6    0  502  0.18203377634E+03  0.32101063531E+03 -0.27283479275E+03  0.45893675800E+03  0.00000000000E+00 0.  1.
<mgrwt>
<rscale>  0 0.30404442E+04</rscale>
<asrwt>0</asrwt>
<pdfrwt beam="1">  1        2 0.53845185E+00 0.30404442E+04</pdfrwt>
<pdfrwt beam="2">  1       -2 0.10158755E+00 0.30404442E+04</pdfrwt>
<totfact> 0.55139952E-01</totfact>
</mgrwt>
</event>
<event>
12    1  0.1556559E-007  0.1179364E+04  0.7818608E-02  0.9131113E-01
          1   -1    0    0  501    0  0.00000000000E+00  0.00000000000E+00  0.14360177316E+04  0.14360177316E+04  0.00000000000E+00 0. -1.
         -1   -1    0    0    0  501 -0.00000000000E+00 -0.00000000000E+00 -0.24214538132E+03  0.24214538132E+03  0.00000000000E+00 0.  1.
         23    2    1    2    0    0 -0.16648936697E+03 -0.14610298199E+03  0.34516467800E+03  0.42169691495E+03  0.98106281556E+02 0.  0.
        254    2    1    2    0    0  0.16648936697E+03  0.14610298199E+03  0.84870767233E+03  0.12564661980E+04  0.89963203757E+03 0.  0.
        -24    2    4    4    0    0  0.23153634705E+02 -0.36706382879E+03  0.25319230008E+03  0.45377910365E+03  0.80852884209E+02 0.  0.
         24    2    4    4    0    0  0.14333573226E+03  0.51316681078E+03  0.59551537226E+03  0.80268709437E+03  0.76044099366E+02 0.  0.
         13    1    3    3    0    0 -0.11982717309E+03 -0.15366631838E+03  0.27231189135E+03  0.33485169103E+03  0.00000000000E+00 0. -1.
        -13    1    3    3    0    0 -0.46662193875E+02  0.75633363949E+01  0.72852786648E+02  0.86845223916E+02  0.00000000000E+00 0.  1.
          2    1    6    6  502    0  0.10919200243E+03  0.34717034497E+03  0.45425049715E+03  0.58205983884E+03  0.00000000000E+00 0. -1.
          1    1    5    5  503    0  0.26904941337E+02 -0.29717540757E+03  0.23913880637E+03  0.38239307976E+03  0.00000000000E+00 0. -1.
         -2    1    5    5    0  503 -0.37513066316E+01 -0.69888421217E+02  0.14053493705E+02  0.71386023891E+02  0.00000000000E+00 0.  1.
         -1    1    6    6    0  502  0.34143729828E+02  0.16599646580E+03  0.14126487511E+03  0.22062725553E+03  0.00000000000E+00 0.  1.
<mgrwt>
<rscale>  0 0.11793643E+04</rscale>
<asrwt>0</asrwt>
<pdfrwt beam="1">  1        1 0.22092580E+00 0.11793643E+04</pdfrwt>
<pdfrwt beam="2">  1       -1 0.37253136E-01 0.11793643E+04</pdfrwt>
<totfact> 0.49800838E+01</totfact>
</mgrwt>
</event>
<event>
12    1  0.1556559E-007  0.1567938E+04  0.7818608E-02  0.8840490E-01
          1   -1    0    0  501    0  0.00000000000E+00  0.00000000000E+00  0.34003841177E+04  0.34003841177E+04  0.00000000000E+00 0. -1.
         -1   -1    0    0    0  501 -0.00000000000E+00 -0.00000000000E+00 -0.18074654291E+03  0.18074654291E+03  0.00000000000E+00 0.  1.
         23    2    1    2    0    0  0.68553182562E+02 -0.30037142634E+03  0.20148174420E+04  0.20402614365E+04  0.90856327691E+02 0.  0.
        254    2    1    2    0    0 -0.68553182562E+02  0.30037142634E+03  0.12048201328E+04  0.15408692241E+04  0.90981530030E+03 0.  0.
        -24    2    4    4    0    0 -0.25427835734E+03 -0.20890190212E+03  0.19366806789E+03  0.39017736748E+03  0.80209537173E+02 0.  0.
         24    2    4    4    0    0  0.18572517478E+03  0.50927332846E+03  0.10111520649E+04  0.11506918566E+04  0.88374695502E+02 0.  0.
         11    1    3    3    0    0  0.47557716194E+02 -0.50136480251E+02  0.37226985936E+03  0.37862943785E+03  0.00000000000E+00 0.  1.
        -11    1    3    3    0    0  0.20995466368E+02 -0.25023494609E+03  0.16425475826E+04  0.16616319987E+04  0.00000000000E+00 0. -1.
          4    1    6    6  502    0  0.10741745816E+03  0.30683786468E+03  0.69408313787E+03  0.76644594578E+03  0.00000000000E+00 0. -1.
          3    1    5    5  503    0 -0.20519436028E+03 -0.15380086873E+03  0.11118303764E+03  0.27950152159E+03  0.00000000000E+00 0. -1.
         -4    1    5    5    0  503 -0.49083997061E+02 -0.55101033387E+02  0.82485030251E+02  0.11067584589E+03  0.00000000000E+00 0.  1.
         -3    1    6    6    0  502  0.78307716618E+02  0.20243546378E+03  0.31706892704E+03  0.38424591080E+03  0.00000000000E+00 0.  1.
<mgrwt>
<rscale>  0 0.15679384E+04</rscale>
<asrwt>0</asrwt>
<pdfrwt beam="1">  1        1 0.52313597E+00 0.15679384E+04</pdfrwt>
<pdfrwt beam="2">  1       -1 0.27807163E-01 0.15679384E+04</pdfrwt>
<totfact> 0.33826513E+00</totfact>
</mgrwt>
</event>
<event>
12    1  0.1556559E-007  0.1816102E+04  0.7818608E-02  0.8697783E-01
          1   -1    0    0  501    0  0.00000000000E+00  0.00000000000E+00  0.23860581719E+04  0.23860581719E+04  0.00000000000E+00 0. -1.
         -1   -1    0    0    0  501 -0.00000000000E+00 -0.00000000000E+00 -0.34557254833E+03  0.34557254833E+03  0.00000000000E+00 0.  1.
         23    2    1    2    0    0 -0.44867614672E+03 -0.42750827388E+03  0.35561334715E+03  0.72022478838E+03  0.90494664200E+02 0.  0.
        254    2    1    2    0    0  0.44867614672E+03  0.42750827388E+03  0.16848722764E+04  0.20114059318E+04  0.90713043491E+03 0.  0.
        -24    2    4    4    0    0  0.65186239254E+03  0.42589211456E+03  0.87879092581E+03  0.11765670821E+04  0.75683124604E+02 0.  0.
         24    2    4    4    0    0 -0.20318624582E+03  0.16161593191E+01  0.80608135059E+03  0.83483884973E+03  0.76821213081E+02 0.  0.
         11    1    3    3    0    0 -0.27678910423E+03 -0.28226225072E+03  0.17806127747E+03  0.43357814167E+03  0.00000000000E+00 0.  1.
        -11    1    3    3    0    0 -0.17188704249E+03 -0.14524602317E+03  0.17755206967E+03  0.28664664671E+03  0.00000000000E+00 0. -1.
          4    1    6    6  502    0 -0.66497464870E+02 -0.35274779417E+02  0.30360724828E+03  0.31279959097E+03  0.00000000000E+00 0. -1.
          3    1    5    5  503    0  0.15597607195E+03  0.14197149885E+03  0.23658568696E+03  0.31694988370E+03  0.00000000000E+00 0. -1.
         -4    1    5    5    0  503  0.49588632059E+03  0.28392061571E+03  0.64220523885E+03  0.85961719840E+03  0.00000000000E+00 0.  1.
         -1    1    6    6    0  502 -0.13668878095E+03  0.36890938737E+02  0.50247410231E+03  0.52203925876E+03  0.00000000000E+00 0.  1.
<mgrwt>
<rscale>  0 0.18161015E+04</rscale>
<asrwt>0</asrwt>
<pdfrwt beam="1">  1        1 0.36708586E+00 0.18161015E+04</pdfrwt>
<pdfrwt beam="2">  1       -1 0.53165009E-01 0.18161015E+04</pdfrwt>
<totfact> 0.54650427E+00</totfact>
</mgrwt>
</event>
<event>
12    1  0.1556559E-007  0.1639261E+04  0.7818608E-02  0.8796785E-01
          2   -1    0    0  501    0  0.00000000000E+00  0.00000000000E+00  0.58308333105E+03  0.58308333105E+03  0.00000000000E+00 0. -1.
         -2   -1    0    0    0  501 -0.00000000000E+00 -0.00000000000E+00 -0.11521414293E+04  0.11521414293E+04  0.00000000000E+00 0.  1.
         23    2    1    2    0    0 -0.28350852140E+03 -0.43976744934E+03  0.28874541952E+02  0.53151538007E+03  0.88895269100E+02 0.  0.
        254    2    1    2    0    0  0.28350852140E+03  0.43976744934E+03 -0.59793264017E+03  0.12037093803E+04  0.90422361102E+03 0.  0.
        -24    2    4    4    0    0 -0.57198600317E+02 -0.22711032394E+03 -0.31235904686E+03  0.39843778381E+03  0.79584636000E+02 0.  0.
         24    2    4    4    0    0  0.34070712172E+03  0.66687777328E+03 -0.28557359331E+03  0.80527159645E+03  0.78120161092E+02 0.  0.
         13    1    3    3    0    0 -0.30312934490E+02 -0.52895676132E+02 -0.25268708028E+02  0.65994955537E+02  0.00000000000E+00 0.  1.
        -13    1    3    3    0    0 -0.25319558691E+03 -0.38687177321E+03  0.54143249980E+02  0.46552042453E+03  0.00000000000E+00 0. -1.
          2    1    6    6  502    0  0.22951051108E+03  0.38681242205E+03 -0.19833828013E+03  0.49156586325E+03  0.00000000000E+00 0. -1.
          3    1    5    5  503    0 -0.76087031899E+02 -0.16222681717E+03 -0.21416043945E+03  0.27923372013E+03  0.00000000000E+00 0. -1.
         -2    1    5    5    0  503  0.18888431583E+02 -0.64883506772E+02 -0.98198607419E+02  0.11920406368E+03  0.00000000000E+00 0.  1.
         -1    1    6    6    0  502  0.11119661064E+03  0.28006535123E+03 -0.87235313182E+02  0.31370573320E+03  0.00000000000E+00 0.  1.
<mgrwt>
<rscale>  0 0.16392614E+04</rscale>
<asrwt>0</asrwt>
<pdfrwt beam="1">  1        2 0.89705129E-01 0.16392614E+04</pdfrwt>
<pdfrwt beam="2">  1       -2 0.17725253E+00 0.16392614E+04</pdfrwt>
<totfact> 0.92910720E+00</totfact>
</mgrwt>
</event>
<event>
12    1  0.1556559E-007  0.2629079E+04  0.7818608E-02  0.8358390E-01
          1   -1    0    0  501    0  0.00000000000E+00  0.00000000000E+00  0.24427513521E+04  0.24427513521E+04  0.00000000000E+00 0. -1.
         -1   -1    0    0    0  501 -0.00000000000E+00 -0.00000000000E+00 -0.70740477433E+03  0.70740477433E+03  0.00000000000E+00 0.  1.
         23    2    1    2    0    0  0.57957412115E+03  0.92337160792E+03  0.26173803268E+03  0.11248333317E+04  0.90674904002E+02 0.  0.
        254    2    1    2    0    0 -0.57957412115E+03 -0.92337160792E+03  0.14736085451E+04  0.20253227947E+04  0.86132978024E+03 0.  0.
        -24    2    4    4    0    0  0.15108513035E+03  0.32197541238E+02  0.27497135517E+03  0.32534199800E+03  0.79842164418E+02 0.  0.
         24    2    4    4    0    0 -0.73065925150E+03 -0.95556914916E+03  0.11986371900E+04  0.16999807967E+04  0.78919297230E+02 0.  0.
         11    1    3    3    0    0  0.94945865958E+02  0.16610462565E+03  0.11874520773E+02  0.19169368369E+03  0.00000000000E+00 0.  1.
        -11    1    3    3    0    0  0.48462825519E+03  0.75726698228E+03  0.24986351190E+03  0.93313964805E+03  0.00000000000E+00 0. -1.
          4    1    6    6  502    0 -0.29959709613E+03 -0.42229123834E+03  0.46743703737E+03  0.69755694670E+03  0.00000000000E+00 0. -1.
          1    1    5    5  503    0  0.57814652828E+02 -0.26262798615E+02  0.91313633094E+02  0.11122251688E+03  0.00000000000E+00 0. -1.
         -4    1    5    5    0  503  0.93270477524E+02  0.58460339853E+02  0.18365772208E+03  0.21411948112E+03  0.00000000000E+00 0.  1.
         -3    1    6    6    0  502 -0.43106215537E+03 -0.53327791082E+03  0.73120015259E+03  0.10024238500E+04  0.00000000000E+00 0.  1.
<mgrwt>
<rscale>  0 0.26290789E+04</rscale>
<asrwt>0</asrwt>
<pdfrwt beam="1">  1        1 0.37580790E+00 0.26290789E+04</pdfrwt>
<pdfrwt beam="2">  1       -1 0.10883150E+00 0.26290789E+04</pdfrwt>
<totfact> 0.10202244E+00</totfact>
</mgrwt>
</event>
<event>
12    1  0.1556559E-007  0.1398374E+04  0.7818608E-02  0.8954996E-01
         -2   -1    0    0    0  501 -0.00000000000E+00  0.00000000000E+00  0.21625878925E+03  0.21625878925E+03  0.00000000000E+00 0.  1.
          2   -1    0    0  501    0  0.00000000000E+00 -0.00000000000E+00 -0.22605435202E+04  0.22605435202E+04  0.00000000000E+00 0. -1.
         23    2    1    2    0    0 -0.16061644598E+03 -0.25065358360E+03 -0.11208921891E+03  0.33070653135E+03  0.90432047373E+02 0.  0.
        254    2    1    2    0    0  0.16061644598E+03  0.25065358360E+03 -0.19321955121E+04  0.21460957781E+04  0.88528115894E+03 0.  0.
        -24    2    4    4    0    0  0.36977639354E+03  0.41723420779E+03 -0.16731992516E+04  0.17654069917E+04  0.79038886424E+02 0.  0.
         24    2    4    4    0    0 -0.20915994756E+03 -0.16658062418E+03 -0.25899626045E+03  0.38068878638E+03  0.79673716666E+02 0.  0.
         11    1    3    3    0    0 -0.16913887757E+02  0.40632862674E+01  0.29991305968E+00  0.17397696462E+02  0.00000000000E+00 0. -1.
        -11    1    3    3    0    0 -0.14370255822E+03 -0.25471686987E+03 -0.11238913197E+03  0.31330883489E+03  0.00000000000E+00 0.  1.
          2    1    6    6  502    0 -0.18256810960E+03 -0.11382403639E+03 -0.22978304419E+03  0.31478131027E+03  0.00000000000E+00 0. -1.
          1    1    5    5  503    0  0.18409345958E+03  0.22223798400E+03 -0.98513253543E+03  0.10265311665E+04  0.00000000000E+00 0. -1.
         -2    1    5    5    0  503  0.18568293396E+03  0.19499622378E+03 -0.68806671618E+03  0.73887582527E+03  0.00000000000E+00 0.  1.
         -1    1    6    6    0  502 -0.26591837969E+02 -0.52756587792E+02 -0.29213216267E+02  0.65907476106E+02  0.00000000000E+00 0.  1.
<mgrwt>
<rscale>  0 0.13983739E+04</rscale>
<asrwt>0</asrwt>
<pdfrwt beam="1">  1        2 0.34777594E+00 0.13983739E+04</pdfrwt>
<pdfrwt beam="2">  1       -2 0.33270581E-01 0.13983739E+04</pdfrwt>
<totfact> 0.39282020E+01</totfact>
</mgrwt>
</event>
<event>
12    1  0.1556559E-007  0.1284506E+04  0.7818608E-02  0.9041943E-01
         -2   -1    0    0    0  501 -0.00000000000E+00  0.00000000000E+00  0.17721322202E+03  0.17721322202E+03  0.00000000000E+00 0.  1.
          2   -1    0    0  501    0  0.00000000000E+00 -0.00000000000E+00 -0.23276403877E+04  0.23276403877E+04  0.00000000000E+00 0. -1.
         23    2    1    2    0    0 -0.22763023507E+03 -0.67083640870E+02 -0.15569510057E+03  0.29969188599E+03  0.96221221128E+02 0.  0.
        254    2    1    2    0    0  0.22763023507E+03  0.67083640870E+02 -0.19947320651E+04  0.22051617237E+04  0.90965184407E+03 0.  0.
        -24    2    4    4    0    0  0.44555902009E+03 -0.20333270552E+03 -0.15893009728E+04  0.16649850177E+04  0.80190382481E+02 0.  0.
         24    2    4    4    0    0 -0.21792878501E+03  0.27041634639E+03 -0.40543109226E+03  0.54017670600E+03  0.82453304381E+02 0.  0.
         11    1    3    3    0    0 -0.13734121257E+03 -0.43194103039E+02 -0.14721118421E+03  0.20591132063E+03  0.00000000000E+00 0. -1.
        -11    1    3    3    0    0 -0.90289022499E+02 -0.23889537831E+02 -0.84839163562E+01  0.93780565355E+02  0.00000000000E+00 0.  1.
          4    1    6    6  502    0 -0.61003663956E+02  0.14047555271E+03 -0.17907288244E+03  0.23563090873E+03  0.00000000000E+00 0. -1.
          1    1    5    5  503    0  0.16366929636E+03 -0.33111976700E+02 -0.53321088315E+03  0.55874671138E+03  0.00000000000E+00 0. -1.
         -2    1    5    5    0  503  0.28188972373E+03 -0.17022072882E+03 -0.10560900897E+04  0.11062383063E+04  0.00000000000E+00 0.  1.
         -1    1    6    6    0  502 -0.15692512106E+03  0.12994079368E+03 -0.22635820982E+03  0.30454579727E+03  0.00000000000E+00 0.  1.
<mgrwt>
<rscale>  0 0.12845056E+04</rscale>
<asrwt>0</asrwt>
<pdfrwt beam="1">  1        2 0.35809852E+00 0.12845056E+04</pdfrwt>
<pdfrwt beam="2">  1       -2 0.27263573E-01 0.12845056E+04</pdfrwt>
<totfact> 0.52704829E+01</totfact>
</mgrwt>
</event>
<event>
12    1  0.1556559E-007  0.1487870E+04  0.7818608E-02  0.8892559E-01
          2   -1    0    0  501    0  0.00000000000E+00  0.00000000000E+00  0.58154007097E+03  0.58154007097E+03  0.00000000000E+00 0. -1.
         -2   -1    0    0    0  501 -0.00000000000E+00 -0.00000000000E+00 -0.95167899950E+03  0.95167899950E+03  0.00000000000E+00 0.  1.
         23    2    1    2    0    0  0.39768982806E+03  0.23486391292E+03 -0.14207225331E+03  0.49166880898E+03  0.90749300989E+02 0.  0.
        254    2    1    2    0    0 -0.39768982806E+03 -0.23486391292E+03 -0.22806667523E+03  0.10415502615E+04  0.90525923466E+03 0.  0.
        -24    2    4    4    0    0  0.20518148108E+02 -0.48029358121E+03  0.26957419675E+02  0.48815573985E+03  0.80413962226E+02 0.  0.
         24    2    4    4    0    0 -0.41820797617E+03  0.24542966829E+03 -0.25502409490E+03  0.55339452165E+03  0.77939554789E+02 0.  0.
         13    1    3    3    0    0  0.23477957809E+03  0.14948440768E+03 -0.13042606905E+03  0.30737273450E+03  0.00000000000E+00 0.  1.
        -13    1    3    3    0    0  0.16291024997E+03  0.85379505236E+02 -0.11646184258E+02  0.18429607448E+03  0.00000000000E+00 0. -1.
          4    1    6    6  502    0 -0.28529541704E+03  0.14636197755E+03 -0.20361468243E+03  0.37983449338E+03  0.00000000000E+00 0. -1.
          1    1    5    5  503    0  0.15343461026E+02 -0.45125990530E+03  0.44717612092E+02  0.45372964280E+03  0.00000000000E+00 0. -1.
         -2    1    5    5    0  503  0.51746870820E+01 -0.29033675909E+02 -0.17760192417E+02  0.34426097047E+02  0.00000000000E+00 0.  1.
         -3    1    6    6    0  502 -0.13291255913E+03  0.99067690740E+02 -0.51409412467E+02  0.17356002827E+03  0.00000000000E+00 0.  1.
<mgrwt>
<rscale>  0 0.14878703E+04</rscale>
<asrwt>0</asrwt>
<pdfrwt beam="1">  1        2 0.89467704E-01 0.14878703E+04</pdfrwt>
<pdfrwt beam="2">  1       -2 0.14641215E+00 0.14878703E+04</pdfrwt>
<totfact> 0.15898462E+01</totfact>
</mgrwt>
</event>
<event>
12    1  0.1556559E-007  0.1334322E+04  0.7818608E-02  0.9002782E-01
         -2   -1    0    0    0  501 -0.00000000000E+00  0.00000000000E+00  0.21395538646E+03  0.21395538646E+03  0.00000000000E+00 0.  1.
          2   -1    0    0  501    0  0.00000000000E+00 -0.00000000000E+00 -0.20803578943E+04  0.20803578943E+04  0.00000000000E+00 0. -1.
         23    2    1    2    0    0 -0.79118339245E+02  0.31252930771E+03 -0.24880337485E+03  0.41725351503E+03  0.90901576912E+02 0.  0.
        254    2    1    2    0    0  0.79118339245E+02 -0.31252930771E+03 -0.16175991330E+04  0.18770597658E+04  0.89598667919E+03 0.  0.
        -24    2    4    4    0    0  0.35987588360E+03  0.69032120835E+02 -0.31823873702E+03  0.49170574748E+03  0.78883224181E+02 0.  0.
         24    2    4    4    0    0 -0.28075754436E+03 -0.38156142854E+03 -0.12993603960E+04  0.13853540183E+04  0.80339248162E+02 0.  0.
         13    1    3    3    0    0 -0.32104139186E+01  0.16225506371E+02 -0.49470683690E+02  0.52162461208E+02  0.00000000000E+00 0.  1.
        -13    1    3    3    0    0 -0.75907925326E+02  0.29630380134E+03 -0.19933269116E+03  0.36509105382E+03  0.00000000000E+00 0. -1.
          2    1    6    6  502    0 -0.76664157146E+02 -0.62280117522E+02 -0.21265420840E+03  0.23447391833E+03  0.00000000000E+00 0. -1.
          1    1    5    5  503    0  0.16470421608E+03 -0.58033098742E+01 -0.15820063353E+03  0.22844823844E+03  0.00000000000E+00 0. -1.
         -2    1    5    5    0  503  0.19517166753E+03  0.74835430709E+02 -0.16003810349E+03  0.26325750904E+03  0.00000000000E+00 0.  1.
         -1    1    6    6    0  502 -0.20409338721E+03 -0.31928131102E+03 -0.10867061876E+04  0.11508800999E+04  0.00000000000E+00 0.  1.
<mgrwt>
<rscale>  0 0.13343220E+04</rscale>
<asrwt>0</asrwt>
<pdfrwt beam="1">  1        2 0.32005506E+00 0.13343220E+04</pdfrwt>
<pdfrwt beam="2">  1       -2 0.32916213E-01 0.13343220E+04</pdfrwt>
<totfact> 0.50806673E+01</totfact>
</mgrwt>
</event>
<event>
12    1  0.1556559E-007  0.2628861E+04  0.7818608E-02  0.8358463E-01
          2   -1    0    0  501    0  0.00000000000E+00  0.00000000000E+00  0.40240194022E+04  0.40240194022E+04  0.00000000000E+00 0.  1.
         -2   -1    0    0    0  501 -0.00000000000E+00 -0.00000000000E+00 -0.42935381790E+03  0.42935381790E+03  0.00000000000E+00 0. -1.
         23    2    1    2    0    0  0.42793208531E+03  0.66442324135E+03  0.15318176356E+03  0.81004546398E+03  0.90138159192E+02 0.  0.
        254    2    1    2    0    0 -0.42793208531E+03 -0.66442324135E+03  0.34414838208E+04  0.36433277561E+04  0.89746428163E+03 0.  0.
        -24    2    4    4    0    0 -0.12351799276E+03 -0.11084785621E+03  0.24983371983E+04  0.25052723588E+04  0.84598426143E+02 0.  0.
         24    2    4    4    0    0 -0.30441409255E+03 -0.55357538514E+03  0.94314662246E+03  0.11380553973E+04  0.80813916670E+02 0.  0.
         11    1    3    3    0    0  0.57392058028E+02  0.14816851150E+03  0.47556436930E+02  0.16585949119E+03  0.00000000000E+00 0.  1.
        -11    1    3    3    0    0  0.37054002728E+03  0.51625472985E+03  0.10562532663E+03  0.64418597279E+03  0.00000000000E+00 0. -1.
          4    1    6    6  502    0 -0.25457714339E+03 -0.39342446171E+03  0.71535406326E+03  0.85517469843E+03  0.00000000000E+00 0. -1.
          3    1    5    5  503    0 -0.15453501775E+02 -0.42981283382E+02  0.11509437258E+04  0.11518496696E+04  0.00000000000E+00 0. -1.
         -4    1    5    5    0  503 -0.10806449099E+03 -0.67866572832E+02  0.13473934725E+04  0.13534226892E+04  0.00000000000E+00 0.  1.
         -3    1    6    6    0  502 -0.49836949160E+02 -0.16015092343E+03  0.22779255920E+03  0.28288069889E+03  0.00000000000E+00 0.  1.
<mgrwt>
<rscale>  0 0.26288614E+04</rscale>
<asrwt>0</asrwt>
<pdfrwt beam="1">  1        2 0.61907988E+00 0.26288614E+04</pdfrwt>
<pdfrwt beam="2">  1       -2 0.66054437E-01 0.26288614E+04</pdfrwt>
<totfact> 0.60996355E-01</totfact>
</mgrwt>
</event>
<event>
12    1  0.1556559E-007  0.2736321E+04  0.7818608E-02  0.8323315E-01
          2   -1    0    0  501    0  0.00000000000E+00  0.00000000000E+00  0.24545355507E+04  0.24545355507E+04  0.00000000000E+00 0. -1.
         -2   -1    0    0    0  501 -0.00000000000E+00 -0.00000000000E+00 -0.76261409523E+03  0.76261409523E+03  0.00000000000E+00 0.  1.
         23    2    1    2    0    0 -0.44986532703E+03 -0.19557388294E+03  0.20641142055E+04  0.21235136374E+04  0.90081957608E+02 0.  0.
        254    2    1    2    0    0  0.44986532703E+03  0.19557388294E+03 -0.37219274995E+03  0.10936360085E+04  0.90381652998E+03 0.  0.
        -24    2    4    4    0    0  0.24709254818E+03 -0.34076261819E+03 -0.52343993685E+02  0.43194490269E+03  0.81624848947E+02 0.  0.
         24    2    4    4    0    0  0.20277277885E+03  0.53633650113E+03 -0.31984875626E+03  0.66169110583E+03  0.82208578345E+02 0.  0.
         13    1    3    3    0    0 -0.37772740508E+03 -0.17503085395E+03  0.18609078063E+04  0.19069063050E+04  0.00000000000E+00 0. -1.
        -13    1    3    3    0    0 -0.72137921947E+02 -0.20543028992E+02  0.20320639915E+03  0.21660733247E+03  0.00000000000E+00 0.  1.
          2    1    6    6  502    0  0.45915453607E+02  0.15724746276E+03 -0.52548032881E+02  0.17203572066E+03  0.00000000000E+00 0. -1.
          1    1    5    5  503    0  0.28305206336E+02 -0.71513117175E+01 -0.94774292389E+01  0.30694423434E+02  0.00000000000E+00 0. -1.
         -2    1    5    5    0  503  0.21878734184E+03 -0.33361130648E+03 -0.42866564447E+02  0.40125047926E+03  0.00000000000E+00 0.  1.
         -1    1    6    6    0  502  0.15685732525E+03  0.37908903838E+03 -0.26730072338E+03  0.48965538517E+03  0.00000000000E+00 0.  1.
<mgrwt>
<rscale>  0 0.27363212E+04</rscale>
<asrwt>0</asrwt>
<pdfrwt beam="1">  1        2 0.37762085E+00 0.27363212E+04</pdfrwt>
<pdfrwt beam="2">  1       -2 0.11732525E+00 0.27363212E+04</pdfrwt>
<totfact> 0.18159089E+00</totfact>
</mgrwt>
</event>
<event>
12    1  0.1556559E-007  0.1481050E+04  0.7818608E-02  0.8897153E-01
         -1   -1    0    0    0  501 -0.00000000000E+00  0.00000000000E+00  0.97990032259E+03  0.97990032259E+03  0.00000000000E+00 0.  1.
          1   -1    0    0  501    0  0.00000000000E+00 -0.00000000000E+00 -0.55962521639E+03  0.55962521639E+03  0.00000000000E+00 0. -1.
         23    2    1    2    0    0 -0.45815978214E+03 -0.68797378286E+02  0.14653332681E+03  0.49458126791E+03  0.92169135163E+02 0.  0.
        254    2    1    2    0    0  0.45815978214E+03  0.68797378286E+02  0.27374177939E+03  0.10449442711E+04  0.89572903416E+03 0.  0.
        -24    2    4    4    0    0  0.20589537974E+03  0.35694112734E+03 -0.17054406005E+03  0.45295759574E+03  0.79280712261E+02 0.  0.
         24    2    4    4    0    0  0.25226440240E+03 -0.28814374906E+03  0.44428583943E+03  0.59198667533E+03  0.79963540464E+02 0.  0.
         13    1    3    3    0    0 -0.50571379954E+02 -0.11693934274E+02 -0.12441372833E+02  0.53376027645E+02  0.00000000000E+00 0.  1.
        -13    1    3    3    0    0 -0.40758840218E+03 -0.57103444013E+02  0.15897469964E+03  0.44120524027E+03  0.00000000000E+00 0. -1.
          2    1    6    6  502    0  0.17351696777E+03 -0.24583777821E+03  0.32481103529E+03  0.44277145340E+03  0.00000000000E+00 0. -1.
          3    1    5    5  503    0  0.20445804806E+03  0.35224216245E+03 -0.15354538546E+03  0.43526293183E+03  0.00000000000E+00 0. -1.
         -4    1    5    5    0  503  0.14373316817E+01  0.46989648895E+01 -0.16998674588E+02  0.17694663917E+02  0.00000000000E+00 0.  1.
         -1    1    6    6    0  502  0.78747434624E+02 -0.42305970852E+02  0.11947480414E+03  0.14921522193E+03  0.00000000000E+00 0.  1.
<mgrwt>
<rscale>  0 0.14810495E+04</rscale>
<asrwt>0</asrwt>
<pdfrwt beam="1">  1        1 0.86096187E-01 0.14810495E+04</pdfrwt>
<pdfrwt beam="2">  1       -1 0.15075390E+00 0.14810495E+04</pdfrwt>
<totfact> 0.12622201E+01</totfact>
</mgrwt>
</event>
<event>
12    1  0.1556559E-007  0.1311416E+04  0.7818608E-02  0.9020561E-01
         -2   -1    0    0    0  501 -0.00000000000E+00  0.00000000000E+00  0.19262575556E+03  0.19262575556E+03  0.00000000000E+00 0.  1.
          2   -1    0    0  501    0  0.00000000000E+00 -0.00000000000E+00 -0.22320633412E+04  0.22320633412E+04  0.00000000000E+00 0. -1.
         23    2    1    2    0    0  0.25737238745E+03  0.21905923296E+03 -0.66546252152E+03  0.75128831434E+03  0.85826979159E+02 0.  0.
        254    2    1    2    0    0 -0.25737238745E+03 -0.21905923296E+03 -0.13739750641E+04  0.16734007824E+04  0.89344009781E+03 0.  0.
        -24    2    4    4    0    0 -0.14563394171E+03 -0.53947618281E+03 -0.59553773764E+03  0.82036478519E+03  0.78034524600E+02 0.  0.
         24    2    4    4    0    0 -0.11173844575E+03  0.32041694985E+03 -0.77843732646E+03  0.85303599721E+03  0.80952080261E+02 0.  0.
         13    1    3    3    0    0  0.16729751746E+03  0.16126295077E+03 -0.52961409629E+03  0.57834703218E+03  0.00000000000E+00 0. -1.
        -13    1    3    3    0    0  0.90074869992E+02  0.57796282188E+02 -0.13584842522E+03  0.17294128216E+03  0.00000000000E+00 0.  1.
          4    1    6    6  502    0 -0.12146588081E+03  0.28757429662E+03 -0.72753725409E+03  0.79168389675E+03  0.00000000000E+00 0. -1.
          1    1    5    5  503    0 -0.15171725462E+03 -0.47625383951E+03 -0.54204556037E+03  0.73732573163E+03  0.00000000000E+00 0. -1.
         -2    1    5    5    0  503  0.60833129075E+01 -0.63222343296E+02 -0.53492177267E+02  0.83039053562E+02  0.00000000000E+00 0.  1.
         -3    1    6    6    0  502  0.97274350628E+01  0.32842653222E+02 -0.50900072365E+02  0.61352100455E+02  0.00000000000E+00 0.  1.
<mgrwt>
<rscale>  0 0.13114159E+04</rscale>
<asrwt>0</asrwt>
<pdfrwt beam="1">  1        2 0.34339435E+00 0.13114159E+04</pdfrwt>
<pdfrwt beam="2">  1       -2 0.29634732E-01 0.13114159E+04</pdfrwt>
<totfact> 0.51014006E+01</totfact>
</mgrwt>
</event>
<event>
12    1  0.1556559E-007  0.1124610E+04  0.7818608E-02  0.9181531E-01
          2   -1    0    0  501    0  0.00000000000E+00  0.00000000000E+00  0.95077289822E+03  0.95077289822E+03  0.00000000000E+00 0. -1.
         -2   -1    0    0    0  501 -0.00000000000E+00 -0.00000000000E+00 -0.33255795848E+03  0.33255795848E+03  0.00000000000E+00 0.  1.
         23    2    1    2    0    0 -0.26105000568E+02  0.61598626489E+02  0.30356263990E+03  0.32484607627E+03  0.94333637060E+02 0.  0.
        254    2    1    2    0    0  0.26105000568E+02 -0.61598626489E+02  0.31465229983E+03  0.95848478044E+03  0.90289043782E+03 0.  0.
        -24    2    4    4    0    0 -0.21825860950E+03  0.16634800257E+03  0.49398540416E+03  0.57083898895E+03  0.80790427631E+02 0.  0.
         24    2    4    4    0    0  0.24436361007E+03 -0.22794662906E+03 -0.17933310433E+03  0.38764579149E+03  0.80222551246E+02 0.  0.
         11    1    3    3    0    0 -0.57667842129E+02  0.60899127496E+02  0.21161793009E+03  0.22763222988E+03  0.00000000000E+00 0.  1.
        -11    1    3    3    0    0  0.31562841561E+02  0.69949899241E+00  0.91944709816E+02  0.97213846387E+02  0.00000000000E+00 0. -1.
          4    1    6    6  502    0  0.17321981691E+03 -0.20367955953E+03 -0.15263610506E+03  0.30787700224E+03  0.00000000000E+00 0. -1.
          3    1    5    5  503    0 -0.18412245103E+03  0.16219411196E+03  0.46539466549E+03  0.52611804910E+03  0.00000000000E+00 0. -1.
         -4    1    5    5    0  503 -0.34136158475E+02  0.41538906095E+01  0.28590738671E+02  0.44720939843E+02  0.00000000000E+00 0.  1.
         -3    1    6    6    0  502  0.71143793161E+02 -0.24267069527E+02 -0.26696999268E+02  0.79768789251E+02  0.00000000000E+00 0.  1.
<mgrwt>
<rscale>  0 0.11246103E+04</rscale>
<asrwt>0</asrwt>
<pdfrwt beam="1">  1        2 0.14627275E+00 0.11246103E+04</pdfrwt>
<pdfrwt beam="2">  1       -2 0.51162763E-01 0.11246103E+04</pdfrwt>
<totfact> 0.97051162E+01</totfact>
</mgrwt>
</event>
<event>
12    1  0.1556559E-007  0.1772390E+04  0.7818608E-02  0.8721122E-01
          2   -1    0    0  501    0  0.00000000000E+00  0.00000000000E+00  0.14634304824E+04  0.14634304824E+04  0.00000000000E+00 0. -1.
         -2   -1    0    0    0  501 -0.00000000000E+00 -0.00000000000E+00 -0.53664418017E+03  0.53664418017E+03  0.00000000000E+00 0.  1.
         23    2    1    2    0    0  0.26523970898E+03  0.48773847365E+03 -0.48472114390E+02  0.56455297660E+03  0.90164270131E+02 0.  0.
        254    2    1    2    0    0 -0.26523970898E+03 -0.48773847365E+03  0.97525841659E+03  0.14355216859E+04  0.89518300351E+03 0.  0.
        -24    2    4    4    0    0 -0.30518577020E+03  0.61745839266E+02  0.10205524473E+02  0.32133554370E+03  0.78749450238E+02 0.  0.
         24    2    4    4    0    0  0.39946061220E+02 -0.54948431292E+03  0.96505289212E+03  0.11141861422E+04  0.80962812631E+02 0.  0.
         13    1    3    3    0    0  0.11496585812E+03  0.14115329472E+03 -0.41545817783E+02  0.18672829490E+03  0.00000000000E+00 0.  1.
        -13    1    3    3    0    0  0.15027385086E+03  0.34658517894E+03 -0.69262966069E+01  0.37782468169E+03  0.00000000000E+00 0. -1.
          4    1    6    6  502    0  0.45245598086E+02 -0.35148496845E+03  0.68396252642E+03  0.77032044289E+03  0.00000000000E+00 0. -1.
          1    1    5    5  503    0 -0.28966445378E+03  0.39398603867E+02  0.18427426279E+02  0.29291178844E+03  0.00000000000E+00 0. -1.
         -2    1    5    5    0  503 -0.15521316427E+02  0.22347235399E+02 -0.82219018065E+01  0.28423755257E+02  0.00000000000E+00 0.  1.
         -3    1    6    6    0  502 -0.52995368660E+01 -0.19799934447E+03  0.28109036570E+03  0.34386569935E+03  0.00000000000E+00 0.  1.
<mgrwt>
<rscale>  0 0.17723899E+04</rscale>
<asrwt>0</asrwt>
<pdfrwt beam="1">  1        2 0.22514315E+00 0.17723899E+04</pdfrwt>
<pdfrwt beam="2">  1       -2 0.82560644E-01 0.17723899E+04</pdfrwt>
<totfact> 0.16216833E+01</totfact>
</mgrwt>
</event>
<event>
12    1  0.1955878E-007  0.1353654E+04  0.7818608E-02  0.8988067E-01
          1   -1    0    0  501    0  0.00000000000E+00  0.00000000000E+00  0.93283804032E+03  0.93283804032E+03  0.00000000000E+00 0. -1.
         -1   -1    0    0    0  501 -0.00000000000E+00 -0.00000000000E+00 -0.49107616258E+03  0.49107616258E+03  0.00000000000E+00 0.  1.
         23    2    1    2    0    0 -0.21619180329E+03  0.11963624902E+03 -0.16578705943E+03  0.31158675125E+03  0.92462027832E+02 0.  0.
        254    2    1    2    0    0  0.21619180329E+03 -0.11963624902E+03  0.60754893717E+03  0.11123274517E+04  0.89839018292E+03 0.  0.
        -24    2    4    4    0    0  0.48581993247E+03  0.86541707048E+02  0.12240776780E+03  0.51474952884E+03  0.80454595784E+02 0.  0.
         24    2    4    4    0    0 -0.26962812917E+03 -0.20617795606E+03  0.48514116936E+03  0.59757792282E+03  0.80800631306E+02 0.  0.
         13    1    3    3    0    0 -0.43562785291E+01 -0.74733634983E+01 -0.26728633168E+02  0.28093560751E+02  0.00000000000E+00 0. -1.
        -13    1    3    3    0    0 -0.21183552476E+03  0.12710961251E+03 -0.13905842626E+03  0.28349319050E+03  0.00000000000E+00 0.  1.
          2    1    6    6  502    0 -0.29058471287E+01  0.29856295594E+01  0.28940816420E+02  0.29239165284E+02  0.00000000000E+00 0. -1.
          3    1    5    5  503    0  0.20477563090E+02  0.81851314873E+01 -0.10602255966E+02  0.24469057994E+02  0.00000000000E+00 0. -1.
         -4    1    5    5    0  503  0.46534236938E+03  0.78356575561E+02  0.13301002377E+03  0.49028047085E+03  0.00000000000E+00 0.  1.
         -1    1    6    6    0  502 -0.26672228205E+03 -0.20916358562E+03  0.45620035294E+03  0.56833875753E+03  0.00000000000E+00 0.  1.
<mgrwt>
<rscale>  0 0.13536536E+04</rscale>
<asrwt>0</asrwt>
<pdfrwt beam="1">  1        1 0.14351354E+00 0.13536536E+04</pdfrwt>
<pdfrwt beam="2">  1       -1 0.75550179E-01 0.13536536E+04</pdfrwt>
<totfact> 0.29487340E+01</totfact>
</mgrwt>
</event>
<event>
12    1  0.1556559E-007  0.2049164E+04  0.7818608E-02  0.8583974E-01
         -2   -1    0    0    0  501 -0.00000000000E+00  0.00000000000E+00  0.31316816450E+03  0.31316816450E+03  0.00000000000E+00 0.  1.
          2   -1    0    0  501    0  0.00000000000E+00 -0.00000000000E+00 -0.33520926130E+04  0.33520926130E+04  0.00000000000E+00 0. -1.
         23    2    1    2    0    0 -0.38186871517E+03  0.31754987862E+03 -0.51683755796E+02  0.50740583838E+03  0.90154496124E+02 0.  0.
        254    2    1    2    0    0  0.38186871517E+03 -0.31754987862E+03 -0.29872406927E+04  0.31578549391E+04  0.89542125244E+03 0.  0.
        -24    2    4    4    0    0  0.24830505068E+03 -0.38545117766E+03 -0.29470466327E+04  0.29834758562E+04  0.76264806514E+02 0.  0.
         24    2    4    4    0    0  0.13356366450E+03  0.67901299036E+02 -0.40194059990E+02  0.17437908290E+03  0.79640838829E+02 0.  0.
         11    1    3    3    0    0 -0.14761567789E+03  0.12682551611E+03 -0.64590245148E+02  0.20505365070E+03  0.00000000000E+00 0. -1.
        -11    1    3    3    0    0 -0.23425303728E+03  0.19072436251E+03  0.12906489352E+02  0.30235218768E+03  0.00000000000E+00 0.  1.
          4    1    6    6  502    0  0.12765996975E+03  0.41799689468E+02 -0.53379238175E+02  0.14454627281E+03  0.00000000000E+00 0. -1.
          1    1    5    5  503    0  0.20187915761E+03 -0.30606603000E+03 -0.21369475476E+04  0.21681735240E+04  0.00000000000E+00 0. -1.
         -2    1    5    5    0  503  0.46425893066E+02 -0.79385147654E+02 -0.81009908511E+03  0.81530233222E+03  0.00000000000E+00 0.  1.
         -3    1    6    6    0  502  0.59036947453E+01  0.26101609568E+02  0.13185178186E+02  0.29832810084E+02  0.00000000000E+00 0.  1.
<mgrwt>
<rscale>  0 0.20491644E+04</rscale>
<asrwt>0</asrwt>
<pdfrwt beam="1">  1        2 0.51570657E+00 0.20491644E+04</pdfrwt>
<pdfrwt beam="2">  1       -2 0.48179717E-01 0.20491644E+04</pdfrwt>
<totfact> 0.38965421E+00</totfact>
</mgrwt>
</event>
<event>
12    1  0.1556559E-007  0.1551052E+04  0.7818608E-02  0.8851196E-01
          2   -1    0    0  501    0  0.00000000000E+00  0.00000000000E+00  0.12549088912E+04  0.12549088912E+04  0.00000000000E+00 0. -1.
         -2   -1    0    0    0  501 -0.00000000000E+00 -0.00000000000E+00 -0.47927020575E+03  0.47927020575E+03  0.00000000000E+00 0.  1.
         23    2    1    2    0    0  0.14411661438E+03 -0.33174365865E+03  0.63226917666E+03  0.73378948039E+03  0.88652333249E+02 0.  0.
        254    2    1    2    0    0 -0.14411661438E+03  0.33174365865E+03  0.14336950884E+03  0.10003896166E+04  0.92162959770E+03 0.  0.
        -24    2    4    4    0    0 -0.33103350442E+03  0.52165844721E+03 -0.99162450885E+02  0.63075869216E+03  0.79451994802E+02 0.  0.
         24    2    4    4    0    0  0.18691689004E+03 -0.18991478856E+03  0.24253195973E+03  0.36963092444E+03  0.82460403357E+02 0.  0.
         13    1    3    3    0    0  0.55555202441E+02 -0.44585114354E+02  0.13909389096E+03  0.15627323329E+03  0.00000000000E+00 0.  1.
        -13    1    3    3    0    0  0.88561411940E+02 -0.28715854430E+03  0.49317528570E+03  0.57751624711E+03  0.00000000000E+00 0. -1.
          4    1    6    6  502    0  0.74545603426E-02 -0.13494868546E+02 -0.33865215175E+01  0.13913305165E+02  0.00000000000E+00 0. -1.
          3    1    5    5  503    0 -0.63685003924E+02  0.10592075496E+03 -0.52500756059E+02  0.13428073370E+03  0.00000000000E+00 0. -1.
         -4    1    5    5    0  503 -0.26734850049E+03  0.41573769226E+03 -0.46661694826E+02  0.49647795847E+03  0.00000000000E+00 0.  1.
         -3    1    6    6    0  502  0.18690943548E+03 -0.17641992001E+03  0.24591848124E+03  0.35571761928E+03  0.00000000000E+00 0.  1.
<mgrwt>
<rscale>  0 0.15510518E+04</rscale>
<asrwt>0</asrwt>
<pdfrwt beam="1">  1        2 0.19306290E+00 0.15510518E+04</pdfrwt>
<pdfrwt beam="2">  1       -2 0.73733878E-01 0.15510518E+04</pdfrwt>
<totfact> 0.28043901E+01</totfact>
</mgrwt>
</event>
<event>
12    1  0.1556559E-007  0.2102242E+04  0.7818608E-02  0.8560256E-01
          1   -1    0    0  501    0  0.00000000000E+00  0.00000000000E+00  0.29045401403E+04  0.29045401403E+04  0.00000000000E+00 0. -1.
         -1   -1    0    0    0  501 -0.00000000000E+00 -0.00000000000E+00 -0.38038921013E+03  0.38038921013E+03  0.00000000000E+00 0.  1.
         23    2    1    2    0    0  0.54234628597E+03 -0.31609078963E+03  0.19403526569E+04  0.20414798600E+04  0.92836978401E+02 0.  0.
        254    2    1    2    0    0 -0.54234628597E+03  0.31609078963E+03  0.58379827325E+03  0.12434494904E+04  0.90071823014E+03 0.  0.
        -24    2    4    4    0    0 -0.88892175535E+02  0.10205477232E+03  0.70346232828E+03  0.72176834682E+03  0.88166341306E+02 0.  0.
         24    2    4    4    0    0 -0.45345411043E+03  0.21403601732E+03 -0.11966405502E+03  0.52168114358E+03  0.79998015738E+02 0.  0.
         11    1    3    3    0    0  0.32310360566E+03 -0.18795297746E+03  0.10048016968E+04  0.10720768217E+04  0.00000000000E+00 0.  1.
        -11    1    3    3    0    0  0.21924268030E+03 -0.12813781217E+03  0.93555096012E+03  0.96940303835E+03  0.00000000000E+00 0. -1.
          4    1    6    6  502    0 -0.42184887394E+03  0.17532937632E+03 -0.11730861717E+03  0.47165471937E+03  0.00000000000E+00 0. -1.
          1    1    5    5  503    0 -0.67623559546E+02  0.10359260932E+03  0.67478628276E+03  0.68603272656E+03  0.00000000000E+00 0. -1.
         -2    1    5    5    0  503 -0.21268615989E+02 -0.15378369986E+01  0.28676045517E+02  0.35735620258E+02  0.00000000000E+00 0.  1.
         -3    1    6    6    0  502 -0.31605236491E+02  0.38706640998E+02 -0.23554378542E+01  0.50026424203E+02  0.00000000000E+00 0.  1.
<mgrwt>
<rscale>  0 0.21022424E+04</rscale>
<asrwt>0</asrwt>
<pdfrwt beam="1">  1        1 0.44685232E+00 0.21022424E+04</pdfrwt>
<pdfrwt beam="2">  1       -1 0.58521419E-01 0.21022424E+04</pdfrwt>
<totfact> 0.19098009E+00</totfact>
</mgrwt>
</event>
<event>
12    1  0.1556559E-007  0.1403076E+04  0.7818608E-02  0.8951595E-01
          1   -1    0    0  501    0  0.00000000000E+00  0.00000000000E+00  0.21260083820E+04  0.21260083820E+04  0.00000000000E+00 0. -1.
         -1   -1    0    0    0  501 -0.00000000000E+00 -0.00000000000E+00 -0.23149275690E+03  0.23149275690E+03  0.00000000000E+00 0.  1.
         23    2    1    2    0    0  0.27464021315E+03 -0.28111932792E+03  0.51714978907E+03  0.65573387050E+03  0.89931537185E+02 0.  0.
        254    2    1    2    0    0 -0.27464021315E+03  0.28111932792E+03  0.13773658360E+04  0.17017672684E+04  0.91892321024E+03 0.  0.
        -24    2    4    4    0    0 -0.52936755043E+03  0.14979125845E+03  0.12690197558E+04  0.13851655934E+04  0.74867589892E+02 0.  0.
         24    2    4    4    0    0  0.25472733729E+03  0.13132806947E+03  0.10834608022E+03  0.31660167498E+03  0.79778877572E+02 0.  0.
         11    1    3    3    0    0  0.11350402243E+03 -0.11864916942E+03  0.14603265801E+03  0.21974149749E+03  0.00000000000E+00 0. -1.
        -11    1    3    3    0    0  0.16113619072E+03 -0.16247015849E+03  0.37111713106E+03  0.43599237302E+03  0.00000000000E+00 0.  1.
          2    1    6    6  502    0  0.21338697385E+03  0.76523761125E+02  0.98820045433E+02  0.24729595226E+03  0.00000000000E+00 0. -1.
          1    1    5    5  503    0 -0.45796464739E+03  0.13846673856E+03  0.10349802526E+04  0.11402143567E+04  0.00000000000E+00 0. -1.
         -2    1    5    5    0  503 -0.71402903041E+02  0.11324519885E+02  0.23403950313E+03  0.24495123665E+03  0.00000000000E+00 0.  1.
         -1    1    6    6    0  502  0.41340363434E+02  0.54804308343E+02  0.95260347894E+01  0.69305722712E+02  0.00000000000E+00 0.  1.
<mgrwt>
<rscale>  0 0.14030760E+04</rscale>
<asrwt>0</asrwt>
<pdfrwt beam="1">  1        1 0.32707820E+00 0.14030760E+04</pdfrwt>
<pdfrwt beam="2">  1       -1 0.35614272E-01 0.14030760E+04</pdfrwt>
<totfact> 0.17963399E+01</totfact>
</mgrwt>
</event>
<event>
12    1  0.1556559E-007  0.3101936E+04  0.7818608E-02  0.8215207E-01
         -2   -1    0    0    0  501 -0.00000000000E+00  0.00000000000E+00  0.12625212620E+04  0.12625212620E+04  0.00000000000E+00 0.  1.
          2   -1    0    0  501    0  0.00000000000E+00 -0.00000000000E+00 -0.19053160915E+04  0.19053160915E+04  0.00000000000E+00 0. -1.
         23    2    1    2    0    0 -0.10242559278E+04 -0.89127356338E+03 -0.72028401617E+03  0.15395142338E+04  0.88466048675E+02 0.  0.
        254    2    1    2    0    0  0.10242559278E+04  0.89127356338E+03  0.77489186772E+02  0.16283231197E+04  0.89552377842E+03 0.  0.
        -24    2    4    4    0    0  0.86039932649E+03  0.41536287916E+03 -0.28822704080E+03  0.10010141622E+04  0.78365830431E+02 0.  0.
         24    2    4    4    0    0  0.16385660129E+03  0.47591068422E+03  0.36571622758E+03  0.62730895754E+03  0.80176080994E+02 0.  0.
         13    1    3    3    0    0 -0.39425588858E+03 -0.34810849981E+03 -0.32792680476E+03  0.61980095402E+03  0.00000000000E+00 0.  1.
        -13    1    3    3    0    0 -0.63000003920E+03 -0.54316506356E+03 -0.39235721141E+03  0.91971327979E+03  0.00000000000E+00 0. -1.
          4    1    6    6  502    0  0.92519941756E+01  0.13532485228E+03  0.97309730441E+02  0.16693591190E+03  0.00000000000E+00 0. -1.
          1    1    5    5  503    0  0.53267150057E+03  0.27370864437E+03 -0.14396839132E+03  0.61594013283E+03  0.00000000000E+00 0. -1.
         -2    1    5    5    0  503  0.32772782591E+03  0.14165423479E+03 -0.14425864949E+03  0.38507402933E+03  0.00000000000E+00 0.  1.
         -3    1    6    6    0  502  0.15460460712E+03  0.34058583193E+03  0.26840649714E+03  0.46037304565E+03  0.00000000000E+00 0.  1.
<mgrwt>
<rscale>  0 0.31019362E+04</rscale>
<asrwt>0</asrwt>
<pdfrwt beam="1">  1        2 0.29312555E+00 0.31019362E+04</pdfrwt>
<pdfrwt beam="2">  1       -2 0.19423404E+00 0.31019362E+04</pdfrwt>
<totfact> 0.92978804E-01</totfact>
</mgrwt>
</event>
<event>
12    1  0.1556559E-007  0.2122629E+04  0.7818608E-02  0.8551340E-01
         -2   -1    0    0    0  501 -0.00000000000E+00  0.00000000000E+00  0.11502279733E+04  0.11502279733E+04  0.00000000000E+00 0.  1.
          2   -1    0    0  501    0  0.00000000000E+00 -0.00000000000E+00 -0.97927399504E+03  0.97927399504E+03  0.00000000000E+00 0. -1.
         23    2    1    2    0    0  0.33870104175E+03 -0.48881208732E+03  0.76764344375E+03  0.97512127923E+03  0.89047178948E+02 0.  0.
        254    2    1    2    0    0 -0.33870104175E+03  0.48881208732E+03 -0.59668946545E+03  0.11543806892E+04  0.78924065084E+03 0.  0.
        -24    2    4    4    0    0  0.12209099041E+03 -0.11924424795E+03 -0.25040502471E+03  0.31253281567E+03  0.76476688355E+02 0.  0.
         24    2    4    4    0    0 -0.46079203215E+03  0.60805633527E+03 -0.34628444073E+03  0.84184787349E+03  0.82055618061E+02 0.  0.
         11    1    3    3    0    0  0.14522844754E+03 -0.22513256458E+03  0.41687828866E+03  0.49554362186E+03  0.00000000000E+00 0.  1.
        -11    1    3    3    0    0  0.19347259421E+03 -0.26367952274E+03  0.35076515510E+03  0.47957765738E+03  0.00000000000E+00 0. -1.
          2    1    6    6  502    0 -0.23481216428E+03  0.32462422358E+03 -0.13782600392E+03  0.42369050778E+03  0.00000000000E+00 0. -1.
          3    1    5    5  503    0  0.33400896240E+02 -0.78865483052E+02 -0.14921974866E+03  0.17205207839E+03  0.00000000000E+00 0. -1.
         -4    1    5    5    0  503  0.88690094165E+02 -0.40378764896E+02 -0.10118527605E+03  0.14048073728E+03  0.00000000000E+00 0.  1.
         -1    1    6    6    0  502 -0.22597986788E+03  0.28343211169E+03 -0.20845843681E+03  0.41815736571E+03  0.00000000000E+00 0.  1.
<mgrwt>
<rscale>  0 0.21226289E+04</rscale>
<asrwt>0</asrwt>
<pdfrwt beam="1">  1        2 0.15065754E+00 0.21226289E+04</pdfrwt>
<pdfrwt beam="2">  1       -2 0.17695815E+00 0.21226289E+04</pdfrwt>
<totfact> 0.45480244E+00</totfact>
</mgrwt>
</event>
<event>
12    1  0.1556559E-007  0.1876863E+04  0.7818608E-02  0.8666459E-01
          2   -1    0    0  501    0  0.00000000000E+00  0.00000000000E+00  0.18918033426E+04  0.18918033426E+04  0.00000000000E+00 0. -1.
         -2   -1    0    0    0  501 -0.00000000000E+00 -0.00000000000E+00 -0.46551034852E+03  0.46551034852E+03  0.00000000000E+00 0.  1.
         23    2    1    2    0    0  0.39864512907E+03  0.13375714255E+03  0.12747052257E+04  0.13450394412E+04  0.86306278199E+02 0.  0.
        254    2    1    2    0    0 -0.39864512907E+03 -0.13375714255E+03  0.15158776839E+03  0.10122742500E+04  0.90824632868E+03 0.  0.
        -24    2    4    4    0    0 -0.37923423382E+03  0.32347588264E+03 -0.46457288718E+02  0.50690028740E+03  0.79588761394E+02 0.  0.
         24    2    4    4    0    0 -0.19410895249E+02 -0.45723302519E+03  0.19804505711E+03  0.50537396259E+03  0.82110749871E+02 0.  0.
         11    1    3    3    0    0  0.53244671805E+02  0.78027427897E+01  0.26684070556E+03  0.27221285791E+03  0.00000000000E+00 0.  1.
        -11    1    3    3    0    0  0.34540045727E+03  0.12595439976E+03  0.10078645202E+04  0.10728265833E+04  0.00000000000E+00 0. -1.
          2    1    6    6  502    0 -0.31356615897E+02 -0.27841668177E+03  0.15830182454E+03  0.32180514865E+03  0.00000000000E+00 0. -1.
          3    1    5    5  503    0 -0.19409697790E+03  0.13868036410E+03 -0.56411703168E+02  0.24512886503E+03  0.00000000000E+00 0. -1.
         -2    1    5    5    0  503 -0.18513725592E+03  0.18479551854E+03  0.99544144493E+01  0.26177142237E+03  0.00000000000E+00 0.  1.
         -1    1    6    6    0  502  0.11945720649E+02 -0.17881634342E+03  0.39743232568E+02  0.18356881394E+03  0.00000000000E+00 0.  1.
<mgrwt>
<rscale>  0 0.18768634E+04</rscale>
<asrwt>0</asrwt>
<pdfrwt beam="1">  1        2 0.29104667E+00 0.18768634E+04</pdfrwt>
<pdfrwt beam="2">  1       -2 0.71616977E-01 0.18768634E+04</pdfrwt>
<totfact> 0.12729431E+01</totfact>
</mgrwt>
</event>
<event>
12    1  0.1556559E-007  0.1193117E+04  0.7818608E-02  0.9118902E-01
          2   -1    0    0  501    0  0.00000000000E+00  0.00000000000E+00  0.17214513301E+04  0.17214513301E+04  0.00000000000E+00 0. -1.
         -2   -1    0    0    0  501 -0.00000000000E+00 -0.00000000000E+00 -0.20673387086E+03  0.20673387086E+03  0.00000000000E+00 0.  1.
         23    2    1    2    0    0 -0.20548041869E+03  0.43117088867E+02  0.19009774079E+03  0.29749139782E+03  0.91009312217E+02 0.  0.
        254    2    1    2    0    0  0.20548041869E+03 -0.43117088867E+02  0.13246197185E+04  0.16306938032E+04  0.92761176970E+03 0.  0.
        -24    2    4    4    0    0  0.17649219337E+03  0.13556520419E+03  0.13992053448E+04  0.14190892306E+04  0.80692184618E+02 0.  0.
         24    2    4    4    0    0  0.28988225310E+02 -0.17868229306E+03 -0.74585626303E+02  0.21160457255E+03  0.80285742288E+02 0.  0.
         13    1    3    3    0    0 -0.12905574015E+02 -0.57753474075E+00  0.59161610409E+02  0.60555623465E+02  0.00000000000E+00 0. -1.
        -13    1    3    3    0    0 -0.19257484467E+03  0.43694623608E+02  0.13093613038E+03  0.23693577436E+03  0.00000000000E+00 0.  1.
          4    1    6    6  502    0  0.35799714335E+02 -0.68259409841E+02  0.19095778823E+01  0.77101316888E+02  0.00000000000E+00 0. -1.
          1    1    5    5  503    0  0.72136471094E+01  0.23490985686E+02  0.64323982901E+02  0.68858099664E+02  0.00000000000E+00 0. -1.
         -2    1    5    5    0  503  0.16927854627E+03  0.11207421851E+03  0.13348813619E+04  0.13502311310E+04  0.00000000000E+00 0.  1.
         -3    1    6    6    0  502 -0.68114890243E+01 -0.11042288322E+03 -0.76495204185E+02  0.13450325566E+03  0.00000000000E+00 0.  1.
<mgrwt>
<rscale>  0 0.11931174E+04</rscale>
<asrwt>0</asrwt>
<pdfrwt beam="1">  1        2 0.26483866E+00 0.11931174E+04</pdfrwt>
<pdfrwt beam="2">  1       -2 0.31805212E-01 0.11931174E+04</pdfrwt>
<totfact> 0.86544944E+01</totfact>
</mgrwt>
</event>
<event>
12    1  0.1556559E-007  0.2807297E+04  0.7818608E-02  0.8301006E-01
         -1   -1    0    0    0  501 -0.00000000000E+00  0.00000000000E+00  0.85724244582E+03  0.85724244582E+03  0.00000000000E+00 0.  1.
          1   -1    0    0  501    0  0.00000000000E+00 -0.00000000000E+00 -0.22983339226E+04  0.22983339226E+04  0.00000000000E+00 0. -1.
         23    2    1    2    0    0 -0.81005629905E+03  0.46365951173E+03  0.29583345640E+03  0.98339049261E+03  0.91477191658E+02 0.  0.
        254    2    1    2    0    0  0.81005629905E+03 -0.46365951173E+03 -0.17369249332E+04  0.21721858758E+04  0.91121452197E+03 0.  0.
        -24    2    4    4    0    0  0.34439807011E+02 -0.12957110323E+03 -0.11016133478E+04  0.11123664803E+04  0.76370460048E+02 0.  0.
         24    2    4    4    0    0  0.77561649203E+03 -0.33408840850E+03 -0.63531158535E+03  0.10598193955E+04  0.80002082958E+02 0.  0.
         11    1    3    3    0    0 -0.37978332134E+03  0.25972050721E+03  0.11684294580E+03  0.47470241943E+03  0.00000000000E+00 0.  1.
        -11    1    3    3    0    0 -0.43027297770E+03  0.20393900452E+03  0.17899051061E+03  0.50868807318E+03  0.00000000000E+00 0. -1.
          4    1    6    6  502    0  0.71679289294E+03 -0.32171021829E+03 -0.60961918797E+03  0.99444711788E+03  0.00000000000E+00 0. -1.
          1    1    5    5  503    0  0.38099606059E+02 -0.13205711921E+03 -0.10982292242E+04  0.11067963189E+04  0.00000000000E+00 0. -1.
         -2    1    5    5    0  503 -0.36597990472E+01  0.24860159819E+01 -0.33841236695E+01  0.55701613566E+01  0.00000000000E+00 0.  1.
         -3    1    6    6    0  502  0.58823599094E+02 -0.12378190212E+02 -0.25692397374E+02  0.65372277657E+02  0.00000000000E+00 0.  1.
<mgrwt>
<rscale>  0 0.28072972E+04</rscale>
<asrwt>0</asrwt>
<pdfrwt beam="1">  1        1 0.35358983E+00 0.28072972E+04</pdfrwt>
<pdfrwt beam="2">  1       -1 0.13188346E+00 0.28072972E+04</pdfrwt>
<totfact> 0.78920439E-01</totfact>
</mgrwt>
</event>
<event>
12    1  0.1556559E-007  0.1247695E+04  0.7818608E-02  0.9072104E-01
         -2   -1    0    0    0  501 -0.00000000000E+00  0.00000000000E+00  0.12864097367E+03  0.12864097367E+03  0.00000000000E+00 0. -1.
          2   -1    0    0  501    0  0.00000000000E+00 -0.00000000000E+00 -0.30253636289E+04  0.30253636289E+04  0.00000000000E+00 0.  1.
         23    2    1    2    0    0 -0.20402785623E+03 -0.16376938252E+03 -0.38380455909E+03  0.47322877262E+03  0.90508313898E+02 0.  0.
        254    2    1    2    0    0  0.20402785623E+03  0.16376938252E+03 -0.25129180962E+04  0.26807758300E+04  0.89630012599E+03 0.  0.
        -24    2    4    4    0    0  0.39325379175E+03 -0.24886853257E+03 -0.12364268638E+04  0.13235896562E+04  0.80957379719E+02 0.  0.
         24    2    4    4    0    0 -0.18922593553E+03  0.41263791509E+03 -0.12764912324E+04  0.13571861737E+04  0.80299067729E+02 0.  0.
         11    1    3    3    0    0 -0.81282900481E+02 -0.20089109558E+02 -0.82341289606E+02  0.11743325852E+03  0.00000000000E+00 0. -1.
        -11    1    3    3    0    0 -0.12274495575E+03 -0.14368027296E+03 -0.30146326949E+03  0.35579551409E+03  0.00000000000E+00 0.  1.
          4    1    6    6  502    0 -0.17192595820E+03  0.33764882977E+03 -0.11280049669E+04  0.11899413737E+04  0.00000000000E+00 0. -1.
          3    1    5    5  503    0  0.33033867421E+03 -0.23420341044E+03 -0.10107423697E+04  0.10888411340E+04  0.00000000000E+00 0. -1.
         -4    1    5    5    0  503  0.62915117543E+02 -0.14665122128E+02 -0.22568449413E+03  0.23474852228E+03  0.00000000000E+00 0.  1.
         -3    1    6    6    0  502 -0.17299977324E+02  0.74989085320E+02 -0.14848626542E+03  0.16724480007E+03  0.00000000000E+00 0.  1.
<mgrwt>
<rscale>  0 0.12476950E+04</rscale>
<asrwt>0</asrwt>
<pdfrwt beam="1">  1        2 0.46544057E+00 0.12476950E+04</pdfrwt>
<pdfrwt beam="2">  1       -2 0.19790918E-01 0.12476950E+04</pdfrwt>
<totfact> 0.36430003E+01</totfact>
</mgrwt>
</event>
<event>
12    1  0.1556559E-007  0.2177147E+04  0.7818608E-02  0.8528001E-01
          2   -1    0    0  501    0  0.00000000000E+00  0.00000000000E+00  0.20254153032E+04  0.20254153032E+04  0.00000000000E+00 0.  1.
         -2   -1    0    0    0  501 -0.00000000000E+00 -0.00000000000E+00 -0.58506118887E+03  0.58506118887E+03  0.00000000000E+00 0. -1.
         23    2    1    2    0    0 -0.38014856007E+03  0.32840643487E+03  0.14831802869E+04  0.15686519551E+04  0.92094942222E+02 0.  0.
        254    2    1    2    0    0  0.38014856007E+03 -0.32840643487E+03 -0.42826172616E+02  0.10418245370E+04  0.91170201857E+03 0.  0.
        -24    2    4    4    0    0 -0.20978162410E+03 -0.15886981968E+03  0.23748391204E+03  0.36240463596E+03  0.75435815607E+02 0.  0.
         24    2    4    4    0    0  0.58993018417E+03 -0.16953661520E+03 -0.28031008465E+03  0.67941990104E+03  0.79229869922E+02 0.  0.
         11    1    3    3    0    0 -0.12651863593E+03  0.55729682156E+02  0.41418311181E+03  0.43664678267E+03  0.00000000000E+00 0. -1.
        -11    1    3    3    0    0 -0.25362992414E+03  0.27267675272E+03  0.10689971751E+04  0.11320051724E+04  0.00000000000E+00 0.  1.
          2    1    6    6  502    0  0.34839179672E+01 -0.10801213187E+02 -0.53659294836E+01  0.12553767958E+02  0.00000000000E+00 0. -1.
          1    1    5    5  503    0 -0.16884498776E+00 -0.24306155372E+02  0.16107633450E+02  0.29159450492E+02  0.00000000000E+00 0. -1.
         -2    1    5    5    0  503 -0.20961277911E+03 -0.13456366430E+03  0.22137627859E+03  0.33324518547E+03  0.00000000000E+00 0.  1.
         -1    1    6    6    0  502  0.58644626620E+03 -0.15873540201E+03 -0.27494415517E+03  0.66686613309E+03  0.00000000000E+00 0.  1.
<mgrwt>
<rscale>  0 0.21771467E+04</rscale>
<asrwt>0</asrwt>
<pdfrwt beam="1">  1        2 0.31160235E+00 0.21771467E+04</pdfrwt>
<pdfrwt beam="2">  1       -2 0.90009415E-01 0.21771467E+04</pdfrwt>
<totfact> 0.62565076E+00</totfact>
</mgrwt>
</event>
<event>
12    1  0.1944704E-007  0.1314485E+04  0.7818608E-02  0.9018157E-01
          2   -1    0    0  501    0  0.00000000000E+00  0.00000000000E+00  0.14983569761E+04  0.14983569761E+04  0.00000000000E+00 0. -1.
         -2   -1    0    0    0  501 -0.00000000000E+00 -0.00000000000E+00 -0.28829417274E+03  0.28829417274E+03  0.00000000000E+00 0.  1.
         23    2    1    2    0    0 -0.28998914051E+03  0.15739721767E+03  0.44903242552E+03  0.56443248283E+03  0.89923983267E+02 0.  0.
        254    2    1    2    0    0  0.28998914051E+03 -0.15739721767E+03  0.76103037781E+03  0.12222186660E+04  0.89765452472E+03 0.  0.
        -24    2    4    4    0    0 -0.10252637995E+03  0.25907854996E+03  0.32716283029E+02  0.29206817942E+03  0.81241077172E+02 0.  0.
         24    2    4    4    0    0  0.39251552046E+03 -0.41647576763E+03  0.72831409478E+03  0.93015048655E+03  0.84958861542E+02 0.  0.
         13    1    3    3    0    0 -0.13100416759E+01 -0.81852579157E+01  0.55784797212E+01  0.99917011734E+01  0.00000000000E+00 0.  1.
        -13    1    3    3    0    0 -0.28867909883E+03  0.16558247558E+03  0.44345394580E+03  0.55444078166E+03  0.00000000000E+00 0. -1.
          4    1    6    6  502    0  0.36739413148E+03 -0.41245545026E+03  0.70525896342E+03  0.89581703030E+03  0.00000000000E+00 0. -1.
          3    1    5    5  503    0 -0.10045167911E+03  0.25198513932E+03  0.13641988101E+02  0.27161213911E+03  0.00000000000E+00 0. -1.
         -4    1    5    5    0  503 -0.20747008324E+01  0.70934106434E+01  0.19074294928E+02  0.20456040309E+02  0.00000000000E+00 0.  1.
         -3    1    6    6    0  502  0.25121388975E+02 -0.40203173634E+01  0.23055131357E+02  0.34333456244E+02  0.00000000000E+00 0.  1.
<mgrwt>
<rscale>  0 0.13144848E+04</rscale>
<asrwt>0</asrwt>
<pdfrwt beam="1">  1        2 0.23051645E+00 0.13144848E+04</pdfrwt>
<pdfrwt beam="2">  1       -2 0.44352951E-01 0.13144848E+04</pdfrwt>
<totfact> 0.60029244E+01</totfact>
</mgrwt>
</event>
<event>
12    1  0.1556559E-007  0.1233081E+04  0.7818608E-02  0.9084383E-01
         -2   -1    0    0    0  501 -0.00000000000E+00  0.00000000000E+00  0.18266569565E+03  0.18266569565E+03  0.00000000000E+00 0.  1.
          2   -1    0    0  501    0  0.00000000000E+00 -0.00000000000E+00 -0.20809735041E+04  0.20809735041E+04  0.00000000000E+00 0. -1.
         23    2    1    2    0    0 -0.20059309823E+02 -0.68158608968E+02 -0.95165263664E+03  0.95837926720E+03  0.88318214880E+02 0.  0.
        254    2    1    2    0    0  0.20059309823E+02  0.68158608968E+02 -0.94665517177E+03  0.13052599325E+04  0.89582336724E+03 0.  0.
        -24    2    4    4    0    0 -0.15300534322E+03  0.37310611670E+03 -0.83224104297E+03  0.92824229916E+03  0.79936243218E+02 0.  0.
         24    2    4    4    0    0  0.17306465304E+03 -0.30494750773E+03 -0.11441412880E+03  0.37701763335E+03  0.78149513035E+02 0.  0.
         13    1    3    3    0    0  0.27498622461E+02 -0.57960692680E+01 -0.13059849588E+03  0.13358793278E+03  0.00000000000E+00 0.  1.
        -13    1    3    3    0    0 -0.47557932284E+02 -0.62362539700E+02 -0.82105414076E+03  0.82479133442E+03  0.00000000000E+00 0. -1.
          4    1    6    6  502    0  0.46430595920E+02 -0.15791958574E+03 -0.41771521291E+02  0.16982124658E+03  0.00000000000E+00 0. -1.
          3    1    5    5  503    0 -0.80229855862E+01  0.10654500302E+03 -0.19176908089E+03  0.21952582161E+03  0.00000000000E+00 0. -1.
         -4    1    5    5    0  503 -0.14498235763E+03  0.26656111368E+03 -0.64047196208E+03  0.70871647756E+03  0.00000000000E+00 0.  1.
         -3    1    6    6    0  502  0.12663405712E+03 -0.14702792199E+03 -0.72642607510E+02  0.20719638677E+03  0.00000000000E+00 0.  1.
<mgrwt>
<rscale>  0 0.12330815E+04</rscale>
<asrwt>0</asrwt>
<pdfrwt beam="1">  1        2 0.32014976E+00 0.12330815E+04</pdfrwt>
<pdfrwt beam="2">  1       -2 0.28102415E-01 0.12330815E+04</pdfrwt>
<totfact> 0.68765518E+01</totfact>
</mgrwt>
</event>
<event>
12    1  0.1556559E-007  0.1793083E+04  0.7818608E-02  0.8709987E-01
         -1   -1    0    0    0  501 -0.00000000000E+00  0.00000000000E+00  0.32318203075E+03  0.32318203075E+03  0.00000000000E+00 0.  1.
          1   -1    0    0  501    0  0.00000000000E+00 -0.00000000000E+00 -0.24871012363E+04  0.24871012363E+04  0.00000000000E+00 0. -1.
         23    2    1    2    0    0 -0.23425984518E+02 -0.65887605483E+03 -0.96145669101E+03  0.11692983000E+04  0.90515818241E+02 0.  0.
        254    2    1    2    0    0  0.23425984518E+02  0.65887605483E+03 -0.12024625145E+04  0.16409849670E+04  0.90124865090E+03 0.  0.
        -24    2    4    4    0    0  0.34845570402E+03  0.67085658977E+03 -0.67876768531E+03  0.10190778569E+04  0.79524625069E+02 0.  0.
         24    2    4    4    0    0 -0.32502971950E+03 -0.11980534940E+02 -0.52369482918E+03  0.62190711014E+03  0.82001998511E+02 0.  0.
         13    1    3    3    0    0 -0.11360271061E+01 -0.50565072820E+03 -0.79295785087E+03  0.94046058012E+03  0.00000000000E+00 0. -1.
        -13    1    3    3    0    0 -0.22289957412E+02 -0.15322532663E+03 -0.16849884014E+03  0.22883771990E+03  0.00000000000E+00 0.  1.
          4    1    6    6  502    0 -0.11608413565E+02 -0.12483942597E+02 -0.89592237079E+01  0.19258031512E+02  0.00000000000E+00 0. -1.
          1    1    5    5  503    0  0.88677419616E+02  0.21688908647E+03 -0.17074000580E+03  0.28992535274E+03  0.00000000000E+00 0. -1.
         -2    1    5    5    0  503  0.25977828440E+03  0.45396750330E+03 -0.50802767951E+03  0.72915250411E+03  0.00000000000E+00 0.  1.
         -3    1    6    6    0  502 -0.31342130593E+03  0.50340765689E+00 -0.51473560547E+03  0.60264907863E+03  0.00000000000E+00 0.  1.
<mgrwt>
<rscale>  0 0.17930827E+04</rscale>
<asrwt>0</asrwt>
<pdfrwt beam="1">  1        1 0.38263096E+00 0.17930827E+04</pdfrwt>
<pdfrwt beam="2">  1       -1 0.49720313E-01 0.17930827E+04</pdfrwt>
<totfact> 0.53031667E+00</totfact>
</mgrwt>
</event>
<event>
12    1  0.1556559E-007  0.2101648E+04  0.7818608E-02  0.8560518E-01
          1   -1    0    0  501    0  0.00000000000E+00  0.00000000000E+00  0.53521908724E+03  0.53521908724E+03  0.00000000000E+00 0. -1.
         -1   -1    0    0    0  501 -0.00000000000E+00 -0.00000000000E+00 -0.20631386566E+04  0.20631386566E+04  0.00000000000E+00 0.  1.
         23    2    1    2    0    0  0.38737500016E+03 -0.34969407712E+03 -0.14618778937E+04  0.15550261468E+04  0.93134326613E+02 0.  0.
        254    2    1    2    0    0 -0.38737500016E+03  0.34969407712E+03 -0.66041675703E+02  0.10433315971E+04  0.90101830182E+03 0.  0.
        -24    2    4    4    0    0 -0.60656303872E+03  0.16853974753E+03 -0.26459187439E+03  0.68747045500E+03  0.79261592595E+02 0.  0.
         24    2    4    4    0    0  0.21918803856E+03  0.18115432959E+03  0.19855019869E+03  0.35586114208E+03  0.79716269777E+02 0.  0.
         13    1    3    3    0    0  0.32333192026E+03 -0.31886333260E+03 -0.13272603271E+04  0.14027962545E+04  0.00000000000E+00 0.  1.
        -13    1    3    3    0    0  0.64043079907E+02 -0.30830744521E+02 -0.13461756653E+03  0.15222989230E+03  0.00000000000E+00 0. -1.
          2    1    6    6  502    0  0.82688535455E+02  0.57528419925E+02  0.27262860540E+02  0.10435600874E+03  0.00000000000E+00 0. -1.
          3    1    5    5  503    0 -0.42799714249E+02  0.40723262335E+01  0.85419338102E+00  0.43001500289E+02  0.00000000000E+00 0. -1.
         -4    1    5    5    0  503 -0.56376332447E+03  0.16446742130E+03 -0.26544606777E+03  0.64446895471E+03  0.00000000000E+00 0.  1.
         -1    1    6    6    0  502  0.13649950310E+03  0.12362590967E+03  0.17128733815E+03  0.25150513334E+03  0.00000000000E+00 0.  1.
<mgrwt>
<rscale>  0 0.21016481E+04</rscale>
<asrwt>0</asrwt>
<pdfrwt beam="1">  1        1 0.82341398E-01 0.21016481E+04</pdfrwt>
<pdfrwt beam="2">  1       -1 0.31740595E+00 0.21016481E+04</pdfrwt>
<totfact> 0.94400226E-01</totfact>
</mgrwt>
</event>
<event>
12    1  0.1556559E-007  0.2055359E+04  0.7818608E-02  0.8581167E-01
          2   -1    0    0  501    0  0.00000000000E+00  0.00000000000E+00  0.12906206307E+04  0.12906206307E+04  0.00000000000E+00 0. -1.
         -2   -1    0    0    0  501 -0.00000000000E+00 -0.00000000000E+00 -0.81830793680E+03  0.81830793680E+03  0.00000000000E+00 0.  1.
         23    2    1    2    0    0  0.23267630476E+03 -0.96153405038E+02  0.10033358547E+04  0.10382189414E+04  0.88498546860E+02 0.  0.
        254    2    1    2    0    0 -0.23267630476E+03  0.96153405038E+02 -0.53102316078E+03  0.10707096261E+04  0.89501383572E+03 0.  0.
        -24    2    4    4    0    0 -0.55324890346E+03 -0.15756970570E+01 -0.20176746988E+03  0.59433239458E+03  0.80212538577E+02 0.  0.
         24    2    4    4    0    0  0.32057259871E+03  0.97729102095E+02 -0.32925569090E+03  0.47637723155E+03  0.78792057440E+02 0.  0.
         13    1    3    3    0    0 -0.14226487025E+01 -0.39101652525E+01  0.37528179315E+00  0.41778173795E+01  0.00000000000E+00 0.  1.
        -13    1    3    3    0    0  0.23409895346E+03 -0.92243239785E+02  0.10029605729E+04  0.10340411240E+04  0.00000000000E+00 0. -1.
          4    1    6    6  502    0  0.50496650681E+02  0.47979739491E+02 -0.66800787671E+02  0.96510685238E+02  0.00000000000E+00 0. -1.
          1    1    5    5  503    0 -0.45983135286E+02  0.50920079596E+01  0.49391107603E+01  0.46527111354E+02  0.00000000000E+00 0. -1.
         -2    1    5    5    0  503 -0.50726576818E+03 -0.66677050166E+01 -0.20670658064E+03  0.54780528323E+03  0.00000000000E+00 0.  1.
         -3    1    6    6    0  502  0.27007594803E+03  0.49749362604E+02 -0.26245490323E+03  0.37986654632E+03  0.00000000000E+00 0.  1.
<mgrwt>
<rscale>  0 0.20553590E+04</rscale>
<asrwt>0</asrwt>
<pdfrwt beam="1">  1        2 0.19855702E+00 0.20553590E+04</pdfrwt>
<pdfrwt beam="2">  1       -2 0.12589353E+00 0.20553590E+04</pdfrwt>
<totfact> 0.72938701E+00</totfact>
</mgrwt>
</event>
<event>
12    1  0.1556559E-007  0.1654222E+04  0.7818608E-02  0.8787913E-01
          1   -1    0    0  501    0  0.00000000000E+00  0.00000000000E+00  0.10468323932E+04  0.10468323932E+04  0.00000000000E+00 0. -1.
         -1   -1    0    0    0  501 -0.00000000000E+00 -0.00000000000E+00 -0.65350741709E+03  0.65350741709E+03  0.00000000000E+00 0.  1.
         23    2    1    2    0    0 -0.26873071390E+03 -0.49083271901E+03  0.25802000307E+03  0.62284560961E+03  0.90715912511E+02 0.  0.
        254    2    1    2    0    0  0.26873071390E+03  0.49083271901E+03  0.13530497303E+03  0.10774942007E+04  0.91079820054E+03 0.  0.
        -24    2    4    4    0    0  0.25795157587E+03  0.13490955941E+03  0.48500252925E+03  0.57122062766E+03  0.79535824458E+02 0.  0.
         24    2    4    4    0    0  0.10779138022E+02  0.35592315960E+03 -0.34969755622E+03  0.50627357301E+03  0.85012143488E+02 0.  0.
         13    1    3    3    0    0 -0.72329867628E+02 -0.18393188845E+03  0.13037182838E+03  0.23676858528E+03  0.00000000000E+00 0. -1.
        -13    1    3    3    0    0 -0.19640084627E+03 -0.30690083057E+03  0.12764817469E+03  0.38607702434E+03  0.00000000000E+00 0.  1.
          4    1    6    6  502    0  0.58402507850E+01  0.86966273157E+02 -0.39534765129E+02  0.95709136710E+02  0.00000000000E+00 0. -1.
          3    1    5    5  503    0  0.23157801337E+03  0.88800981710E+02  0.38468882242E+03  0.45771113240E+03  0.00000000000E+00 0. -1.
         -4    1    5    5    0  503  0.26373562508E+02  0.46108577703E+02  0.10031370683E+03  0.11350949526E+03  0.00000000000E+00 0.  1.
         -3    1    6    6    0  502  0.49388872371E+01  0.26895688644E+03 -0.31016279109E+03  0.41056443630E+03  0.00000000000E+00 0.  1.
<mgrwt>
<rscale>  0 0.16542222E+04</rscale>
<asrwt>0</asrwt>
<pdfrwt beam="1">  1        1 0.16105114E+00 0.16542222E+04</pdfrwt>
<pdfrwt beam="2">  1       -1 0.10053960E+00 0.16542222E+04</pdfrwt>
<totfact> 0.12517877E+01</totfact>
</mgrwt>
</event>
<event>
12    1  0.1556559E-007  0.1329387E+04  0.7818608E-02  0.9006580E-01
          1   -1    0    0  501    0  0.00000000000E+00  0.00000000000E+00  0.14201086938E+04  0.14201086938E+04  0.00000000000E+00 0. -1.
         -1   -1    0    0    0  501 -0.00000000000E+00 -0.00000000000E+00 -0.31111520968E+03  0.31111520968E+03  0.00000000000E+00 0.  1.
         23    2    1    2    0    0 -0.24648668625E+03 -0.23399887968E+03  0.36668392432E+03  0.51379014699E+03  0.11837251624E+03 0.  0.
        254    2    1    2    0    0  0.24648668625E+03  0.23399887968E+03  0.74230955979E+03  0.12174337565E+04  0.90311145861E+03 0.  0.
        -24    2    4    4    0    0  0.17789676196E+03 -0.12628665546E+03  0.80347839244E+03  0.83705974022E+03  0.86578890740E+02 0.  0.
         24    2    4    4    0    0  0.68589924290E+02  0.36028553514E+03 -0.61168832650E+02  0.38037401625E+03  0.80203002477E+02 0.  0.
         13    1    3    3    0    0 -0.16079968631E+02  0.12970946770E+02  0.33449528468E+02  0.39315160002E+02  0.00000000000E+00 0.  1.
        -13    1    3    3    0    0 -0.23040671762E+03 -0.24696982645E+03  0.33323439585E+03  0.47447498699E+03  0.00000000000E+00 0. -1.
          4    1    6    6  502    0  0.47161085274E+02  0.31081232477E+03 -0.24814837363E+02  0.31534781646E+03  0.00000000000E+00 0. -1.
          3    1    5    5  503    0  0.10347430246E+03 -0.11231534926E+03  0.43915499434E+03  0.46495029627E+03  0.00000000000E+00 0. -1.
         -4    1    5    5    0  503  0.74422459500E+02 -0.13971306200E+02  0.36432339810E+03  0.37210944395E+03  0.00000000000E+00 0.  1.
         -3    1    6    6    0  502  0.21428839016E+02  0.49473210370E+02 -0.36353995287E+02  0.65026199791E+02  0.00000000000E+00 0.  1.
<mgrwt>
<rscale>  0 0.13293869E+04</rscale>
<asrwt>0</asrwt>
<pdfrwt beam="1">  1        1 0.21847826E+00 0.13293869E+04</pdfrwt>
<pdfrwt beam="2">  1       -1 0.47863879E-01 0.13293869E+04</pdfrwt>
<totfact> 0.31790053E+01</totfact>
</mgrwt>
</event>
<event>
12    1  0.1556559E-007  0.2324030E+04  0.7818608E-02  0.8468506E-01
         -2   -1    0    0    0  501 -0.00000000000E+00  0.00000000000E+00  0.61914927093E+03  0.61914927093E+03  0.00000000000E+00 0.  1.
          2   -1    0    0  501    0  0.00000000000E+00 -0.00000000000E+00 -0.21808617045E+04  0.21808617045E+04  0.00000000000E+00 0. -1.
         23    2    1    2    0    0  0.12023982451E+03 -0.49210721242E+03  0.35254346586E+03  0.62397296281E+03  0.91805441457E+02 0.  0.
        254    2    1    2    0    0 -0.12023982451E+03  0.49210721242E+03 -0.19142558995E+04  0.21760380126E+04  0.90229632600E+03 0.  0.
        -24    2    4    4    0    0  0.41369227501E+02  0.71967142684E+03 -0.15537160943E+04  0.17145414342E+04  0.77332092295E+02 0.  0.
         24    2    4    4    0    0 -0.16160905201E+03 -0.22756421442E+03 -0.36053980518E+03  0.46149657840E+03  0.71324493561E+02 0.  0.
         13    1    3    3    0    0  0.12816869913E+03 -0.48509158587E+03  0.35284004218E+03  0.61338173879E+03  0.00000000000E+00 0.  1.
        -13    1    3    3    0    0 -0.79288746230E+01 -0.70156265513E+01 -0.29657631612E+00  0.10591224018E+02  0.00000000000E+00 0. -1.
          2    1    6    6  502    0 -0.11057072428E+03 -0.19073247139E+03 -0.24257988976E+03  0.32779530751E+03  0.00000000000E+00 0. -1.
          3    1    5    5  503    0 -0.19049878955E+02  0.83030571210E+02 -0.19920324120E+03  0.21665388284E+03  0.00000000000E+00 0. -1.
         -4    1    5    5    0  503  0.60419106457E+02  0.63664085563E+03 -0.13545128531E+04  0.14978875514E+04  0.00000000000E+00 0.  1.
         -1    1    6    6    0  502 -0.51038327737E+02 -0.36831743032E+02 -0.11795991542E+03  0.13370127090E+03  0.00000000000E+00 0.  1.
<mgrwt>
<rscale>  0 0.23240301E+04</rscale>
<asrwt>0</asrwt>
<pdfrwt beam="1">  1        2 0.33551719E+00 0.23240301E+04</pdfrwt>
<pdfrwt beam="2">  1       -2 0.95253732E-01 0.23240301E+04</pdfrwt>
<totfact> 0.44356992E+00</totfact>
</mgrwt>
</event>
<event>
12    1  0.1556559E-007  0.1177145E+04  0.7818608E-02  0.9133100E-01
          4   -1    0    0  501    0  0.00000000000E+00  0.00000000000E+00  0.72202817005E+03  0.72202817005E+03  0.00000000000E+00 0. -1.
         -4   -1    0    0    0  501 -0.00000000000E+00 -0.00000000000E+00 -0.47978366935E+03  0.47978366935E+03  0.00000000000E+00 0.  1.
         23    2    1    2    0    0 -0.13200278536E+03 -0.22058679756E+02  0.26471253263E+03  0.30485753786E+03  0.70385174333E+02 0.  0.
        254    2    1    2    0    0  0.13200278536E+03  0.22058679756E+02 -0.22468031932E+02  0.89695430154E+03  0.88662894488E+03 0.  0.
        -24    2    4    4    0    0 -0.13184766721E+02 -0.39316818122E+03  0.13250493838E+03  0.42352645113E+03  0.84035940595E+02 0.  0.
         24    2    4    4    0    0  0.14518755208E+03  0.41522686098E+03 -0.15497297031E+03  0.47342785041E+03  0.81391256691E+02 0.  0.
         11    1    3    3    0    0 -0.11499628277E+03  0.55988482971E+01  0.17525043868E+03  0.20968597572E+03  0.00000000000E+00 0. -1.
        -11    1    3    3    0    0 -0.17006502588E+02 -0.27657528053E+02  0.89462093942E+02  0.95171562143E+02  0.00000000000E+00 0.  1.
          4    1    6    6  502    0  0.69258074357E+02  0.26162547393E+03 -0.58844722129E+02  0.27696077483E+03  0.00000000000E+00 0. -1.
          1    1    5    5  503    0 -0.29117644307E+02 -0.12324587007E+03  0.74685619265E+02  0.14702150667E+03  0.00000000000E+00 0. -1.
         -2    1    5    5    0  503  0.15932877586E+02 -0.26992231115E+03  0.57819319113E+02  0.27650494445E+03  0.00000000000E+00 0.  1.
         -3    1    6    6    0  502  0.75929477726E+02  0.15360138705E+03 -0.96128248181E+02  0.19646707559E+03  0.00000000000E+00 0.  1.
<mgrwt>
<rscale>  0 0.11771446E+04</rscale>
<asrwt>0</asrwt>
<pdfrwt beam="1">  1        4 0.11108126E+00 0.11771446E+04</pdfrwt>
<pdfrwt beam="2">  1       -4 0.73812872E-01 0.11771446E+04</pdfrwt>
<totfact> 0.20986850E+00</totfact>
</mgrwt>
</event>
<event>
12    1  0.1556559E-007  0.2060412E+04  0.7818608E-02  0.8578886E-01
         -2   -1    0    0    0  501 -0.00000000000E+00  0.00000000000E+00  0.37446806440E+03  0.37446806440E+03  0.00000000000E+00 0.  1.
          2   -1    0    0  501    0  0.00000000000E+00 -0.00000000000E+00 -0.28342176603E+04  0.28342176603E+04  0.00000000000E+00 0. -1.
         23    2    1    2    0    0 -0.12508671797E+03 -0.79506059846E+03 -0.66872133014E+03  0.10518326466E+04  0.10675044224E+03 0.  0.
        254    2    1    2    0    0  0.12508671797E+03  0.79506059846E+03 -0.17910282658E+04  0.21568530781E+04  0.89244882729E+03 0.  0.
        -24    2    4    4    0    0  0.17064342066E+03 -0.65157121485E+02 -0.39161396647E+02  0.20306148952E+03  0.79597274102E+02 0.  0.
         24    2    4    4    0    0 -0.45556702686E+02  0.86021771994E+03 -0.17518668691E+04  0.19537915885E+04  0.78829597633E+02 0.  0.
         13    1    3    3    0    0 -0.65720188707E+02 -0.16314220825E+03 -0.17030853739E+03  0.24482549136E+03  0.00000000000E+00 0. -1.
        -13    1    3    3    0    0 -0.59366529267E+02 -0.63191839021E+03 -0.49841279275E+03  0.80700715528E+03  0.00000000000E+00 0.  1.
          2    1    6    6  502    0 -0.48394705865E+02  0.63247603316E+03 -0.13572401860E+04  0.14981551664E+04  0.00000000000E+00 0. -1.
          3    1    5    5  503    0  0.10832553195E+03 -0.22853037545E+01 -0.37062687169E+02  0.11451325803E+03  0.00000000000E+00 0. -1.
         -4    1    5    5    0  503  0.62317888712E+02 -0.62871817730E+02 -0.20987094777E+01  0.88548231488E+02  0.00000000000E+00 0.  1.
         -1    1    6    6    0  502  0.28380031791E+01  0.22774168678E+03 -0.39462668309E+03  0.45563642213E+03  0.00000000000E+00 0.  1.
<mgrwt>
<rscale>  0 0.20604116E+04</rscale>
<asrwt>0</asrwt>
<pdfrwt beam="1">  1        2 0.43603347E+00 0.20604116E+04</pdfrwt>
<pdfrwt beam="2">  1       -2 0.57610474E-01 0.20604116E+04</pdfrwt>
<totfact> 0.57582811E+00</totfact>
</mgrwt>
</event>
<event>
12    1  0.1556559E-007  0.1602164E+04  0.7818608E-02  0.8819220E-01
          2   -1    0    0  501    0  0.00000000000E+00  0.00000000000E+00  0.18838855478E+04  0.18838855478E+04  0.00000000000E+00 0.  1.
         -2   -1    0    0    0  501 -0.00000000000E+00 -0.00000000000E+00 -0.34064281730E+03  0.34064281730E+03  0.00000000000E+00 0. -1.
         23    2    1    2    0    0 -0.21168749985E+03  0.17828511738E+03  0.10705874747E+04  0.11097600913E+04  0.93876186982E+02 0.  0.
        254    2    1    2    0    0  0.21168749985E+03 -0.17828511738E+03  0.47265525574E+03  0.11147682738E+04  0.97093157987E+03 0.  0.
        -24    2    4    4    0    0 -0.17516996630E+03 -0.33171716717E+03  0.56288372920E+03  0.68165089484E+03  0.84196518626E+02 0.  0.
         24    2    4    4    0    0  0.38685746615E+03  0.15343204979E+03 -0.90228473458E+02  0.43311737895E+03  0.79053105615E+02 0.  0.
         13    1    3    3    0    0 -0.13369226443E+03  0.89737166784E+02  0.77379881504E+03  0.79037395379E+03  0.00000000000E+00 0.  1.
        -13    1    3    3    0    0 -0.77995235416E+02  0.88547950592E+02  0.29678865970E+03  0.31938613750E+03  0.00000000000E+00 0. -1.
          2    1    6    6  502    0  0.26893544301E+03  0.12380616750E+03 -0.30438486072E+02  0.29762516871E+03  0.00000000000E+00 0. -1.
          1    1    5    5  503    0 -0.14064909826E+03 -0.30482007153E+03  0.45675299945E+03  0.56685160964E+03  0.00000000000E+00 0. -1.
         -2    1    5    5    0  503 -0.34520868042E+02 -0.26897095637E+02  0.10613072975E+03  0.11479928520E+03  0.00000000000E+00 0.  1.
         -1    1    6    6    0  502  0.11792202314E+03  0.29625882289E+02 -0.59789987386E+02  0.13549221024E+03  0.00000000000E+00 0.  1.
<mgrwt>
<rscale>  0 0.16021636E+04</rscale>
<asrwt>0</asrwt>
<pdfrwt beam="1">  1        2 0.28982854E+00 0.16021636E+04</pdfrwt>
<pdfrwt beam="2">  1       -2 0.52406588E-01 0.16021636E+04</pdfrwt>
<totfact> 0.25538225E+01</totfact>
</mgrwt>
</event>
<event>
12    1  0.1556559E-007  0.1886269E+04  0.7818608E-02  0.8661722E-01
         -2   -1    0    0    0  501 -0.00000000000E+00  0.00000000000E+00  0.21169000698E+03  0.21169000698E+03  0.00000000000E+00 0.  1.
          2   -1    0    0  501    0  0.00000000000E+00 -0.00000000000E+00 -0.42019098709E+04  0.42019098709E+04  0.00000000000E+00 0. -1.
         23    2    1    2    0    0  0.14545649732E+03 -0.59657575605E+03 -0.24928639622E+04  0.25690250774E+04  0.91972220221E+02 0.  0.
        254    2    1    2    0    0 -0.14545649732E+03  0.59657575605E+03 -0.14973559017E+04  0.18445748004E+04  0.88505438963E+03 0.  0.
        -24    2    4    4    0    0  0.32255382596E+03  0.38616583940E+02 -0.59210781469E+03  0.68001320322E+03  0.79335245324E+02 0.  0.
         24    2    4    4    0    0 -0.46801032327E+03  0.55795917211E+03 -0.90524808705E+03  0.11645615972E+04  0.79859339787E+02 0.  0.
         11    1    3    3    0    0  0.93020559195E+02 -0.51101724939E+03 -0.20287608667E+04  0.20941972467E+04  0.00000000000E+00 0. -1.
        -11    1    3    3    0    0  0.52435938124E+02 -0.85558506666E+02 -0.46410309543E+03  0.47482783075E+03  0.00000000000E+00 0.  1.
          4    1    6    6  502    0 -0.46448702841E+03  0.55809412107E+03 -0.90589691783E+03  0.11609765171E+04  0.00000000000E+00 0. -1.
          1    1    5    5  503    0  0.32404536135E+03  0.30049494616E+02 -0.57183679268E+03  0.65795568681E+03  0.00000000000E+00 0. -1.
         -2    1    5    5    0  503 -0.14915353915E+01  0.85670893242E+01 -0.20271022003E+02  0.22057516414E+02  0.00000000000E+00 0.  1.
         -3    1    6    6    0  502 -0.35232948665E+01 -0.13494895472E+00  0.64883078821E+00  0.35850801007E+01  0.00000000000E+00 0.  1.
<mgrwt>
<rscale>  0 0.18862686E+04</rscale>
<asrwt>0</asrwt>
<pdfrwt beam="1">  1        2 0.64644765E+00 0.18862686E+04</pdfrwt>
<pdfrwt beam="2">  1       -2 0.32567695E-01 0.18862686E+04</pdfrwt>
<totfact> 0.19381106E+00</totfact>
</mgrwt>
</event>
<event>
12    1  0.1556559E-007  0.1722069E+04  0.7818608E-02  0.8748876E-01
          2   -1    0    0  501    0  0.00000000000E+00  0.00000000000E+00  0.18242969099E+04  0.18242969099E+04  0.00000000000E+00 0.  1.
         -2   -1    0    0    0  501 -0.00000000000E+00 -0.00000000000E+00 -0.40639263743E+03  0.40639263743E+03  0.00000000000E+00 0. -1.
         23    2    1    2    0    0  0.46385616585E+03  0.24884386364E+03  0.69356532556E+02  0.54083964760E+03  0.10301157577E+03 0.  0.
        254    2    1    2    0    0 -0.46385616585E+03 -0.24884386364E+03  0.13485477399E+04  0.16898498997E+04  0.87173726874E+03 0.  0.
        -24    2    4    4    0    0 -0.49026188407E+03 -0.16246265756E+03  0.14409452327E+04  0.15327185100E+04  0.78434923610E+02 0.  0.
         24    2    4    4    0    0  0.26405718222E+02 -0.86381206076E+02 -0.92397492731E+02  0.15713138976E+03  0.89409184463E+02 0.  0.
         11    1    3    3    0    0  0.32560039403E+02 -0.89934028198E+01  0.17832693416E+01  0.33826284303E+02  0.00000000000E+00 0.  1.
        -11    1    3    3    0    0  0.43129612645E+03  0.25783726646E+03  0.67573263215E+02  0.50701336330E+03  0.00000000000E+00 0. -1.
          2    1    6    6  502    0 -0.12107826295E+02 -0.86580055144E+02 -0.54049486272E+02  0.10278157604E+03  0.00000000000E+00 0. -1.
          3    1    5    5  503    0 -0.47273714429E+03 -0.16815930465E+03  0.14109999661E+04  0.14975576328E+04  0.00000000000E+00 0. -1.
         -4    1    5    5    0  503 -0.17524739780E+02  0.56966470924E+01  0.29945266588E+02  0.35160877172E+02  0.00000000000E+00 0.  1.
         -1    1    6    6    0  502  0.38513544517E+02  0.19884906800E+00 -0.38348006460E+02  0.54349813722E+02  0.00000000000E+00 0.  1.
<mgrwt>
<rscale>  0 0.17220695E+04</rscale>
<asrwt>0</asrwt>
<pdfrwt beam="1">  1        2 0.28066106E+00 0.17220695E+04</pdfrwt>
<pdfrwt beam="2">  1       -2 0.62521945E-01 0.17220695E+04</pdfrwt>
<totfact> 0.18852953E+01</totfact>
</mgrwt>
</event>
<event>
12    1  0.1556559E-007  0.1803196E+04  0.7818608E-02  0.8704602E-01
          2   -1    0    0  501    0  0.00000000000E+00  0.00000000000E+00  0.43995373981E+04  0.43995373981E+04  0.00000000000E+00 0.  1.
         -2   -1    0    0    0  501 -0.00000000000E+00 -0.00000000000E+00 -0.18476469839E+03  0.18476469839E+03  0.00000000000E+00 0. -1.
         23    2    1    2    0    0  0.16954028017E+03  0.64413419215E+02  0.32293870086E+04  0.32357358035E+04  0.90292544234E+02 0.  0.
        254    2    1    2    0    0 -0.16954028017E+03 -0.64413419215E+02  0.98538569112E+03  0.13485662930E+04  0.90263674375E+03 0.  0.
        -24    2    4    4    0    0 -0.36651284374E+03 -0.24357367561E+03  0.97231346954E+03  0.10704464754E+04  0.82476502623E+02 0.  0.
         24    2    4    4    0    0  0.19697256356E+03  0.17916025639E+03  0.13072221582E+02  0.27811981764E+03  0.79266397176E+02 0.  0.
         13    1    3    3    0    0  0.75144910222E+02  0.66289732183E+02  0.12096668944E+04  0.12138101505E+04  0.00000000000E+00 0. -1.
        -13    1    3    3    0    0  0.94395369951E+02 -0.18763129680E+01  0.20197201142E+04  0.20219256530E+04  0.00000000000E+00 0.  1.
          2    1    6    6  502    0  0.15391230802E+03  0.17183513350E+03  0.27030543435E+02  0.23226485301E+03  0.00000000000E+00 0. -1.
          3    1    5    5  503    0 -0.24398062804E+03 -0.19051695617E+03  0.60455831159E+03  0.67920100822E+03  0.00000000000E+00 0. -1.
         -4    1    5    5    0  503 -0.12253221569E+03 -0.53056719434E+02  0.36775515795E+03  0.39124546714E+03  0.00000000000E+00 0.  1.
         -1    1    6    6    0  502  0.43060255543E+02  0.73251228972E+01 -0.13958321853E+02  0.45854964637E+02  0.00000000000E+00 0.  1.
<mgrwt>
<rscale>  0 0.18031963E+04</rscale>
<asrwt>0</asrwt>
<pdfrwt beam="1">  1        2 0.67685183E+00 0.18031963E+04</pdfrwt>
<pdfrwt beam="2">  1       -2 0.28425341E-01 0.18031963E+04</pdfrwt>
<totfact> 0.16782596E+00</totfact>
</mgrwt>
</event>
<event>
12    1  0.1556559E-007  0.1408245E+04  0.7818608E-02  0.8947872E-01
         -2   -1    0    0    0  501 -0.00000000000E+00  0.00000000000E+00  0.36028490295E+03  0.36028490295E+03  0.00000000000E+00 0. -1.
          2   -1    0    0  501    0  0.00000000000E+00 -0.00000000000E+00 -0.13761002597E+04  0.13761002597E+04  0.00000000000E+00 0.  1.
         23    2    1    2    0    0  0.17180759009E+03 -0.57467152125E+01  0.15452374628E+03  0.24868229526E+03  0.91730164420E+02 0.  0.
        254    2    1    2    0    0 -0.17180759009E+03  0.57467152125E+01 -0.11703391031E+04  0.14877028674E+04  0.90222798274E+03 0.  0.
        -24    2    4    4    0    0 -0.31391101302E+03  0.15411347082E+03 -0.12117423717E+04  0.12638523430E+04  0.81927306874E+02 0.  0.
         24    2    4    4    0    0  0.14210342293E+03 -0.14836675561E+03  0.41403268624E+02  0.22385052441E+03  0.78668606499E+02 0.  0.
         11    1    3    3    0    0  0.12880100479E+03 -0.40528067523E+02  0.13240717825E+03  0.18911341556E+03  0.00000000000E+00 0. -1.
        -11    1    3    3    0    0  0.43006585300E+02  0.34781352311E+02  0.22116568028E+02  0.59568879703E+02  0.00000000000E+00 0.  1.
          4    1    6    6  502    0  0.24789916404E+02 -0.73882348181E+02 -0.29380610718E+01  0.77985726456E+02  0.00000000000E+00 0. -1.
          1    1    5    5  503    0 -0.16081580936E+03  0.10374384576E+03 -0.77628365614E+03  0.79952537474E+03  0.00000000000E+00 0. -1.
         -2    1    5    5    0  503 -0.15309520367E+03  0.50369625060E+02 -0.43545871556E+03  0.46432696828E+03  0.00000000000E+00 0.  1.
         -1    1    6    6    0  502  0.11731350653E+03 -0.74484407425E+02  0.44341329696E+02  0.14586479795E+03  0.00000000000E+00 0.  1.
<mgrwt>
<rscale>  0 0.14082445E+04</rscale>
<asrwt>0</asrwt>
<pdfrwt beam="1">  1        2 0.21170773E+00 0.14082445E+04</pdfrwt>
<pdfrwt beam="2">  1       -2 0.55428446E-01 0.14082445E+04</pdfrwt>
<totfact> 0.44435738E+01</totfact>
</mgrwt>
</event>
<event>
12    1  0.1556559E-007  0.1642888E+04  0.7818608E-02  0.8794625E-01
         -2   -1    0    0    0  501 -0.00000000000E+00  0.00000000000E+00  0.49200346587E+03  0.49200346587E+03  0.00000000000E+00 0. -1.
          2   -1    0    0  501    0  0.00000000000E+00 -0.00000000000E+00 -0.13714752585E+04  0.13714752585E+04  0.00000000000E+00 0.  1.
         23    2    1    2    0    0 -0.50975508867E+03 -0.19391530516E+03 -0.51241021532E+03  0.75069503156E+03  0.59375126517E+02 0.  0.
        254    2    1    2    0    0  0.50975508867E+03  0.19391530516E+03 -0.36706157730E+03  0.11127836928E+04  0.89783069086E+03 0.  0.
        -24    2    4    4    0    0 -0.18418374895E+03  0.17127610210E+03  0.88013004393E+02  0.27866839740E+03  0.81551396319E+02 0.  0.
         24    2    4    4    0    0  0.69393883761E+03  0.22639203058E+02 -0.45507458169E+03  0.83411529540E+03  0.81189945581E+02 0.  0.
         11    1    3    3    0    0 -0.32465241069E+03 -0.11219902498E+03 -0.35828566351E+03  0.49634305239E+03  0.00000000000E+00 0.  1.
        -11    1    3    3    0    0 -0.18510267797E+03 -0.81716280174E+02 -0.15412455181E+03  0.25435197917E+03  0.00000000000E+00 0. -1.
          4    1    6    6  502    0  0.29722123855E+02 -0.96773609956E+01 -0.63963712352E+01  0.31905634726E+02  0.00000000000E+00 0. -1.
          3    1    5    5  503    0 -0.11452962963E+02 -0.13368294707E+01 -0.10266094133E+02  0.15438593278E+02  0.00000000000E+00 0. -1.
         -2    1    5    5    0  503 -0.17273078598E+03  0.17261293157E+03  0.98279098526E+02  0.26322980412E+03  0.00000000000E+00 0.  1.
         -3    1    6    6    0  502  0.66421671376E+03  0.32316564054E+02 -0.44867821046E+03  0.80220966068E+03  0.00000000000E+00 0.  1.
<mgrwt>
<rscale>  0 0.16428884E+04</rscale>
<asrwt>0</asrwt>
<pdfrwt beam="1">  1        2 0.21099620E+00 0.16428884E+04</pdfrwt>
<pdfrwt beam="2">  1       -2 0.75692840E-01 0.16428884E+04</pdfrwt>
<totfact> 0.22470859E+01</totfact>
</mgrwt>
</event>
<event>
12    1  0.1556559E-007  0.1872382E+04  0.7818608E-02  0.8668727E-01
          2   -1    0    0  501    0  0.00000000000E+00  0.00000000000E+00  0.21704175209E+04  0.21704175209E+04  0.00000000000E+00 0. -1.
         -2   -1    0    0    0  501 -0.00000000000E+00 -0.00000000000E+00 -0.40381781319E+03  0.40381781319E+03  0.00000000000E+00 0.  1.
         23    2    1    2    0    0 -0.67271591416E+03  0.22299946802E+03  0.84823143927E+03  0.11087415645E+04  0.86809091043E+02 0.  0.
        254    2    1    2    0    0  0.67271591416E+03 -0.22299946802E+03  0.91836826847E+03  0.14654937697E+04  0.89554243255E+03 0.  0.
        -24    2    4    4    0    0  0.73645523102E+03 -0.38700896967E+03  0.95413922991E+03  0.12684764939E+04  0.80676487044E+02 0.  0.
         24    2    4    4    0    0 -0.63739316864E+02  0.16400950165E+03 -0.35770961442E+02  0.19701727579E+03  0.81082847336E+02 0.  0.
         11    1    3    3    0    0 -0.50238955259E+03  0.12808348114E+03  0.59647524527E+03  0.79030586416E+03  0.00000000000E+00 0.  1.
        -11    1    3    3    0    0 -0.17032636156E+03  0.94915986886E+02  0.25175619400E+03  0.31843570030E+03  0.00000000000E+00 0. -1.
          2    1    6    6  502    0 -0.49915691183E+01  0.74702000145E+01  0.19047548465E+02  0.21060122342E+02  0.00000000000E+00 0. -1.
          3    1    5    5  503    0  0.96017155113E+02 -0.81116422834E+02  0.15824336492E+03  0.20208941256E+03  0.00000000000E+00 0. -1.
         -4    1    5    5    0  503  0.64043807591E+03 -0.30589254684E+03  0.79589586499E+03  0.10663870813E+04  0.00000000000E+00 0.  1.
         -1    1    6    6    0  502 -0.58747747746E+02  0.15653930163E+03 -0.54818509907E+02  0.17595715345E+03  0.00000000000E+00 0.  1.
<mgrwt>
<rscale>  0 0.18723816E+04</rscale>
<asrwt>0</asrwt>
<pdfrwt beam="1">  1        2 0.33391038E+00 0.18723816E+04</pdfrwt>
<pdfrwt beam="2">  1       -2 0.62125819E-01 0.18723816E+04</pdfrwt>
<totfact> 0.12114866E+01</totfact>
</mgrwt>
</event>
<event>
12    1  0.1556559E-007  0.2623479E+04  0.7818608E-02  0.8360270E-01
          1   -1    0    0  501    0  0.00000000000E+00  0.00000000000E+00  0.28698954643E+04  0.28698954643E+04  0.00000000000E+00 0. -1.
         -1   -1    0    0    0  501 -0.00000000000E+00 -0.00000000000E+00 -0.59955491939E+03  0.59955491939E+03  0.00000000000E+00 0.  1.
         23    2    1    2    0    0  0.25053067795E+03 -0.41462981693E+03 -0.38360131767E+03  0.62459310449E+03  0.91011370593E+02 0.  0.
        254    2    1    2    0    0 -0.25053067795E+03  0.41462981693E+03  0.26539418626E+04  0.28448572792E+04  0.90284108424E+03 0.  0.
        -24    2    4    4    0    0  0.24845148177E+03  0.39524555470E+03  0.87170088880E+03  0.99209180453E+03  0.80227936482E+02 0.  0.
         24    2    4    4    0    0 -0.49898215972E+03  0.19384262231E+02  0.17822409738E+04  0.18527654747E+04  0.83654468772E+02 0.  0.
         11    1    3    3    0    0  0.13504883037E+03 -0.27771216502E+03 -0.28452890062E+03  0.41990347519E+03  0.00000000000E+00 0.  1.
        -11    1    3    3    0    0  0.11548184758E+03 -0.13691765190E+03 -0.99072417056E+02  0.20468962931E+03  0.00000000000E+00 0. -1.
          4    1    6    6  502    0 -0.33406388536E+03 -0.25221920478E+02  0.12170743336E+04  0.12623409833E+04  0.00000000000E+00 0. -1.
          3    1    5    5  503    0  0.45570554229E+02  0.10771755674E+03  0.28325118316E+03  0.30644898467E+03  0.00000000000E+00 0. -1.
         -4    1    5    5    0  503  0.20288092754E+03  0.28752799795E+03  0.58844970564E+03  0.68564281987E+03  0.00000000000E+00 0.  1.
         -3    1    6    6    0  502 -0.16491827437E+03  0.44606182710E+02  0.56516664022E+03  0.59042449134E+03  0.00000000000E+00 0.  1.
<mgrwt>
<rscale>  0 0.26234786E+04</rscale>
<asrwt>0</asrwt>
<pdfrwt beam="1">  1        1 0.44152237E+00 0.26234786E+04</pdfrwt>
<pdfrwt beam="2">  1       -1 0.92239220E-01 0.26234786E+04</pdfrwt>
<totfact> 0.74635697E-01</totfact>
</mgrwt>
</event>
<event>
12    1  0.1556559E-007  0.1181779E+04  0.7818608E-02  0.9128957E-01
          1   -1    0    0  501    0  0.00000000000E+00  0.00000000000E+00  0.81522187590E+03  0.81522187590E+03  0.00000000000E+00 0. -1.
         -1   -1    0    0    0  501 -0.00000000000E+00 -0.00000000000E+00 -0.42828873525E+03  0.42828873525E+03  0.00000000000E+00 0.  1.
         23    2    1    2    0    0  0.19614766563E+03  0.10316040390E+03  0.17934149398E+03  0.29944854600E+03  0.91597404839E+02 0.  0.
        254    2    1    2    0    0 -0.19614766563E+03 -0.10316040390E+03  0.20759164667E+03  0.94406206514E+03  0.89389200433E+03 0.  0.
        -24    2    4    4    0    0 -0.52419046201E+03 -0.12931747742E+03  0.25478929973E+03  0.60219830504E+03  0.78908560437E+02 0.  0.
         24    2    4    4    0    0  0.32804279638E+03  0.26157073519E+02 -0.47197653067E+02  0.34186376010E+03  0.79667705251E+02 0.  0.
         11    1    3    3    0    0  0.17173574445E+03  0.52874055423E+02  0.11121151602E+03  0.21132163390E+03  0.00000000000E+00 0.  1.
        -11    1    3    3    0    0  0.24411921177E+02  0.50286348476E+02  0.68129977966E+02  0.88126912100E+02  0.00000000000E+00 0. -1.
          2    1    6    6  502    0  0.31564497083E+03  0.15286103962E+02 -0.59144287455E+02  0.32150188074E+03  0.00000000000E+00 0. -1.
          1    1    5    5  503    0 -0.51667163566E+03 -0.11920631060E+03  0.25726060684E+03  0.58935790774E+03  0.00000000000E+00 0. -1.
         -2    1    5    5    0  503 -0.75188263484E+01 -0.10111166816E+02 -0.24713071091E+01  0.12840397302E+02  0.00000000000E+00 0.  1.
         -1    1    6    6    0  502  0.12397825552E+02  0.10870969557E+02  0.11946634388E+02  0.20361879352E+02  0.00000000000E+00 0.  1.
<mgrwt>
<rscale>  0 0.11817789E+04</rscale>
<asrwt>0</asrwt>
<pdfrwt beam="1">  1        1 0.12541875E+00 0.11817789E+04</pdfrwt>
<pdfrwt beam="2">  1       -1 0.65890575E-01 0.11817789E+04</pdfrwt>
<totfact> 0.49626825E+01</totfact>
</mgrwt>
</event>
<event>
12    1  0.1556559E-007  0.2417297E+04  0.7818608E-02  0.8433056E-01
         -2   -1    0    0    0  501 -0.00000000000E+00  0.00000000000E+00  0.69950958714E+03  0.69950958714E+03  0.00000000000E+00 0.  1.
          2   -1    0    0  501    0  0.00000000000E+00 -0.00000000000E+00 -0.20883640546E+04  0.20883640546E+04  0.00000000000E+00 0. -1.
         23    2    1    2    0    0  0.53516030705E+03 -0.88588248619E+03 -0.67740964171E+03  0.12404966550E+04  0.93615142484E+02 0.  0.
        254    2    1    2    0    0 -0.53516030705E+03  0.88588248619E+03 -0.71144482578E+03  0.15473769867E+04  0.90390124756E+03 0.  0.
        -24    2    4    4    0    0  0.91710084997E+02  0.58524805262E+03 -0.76134405870E+02  0.60224934443E+03  0.77342112237E+02 0.  0.
         24    2    4    4    0    0 -0.62687039205E+03  0.30063443357E+03 -0.63531041991E+03  0.94512764229E+03  0.79368630488E+02 0.  0.
         11    1    3    3    0    0  0.40451641955E+03 -0.69314348569E+03 -0.47929617677E+03  0.93477604297E+03  0.00000000000E+00 0. -1.
        -11    1    3    3    0    0  0.13064388750E+03 -0.19273900049E+03 -0.19811346494E+03  0.30572061207E+03  0.00000000000E+00 0.  1.
          2    1    6    6  502    0 -0.55790267771E+03  0.23968649404E+03 -0.53929364405E+03  0.81212231082E+03  0.00000000000E+00 0. -1.
          1    1    5    5  503    0  0.10916441482E+02  0.20433900314E+03  0.41639734735E+01  0.20467275239E+03  0.00000000000E+00 0. -1.
         -2    1    5    5    0  503  0.80793643515E+02  0.38090904948E+03 -0.80298379344E+02  0.39757659204E+03  0.00000000000E+00 0.  1.
         -1    1    6    6    0  502 -0.68967714345E+02  0.60947939523E+02 -0.96016775854E+02  0.13300533147E+03  0.00000000000E+00 0.  1.
<mgrwt>
<rscale>  0 0.24172966E+04</rscale>
<asrwt>0</asrwt>
<pdfrwt beam="1">  1        2 0.32128678E+00 0.24172966E+04</pdfrwt>
<pdfrwt beam="2">  1       -2 0.10761686E+00 0.24172966E+04</pdfrwt>
<totfact> 0.37101051E+00</totfact>
</mgrwt>
</event>
<event>
12    1  0.1556559E-007  0.4214161E+04  0.7818608E-02  0.7962684E-01
         -2   -1    0    0    0  501 -0.00000000000E+00  0.00000000000E+00  0.30409539520E+04  0.30409539520E+04  0.00000000000E+00 0.  1.
          2   -1    0    0  501    0  0.00000000000E+00 -0.00000000000E+00 -0.14599988171E+04  0.14599988171E+04  0.00000000000E+00 0. -1.
         23    2    1    2    0    0 -0.12808740809E+04 -0.73858702100E+03  0.22080062650E+04  0.26588716418E+04  0.90319114517E+02 0.  0.
        254    2    1    2    0    0  0.12808740809E+04  0.73858702100E+03 -0.62705113014E+03  0.18420811273E+04  0.90217546017E+03 0.  0.
        -24    2    4    4    0    0  0.41863809692E+03 -0.18314653985E+03 -0.21284563141E+03  0.51125006027E+03  0.85281006470E+02 0.  0.
         24    2    4    4    0    0  0.86223598400E+03  0.92173356084E+03 -0.41420549873E+03  0.13308310670E+04  0.80631783265E+02 0.  0.
         13    1    3    3    0    0 -0.22189363229E+03 -0.10983795568E+03  0.42535444457E+03  0.49216619559E+03  0.00000000000E+00 0. -1.
        -13    1    3    3    0    0 -0.10589804486E+04 -0.62874906532E+03  0.17826518205E+04  0.21667054462E+04  0.00000000000E+00 0.  1.
          4    1    6    6  502    0  0.42237154011E+03  0.45549979426E+03 -0.24618986633E+03  0.66819699995E+03  0.00000000000E+00 0. -1.
          3    1    5    5  503    0  0.23215360071E+03 -0.99895811717E+02 -0.70729183095E+02  0.26244444148E+03  0.00000000000E+00 0. -1.
         -4    1    5    5    0  503  0.18648449622E+03 -0.83250728129E+02 -0.14211644832E+03  0.24880561880E+03  0.00000000000E+00 0.  1.
         -3    1    6    6    0  502  0.43986444389E+03  0.46623376658E+03 -0.16801563240E+03  0.66263406707E+03  0.00000000000E+00 0.  1.
<mgrwt>
<rscale>  0 0.42141614E+04</rscale>
<asrwt>0</asrwt>
<pdfrwt beam="1">  1        2 0.22461520E+00 0.42141614E+04</pdfrwt>
<pdfrwt beam="2">  1       -2 0.46783907E+00 0.42141614E+04</pdfrwt>
<totfact> 0.27497936E-02</totfact>
</mgrwt>
</event>
<event>
12    1  0.1556559E-007  0.1271641E+04  0.7818608E-02  0.9052362E-01
         -1   -1    0    0    0  501 -0.00000000000E+00  0.00000000000E+00  0.13392845479E+04  0.13392845479E+04  0.00000000000E+00 0.  1.
          1   -1    0    0  501    0  0.00000000000E+00 -0.00000000000E+00 -0.30185334549E+03  0.30185334549E+03  0.00000000000E+00 0. -1.
         23    2    1    2    0    0 -0.19028377554E+03  0.18431272733E+03  0.41156791575E+03  0.49826823498E+03  0.93295166122E+02 0.  0.
        254    2    1    2    0    0  0.19028377554E+03 -0.18431272733E+03  0.62586328664E+03  0.11428696584E+04  0.91884008719E+03 0.  0.
        -24    2    4    4    0    0  0.43762230615E+02 -0.31394689577E+03  0.80309825261E+03  0.86696036162E+03  0.78585489047E+02 0.  0.
         24    2    4    4    0    0  0.14652154493E+03  0.12963416844E+03 -0.17723496597E+03  0.27590929678E+03  0.80250396466E+02 0.  0.
         13    1    3    3    0    0 -0.19957400159E+03  0.16394471996E+03  0.38355402807E+03  0.46240820253E+03  0.00000000000E+00 0.  1.
        -13    1    3    3    0    0  0.92902260521E+01  0.20368007374E+02  0.28013887678E+02  0.35860032450E+02  0.00000000000E+00 0. -1.
          4    1    6    6  502    0  0.82131212703E+02  0.27233978408E+02 -0.10069239654E+03  0.13276364111E+03  0.00000000000E+00 0. -1.
          1    1    5    5  503    0 -0.69946281222E+01 -0.20364566046E+03  0.54107649468E+03  0.57817320324E+03  0.00000000000E+00 0. -1.
         -2    1    5    5    0  503  0.50756858737E+02 -0.11030123531E+03  0.26202175793E+03  0.28878715838E+03  0.00000000000E+00 0.  1.
         -3    1    6    6    0  502  0.64390332224E+02  0.10240019003E+03 -0.76542569428E+02  0.14314565567E+03  0.00000000000E+00 0.  1.
<mgrwt>
<rscale>  0 0.12716407E+04</rscale>
<asrwt>0</asrwt>
<pdfrwt beam="1">  1        1 0.46438977E-01 0.12716407E+04</pdfrwt>
<pdfrwt beam="2">  1       -1 0.20604377E+00 0.12716407E+04</pdfrwt>
<totfact> 0.11715736E+01</totfact>
</mgrwt>
</event>
<event>
12    1  0.1556559E-007  0.2283395E+04  0.7818608E-02  0.8484497E-01
          2   -1    0    0  501    0  0.00000000000E+00  0.00000000000E+00  0.14223388916E+04  0.14223388916E+04  0.00000000000E+00 0. -1.
         -2   -1    0    0    0  501 -0.00000000000E+00 -0.00000000000E+00 -0.91642929296E+03  0.91642929296E+03  0.00000000000E+00 0.  1.
         23    2    1    2    0    0 -0.39878542000E+03 -0.60696320500E+03 -0.43645703719E+03  0.85254397040E+03  0.94352173997E+02 0.  0.
        254    2    1    2    0    0  0.39878542000E+03  0.60696320500E+03  0.94236663583E+03  0.14862242142E+04  0.89071510317E+03 0.  0.
        -24    2    4    4    0    0  0.31237985072E+03  0.81310211160E+03  0.56784363090E+03  0.10428563967E+04  0.79917833204E+02 0.  0.
         24    2    4    4    0    0  0.86405569274E+02 -0.20613890661E+03  0.37452300493E+03  0.44336781741E+03  0.79676653266E+02 0.  0.
         11    1    3    3    0    0 -0.28555721598E+03 -0.43571880119E+03 -0.36105720160E+03  0.63384233066E+03  0.00000000000E+00 0. -1.
        -11    1    3    3    0    0 -0.11322820401E+03 -0.17124440381E+03 -0.75399835588E+02  0.21870163974E+03  0.00000000000E+00 0.  1.
          4    1    6    6  502    0  0.41873335142E+02 -0.81743173455E+02  0.22942616281E+03  0.24712686374E+03  0.00000000000E+00 0. -1.
          3    1    5    5  503    0  0.31004608389E+03  0.77823402201E+03  0.52977634993E+03  0.99118098655E+03  0.00000000000E+00 0. -1.
         -4    1    5    5    0  503  0.23337668322E+01  0.34868089589E+02  0.38067280962E+02  0.51675410197E+02  0.00000000000E+00 0.  1.
         -3    1    6    6    0  502  0.44532234132E+02 -0.12439573315E+03  0.14509684212E+03  0.19624095367E+03  0.00000000000E+00 0.  1.
<mgrwt>
<rscale>  0 0.22833949E+04</rscale>
<asrwt>0</asrwt>
<pdfrwt beam="1">  1        2 0.21882137E+00 0.22833949E+04</pdfrwt>
<pdfrwt beam="2">  1       -2 0.14098912E+00 0.22833949E+04</pdfrwt>
<totfact> 0.44990615E+00</totfact>
</mgrwt>
</event>
<event>
12    1  0.1556559E-007  0.1308162E+04  0.7818608E-02  0.9023118E-01
          2   -1    0    0  501    0  0.00000000000E+00  0.00000000000E+00  0.20318840843E+04  0.20318840843E+04  0.00000000000E+00 0. -1.
         -2   -1    0    0    0  501 -0.00000000000E+00 -0.00000000000E+00 -0.21055419247E+03  0.21055419247E+03  0.00000000000E+00 0.  1.
         23    2    1    2    0    0  0.10216678081E+03 -0.50443805036E+02 -0.54758207477E+02  0.15550421284E+03  0.90556448463E+02 0.  0.
        254    2    1    2    0    0 -0.10216678081E+03  0.50443805036E+02  0.18760880994E+04  0.20869340640E+04  0.90697552464E+03 0.  0.
        -24    2    4    4    0    0 -0.18416737812E+03  0.43865945335E+03  0.76602003295E+03  0.90570430174E+03  0.84698595839E+02 0.  0.
         24    2    4    4    0    0  0.82000597314E+02 -0.38821564832E+03  0.11100680664E+04  0.11812297622E+04  0.74947659017E+02 0.  0.
         11    1    3    3    0    0  0.54457293088E+02 -0.69658468864E+02 -0.54888911399E+02  0.10407060896E+03  0.00000000000E+00 0.  1.
        -11    1    3    3    0    0  0.47709487722E+02  0.19214663829E+02  0.13070392199E+00  0.51433603882E+02  0.00000000000E+00 0. -1.
          2    1    6    6  502    0  0.41580963620E+02 -0.17014825444E+03  0.59971791924E+03  0.62477274883E+03  0.00000000000E+00 0. -1.
          1    1    5    5  503    0 -0.11621389607E+03  0.16976665575E+03  0.31502511267E+03  0.37625418091E+03  0.00000000000E+00 0. -1.
         -2    1    5    5    0  503 -0.67953482050E+02  0.26889279760E+03  0.45099492029E+03  0.52945012083E+03  0.00000000000E+00 0.  1.
         -1    1    6    6    0  502  0.40419633694E+02 -0.21806739388E+03  0.51035014716E+03  0.55645701341E+03  0.00000000000E+00 0.  1.
<mgrwt>
<rscale>  0 0.13081616E+04</rscale>
<asrwt>0</asrwt>
<pdfrwt beam="1">  1        2 0.31259754E+00 0.13081616E+04</pdfrwt>
<pdfrwt beam="2">  1       -2 0.32392954E-01 0.13081616E+04</pdfrwt>
<totfact> 0.55830009E+01</totfact>
</mgrwt>
</event>
<event>
12    1  0.1556559E-007  0.1504474E+04  0.7818608E-02  0.8881483E-01
         -4   -1    0    0    0  501 -0.00000000000E+00  0.00000000000E+00  0.78748680927E+03  0.78748680927E+03  0.00000000000E+00 0.  1.
          4   -1    0    0  501    0  0.00000000000E+00 -0.00000000000E+00 -0.71856473416E+03  0.71856473416E+03  0.00000000000E+00 0. -1.
         23    2    1    2    0    0 -0.12208164689E+03 -0.42513314437E+03  0.20253150245E+03  0.49516587158E+03  0.92347777178E+02 0.  0.
        254    2    1    2    0    0  0.12208164689E+03  0.42513314437E+03 -0.13360942734E+03  0.10108856719E+04  0.89910858273E+03 0.  0.
        -24    2    4    4    0    0  0.13597847404E+03  0.40688999596E+03 -0.48318596376E+03  0.65105331762E+03  0.79700267218E+02 0.  0.
         24    2    4    4    0    0 -0.13896827150E+02  0.18243148401E+02  0.34957653642E+03  0.35983235423E+03  0.82156156621E+02 0.  0.
         11    1    3    3    0    0 -0.58779188438E+02 -0.22004419705E+03  0.53780277129E+02  0.23402299002E+03  0.00000000000E+00 0. -1.
        -11    1    3    3    0    0 -0.63302458452E+02 -0.20508894732E+03  0.14875122532E+03  0.26114288157E+03  0.00000000000E+00 0.  1.
          4    1    6    6  502    0 -0.28862353804E+02  0.18640531313E+02  0.34069944978E+03  0.34242753971E+03  0.00000000000E+00 0. -1.
          1    1    5    5  503    0  0.11090748454E+03  0.26726699887E+03 -0.36914052644E+03  0.46903821494E+03  0.00000000000E+00 0. -1.
         -2    1    5    5    0  503  0.25070989504E+02  0.13962299709E+03 -0.11404543732E+03  0.18201510268E+03  0.00000000000E+00 0.  1.
         -3    1    6    6    0  502  0.14965526655E+02 -0.39738291146E+00  0.88770866367E+01  0.17404814517E+02  0.00000000000E+00 0.  1.
<mgrwt>
<rscale>  0 0.15044737E+04</rscale>
<asrwt>0</asrwt>
<pdfrwt beam="1">  1        4 0.11054842E+00 0.15044737E+04</pdfrwt>
<pdfrwt beam="2">  1       -4 0.12115182E+00 0.15044737E+04</pdfrwt>
<totfact> 0.64681322E-01</totfact>
</mgrwt>
</event>
<event>
12    1  0.1556559E-007  0.1942091E+04  0.7818608E-02  0.8634184E-01
         -1   -1    0    0    0  501 -0.00000000000E+00  0.00000000000E+00  0.21364328857E+04  0.21364328857E+04  0.00000000000E+00 0.  1.
          1   -1    0    0  501    0  0.00000000000E+00 -0.00000000000E+00 -0.44135704288E+03  0.44135704288E+03  0.00000000000E+00 0. -1.
         23    2    1    2    0    0 -0.10509301675E+03  0.56677746553E+03  0.90375252502E+01  0.58349405938E+03  0.90013348260E+02 0.  0.
        254    2    1    2    0    0  0.10509301675E+03 -0.56677746553E+03  0.16860383176E+04  0.19942958692E+04  0.89566152534E+03 0.  0.
        -24    2    4    4    0    0  0.44358177879E+03 -0.53028441913E+03  0.12862763232E+04  0.14626128907E+04  0.82239458832E+02 0.  0.
         24    2    4    4    0    0 -0.33848876204E+03 -0.36493046396E+02  0.39976199438E+03  0.53168297856E+03  0.83491035944E+02 0.  0.
         13    1    3    3    0    0 -0.11875847645E+03  0.53786960224E+03  0.23606445827E+01  0.55082924522E+03  0.00000000000E+00 0. -1.
        -13    1    3    3    0    0  0.13665459700E+02  0.28907863292E+02  0.66768806676E+01  0.32664814164E+02  0.00000000000E+00 0.  1.
          2    1    6    6  502    0 -0.34202415795E+03 -0.33817268679E+02  0.38416323146E+03  0.51546631383E+03  0.00000000000E+00 0. -1.
          3    1    5    5  503    0  0.43536398860E+03 -0.50982881364E+03  0.12664880138E+04  0.14329895711E+04  0.00000000000E+00 0. -1.
         -4    1    5    5    0  503  0.82177901935E+01 -0.20455605494E+02  0.19788309416E+02  0.29623319553E+02  0.00000000000E+00 0.  1.
         -1    1    6    6    0  502  0.35353959124E+01 -0.26757777178E+01  0.15598762917E+02  0.16216664737E+02  0.00000000000E+00 0.  1.
<mgrwt>
<rscale>  0 0.19420913E+04</rscale>
<asrwt>0</asrwt>
<pdfrwt beam="1">  1        1 0.67901084E-01 0.19420913E+04</pdfrwt>
<pdfrwt beam="2">  1       -1 0.32868198E+00 0.19420913E+04</pdfrwt>
<totfact> 0.10538559E+00</totfact>
</mgrwt>
</event>
<event>
12    1  0.1556559E-007  0.1180297E+04  0.7818608E-02  0.9130280E-01
         -2   -1    0    0    0  501 -0.00000000000E+00  0.00000000000E+00  0.56557496623E+03  0.56557496623E+03  0.00000000000E+00 0.  1.
          2   -1    0    0  501    0  0.00000000000E+00 -0.00000000000E+00 -0.61578953248E+03  0.61578953248E+03  0.00000000000E+00 0. -1.
         23    2    1    2    0    0  0.10970886512E+03 -0.12723318158E+02 -0.21353277348E+03  0.25704700529E+03  0.90989008486E+02 0.  0.
        254    2    1    2    0    0 -0.10970886512E+03  0.12723318158E+02  0.16331820724E+03  0.92431749343E+03  0.90304599768E+03 0.  0.
        -24    2    4    4    0    0  0.35820829903E+03  0.13202587434E+03  0.19119156873E+03  0.43458389006E+03  0.81024222006E+02 0.  0.
         24    2    4    4    0    0 -0.46791716415E+03 -0.11930255618E+03 -0.27873361493E+02  0.48973360337E+03  0.76697493909E+02 0.  0.
         11    1    3    3    0    0  0.58683460469E+02  0.31731695844E+02 -0.15024642456E+03  0.16439171861E+03  0.00000000000E+00 0. -1.
        -11    1    3    3    0    0  0.51025404648E+02 -0.44455014003E+02 -0.63286348921E+02  0.92655286677E+02  0.00000000000E+00 0.  1.
          2    1    6    6  502    0 -0.23496743316E+03 -0.90490512679E+02 -0.38763155526E+02  0.25475637334E+03  0.00000000000E+00 0. -1.
          1    1    5    5  503    0  0.10544690869E+03  0.10048244660E+02  0.26549228142E+02  0.10920109564E+03  0.00000000000E+00 0. -1.
         -2    1    5    5    0  503  0.25276139034E+03  0.12197762968E+03  0.16464234059E+03  0.32538279442E+03  0.00000000000E+00 0.  1.
         -3    1    6    6    0  502 -0.23294973099E+03 -0.28812043505E+02  0.10889794033E+02  0.23497723003E+03  0.00000000000E+00 0.  1.
<mgrwt>
<rscale>  0 0.11802968E+04</rscale>
<asrwt>0</asrwt>
<pdfrwt beam="1">  1        2 0.94736850E-01 0.11802968E+04</pdfrwt>
<pdfrwt beam="2">  1       -2 0.87011534E-01 0.11802968E+04</pdfrwt>
<totfact> 0.54253453E+01</totfact>
</mgrwt>
</event>
<event>
12    1  0.1556559E-007  0.1766107E+04  0.7818608E-02  0.8724534E-01
          3   -1    0    0  501    0  0.00000000000E+00  0.00000000000E+00  0.52822221940E+03  0.52822221940E+03  0.00000000000E+00 0. -1.
         -3   -1    0    0    0  501 -0.00000000000E+00 -0.00000000000E+00 -0.14762410207E+04  0.14762410207E+04  0.00000000000E+00 0.  1.
         23    2    1    2    0    0 -0.30992188431E+02 -0.48210191387E+03  0.14307135517E+03  0.51205403505E+03  0.91362744235E+02 0.  0.
        254    2    1    2    0    0  0.30992188431E+02  0.48210191387E+03 -0.10910901565E+04  0.14924092051E+04  0.89633963135E+03 0.  0.
        -24    2    4    4    0    0 -0.28063015133E+03  0.28653471220E+03 -0.10328260950E+04  0.11113359767E+04  0.86501373610E+02 0.  0.
         24    2    4    4    0    0  0.31162233976E+03  0.19556720168E+03 -0.58264061552E+02  0.38107322836E+03  0.80418228657E+02 0.  0.
         13    1    3    3    0    0  0.14510248173E+02 -0.24671214879E+02 -0.51060799110E+01  0.29073840437E+02  0.00000000000E+00 0.  1.
        -13    1    3    3    0    0 -0.45502436605E+02 -0.45743069899E+03  0.14817743508E+03  0.48298019461E+03  0.00000000000E+00 0. -1.
          2    1    6    6  502    0  0.16791865317E+03  0.59444347745E+02 -0.37625055042E+02  0.18206029036E+03  0.00000000000E+00 0. -1.
          3    1    5    5  503    0 -0.24092546127E+03  0.22723416266E+03 -0.75409489866E+03  0.82361371938E+03  0.00000000000E+00 0. -1.
         -4    1    5    5    0  503 -0.39704690056E+02  0.59300549531E+02 -0.27873119630E+03  0.28772225736E+03  0.00000000000E+00 0.  1.
         -1    1    6    6    0  502  0.14370368659E+03  0.13612285393E+03 -0.20639006510E+02  0.19901293800E+03  0.00000000000E+00 0.  1.
<mgrwt>
<rscale>  0 0.17661068E+04</rscale>
<asrwt>0</asrwt>
<pdfrwt beam="1">  1        3 0.81264957E-01 0.17661068E+04</pdfrwt>
<pdfrwt beam="2">  1       -3 0.22711400E+00 0.17661068E+04</pdfrwt>
<totfact> 0.34714570E-01</totfact>
</mgrwt>
</event>
<event>
12    1  0.1556559E-007  0.2682718E+04  0.7818608E-02  0.8340634E-01
          2   -1    0    0  501    0  0.00000000000E+00  0.00000000000E+00  0.95617201928E+03  0.95617201928E+03  0.00000000000E+00 0. -1.
         -2   -1    0    0    0  501 -0.00000000000E+00 -0.00000000000E+00 -0.18817154182E+04  0.18817154182E+04  0.00000000000E+00 0.  1.
         23    2    1    2    0    0 -0.23312321206E+03 -0.11229557732E+04 -0.73811275431E+03  0.13668978866E+04  0.90682378063E+02 0.  0.
        254    2    1    2    0    0  0.23312321206E+03  0.11229557732E+04 -0.18743064464E+03  0.14709895510E+04  0.90183363876E+03 0.  0.
        -24    2    4    4    0    0  0.57008866324E+03  0.73153499477E+03 -0.57274890054E+02  0.93261761466E+03  0.79691088699E+02 0.  0.
         24    2    4    4    0    0 -0.33696545118E+03  0.39142077840E+03 -0.13015575458E+03  0.53837193630E+03  0.78408419797E+02 0.  0.
         11    1    3    3    0    0 -0.14827635925E+03 -0.61106260047E+03 -0.45171230609E+03  0.77422696148E+03  0.00000000000E+00 0. -1.
        -11    1    3    3    0    0 -0.84846852808E+02 -0.51189317270E+03 -0.28640044822E+03  0.59267092507E+03  0.00000000000E+00 0.  1.
          2    1    6    6  502    0  0.39153276194E+01  0.20254182830E+01 -0.33634687939E+01  0.55448202780E+01  0.00000000000E+00 0. -1.
          3    1    5    5  503    0  0.17519902857E+03  0.18109528017E+03  0.75483032560E+01  0.25208565408E+03  0.00000000000E+00 0. -1.
         -4    1    5    5    0  503  0.39488963467E+03  0.55043971461E+03 -0.64823193310E+02  0.68053196058E+03  0.00000000000E+00 0.  1.
         -1    1    6    6    0  502 -0.34088077880E+03  0.38939536011E+03 -0.12679228579E+03  0.53282711602E+03  0.00000000000E+00 0.  1.
<mgrwt>
<rscale>  0 0.26827177E+04</rscale>
<asrwt>0</asrwt>
<pdfrwt beam="1">  1        2 0.14710339E+00 0.26827177E+04</pdfrwt>
<pdfrwt beam="2">  1       -2 0.28949468E+00 0.26827177E+04</pdfrwt>
<totfact> 0.87079063E-01</totfact>
</mgrwt>
</event>
<event>
12    1  0.1556559E-007  0.2188990E+04  0.7818608E-02  0.8523025E-01
         -2   -1    0    0    0  501 -0.00000000000E+00  0.00000000000E+00  0.12976949288E+04  0.12976949288E+04  0.00000000000E+00 0.  1.
          2   -1    0    0  501    0  0.00000000000E+00 -0.00000000000E+00 -0.92311317061E+03  0.92311317061E+03  0.00000000000E+00 0. -1.
         23    2    1    2    0    0  0.37377552835E+03  0.68157952839E+03  0.65039592350E+03  0.10174707543E+04  0.89292102233E+02 0.  0.
        254    2    1    2    0    0 -0.37377552835E+03 -0.68157952839E+03 -0.27581416529E+03  0.12033373451E+04  0.87617835696E+03 0.  0.
        -24    2    4    4    0    0  0.24283309655E+03 -0.14583050424E+03  0.86173909067E+02  0.30659668032E+03  0.79631231523E+02 0.  0.
         24    2    4    4    0    0 -0.61660862490E+03 -0.53574902415E+03 -0.36198807436E+03  0.89674066477E+03  0.76650118747E+02 0.  0.
         11    1    3    3    0    0  0.69825774062E+02  0.13800610041E+03  0.85851976126E+02  0.17689512225E+03  0.00000000000E+00 0. -1.
        -11    1    3    3    0    0  0.30394975429E+03  0.54357342798E+03  0.56454394737E+03  0.84057563209E+03  0.00000000000E+00 0.  1.
          2    1    6    6  502    0 -0.12806866596E+03 -0.97326222727E+02 -0.10341674581E+03  0.19123022811E+03  0.00000000000E+00 0. -1.
          1    1    5    5  503    0 -0.39779080989E+01  0.30870463041E+01 -0.15814187973E+01  0.52777356072E+01  0.00000000000E+00 0. -1.
         -2    1    5    5    0  503  0.24681100464E+03 -0.14891755054E+03  0.87755327864E+02  0.30131894471E+03  0.00000000000E+00 0.  1.
         -3    1    6    6    0  502 -0.48853995894E+03 -0.43842280143E+03 -0.25857132855E+03  0.70551043666E+03  0.00000000000E+00 0.  1.
<mgrwt>
<rscale>  0 0.21889900E+04</rscale>
<asrwt>0</asrwt>
<pdfrwt beam="1">  1        2 0.14201741E+00 0.21889900E+04</pdfrwt>
<pdfrwt beam="2">  1       -2 0.19964537E+00 0.21889900E+04</pdfrwt>
<totfact> 0.34595963E+00</totfact>
</mgrwt>
</event>
<event>
12    1  0.1556559E-007  0.1446171E+04  0.7818608E-02  0.8921059E-01
         -2   -1    0    0    0  501 -0.00000000000E+00  0.00000000000E+00  0.49214756836E+03  0.49214756836E+03  0.00000000000E+00 0.  1.
          2   -1    0    0  501    0  0.00000000000E+00 -0.00000000000E+00 -0.10623903157E+04  0.10623903157E+04  0.00000000000E+00 0. -1.
         23    2    1    2    0    0 -0.16258231051E+03 -0.22163453142E+03  0.18733792535E+03  0.34482073210E+03  0.90834827048E+02 0.  0.
        254    2    1    2    0    0  0.16258231051E+03  0.22163453142E+03 -0.75758067272E+03  0.12097171520E+04  0.90218193228E+03 0.  0.
        -24    2    4    4    0    0 -0.31632132839E+03  0.88186232942E+02 -0.52923525388E+02  0.34361533201E+03  0.86224140352E+02 0.  0.
         24    2    4    4    0    0  0.47890363890E+03  0.13344829848E+03 -0.70465714734E+03  0.86610181998E+03  0.80209248622E+02 0.  0.
         13    1    3    3    0    0 -0.96200169812E+02 -0.15281124106E+03  0.70506070568E+02  0.19384750205E+03  0.00000000000E+00 0.  1.
        -13    1    3    3    0    0 -0.66382140700E+02 -0.68823290364E+02  0.11683185478E+03  0.15097323005E+03  0.00000000000E+00 0. -1.
          4    1    6    6  502    0  0.45874536785E+03  0.11426290045E+03 -0.68383989580E+03  0.83134849855E+03  0.00000000000E+00 0. -1.
          3    1    5    5  503    0 -0.31502660566E+03  0.88137088971E+02 -0.63271616597E+02  0.33318644359E+03  0.00000000000E+00 0. -1.
         -4    1    5    5    0  503 -0.12947227316E+01  0.49143970580E-01  0.10348091208E+02  0.10428888423E+02  0.00000000000E+00 0.  1.
         -3    1    6    6    0  502  0.20158271053E+02  0.19185398034E+02 -0.20817251533E+02  0.34753321438E+02  0.00000000000E+00 0.  1.
<mgrwt>
<rscale>  0 0.14461712E+04</rscale>
<asrwt>0</asrwt>
<pdfrwt beam="1">  1        2 0.16344466E+00 0.14461712E+04</pdfrwt>
<pdfrwt beam="2">  1       -2 0.75715012E-01 0.14461712E+04</pdfrwt>
<totfact> 0.34879297E+01</totfact>
</mgrwt>
</event>
<event>
12    1  0.1556559E-007  0.1419629E+04  0.7818608E-02  0.8939732E-01
         -2   -1    0    0    0  501 -0.00000000000E+00  0.00000000000E+00  0.23739772921E+03  0.23739772921E+03  0.00000000000E+00 0.  1.
          2   -1    0    0  501    0  0.00000000000E+00 -0.00000000000E+00 -0.21223299569E+04  0.21223299569E+04  0.00000000000E+00 0. -1.
         23    2    1    2    0    0  0.17505127133E+03  0.16403501546E+02  0.62485919285E+02  0.20756369280E+03  0.90918501962E+02 0.  0.
        254    2    1    2    0    0 -0.17505127133E+03 -0.16403501546E+02 -0.19474181470E+04  0.21521639933E+04  0.89914425566E+03 0.  0.
        -24    2    4    4    0    0  0.16526850077E+03 -0.34076263259E+03 -0.52347469596E+03  0.65074077608E+03  0.77491620417E+02 0.  0.
         24    2    4    4    0    0 -0.34031977210E+03  0.32435913104E+03 -0.14239434510E+04  0.15014232173E+04  0.75035540772E+02 0.  0.
         11    1    3    3    0    0 -0.15192951863E+01 -0.15963246810E+02 -0.33092225388E+01  0.16373284960E+02  0.00000000000E+00 0. -1.
        -11    1    3    3    0    0  0.17657056652E+03  0.32366748356E+02  0.65795141824E+02  0.19119040784E+03  0.00000000000E+00 0.  1.
          4    1    6    6  502    0 -0.11659410932E+02 -0.16768630357E+01 -0.57311490234E+02  0.58509491929E+02  0.00000000000E+00 0. -1.
          3    1    5    5  503    0  0.73662616195E+02 -0.23574556692E+03 -0.32380619313E+03  0.40725005102E+03  0.00000000000E+00 0. -1.
         -4    1    5    5    0  503  0.91605884571E+02 -0.10501706567E+03 -0.19966850283E+03  0.24349072507E+03  0.00000000000E+00 0.  1.
         -3    1    6    6    0  502 -0.32866036117E+03  0.32603599407E+03 -0.13666319608E+04  0.14429137253E+04  0.00000000000E+00 0.  1.
<mgrwt>
<rscale>  0 0.14196286E+04</rscale>
<asrwt>0</asrwt>
<pdfrwt beam="1">  1        2 0.32651229E+00 0.14196286E+04</pdfrwt>
<pdfrwt beam="2">  1       -2 0.36522729E-01 0.14196286E+04</pdfrwt>
<totfact> 0.39209072E+01</totfact>
</mgrwt>
</event>
<event>
12    1  0.1556559E-007  0.1401220E+04  0.7818608E-02  0.8952936E-01
         -1   -1    0    0    0  501 -0.00000000000E+00  0.00000000000E+00  0.10761995637E+04  0.10761995637E+04  0.00000000000E+00 0.  1.
          1   -1    0    0  501    0  0.00000000000E+00 -0.00000000000E+00 -0.45609959690E+03  0.45609959690E+03  0.00000000000E+00 0. -1.
         23    2    1    2    0    0 -0.34857446048E+03 -0.63258752227E+01 -0.42127892703E+02  0.35973549217E+03  0.78042897072E+02 0.  0.
        254    2    1    2    0    0  0.34857446048E+03  0.63258752227E+01  0.66222785947E+03  0.11725636684E+04  0.90267139501E+03 0.  0.
        -24    2    4    4    0    0  0.32180895986E+03 -0.99894270094E+02  0.86243448662E+03  0.92939896421E+03  0.80307652979E+02 0.  0.
         24    2    4    4    0    0  0.26765500624E+02  0.10622014532E+03 -0.20020662715E+03  0.24316470418E+03  0.83948010748E+02 0.  0.
         11    1    3    3    0    0 -0.10143893957E+03  0.33425254348E+02 -0.17284495121E+02  0.10819362209E+03  0.00000000000E+00 0.  1.
        -11    1    3    3    0    0 -0.24713552091E+03 -0.39751129571E+02 -0.24843397582E+02  0.25154187008E+03  0.00000000000E+00 0. -1.
          4    1    6    6  502    0  0.57694626458E+01  0.75924477643E+02 -0.19034267912E+03  0.20500767912E+03  0.00000000000E+00 0. -1.
          1    1    5    5  503    0  0.32171590659E+03 -0.88259530011E+02  0.81669219035E+03  0.88220009236E+03  0.00000000000E+00 0. -1.
         -2    1    5    5    0  503  0.93053269847E-01 -0.11634740084E+02  0.45742296274E+02  0.47198871852E+02  0.00000000000E+00 0.  1.
         -3    1    6    6    0  502  0.20996037979E+02  0.30295667674E+02 -0.98639480347E+01  0.38157025061E+02  0.00000000000E+00 0.  1.
<mgrwt>
<rscale>  0 0.14012197E+04</rscale>
<asrwt>0</asrwt>
<pdfrwt beam="1">  1        1 0.70169169E-01 0.14012197E+04</pdfrwt>
<pdfrwt beam="2">  1       -1 0.16556916E+00 0.14012197E+04</pdfrwt>
<totfact> 0.13007392E+01</totfact>
</mgrwt>
</event>
<event>
12    1  0.1556559E-007  0.2222642E+04  0.7818608E-02  0.8509063E-01
          1   -1    0    0  501    0  0.00000000000E+00  0.00000000000E+00  0.15411532800E+04  0.15411532800E+04  0.00000000000E+00 0. -1.
         -1   -1    0    0    0  501 -0.00000000000E+00 -0.00000000000E+00 -0.80137002561E+03  0.80137002561E+03  0.00000000000E+00 0.  1.
         23    2    1    2    0    0  0.14081141764E+03  0.77214662379E+00 -0.65478275029E+03  0.67581494302E+03  0.90315754940E+02 0.  0.
        254    2    1    2    0    0 -0.14081141764E+03 -0.77214662379E+00  0.13945660047E+04  0.16667083626E+04  0.90181703964E+03 0.  0.
        -24    2    4    4    0    0 -0.39452620333E+03  0.30675226877E+03  0.75280822882E+03  0.90708297915E+03  0.79570234226E+02 0.  0.
         24    2    4    4    0    0  0.25371478569E+03 -0.30752441539E+03  0.64175777584E+03  0.75962538343E+03  0.78963420351E+02 0.  0.
         11    1    3    3    0    0 -0.94028771219E+01  0.11879269843E+02 -0.38053266689E+02  0.40958298987E+02  0.00000000000E+00 0. -1.
        -11    1    3    3    0    0  0.15021429476E+03 -0.11107123219E+02 -0.61672948360E+03  0.63485664404E+03  0.00000000000E+00 0.  1.
          4    1    6    6  502    0  0.32530778573E+02 -0.91716222589E+02  0.14723057448E+03  0.17648501098E+03  0.00000000000E+00 0. -1.
          3    1    5    5  503    0 -0.36403613414E+02  0.21261637419E+02  0.11002951834E+03  0.11782943266E+03  0.00000000000E+00 0. -1.
         -4    1    5    5    0  503 -0.35812258992E+03  0.28549063135E+03  0.64277871048E+03  0.78925354649E+03  0.00000000000E+00 0.  1.
         -3    1    6    6    0  502  0.22118400712E+03 -0.21580819281E+03  0.49452720136E+03  0.58314037245E+03  0.00000000000E+00 0.  1.
<mgrwt>
<rscale>  0 0.22226417E+04</rscale>
<asrwt>0</asrwt>
<pdfrwt beam="1">  1        1 0.23710050E+00 0.22226417E+04</pdfrwt>
<pdfrwt beam="2">  1       -1 0.12328770E+00 0.22226417E+04</pdfrwt>
<totfact> 0.32283781E+00</totfact>
</mgrwt>
</event>
<event>
12    1  0.1556559E-007  0.1644520E+04  0.7818608E-02  0.8793655E-01
         -2   -1    0    0    0  501 -0.00000000000E+00  0.00000000000E+00  0.12246232371E+04  0.12246232371E+04  0.00000000000E+00 0.  1.
          2   -1    0    0  501    0  0.00000000000E+00 -0.00000000000E+00 -0.55209739879E+03  0.55209739879E+03  0.00000000000E+00 0. -1.
         23    2    1    2    0    0 -0.42548734570E+03  0.23593686625E+03  0.56446498471E+03  0.75082451763E+03  0.91711782834E+02 0.  0.
        254    2    1    2    0    0  0.42548734570E+03 -0.23593686625E+03  0.10806085365E+03  0.10258961183E+04  0.89670508598E+03 0.  0.
        -24    2    4    4    0    0  0.98461759721E+02 -0.33028611665E+02  0.47183262530E+03  0.49041242524E+03  0.84218247508E+02 0.  0.
         24    2    4    4    0    0  0.32702558598E+03 -0.20290825459E+03 -0.36377177166E+03  0.53548369305E+03  0.79343493787E+02 0.  0.
         11    1    3    3    0    0 -0.27650439708E+03  0.13484449299E+03  0.29132498335E+03  0.42368380288E+03  0.00000000000E+00 0.  1.
        -11    1    3    3    0    0 -0.14898294862E+03  0.10109237326E+03  0.27314000135E+03  0.32714071475E+03  0.00000000000E+00 0. -1.
          4    1    6    6  502    0  0.77055564162E+02 -0.59287681964E+02 -0.49814830139E+02  0.10924333619E+03  0.00000000000E+00 0. -1.
          1    1    5    5  503    0  0.41390729968E+02  0.20297757888E+02  0.95307836941E+02  0.10587150365E+03  0.00000000000E+00 0. -1.
         -2    1    5    5    0  503  0.57071029753E+02 -0.53326369552E+02  0.37652478836E+03  0.38454092159E+03  0.00000000000E+00 0.  1.
         -3    1    6    6    0  502  0.24997002182E+03 -0.14362057262E+03 -0.31395694152E+03  0.42624035686E+03  0.00000000000E+00 0.  1.
<mgrwt>
<rscale>  0 0.16445198E+04</rscale>
<asrwt>0</asrwt>
<pdfrwt beam="1">  1        2 0.84938062E-01 0.16445198E+04</pdfrwt>
<pdfrwt beam="2">  1       -2 0.18840357E+00 0.16445198E+04</pdfrwt>
<totfact> 0.83130564E+00</totfact>
</mgrwt>
</event>
<event>
12    1  0.1556559E-007  0.2487357E+04  0.7818608E-02  0.8407503E-01
         -2   -1    0    0    0  501 -0.00000000000E+00  0.00000000000E+00  0.14696682549E+04  0.14696682549E+04  0.00000000000E+00 0.  1.
          2   -1    0    0  501    0  0.00000000000E+00 -0.00000000000E+00 -0.10524392374E+04  0.10524392374E+04  0.00000000000E+00 0. -1.
         23    2    1    2    0    0 -0.47798624783E+03  0.97239315725E+03  0.21760789394E+03  0.11089185552E+04  0.91257115966E+02 0.  0.
        254    2    1    2    0    0  0.47798624783E+03 -0.97239315725E+03  0.19962112354E+03  0.14131889371E+04  0.88500569129E+03 0.  0.
        -24    2    4    4    0    0  0.45840634938E+02  0.26441431003E+02  0.30257470266E+03  0.31723021750E+03  0.79265674296E+02 0.  0.
         24    2    4    4    0    0  0.43214561290E+03 -0.99883458825E+03 -0.10295357913E+03  0.10959587196E+04  0.78139043926E+02 0.  0.
         11    1    3    3    0    0 -0.20418674094E+03  0.44887438040E+03  0.55234341832E+02  0.49621695565E+03  0.00000000000E+00 0. -1.
        -11    1    3    3    0    0 -0.27379950689E+03  0.52351877685E+03  0.16237355211E+03  0.61270159957E+03  0.00000000000E+00 0.  1.
          4    1    6    6  502    0  0.40895207377E+03 -0.90511397653E+03 -0.10925988848E+03  0.99920510026E+03  0.00000000000E+00 0. -1.
          1    1    5    5  503    0  0.36812557041E+02  0.54534362899E+02  0.20764833613E+03  0.21782330589E+03  0.00000000000E+00 0. -1.
         -2    1    5    5    0  503  0.90280778973E+01 -0.28092931896E+02  0.94926366532E+02  0.99406911611E+02  0.00000000000E+00 0.  1.
         -3    1    6    6    0  502  0.23193539125E+02 -0.93720611727E+02  0.63063093511E+01  0.96753619350E+02  0.00000000000E+00 0.  1.
<mgrwt>
<rscale>  0 0.24873573E+04</rscale>
<asrwt>0</asrwt>
<pdfrwt beam="1">  1        2 0.16191373E+00 0.24873573E+04</pdfrwt>
<pdfrwt beam="2">  1       -2 0.22610281E+00 0.24873573E+04</pdfrwt>
<totfact> 0.18833561E+00</totfact>
</mgrwt>
</event>
<event>
12    1  0.1556559E-007  0.1852335E+04  0.7818608E-02  0.8678953E-01
          1   -1    0    0  501    0  0.00000000000E+00  0.00000000000E+00  0.18896266916E+04  0.18896266916E+04  0.00000000000E+00 0. -1.
         -1   -1    0    0    0  501 -0.00000000000E+00 -0.00000000000E+00 -0.45394477256E+03  0.45394477256E+03  0.00000000000E+00 0.  1.
         23    2    1    2    0    0 -0.53378077440E+03 -0.45786327316E+03  0.47012453426E+03  0.84957790149E+03  0.78770812881E+02 0.  0.
        254    2    1    2    0    0  0.53378077440E+03  0.45786327316E+03  0.96555738480E+03  0.14939935627E+04  0.89730430175E+03 0.  0.
        -24    2    4    4    0    0  0.20019201283E+03 -0.22981218057E+03  0.51255813946E+03  0.60181636879E+03  0.81096332027E+02 0.  0.
         24    2    4    4    0    0  0.33358876158E+03  0.68767545373E+03  0.45299924533E+03  0.89217719389E+03  0.81196289975E+02 0.  0.
         11    1    3    3    0    0 -0.64484090426E+01 -0.90326225717E+01  0.22306096596E+02  0.24914497688E+02  0.00000000000E+00 0. -1.
        -11    1    3    3    0    0 -0.52733236536E+03 -0.44883065059E+03  0.44781843766E+03  0.82466340381E+03  0.00000000000E+00 0.  1.
          2    1    6    6  502    0  0.28672070754E+03  0.52311813775E+03  0.33301210970E+03  0.68319720095E+03  0.00000000000E+00 0. -1.
          1    1    5    5  503    0  0.20672146824E+03 -0.22301738004E+03  0.50596845206E+03  0.59031736524E+03  0.00000000000E+00 0. -1.
         -2    1    5    5    0  503 -0.65294554154E+01 -0.67948005361E+01  0.65896874068E+01  0.11499003542E+02  0.00000000000E+00 0.  1.
         -1    1    6    6    0  502  0.46868054039E+02  0.16455731598E+03  0.11998713563E+03  0.20897999294E+03  0.00000000000E+00 0.  1.
<mgrwt>
<rscale>  0 0.18523349E+04</rscale>
<asrwt>0</asrwt>
<pdfrwt beam="1">  1        1 0.29071179E+00 0.18523349E+04</pdfrwt>
<pdfrwt beam="2">  1       -1 0.69837658E-01 0.18523349E+04</pdfrwt>
<totfact> 0.68959673E+00</totfact>
</mgrwt>
</event>
<event>
12    1  0.1556559E-007  0.1558873E+04  0.7818608E-02  0.8846220E-01
         -2   -1    0    0    0  501 -0.00000000000E+00  0.00000000000E+00  0.18283522520E+03  0.18283522520E+03  0.00000000000E+00 0. -1.
          2   -1    0    0  501    0  0.00000000000E+00 -0.00000000000E+00 -0.33227799167E+04  0.33227799167E+04  0.00000000000E+00 0.  1.
         23    2    1    2    0    0  0.19233645518E+03  0.31272223150E+03 -0.18102442511E+04  0.18493487876E+04  0.91204076012E+02 0.  0.
        254    2    1    2    0    0 -0.19233645518E+03 -0.31272223150E+03 -0.13297004404E+04  0.16562663543E+04  0.91669322521E+03 0.  0.
        -24    2    4    4    0    0  0.22036101224E+02 -0.28504323507E+03  0.10361247993E+02  0.29652523591E+03  0.78004002800E+02 0.  0.
         24    2    4    4    0    0 -0.21437255640E+03 -0.27678996432E+02 -0.13400616884E+04  0.13597411184E+04  0.80055359546E+02 0.  0.
         11    1    3    3    0    0  0.15867332614E+03  0.17552497965E+03 -0.11748357581E+04  0.11984261768E+04  0.00000000000E+00 0.  1.
        -11    1    3    3    0    0  0.33663129036E+02  0.13719725186E+03 -0.63540849299E+03  0.65092261072E+03  0.00000000000E+00 0. -1.
          4    1    6    6  502    0  0.15898722527E+01 -0.74068336337E+01 -0.14197563346E+03  0.14217759800E+03  0.00000000000E+00 0. -1.
          1    1    5    5  503    0  0.10234898484E+02 -0.15373500811E+02 -0.17144204002E+02  0.25199631049E+02  0.00000000000E+00 0. -1.
         -2    1    5    5    0  503  0.11801202740E+02 -0.26966973426E+03  0.27505451995E+02  0.27132560486E+03  0.00000000000E+00 0.  1.
         -3    1    6    6    0  502 -0.21596242865E+03 -0.20272162798E+02 -0.11980860549E+04  0.12175635204E+04  0.00000000000E+00 0.  1.
<mgrwt>
<rscale>  0 0.15588729E+04</rscale>
<asrwt>0</asrwt>
<pdfrwt beam="1">  1        2 0.51119689E+00 0.15588729E+04</pdfrwt>
<pdfrwt beam="2">  1       -2 0.28128497E-01 0.15588729E+04</pdfrwt>
<totfact> 0.12080813E+01</totfact>
</mgrwt>
</event>
<event>
12    1  0.1556559E-007  0.1481567E+04  0.7818608E-02  0.8896804E-01
          2   -1    0    0  501    0  0.00000000000E+00  0.00000000000E+00  0.54267896575E+03  0.54267896575E+03  0.00000000000E+00 0. -1.
         -2   -1    0    0    0  501 -0.00000000000E+00 -0.00000000000E+00 -0.10112057564E+04  0.10112057564E+04  0.00000000000E+00 0.  1.
         23    2    1    2    0    0  0.10193125020E+03 -0.14197263879E+03  0.30210545474E+03  0.35962920847E+03  0.86713619874E+02 0.  0.
        254    2    1    2    0    0 -0.10193125020E+03  0.14197263879E+03 -0.77063224538E+03  0.11942555137E+04  0.89544735434E+03 0.  0.
        -24    2    4    4    0    0 -0.38833293446E+03 -0.39363043562E+02 -0.60018127829E+02  0.40302763185E+03  0.80480924307E+02 0.  0.
         24    2    4    4    0    0  0.28640168426E+03  0.18133568235E+03 -0.71061411755E+03  0.79122788182E+03  0.78489378119E+02 0.  0.
         13    1    3    3    0    0  0.10396640551E+03 -0.14237570979E+03  0.24157093261E+03  0.29905914415E+03  0.00000000000E+00 0. -1.
        -13    1    3    3    0    0 -0.20351553115E+01  0.40307100532E+00  0.60534522126E+02  0.60570064326E+02  0.00000000000E+00 0.  1.
          2    1    6    6  502    0  0.27552265274E+03  0.18328918166E+03 -0.70506322042E+03  0.77885929478E+03  0.00000000000E+00 0. -1.
          1    1    5    5  503    0 -0.32260624358E+03 -0.16558717586E+02 -0.75542155086E+02  0.33174628365E+03  0.00000000000E+00 0. -1.
         -2    1    5    5    0  503 -0.65726690889E+02 -0.22804325976E+02  0.15524027257E+02  0.71281348196E+02  0.00000000000E+00 0.  1.
         -1    1    6    6    0  502  0.10879031522E+02 -0.19534993117E+01 -0.55508971300E+01  0.12368587040E+02  0.00000000000E+00 0.  1.
<mgrwt>
<rscale>  0 0.14815669E+04</rscale>
<asrwt>0</asrwt>
<pdfrwt beam="1">  1        2 0.83489073E-01 0.14815669E+04</pdfrwt>
<pdfrwt beam="2">  1       -2 0.15557011E+00 0.14815669E+04</pdfrwt>
<totfact> 0.14696947E+01</totfact>
</mgrwt>
</event>
<event>
12    1  0.1556559E-007  0.1901986E+04  0.7818608E-02  0.8653868E-01
         -1   -1    0    0    0  501 -0.00000000000E+00  0.00000000000E+00  0.15283338250E+04  0.15283338250E+04  0.00000000000E+00 0.  1.
          1   -1    0    0  501    0  0.00000000000E+00 -0.00000000000E+00 -0.59174754460E+03  0.59174754460E+03  0.00000000000E+00 0. -1.
         23    2    1    2    0    0  0.44676572261E+03  0.43058528864E+03  0.79472293595E+03  0.10123507203E+04  0.90918283569E+02 0.  0.
        254    2    1    2    0    0 -0.44676572261E+03 -0.43058528864E+03  0.14186334449E+03  0.11077306493E+04  0.90660833951E+03 0.  0.
        -24    2    4    4    0    0 -0.31896250853E+03 -0.26225319504E+03 -0.36200436334E+03  0.55519571206E+03  0.81739216170E+02 0.  0.
         24    2    4    4    0    0 -0.12780321408E+03 -0.16833209360E+03  0.50386770783E+03  0.55253493727E+03  0.82114765089E+02 0.  0.
         11    1    3    3    0    0  0.39777734435E+03  0.39263236026E+03  0.75251636425E+03  0.93737285242E+03  0.00000000000E+00 0.  1.
        -11    1    3    3    0    0  0.48988378262E+02  0.37952928377E+02  0.42206571700E+02  0.74977867879E+02  0.00000000000E+00 0. -1.
          2    1    6    6  502    0 -0.13560083318E+03 -0.14818600824E+03  0.41466115332E+03  0.46074998760E+03  0.00000000000E+00 0. -1.
          3    1    5    5  503    0 -0.84355036754E+02 -0.32963870352E+02 -0.10354888959E+03  0.13756729811E+03  0.00000000000E+00 0. -1.
         -4    1    5    5    0  503 -0.23460747178E+03 -0.22928932469E+03 -0.25845547375E+03  0.41762841395E+03  0.00000000000E+00 0.  1.
         -1    1    6    6    0  502  0.77976191029E+01 -0.20146085359E+02  0.89206554509E+02  0.91784949673E+02  0.00000000000E+00 0.  1.
<mgrwt>
<rscale>  0 0.19019861E+04</rscale>
<asrwt>0</asrwt>
<pdfrwt beam="1">  1        1 0.91038084E-01 0.19019861E+04</pdfrwt>
<pdfrwt beam="2">  1       -1 0.23512828E+00 0.19019861E+04</pdfrwt>
<totfact> 0.28530283E+00</totfact>
</mgrwt>
</event>
<event>
12    1  0.1556559E-007  0.2069727E+04  0.7818608E-02  0.8574697E-01
          1   -1    0    0  501    0  0.00000000000E+00  0.00000000000E+00  0.19246044702E+04  0.19246044702E+04  0.00000000000E+00 0. -1.
         -1   -1    0    0    0  501 -0.00000000000E+00 -0.00000000000E+00 -0.55644802058E+03  0.55644802058E+03  0.00000000000E+00 0.  1.
         23    2    1    2    0    0 -0.28226600684E+03  0.88700624957E+02  0.14793432172E+04  0.15112457139E+04  0.88686831226E+02 0.  0.
        254    2    1    2    0    0  0.28226600684E+03 -0.88700624957E+02 -0.11118676757E+03  0.96980677688E+03  0.91685374391E+03 0.  0.
        -24    2    4    4    0    0 -0.23001444437E+03 -0.19882253685E+03  0.18283997186E+03  0.36352943480E+03  0.79285237451E+02 0.  0.
         24    2    4    4    0    0  0.51228045121E+03  0.11012191189E+03 -0.29402673943E+03  0.60627734209E+03  0.81008615941E+02 0.  0.
         11    1    3    3    0    0 -0.15727748130E+03  0.33782213241E+01  0.78329806716E+03  0.79893897172E+03  0.00000000000E+00 0.  1.
        -11    1    3    3    0    0 -0.12498852554E+03  0.85322403633E+02  0.69604515005E+03  0.71230674220E+03  0.00000000000E+00 0. -1.
          2    1    6    6  502    0  0.23921739357E+03  0.26666261620E+02 -0.97747863612E+02  0.25978971446E+03  0.00000000000E+00 0. -1.
          1    1    5    5  503    0 -0.19694096764E+03 -0.16987497750E+03  0.18555990212E+03  0.31949292635E+03  0.00000000000E+00 0. -1.
         -2    1    5    5    0  503 -0.33073476734E+02 -0.28947559350E+02 -0.27199302619E+01  0.44036508447E+02  0.00000000000E+00 0.  1.
         -1    1    6    6    0  502  0.27306305764E+03  0.83455650272E+02 -0.19627887582E+03  0.34648762763E+03  0.00000000000E+00 0.  1.
<mgrwt>
<rscale>  0 0.20697269E+04</rscale>
<asrwt>0</asrwt>
<pdfrwt beam="1">  1        1 0.29609299E+00 0.20697269E+04</pdfrwt>
<pdfrwt beam="2">  1       -1 0.85607389E-01 0.20697269E+04</pdfrwt>
<totfact> 0.41669539E+00</totfact>
</mgrwt>
</event>
<event>
12    1  0.1556559E-007  0.1433121E+04  0.7818608E-02  0.8930187E-01
          1   -1    0    0  501    0  0.00000000000E+00  0.00000000000E+00  0.50181401401E+03  0.50181401401E+03  0.00000000000E+00 0. -1.
         -1   -1    0    0    0  501 -0.00000000000E+00 -0.00000000000E+00 -0.10232055157E+04  0.10232055157E+04  0.00000000000E+00 0.  1.
         23    2    1    2    0    0 -0.28900485520E+03 -0.30204229941E+03 -0.27310439989E+03  0.50780997773E+03  0.92366678429E+02 0.  0.
        254    2    1    2    0    0  0.28900485520E+03  0.30204229941E+03 -0.24828710185E+03  0.10172095520E+04  0.89348499194E+03 0.  0.
        -24    2    4    4    0    0  0.53522114753E+03  0.12343575212E+03 -0.38387347087E+03  0.67438590356E+03  0.75759115710E+02 0.  0.
         24    2    4    4    0    0 -0.24621629233E+03  0.17860654729E+03  0.13558636902E+03  0.34282364847E+03  0.81373393297E+02 0.  0.
         13    1    3    3    0    0 -0.60594635788E+02 -0.97036744814E+02 -0.35868428254E+02  0.11989321864E+03  0.00000000000E+00 0. -1.
        -13    1    3    3    0    0 -0.22841021941E+03 -0.20500555459E+03 -0.23723597164E+03  0.38791675910E+03  0.00000000000E+00 0.  1.
          4    1    6    6  502    0 -0.52538989408E+02  0.29470822511E+02  0.64495843297E+02  0.88252980630E+02  0.00000000000E+00 0. -1.
          1    1    5    5  503    0  0.38325525052E+03  0.80919505392E+02 -0.31299931486E+03  0.50139916684E+03  0.00000000000E+00 0. -1.
         -2    1    5    5    0  503  0.15196589702E+03  0.42516246725E+02 -0.70874156009E+02  0.17298673672E+03  0.00000000000E+00 0.  1.
         -3    1    6    6    0  502 -0.19367730293E+03  0.14913572478E+03  0.71090525726E+02  0.25457066784E+03  0.00000000000E+00 0.  1.
<mgrwt>
<rscale>  0 0.14331209E+04</rscale>
<asrwt>0</asrwt>
<pdfrwt beam="1">  1        1 0.77202157E-01 0.14331209E+04</pdfrwt>
<pdfrwt beam="2">  1       -1 0.15741623E+00 0.14331209E+04</pdfrwt>
<totfact> 0.13114944E+01</totfact>
</mgrwt>
</event>
<event>
12    1  0.1556559E-007  0.1460679E+04  0.7818608E-02  0.8911031E-01
          1   -1    0    0  501    0  0.00000000000E+00  0.00000000000E+00  0.84716774594E+03  0.84716774594E+03  0.00000000000E+00 0.  1.
         -1   -1    0    0    0  501 -0.00000000000E+00 -0.00000000000E+00 -0.62962213107E+03  0.62962213107E+03  0.00000000000E+00 0. -1.
         23    2    1    2    0    0 -0.29031410877E+03  0.16473926204E+03 -0.23185590666E+03  0.41572938755E+03  0.87478317402E+02 0.  0.
        254    2    1    2    0    0  0.29031410877E+03 -0.16473926204E+03  0.44940152153E+03  0.10610604895E+04  0.90136914110E+03 0.  0.
        -24    2    4    4    0    0 -0.22203003014E+02  0.32994642604E+03  0.29603479971E+03  0.45084077986E+03  0.79140310552E+02 0.  0.
         24    2    4    4    0    0  0.31251711178E+03 -0.49468568808E+03  0.15336672183E+03  0.61021970959E+03  0.80410617870E+02 0.  0.
         11    1    3    3    0    0 -0.23441736064E+03  0.15941678840E+03 -0.16345920413E+03  0.32723710488E+03  0.00000000000E+00 0. -1.
        -11    1    3    3    0    0 -0.55896748123E+02  0.53224736449E+01 -0.68396702526E+02  0.88492282674E+02  0.00000000000E+00 0.  1.
          2    1    6    6  502    0  0.91541412418E+02 -0.17375441661E+03  0.87657468551E+02  0.21506803405E+03  0.00000000000E+00 0. -1.
          3    1    5    5  503    0  0.73091397868E+01  0.74822825975E+02  0.29651965868E+02  0.80815332030E+02  0.00000000000E+00 0. -1.
         -4    1    5    5    0  503 -0.29512142801E+02  0.25512360006E+03  0.26638283384E+03  0.37002544783E+03  0.00000000000E+00 0.  1.
         -1    1    6    6    0  502  0.22097569936E+03 -0.32093127147E+03  0.65709253275E+02  0.39515167554E+03  0.00000000000E+00 0.  1.
<mgrwt>
<rscale>  0 0.14606787E+04</rscale>
<asrwt>0</asrwt>
<pdfrwt beam="1">  1        1 0.13033350E+00 0.14606787E+04</pdfrwt>
<pdfrwt beam="2">  1       -1 0.96864943E-01 0.14606787E+04</pdfrwt>
<totfact> 0.20034588E+01</totfact>
</mgrwt>
</event>
<event>
12    1  0.1556559E-007  0.1290213E+04  0.7818608E-02  0.9037363E-01
         -2   -1    0    0    0  501 -0.00000000000E+00  0.00000000000E+00  0.12961810208E+03  0.12961810208E+03  0.00000000000E+00 0.  1.
          2   -1    0    0  501    0  0.00000000000E+00 -0.00000000000E+00 -0.32106792576E+04  0.32106792576E+04  0.00000000000E+00 0. -1.
         23    2    1    2    0    0 -0.30529461236E+03 -0.12423402268E+02 -0.90045754265E+03  0.95600546296E+03  0.98810514703E+02 0.  0.
        254    2    1    2    0    0  0.30529461236E+03  0.12423402268E+02 -0.21806036128E+04  0.23842918967E+04  0.91458000800E+03 0.  0.
        -24    2    4    4    0    0  0.10349469727E+03 -0.78662807891E+02  0.30618084495E+02  0.16057573140E+03  0.89152166027E+02 0.  0.
         24    2    4    4    0    0  0.20179991509E+03  0.91086210160E+02 -0.22112216973E+04  0.22237161653E+04  0.79951770553E+02 0.  0.
         11    1    3    3    0    0 -0.13830526726E+03  0.72757464668E+01 -0.55186119880E+03  0.56897457428E+03  0.00000000000E+00 0. -1.
        -11    1    3    3    0    0 -0.16698934510E+03 -0.19699148735E+02 -0.34859634385E+03  0.38703088867E+03  0.00000000000E+00 0.  1.
          4    1    6    6  502    0  0.58080760221E+02  0.66873263063E+02 -0.73516945282E+03  0.74048601093E+03  0.00000000000E+00 0. -1.
          3    1    5    5  503    0  0.84903007588E+01 -0.20775271804E+01  0.37351731029E+02  0.38360828159E+02  0.00000000000E+00 0. -1.
         -4    1    5    5    0  503  0.95004396509E+02 -0.76585280711E+02 -0.67336465339E+01  0.12221490324E+03  0.00000000000E+00 0.  1.
         -3    1    6    6    0  502  0.14371915487E+03  0.24212947097E+02 -0.14760522445E+04  0.14832301544E+04  0.00000000000E+00 0.  1.
<mgrwt>
<rscale>  0 0.12902126E+04</rscale>
<asrwt>0</asrwt>
<pdfrwt beam="1">  1        2 0.49395066E+00 0.12902126E+04</pdfrwt>
<pdfrwt beam="2">  1       -2 0.19941246E-01 0.12902126E+04</pdfrwt>
<totfact> 0.27308936E+01</totfact>
</mgrwt>
</event>
<event>
12    1  0.1556559E-007  0.1275269E+04  0.7818608E-02  0.9049410E-01
         -2   -1    0    0    0  501 -0.00000000000E+00  0.00000000000E+00  0.79675717422E+03  0.79675717422E+03  0.00000000000E+00 0.  1.
          2   -1    0    0  501    0  0.00000000000E+00 -0.00000000000E+00 -0.51029076025E+03  0.51029076025E+03  0.00000000000E+00 0. -1.
         23    2    1    2    0    0  0.86347123840E+02 -0.16188424973E+03  0.33189469608E+03  0.39022945226E+03  0.91992391089E+02 0.  0.
        254    2    1    2    0    0 -0.86347123840E+02  0.16188424973E+03 -0.45428282117E+02  0.91681848221E+03  0.89712321584E+03 0.  0.
        -24    2    4    4    0    0 -0.23235072259E+03  0.48886978541E+03 -0.53169047345E+02  0.54969251410E+03  0.79714409571E+02 0.  0.
         24    2    4    4    0    0  0.14600359875E+03 -0.32698553567E+03  0.77407652281E+01  0.36712596811E+03  0.80529284296E+02 0.  0.
         11    1    3    3    0    0  0.19032388570E+02  0.93718313561E+01  0.32747148196E+02  0.39018441186E+02  0.00000000000E+00 0. -1.
        -11    1    3    3    0    0  0.67314735270E+02 -0.17125608109E+03  0.29914754789E+03  0.35121101108E+03  0.00000000000E+00 0.  1.
          4    1    6    6  502    0  0.10435458586E+03 -0.27664663379E+03 -0.19551218728E+02  0.29631991113E+03  0.00000000000E+00 0. -1.
          3    1    5    5  503    0 -0.20475090387E+03  0.42390196391E+03 -0.18683281353E+02  0.47113148127E+03  0.00000000000E+00 0. -1.
         -4    1    5    5    0  503 -0.27599818714E+02  0.64967821492E+02 -0.34485765992E+02  0.78561032825E+02  0.00000000000E+00 0.  1.
         -3    1    6    6    0  502  0.41649012889E+02 -0.50338901883E+02  0.27291983956E+02  0.70806056985E+02  0.00000000000E+00 0.  1.
<mgrwt>
<rscale>  0 0.12752691E+04</rscale>
<asrwt>0</asrwt>
<pdfrwt beam="1">  1        2 0.78506271E-01 0.12752691E+04</pdfrwt>
<pdfrwt beam="2">  1       -2 0.12257803E+00 0.12752691E+04</pdfrwt>
<totfact> 0.29721138E+01</totfact>
</mgrwt>
</event>
<event>
12    1  0.1556559E-007  0.2010198E+04  0.7818608E-02  0.8601867E-01
          1   -1    0    0  501    0  0.00000000000E+00  0.00000000000E+00  0.10001294305E+04  0.10001294305E+04  0.00000000000E+00 0. -1.
         -1   -1    0    0    0  501 -0.00000000000E+00 -0.00000000000E+00 -0.10100934652E+04  0.10100934652E+04  0.00000000000E+00 0.  1.
         23    2    1    2    0    0 -0.16438450451E+03  0.50839289136E+03  0.58519476972E+03  0.79787297500E+03  0.93073994336E+02 0.  0.
        254    2    1    2    0    0  0.16438450451E+03 -0.50839289136E+03 -0.59515880442E+03  0.12123499207E+04  0.91109424900E+03 0.  0.
        -24    2    4    4    0    0  0.95056451744E+01  0.25316044484E+03 -0.83313428444E+02  0.27828629445E+03  0.79508277556E+02 0.  0.
         24    2    4    4    0    0  0.15487885933E+03 -0.76155333620E+03 -0.51184537597E+03  0.93406362630E+03  0.80859285938E+02 0.  0.
         11    1    3    3    0    0 -0.14298348852E+03  0.31589798420E+03  0.40708644932E+03  0.53474778319E+03  0.00000000000E+00 0. -1.
        -11    1    3    3    0    0 -0.21401015985E+02  0.19249490716E+03  0.17810832041E+03  0.26312519181E+03  0.00000000000E+00 0.  1.
          4    1    6    6  502    0  0.74919419545E+02 -0.26506287803E+03 -0.22084649292E+03  0.35305016948E+03  0.00000000000E+00 0. -1.
          1    1    5    5  503    0  0.17100962154E+02  0.11437975929E+02 -0.19081149063E+02  0.28059943862E+02  0.00000000000E+00 0. -1.
         -2    1    5    5    0  503 -0.75953169795E+01  0.24172246891E+03 -0.64232279380E+02  0.25022635059E+03  0.00000000000E+00 0.  1.
         -3    1    6    6    0  502  0.79959439787E+02 -0.49649045817E+03 -0.29099888305E+03  0.58101345682E+03  0.00000000000E+00 0.  1.
<mgrwt>
<rscale>  0 0.20101982E+04</rscale>
<asrwt>0</asrwt>
<pdfrwt beam="1">  1        1 0.15386607E+00 0.20101982E+04</pdfrwt>
<pdfrwt beam="2">  1       -1 0.15539899E+00 0.20101982E+04</pdfrwt>
<totfact> 0.44431432E+00</totfact>
</mgrwt>
</event>
<event>
12    1  0.1873521E-007  0.1633803E+04  0.7818608E-02  0.8800046E-01
         -2   -1    0    0    0  501 -0.00000000000E+00  0.00000000000E+00  0.33868857078E+03  0.33868857078E+03  0.00000000000E+00 0.  1.
          2   -1    0    0  501    0  0.00000000000E+00 -0.00000000000E+00 -0.19703296743E+04  0.19703296743E+04  0.00000000000E+00 0. -1.
         23    2    1    2    0    0  0.30586435958E+03 -0.45163773561E+03 -0.39314510448E+03  0.67873281704E+03  0.92658043759E+02 0.  0.
        254    2    1    2    0    0 -0.30586435958E+03  0.45163773561E+03 -0.12384959990E+04  0.16302854280E+04  0.90908117708E+03 0.  0.
        -24    2    4    4    0    0  0.26284938300E+02 -0.82062461503E+02  0.97070676073E+02  0.15199002695E+03  0.79076586743E+02 0.  0.
         24    2    4    4    0    0 -0.33214929788E+03  0.53370019711E+03 -0.13355666751E+04  0.14782954010E+04  0.80373457693E+02 0.  0.
         13    1    3    3    0    0  0.77782533970E+00 -0.87559848795E+00 -0.17154148178E+02  0.17194082840E+02  0.00000000000E+00 0. -1.
        -13    1    3    3    0    0  0.30508653424E+03 -0.45076213712E+03 -0.37599095630E+03  0.66153873420E+03  0.00000000000E+00 0.  1.
          2    1    6    6  502    0 -0.16440231376E+03  0.23472815068E+03 -0.52289091804E+03  0.59627203327E+03  0.00000000000E+00 0. -1.
          1    1    5    5  503    0  0.33002635933E+02 -0.34033061127E+02  0.46710243633E+01  0.47636558406E+02  0.00000000000E+00 0. -1.
         -2    1    5    5    0  503 -0.67176976326E+01 -0.48029400376E+02  0.92399651710E+02  0.10435346855E+03  0.00000000000E+00 0.  1.
         -1    1    6    6    0  502 -0.16774698412E+03  0.29897204643E+03 -0.81267575704E+03  0.88202336778E+03  0.00000000000E+00 0.  1.
<mgrwt>
<rscale>  0 0.16338031E+04</rscale>
<asrwt>0</asrwt>
<pdfrwt beam="1">  1        2 0.30312765E+00 0.16338031E+04</pdfrwt>
<pdfrwt beam="2">  1       -2 0.52105933E-01 0.16338031E+04</pdfrwt>
<totfact> 0.23083776E+01</totfact>
</mgrwt>
</event>
<event>
12    1  0.1556559E-007  0.2573758E+04  0.7818608E-02  0.8377170E-01
          1   -1    0    0  501    0  0.00000000000E+00  0.00000000000E+00  0.19845824661E+04  0.19845824661E+04  0.00000000000E+00 0. -1.
         -1   -1    0    0    0  501 -0.00000000000E+00 -0.00000000000E+00 -0.83446164853E+03  0.83446164853E+03  0.00000000000E+00 0.  1.
         23    2    1    2    0    0 -0.16179087989E+03 -0.40499292780E+03  0.16426194481E+04  0.17019221589E+04  0.90248675597E+02 0.  0.
        254    2    1    2    0    0  0.16179087989E+03  0.40499292780E+03 -0.49249863052E+03  0.11171219557E+04  0.90289036015E+03 0.  0.
        -24    2    4    4    0    0 -0.32468835518E+03  0.87626446059E+02 -0.39090894694E+03  0.52178992694E+03  0.79711987896E+02 0.  0.
         24    2    4    4    0    0  0.48647923507E+03  0.31736648174E+03 -0.10158968357E+03  0.59533202876E+03  0.81952612911E+02 0.  0.
         11    1    3    3    0    0 -0.12937859814E+03 -0.38140515368E+03  0.15387743849E+04  0.15906084750E+04  0.00000000000E+00 0. -1.
        -11    1    3    3    0    0 -0.32412281756E+02 -0.23587774127E+02  0.10384506315E+03  0.11131368396E+03  0.00000000000E+00 0.  1.
          2    1    6    6  502    0  0.20045908453E+02 -0.35746464838E+01 -0.20426651825E+01  0.20464335421E+02  0.00000000000E+00 0. -1.
          1    1    5    5  503    0 -0.84794024926E+02  0.50536384479E+02 -0.15169697723E+03  0.18098598211E+03  0.00000000000E+00 0. -1.
         -2    1    5    5    0  503 -0.23989433025E+03  0.37090061580E+02 -0.23921196971E+03  0.34080394483E+03  0.00000000000E+00 0.  1.
         -1    1    6    6    0  502  0.46643332662E+03  0.32094112823E+03 -0.99547018392E+02  0.57486769334E+03  0.00000000000E+00 0.  1.
<mgrwt>
<rscale>  0 0.25737583E+04</rscale>
<asrwt>0</asrwt>
<pdfrwt beam="1">  1        1 0.30532038E+00 0.25737583E+04</pdfrwt>
<pdfrwt beam="2">  1       -1 0.12837872E+00 0.25737583E+04</pdfrwt>
<totfact> 0.14103790E+00</totfact>
</mgrwt>
</event>
<event>
12    1  0.1556559E-007  0.1649728E+04  0.7818608E-02  0.8790567E-01
         -2   -1    0    0    0  501 -0.00000000000E+00  0.00000000000E+00  0.46884718196E+03  0.46884718196E+03  0.00000000000E+00 0. -1.
          2   -1    0    0  501    0  0.00000000000E+00 -0.00000000000E+00 -0.14512211754E+04  0.14512211754E+04  0.00000000000E+00 0.  1.
         23    2    1    2    0    0  0.21848945337E+03  0.64101853286E+02 -0.94917674962E+03  0.98037020503E+03  0.91337550126E+02 0.  0.
        254    2    1    2    0    0 -0.21848945337E+03 -0.64101853286E+02 -0.33197243808E+02  0.93969815232E+03  0.91108938730E+03 0.  0.
        -24    2    4    4    0    0  0.10866660839E+03  0.24587930603E+03  0.27088342257E+03  0.38988970149E+03  0.79819081615E+02 0.  0.
         24    2    4    4    0    0 -0.32715606176E+03 -0.30998115932E+03 -0.30408066638E+03  0.54980845083E+03  0.81883289250E+02 0.  0.
         11    1    3    3    0    0  0.12116657860E+03  0.82091422188E+02 -0.56975348061E+03  0.58825111137E+03  0.00000000000E+00 0.  1.
        -11    1    3    3    0    0  0.97322874771E+02 -0.17989568902E+02 -0.37942326901E+03  0.39211909365E+03  0.00000000000E+00 0. -1.
          2    1    6    6  502    0 -0.25908409932E+03 -0.24757221623E+03 -0.27887667883E+03  0.45408014135E+03  0.00000000000E+00 0. -1.
          3    1    5    5  503    0  0.47595488300E+02  0.82569191808E+02  0.15004270854E+03  0.17775212046E+03  0.00000000000E+00 0. -1.
         -2    1    5    5    0  503  0.61071120090E+02  0.16331011423E+03  0.12084071403E+03  0.21213758103E+03  0.00000000000E+00 0.  1.
         -1    1    6    6    0  502 -0.68071962436E+02 -0.62408943088E+02 -0.25203987544E+02  0.95728309477E+02  0.00000000000E+00 0.  1.
<mgrwt>
<rscale>  0 0.16497284E+04</rscale>
<asrwt>0</asrwt>
<pdfrwt beam="1">  1        2 0.22326480E+00 0.16497284E+04</pdfrwt>
<pdfrwt beam="2">  1       -2 0.72130334E-01 0.16497284E+04</pdfrwt>
<totfact> 0.22493664E+01</totfact>
</mgrwt>
</event>
<event>
12    1  0.1556559E-007  0.1724584E+04  0.7818608E-02  0.8747466E-01
         -1   -1    0    0    0  501 -0.00000000000E+00  0.00000000000E+00  0.34886455886E+03  0.34886455886E+03  0.00000000000E+00 0.  1.
          1   -1    0    0  501    0  0.00000000000E+00 -0.00000000000E+00 -0.21313360691E+04  0.21313360691E+04  0.00000000000E+00 0. -1.
         23    2    1    2    0    0  0.46203172309E+03  0.23914482149E+03 -0.17681304099E+03  0.55704959798E+03  0.91530565174E+02 0.  0.
        254    2    1    2    0    0 -0.46203172309E+03 -0.23914482149E+03 -0.16056584692E+04  0.19231510300E+04  0.92179564192E+03 0.  0.
        -24    2    4    4    0    0 -0.32344979532E+03  0.83802971878E+02 -0.15124033283E+04  0.15509594112E+04  0.80427356396E+02 0.  0.
         24    2    4    4    0    0 -0.13858192777E+03 -0.32294779337E+03 -0.93255140940E+02  0.37219161874E+03  0.79560365754E+02 0.  0.
         11    1    3    3    0    0  0.27616424837E+02  0.32016581522E+02 -0.36198776455E+02  0.55660397321E+02  0.00000000000E+00 0. -1.
        -11    1    3    3    0    0  0.43441529825E+03  0.20712823997E+03 -0.14061426453E+03  0.50138920066E+03  0.00000000000E+00 0.  1.
          4    1    6    6  502    0 -0.39866820132E+02 -0.12594569697E+03  0.20321648874E+01  0.13212044364E+03  0.00000000000E+00 0. -1.
          1    1    5    5  503    0 -0.17150309222E+03  0.69534786043E+01 -0.68095089348E+03  0.70225051146E+03  0.00000000000E+00 0. -1.
         -2    1    5    5    0  503 -0.15194670310E+03  0.76849493273E+02 -0.83145243481E+03  0.84870889977E+03  0.00000000000E+00 0.  1.
         -3    1    6    6    0  502 -0.98715107637E+02 -0.19700209640E+03 -0.95287305827E+02  0.24007117510E+03  0.00000000000E+00 0.  1.
<mgrwt>
<rscale>  0 0.17245841E+04</rscale>
<asrwt>0</asrwt>
<pdfrwt beam="1">  1        1 0.32789784E+00 0.17245841E+04</pdfrwt>
<pdfrwt beam="2">  1       -1 0.53671473E-01 0.17245841E+04</pdfrwt>
<totfact> 0.80758407E+00</totfact>
</mgrwt>
</event>
<event>
12    1  0.1556559E-007  0.1362730E+04  0.7818608E-02  0.8981247E-01
          1   -1    0    0  501    0  0.00000000000E+00  0.00000000000E+00  0.51331217531E+03  0.51331217531E+03  0.00000000000E+00 0. -1.
         -1   -1    0    0    0  501 -0.00000000000E+00 -0.00000000000E+00 -0.90443665874E+03  0.90443665874E+03  0.00000000000E+00 0.  1.
         23    2    1    2    0    0  0.15912962644E+03  0.24877074206E+02 -0.46557170382E+03  0.50210852403E+03  0.97030158610E+02 0.  0.
        254    2    1    2    0    0 -0.15912962644E+03 -0.24877074206E+02  0.74447220391E+02  0.91564031002E+03  0.89828374240E+03 0.  0.
        -24    2    4    4    0    0 -0.25745964833E+03  0.59948368111E+02  0.43976041839E+03  0.51925524748E+03  0.79733989575E+02 0.  0.
         24    2    4    4    0    0  0.98330021892E+02 -0.84825442317E+02 -0.36531319800E+03  0.39638506254E+03  0.82481733138E+02 0.  0.
         11    1    3    3    0    0  0.97654016202E+02 -0.16832480542E+02 -0.16480354408E+03  0.19230144935E+03  0.00000000000E+00 0.  1.
        -11    1    3    3    0    0  0.61475610240E+02  0.41709554748E+02 -0.30076815973E+03  0.30980707468E+03  0.00000000000E+00 0. -1.
          2    1    6    6  502    0 -0.13393242616E+02 -0.20004681897E+02 -0.45576978643E+02  0.51544419948E+02  0.00000000000E+00 0. -1.
          1    1    5    5  503    0 -0.24395986068E+02 -0.16829744415E+02  0.34379865800E+02  0.45391404536E+02  0.00000000000E+00 0. -1.
         -2    1    5    5    0  503 -0.23306366227E+03  0.76778112525E+02  0.40538055259E+03  0.47386384294E+03  0.00000000000E+00 0.  1.
         -1    1    6    6    0  502  0.11172326451E+03 -0.64820760420E+02 -0.31973621935E+03  0.34484064259E+03  0.00000000000E+00 0.  1.
<mgrwt>
<rscale>  0 0.13627301E+04</rscale>
<asrwt>0</asrwt>
<pdfrwt beam="1">  1        1 0.78971104E-01 0.13627301E+04</pdfrwt>
<pdfrwt beam="2">  1       -1 0.13914410E+00 0.13627301E+04</pdfrwt>
<totfact> 0.17803127E+01</totfact>
</mgrwt>
</event>
<event>
12    1  0.1556559E-007  0.2623323E+04  0.7818608E-02  0.8360322E-01
          2   -1    0    0  501    0  0.00000000000E+00  0.00000000000E+00  0.15136726854E+04  0.15136726854E+04  0.00000000000E+00 0. -1.
         -2   -1    0    0    0  501 -0.00000000000E+00 -0.00000000000E+00 -0.11366103084E+04  0.11366103084E+04  0.00000000000E+00 0.  1.
         23    2    1    2    0    0 -0.10309786624E+04  0.51246881797E+03  0.32231077732E+03  0.11990817945E+04  0.91496562737E+02 0.  0.
        254    2    1    2    0    0  0.10309786624E+04 -0.51246881797E+03  0.54751599663E+02  0.14512011993E+04  0.88172892171E+03 0.  0.
        -24    2    4    4    0    0 -0.61996975083E+02 -0.10092065636E+03  0.22674342516E+03  0.26803487341E+03  0.80009428907E+02 0.  0.
         24    2    4    4    0    0  0.10929756375E+04 -0.41154816161E+03 -0.17199182549E+03  0.11831663258E+04  0.79584754665E+02 0.  0.
         11    1    3    3    0    0 -0.73765251340E+03  0.32713862258E+03  0.20191004924E+03  0.83181643221E+03  0.00000000000E+00 0.  1.
        -11    1    3    3    0    0 -0.29332614897E+03  0.18533019539E+03  0.12040072808E+03  0.36726536226E+03  0.00000000000E+00 0. -1.
          4    1    6    6  502    0  0.30252338687E+03 -0.76937768018E+02 -0.39495409383E+02  0.31464218902E+03  0.00000000000E+00 0. -1.
          1    1    5    5  503    0 -0.10343908036E+02  0.14827907691E+01 -0.33225275762E+01  0.10965139826E+02  0.00000000000E+00 0. -1.
         -2    1    5    5    0  503 -0.51653067047E+02 -0.10240344713E+03  0.23006595273E+03  0.25706973358E+03  0.00000000000E+00 0.  1.
         -1    1    6    6    0  502  0.79045225058E+03 -0.33461039359E+03 -0.13249641611E+03  0.86852413682E+03  0.00000000000E+00 0.  1.
<mgrwt>
<rscale>  0 0.26233231E+04</rscale>
<asrwt>0</asrwt>
<pdfrwt beam="1">  1        2 0.23287272E+00 0.26233231E+04</pdfrwt>
<pdfrwt beam="2">  1       -2 0.17486312E+00 0.26233231E+04</pdfrwt>
<totfact> 0.21682228E+00</totfact>
</mgrwt>
</event>
<event>
12    1  0.1556559E-007  0.1329650E+04  0.7818608E-02  0.9006377E-01
         -2   -1    0    0    0  501 -0.00000000000E+00  0.00000000000E+00  0.44276383302E+03  0.44276383302E+03  0.00000000000E+00 0.  1.
          2   -1    0    0  501    0  0.00000000000E+00 -0.00000000000E+00 -0.99825723670E+03  0.99825723670E+03  0.00000000000E+00 0. -1.
         23    2    1    2    0    0 -0.21613133304E+03  0.29095784611E+02  0.14067309305E+03  0.27507197793E+03  0.91194057518E+02 0.  0.
        254    2    1    2    0    0  0.21613133304E+03 -0.29095784611E+02 -0.69616649673E+03  0.11659490918E+04  0.90952194898E+03 0.  0.
        -24    2    4    4    0    0  0.44198249987E+03  0.24202407482E+03 -0.60795805544E+03  0.79327034164E+03  0.75767108751E+02 0.  0.
         24    2    4    4    0    0 -0.22585116682E+03 -0.27111985943E+03 -0.88208441281E+02  0.37267875015E+03  0.81203411042E+02 0.  0.
         11    1    3    3    0    0 -0.11129976699E+03 -0.25402792165E+02  0.94569536811E+02  0.14824418125E+03  0.00000000000E+00 0.  1.
        -11    1    3    3    0    0 -0.10483156605E+03  0.54498576776E+02  0.46103556238E+02  0.12682779667E+03  0.00000000000E+00 0. -1.
          4    1    6    6  502    0 -0.97244095861E+02 -0.17957264575E+03 -0.48121601117E+02  0.20980571435E+03  0.00000000000E+00 0. -1.
          1    1    5    5  503    0  0.23809471204E+03  0.16347536188E+03 -0.30874648029E+03  0.42277378695E+03  0.00000000000E+00 0. -1.
         -2    1    5    5    0  503  0.20388778783E+03  0.78548712937E+02 -0.29921157516E+03  0.37049655469E+03  0.00000000000E+00 0.  1.
         -3    1    6    6    0  502 -0.12860707096E+03 -0.91547213682E+02 -0.40086840164E+02  0.16287303579E+03  0.00000000000E+00 0.  1.
<mgrwt>
<rscale>  0 0.13296499E+04</rscale>
<asrwt>0</asrwt>
<pdfrwt beam="1">  1        2 0.15357804E+00 0.13296499E+04</pdfrwt>
<pdfrwt beam="2">  1       -2 0.68117513E-01 0.13296499E+04</pdfrwt>
<totfact> 0.48742626E+01</totfact>
</mgrwt>
</event>
<event>
12    1  0.1556559E-007  0.2129233E+04  0.7818608E-02  0.8548474E-01
         -4   -1    0    0    0  501 -0.00000000000E+00  0.00000000000E+00  0.51083570408E+03  0.51083570408E+03  0.00000000000E+00 0.  1.
          4   -1    0    0  501    0  0.00000000000E+00 -0.00000000000E+00 -0.22187341841E+04  0.22187341841E+04  0.00000000000E+00 0. -1.
         23    2    1    2    0    0 -0.22995389352E+03  0.35371499515E+03 -0.16753700199E+04  0.17300471058E+04  0.90582524843E+02 0.  0.
        254    2    1    2    0    0  0.22995389352E+03 -0.35371499515E+03 -0.32528460148E+02  0.99952278240E+03  0.90553553265E+03 0.  0.
        -24    2    4    4    0    0  0.54886903326E+03 -0.20111249329E+03  0.12651529974E+03  0.60320920099E+03  0.78433210161E+02 0.  0.
         24    2    4    4    0    0 -0.31891513974E+03 -0.15260250186E+03 -0.15904375989E+03  0.39631358142E+03  0.82311283094E+02 0.  0.
         13    1    3    3    0    0 -0.80890052809E+02  0.56949952430E+02 -0.35115446270E+03  0.36482318238E+03  0.00000000000E+00 0.  1.
        -13    1    3    3    0    0 -0.14906384072E+03  0.29676504272E+03 -0.13242155572E+04  0.13652239234E+04  0.00000000000E+00 0. -1.
          4    1    6    6  502    0 -0.26710820978E+03 -0.92575245072E+02 -0.13620849635E+03  0.31379886266E+03  0.00000000000E+00 0. -1.
          3    1    5    5  503    0  0.45748094004E+03 -0.15286322326E+03  0.13084237142E+03  0.49977565136E+03  0.00000000000E+00 0. -1.
         -4    1    5    5    0  503  0.91388093219E+02 -0.48249270024E+02 -0.43270716769E+01  0.10343354963E+03  0.00000000000E+00 0.  1.
         -3    1    6    6    0  502 -0.51806929959E+02 -0.60027256791E+02 -0.22835263547E+02  0.82514718753E+02  0.00000000000E+00 0.  1.
<mgrwt>
<rscale>  0 0.21292333E+04</rscale>
<asrwt>0</asrwt>
<pdfrwt beam="1">  1        4 0.34134372E+00 0.21292333E+04</pdfrwt>
<pdfrwt beam="2">  1       -4 0.78590109E-01 0.21292333E+04</pdfrwt>
<totfact> 0.44921472E-02</totfact>
</mgrwt>
</event>
<event>
12    1  0.1556559E-007  0.4351340E+04  0.7818608E-02  0.7937193E-01
          1   -1    0    0  501    0  0.00000000000E+00  0.00000000000E+00  0.30582421642E+04  0.30582421642E+04  0.00000000000E+00 0. -1.
         -1   -1    0    0    0  501 -0.00000000000E+00 -0.00000000000E+00 -0.15477974793E+04  0.15477974793E+04  0.00000000000E+00 0.  1.
         23    2    1    2    0    0  0.39199166603E+03  0.18968736217E+04  0.15257083265E+04  0.24673140115E+04  0.89808298384E+02 0.  0.
        254    2    1    2    0    0 -0.39199166603E+03 -0.18968736217E+04 -0.15263641627E+02  0.21387256321E+04  0.90671238414E+03 0.  0.
        -24    2    4    4    0    0 -0.35676601874E+03 -0.62728185330E+03 -0.37340795710E+03  0.81662127115E+03  0.81684040421E+02 0.  0.
         24    2    4    4    0    0 -0.35225647298E+02 -0.12695917684E+04  0.35814431547E+03  0.13221043609E+04  0.81169488321E+02 0.  0.
         11    1    3    3    0    0  0.17335980957E+03  0.75787091794E+03  0.56058444688E+03  0.95847632935E+03  0.00000000000E+00 0. -1.
        -11    1    3    3    0    0  0.21863185646E+03  0.11390027038E+04  0.96512387966E+03  0.15088376821E+04  0.00000000000E+00 0.  1.
          2    1    6    6  502    0 -0.48897579370E+02 -0.11995777260E+04  0.32732501773E+03  0.12443951789E+04  0.00000000000E+00 0. -1.
          3    1    5    5  503    0 -0.19787655068E+03 -0.35500266975E+03 -0.25538642654E+03  0.48000442883E+03  0.00000000000E+00 0. -1.
         -4    1    5    5    0  503 -0.15888946805E+03 -0.27227918355E+03 -0.11802153056E+03  0.33661684231E+03  0.00000000000E+00 0.  1.
         -1    1    6    6    0  502  0.13671932071E+02 -0.70014042391E+02  0.30819297740E+02  0.77709182030E+02  0.00000000000E+00 0.  1.
<mgrwt>
<rscale>  0 0.43513398E+04</rscale>
<asrwt>0</asrwt>
<pdfrwt beam="1">  1        1 0.47049880E+00 0.43513398E+04</pdfrwt>
<pdfrwt beam="2">  1       -1 0.23812269E+00 0.43513398E+04</pdfrwt>
<totfact> 0.34356063E-02</totfact>
</mgrwt>
</event>
<event>
12    1  0.1556559E-007  0.1258005E+04  0.7818608E-02  0.9063547E-01
         -1   -1    0    0    0  501 -0.00000000000E+00  0.00000000000E+00  0.25535947136E+03  0.25535947136E+03  0.00000000000E+00 0.  1.
          1   -1    0    0  501    0  0.00000000000E+00 -0.00000000000E+00 -0.15493608975E+04  0.15493608975E+04  0.00000000000E+00 0. -1.
         23    2    1    2    0    0  0.95714682211E+02  0.97788568143E+02 -0.63756228789E+03  0.65863036822E+03  0.92651964609E+02 0.  0.
        254    2    1    2    0    0 -0.95714682211E+02 -0.97788568143E+02 -0.65643913822E+03  0.11460900006E+04  0.92945470189E+03 0.  0.
        -24    2    4    4    0    0 -0.89124532374E+01 -0.38589719883E+03 -0.72733827703E+03  0.82726734480E+03  0.79713302866E+02 0.  0.
         24    2    4    4    0    0 -0.86802228973E+02  0.28810863068E+03  0.70899138810E+02  0.31882265581E+03  0.77974277467E+02 0.  0.
         11    1    3    3    0    0  0.32580484634E+02  0.82496929740E+02 -0.48128408263E+03  0.48938900640E+03  0.00000000000E+00 0. -1.
        -11    1    3    3    0    0  0.63134197577E+02  0.15291638403E+02 -0.15627820526E+03  0.16924136181E+03  0.00000000000E+00 0.  1.
          2    1    6    6  502    0  0.29220346602E+01 -0.72375676059E+00 -0.60343696036E+01  0.67435693010E+01  0.00000000000E+00 0. -1.
          1    1    5    5  503    0 -0.37966437113E+02 -0.14579836606E+03 -0.24327386493E+03  0.28614819107E+03  0.00000000000E+00 0. -1.
         -2    1    5    5    0  503  0.29053983876E+02 -0.24009883277E+03 -0.48406441210E+03  0.54111915373E+03  0.00000000000E+00 0.  1.
         -1    1    6    6    0  502 -0.89724263634E+02  0.28883238744E+03  0.76933508414E+02  0.31207908651E+03  0.00000000000E+00 0.  1.
<mgrwt>
<rscale>  0 0.12580047E+04</rscale>
<asrwt>0</asrwt>
<pdfrwt beam="1">  1        1 0.23836321E+00 0.12580047E+04</pdfrwt>
<pdfrwt beam="2">  1       -1 0.39286073E-01 0.12580047E+04</pdfrwt>
<totfact> 0.37511671E+01</totfact>
</mgrwt>
</event>
<event>
12    1  0.1556559E-007  0.1305369E+04  0.7818608E-02  0.9025318E-01
         -2   -1    0    0    0  501 -0.00000000000E+00  0.00000000000E+00  0.15977807662E+03  0.15977807662E+03  0.00000000000E+00 0. -1.
          2   -1    0    0  501    0  0.00000000000E+00 -0.00000000000E+00 -0.26661805041E+04  0.26661805041E+04  0.00000000000E+00 0.  1.
         23    2    1    2    0    0 -0.18585311634E+03  0.90130429991E+02 -0.91783706231E+03  0.94505846598E+03  0.89698137721E+02 0.  0.
        254    2    1    2    0    0  0.18585311634E+03 -0.90130429991E+02 -0.15885653651E+04  0.18809001147E+04  0.98568780397E+03 0.  0.
        -24    2    4    4    0    0  0.11417863917E+03 -0.12013912090E+03 -0.17075868340E+04  0.17174597449E+04  0.79655569259E+02 0.  0.
         24    2    4    4    0    0  0.71674477172E+02  0.30008690905E+02  0.11902146889E+03  0.16344036976E+03  0.80677705741E+02 0.  0.
         11    1    3    3    0    0 -0.20204153762E+02  0.45946950804E+02 -0.14523587988E+03  0.15366454023E+03  0.00000000000E+00 0. -1.
        -11    1    3    3    0    0 -0.16564896258E+03  0.44183479187E+02 -0.77260118243E+03  0.79139392576E+03  0.00000000000E+00 0.  1.
          4    1    6    6  502    0  0.69787516772E+01 -0.29630719313E+01 -0.11678638603E+02  0.13923841778E+02  0.00000000000E+00 0. -1.
          1    1    5    5  503    0  0.72963210171E+02 -0.11389831183E+03 -0.10707256610E+04  0.10792357928E+04  0.00000000000E+00 0. -1.
         -2    1    5    5    0  503  0.41215428995E+02 -0.62408090652E+01 -0.63686117307E+03  0.63822395211E+03  0.00000000000E+00 0.  1.
         -3    1    6    6    0  502  0.64695725494E+02  0.32971762837E+02  0.13070010749E+03  0.14951652799E+03  0.00000000000E+00 0.  1.
<mgrwt>
<rscale>  0 0.13053692E+04</rscale>
<asrwt>0</asrwt>
<pdfrwt beam="1">  1        2 0.41018158E+00 0.13053692E+04</pdfrwt>
<pdfrwt beam="2">  1       -2 0.24581245E-01 0.13053692E+04</pdfrwt>
<totfact> 0.40579529E+01</totfact>
</mgrwt>
</event>
<event>
12    1  0.1556559E-007  0.1143127E+04  0.7818608E-02  0.9164148E-01
          2   -1    0    0  501    0  0.00000000000E+00  0.00000000000E+00  0.13140821925E+04  0.13140821925E+04  0.00000000000E+00 0. -1.
         -2   -1    0    0    0  501 -0.00000000000E+00 -0.00000000000E+00 -0.24860290500E+03  0.24860290500E+03  0.00000000000E+00 0.  1.
         23    2    1    2    0    0  0.20154369534E+03  0.25044228237E+02  0.95518954081E+02  0.24221197508E+03  0.91080710276E+02 0.  0.
        254    2    1    2    0    0 -0.20154369534E+03 -0.25044228237E+02  0.96996033339E+03  0.13204731224E+04  0.87268501999E+03 0.  0.
        -24    2    4    4    0    0 -0.25475519309E+03  0.35378170316E+03  0.27077065800E+03  0.51942875640E+03  0.80173448491E+02 0.  0.
         24    2    4    4    0    0  0.53211497747E+02 -0.37882593140E+03  0.69918967539E+03  0.80104436599E+03  0.80407240455E+02 0.  0.
         13    1    3    3    0    0  0.10225758214E+03  0.42869981969E+02  0.12526540415E+02  0.11158567415E+03  0.00000000000E+00 0.  1.
        -13    1    3    3    0    0  0.99286113200E+02 -0.17825753732E+02  0.82992413666E+02  0.13062630094E+03  0.00000000000E+00 0. -1.
          4    1    6    6  502    0 -0.16106237544E+02 -0.13733880422E+03  0.21668188642E+03  0.25704551724E+03  0.00000000000E+00 0. -1.
          1    1    5    5  503    0 -0.64544394518E+02  0.15205606214E+03  0.85914406807E+02  0.18619428077E+03  0.00000000000E+00 0. -1.
         -2    1    5    5    0  503 -0.19021079857E+03  0.20172564103E+03  0.18485625119E+03  0.33323447563E+03  0.00000000000E+00 0.  1.
         -3    1    6    6    0  502  0.69317735291E+02 -0.24148712718E+03  0.48250778897E+03  0.54399884875E+03  0.00000000000E+00 0.  1.
<mgrwt>
<rscale>  0 0.11431267E+04</rscale>
<asrwt>0</asrwt>
<pdfrwt beam="1">  1        2 0.20216649E+00 0.11431267E+04</pdfrwt>
<pdfrwt beam="2">  1       -2 0.38246601E-01 0.11431267E+04</pdfrwt>
<totfact> 0.10361888E+02</totfact>
</mgrwt>
</event>
<event>
12    1  0.1556559E-007  0.2372258E+04  0.7818608E-02  0.8449963E-01
         -1   -1    0    0    0  501 -0.00000000000E+00  0.00000000000E+00  0.10133430876E+04  0.10133430876E+04  0.00000000000E+00 0.  1.
          1   -1    0    0  501    0  0.00000000000E+00 -0.00000000000E+00 -0.13883766568E+04  0.13883766568E+04  0.00000000000E+00 0. -1.
         23    2    1    2    0    0 -0.35943382326E+02 -0.74015065571E+03  0.51609496377E+03  0.90770902851E+03  0.92014938634E+02 0.  0.
        254    2    1    2    0    0  0.35943382326E+02  0.74015065571E+03 -0.89112853292E+03  0.14940107159E+04  0.94278472466E+03 0.  0.
        -24    2    4    4    0    0  0.16626405129E+03  0.75396263528E+03 -0.10282551366E+04  0.12883447370E+04  0.80125809433E+02 0.  0.
         24    2    4    4    0    0 -0.13032066897E+03 -0.13811979562E+02  0.13712660370E+03  0.20566597883E+03  0.79501835612E+02 0.  0.
         13    1    3    3    0    0 -0.52222316616E+02 -0.51796359204E+03  0.39983360940E+03  0.65641478369E+03  0.00000000000E+00 0. -1.
        -13    1    3    3    0    0  0.16278934289E+02 -0.22218706367E+03  0.11626135437E+03  0.25129424483E+03  0.00000000000E+00 0.  1.
          4    1    6    6  502    0 -0.13663846157E+02  0.18427040356E+02  0.54472321702E+02  0.59105755555E+02  0.00000000000E+00 0. -1.
          1    1    5    5  503    0 -0.28561831993E+01  0.11728894121E+03 -0.16458269175E+03  0.20211955852E+03  0.00000000000E+00 0. -1.
         -2    1    5    5    0  503  0.16912023449E+03  0.63667369407E+03 -0.86367244486E+03  0.10862251785E+04  0.00000000000E+00 0.  1.
         -3    1    6    6    0  502 -0.11665682281E+03 -0.32239019919E+02  0.82654281996E+02  0.14656022327E+03  0.00000000000E+00 0.  1.
<mgrwt>
<rscale>  0 0.23722579E+04</rscale>
<asrwt>0</asrwt>
<pdfrwt beam="1">  1        1 0.21359641E+00 0.23722579E+04</pdfrwt>
<pdfrwt beam="2">  1       -1 0.15589894E+00 0.23722579E+04</pdfrwt>
<totfact> 0.22089475E+00</totfact>
</mgrwt>
</event>
<event>
12    1  0.1556559E-007  0.1120040E+04  0.7818608E-02  0.9185877E-01
         -2   -1    0    0    0  501 -0.00000000000E+00  0.00000000000E+00  0.34541986795E+03  0.34541986795E+03  0.00000000000E+00 0.  1.
          2   -1    0    0  501    0  0.00000000000E+00 -0.00000000000E+00 -0.90794470938E+03  0.90794470938E+03  0.00000000000E+00 0. -1.
         23    2    1    2    0    0  0.11042438588E+03 -0.76112507080E+02  0.33917948465E+02  0.16509661139E+03  0.90109961340E+02 0.  0.
        254    2    1    2    0    0 -0.11042438588E+03  0.76112507080E+02 -0.59644278990E+03  0.10882679659E+04  0.90033133087E+03 0.  0.
        -24    2    4    4    0    0 -0.18454847798E+03 -0.45915453740E+02  0.19298157172E+03  0.28206548413E+03  0.78439025335E+02 0.  0.
         24    2    4    4    0    0  0.74124092097E+02  0.12202796082E+03 -0.78942436161E+03  0.80620248182E+03  0.79915046957E+02 0.  0.
         13    1    3    3    0    0  0.14159791844E+01  0.60651072524E+01  0.27753536523E+02  0.28443792162E+02  0.00000000000E+00 0. -1.
        -13    1    3    3    0    0  0.10900840670E+03 -0.82177614332E+02  0.61644119428E+01  0.13665281923E+03  0.00000000000E+00 0.  1.
          2    1    6    6  502    0  0.77267456282E+02  0.95516799289E+02 -0.47444061075E+03  0.49008939172E+03  0.00000000000E+00 0. -1.
          1    1    5    5  503    0 -0.16329869691E+03 -0.47921369418E+02  0.19701682503E+03  0.26034314165E+03  0.00000000000E+00 0. -1.
         -2    1    5    5    0  503 -0.21249781075E+02  0.20059156779E+01 -0.40352533128E+01  0.21722342478E+02  0.00000000000E+00 0.  1.
         -1    1    6    6    0  502 -0.31433641852E+01  0.26511161531E+02 -0.31498375086E+03  0.31611309010E+03  0.00000000000E+00 0.  1.
<mgrwt>
<rscale>  0 0.11200395E+04</rscale>
<asrwt>0</asrwt>
<pdfrwt beam="1">  1        2 0.13968380E+00 0.11200395E+04</pdfrwt>
<pdfrwt beam="2">  1       -2 0.53141519E-01 0.11200395E+04</pdfrwt>
<totfact> 0.95891686E+01</totfact>
</mgrwt>
</event>
<event>
12    1  0.1556559E-007  0.1568591E+04  0.7818608E-02  0.8840080E-01
         -1   -1    0    0    0  501 -0.00000000000E+00  0.00000000000E+00  0.35172561514E+03  0.35172561514E+03  0.00000000000E+00 0.  1.
          1   -1    0    0  501    0  0.00000000000E+00 -0.00000000000E+00 -0.17488610003E+04  0.17488610003E+04  0.00000000000E+00 0. -1.
         23    2    1    2    0    0 -0.92102829163E+02  0.40978859927E+03 -0.59897790355E+02  0.43366318089E+03  0.89813038788E+02 0.  0.
        254    2    1    2    0    0  0.92102829163E+02 -0.40978859927E+03 -0.13372375948E+04  0.16669234345E+04  0.90223041651E+03 0.  0.
        -24    2    4    4    0    0  0.28817085261E+02 -0.41659211922E+03 -0.11553776695E+03  0.44099787907E+03  0.82162859957E+02 0.  0.
         24    2    4    4    0    0  0.63285743902E+02  0.68035199517E+01 -0.12216998278E+04  0.12259255555E+04  0.79319763945E+02 0.  0.
         11    1    3    3    0    0 -0.25398338907E+02  0.17490216562E+03  0.17286700428E+02  0.17758004721E+03  0.00000000000E+00 0.  1.
        -11    1    3    3    0    0 -0.66704490256E+02  0.23488643365E+03 -0.77184490783E+02  0.25608313367E+03  0.00000000000E+00 0. -1.
          2    1    6    6  502    0  0.13750735281E+02  0.23452472117E+02 -0.86409526721E+03  0.86452283486E+03  0.00000000000E+00 0. -1.
          3    1    5    5  503    0  0.55775941143E+02 -0.28002029890E+03 -0.64389870908E+02  0.29269161054E+03  0.00000000000E+00 0. -1.
         -4    1    5    5    0  503 -0.26958855883E+02 -0.13657182032E+03 -0.51147896041E+02  0.14830626853E+03  0.00000000000E+00 0.  1.
         -1    1    6    6    0  502  0.49535008622E+02 -0.16648952165E+02 -0.35760456061E+03  0.36140272060E+03  0.00000000000E+00 0.  1.
<mgrwt>
<rscale>  0 0.15685907E+04</rscale>
<asrwt>0</asrwt>
<pdfrwt beam="1">  1        1 0.26905554E+00 0.15685907E+04</pdfrwt>
<pdfrwt beam="2">  1       -1 0.54111632E-01 0.15685907E+04</pdfrwt>
<totfact> 0.14643519E+01</totfact>
</mgrwt>
</event>
<event>
12    1  0.1556559E-007  0.1756561E+04  0.7818608E-02  0.8729747E-01
         -1   -1    0    0    0  501 -0.00000000000E+00  0.00000000000E+00  0.17687804940E+04  0.17687804940E+04  0.00000000000E+00 0.  1.
          1   -1    0    0  501    0  0.00000000000E+00 -0.00000000000E+00 -0.43610649605E+03  0.43610649605E+03  0.00000000000E+00 0. -1.
         23    2    1    2    0    0 -0.53378787222E+03  0.68886124324E+02  0.94817049236E+03  0.10949908174E+04  0.10150279276E+03 0.  0.
        254    2    1    2    0    0  0.53378787222E+03 -0.68886124324E+02  0.38450350563E+03  0.11098961727E+04  0.89126414586E+03 0.  0.
        -24    2    4    4    0    0 -0.73749974053E+01 -0.39426297423E+03  0.10573004765E+03  0.41527958530E+03  0.76030306834E+02 0.  0.
         24    2    4    4    0    0  0.54116286962E+03  0.32537684991E+03  0.27877345798E+03  0.69461658740E+03  0.77783138950E+02 0.  0.
         11    1    3    3    0    0 -0.64656881168E+02  0.11279091960E+02  0.60195724155E+02  0.89057595995E+02  0.00000000000E+00 0. -1.
        -11    1    3    3    0    0 -0.46913099105E+03  0.57607032364E+02  0.88797476820E+03  0.10059332214E+04  0.00000000000E+00 0.  1.
          4    1    6    6  502    0  0.20650459088E+03  0.13112243015E+03  0.67562589696E+02  0.25377537562E+03  0.00000000000E+00 0. -1.
          1    1    5    5  503    0 -0.16902010172E+02 -0.20720324486E+02  0.15380973038E+02  0.30847757232E+02  0.00000000000E+00 0. -1.
         -2    1    5    5    0  503  0.95270127668E+01 -0.37354264974E+03  0.90349074614E+02  0.38443182807E+03  0.00000000000E+00 0.  1.
         -3    1    6    6    0  502  0.33465827874E+03  0.19425441976E+03  0.21121086828E+03  0.44084121178E+03  0.00000000000E+00 0.  1.
<mgrwt>
<rscale>  0 0.17565610E+04</rscale>
<asrwt>0</asrwt>
<pdfrwt beam="1">  1        1 0.67093308E-01 0.17565610E+04</pdfrwt>
<pdfrwt beam="2">  1       -1 0.27212007E+00 0.17565610E+04</pdfrwt>
<totfact> 0.25343491E+00</totfact>
</mgrwt>
</event>
<event>
12    1  0.1556559E-007  0.2408015E+04  0.7818608E-02  0.8436509E-01
          2   -1    0    0  501    0  0.00000000000E+00  0.00000000000E+00  0.12612745052E+04  0.12612745052E+04  0.00000000000E+00 0. -1.
         -2   -1    0    0    0  501 -0.00000000000E+00 -0.00000000000E+00 -0.11493410195E+04  0.11493410195E+04  0.00000000000E+00 0.  1.
         23    2    1    2    0    0  0.48103843660E+03  0.90819306971E+03  0.14681614564E+03  0.10421257240E+04  0.90875819870E+02 0.  0.
        254    2    1    2    0    0 -0.48103843660E+03 -0.90819306971E+03 -0.34882659930E+02  0.13684898006E+04  0.90295897199E+03 0.  0.
        -24    2    4    4    0    0 -0.34559224565E+03 -0.90424571231E+02 -0.32240919471E+03  0.48757503448E+03  0.78556489698E+02 0.  0.
         24    2    4    4    0    0 -0.13544619094E+03 -0.81776849848E+03  0.28752653478E+03  0.88091476615E+03  0.79046374133E+02 0.  0.
         11    1    3    3    0    0  0.92551328407E+01  0.48895093953E+02 -0.55174589776E+01  0.50068253916E+02  0.00000000000E+00 0. -1.
        -11    1    3    3    0    0  0.47178330376E+03  0.85929797576E+03  0.15233360462E+03  0.99205747008E+03  0.00000000000E+00 0.  1.
          4    1    6    6  502    0 -0.10937269589E+03 -0.43612866550E+03  0.14002872417E+03  0.47093379903E+03  0.00000000000E+00 0. -1.
          1    1    5    5  503    0 -0.29895258784E+03 -0.86016158048E+02 -0.24046831485E+03  0.39318753753E+03  0.00000000000E+00 0. -1.
         -2    1    5    5    0  503 -0.46639657810E+02 -0.44084131828E+01 -0.81940879858E+02  0.94387496944E+02  0.00000000000E+00 0.  1.
         -3    1    6    6    0  502 -0.26073495051E+02 -0.38163983299E+03  0.14749781061E+03  0.40998096712E+03  0.00000000000E+00 0.  1.
<mgrwt>
<rscale>  0 0.24080154E+04</rscale>
<asrwt>0</asrwt>
<pdfrwt beam="1">  1        2 0.19404223E+00 0.24080154E+04</pdfrwt>
<pdfrwt beam="2">  1       -2 0.17682170E+00 0.24080154E+04</pdfrwt>
<totfact> 0.29866344E+00</totfact>
</mgrwt>
</event>
<event>
12    1  0.1556559E-007  0.1950849E+04  0.7818608E-02  0.8629952E-01
         -2   -1    0    0    0  501 -0.00000000000E+00  0.00000000000E+00  0.57059681259E+03  0.57059681259E+03  0.00000000000E+00 0.  1.
          2   -1    0    0  501    0  0.00000000000E+00 -0.00000000000E+00 -0.16674695612E+04  0.16674695612E+04  0.00000000000E+00 0. -1.
         23    2    1    2    0    0 -0.41482040754E+03 -0.61781422332E+03 -0.62046830406E+03  0.97327144418E+03  0.92227992917E+02 0.  0.
        254    2    1    2    0    0  0.41482040754E+03  0.61781422332E+03 -0.47640444457E+03  0.12647949296E+04  0.90497217312E+03 0.  0.
        -24    2    4    4    0    0 -0.30251880032E+02  0.40407233115E+03  0.17087111085E+03  0.44704263143E+03  0.80377563737E+02 0.  0.
         24    2    4    4    0    0  0.44507228757E+03  0.21374189217E+03 -0.64727555541E+03  0.81775229818E+03  0.77319072086E+02 0.  0.
         11    1    3    3    0    0 -0.78797022322E+02 -0.97637688968E+02 -0.15002293352E+03  0.19557343791E+03  0.00000000000E+00 0. -1.
        -11    1    3    3    0    0 -0.33602338522E+03 -0.52017653435E+03 -0.47044537053E+03  0.77769800627E+03  0.00000000000E+00 0.  1.
          4    1    6    6  502    0  0.28003451552E+03  0.12040329243E+03 -0.33951703498E+03  0.45627634143E+03  0.00000000000E+00 0. -1.
          1    1    5    5  503    0 -0.70344815194E+01  0.15886548283E+02 -0.78444202752E+01  0.19063086740E+02  0.00000000000E+00 0. -1.
         -2    1    5    5    0  503 -0.23217398513E+02  0.38818578287E+03  0.17871553112E+03  0.42797954469E+03  0.00000000000E+00 0.  1.
         -3    1    6    6    0  502  0.16503777205E+03  0.93338599742E+02 -0.30775852044E+03  0.36147595675E+03  0.00000000000E+00 0.  1.
<mgrwt>
<rscale>  0 0.19508489E+04</rscale>
<asrwt>0</asrwt>
<pdfrwt beam="1">  1        2 0.25653378E+00 0.19508489E+04</pdfrwt>
<pdfrwt beam="2">  1       -2 0.87784126E-01 0.19508489E+04</pdfrwt>
<totfact> 0.10674468E+01</totfact>
</mgrwt>
</event>
<event>
12    1  0.1556559E-007  0.1267664E+04  0.7818608E-02  0.9055608E-01
          1   -1    0    0  501    0  0.00000000000E+00  0.00000000000E+00  0.11668469835E+04  0.11668469835E+04  0.00000000000E+00 0. -1.
         -1   -1    0    0    0  501 -0.00000000000E+00 -0.00000000000E+00 -0.34429804811E+03  0.34429804811E+03  0.00000000000E+00 0.  1.
         23    2    1    2    0    0  0.19477151388E+03  0.16223459750E+03  0.37491678642E+03  0.46061739768E+03  0.85730875791E+02 0.  0.
        254    2    1    2    0    0 -0.19477151388E+03 -0.16223459750E+03  0.44763214901E+03  0.10505276340E+04  0.91595729248E+03 0.  0.
        -24    2    4    4    0    0 -0.32420833739E+03 -0.48612918569E+03  0.31279725810E+03  0.66854675649E+03  0.87635664669E+02 0.  0.
         24    2    4    4    0    0  0.12943682351E+03  0.32389458819E+03  0.13483489091E+03  0.38198087747E+03  0.77893179480E+02 0.  0.
         11    1    3    3    0    0  0.13665628266E+02  0.27164068478E+02  0.11124433744E+02  0.32378836272E+02  0.00000000000E+00 0.  1.
        -11    1    3    3    0    0  0.18110588561E+03  0.13507052902E+03  0.36379235267E+03  0.42823856141E+03  0.00000000000E+00 0. -1.
          2    1    6    6  502    0  0.12528989988E+03  0.22761013962E+03  0.11206883021E+03  0.28295469138E+03  0.00000000000E+00 0. -1.
          1    1    5    5  503    0 -0.26498051891E+03 -0.34325266855E+03  0.25731537345E+03  0.50423037521E+03  0.00000000000E+00 0. -1.
         -2    1    5    5    0  503 -0.59227818477E+02 -0.14287651715E+03  0.55481884650E+02  0.16431638128E+03  0.00000000000E+00 0.  1.
         -1    1    6    6    0  502  0.41469236276E+01  0.96284448571E+02  0.22766060701E+02  0.99026186093E+02  0.00000000000E+00 0.  1.
<mgrwt>
<rscale>  0 0.12676642E+04</rscale>
<asrwt>0</asrwt>
<pdfrwt beam="1">  1        1 0.17951492E+00 0.12676642E+04</pdfrwt>
<pdfrwt beam="2">  1       -1 0.52968931E-01 0.12676642E+04</pdfrwt>
<totfact> 0.39995818E+01</totfact>
</mgrwt>
</event>
<event>
12    1  0.1556559E-007  0.2365545E+04  0.7818608E-02  0.8452517E-01
          1   -1    0    0  501    0  0.00000000000E+00  0.00000000000E+00  0.15173993758E+04  0.15173993758E+04  0.00000000000E+00 0. -1.
         -1   -1    0    0    0  501 -0.00000000000E+00 -0.00000000000E+00 -0.92193963050E+03  0.92193963050E+03  0.00000000000E+00 0.  1.
         23    2    1    2    0    0 -0.63341010193E+03 -0.58273631691E+03  0.78780040498E+03  0.11703178864E+04  0.90689055621E+02 0.  0.
        254    2    1    2    0    0  0.63341010193E+03  0.58273631691E+03 -0.19234065968E+03  0.12690211199E+04  0.91248545258E+03 0.  0.
        -24    2    4    4    0    0 -0.44074371097E+02  0.29047865787E+03 -0.39587355484E+03  0.49945341862E+03  0.80108957542E+02 0.  0.
         24    2    4    4    0    0  0.67748447303E+03  0.29225765903E+03  0.20353289516E+03  0.76956770130E+03  0.80056586324E+02 0.  0.
         13    1    3    3    0    0 -0.61602840610E+03 -0.58032783007E+03  0.78059960105E+03  0.11513501312E+04  0.00000000000E+00 0. -1.
        -13    1    3    3    0    0 -0.17381695833E+02 -0.24084868396E+01  0.72008039343E+01  0.18967755170E+02  0.00000000000E+00 0.  1.
          4    1    6    6  502    0  0.47279131021E+03  0.22726372974E+03  0.11360937475E+03  0.53673784653E+03  0.00000000000E+00 0. -1.
          1    1    5    5  503    0 -0.61994360179E+02  0.26080189718E+03 -0.36612766914E+03  0.45377351220E+03  0.00000000000E+00 0. -1.
         -2    1    5    5    0  503  0.17919989083E+02  0.29676760695E+02 -0.29745885706E+02  0.45679906419E+02  0.00000000000E+00 0.  1.
         -3    1    6    6    0  502  0.20469316282E+03  0.64993929293E+02  0.89923520413E+02  0.23282985478E+03  0.00000000000E+00 0.  1.
<mgrwt>
<rscale>  0 0.23655449E+04</rscale>
<asrwt>0</asrwt>
<pdfrwt beam="1">  1        1 0.23344606E+00 0.23655449E+04</pdfrwt>
<pdfrwt beam="2">  1       -1 0.14183687E+00 0.23655449E+04</pdfrwt>
<totfact> 0.23163535E+00</totfact>
</mgrwt>
</event>
<event>
12    1  0.1556559E-007  0.1638749E+04  0.7818608E-02  0.8797090E-01
          1   -1    0    0  501    0  0.00000000000E+00  0.00000000000E+00  0.44510029312E+03  0.44510029312E+03  0.00000000000E+00 0. -1.
         -1   -1    0    0    0  501 -0.00000000000E+00 -0.00000000000E+00 -0.15083673090E+04  0.15083673090E+04  0.00000000000E+00 0.  1.
         23    2    1    2    0    0  0.29269016017E+03  0.12055567677E+03 -0.96689748757E+03  0.10216271024E+04  0.92897706750E+02 0.  0.
        254    2    1    2    0    0 -0.29269016017E+03 -0.12055567677E+03 -0.96369528337E+02  0.93184049970E+03  0.87111332778E+03 0.  0.
        -24    2    4    4    0    0 -0.16539252034E+01 -0.31634962437E+03  0.26626705761E+03  0.42087540115E+03  0.78473798318E+02 0.  0.
         24    2    4    4    0    0 -0.29103623497E+03  0.19579394760E+03 -0.36263658594E+03  0.51096509855E+03  0.80886825188E+02 0.  0.
         11    1    3    3    0    0  0.20458684548E+02  0.97014669230E+01 -0.18366944364E+03  0.18505983022E+03  0.00000000000E+00 0. -1.
        -11    1    3    3    0    0  0.27223147562E+03  0.11085420984E+03 -0.78322804393E+03  0.83656727222E+03  0.00000000000E+00 0.  1.
          4    1    6    6  502    0 -0.88798339003E+02  0.50892096098E+02 -0.16075109725E+03  0.19056774575E+03  0.00000000000E+00 0. -1.
          1    1    5    5  503    0 -0.15119722087E+02 -0.30091271855E+03  0.26339081221E+03  0.40018969269E+03  0.00000000000E+00 0. -1.
         -2    1    5    5    0  503  0.13465796884E+02 -0.15436905817E+02  0.28762453995E+01  0.20685708461E+02  0.00000000000E+00 0.  1.
         -3    1    6    6    0  502 -0.20223789597E+03  0.14490185150E+03 -0.20188548870E+03  0.32039735280E+03  0.00000000000E+00 0.  1.
<mgrwt>
<rscale>  0 0.16387492E+04</rscale>
<asrwt>0</asrwt>
<pdfrwt beam="1">  1        1 0.68476969E-01 0.16387492E+04</pdfrwt>
<pdfrwt beam="2">  1       -1 0.23205651E+00 0.16387492E+04</pdfrwt>
<totfact> 0.45471105E+00</totfact>
</mgrwt>
</event>
<event>
12    1  0.1556559E-007  0.1817040E+04  0.7818608E-02  0.8697290E-01
         -1   -1    0    0    0  501 -0.00000000000E+00  0.00000000000E+00  0.43983882719E+03  0.43983882719E+03  0.00000000000E+00 0.  1.
          1   -1    0    0  501    0  0.00000000000E+00 -0.00000000000E+00 -0.18766160318E+04  0.18766160318E+04  0.00000000000E+00 0. -1.
         23    2    1    2    0    0 -0.22335320185E+03  0.31267810673E+03 -0.12564130809E+04  0.13169853351E+04  0.90676854635E+02 0.  0.
        254    2    1    2    0    0  0.22335320185E+03 -0.31267810673E+03 -0.18036412370E+03  0.99946952382E+03  0.90485018690E+03 0.  0.
        -24    2    4    4    0    0  0.45572707454E+03  0.13307596758E+02 -0.32596799359E+03  0.56597021815E+03  0.78758468685E+02 0.  0.
         24    2    4    4    0    0 -0.23237387269E+03 -0.32598570349E+03  0.14560386989E+03  0.43349930567E+03  0.80354623403E+02 0.  0.
         13    1    3    3    0    0 -0.74089514835E+01 -0.22795035249E+01 -0.67573354832E+01  0.10283495575E+02  0.00000000000E+00 0.  1.
        -13    1    3    3    0    0 -0.21594425036E+03  0.31495761025E+03 -0.12496557454E+04  0.13067018396E+04  0.00000000000E+00 0. -1.
          4    1    6    6  502    0 -0.74823533484E+01  0.20836646017E+01 -0.37588755447E+01  0.86288130796E+01  0.00000000000E+00 0. -1.
          1    1    5    5  503    0  0.16621064469E+03 -0.22751228296E+02 -0.15141384363E+03  0.22598616958E+03  0.00000000000E+00 0. -1.
         -2    1    5    5    0  503  0.28951642984E+03  0.36058825054E+02 -0.17455414996E+03  0.33998404857E+03  0.00000000000E+00 0.  1.
         -3    1    6    6    0  502 -0.22489151934E+03 -0.32806936809E+03  0.14936274544E+03  0.42487049259E+03  0.00000000000E+00 0.  1.
<mgrwt>
<rscale>  0 0.18170400E+04</rscale>
<asrwt>0</asrwt>
<pdfrwt beam="1">  1        1 0.28871016E+00 0.18170400E+04</pdfrwt>
<pdfrwt beam="2">  1       -1 0.67667512E-01 0.18170400E+04</pdfrwt>
<totfact> 0.75304615E+00</totfact>
</mgrwt>
</event>
<event>
12    1  0.1556559E-007  0.2054610E+04  0.7818608E-02  0.8581506E-01
          2   -1    0    0  501    0  0.00000000000E+00  0.00000000000E+00  0.19565500828E+04  0.19565500828E+04  0.00000000000E+00 0. -1.
         -2   -1    0    0    0  501 -0.00000000000E+00 -0.00000000000E+00 -0.53939627493E+03  0.53939627493E+03  0.00000000000E+00 0.  1.
         23    2    1    2    0    0 -0.59031192743E+02 -0.82241484068E+03  0.47498767673E+03  0.95569574930E+03  0.88826912060E+02 0.  0.
        254    2    1    2    0    0  0.59031192743E+02  0.82241484068E+03  0.94216613110E+03  0.15402506084E+04  0.89713101953E+03 0.  0.
        -24    2    4    4    0    0  0.11236241985E+03 -0.13832648164E+03  0.36902754534E+03  0.41749163641E+03  0.79739628400E+02 0.  0.
         24    2    4    4    0    0 -0.53331227108E+02  0.96074132232E+03  0.57313858576E+03  0.11227589720E+04  0.78941513142E+02 0.  0.
         13    1    3    3    0    0 -0.15618620439E+02 -0.21578893967E+03  0.17103875200E+03  0.27579532715E+03  0.00000000000E+00 0. -1.
        -13    1    3    3    0    0 -0.43412572304E+02 -0.60662590100E+03  0.30394892472E+03  0.67990042215E+03  0.00000000000E+00 0.  1.
          2    1    6    6  502    0 -0.30483458361E+02  0.66621481406E+03  0.35479248480E+03  0.75541321605E+03  0.00000000000E+00 0. -1.
          1    1    5    5  503    0  0.11264629901E+03 -0.13590670921E+03  0.37309714934E+03  0.41274847684E+03  0.00000000000E+00 0. -1.
         -2    1    5    5    0  503 -0.28387915718E+00 -0.24197724277E+01 -0.40696040017E+01  0.47431595702E+01  0.00000000000E+00 0.  1.
         -1    1    6    6    0  502 -0.22847768747E+02  0.29452650826E+03  0.21834610096E+03  0.36734575594E+03  0.00000000000E+00 0.  1.
<mgrwt>
<rscale>  0 0.20546103E+04</rscale>
<asrwt>0</asrwt>
<pdfrwt beam="1">  1        2 0.30100770E+00 0.20546103E+04</pdfrwt>
<pdfrwt beam="2">  1       -2 0.82984043E-01 0.20546103E+04</pdfrwt>
<totfact> 0.83130816E+00</totfact>
</mgrwt>
</event>
<event>
12    1  0.1556559E-007  0.3284574E+04  0.7818608E-02  0.8166832E-01
          2   -1    0    0  501    0  0.00000000000E+00  0.00000000000E+00  0.84737850763E+03  0.84737850763E+03  0.00000000000E+00 0. -1.
         -2   -1    0    0    0  501 -0.00000000000E+00 -0.00000000000E+00 -0.31828828602E+04  0.31828828602E+04  0.00000000000E+00 0.  1.
         23    2    1    2    0    0  0.43742603271E+03  0.17133500247E+03  0.68838230019E+03  0.83879933243E+03  0.94957420492E+02 0.  0.
        254    2    1    2    0    0 -0.43742603271E+03 -0.17133500247E+03 -0.30238866528E+04  0.31914620354E+04  0.90600343126E+03 0.  0.
        -24    2    4    4    0    0 -0.11217386092E+03  0.27746446092E+03 -0.38527271680E+03  0.49407327228E+03  0.78127011492E+02 0.  0.
         24    2    4    4    0    0 -0.32525217178E+03 -0.44879946339E+03 -0.26386139360E+04  0.26973887631E+04  0.80079352624E+02 0.  0.
         11    1    3    3    0    0  0.98178003216E+02  0.82185383284E+02  0.16774585602E+03  0.21102613524E+03  0.00000000000E+00 0.  1.
        -11    1    3    3    0    0  0.33924802949E+03  0.89149619185E+02  0.52063644417E+03  0.62777319719E+03  0.00000000000E+00 0. -1.
          4    1    6    6  502    0 -0.40080389326E+02 -0.27312572979E+02 -0.31402268468E+03  0.31774622066E+03  0.00000000000E+00 0. -1.
          1    1    5    5  503    0 -0.51802965438E+02  0.53108557327E+02 -0.66603658019E+02  0.99700117106E+02  0.00000000000E+00 0. -1.
         -4    1    5    5    0  503 -0.60370895486E+02  0.22435590360E+03 -0.31866905878E+03  0.39437315517E+03  0.00000000000E+00 0.  1.
         -3    1    6    6    0  502 -0.28517178246E+03 -0.42148689041E+03 -0.23245912513E+04  0.23796425425E+04  0.00000000000E+00 0.  1.
<mgrwt>
<rscale>  0 0.32845740E+04</rscale>
<asrwt>0</asrwt>
<pdfrwt beam="1">  1        2 0.13036593E+00 0.32845740E+04</pdfrwt>
<pdfrwt beam="2">  1       -2 0.48967428E+00 0.32845740E+04</pdfrwt>
<totfact> 0.50941702E-02</totfact>
</mgrwt>
</event>
<event>
12    1  0.1556559E-007  0.1764130E+04  0.7818608E-02  0.8725611E-01
         -1   -1    0    0    0  501 -0.00000000000E+00  0.00000000000E+00  0.33808930930E+03  0.33808930930E+03  0.00000000000E+00 0.  1.
          1   -1    0    0  501    0  0.00000000000E+00 -0.00000000000E+00 -0.23012819623E+04  0.23012819623E+04  0.00000000000E+00 0. -1.
         23    2    1    2    0    0  0.18825360764E+03  0.11799261575E+03  0.18611072980E+03  0.30321976186E+03  0.89125428874E+02 0.  0.
        254    2    1    2    0    0 -0.18825360764E+03 -0.11799261575E+03 -0.21493033828E+04  0.23361515098E+04  0.88810875853E+03 0.  0.
        -24    2    4    4    0    0 -0.33834292590E+02 -0.41944921998E+03 -0.17733575497E+04  0.18242815946E+04  0.78255542194E+02 0.  0.
         24    2    4    4    0    0 -0.15441931505E+03  0.30145660423E+03 -0.37594583309E+03  0.51186991511E+03  0.77163018884E+02 0.  0.
         11    1    3    3    0    0  0.15237613276E+02  0.46698853405E+02  0.20132301545E+02  0.53087449865E+02  0.00000000000E+00 0. -1.
        -11    1    3    3    0    0  0.17301599437E+03  0.71293762342E+02  0.16597842826E+03  0.25013231199E+03  0.00000000000E+00 0.  1.
          2    1    6    6  502    0 -0.25304530271E+02  0.10472466445E+03 -0.15726062844E+03  0.19062654551E+03  0.00000000000E+00 0. -1.
          1    1    5    5  503    0 -0.41121456084E+02 -0.29508606171E+03 -0.11077701571E+04  0.11471362076E+04  0.00000000000E+00 0. -1.
         -2    1    5    5    0  503  0.72871634944E+01 -0.12436315827E+03 -0.66558739267E+03  0.67714538702E+03  0.00000000000E+00 0.  1.
         -1    1    6    6    0  502 -0.12911478478E+03  0.19673193978E+03 -0.21868520465E+03  0.32124336960E+03  0.00000000000E+00 0.  1.
<mgrwt>
<rscale>  0 0.17641302E+04</rscale>
<asrwt>0</asrwt>
<pdfrwt beam="1">  1        1 0.35404336E+00 0.17641302E+04</pdfrwt>
<pdfrwt beam="2">  1       -1 0.52013742E-01 0.17641302E+04</pdfrwt>
<totfact> 0.65473081E+00</totfact>
</mgrwt>
</event>
<event>
12    1  0.1556559E-007  0.2243408E+04  0.7818608E-02  0.8500575E-01
         -1   -1    0    0    0  501 -0.00000000000E+00  0.00000000000E+00  0.88860996957E+03  0.88860996957E+03  0.00000000000E+00 0.  1.
          1   -1    0    0  501    0  0.00000000000E+00 -0.00000000000E+00 -0.14159419372E+04  0.14159419372E+04  0.00000000000E+00 0. -1.
         23    2    1    2    0    0 -0.78525982085E+03  0.70004224251E+02  0.30110026249E+03  0.84869415721E+03  0.89926785500E+02 0.  0.
        254    2    1    2    0    0  0.78525982085E+03 -0.70004224251E+02 -0.82843223009E+03  0.14558577495E+04  0.90093742811E+03 0.  0.
        -24    2    4    4    0    0  0.41345264345E+03 -0.25411170282E+03  0.36561911033E+02  0.49319744271E+03  0.79944344838E+02 0.  0.
         24    2    4    4    0    0  0.37180717741E+03  0.18410747857E+03 -0.86499414112E+03  0.96266030682E+03  0.79773813549E+02 0.  0.
         11    1    3    3    0    0 -0.39808221286E+03 -0.36939204855E+01  0.12742105448E+03  0.41799428031E+03  0.00000000000E+00 0. -1.
        -11    1    3    3    0    0 -0.38717760799E+03  0.73698144737E+02  0.17367920801E+03  0.43069987690E+03  0.00000000000E+00 0.  1.
          4    1    6    6  502    0  0.37586009467E+03  0.18385773489E+03 -0.85739109758E+03  0.95404086477E+03  0.00000000000E+00 0. -1.
          3    1    5    5  503    0  0.25317374774E+03 -0.11117003680E+03  0.87512702723E+01  0.27664473311E+03  0.00000000000E+00 0. -1.
         -4    1    5    5    0  503  0.16027889571E+03 -0.14294166602E+03  0.27810640761E+02  0.21655270960E+03  0.00000000000E+00 0.  1.
         -3    1    6    6    0  502 -0.40529172634E+01  0.24974368056E+00 -0.76030435431E+01  0.86194420566E+01  0.00000000000E+00 0.  1.
<mgrwt>
<rscale>  0 0.22434082E+04</rscale>
<asrwt>0</asrwt>
<pdfrwt beam="1">  1        1 0.21783722E+00 0.22434082E+04</pdfrwt>
<pdfrwt beam="2">  1       -1 0.13670923E+00 0.22434082E+04</pdfrwt>
<totfact> 0.30330058E+00</totfact>
</mgrwt>
</event>
<event>
12    1  0.1556559E-007  0.1789835E+04  0.7818608E-02  0.8711724E-01
         -2   -1    0    0    0  501 -0.00000000000E+00  0.00000000000E+00  0.25403572292E+03  0.25403572292E+03  0.00000000000E+00 0.  1.
          2   -1    0    0  501    0  0.00000000000E+00 -0.00000000000E+00 -0.31526161406E+04  0.31526161406E+04  0.00000000000E+00 0. -1.
         23    2    1    2    0    0  0.61293277822E+02 -0.51447523052E+02  0.17352309401E+03  0.21111101825E+03  0.89743436176E+02 0.  0.
        254    2    1    2    0    0 -0.61293277822E+02  0.51447523052E+02 -0.30721035117E+04  0.31955408453E+04  0.87593241389E+03 0.  0.
        -24    2    4    4    0    0 -0.43187223919E+03  0.16302016030E+03 -0.13554347820E+04  0.14340939534E+04  0.79578988137E+02 0.  0.
         24    2    4    4    0    0  0.37057896137E+03 -0.11157263725E+03 -0.17166687297E+04  0.17614468919E+04  0.77242509640E+02 0.  0.
         11    1    3    3    0    0  0.46564332264E+02 -0.22880408315E+02  0.22234038045E+02  0.56445571762E+02  0.00000000000E+00 0. -1.
        -11    1    3    3    0    0  0.14728945558E+02 -0.28567114737E+02  0.15128905597E+03  0.15466544649E+03  0.00000000000E+00 0.  1.
          4    1    6    6  502    0  0.23269125008E+03 -0.57936618026E+02 -0.89517505485E+03  0.92673634243E+03  0.00000000000E+00 0. -1.
          3    1    5    5  503    0 -0.54956953421E+02 -0.58140913581E+01 -0.17241778825E+03  0.18105790259E+03  0.00000000000E+00 0. -1.
         -4    1    5    5    0  503 -0.37691528577E+03  0.16883425166E+03 -0.11830169937E+04  0.12530360508E+04  0.00000000000E+00 0.  1.
         -3    1    6    6    0  502  0.13788771129E+03 -0.53636019221E+02 -0.82149367490E+03  0.83471054946E+03  0.00000000000E+00 0.  1.
<mgrwt>
<rscale>  0 0.17898348E+04</rscale>
<asrwt>0</asrwt>
<pdfrwt beam="1">  1        2 0.48501788E+00 0.17898348E+04</pdfrwt>
<pdfrwt beam="2">  1       -2 0.39082418E-01 0.17898348E+04</pdfrwt>
<totfact> 0.81818748E+00</totfact>
</mgrwt>
</event>
<event>
12    1  0.1556559E-007  0.1472934E+04  0.7818608E-02  0.8902653E-01
          2   -1    0    0  501    0  0.00000000000E+00  0.00000000000E+00  0.12829167132E+04  0.12829167132E+04  0.00000000000E+00 0. -1.
         -2   -1    0    0    0  501 -0.00000000000E+00 -0.00000000000E+00 -0.42277403054E+03  0.42277403054E+03  0.00000000000E+00 0.  1.
         23    2    1    2    0    0  0.10404546793E+03  0.39791741665E+03  0.52905883810E+03  0.67622757397E+03  0.90646278262E+02 0.  0.
        254    2    1    2    0    0 -0.10404546793E+03 -0.39791741665E+03  0.33108384456E+03  0.10294631698E+04  0.88375006417E+03 0.  0.
        -24    2    4    4    0    0  0.37683023395E+02 -0.38183606763E+02 -0.28336067445E+03  0.29930771827E+03  0.80086455253E+02 0.  0.
         24    2    4    4    0    0 -0.14172849133E+03 -0.35973380988E+03  0.61444451901E+03  0.73015545150E+03  0.78035486746E+02 0.  0.
         11    1    3    3    0    0  0.82273192196E+02  0.17122089228E+03  0.19789404156E+03  0.27431282105E+03  0.00000000000E+00 0.  1.
        -11    1    3    3    0    0  0.21772275737E+02  0.22669652436E+03  0.33116479654E+03  0.40191475292E+03  0.00000000000E+00 0. -1.
          4    1    6    6  502    0 -0.14956571448E+03 -0.31894818389E+03  0.53610409740E+03  0.64148690571E+03  0.00000000000E+00 0. -1.
          1    1    5    5  503    0 -0.95213748591E+01 -0.30717935123E+02 -0.20511935483E+03  0.20762513779E+03  0.00000000000E+00 0. -1.
         -2    1    5    5    0  503  0.47204398254E+02 -0.74656716402E+01 -0.78241319617E+02  0.91682580477E+02  0.00000000000E+00 0.  1.
         -3    1    6    6    0  502  0.78372231495E+01 -0.40785625993E+02  0.78340421609E+02  0.88668545788E+02  0.00000000000E+00 0.  1.
<mgrwt>
<rscale>  0 0.14729343E+04</rscale>
<asrwt>0</asrwt>
<pdfrwt beam="1">  1        2 0.19737180E+00 0.14729343E+04</pdfrwt>
<pdfrwt beam="2">  1       -2 0.65042159E-01 0.14729343E+04</pdfrwt>
<totfact> 0.35704086E+01</totfact>
</mgrwt>
</event>
<event>
12    1  0.1556559E-007  0.1480216E+04  0.7818608E-02  0.8897716E-01
          2   -1    0    0  501    0  0.00000000000E+00  0.00000000000E+00  0.16807834747E+04  0.16807834747E+04  0.00000000000E+00 0.  1.
         -2   -1    0    0    0  501 -0.00000000000E+00 -0.00000000000E+00 -0.32589571558E+03  0.32589571558E+03  0.00000000000E+00 0. -1.
         23    2    1    2    0    0  0.97885495566E+01 -0.39851118642E+03  0.11607229749E+03  0.42487026669E+03  0.90194145440E+02 0.  0.
        254    2    1    2    0    0 -0.97885495566E+01  0.39851118642E+03  0.12388154616E+04  0.15818089236E+04  0.89919338373E+03 0.  0.
        -24    2    4    4    0    0 -0.18586718651E+03 -0.29265038663E+02  0.10596992467E+04  0.10792975139E+04  0.80731508919E+02 0.  0.
         24    2    4    4    0    0  0.17607863695E+03  0.42777622508E+03  0.17911621490E+03  0.50251140966E+03  0.80242839341E+02 0.  0.
         13    1    3    3    0    0 -0.29252032306E+01  0.38608231679E+01 -0.21468751026E+01  0.52982867213E+01  0.00000000000E+00 0. -1.
        -13    1    3    3    0    0  0.12713752787E+02 -0.40237200959E+03  0.11821917259E+03  0.41957197997E+03  0.00000000000E+00 0.  1.
          2    1    6    6  502    0  0.37676075057E+02  0.19289542172E+03  0.65621628615E+02  0.20720600497E+03  0.00000000000E+00 0. -1.
          1    1    5    5  503    0 -0.14060412633E+02 -0.16139892008E+02  0.27849061881E+03  0.27931204071E+03  0.00000000000E+00 0. -1.
         -2    1    5    5    0  503 -0.17180677387E+03 -0.13125146655E+02  0.78120862790E+03  0.79998547320E+03  0.00000000000E+00 0.  1.
         -1    1    6    6    0  502  0.13840256189E+03  0.23488080336E+03  0.11349458628E+03  0.29530540469E+03  0.00000000000E+00 0.  1.
<mgrwt>
<rscale>  0 0.14802164E+04</rscale>
<asrwt>0</asrwt>
<pdfrwt beam="1">  1        2 0.25858207E+00 0.14802164E+04</pdfrwt>
<pdfrwt beam="2">  1       -2 0.50137803E-01 0.14802164E+04</pdfrwt>
<totfact> 0.36594531E+01</totfact>
</mgrwt>
</event>
<event>
12    1  0.1556559E-007  0.1368208E+04  0.7818608E-02  0.8977158E-01
          1   -1    0    0  501    0  0.00000000000E+00  0.00000000000E+00  0.21668221441E+04  0.21668221441E+04  0.00000000000E+00 0. -1.
         -1   -1    0    0    0  501 -0.00000000000E+00 -0.00000000000E+00 -0.21598374296E+03  0.21598374296E+03  0.00000000000E+00 0.  1.
         23    2    1    2    0    0 -0.19793313782E+03 -0.30684180929E+03  0.32375822254E+03  0.49640201428E+03  0.90918370801E+02 0.  0.
        254    2    1    2    0    0  0.19793313782E+03  0.30684180929E+03  0.16270801786E+04  0.18864038728E+04  0.88192983886E+03 0.  0.
        -24    2    4    4    0    0 -0.30312040770E+03  0.31536473006E+03  0.82710122362E+03  0.93903916786E+03  0.79757320322E+02 0.  0.
         24    2    4    4    0    0  0.50105354552E+03 -0.85229207755E+01  0.79997895498E+03  0.94736470491E+03  0.80039115760E+02 0.  0.
         13    1    3    3    0    0 -0.14000847311E+03 -0.14893376741E+03  0.14281841775E+03  0.24936066262E+03  0.00000000000E+00 0.  1.
        -13    1    3    3    0    0 -0.57924664717E+02 -0.15790804188E+03  0.18093980479E+03  0.24704135166E+03  0.00000000000E+00 0. -1.
          4    1    6    6  502    0  0.46223374103E+03  0.46815736262E+01  0.69528201584E+03  0.83492456547E+03  0.00000000000E+00 0. -1.
          3    1    5    5  503    0 -0.27957628206E+03  0.27771875371E+03  0.78238104547E+03  0.87601980798E+03  0.00000000000E+00 0. -1.
         -4    1    5    5    0  503 -0.23544125634E+02  0.37645976349E+02  0.44720178145E+02  0.63019359885E+02  0.00000000000E+00 0.  1.
         -3    1    6    6    0  502  0.38819804494E+02 -0.13204494402E+02  0.10469693913E+03  0.11244013944E+03  0.00000000000E+00 0.  1.
<mgrwt>
<rscale>  0 0.13682081E+04</rscale>
<asrwt>0</asrwt>
<pdfrwt beam="1">  1        1 0.33335724E+00 0.13682081E+04</pdfrwt>
<pdfrwt beam="2">  1       -1 0.33228270E-01 0.13682081E+04</pdfrwt>
<totfact> 0.19136535E+01</totfact>
</mgrwt>
</event>
<event>
12    1  0.1556559E-007  0.3584419E+04  0.7818608E-02  0.8094070E-01
         -2   -1    0    0    0  501 -0.00000000000E+00  0.00000000000E+00  0.14297476519E+04  0.14297476519E+04  0.00000000000E+00 0.  1.
          2   -1    0    0  501    0  0.00000000000E+00 -0.00000000000E+00 -0.22465601805E+04  0.22465601805E+04  0.00000000000E+00 0. -1.
         23    2    1    2    0    0  0.34129894222E+03  0.13960383119E+03 -0.20603306833E+04  0.20950758281E+04  0.91684258393E+02 0.  0.
        254    2    1    2    0    0 -0.34129894222E+03 -0.13960383119E+03  0.12435181547E+04  0.15812320044E+04  0.90442415550E+03 0.  0.
        -24    2    4    4    0    0 -0.44623767863E+03  0.16025022891E+03  0.26468482689E+03  0.54890104817E+03  0.80162967809E+02 0.  0.
         24    2    4    4    0    0  0.10493873640E+03 -0.29985406009E+03  0.97883332776E+03  0.10323309562E+04  0.81657356275E+02 0.  0.
         11    1    3    3    0    0  0.29316586251E+03  0.14505898153E+03 -0.18853728412E+04  0.19135357539E+04  0.00000000000E+00 0. -1.
        -11    1    3    3    0    0  0.48133079708E+02 -0.54551503482E+01 -0.17495784205E+03  0.18154007415E+03  0.00000000000E+00 0.  1.
          2    1    6    6  502    0  0.48667712567E+02 -0.51538194043E+02  0.16452971688E+03  0.17915010306E+03  0.00000000000E+00 0. -1.
          3    1    5    5  503    0 -0.45390348544E+02 -0.80851294955E+01  0.26078173787E+02  0.52969087286E+02  0.00000000000E+00 0. -1.
         -4    1    5    5    0  503 -0.40084733008E+03  0.16833535840E+03  0.23860665311E+03  0.49593196089E+03  0.00000000000E+00 0.  1.
         -1    1    6    6    0  502  0.56271023838E+02 -0.24831586605E+03  0.81430361088E+03  0.85318085314E+03  0.00000000000E+00 0.  1.
<mgrwt>
<rscale>  0 0.35844186E+04</rscale>
<asrwt>0</asrwt>
<pdfrwt beam="1">  1        2 0.34562464E+00 0.35844186E+04</pdfrwt>
<pdfrwt beam="2">  1       -2 0.21996118E+00 0.35844186E+04</pdfrwt>
<totfact> 0.39229212E-01</totfact>
</mgrwt>
</event>
<event>
12    1  0.1556559E-007  0.3854604E+04  0.7818608E-02  0.8034538E-01
          2   -1    0    0  501    0  0.00000000000E+00  0.00000000000E+00  0.22933120260E+04  0.22933120260E+04  0.00000000000E+00 0.  1.
         -2   -1    0    0    0  501 -0.00000000000E+00 -0.00000000000E+00 -0.16197064443E+04  0.16197064443E+04  0.00000000000E+00 0. -1.
         23    2    1    2    0    0 -0.70726048688E+02  0.55336192705E+03  0.20901106247E+04  0.21650859616E+04  0.88448863160E+02 0.  0.
        254    2    1    2    0    0  0.70726048688E+02 -0.55336192705E+03 -0.14165050430E+04  0.17479325087E+04  0.85881891097E+03 0.  0.
        -24    2    4    4    0    0 -0.35007035341E+03 -0.11603892714E+03 -0.33110313135E+03  0.50183183136E+03  0.78686837715E+02 0.  0.
         24    2    4    4    0    0  0.42079640210E+03 -0.43732299990E+03 -0.10854019116E+04  0.12461006773E+04  0.79677913946E+02 0.  0.
         11    1    3    3    0    0 -0.59689489048E+02  0.38270566614E+03  0.12895796998E+04  0.13464925786E+04  0.00000000000E+00 0. -1.
        -11    1    3    3    0    0 -0.11036559640E+02  0.17065626090E+03  0.80053092488E+03  0.81859338302E+03  0.00000000000E+00 0.  1.
          4    1    6    6  502    0  0.46804902678E+02 -0.70263057025E+02 -0.20255879504E+03  0.21944853963E+03  0.00000000000E+00 0. -1.
          1    1    5    5  503    0 -0.96660612936E+02 -0.17846507116E+02 -0.13366098483E+03  0.16591272036E+03  0.00000000000E+00 0. -1.
         -2    1    5    5    0  503 -0.25340974048E+03 -0.98192420026E+02 -0.19744214652E+03  0.33591911101E+03  0.00000000000E+00 0.  1.
         -3    1    6    6    0  502  0.37399149942E+03 -0.36705994288E+03 -0.88284311660E+03  0.10266521377E+04  0.00000000000E+00 0.  1.
<mgrwt>
<rscale>  0 0.38546036E+04</rscale>
<asrwt>0</asrwt>
<pdfrwt beam="1">  1        2 0.35281724E+00 0.38546036E+04</pdfrwt>
<pdfrwt beam="2">  1       -2 0.24918561E+00 0.38546036E+04</pdfrwt>
<totfact> 0.23733681E-01</totfact>
</mgrwt>
</event>
<event>
12    1  0.1556559E-007  0.1725772E+04  0.7818608E-02  0.8746801E-01
          2   -1    0    0  501    0  0.00000000000E+00  0.00000000000E+00  0.24936035408E+04  0.24936035408E+04  0.00000000000E+00 0.  1.
         -2   -1    0    0    0  501 -0.00000000000E+00 -0.00000000000E+00 -0.29859282505E+03  0.29859282505E+03  0.00000000000E+00 0. -1.
         23    2    1    2    0    0 -0.38071712245E+03 -0.42830908327E+03  0.39710538585E+03  0.70295499012E+03  0.89771000521E+02 0.  0.
        254    2    1    2    0    0  0.38071712245E+03  0.42830908327E+03  0.17979053299E+04  0.20892413757E+04  0.89670048099E+03 0.  0.
        -24    2    4    4    0    0 -0.24179545220E+03  0.31785756786E+03  0.90055725233E+03  0.98841069217E+03  0.80335904352E+02 0.  0.
         24    2    4    4    0    0  0.62251257464E+03  0.11045151541E+03  0.89734807753E+03  0.11008306835E+04  0.82904636008E+02 0.  0.
         13    1    3    3    0    0 -0.58066996221E+01 -0.25527470096E+02  0.37029016617E+02  0.45348843002E+02  0.00000000000E+00 0.  1.
        -13    1    3    3    0    0 -0.37491042282E+03 -0.40278161317E+03  0.36007636923E+03  0.65760614712E+03  0.00000000000E+00 0. -1.
          2    1    6    6  502    0  0.56843669375E+03  0.81913337132E+02  0.83559924566E+03  0.10139310474E+04  0.00000000000E+00 0. -1.
          1    1    5    5  503    0 -0.22973534119E+03  0.25517465503E+03  0.76994159223E+03  0.84303172361E+03  0.00000000000E+00 0. -1.
         -2    1    5    5    0  503 -0.12060111013E+02  0.62682912827E+02  0.13061566010E+03  0.14537896857E+03  0.00000000000E+00 0.  1.
         -1    1    6    6    0  502  0.54075880897E+02  0.28538178274E+02  0.61748831880E+02  0.86899636090E+02  0.00000000000E+00 0.  1.
<mgrwt>
<rscale>  0 0.17257719E+04</rscale>
<asrwt>0</asrwt>
<pdfrwt beam="1">  1        2 0.38363130E+00 0.17257719E+04</pdfrwt>
<pdfrwt beam="2">  1       -2 0.45937359E-01 0.17257719E+04</pdfrwt>
<totfact> 0.15003767E+01</totfact>
</mgrwt>
</event>
<event>
12    1  0.1556559E-007  0.1564162E+04  0.7818608E-02  0.8842872E-01
          2   -1    0    0  501    0  0.00000000000E+00  0.00000000000E+00  0.51769361030E+03  0.51769361030E+03  0.00000000000E+00 0. -1.
         -2   -1    0    0    0  501 -0.00000000000E+00 -0.00000000000E+00 -0.11814910664E+04  0.11814910664E+04  0.00000000000E+00 0.  1.
         23    2    1    2    0    0 -0.40545888786E+03  0.10172090275E+03 -0.55609992473E+03  0.70151162651E+03  0.90152005188E+02 0.  0.
        254    2    1    2    0    0  0.40545888786E+03 -0.10172090275E+03 -0.10769753141E+03  0.99767305024E+03  0.89944911201E+03 0.  0.
        -24    2    4    4    0    0  0.26628324675E+03 -0.26873284367E+03  0.32587214374E+03  0.50582213614E+03  0.80865756505E+02 0.  0.
         24    2    4    4    0    0  0.13917564110E+03  0.16701194091E+03 -0.43356967515E+03  0.49185091410E+03  0.81681154532E+02 0.  0.
         13    1    3    3    0    0 -0.94580674068E+01 -0.24201108924E+01  0.13312181137E+01  0.98531272938E+01  0.00000000000E+00 0. -1.
        -13    1    3    3    0    0 -0.39600082045E+03  0.10414101365E+03 -0.55743114285E+03  0.69165849922E+03  0.00000000000E+00 0.  1.
          2    1    6    6  502    0  0.17604560661E+02 -0.64035454368E+01 -0.54529028482E+02  0.57657097546E+02  0.00000000000E+00 0. -1.
          1    1    5    5  503    0  0.12808674174E+03 -0.14610922531E+03  0.21740139836E+03  0.29157758339E+03  0.00000000000E+00 0. -1.
         -2    1    5    5    0  503  0.13819650501E+03 -0.12262361836E+03  0.10847074539E+03  0.21424455275E+03  0.00000000000E+00 0.  1.
         -1    1    6    6    0  502  0.12157108044E+03  0.17341548635E+03 -0.37904064667E+03  0.43419381656E+03  0.00000000000E+00 0.  1.
<mgrwt>
<rscale>  0 0.15641616E+04</rscale>
<asrwt>0</asrwt>
<pdfrwt beam="1">  1        2 0.79645170E-01 0.15641616E+04</pdfrwt>
<pdfrwt beam="2">  1       -2 0.18176786E+00 0.15641616E+04</pdfrwt>
<totfact> 0.10013133E+01</totfact>
</mgrwt>
</event>
<event>
12    1  0.1556559E-007  0.2367107E+04  0.7818608E-02  0.8451922E-01
          2   -1    0    0  501    0  0.00000000000E+00  0.00000000000E+00  0.12813888960E+04  0.12813888960E+04  0.00000000000E+00 0. -1.
         -2   -1    0    0    0  501 -0.00000000000E+00 -0.00000000000E+00 -0.10931879110E+04  0.10931879110E+04  0.00000000000E+00 0.  1.
         23    2    1    2    0    0  0.56379712279E+01 -0.15244519092E+03 -0.92093528124E+03  0.93790876328E+03  0.90993038509E+02 0.  0.
        254    2    1    2    0    0 -0.56379712279E+01  0.15244519092E+03  0.11091362663E+04  0.14366680437E+04  0.90031132826E+03 0.  0.
        -24    2    4    4    0    0 -0.20324190465E+03 -0.32096615550E+03  0.55336658539E+03  0.67594827423E+03  0.79780616908E+02 0.  0.
         24    2    4    4    0    0  0.19760393342E+03  0.47341134641E+03  0.55576968088E+03  0.76071976951E+03  0.81541474815E+02 0.  0.
         13    1    3    3    0    0 -0.21730183078E+02 -0.82071636520E+02 -0.68359194267E+03  0.68884388540E+03  0.00000000000E+00 0.  1.
        -13    1    3    3    0    0  0.27368154306E+02 -0.70373554396E+02 -0.23734333858E+03  0.24906487788E+03  0.00000000000E+00 0. -1.
          4    1    6    6  502    0  0.15027911542E+03  0.29071458077E+03  0.30931946885E+03  0.45030802104E+03  0.00000000000E+00 0. -1.
          3    1    5    5  503    0 -0.17645045139E+03 -0.30073975401E+03  0.46345112788E+03  0.57997078321E+03  0.00000000000E+00 0. -1.
         -4    1    5    5    0  503 -0.26791453259E+02 -0.20226401484E+02  0.89915457512E+02  0.95977491029E+02  0.00000000000E+00 0.  1.
         -3    1    6    6    0  502  0.47324818001E+02  0.18269676564E+03  0.24645021203E+03  0.31041174847E+03  0.00000000000E+00 0.  1.
<mgrwt>
<rscale>  0 0.23671070E+04</rscale>
<asrwt>0</asrwt>
<pdfrwt beam="1">  1        2 0.19713675E+00 0.23671070E+04</pdfrwt>
<pdfrwt beam="2">  1       -2 0.16818276E+00 0.23671070E+04</pdfrwt>
<totfact> 0.33566796E+00</totfact>
</mgrwt>
</event>
<event>
12    1  0.1556559E-007  0.1865555E+04  0.7818608E-02  0.8672194E-01
          2   -1    0    0  501    0  0.00000000000E+00  0.00000000000E+00  0.12965665246E+04  0.12965665246E+04  0.00000000000E+00 0. -1.
         -2   -1    0    0    0  501 -0.00000000000E+00 -0.00000000000E+00 -0.67106024460E+03  0.67106024460E+03  0.00000000000E+00 0.  1.
         23    2    1    2    0    0  0.15671730708E+03 -0.87762779762E+01  0.98622071547E+03  0.10029044598E+04  0.92459280172E+02 0.  0.
        254    2    1    2    0    0 -0.15671730708E+03  0.87762779762E+01 -0.36071443547E+03  0.96472230940E+03  0.88087280178E+03 0.  0.
        -24    2    4    4    0    0 -0.10038528466E+03  0.21047829777E+03 -0.59177614493E+03  0.64127622375E+03  0.81595773345E+02 0.  0.
         24    2    4    4    0    0 -0.56332022420E+02 -0.20170201979E+03  0.23106170946E+03  0.32344608566E+03  0.85853684881E+02 0.  0.
         11    1    3    3    0    0 -0.79437376926E+01  0.50575700475E+00  0.17012668561E+03  0.17031279434E+03  0.00000000000E+00 0.  1.
        -11    1    3    3    0    0  0.16466104477E+03 -0.92820349809E+01  0.81609402986E+03  0.83259166547E+03  0.00000000000E+00 0. -1.
          2    1    6    6  502    0  0.14896067121E+02 -0.10485095073E+03  0.11516155363E+03  0.15645382104E+03  0.00000000000E+00 0. -1.
          3    1    5    5  503    0 -0.62999114964E+02  0.15400054411E+03 -0.50173419678E+03  0.52860406761E+03  0.00000000000E+00 0. -1.
         -4    1    5    5    0  503 -0.37386169695E+02  0.56477753657E+02 -0.90041948151E+02  0.11267215614E+03  0.00000000000E+00 0.  1.
         -1    1    6    6    0  502 -0.71228089540E+02 -0.96851069063E+02  0.11590015583E+03  0.16699226461E+03  0.00000000000E+00 0.  1.
<mgrwt>
<rscale>  0 0.18655554E+04</rscale>
<asrwt>0</asrwt>
<pdfrwt beam="1">  1        2 0.19947177E+00 0.18655554E+04</pdfrwt>
<pdfrwt beam="2">  1       -2 0.10324004E+00 0.18655554E+04</pdfrwt>
<totfact> 0.11941671E+01</totfact>
</mgrwt>
</event>
<event>
12    1  0.1556559E-007  0.2801223E+04  0.7818608E-02  0.8302889E-01
          2   -1    0    0  501    0  0.00000000000E+00  0.00000000000E+00  0.20952695823E+04  0.20952695823E+04  0.00000000000E+00 0. -1.
         -2   -1    0    0    0  501 -0.00000000000E+00 -0.00000000000E+00 -0.93625760090E+03  0.93625760090E+03  0.00000000000E+00 0.  1.
         23    2    1    2    0    0  0.15171109283E+03 -0.12420784628E+04  0.44686777854E+03  0.13317337476E+04  0.89715101697E+02 0.  0.
        254    2    1    2    0    0 -0.15171109283E+03  0.12420784628E+04  0.71214420288E+03  0.16997934357E+04  0.90353372641E+03 0.  0.
        -24    2    4    4    0    0 -0.23409144691E+03  0.94435810942E+03  0.90190294854E+03  0.13290990980E+04  0.80401737151E+02 0.  0.
         24    2    4    4    0    0  0.82380354076E+02  0.29772035339E+03 -0.18975874566E+03  0.37069433767E+03  0.77343253567E+02 0.  0.
         11    1    3    3    0    0  0.77833024342E+02 -0.68493739529E+03  0.29302707982E+03  0.74904077636E+03  0.00000000000E+00 0. -1.
        -11    1    3    3    0    0  0.73878068491E+02 -0.55714106751E+03  0.15384069872E+03  0.58269297121E+03  0.00000000000E+00 0.  1.
          4    1    6    6  502    0  0.54420102249E+02  0.27925321567E+03 -0.16365017663E+03  0.32821530480E+03  0.00000000000E+00 0. -1.
          3    1    5    5  503    0 -0.21203545433E+03  0.71877612850E+03  0.70371660725E+03  0.10280151848E+04  0.00000000000E+00 0. -1.
         -4    1    5    5    0  503 -0.22055992581E+02  0.22558198092E+03  0.19818634129E+03  0.30108391322E+03  0.00000000000E+00 0.  1.
         -3    1    6    6    0  502  0.27960251826E+02  0.18467137714E+02 -0.26108569024E+02  0.42479032875E+02  0.00000000000E+00 0.  1.
<mgrwt>
<rscale>  0 0.28012226E+04</rscale>
<asrwt>0</asrwt>
<pdfrwt beam="1">  1        2 0.32234916E+00 0.28012226E+04</pdfrwt>
<pdfrwt beam="2">  1       -2 0.14403963E+00 0.28012226E+04</pdfrwt>
<totfact> 0.17151429E+00</totfact>
</mgrwt>
</event>
<event>
12    1  0.1556559E-007  0.1588374E+04  0.7818608E-02  0.8827722E-01
          1   -1    0    0  501    0  0.00000000000E+00  0.00000000000E+00  0.48296925287E+03  0.48296925287E+03  0.00000000000E+00 0. -1.
         -1   -1    0    0    0  501 -0.00000000000E+00 -0.00000000000E+00 -0.13059488298E+04  0.13059488298E+04  0.00000000000E+00 0.  1.
         23    2    1    2    0    0 -0.30486011710E+03  0.37177786857E+03 -0.19865131120E+02  0.48983762691E+03  0.91584948245E+02 0.  0.
        254    2    1    2    0    0  0.30486011710E+03 -0.37177786857E+03 -0.80311444586E+03  0.12990804558E+04  0.90081004821E+03 0.  0.
        -24    2    4    4    0    0 -0.13429353850E+02 -0.34016811156E+03  0.78173870327E+02  0.35813479433E+03  0.79086568030E+02 0.  0.
         24    2    4    4    0    0  0.31828947095E+03 -0.31609757014E+02 -0.88128831618E+03  0.94094566147E+03  0.80014233404E+02 0.  0.
         11    1    3    3    0    0 -0.20775400874E+03  0.22531832593E+03 -0.52957450894E+02  0.31102181235E+03  0.00000000000E+00 0.  1.
        -11    1    3    3    0    0 -0.97106108354E+02  0.14645954264E+03  0.33092319774E+02  0.17881581456E+03  0.00000000000E+00 0. -1.
          2    1    6    6  502    0  0.22616861412E+03 -0.28476148710E+02 -0.51422080988E+03  0.56248215471E+03  0.00000000000E+00 0. -1.
          1    1    5    5  503    0 -0.39710212773E+02 -0.27503257492E+03  0.74989571720E+02  0.28782504084E+03  0.00000000000E+00 0. -1.
         -4    1    5    5    0  503  0.26280858923E+02 -0.65135536638E+02  0.31842986071E+01  0.70309753495E+02  0.00000000000E+00 0.  1.
         -1    1    6    6    0  502  0.92120856828E+02 -0.31336083036E+01 -0.36706750631E+03  0.37846350676E+03  0.00000000000E+00 0.  1.
<mgrwt>
<rscale>  0 0.15883742E+04</rscale>
<asrwt>0</asrwt>
<pdfrwt beam="1">  1        1 0.74302964E-01 0.15883742E+04</pdfrwt>
<pdfrwt beam="2">  1       -1 0.20091520E+00 0.15883742E+04</pdfrwt>
<totfact> 0.66222268E+00</totfact>
</mgrwt>
</event>
<event>
12    1  0.1556559E-007  0.1515573E+04  0.7818608E-02  0.8874163E-01
          2   -1    0    0  501    0  0.00000000000E+00  0.00000000000E+00  0.12938020069E+04  0.12938020069E+04  0.00000000000E+00 0. -1.
         -2   -1    0    0    0  501 -0.00000000000E+00 -0.00000000000E+00 -0.44383924314E+03  0.44383924314E+03  0.00000000000E+00 0.  1.
         23    2    1    2    0    0 -0.40209952645E+03 -0.19168471499E+03  0.55894847837E+02  0.45808182039E+03  0.91036591658E+02 0.  0.
        254    2    1    2    0    0  0.40209952645E+03  0.19168471499E+03  0.79406791587E+03  0.12795594296E+04  0.89905584907E+03 0.  0.
        -24    2    4    4    0    0  0.38922227783E+03 -0.79384395294E+00 -0.57310790378E+02  0.40299014161E+03  0.87303584055E+02 0.  0.
         24    2    4    4    0    0  0.12877248621E+02  0.19247855894E+03  0.85137870625E+03  0.87656928800E+03  0.79461915576E+02 0.  0.
         11    1    3    3    0    0 -0.35050185720E+03 -0.14069699862E+03  0.22871354160E+02  0.37837850912E+03  0.00000000000E+00 0. -1.
        -11    1    3    3    0    0 -0.51597669257E+02 -0.50987716369E+02  0.33023493677E+02  0.79703311273E+02  0.00000000000E+00 0.  1.
          2    1    6    6  502    0  0.11768888830E+02  0.16253921144E+03  0.80518238498E+03  0.82150847535E+03  0.00000000000E+00 0. -1.
          3    1    5    5  503    0  0.29126716397E+03  0.11778636628E+02 -0.78699494747E+02  0.30194189435E+03  0.00000000000E+00 0. -1.
         -4    1    5    5    0  503  0.97955113864E+02 -0.12572480581E+02  0.21388704369E+02  0.10104824726E+03  0.00000000000E+00 0.  1.
         -1    1    6    6    0  502  0.11083597905E+01  0.29939347505E+02  0.46196321276E+02  0.55060812652E+02  0.00000000000E+00 0.  1.
<mgrwt>
<rscale>  0 0.15155726E+04</rscale>
<asrwt>0</asrwt>
<pdfrwt beam="1">  1        2 0.19904646E+00 0.15155726E+04</pdfrwt>
<pdfrwt beam="2">  1       -2 0.68282961E-01 0.15155726E+04</pdfrwt>
<totfact> 0.31570200E+01</totfact>
</mgrwt>
</event>
<event>
12    1  0.1556559E-007  0.2110251E+04  0.7818608E-02  0.8556741E-01
          1   -1    0    0  501    0  0.00000000000E+00  0.00000000000E+00  0.26280302345E+04  0.26280302345E+04  0.00000000000E+00 0. -1.
         -1   -1    0    0    0  501 -0.00000000000E+00 -0.00000000000E+00 -0.42362128996E+03  0.42362128996E+03  0.00000000000E+00 0.  1.
         23    2    1    2    0    0 -0.23787066821E+03  0.29437972452E+03 -0.21447153861E+03  0.44450518615E+03  0.91350657589E+02 0.  0.
        254    2    1    2    0    0  0.23787066821E+03 -0.29437972452E+03  0.24188804831E+04  0.26071463383E+04  0.89609562023E+03 0.  0.
        -24    2    4    4    0    0 -0.20126900199E+03 -0.37950475424E+03  0.17093125824E+04  0.17642622507E+04  0.79616050436E+02 0.  0.
         24    2    4    4    0    0  0.43913967020E+03  0.85125029722E+02  0.70956790077E+03  0.84288408756E+03  0.82928032856E+02 0.  0.
         13    1    3    3    0    0 -0.14722458608E+03  0.16920090664E+03 -0.17637107509E+03  0.28532574662E+03  0.00000000000E+00 0.  1.
        -13    1    3    3    0    0 -0.90646082123E+02  0.12517881788E+03 -0.38100463517E+02  0.15917943953E+03  0.00000000000E+00 0. -1.
          2    1    6    6  502    0  0.41739212711E+03  0.99170440127E+02  0.66668448904E+03  0.79279201049E+03  0.00000000000E+00 0. -1.
          1    1    5    5  503    0 -0.20486933239E+03 -0.37804958708E+03  0.16596384022E+04  0.17144365138E+04  0.00000000000E+00 0. -1.
         -2    1    5    5    0  503  0.36003303958E+01 -0.14551671530E+01  0.49674180142E+02  0.49825736956E+02  0.00000000000E+00 0.  1.
         -1    1    6    6    0  502  0.21747543090E+02 -0.14045410405E+02  0.42883411728E+02  0.50092077071E+02  0.00000000000E+00 0.  1.
<mgrwt>
<rscale>  0 0.21102508E+04</rscale>
<asrwt>0</asrwt>
<pdfrwt beam="1">  1        1 0.40431233E+00 0.21102508E+04</pdfrwt>
<pdfrwt beam="2">  1       -1 0.65172508E-01 0.21102508E+04</pdfrwt>
<totfact> 0.24197271E+00</totfact>
</mgrwt>
</event>
<event>
12    1  0.1556559E-007  0.1460463E+04  0.7818608E-02  0.8911179E-01
         -2   -1    0    0    0  501 -0.00000000000E+00  0.00000000000E+00  0.56054831346E+03  0.56054831346E+03  0.00000000000E+00 0.  1.
          2   -1    0    0  501    0  0.00000000000E+00 -0.00000000000E+00 -0.95127970569E+03  0.95127970569E+03  0.00000000000E+00 0. -1.
         23    2    1    2    0    0  0.39296964891E+03 -0.89038477941E+02 -0.32854252331E+03  0.52809303068E+03  0.92677202781E+02 0.  0.
        254    2    1    2    0    0 -0.39296964891E+03  0.89038477941E+02 -0.62188868923E+02  0.98373498847E+03  0.89527318546E+03 0.  0.
        -24    2    4    4    0    0 -0.41795312150E+03 -0.33395160426E+03 -0.99102826677E+02  0.55096798400E+03  0.86809350783E+02 0.  0.
         24    2    4    4    0    0  0.24983472589E+02  0.42299008220E+03  0.36913957753E+02  0.43276700447E+03  0.79874002871E+02 0.  0.
         13    1    3    3    0    0  0.58750922241E+02  0.19435481105E+02 -0.54984530166E+02  0.82781080855E+02  0.00000000000E+00 0.  1.
        -13    1    3    3    0    0  0.33421872667E+03 -0.10847395905E+03 -0.27355799314E+03  0.44531194983E+03  0.00000000000E+00 0. -1.
          2    1    6    6  502    0 -0.21654394566E+02  0.16619371222E+03  0.37620760551E+02  0.17176898558E+03  0.00000000000E+00 0. -1.
          3    1    5    5  503    0 -0.34341722568E+02 -0.22271829973E+02 -0.32431490379E+02  0.52222503650E+02  0.00000000000E+00 0. -1.
         -4    1    5    5    0  503 -0.38361139893E+03 -0.31167977429E+03 -0.66671336297E+02  0.49874548035E+03  0.00000000000E+00 0.  1.
         -1    1    6    6    0  502  0.46637867155E+02  0.25679636999E+03 -0.70680279778E+00  0.26099801888E+03  0.00000000000E+00 0.  1.
<mgrwt>
<rscale>  0 0.14604633E+04</rscale>
<asrwt>0</asrwt>
<pdfrwt beam="1">  1        2 0.14635072E+00 0.14604633E+04</pdfrwt>
<pdfrwt beam="2">  1       -2 0.86238203E-01 0.14604633E+04</pdfrwt>
<totfact> 0.30619317E+01</totfact>
</mgrwt>
</event>
<event>
12    1  0.1556559E-007  0.1104750E+04  0.7818608E-02  0.9200574E-01
         -1   -1    0    0    0  501 -0.00000000000E+00  0.00000000000E+00  0.23159808681E+03  0.23159808681E+03  0.00000000000E+00 0.  1.
          1   -1    0    0  501    0  0.00000000000E+00 -0.00000000000E+00 -0.13174471941E+04  0.13174471941E+04  0.00000000000E+00 0. -1.
         23    2    1    2    0    0  0.47378870977E+02 -0.13834038020E+03 -0.34598223486E+03  0.38664690307E+03  0.91702249741E+02 0.  0.
        254    2    1    2    0    0 -0.47378870977E+02  0.13834038020E+03 -0.73986687243E+03  0.11623983779E+04  0.88452483385E+03 0.  0.
        -24    2    4    4    0    0  0.17317763545E+03  0.15077558622E+03 -0.86364131549E+03  0.89715301580E+03  0.79268159528E+02 0.  0.
         24    2    4    4    0    0 -0.22055650643E+03 -0.12435206027E+02  0.12377444306E+03  0.26524536205E+03  0.78963171544E+02 0.  0.
         11    1    3    3    0    0  0.69400547007E+02 -0.10705113042E+03 -0.30485469447E+03  0.33047354689E+03  0.00000000000E+00 0. -1.
        -11    1    3    3    0    0 -0.22021676030E+02 -0.31289249779E+02 -0.41127540389E+02  0.56173356188E+02  0.00000000000E+00 0.  1.
          4    1    6    6  502    0 -0.51771075854E+02  0.48813491708E+01  0.70109867663E+02  0.87289549252E+02  0.00000000000E+00 0. -1.
          3    1    5    5  503    0  0.55161349879E+02  0.76315095291E+02 -0.47438853674E+03  0.48364372433E+03  0.00000000000E+00 0. -1.
         -4    1    5    5    0  503  0.11801628557E+03  0.74460490931E+02 -0.38925277875E+03  0.41350929147E+03  0.00000000000E+00 0.  1.
         -3    1    6    6    0  502 -0.16878543057E+03 -0.17316555198E+02  0.53664575395E+02  0.17795581280E+03  0.00000000000E+00 0.  1.
<mgrwt>
<rscale>  0 0.11047502E+04</rscale>
<asrwt>0</asrwt>
<pdfrwt beam="1">  1        1 0.20268418E+00 0.11047502E+04</pdfrwt>
<pdfrwt beam="2">  1       -1 0.35630475E-01 0.11047502E+04</pdfrwt>
<totfact> 0.65756502E+01</totfact>
</mgrwt>
</event>
<event>
12    1  0.1556559E-007  0.1642134E+04  0.7818608E-02  0.8795073E-01
          1   -1    0    0  501    0  0.00000000000E+00  0.00000000000E+00  0.45686133874E+03  0.45686133874E+03  0.00000000000E+00 0.  1.
         -1   -1    0    0    0  501 -0.00000000000E+00 -0.00000000000E+00 -0.14756143220E+04  0.14756143220E+04  0.00000000000E+00 0. -1.
         23    2    1    2    0    0 -0.23559299831E+03  0.35975987554E+02  0.24710568682E+03  0.35489432220E+03  0.89946800605E+02 0.  0.
        254    2    1    2    0    0  0.23559299831E+03 -0.35975987554E+02 -0.12658586701E+04  0.15775813386E+04  0.91080534396E+03 0.  0.
        -24    2    4    4    0    0 -0.46796983024E+02 -0.23850713151E+03  0.84426019627E+01  0.25438133365E+03  0.74585360362E+02 0.  0.
         24    2    4    4    0    0  0.28238998133E+03  0.20253114395E+03 -0.12743012721E+04  0.13232000049E+04  0.79066776915E+02 0.  0.
         13    1    3    3    0    0 -0.40268810105E+02  0.19837289926E+02  0.77811958705E+01  0.45559215841E+02  0.00000000000E+00 0. -1.
        -13    1    3    3    0    0 -0.19532418820E+03  0.16138697629E+02  0.23932449095E+03  0.30933510636E+03  0.00000000000E+00 0.  1.
          4    1    6    6  502    0  0.94810561806E+02  0.11373099091E+03 -0.48772773922E+03  0.50970788549E+03  0.00000000000E+00 0. -1.
          3    1    5    5  503    0 -0.46761849220E+02 -0.10233999921E+03 -0.22494813617E+02  0.11474390015E+03  0.00000000000E+00 0. -1.
         -4    1    5    5    0  503 -0.35133804267E-01 -0.13616713230E+03  0.30937415580E+02  0.13963743350E+03  0.00000000000E+00 0.  1.
         -3    1    6    6    0  502  0.18757941953E+03  0.88800153042E+02 -0.78657353283E+03  0.81349211942E+03  0.00000000000E+00 0.  1.
<mgrwt>
<rscale>  0 0.16421341E+04</rscale>
<asrwt>0</asrwt>
<pdfrwt beam="1">  1        1 0.70286361E-01 0.16421341E+04</pdfrwt>
<pdfrwt beam="2">  1       -1 0.22701758E+00 0.16421341E+04</pdfrwt>
<totfact> 0.47386515E+00</totfact>
</mgrwt>
</event>
<event>
12    1  0.1556559E-007  0.1650428E+04  0.7818608E-02  0.8790153E-01
         -1   -1    0    0    0  501 -0.00000000000E+00  0.00000000000E+00  0.56165871488E+03  0.56165871488E+03  0.00000000000E+00 0.  1.
          1   -1    0    0  501    0  0.00000000000E+00 -0.00000000000E+00 -0.12124409277E+04  0.12124409277E+04  0.00000000000E+00 0. -1.
         23    2    1    2    0    0  0.15879771026E+03  0.47001386306E+03  0.11462616325E+03  0.51939288724E+03  0.10246984810E+03 0.  0.
        254    2    1    2    0    0 -0.15879771026E+03 -0.47001386306E+03 -0.76540837602E+03  0.12547067553E+04  0.86157374348E+03 0.  0.
        -24    2    4    4    0    0 -0.45423717402E+03 -0.62462581261E+02 -0.23912440662E+03  0.52206092462E+03  0.71652933269E+02 0.  0.
         24    2    4    4    0    0  0.29543946376E+03 -0.40755128180E+03 -0.52628396940E+03  0.73264583068E+03  0.80078541008E+02 0.  0.
         13    1    3    3    0    0  0.97571080196E+02  0.34173337532E+03  0.12534528498E+03  0.37684646205E+03  0.00000000000E+00 0. -1.
        -13    1    3    3    0    0  0.61226630067E+02  0.12828048774E+03 -0.10719121732E+02  0.14254642519E+03  0.00000000000E+00 0.  1.
          4    1    6    6  502    0  0.28032487390E+03 -0.40673277339E+03 -0.51608956430E+03  0.71439626416E+03  0.00000000000E+00 0. -1.
          1    1    5    5  503    0 -0.42989188112E+03 -0.61296307749E+02 -0.24264575873E+03  0.49743465001E+03  0.00000000000E+00 0. -1.
         -2    1    5    5    0  503 -0.24345292902E+02 -0.11662735117E+01  0.35213521103E+01  0.24626274608E+02  0.00000000000E+00 0.  1.
         -3    1    6    6    0  502  0.15114589860E+02 -0.81850840251E+00 -0.10194405105E+02  0.18249566518E+02  0.00000000000E+00 0.  1.
<mgrwt>
<rscale>  0 0.16504278E+04</rscale>
<asrwt>0</asrwt>
<pdfrwt beam="1">  1        1 0.18652937E+00 0.16504278E+04</pdfrwt>
<pdfrwt beam="2">  1       -1 0.86409034E-01 0.16504278E+04</pdfrwt>
<totfact> 0.13209525E+01</totfact>
</mgrwt>
</event>
<event>
12    1  0.1556559E-007  0.2380781E+04  0.7818608E-02  0.8446734E-01
          2   -1    0    0  501    0  0.00000000000E+00  0.00000000000E+00  0.44144878569E+04  0.44144878569E+04  0.00000000000E+00 0. -1.
         -2   -1    0    0    0  501 -0.00000000000E+00 -0.00000000000E+00 -0.32099535422E+03  0.32099535422E+03  0.00000000000E+00 0.  1.
         23    2    1    2    0    0 -0.88375757985E+03 -0.36352650260E+03  0.24495679897E+04  0.26308989932E+04  0.89817582271E+02 0.  0.
        254    2    1    2    0    0  0.88375757985E+03  0.36352650260E+03  0.16439245129E+04  0.21045842179E+04  0.90200218845E+03 0.  0.
        -24    2    4    4    0    0  0.37470961425E+03  0.34660455468E+03  0.14735351399E+04  0.15614110178E+04  0.78463658189E+02 0.  0.
         24    2    4    4    0    0  0.50904796560E+03  0.16921947922E+02  0.17038937305E+03  0.54317320011E+03  0.81168979735E+02 0.  0.
         11    1    3    3    0    0 -0.26714975170E+03 -0.11920987194E+03  0.86478218324E+03  0.91292289260E+03  0.00000000000E+00 0.  1.
        -11    1    3    3    0    0 -0.61660782815E+03 -0.24431663066E+03  0.15847858065E+04  0.17179761006E+04  0.00000000000E+00 0. -1.
          2    1    6    6  502    0  0.27731389045E+03  0.22515460285E+02  0.13297939146E+03  0.30837227233E+03  0.00000000000E+00 0. -1.
          3    1    5    5  503    0  0.76815955770E+02  0.10652772519E+03  0.44708448032E+03  0.46597572881E+03  0.00000000000E+00 0. -1.
         -4    1    5    5    0  503  0.29789365848E+03  0.24007682949E+03  0.10264506596E+04  0.10954352890E+04  0.00000000000E+00 0.  1.
         -1    1    6    6    0  502  0.23173407515E+03 -0.55935123624E+01  0.37409981588E+02  0.23480092778E+03  0.00000000000E+00 0.  1.
<mgrwt>
<rscale>  0 0.23807815E+04</rscale>
<asrwt>0</asrwt>
<pdfrwt beam="1">  1        2 0.67915194E+00 0.23807815E+04</pdfrwt>
<pdfrwt beam="2">  1       -2 0.49383904E-01 0.23807815E+04</pdfrwt>
<totfact> 0.52378431E-01</totfact>
</mgrwt>
</event>
<event>
12    1  0.1556559E-007  0.1203474E+04  0.7818608E-02  0.9109821E-01
          2   -1    0    0  501    0  0.00000000000E+00  0.00000000000E+00  0.14951226261E+04  0.14951226261E+04  0.00000000000E+00 0.  1.
         -2   -1    0    0    0  501 -0.00000000000E+00 -0.00000000000E+00 -0.24217913861E+03  0.24217913861E+03  0.00000000000E+00 0. -1.
         23    2    1    2    0    0  0.68282838441E+02 -0.66234988159E+02 -0.28176996883E+02  0.13563337667E+03  0.92481619972E+02 0.  0.
        254    2    1    2    0    0 -0.68282838441E+02  0.66234988159E+02  0.12811204844E+04  0.16016683880E+04  0.95656798505E+03 0.  0.
        -24    2    4    4    0    0  0.24905756700E+03 -0.32654351152E+03  0.78489498325E+03  0.88920485432E+03  0.77232128140E+02 0.  0.
         24    2    4    4    0    0 -0.31734040544E+03  0.39277849968E+03  0.49622550110E+03  0.71246353369E+03  0.79904043388E+02 0.  0.
         11    1    3    3    0    0  0.77271647525E+02 -0.38674103118E+02 -0.49557710674E+02  0.99612049725E+02  0.00000000000E+00 0. -1.
        -11    1    3    3    0    0 -0.89888090839E+01 -0.27560885041E+02  0.21380713790E+02  0.36021326949E+02  0.00000000000E+00 0.  1.
          4    1    6    6  502    0 -0.13773836237E+02  0.12811343616E+02  0.46085755627E+02  0.49776962157E+02  0.00000000000E+00 0. -1.
          3    1    5    5  503    0  0.34959909291E+02 -0.19887568202E+02  0.46396541314E+02  0.61403173147E+02  0.00000000000E+00 0. -1.
         -4    1    5    5    0  503  0.21409765771E+03 -0.30665594332E+03  0.73849844194E+03  0.82780168117E+03  0.00000000000E+00 0.  1.
         -3    1    6    6    0  502 -0.30356656921E+03  0.37996715607E+03  0.45013974548E+03  0.66268657153E+03  0.00000000000E+00 0.  1.
<mgrwt>
<rscale>  0 0.12034742E+04</rscale>
<asrwt>0</asrwt>
<pdfrwt beam="1">  1        2 0.23001886E+00 0.12034742E+04</pdfrwt>
<pdfrwt beam="2">  1       -2 0.37258330E-01 0.12034742E+04</pdfrwt>
<totfact> 0.85543668E+01</totfact>
</mgrwt>
</event>
<event>
12    1  0.1556559E-007  0.1901670E+04  0.7818608E-02  0.8654025E-01
          2   -1    0    0  501    0  0.00000000000E+00  0.00000000000E+00  0.22659329255E+04  0.22659329255E+04  0.00000000000E+00 0. -1.
         -2   -1    0    0    0  501 -0.00000000000E+00 -0.00000000000E+00 -0.39899124040E+03  0.39899124040E+03  0.00000000000E+00 0.  1.
         23    2    1    2    0    0 -0.39627520054E+03  0.25134017947E+03  0.14897555297E+04  0.15645907514E+04  0.91470000382E+02 0.  0.
        254    2    1    2    0    0  0.39627520054E+03 -0.25134017947E+03  0.37718615542E+03  0.11003334144E+04  0.92100939556E+03 0.  0.
        -24    2    4    4    0    0  0.15047130611E+03  0.80071566872E+02 -0.27013394282E+03  0.32876139708E+03  0.77837262037E+02 0.  0.
         24    2    4    4    0    0  0.24580389442E+03 -0.33141174634E+03  0.64732009823E+03  0.77157201736E+03  0.77760968781E+02 0.  0.
         13    1    3    3    0    0 -0.30675928000E+03  0.22986359090E+03  0.12620772512E+04  0.13190062602E+04  0.00000000000E+00 0. -1.
        -13    1    3    3    0    0 -0.89515920535E+02  0.21476588565E+02  0.22767827843E+03  0.24558449128E+03  0.00000000000E+00 0.  1.
          2    1    6    6  502    0  0.53788547046E+02 -0.37541724604E+02  0.70214607723E+02  0.96086835816E+02  0.00000000000E+00 0. -1.
          1    1    5    5  503    0  0.14409826475E+02  0.44281489579E+02 -0.72440624065E+02  0.86116998515E+02  0.00000000000E+00 0. -1.
         -2    1    5    5    0  503  0.13606147964E+03  0.35790077292E+02 -0.19769331875E+03  0.24264439856E+03  0.00000000000E+00 0.  1.
         -1    1    6    6    0  502  0.19201534738E+03 -0.29387002173E+03  0.57710549051E+03  0.67548518154E+03  0.00000000000E+00 0.  1.
<mgrwt>
<rscale>  0 0.19016702E+04</rscale>
<asrwt>0</asrwt>
<pdfrwt beam="1">  1        2 0.34860506E+00 0.19016702E+04</pdfrwt>
<pdfrwt beam="2">  1       -2 0.61383269E-01 0.19016702E+04</pdfrwt>
<totfact> 0.10955312E+01</totfact>
</mgrwt>
</event>
<event>
12    1  0.1556559E-007  0.1526450E+04  0.7818608E-02  0.8867052E-01
          2   -1    0    0  501    0  0.00000000000E+00  0.00000000000E+00  0.36337085752E+04  0.36337085752E+04  0.00000000000E+00 0.  1.
         -2   -1    0    0    0  501 -0.00000000000E+00 -0.00000000000E+00 -0.16030792013E+03  0.16030792013E+03  0.00000000000E+00 0. -1.
         23    2    1    2    0    0 -0.25086424028E+03  0.40819437408E+03  0.96755761866E+03  0.10842102930E+04  0.98937858942E+02 0.  0.
        254    2    1    2    0    0  0.25086424028E+03 -0.40819437408E+03  0.25058430364E+04  0.27098062023E+04  0.91337003290E+03 0.  0.
        -24    2    4    4    0    0  0.10696340740E+03 -0.12216873738E+03 -0.93437622895E+00  0.18147412663E+03  0.81028480554E+02 0.  0.
         24    2    4    4    0    0  0.14390083288E+03 -0.28602563670E+03  0.25067774126E+04  0.25283320757E+04  0.77536920078E+02 0.  0.
         13    1    3    3    0    0 -0.13285149692E+01  0.15945924618E+01 -0.24648525058E+01  0.32222934407E+01  0.00000000000E+00 0. -1.
        -13    1    3    3    0    0 -0.24953572531E+03  0.40659978161E+03  0.97002247117E+03  0.10809879996E+04  0.00000000000E+00 0.  1.
          4    1    6    6  502    0  0.67412508028E+02 -0.21069799835E+03  0.15994978178E+04  0.16147233081E+04  0.00000000000E+00 0. -1.
          3    1    5    5  503    0  0.96289438797E+02 -0.98090156390E+02 -0.31611795609E+02  0.14104127207E+03  0.00000000000E+00 0. -1.
         -4    1    5    5    0  503  0.10673968605E+02 -0.24078580988E+02  0.30677419380E+02  0.40432854562E+02  0.00000000000E+00 0.  1.
         -3    1    6    6    0  502  0.76488324853E+02 -0.75327638350E+02  0.90727959486E+03  0.91360876757E+03  0.00000000000E+00 0.  1.
<mgrwt>
<rscale>  0 0.15264498E+04</rscale>
<asrwt>0</asrwt>
<pdfrwt beam="1">  1        2 0.55903202E+00 0.15264498E+04</pdfrwt>
<pdfrwt beam="2">  1       -2 0.24662760E-01 0.15264498E+04</pdfrwt>
<totfact> 0.94014748E+00</totfact>
</mgrwt>
</event>
<event>
12    1  0.1556559E-007  0.1027751E+04  0.7818608E-02  0.9278621E-01
          1   -1    0    0  501    0  0.00000000000E+00  0.00000000000E+00  0.29133620596E+03  0.29133620596E+03  0.00000000000E+00 0. -1.
         -1   -1    0    0    0  501 -0.00000000000E+00 -0.00000000000E+00 -0.90640323121E+03  0.90640323121E+03  0.00000000000E+00 0.  1.
         23    2    1    2    0    0  0.57339669716E+02 -0.22899351585E+02 -0.15007415234E+02  0.11356635247E+03  0.94126913656E+02 0.  0.
        254    2    1    2    0    0 -0.57339669716E+02  0.22899351585E+02 -0.60005961001E+03  0.10841730847E+04  0.90085932531E+03 0.  0.
        -24    2    4    4    0    0 -0.28484799508E+03 -0.64245751987E+02 -0.73424961717E+03  0.79483487825E+03  0.85872500888E+02 0.  0.
         24    2    4    4    0    0  0.22750832536E+03  0.87145103571E+02  0.13419000716E+03  0.28933820646E+03  0.79720339381E+02 0.  0.
         11    1    3    3    0    0  0.12025252931E+02  0.21648025292E+02  0.27583650739E+02  0.37068875019E+02  0.00000000000E+00 0. -1.
        -11    1    3    3    0    0  0.45314416785E+02 -0.44547376877E+02 -0.42591065972E+02  0.76497477447E+02  0.00000000000E+00 0.  1.
          4    1    6    6  502    0  0.23343385374E+03  0.88423818502E+02  0.12745359968E+03  0.28027585665E+03  0.00000000000E+00 0. -1.
          1    1    5    5  503    0 -0.26967760833E+03 -0.51830846430E+02 -0.60888817769E+03  0.66795004454E+03  0.00000000000E+00 0. -1.
         -2    1    5    5    0  503 -0.15170386747E+02 -0.12414905557E+02 -0.12536143948E+03  0.12688483370E+03  0.00000000000E+00 0.  1.
         -3    1    6    6    0  502 -0.59255283744E+01 -0.12787149306E+01  0.67364074798E+01  0.90623498125E+01  0.00000000000E+00 0.  1.
<mgrwt>
<rscale>  0 0.10277511E+04</rscale>
<asrwt>0</asrwt>
<pdfrwt beam="1">  1        1 0.44820956E-01 0.10277511E+04</pdfrwt>
<pdfrwt beam="2">  1       -1 0.13944665E+00 0.10277511E+04</pdfrwt>
<totfact> 0.38628986E+01</totfact>
</mgrwt>
</event>
<event>
12    1  0.1556559E-007  0.1328540E+04  0.7818608E-02  0.9007234E-01
          2   -1    0    0  501    0  0.00000000000E+00  0.00000000000E+00  0.11432122094E+04  0.11432122094E+04  0.00000000000E+00 0. -1.
         -2   -1    0    0    0  501 -0.00000000000E+00 -0.00000000000E+00 -0.38597788611E+03  0.38597788611E+03  0.00000000000E+00 0.  1.
         23    2    1    2    0    0  0.27773994582E+03  0.13554110835E+03  0.13744669960E+02  0.32242197958E+03  0.90863344695E+02 0.  0.
        254    2    1    2    0    0 -0.27773994582E+03 -0.13554110835E+03  0.74348965335E+03  0.12067681159E+04  0.89888906516E+03 0.  0.
        -24    2    4    4    0    0  0.42516371648E+02 -0.47102785481E+03  0.38267602295E+03  0.61360872840E+03  0.79999069716E+02 0.  0.
         24    2    4    4    0    0 -0.32025631747E+03  0.33548674646E+03  0.36081363041E+03  0.59315938755E+03  0.80846256676E+02 0.  0.
         13    1    3    3    0    0  0.16602502265E+03  0.62898124649E+02 -0.34198030069E+02  0.18080372643E+03  0.00000000000E+00 0.  1.
        -13    1    3    3    0    0  0.11171492316E+03  0.72642983701E+02  0.47942700030E+02  0.14161825315E+03  0.00000000000E+00 0. -1.
          4    1    6    6  502    0 -0.16417502877E+03  0.14059300256E+03  0.12485487389E+03  0.24961685034E+03  0.00000000000E+00 0. -1.
          3    1    5    5  503    0  0.81606039958E+01 -0.32702424258E+02  0.51515438295E+01  0.34096662795E+02  0.00000000000E+00 0. -1.
         -4    1    5    5    0  503  0.34355767652E+02 -0.43832543056E+03  0.37752447912E+03  0.57951206560E+03  0.00000000000E+00 0.  1.
         -3    1    6    6    0  502 -0.15608128870E+03  0.19489374390E+03  0.23595875651E+03  0.34354253721E+03  0.00000000000E+00 0.  1.
<mgrwt>
<rscale>  0 0.13285400E+04</rscale>
<asrwt>0</asrwt>
<pdfrwt beam="1">  1        2 0.17587880E+00 0.13285400E+04</pdfrwt>
<pdfrwt beam="2">  1       -2 0.59381214E-01 0.13285400E+04</pdfrwt>
<totfact> 0.53080946E+01</totfact>
</mgrwt>
</event>
<event>
12    1  0.1556559E-007  0.2611482E+04  0.7818608E-02  0.8364311E-01
         -1   -1    0    0    0  501 -0.00000000000E+00  0.00000000000E+00  0.18651393268E+04  0.18651393268E+04  0.00000000000E+00 0.  1.
          1   -1    0    0  501    0  0.00000000000E+00 -0.00000000000E+00 -0.91411921959E+03  0.91411921959E+03  0.00000000000E+00 0. -1.
         23    2    1    2    0    0 -0.32174692891E+01 -0.17288389867E+03 -0.78796411640E+03  0.81191002935E+03  0.91712880778E+02 0.  0.
        254    2    1    2    0    0  0.32174692891E+01  0.17288389867E+03  0.17389842236E+04  0.19673485170E+04  0.90360105301E+03 0.  0.
        -24    2    4    4    0    0  0.30735316448E+03 -0.23158406336E+03  0.93213534505E+03  0.10114228332E+04  0.77477093350E+02 0.  0.
         24    2    4    4    0    0 -0.30413569519E+03  0.40446796203E+03  0.80684887851E+03  0.95592568375E+03  0.81828764524E+02 0.  0.
         13    1    3    3    0    0 -0.32616049006E+02 -0.14399428406E+03 -0.51120182821E+03  0.53209535768E+03  0.00000000000E+00 0.  1.
        -13    1    3    3    0    0  0.29398579717E+02 -0.28889614614E+02 -0.27676228818E+03  0.27981467167E+03  0.00000000000E+00 0. -1.
          2    1    6    6  502    0 -0.20485513318E+03  0.32933472683E+03  0.62397688013E+03  0.73469322497E+03  0.00000000000E+00 0. -1.
          1    1    5    5  503    0  0.60727504655E+02 -0.12555460108E+02  0.17069279381E+03  0.18160809249E+03  0.00000000000E+00 0. -1.
         -2    1    5    5    0  503  0.24662565983E+03 -0.21902860325E+03  0.76144255125E+03  0.82981474076E+03  0.00000000000E+00 0.  1.
         -1    1    6    6    0  502 -0.99280562009E+02  0.75133235198E+02  0.18287199838E+03  0.22123245877E+03  0.00000000000E+00 0.  1.
<mgrwt>
<rscale>  0 0.26114821E+04</rscale>
<asrwt>0</asrwt>
<pdfrwt beam="1">  1        1 0.14063373E+00 0.26114821E+04</pdfrwt>
<pdfrwt beam="2">  1       -1 0.28694451E+00 0.26114821E+04</pdfrwt>
<totfact> 0.62560548E-01</totfact>
</mgrwt>
</event>
<event>
12    1  0.1556559E-007  0.1270056E+04  0.7818608E-02  0.9053654E-01
          2   -1    0    0  501    0  0.00000000000E+00  0.00000000000E+00  0.91746598968E+03  0.91746598968E+03  0.00000000000E+00 0. -1.
         -2   -1    0    0    0  501 -0.00000000000E+00 -0.00000000000E+00 -0.43953758136E+03  0.43953758136E+03  0.00000000000E+00 0.  1.
         23    2    1    2    0    0  0.11059939997E+03 -0.53840026180E+02 -0.17262392540E+03  0.23338202818E+03  0.97658464886E+02 0.  0.
        254    2    1    2    0    0 -0.11059939997E+03  0.53840026180E+02  0.65055233372E+03  0.11236215429E+04  0.90784142722E+03 0.  0.
        -24    2    4    4    0    0  0.28169091522E+03 -0.26461552288E+03  0.20332442514E+03  0.44395991897E+03  0.79927724397E+02 0.  0.
         24    2    4    4    0    0 -0.39229031519E+03  0.31845554906E+03  0.44722790858E+03  0.67966162389E+03  0.81372554717E+02 0.  0.
         13    1    3    3    0    0  0.12901872443E+03 -0.45291714790E+02 -0.15144478140E+03  0.20404090888E+03  0.00000000000E+00 0.  1.
        -13    1    3    3    0    0 -0.18419324462E+02 -0.85483113903E+01 -0.21179143994E+02  0.29341119297E+02  0.00000000000E+00 0. -1.
          2    1    6    6  502    0 -0.63172314249E+02  0.44082650592E+02  0.33384133505E+02  0.83955474751E+02  0.00000000000E+00 0. -1.
          3    1    5    5  503    0  0.46243409169E+02 -0.70392892917E+02  0.15668731506E+02  0.85668672289E+02  0.00000000000E+00 0. -1.
         -4    1    5    5    0  503  0.23544750605E+03 -0.19422262997E+03  0.18765569363E+03  0.35829124668E+03  0.00000000000E+00 0.  1.
         -1    1    6    6    0  502 -0.32911800094E+03  0.27437289847E+03  0.41384377507E+03  0.59570614914E+03  0.00000000000E+00 0.  1.
<mgrwt>
<rscale>  0 0.12700563E+04</rscale>
<asrwt>0</asrwt>
<pdfrwt beam="1">  1        2 0.14114861E+00 0.12700563E+04</pdfrwt>
<pdfrwt beam="2">  1       -2 0.67621167E-01 0.12700563E+04</pdfrwt>
<totfact> 0.56195347E+01</totfact>
</mgrwt>
</event>
<event>
12    1  0.1556559E-007  0.1818851E+04  0.7818608E-02  0.8696339E-01
          1   -1    0    0  501    0  0.00000000000E+00  0.00000000000E+00  0.57608314489E+03  0.57608314489E+03  0.00000000000E+00 0. -1.
         -1   -1    0    0    0  501 -0.00000000000E+00 -0.00000000000E+00 -0.14356510463E+04  0.14356510463E+04  0.00000000000E+00 0.  1.
         23    2    1    2    0    0 -0.45527829367E+02 -0.65797055403E+03 -0.15424122846E+03  0.68888595935E+03  0.12560045862E+03 0.  0.
        254    2    1    2    0    0  0.45527829367E+02  0.65797055403E+03 -0.70532667299E+03  0.13228482319E+04  0.90412592914E+03 0.  0.
        -24    2    4    4    0    0 -0.49107809330E+02 -0.11645937227E+01 -0.64256248976E+03  0.64916087267E+03  0.78168741500E+02 0.  0.
         24    2    4    4    0    0  0.94635638697E+02  0.65913514776E+03 -0.62764183238E+02  0.67368735921E+03  0.80624240434E+02 0.  0.
         13    1    3    3    0    0 -0.17609815437E+02 -0.66139941270E+01 -0.94305570283E+01  0.21042479034E+02  0.00000000000E+00 0.  1.
        -13    1    3    3    0    0 -0.27918013930E+02 -0.65135655991E+03 -0.14481067144E+03  0.66784348031E+03  0.00000000000E+00 0. -1.
          2    1    6    6  502    0  0.11321125181E+02  0.31403784314E+02  0.13228671921E+02  0.35907705377E+02  0.00000000000E+00 0. -1.
          3    1    5    5  503    0  0.12642705610E+00 -0.32913942796E+02 -0.27430938425E+03  0.27627700213E+03  0.00000000000E+00 0. -1.
         -4    1    5    5    0  503 -0.49234236386E+02  0.31749349074E+02 -0.36825310550E+03  0.37288387054E+03  0.00000000000E+00 0.  1.
         -1    1    6    6    0  502  0.83314513515E+02  0.62773136344E+03 -0.75992855159E+02  0.63777965384E+03  0.00000000000E+00 0.  1.
<mgrwt>
<rscale>  0 0.18188506E+04</rscale>
<asrwt>0</asrwt>
<pdfrwt beam="1">  1        1 0.88628177E-01 0.18188506E+04</pdfrwt>
<pdfrwt beam="2">  1       -1 0.22086939E+00 0.18188506E+04</pdfrwt>
<totfact> 0.37143076E+00</totfact>
</mgrwt>
</event>
<event>
12    1  0.1556559E-007  0.2736864E+04  0.7818608E-02  0.8323142E-01
          1   -1    0    0  501    0  0.00000000000E+00  0.00000000000E+00  0.23844025459E+04  0.23844025459E+04  0.00000000000E+00 0. -1.
         -1   -1    0    0    0  501 -0.00000000000E+00 -0.00000000000E+00 -0.78535669206E+03  0.78535669206E+03  0.00000000000E+00 0.  1.
         23    2    1    2    0    0 -0.47003321654E+03  0.16429366490E+03  0.19948612188E+04  0.20581288382E+04  0.92192188115E+02 0.  0.
        254    2    1    2    0    0  0.47003321654E+03 -0.16429366490E+03 -0.39581536498E+03  0.11116303997E+04  0.91166260722E+03 0.  0.
        -24    2    4    4    0    0  0.24218626086E+03  0.37092053330E+03 -0.20696252260E+03  0.49542591687E+03  0.79856911852E+02 0.  0.
         24    2    4    4    0    0  0.22784695568E+03 -0.53521419820E+03 -0.18885284237E+03  0.61620448283E+03  0.75326591665E+02 0.  0.
         11    1    3    3    0    0 -0.39878673854E+03  0.15994042078E+03  0.15903981961E+04  0.16474156194E+04  0.00000000000E+00 0.  1.
        -11    1    3    3    0    0 -0.71246478000E+02  0.43532441206E+01  0.40446302269E+03  0.41071321879E+03  0.00000000000E+00 0. -1.
          4    1    6    6  502    0  0.12041741035E+03 -0.34725725488E+03 -0.91094095914E+02  0.37866355527E+03  0.00000000000E+00 0. -1.
          3    1    5    5  503    0  0.18343427658E+03  0.25220739764E+03 -0.18057660359E+03  0.36036733344E+03  0.00000000000E+00 0. -1.
         -4    1    5    5    0  503  0.58751984282E+02  0.11871313566E+03 -0.26385919015E+02  0.13505858343E+03  0.00000000000E+00 0.  1.
         -3    1    6    6    0  502  0.10742954533E+03 -0.18795694332E+03 -0.97758746460E+02  0.23754092755E+03  0.00000000000E+00 0.  1.
<mgrwt>
<rscale>  0 0.27368643E+04</rscale>
<asrwt>0</asrwt>
<pdfrwt beam="1">  1        1 0.36683116E+00 0.27368643E+04</pdfrwt>
<pdfrwt beam="2">  1       -1 0.12082411E+00 0.27368643E+04</pdfrwt>
<totfact> 0.86257597E-01</totfact>
</mgrwt>
</event>
<event>
12    1  0.1556559E-007  0.2714989E+04  0.7818608E-02  0.8330158E-01
          2   -1    0    0  501    0  0.00000000000E+00  0.00000000000E+00  0.19806716819E+04  0.19806716819E+04  0.00000000000E+00 0. -1.
         -2   -1    0    0    0  501 -0.00000000000E+00 -0.00000000000E+00 -0.93038735081E+03  0.93038735081E+03  0.00000000000E+00 0.  1.
         23    2    1    2    0    0  0.41133818166E+03 -0.18306016463E+03  0.16604737413E+04  0.17228931128E+04  0.92073390373E+02 0.  0.
        254    2    1    2    0    0 -0.41133818166E+03  0.18306016463E+03 -0.61018941018E+03  0.11881659199E+04  0.91471143718E+03 0.  0.
        -24    2    4    4    0    0  0.11902797962E+03  0.10829762552E+03 -0.62147887717E+03  0.64659829460E+03  0.77183704102E+02 0.  0.
         24    2    4    4    0    0 -0.53036616128E+03  0.74762539112E+02  0.11289466996E+02  0.54156762528E+03  0.79311653655E+02 0.  0.
         13    1    3    3    0    0  0.39867048710E+03 -0.19297191544E+03  0.16160427532E+04  0.16756403246E+04  0.00000000000E+00 0. -1.
        -13    1    3    3    0    0  0.12667694556E+02  0.99117508036E+01  0.44430988077E+02  0.47252788180E+02  0.00000000000E+00 0.  1.
          4    1    6    6  502    0 -0.24314130899E+03  0.64704387527E+02 -0.20377374130E+02  0.25242739804E+03  0.00000000000E+00 0. -1.
          1    1    5    5  503    0  0.15889274894E+02  0.42755578777E+01 -0.19441222917E+03  0.19510731484E+03  0.00000000000E+00 0. -1.
         -2    1    5    5    0  503  0.10313870473E+03  0.10402206764E+03 -0.42706664800E+03  0.45149097976E+03  0.00000000000E+00 0.  1.
         -3    1    6    6    0  502 -0.28722485229E+03  0.10058151584E+02  0.31666841126E+02  0.28914022725E+03  0.00000000000E+00 0.  1.
<mgrwt>
<rscale>  0 0.27149894E+04</rscale>
<asrwt>0</asrwt>
<pdfrwt beam="1">  1        2 0.30471872E+00 0.27149894E+04</pdfrwt>
<pdfrwt beam="2">  1       -2 0.14313652E+00 0.27149894E+04</pdfrwt>
<totfact> 0.20343931E+00</totfact>
</mgrwt>
</event>
<event>
12    1  0.1556559E-007  0.1343417E+04  0.7818608E-02  0.8995827E-01
         -1   -1    0    0    0  501 -0.00000000000E+00  0.00000000000E+00  0.52512056768E+03  0.52512056768E+03  0.00000000000E+00 0.  1.
          1   -1    0    0  501    0  0.00000000000E+00 -0.00000000000E+00 -0.85921602468E+03  0.85921602468E+03  0.00000000000E+00 0. -1.
         23    2    1    2    0    0  0.11381291269E+03  0.34943067291E+03 -0.11262693193E+03  0.39518395743E+03  0.91816992693E+02 0.  0.
        254    2    1    2    0    0 -0.11381291269E+03 -0.34943067291E+03 -0.22146852506E+03  0.98915263494E+03  0.89124601169E+03 0.  0.
        -24    2    4    4    0    0  0.10087756262E+03 -0.41749507324E+03  0.21794718684E+03  0.48838846643E+03  0.80894369832E+02 0.  0.
         24    2    4    4    0    0 -0.21469047531E+03  0.68064400333E+02 -0.43941571191E+03  0.50076416850E+03  0.83389578511E+02 0.  0.
         13    1    3    3    0    0 -0.39478233038E+01  0.84901698898E+02 -0.14169261405E+01  0.85005243745E+02  0.00000000000E+00 0.  1.
        -13    1    3    3    0    0  0.11776073600E+03  0.26452897401E+03 -0.11121000579E+03  0.31017871368E+03  0.00000000000E+00 0. -1.
          2    1    6    6  502    0 -0.13378257729E+03 -0.53102785800E+00 -0.23244816974E+03  0.26819808276E+03  0.00000000000E+00 0. -1.
          1    1    5    5  503    0  0.53498512133E+02 -0.99019183184E+02  0.80098974910E+02  0.13814027371E+03  0.00000000000E+00 0. -1.
         -2    1    5    5    0  503  0.47379050490E+02 -0.31847589006E+03  0.13784821193E+03  0.35024819272E+03  0.00000000000E+00 0.  1.
         -3    1    6    6    0  502 -0.80907898026E+02  0.68595428191E+02 -0.20696754216E+03  0.23256608575E+03  0.00000000000E+00 0.  1.
<mgrwt>
<rscale>  0 0.13434165E+04</rscale>
<asrwt>0</asrwt>
<pdfrwt beam="1">  1        1 0.13218708E+00 0.13434165E+04</pdfrwt>
<pdfrwt beam="2">  1       -1 0.80787780E-01 0.13434165E+04</pdfrwt>
<totfact> 0.29440942E+01</totfact>
</mgrwt>
</event>
<event>
12    1  0.1556559E-007  0.1459734E+04  0.7818608E-02  0.8911680E-01
          1   -1    0    0  501    0  0.00000000000E+00  0.00000000000E+00  0.62693683778E+03  0.62693683778E+03  0.00000000000E+00 0. -1.
         -1   -1    0    0    0  501 -0.00000000000E+00 -0.00000000000E+00 -0.84969614594E+03  0.84969614594E+03  0.00000000000E+00 0.  1.
         23    2    1    2    0    0  0.17838279061E+03  0.39097860835E+03 -0.15244405070E+03  0.46503275191E+03  0.91277486714E+02 0.  0.
        254    2    1    2    0    0 -0.17838279061E+03 -0.39097860835E+03 -0.70315257454E+02  0.10116002318E+04  0.91307507982E+03 0.  0.
        -24    2    4    4    0    0 -0.33743284821E+03 -0.24593347831E+03 -0.41702736806E+03  0.59570043871E+03  0.81258748217E+02 0.  0.
         24    2    4    4    0    0  0.15905005760E+03 -0.14504513004E+03  0.34671211061E+03  0.41589979309E+03  0.80176927377E+02 0.  0.
         11    1    3    3    0    0  0.16566142923E+03  0.31174938669E+03 -0.92726437848E+02  0.36500627599E+03  0.00000000000E+00 0. -1.
        -11    1    3    3    0    0  0.12721361387E+02  0.79229221656E+02 -0.59717612854E+02  0.10002647592E+03  0.00000000000E+00 0.  1.
          2    1    6    6  502    0  0.13694051547E+03 -0.10335343694E+03  0.20942165739E+03  0.27072507879E+03  0.00000000000E+00 0. -1.
          3    1    5    5  503    0 -0.25112225247E+03 -0.17196842105E+03 -0.25109239762E+03  0.39456674424E+03  0.00000000000E+00 0. -1.
         -4    1    5    5    0  503 -0.86310595742E+02 -0.73965057264E+02 -0.16593497044E+03  0.20113369447E+03  0.00000000000E+00 0.  1.
         -1    1    6    6    0  502  0.22109542124E+02 -0.41691693097E+02  0.13729045322E+03  0.14517471430E+03  0.00000000000E+00 0.  1.
<mgrwt>
<rscale>  0 0.14597340E+04</rscale>
<asrwt>0</asrwt>
<pdfrwt beam="1">  1        1 0.96451821E-01 0.14597340E+04</pdfrwt>
<pdfrwt beam="2">  1       -1 0.13072248E+00 0.14597340E+04</pdfrwt>
<totfact> 0.15594437E+01</totfact>
</mgrwt>
</event>
<event>
12    1  0.1556559E-007  0.1475626E+04  0.7818608E-02  0.8900825E-01
         -2   -1    0    0    0  501 -0.00000000000E+00  0.00000000000E+00  0.66266510693E+03  0.66266510693E+03  0.00000000000E+00 0.  1.
          2   -1    0    0  501    0  0.00000000000E+00 -0.00000000000E+00 -0.82148306528E+03  0.82148306528E+03  0.00000000000E+00 0. -1.
         23    2    1    2    0    0  0.37612090256E+03 -0.17636267657E+03 -0.24123055905E+03  0.48874699669E+03  0.90059519881E+02 0.  0.
        254    2    1    2    0    0 -0.37612090256E+03  0.17636267657E+03  0.82412600712E+02  0.99540117552E+03  0.90081126571E+03 0.  0.
        -24    2    4    4    0    0  0.13746603712E+03  0.99355158897E+02  0.35667513532E+03  0.40263778839E+03  0.78305028704E+02 0.  0.
         24    2    4    4    0    0 -0.51358693968E+03  0.77007517676E+02 -0.27426253461E+03  0.59276338713E+03  0.80291922663E+02 0.  0.
         11    1    3    3    0    0  0.18339574623E+03 -0.47869429046E+02 -0.14162055110E+03  0.23660486569E+03  0.00000000000E+00 0.  1.
        -11    1    3    3    0    0  0.19272515633E+03 -0.12849324753E+03 -0.99610007954E+02  0.25214213100E+03  0.00000000000E+00 0. -1.
          2    1    6    6  502    0 -0.48547402975E+02  0.31544469785E+01 -0.54752561405E+02  0.73243729096E+02  0.00000000000E+00 0. -1.
          1    1    5    5  503    0  0.46025465999E+01  0.18214050291E+02  0.73154433292E+01  0.20160624353E+02  0.00000000000E+00 0. -1.
         -2    1    5    5    0  503  0.13286349052E+03  0.81141108606E+02  0.34935969199E+03  0.38247716403E+03  0.00000000000E+00 0.  1.
         -1    1    6    6    0  502 -0.46503953670E+03  0.73853070697E+02 -0.21950997320E+03  0.51951965803E+03  0.00000000000E+00 0.  1.
<mgrwt>
<rscale>  0 0.14756262E+04</rscale>
<asrwt>0</asrwt>
<pdfrwt beam="1">  1        2 0.12638201E+00 0.14756262E+04</pdfrwt>
<pdfrwt beam="2">  1       -2 0.10194848E+00 0.14756262E+04</pdfrwt>
<totfact> 0.25390380E+01</totfact>
</mgrwt>
</event>
<event>
12    1  0.1556559E-007  0.1431360E+04  0.7818608E-02  0.8931426E-01
         -1   -1    0    0    0  501 -0.00000000000E+00  0.00000000000E+00  0.28322695074E+03  0.28322695074E+03  0.00000000000E+00 0.  1.
          1   -1    0    0  501    0  0.00000000000E+00 -0.00000000000E+00 -0.18084371793E+04  0.18084371793E+04  0.00000000000E+00 0. -1.
         23    2    1    2    0    0 -0.36669343880E+02  0.36929073977E+03 -0.15602384051E+03  0.41181269489E+03  0.86752323357E+02 0.  0.
        254    2    1    2    0    0  0.36669343880E+02 -0.36929073977E+03 -0.13691863880E+04  0.16798514351E+04  0.89972728516E+03 0.  0.
        -24    2    4    4    0    0  0.32145759784E+03  0.14142112996E+03 -0.34960250718E+03  0.50165012570E+03  0.78076964491E+02 0.  0.
         24    2    4    4    0    0 -0.28478825396E+03 -0.51071186973E+03 -0.10195838809E+04  0.11782013094E+04  0.81707233283E+02 0.  0.
         11    1    3    3    0    0 -0.31113037818E+02  0.37289485884E+02 -0.13016864895E+02  0.50278878780E+02  0.00000000000E+00 0. -1.
        -11    1    3    3    0    0 -0.55563060620E+01  0.33200125389E+03 -0.14300697561E+03  0.36153381611E+03  0.00000000000E+00 0.  1.
          4    1    6    6  502    0  0.15620686964E+01 -0.27165701571E+02 -0.32823753799E+02  0.42635832511E+02  0.00000000000E+00 0. -1.
          3    1    5    5  503    0  0.51482593296E+02 -0.65507216775E+01 -0.50658166165E+02  0.72523231906E+02  0.00000000000E+00 0. -1.
         -2    1    5    5    0  503  0.26997500454E+03  0.14797185163E+03 -0.29894434102E+03  0.42912689380E+03  0.00000000000E+00 0.  1.
         -3    1    6    6    0  502 -0.28635032265E+03 -0.48354616816E+03 -0.98676012705E+03  0.11355654769E+04  0.00000000000E+00 0.  1.
<mgrwt>
<rscale>  0 0.14313604E+04</rscale>
<asrwt>0</asrwt>
<pdfrwt beam="1">  1        1 0.27822110E+00 0.14313604E+04</pdfrwt>
<pdfrwt beam="2">  1       -1 0.43573377E-01 0.14313604E+04</pdfrwt>
<totfact> 0.20344542E+01</totfact>
</mgrwt>
</event>
<event>
12    1  0.1556559E-007  0.1275440E+04  0.7818608E-02  0.9049271E-01
         -2   -1    0    0    0  501 -0.00000000000E+00  0.00000000000E+00  0.54239042071E+03  0.54239042071E+03  0.00000000000E+00 0. -1.
          2   -1    0    0  501    0  0.00000000000E+00 -0.00000000000E+00 -0.74980488028E+03  0.74980488028E+03  0.00000000000E+00 0.  1.
         23    2    1    2    0    0  0.11413542780E+03 -0.12350318096E+03 -0.31709430257E+03  0.37045812123E+03  0.91708730662E+02 0.  0.
        254    2    1    2    0    0 -0.11413542780E+03  0.12350318096E+03  0.10967984300E+03  0.92173717976E+03  0.89960537404E+03 0.  0.
        -24    2    4    4    0    0  0.31621027079E+03 -0.63976427139E+02 -0.16640355291E+03  0.37127174591E+03  0.77914365207E+02 0.  0.
         24    2    4    4    0    0 -0.43034569859E+03  0.18747960810E+03  0.27608339591E+03  0.55046543386E+03  0.80275330100E+02 0.  0.
         11    1    3    3    0    0  0.48751862684E+02 -0.20621730988E+02 -0.35846904958E+02  0.63929652737E+02  0.00000000000E+00 0. -1.
        -11    1    3    3    0    0  0.65383565120E+02 -0.10288144997E+03 -0.28124739761E+03  0.30652846849E+03  0.00000000000E+00 0.  1.
          4    1    6    6  502    0 -0.30685693817E+03  0.10933189747E+03  0.22394252926E+03  0.39530355515E+03  0.00000000000E+00 0. -1.
          3    1    5    5  503    0  0.21335872276E+03 -0.59918343420E+02 -0.76017164940E+02  0.23428777566E+03  0.00000000000E+00 0. -1.
         -4    1    5    5    0  503  0.10285154803E+03 -0.40580837199E+01 -0.90386387972E+02  0.13698397025E+03  0.00000000000E+00 0.  1.
         -3    1    6    6    0  502 -0.12348876043E+03  0.78147710623E+02  0.52140866654E+02  0.15516187870E+03  0.00000000000E+00 0.  1.
<mgrwt>
<rscale>  0 0.12754403E+04</rscale>
<asrwt>0</asrwt>
<pdfrwt beam="1">  1        2 0.11535460E+00 0.12754403E+04</pdfrwt>
<pdfrwt beam="2">  1       -2 0.83444681E-01 0.12754403E+04</pdfrwt>
<totfact> 0.46301677E+01</totfact>
</mgrwt>
</event>
<event>
12    1  0.1556559E-007  0.2672947E+04  0.7818608E-02  0.8343836E-01
         -2   -1    0    0    0  501 -0.00000000000E+00  0.00000000000E+00  0.80215879448E+03  0.80215879448E+03  0.00000000000E+00 0.  1.
          2   -1    0    0  501    0  0.00000000000E+00 -0.00000000000E+00 -0.22266937571E+04  0.22266937571E+04  0.00000000000E+00 0. -1.
         23    2    1    2    0    0  0.94771864921E+03 -0.38443204821E+03  0.39318956222E+02  0.10273973056E+04  0.89669423112E+02 0.  0.
        254    2    1    2    0    0 -0.94771864921E+03  0.38443204821E+03 -0.14638539189E+04  0.20014552460E+04  0.90387840350E+03 0.  0.
        -24    2    4    4    0    0  0.79180432748E+02 -0.16173609118E+03 -0.19137498007E+03  0.27565619041E+03  0.83269731565E+02 0.  0.
         24    2    4    4    0    0 -0.10268990820E+04  0.54616813940E+03 -0.12724789388E+04  0.17257990556E+04  0.79739385901E+02 0.  0.
         13    1    3    3    0    0  0.83229601378E+03 -0.30464064496E+03  0.31252606482E+02  0.88684795908E+03  0.00000000000E+00 0.  1.
        -13    1    3    3    0    0  0.11542263543E+03 -0.79791403257E+02  0.80663497403E+01  0.14054934650E+03  0.00000000000E+00 0. -1.
          2    1    6    6  502    0 -0.69803786822E+03  0.37166284682E+03 -0.91919048465E+03  0.12125598065E+04  0.00000000000E+00 0. -1.
          3    1    5    5  503    0  0.31621794642E+02 -0.80837474413E+02 -0.35643081710E+02  0.93835304868E+02  0.00000000000E+00 0. -1.
         -4    1    5    5    0  503  0.47558638106E+02 -0.80898616770E+02 -0.15573189836E+03  0.18182088554E+03  0.00000000000E+00 0.  1.
         -1    1    6    6    0  502 -0.32886121373E+03  0.17450529258E+03 -0.35328845414E+03  0.51323924915E+03  0.00000000000E+00 0.  1.
<mgrwt>
<rscale>  0 0.26729474E+04</rscale>
<asrwt>0</asrwt>
<pdfrwt beam="1">  1        2 0.34256827E+00 0.26729474E+04</pdfrwt>
<pdfrwt beam="2">  1       -2 0.12340905E+00 0.26729474E+04</pdfrwt>
<totfact> 0.21713079E+00</totfact>
</mgrwt>
</event>
<event>
12    1  0.1556559E-007  0.4256380E+04  0.7818608E-02  0.7954733E-01
         -1   -1    0    0    0  501 -0.00000000000E+00  0.00000000000E+00  0.17773676680E+04  0.17773676680E+04  0.00000000000E+00 0.  1.
          1   -1    0    0  501    0  0.00000000000E+00 -0.00000000000E+00 -0.25482591345E+04  0.25482591345E+04  0.00000000000E+00 0. -1.
         23    2    1    2    0    0 -0.13254212464E+04  0.49506380770E+03 -0.18492960374E+04  0.23308720167E+04  0.10601353868E+03 0.  0.
        254    2    1    2    0    0  0.13254212464E+04 -0.49506380770E+03  0.10784045709E+04  0.19947547857E+04  0.90236388583E+03 0.  0.
        -24    2    4    4    0    0  0.10730719191E+04 -0.74466075571E+03  0.91045554664E+03  0.15943483292E+04  0.83751463675E+02 0.  0.
         24    2    4    4    0    0  0.25234932730E+03  0.24959694801E+03  0.16794902424E+03  0.40040645653E+03  0.78355830924E+02 0.  0.
         13    1    3    3    0    0 -0.76278655434E+03  0.31812205568E+03 -0.10096148440E+04  0.13047479079E+04  0.00000000000E+00 0. -1.
        -13    1    3    3    0    0 -0.56263469205E+03  0.17694175203E+03 -0.83968119340E+03  0.10261241089E+04  0.00000000000E+00 0.  1.
          2    1    6    6  502    0  0.24874709965E+03  0.22776275011E+03  0.17087190669E+03  0.37808490900E+03  0.00000000000E+00 0. -1.
          1    1    5    5  503    0  0.47579708910E+03 -0.32437262383E+03  0.35128587744E+03  0.67453853617E+03  0.00000000000E+00 0. -1.
         -2    1    5    5    0  503  0.59727482998E+03 -0.42028813188E+03  0.55916966920E+03  0.91980979299E+03  0.00000000000E+00 0.  1.
         -1    1    6    6    0  502  0.36022276570E+01  0.21834197902E+02 -0.29228824508E+01  0.22321547525E+02  0.00000000000E+00 0.  1.
<mgrwt>
<rscale>  0 0.42563803E+04</rscale>
<asrwt>0</asrwt>
<pdfrwt beam="1">  1        1 0.39203987E+00 0.42563803E+04</pdfrwt>
<pdfrwt beam="2">  1       -1 0.27344118E+00 0.42563803E+04</pdfrwt>
<totfact> 0.47174231E-02</totfact>
</mgrwt>
</event>
<event>
12    1  0.1556559E-007  0.3645882E+04  0.7818608E-02  0.8080062E-01
         -2   -1    0    0    0  501 -0.00000000000E+00  0.00000000000E+00  0.67717966676E+03  0.67717966676E+03  0.00000000000E+00 0.  1.
          2   -1    0    0  501    0  0.00000000000E+00 -0.00000000000E+00 -0.49072866171E+04  0.49072866171E+04  0.00000000000E+00 0. -1.
         23    2    1    2    0    0 -0.56837661972E+03  0.11100142962E+04 -0.37802880670E+04  0.39817351294E+04  0.91940481135E+02 0.  0.
        254    2    1    2    0    0  0.56837661972E+03 -0.11100142962E+04 -0.44981888333E+03  0.16027311544E+04  0.90068107888E+03 0.  0.
        -24    2    4    4    0    0  0.53812234411E+03 -0.76634485163E+03 -0.69733380283E+03  0.11707121304E+04  0.86211198560E+02 0.  0.
         24    2    4    4    0    0  0.30254275612E+02 -0.34366944457E+03  0.24751491950E+03  0.43201902403E+03  0.79704412840E+02 0.  0.
         11    1    3    3    0    0 -0.54405405913E+03  0.10910207525E+04 -0.36691043668E+04  0.38663481421E+04  0.00000000000E+00 0. -1.
        -11    1    3    3    0    0 -0.24322560593E+02  0.18993543680E+02 -0.11118370017E+03  0.11538698730E+03  0.00000000000E+00 0.  1.
          4    1    6    6  502    0 -0.29714215074E+01 -0.29439619374E+03  0.21184867753E+03  0.36270898859E+03  0.00000000000E+00 0. -1.
          1    1    5    5  503    0  0.33068418020E+03 -0.49605436941E+03 -0.49144909377E+03  0.77262162551E+03  0.00000000000E+00 0. -1.
         -2    1    5    5    0  503  0.20743816391E+03 -0.27029048221E+03 -0.20588470906E+03  0.39809050485E+03  0.00000000000E+00 0.  1.
         -3    1    6    6    0  502  0.33225697119E+02 -0.49273250832E+02  0.35666241974E+02  0.69310035443E+02  0.00000000000E+00 0.  1.
<mgrwt>
<rscale>  0 0.36458825E+04</rscale>
<asrwt>0</asrwt>
<pdfrwt beam="1">  1        2 0.75496717E+00 0.36458825E+04</pdfrwt>
<pdfrwt beam="2">  1       -2 0.10418149E+00 0.36458825E+04</pdfrwt>
<totfact> 0.26933366E-02</totfact>
</mgrwt>
</event>
<event>
12    1  0.1556559E-007  0.1041703E+04  0.7818608E-02  0.9263952E-01
         -2   -1    0    0    0  501 -0.00000000000E+00  0.00000000000E+00  0.18741977331E+03  0.18741977331E+03  0.00000000000E+00 0. -1.
          2   -1    0    0  501    0  0.00000000000E+00 -0.00000000000E+00 -0.14474801496E+04  0.14474801496E+04  0.00000000000E+00 0.  1.
         23    2    1    2    0    0  0.61216896385E+02 -0.97587889250E+02 -0.13166765830E+03  0.19927205037E+03  0.95404786496E+02 0.  0.
        254    2    1    2    0    0 -0.61216896385E+02  0.97587889250E+02 -0.11283927180E+04  0.14356278726E+04  0.88004906560E+03 0.  0.
        -24    2    4    4    0    0  0.35637177721E+03  0.56509664658E+02 -0.84606573268E+03  0.92330241907E+03  0.80411114028E+02 0.  0.
         24    2    4    4    0    0 -0.41758867359E+03  0.41078224593E+02 -0.28232698535E+03  0.51232545350E+03  0.81860386036E+02 0.  0.
         11    1    3    3    0    0 -0.14239258019E+02 -0.31328494141E+02 -0.93711673704E+00  0.34425415057E+02  0.00000000000E+00 0. -1.
        -11    1    3    3    0    0  0.75456154403E+02 -0.66259395109E+02 -0.13073054156E+03  0.16484663531E+03  0.00000000000E+00 0.  1.
          4    1    6    6  502    0 -0.35821378357E+03  0.60945190222E+02 -0.25556527507E+03  0.44423534390E+03  0.00000000000E+00 0. -1.
          1    1    5    5  503    0  0.33651272802E+03  0.32055546004E+02 -0.76664243679E+03  0.83785977349E+03  0.00000000000E+00 0. -1.
         -2    1    5    5    0  503  0.19859049189E+02  0.24454118653E+02 -0.79423295883E+02  0.85442645574E+02  0.00000000000E+00 0.  1.
         -3    1    6    6    0  502 -0.59374890017E+02 -0.19866965629E+02 -0.26761710285E+02  0.68090109599E+02  0.00000000000E+00 0.  1.
<mgrwt>
<rscale>  0 0.10417032E+04</rscale>
<asrwt>0</asrwt>
<pdfrwt beam="1">  1        2 0.22268926E+00 0.10417032E+04</pdfrwt>
<pdfrwt beam="2">  1       -2 0.28833811E-01 0.10417032E+04</pdfrwt>
<totfact> 0.14936663E+02</totfact>
</mgrwt>
</event>
<event>
12    1  0.1556559E-007  0.1814955E+04  0.7818608E-02  0.8698387E-01
         -2   -1    0    0    0  501 -0.00000000000E+00  0.00000000000E+00  0.28395799499E+03  0.28395799499E+03  0.00000000000E+00 0.  1.
          2   -1    0    0  501    0  0.00000000000E+00 -0.00000000000E+00 -0.29001309574E+04  0.29001309574E+04  0.00000000000E+00 0. -1.
         23    2    1    2    0    0 -0.65403610415E+03 -0.17679697737E+03 -0.10851137607E+04  0.12823966093E+04  0.89715067179E+02 0.  0.
        254    2    1    2    0    0  0.65403610415E+03  0.17679697737E+03 -0.15310592017E+04  0.19016923431E+04  0.90181544215E+03 0.  0.
        -24    2    4    4    0    0  0.12981934564E+03  0.39677783161E+03 -0.24038380094E+03  0.48904326775E+03  0.84221350093E+02 0.  0.
         24    2    4    4    0    0  0.52421675851E+03 -0.21998085424E+03 -0.12906754008E+04  0.14126490753E+04  0.80868001361E+02 0.  0.
         13    1    3    3    0    0 -0.63227642451E+03 -0.17736678845E+03 -0.10715093427E+04  0.12567277852E+04  0.00000000000E+00 0. -1.
        -13    1    3    3    0    0 -0.21759679639E+02  0.56981107462E+00 -0.13604417946E+02  0.25668824093E+02  0.00000000000E+00 0.  1.
          2    1    6    6  502    0  0.44526832010E+03 -0.16281274750E+03 -0.10154836594E+04  0.11207046579E+04  0.00000000000E+00 0. -1.
          3    1    5    5  503    0  0.11803990668E+03  0.37039067062E+03 -0.24538955249E+03  0.45971589153E+03  0.00000000000E+00 0. -1.
         -4    1    5    5    0  503  0.11779438956E+02  0.26387160992E+02  0.50057515463E+01  0.29327376219E+02  0.00000000000E+00 0.  1.
         -1    1    6    6    0  502  0.78948438407E+02 -0.57168106736E+02 -0.27519174135E+03  0.29194441742E+03  0.00000000000E+00 0.  1.
<mgrwt>
<rscale>  0 0.18149550E+04</rscale>
<asrwt>0</asrwt>
<pdfrwt beam="1">  1        2 0.44617399E+00 0.18149550E+04</pdfrwt>
<pdfrwt beam="2">  1       -2 0.43685846E-01 0.18149550E+04</pdfrwt>
<totfact> 0.94403313E+00</totfact>
</mgrwt>
</event>
<event>
12    1  0.1989878E-007  0.1390411E+04  0.7818608E-02  0.8960789E-01
         -2   -1    0    0    0  501 -0.00000000000E+00  0.00000000000E+00  0.31134534779E+03  0.31134534779E+03  0.00000000000E+00 0.  1.
          2   -1    0    0  501    0  0.00000000000E+00 -0.00000000000E+00 -0.15523309017E+04  0.15523309017E+04  0.00000000000E+00 0. -1.
         23    2    1    2    0    0 -0.35528256526E+02 -0.20432561202E+02 -0.84817790454E+03  0.85399472346E+03  0.90672395935E+02 0.  0.
        254    2    1    2    0    0  0.35528256526E+02  0.20432561202E+02 -0.39280764935E+03  0.10096815260E+04  0.92923580861E+03 0.  0.
        -24    2    4    4    0    0  0.21236319358E+02  0.39545443363E+03  0.68645585071E+02  0.40963467704E+03  0.79076936883E+02 0.  0.
         24    2    4    4    0    0  0.14291937168E+02 -0.37502187242E+03 -0.46145323442E+03  0.60004684897E+03  0.79192607893E+02 0.  0.
         13    1    3    3    0    0 -0.34737602016E+02 -0.68003679925E+01 -0.83230127547E+03  0.83305363522E+03  0.00000000000E+00 0. -1.
        -13    1    3    3    0    0 -0.79065450955E+00 -0.13632193210E+02 -0.15876629063E+02  0.20941088239E+02  0.00000000000E+00 0.  1.
          4    1    6    6  502    0  0.51876884331E+01 -0.37420814946E+03 -0.45302034052E+03  0.58761048336E+03  0.00000000000E+00 0. -1.
          3    1    5    5  503    0  0.28060450008E+02  0.35747302947E+03  0.83701031087E+02  0.36821219189E+03  0.00000000000E+00 0. -1.
         -4    1    5    5    0  503 -0.68241306504E+01  0.37981404155E+02 -0.15055446016E+02  0.41422485143E+02  0.00000000000E+00 0.  1.
         -3    1    6    6    0  502  0.91042487348E+01 -0.81372296114E+00 -0.84328939010E+01  0.12436365612E+02  0.00000000000E+00 0.  1.
<mgrwt>
<rscale>  0 0.13904115E+04</rscale>
<asrwt>0</asrwt>
<pdfrwt beam="1">  1        2 0.23882014E+00 0.13904115E+04</pdfrwt>
<pdfrwt beam="2">  1       -2 0.47899285E-01 0.13904115E+04</pdfrwt>
<totfact> 0.47692672E+01</totfact>
</mgrwt>
</event>
<event>
12    1  0.1556559E-007  0.1481459E+04  0.7818608E-02  0.8896877E-01
          1   -1    0    0  501    0  0.00000000000E+00  0.00000000000E+00  0.72690353946E+03  0.72690353946E+03  0.00000000000E+00 0. -1.
         -1   -1    0    0    0  501 -0.00000000000E+00 -0.00000000000E+00 -0.75481874785E+03  0.75481874785E+03  0.00000000000E+00 0.  1.
         23    2    1    2    0    0  0.21894492495E+02  0.17121167749E+03 -0.43796566354E+03  0.47929687860E+03  0.90104206803E+02 0.  0.
        254    2    1    2    0    0 -0.21894492495E+02 -0.17121167749E+03  0.41005045515E+03  0.10024254087E+04  0.89828866016E+03 0.  0.
        -24    2    4    4    0    0  0.29993597826E+02  0.35219567707E+03  0.26853893703E+03  0.45104288721E+03  0.79906911756E+02 0.  0.
         24    2    4    4    0    0 -0.51888090322E+02 -0.52340735456E+03  0.14151151812E+03  0.55138252151E+03  0.85729473046E+02 0.  0.
         11    1    3    3    0    0 -0.22062064061E+02  0.56430375467E+01 -0.39998091428E+02  0.46026360504E+02  0.00000000000E+00 0. -1.
        -11    1    3    3    0    0  0.43956556556E+02  0.16556863994E+03 -0.39796757211E+03  0.43327051809E+03  0.00000000000E+00 0.  1.
          4    1    6    6  502    0 -0.73896625757E+02 -0.45023653809E+03  0.11531187818E+03  0.47060650312E+03  0.00000000000E+00 0. -1.
          3    1    5    5  503    0  0.46455559248E+02  0.24032011906E+03  0.14929430466E+03  0.28670658872E+03  0.00000000000E+00 0. -1.
         -4    1    5    5    0  503 -0.16461961422E+02  0.11187555801E+03  0.11924463237E+03  0.16433629849E+03  0.00000000000E+00 0.  1.
         -3    1    6    6    0  502  0.22008535436E+02 -0.73170816462E+02  0.26199639943E+02  0.80776018389E+02  0.00000000000E+00 0.  1.
<mgrwt>
<rscale>  0 0.14814593E+04</rscale>
<asrwt>0</asrwt>
<pdfrwt beam="1">  1        1 0.11183131E+00 0.14814593E+04</pdfrwt>
<pdfrwt beam="2">  1       -1 0.11612596E+00 0.14814593E+04</pdfrwt>
<totfact> 0.16707951E+01</totfact>
</mgrwt>
</event>
<event>
12    1  0.1556559E-007  0.1498319E+04  0.7818608E-02  0.8885571E-01
          1   -1    0    0  501    0  0.00000000000E+00  0.00000000000E+00  0.89257600519E+03  0.89257600519E+03  0.00000000000E+00 0. -1.
         -1   -1    0    0    0  501 -0.00000000000E+00 -0.00000000000E+00 -0.62878707219E+03  0.62878707219E+03  0.00000000000E+00 0.  1.
         23    2    1    2    0    0  0.10331940707E+03  0.64576671077E+02  0.54677789566E+03  0.56716618094E+03  0.88692521099E+02 0.  0.
        254    2    1    2    0    0 -0.10331940707E+03 -0.64576671077E+02 -0.28298896265E+03  0.95419689645E+03  0.90308577548E+03 0.  0.
        -24    2    4    4    0    0  0.28516227596E+03 -0.32237263029E+03 -0.12240565254E+03  0.45461848173E+03  0.80331710788E+02 0.  0.
         24    2    4    4    0    0 -0.38848168303E+03  0.25779595922E+03 -0.16058331011E+03  0.49957841472E+03  0.80092561005E+02 0.  0.
         13    1    3    3    0    0  0.44274680618E+02  0.65329170221E+02  0.41948419993E+03  0.42684322862E+03  0.00000000000E+00 0. -1.
        -13    1    3    3    0    0  0.59044726454E+02 -0.75249914397E+00  0.12729369573E+03  0.14032295232E+03  0.00000000000E+00 0.  1.
          4    1    6    6  502    0 -0.80836958231E+02  0.70196963270E+02 -0.70395934347E+02  0.12813202192E+03  0.00000000000E+00 0. -1.
          1    1    5    5  503    0  0.59960480372E+02 -0.26362048264E+02 -0.25270188033E+02  0.70205407188E+02  0.00000000000E+00 0. -1.
         -2    1    5    5    0  503  0.22520179559E+03 -0.29601058203E+03 -0.97135464507E+02  0.38441307454E+03  0.00000000000E+00 0.  1.
         -3    1    6    6    0  502 -0.30764472480E+03  0.18759899595E+03 -0.90187375764E+02  0.37144639280E+03  0.00000000000E+00 0.  1.
<mgrwt>
<rscale>  0 0.14983194E+04</rscale>
<asrwt>0</asrwt>
<pdfrwt beam="1">  1        1 0.13731939E+00 0.14983194E+04</pdfrwt>
<pdfrwt beam="2">  1       -1 0.96736472E-01 0.14983194E+04</pdfrwt>
<totfact> 0.18358184E+01</totfact>
</mgrwt>
</event>
<event>
12    1  0.1556559E-007  0.1336160E+04  0.7818608E-02  0.9001371E-01
          2   -1    0    0  501    0  0.00000000000E+00  0.00000000000E+00  0.21723252025E+04  0.21723252025E+04  0.00000000000E+00 0. -1.
         -2   -1    0    0    0  501 -0.00000000000E+00 -0.00000000000E+00 -0.20546237933E+03  0.20546237933E+03  0.00000000000E+00 0.  1.
         23    2    1    2    0    0 -0.30353173502E+03 -0.13920378771E+03  0.28647659505E+03  0.44973669744E+03  0.93193609418E+02 0.  0.
        254    2    1    2    0    0  0.30353173502E+03  0.13920378771E+03  0.16803862281E+04  0.19280508844E+04  0.88440552262E+03 0.  0.
        -24    2    4    4    0    0 -0.79597409749E+02 -0.26251333733E+02  0.14299459905E+04  0.14346085501E+04  0.79569315697E+02 0.  0.
         24    2    4    4    0    0  0.38312914477E+03  0.16545512144E+03  0.25044023761E+03  0.49344233432E+03  0.81250759385E+02 0.  0.
         13    1    3    3    0    0 -0.10076208976E+01  0.54232474623E+00  0.27945244944E+02  0.27968663375E+02  0.00000000000E+00 0. -1.
        -13    1    3    3    0    0 -0.30252411412E+03 -0.13974611245E+03  0.25853135011E+03  0.42176803406E+03  0.00000000000E+00 0.  1.
          4    1    6    6  502    0  0.84597589949E+02  0.96966500136E+01  0.76400292895E+02  0.11440184440E+03  0.00000000000E+00 0. -1.
          1    1    5    5  503    0 -0.47287386290E+02  0.21173623396E+02  0.44777009388E+03  0.45075766904E+03  0.00000000000E+00 0. -1.
         -2    1    5    5    0  503 -0.32310023459E+02 -0.47424957130E+02  0.98217589661E+03  0.98385088101E+03  0.00000000000E+00 0.  1.
         -3    1    6    6    0  502  0.29853155482E+03  0.15575847142E+03  0.17403994472E+03  0.37904048992E+03  0.00000000000E+00 0.  1.
<mgrwt>
<rscale>  0 0.13361603E+04</rscale>
<asrwt>0</asrwt>
<pdfrwt beam="1">  1        2 0.33420386E+00 0.13361603E+04</pdfrwt>
<pdfrwt beam="2">  1       -2 0.31609598E-01 0.13361603E+04</pdfrwt>
<totfact> 0.48733411E+01</totfact>
</mgrwt>
</event>
<event>
12    1  0.1556559E-007  0.2326684E+04  0.7818608E-02  0.8467474E-01
          2   -1    0    0  501    0  0.00000000000E+00  0.00000000000E+00  0.73539517447E+03  0.73539517447E+03  0.00000000000E+00 0. -1.
         -2   -1    0    0    0  501 -0.00000000000E+00 -0.00000000000E+00 -0.18403222506E+04  0.18403222506E+04  0.00000000000E+00 0.  1.
         23    2    1    2    0    0  0.79815571803E+03  0.24863284661E+03 -0.10566648753E+04  0.13511095285E+04  0.10042637323E+03 0.  0.
        254    2    1    2    0    0 -0.79815571803E+03 -0.24863284661E+03 -0.48262200763E+02  0.12246078966E+04  0.89356836211E+03 0.  0.
        -24    2    4    4    0    0 -0.94723863640E+03 -0.36445133580E+03 -0.25762528525E+02  0.10183256621E+04  0.78978704926E+02 0.  0.
         24    2    4    4    0    0  0.14908291837E+03  0.11581848918E+03 -0.22499672238E+02  0.20628223447E+03  0.80040527360E+02 0.  0.
         13    1    3    3    0    0  0.78811506052E+03  0.23048278800E+03 -0.10268304509E+04  0.13147731512E+04  0.00000000000E+00 0.  1.
        -13    1    3    3    0    0  0.10040657514E+02  0.18150058609E+02 -0.29834424458E+02  0.36336377276E+02  0.00000000000E+00 0. -1.
          2    1    6    6  502    0  0.66830945838E+02  0.50012321346E+01 -0.57856057767E+01  0.67267086147E+02  0.00000000000E+00 0. -1.
          1    1    5    5  503    0 -0.38128170388E+03 -0.18515987398E+03  0.43468732901E+01  0.42388537596E+03  0.00000000000E+00 0. -1.
         -2    1    5    5    0  503 -0.56595693252E+03 -0.17929146181E+03 -0.30109401815E+02  0.59444028617E+03  0.00000000000E+00 0.  1.
         -1    1    6    6    0  502  0.82251972534E+02  0.11081725705E+03 -0.16714066462E+02  0.13901514832E+03  0.00000000000E+00 0.  1.
<mgrwt>
<rscale>  0 0.23266836E+04</rscale>
<asrwt>0</asrwt>
<pdfrwt beam="1">  1        2 0.11313772E+00 0.23266836E+04</pdfrwt>
<pdfrwt beam="2">  1       -2 0.28312650E+00 0.23266836E+04</pdfrwt>
<totfact> 0.14027138E+00</totfact>
</mgrwt>
</event>
<event>
12    1  0.1556559E-007  0.1317189E+04  0.7818608E-02  0.9016044E-01
         -2   -1    0    0    0  501 -0.00000000000E+00  0.00000000000E+00  0.19110013594E+03  0.19110013594E+03  0.00000000000E+00 0.  1.
          2   -1    0    0  501    0  0.00000000000E+00 -0.00000000000E+00 -0.22697364513E+04  0.22697364513E+04  0.00000000000E+00 0. -1.
         23    2    1    2    0    0  0.26305311960E+03 -0.20584756361E+03 -0.76894314916E+03  0.84322097057E+03  0.90431606132E+02 0.  0.
        254    2    1    2    0    0 -0.26305311960E+03  0.20584756361E+03 -0.13096931662E+04  0.16176156166E+04  0.88871476329E+03 0.  0.
        -24    2    4    4    0    0 -0.54129400642E+03 -0.51314349840E+02 -0.89520442422E+03  0.10504334859E+04  0.79919855198E+02 0.  0.
         24    2    4    4    0    0  0.27824088682E+03  0.25716191345E+03 -0.41448874194E+03  0.56718213074E+03  0.79651813570E+02 0.  0.
         13    1    3    3    0    0  0.19436764359E+03 -0.14242737424E+03 -0.64073582224E+03  0.68454856052E+03  0.00000000000E+00 0. -1.
        -13    1    3    3    0    0  0.68685476006E+02 -0.63420189366E+02 -0.12820732692E+03  0.15867241004E+03  0.00000000000E+00 0.  1.
          2    1    6    6  502    0  0.27232594008E+03  0.22248697580E+03 -0.38325776733E+03  0.52014266145E+03  0.00000000000E+00 0. -1.
          3    1    5    5  503    0 -0.51295928129E+03 -0.39174736827E+02 -0.86951734685E+03  0.10103080227E+04  0.00000000000E+00 0. -1.
         -4    1    5    5    0  503 -0.28334725124E+02 -0.12139613012E+02 -0.25687077366E+02  0.40125463182E+02  0.00000000000E+00 0.  1.
         -1    1    6    6    0  502  0.59149467445E+01  0.34674937649E+02 -0.31230974611E+02  0.47039469290E+02  0.00000000000E+00 0.  1.
<mgrwt>
<rscale>  0 0.13171893E+04</rscale>
<asrwt>0</asrwt>
<pdfrwt beam="1">  1        2 0.34919022E+00 0.13171893E+04</pdfrwt>
<pdfrwt beam="2">  1       -2 0.29400021E-01 0.13171893E+04</pdfrwt>
<totfact> 0.49290232E+01</totfact>
</mgrwt>
</event>
<event>
12    1  0.1556559E-007  0.1391258E+04  0.7818608E-02  0.8960171E-01
          1   -1    0    0  501    0  0.00000000000E+00  0.00000000000E+00  0.55901357984E+03  0.55901357984E+03  0.00000000000E+00 0. -1.
         -1   -1    0    0    0  501 -0.00000000000E+00 -0.00000000000E+00 -0.86563196757E+03  0.86563196757E+03  0.00000000000E+00 0.  1.
         23    2    1    2    0    0  0.94034548639E+02  0.34040097629E+03  0.93587969478E+02  0.37658137937E+03  0.91320897161E+02 0.  0.
        254    2    1    2    0    0 -0.94034548639E+02 -0.34040097629E+03 -0.40020635721E+03  0.10480641680E+04  0.90197452902E+03 0.  0.
        -24    2    4    4    0    0  0.40068084942E+02 -0.53510386654E+03 -0.53731541948E+03  0.76357726150E+03  0.80004842645E+02 0.  0.
         24    2    4    4    0    0 -0.13410263358E+03  0.19470289025E+03  0.13710906227E+03  0.28448690655E+03  0.79001096427E+02 0.  0.
         11    1    3    3    0    0  0.70318510160E+02  0.22235989929E+03  0.10476356584E+03  0.25566388562E+03  0.00000000000E+00 0.  1.
        -11    1    3    3    0    0  0.23716038479E+02  0.11804107700E+03 -0.11175596357E+02  0.12091749374E+03  0.00000000000E+00 0. -1.
          2    1    6    6  502    0 -0.13745773211E+03  0.19540702074E+03  0.12059787109E+03  0.26762357591E+03  0.00000000000E+00 0. -1.
          1    1    5    5  503    0  0.40612149854E+02 -0.53474479279E+03 -0.53985824465E+03  0.76095220904E+03  0.00000000000E+00 0. -1.
         -2    1    5    5    0  503 -0.54406491185E+00 -0.35907374600E+00  0.25428251629E+01  0.26250524552E+01  0.00000000000E+00 0.  1.
         -1    1    6    6    0  502  0.33550985261E+01 -0.70413049581E+00  0.16511191188E+02  0.16863330641E+02  0.00000000000E+00 0.  1.
<mgrwt>
<rscale>  0 0.13912585E+04</rscale>
<asrwt>0</asrwt>
<pdfrwt beam="1">  1        1 0.86002089E-01 0.13912585E+04</pdfrwt>
<pdfrwt beam="2">  1       -1 0.13317415E+00 0.13912585E+04</pdfrwt>
<totfact> 0.17646362E+01</totfact>
</mgrwt>
</event>
<event>
12    1  0.1556559E-007  0.2832274E+04  0.7818608E-02  0.8293318E-01
         -1   -1    0    0    0  501 -0.00000000000E+00  0.00000000000E+00  0.15775439449E+04  0.15775439449E+04  0.00000000000E+00 0.  1.
          1   -1    0    0  501    0  0.00000000000E+00 -0.00000000000E+00 -0.12712441548E+04  0.12712441548E+04  0.00000000000E+00 0. -1.
         23    2    1    2    0    0  0.49883325472E+03  0.11697559234E+04  0.10230035793E+03  0.12790199874E+04  0.90902302926E+02 0.  0.
        254    2    1    2    0    0 -0.49883325472E+03 -0.11697559234E+04  0.20399943213E+03  0.15697681122E+04  0.89743669496E+03 0.  0.
        -24    2    4    4    0    0 -0.53294612371E+03 -0.11744766206E+04 -0.57156407164E+02  0.12935824349E+04  0.81619591716E+02 0.  0.
         24    2    4    4    0    0  0.34112868990E+02  0.47206972256E+01  0.26115583930E+03  0.27618567734E+03  0.83007127130E+02 0.  0.
         11    1    3    3    0    0  0.47296261582E+03  0.11359743205E+04  0.86165053655E+02  0.12335135627E+04  0.00000000000E+00 0. -1.
        -11    1    3    3    0    0  0.25870638903E+02  0.33781602918E+02  0.16135304279E+02  0.45506424789E+02  0.00000000000E+00 0.  1.
          4    1    6    6  502    0 -0.18561809110E+02  0.20632677924E+02  0.42856163266E+02  0.51057799459E+02  0.00000000000E+00 0. -1.
          3    1    5    5  503    0 -0.24584816491E+03 -0.63459474194E+03 -0.16310960283E+02  0.68074801073E+03  0.00000000000E+00 0. -1.
         -4    1    5    5    0  503 -0.28709795881E+03 -0.53988187869E+03 -0.40845446881E+02  0.61283442415E+03  0.00000000000E+00 0.  1.
         -3    1    6    6    0  502  0.52674678100E+02 -0.15911980699E+02  0.21829967603E+03  0.22512787788E+03  0.00000000000E+00 0.  1.
<mgrwt>
<rscale>  0 0.28322737E+04</rscale>
<asrwt>0</asrwt>
<pdfrwt beam="1">  1        1 0.19557602E+00 0.28322737E+04</pdfrwt>
<pdfrwt beam="2">  1       -1 0.24269907E+00 0.28322737E+04</pdfrwt>
<totfact> 0.63739582E-01</totfact>
</mgrwt>
</event>
<event>
12    1  0.1556559E-007  0.1119404E+04  0.7818608E-02  0.9186483E-01
         -3   -1    0    0    0  501 -0.00000000000E+00  0.00000000000E+00  0.14592933705E+04  0.14592933705E+04  0.00000000000E+00 0.  1.
          3   -1    0    0  501    0  0.00000000000E+00 -0.00000000000E+00 -0.21466991042E+03  0.21466991042E+03  0.00000000000E+00 0. -1.
         23    2    1    2    0    0 -0.85064638135E+02 -0.12794640094E+03  0.65773182066E+03  0.67853363345E+03  0.64733836893E+02 0.  0.
        254    2    1    2    0    0  0.85064638135E+02  0.12794640094E+03  0.58689163942E+03  0.99542964746E+03  0.78919713155E+03 0.  0.
        -24    2    4    4    0    0  0.80867042852E+02  0.14799198936E+03 -0.15895618339E+03  0.24502982661E+03  0.79570347231E+02 0.  0.
         24    2    4    4    0    0  0.41975952829E+01 -0.20045588421E+02  0.74584782280E+03  0.75039982085E+03  0.79946675508E+02 0.  0.
         13    1    3    3    0    0 -0.15172361966E+02  0.36166113413E+01  0.10175657907E+03  0.10294504276E+03  0.00000000000E+00 0. -1.
        -13    1    3    3    0    0 -0.69892276170E+02 -0.13156301228E+03  0.55597524159E+03  0.57558859069E+03  0.00000000000E+00 0.  1.
          2    1    6    6  502    0 -0.24509695298E+02  0.37358031752E+01  0.86069072195E+02  0.89568781266E+02  0.00000000000E+00 0. -1.
          3    1    5    5  503    0  0.64251134150E+01  0.68634614454E+02 -0.27086088512E+02  0.74065164380E+02  0.00000000000E+00 0. -1.
         -4    1    5    5    0  503  0.74441929437E+02  0.79357374907E+02 -0.13187009487E+03  0.17096466223E+03  0.00000000000E+00 0.  1.
         -1    1    6    6    0  502  0.28707290581E+02 -0.23781391596E+02  0.65977875061E+03  0.66083103958E+03  0.00000000000E+00 0.  1.
<mgrwt>
<rscale>  0 0.11194041E+04</rscale>
<asrwt>0</asrwt>
<pdfrwt beam="1">  1        3 0.33026141E-01 0.11194041E+04</pdfrwt>
<pdfrwt beam="2">  1       -3 0.22450667E+00 0.11194041E+04</pdfrwt>
<totfact> 0.24350019E+00</totfact>
</mgrwt>
</event>
<event>
12    1  0.1556559E-007  0.1447115E+04  0.7818608E-02  0.8920403E-01
          2   -1    0    0  501    0  0.00000000000E+00  0.00000000000E+00  0.16284748210E+04  0.16284748210E+04  0.00000000000E+00 0. -1.
         -2   -1    0    0    0  501 -0.00000000000E+00 -0.00000000000E+00 -0.32148807138E+03  0.32148807138E+03  0.00000000000E+00 0.  1.
         23    2    1    2    0    0 -0.33300256427E+03  0.29604547449E+03  0.23728440030E+03  0.51207923780E+03  0.85951314061E+02 0.  0.
        254    2    1    2    0    0  0.33300256427E+03 -0.29604547449E+03  0.10697023493E+04  0.14378836546E+04  0.85130056807E+03 0.  0.
        -24    2    4    4    0    0  0.23466372651E+03 -0.27117082669E+03  0.12000343120E+04  0.12550546579E+04  0.80493245136E+02 0.  0.
         24    2    4    4    0    0  0.98338837763E+02 -0.24874647796E+02 -0.13033196265E+03  0.18282899672E+03  0.78426694671E+02 0.  0.
         13    1    3    3    0    0 -0.30100682531E+03  0.22594994373E+03  0.20447440125E+03  0.42833195855E+03  0.00000000000E+00 0.  1.
        -13    1    3    3    0    0 -0.31995738964E+02  0.70095530758E+02  0.32809999051E+02  0.83747279250E+02  0.00000000000E+00 0. -1.
          2    1    6    6  502    0  0.62706115728E+01 -0.34278631986E+02 -0.45268918045E+02  0.57128102728E+02  0.00000000000E+00 0. -1.
          1    1    5    5  503    0  0.94813721154E+02 -0.13947752617E+03  0.44268901393E+03  0.47372690981E+03  0.00000000000E+00 0. -1.
         -2    1    5    5    0  503  0.13985000535E+03 -0.13169330052E+03  0.75734529805E+03  0.78132774806E+03  0.00000000000E+00 0.  1.
         -1    1    6    6    0  502  0.92068226190E+02  0.94039841898E+01 -0.85063044607E+02  0.12570089399E+03  0.00000000000E+00 0.  1.
<mgrwt>
<rscale>  0 0.14471147E+04</rscale>
<asrwt>0</asrwt>
<pdfrwt beam="1">  1        2 0.25053458E+00 0.14471147E+04</pdfrwt>
<pdfrwt beam="2">  1       -2 0.49459704E-01 0.14471147E+04</pdfrwt>
<totfact> 0.40338608E+01</totfact>
</mgrwt>
</event>
<event>
12    1  0.1556559E-007  0.1216015E+04  0.7818608E-02  0.9098953E-01
          1   -1    0    0  501    0  0.00000000000E+00  0.00000000000E+00  0.82948200578E+03  0.82948200578E+03  0.00000000000E+00 0. -1.
         -1   -1    0    0    0  501 -0.00000000000E+00 -0.00000000000E+00 -0.44566738048E+03  0.44566738048E+03  0.00000000000E+00 0.  1.
         23    2    1    2    0    0  0.56900651293E+02  0.69237407539E+02  0.34977898195E+03  0.37250141067E+03  0.91544863404E+02 0.  0.
        254    2    1    2    0    0 -0.56900651293E+02 -0.69237407539E+02  0.34035643352E+02  0.90264797560E+03  0.89754300182E+03 0.  0.
        -24    2    4    4    0    0 -0.43302023317E+03  0.60265348026E+01  0.19223295817E+03  0.48012104871E+03  0.77587819608E+02 0.  0.
         24    2    4    4    0    0  0.37611958187E+03 -0.75263942341E+02 -0.15819731482E+03  0.42252692689E+03  0.79824887382E+02 0.  0.
         13    1    3    3    0    0  0.77975340108E+02  0.49636481871E+02  0.30942018283E+03  0.32293154621E+03  0.00000000000E+00 0. -1.
        -13    1    3    3    0    0 -0.21074688815E+02  0.19600925668E+02  0.40358799125E+02  0.49569864459E+02  0.00000000000E+00 0.  1.
          4    1    6    6  502    0  0.15264238964E+03 -0.33136563177E+02 -0.22784149610E+02  0.15785071558E+03  0.00000000000E+00 0. -1.
          1    1    5    5  503    0 -0.36292486525E+03 -0.20473722901E+02  0.14389939059E+03  0.39094841828E+03  0.00000000000E+00 0. -1.
         -2    1    5    5    0  503 -0.70095367918E+02  0.26500257703E+02  0.48333567580E+02  0.89172630425E+02  0.00000000000E+00 0.  1.
         -3    1    6    6    0  502  0.22347719223E+03 -0.42127379165E+02 -0.13541316521E+03  0.26467621131E+03  0.00000000000E+00 0.  1.
<mgrwt>
<rscale>  0 0.12160149E+04</rscale>
<asrwt>0</asrwt>
<pdfrwt beam="1">  1        1 0.12761262E+00 0.12160149E+04</pdfrwt>
<pdfrwt beam="2">  1       -1 0.68564213E-01 0.12160149E+04</pdfrwt>
<totfact> 0.44384838E+01</totfact>
</mgrwt>
</event>
<event>
12    1  0.1556559E-007  0.2185047E+04  0.7818608E-02  0.8524678E-01
         -2   -1    0    0    0  501 -0.00000000000E+00  0.00000000000E+00  0.76923752905E+03  0.76923752905E+03  0.00000000000E+00 0.  1.
          2   -1    0    0  501    0  0.00000000000E+00 -0.00000000000E+00 -0.15516765902E+04  0.15516765902E+04  0.00000000000E+00 0. -1.
         23    2    1    2    0    0  0.32334539979E+03 -0.85448419993E+03 -0.24726108135E+03  0.95093829499E+03  0.91924441996E+02 0.  0.
        254    2    1    2    0    0 -0.32334539979E+03  0.85448419993E+03 -0.53517797976E+03  0.13699758242E+04  0.86932318124E+03 0.  0.
        -24    2    4    4    0    0 -0.61088459751E+03  0.55565491380E+03 -0.43087755830E+03  0.93476971109E+03  0.78781773307E+02 0.  0.
         24    2    4    4    0    0  0.28753919773E+03  0.29882928613E+03 -0.10430042146E+03  0.43520611314E+03  0.80920025437E+02 0.  0.
         11    1    3    3    0    0  0.15794347354E+03 -0.36392222069E+03 -0.15033184594E+03  0.42424661160E+03  0.00000000000E+00 0.  1.
        -11    1    3    3    0    0  0.16540192624E+03 -0.49056197924E+03 -0.96929235416E+02  0.52669168340E+03  0.00000000000E+00 0. -1.
          4    1    6    6  502    0  0.19748432003E+03  0.24854191438E+03 -0.96389699725E+02  0.33175912056E+03  0.00000000000E+00 0. -1.
          3    1    5    5  503    0 -0.59997225856E+03  0.52595815043E+03 -0.41599723074E+03  0.89980685873E+03  0.00000000000E+00 0. -1.
         -4    1    5    5    0  503 -0.10912338957E+02  0.29696763373E+02 -0.14880327560E+02  0.34962852353E+02  0.00000000000E+00 0.  1.
         -3    1    6    6    0  502  0.90054877700E+02  0.50287371747E+02 -0.79107217322E+01  0.10344699258E+03  0.00000000000E+00 0.  1.
<mgrwt>
<rscale>  0 0.21850472E+04</rscale>
<asrwt>0</asrwt>
<pdfrwt beam="1">  1        2 0.23871948E+00 0.21850472E+04</pdfrwt>
<pdfrwt beam="2">  1       -2 0.11834424E+00 0.21850472E+04</pdfrwt>
<totfact> 0.59718419E+00</totfact>
</mgrwt>
</event>
<event>
12    1  0.1556559E-007  0.1202505E+04  0.7818608E-02  0.9110667E-01
          2   -1    0    0  501    0  0.00000000000E+00  0.00000000000E+00  0.11638198512E+04  0.11638198512E+04  0.00000000000E+00 0. -1.
         -2   -1    0    0    0  501 -0.00000000000E+00 -0.00000000000E+00 -0.31061890659E+03  0.31061890659E+03  0.00000000000E+00 0.  1.
         23    2    1    2    0    0 -0.19752494144E+03 -0.62017090521E+02 -0.11286616162E+02  0.22688766594E+03  0.92132530861E+02 0.  0.
        254    2    1    2    0    0  0.19752494144E+03  0.62017090521E+02  0.86448756072E+03  0.12475510918E+04  0.87531866313E+03 0.  0.
        -24    2    4    4    0    0 -0.13267184334E+03 -0.33900509447E+03  0.39080439454E+03  0.54008697427E+03  0.80247074073E+02 0.  0.
         24    2    4    4    0    0  0.33019678478E+03  0.40102218499E+03  0.47368316618E+03  0.70746411754E+03  0.79252925162E+02 0.  0.
         11    1    3    3    0    0 -0.81045273317E+02 -0.58667153750E+02  0.28034651081E+02  0.10390434504E+03  0.00000000000E+00 0. -1.
        -11    1    3    3    0    0 -0.11647966812E+03 -0.33499367705E+01 -0.39321267243E+02  0.12298332090E+03  0.00000000000E+00 0.  1.
          4    1    6    6  502    0  0.14228129854E+03  0.13925297566E+03  0.22495689277E+03  0.30040133613E+03  0.00000000000E+00 0. -1.
          1    1    5    5  503    0 -0.35895317093E+02 -0.12405483795E+03  0.87705099628E+02  0.15610977262E+03  0.00000000000E+00 0. -1.
         -4    1    5    5    0  503 -0.96776526247E+02 -0.21495025652E+03  0.30309929492E+03  0.38397720165E+03  0.00000000000E+00 0.  1.
         -3    1    6    6    0  502  0.18791548624E+03  0.26176920933E+03  0.24872627341E+03  0.40706278141E+03  0.00000000000E+00 0.  1.
<mgrwt>
<rscale>  0 0.12025048E+04</rscale>
<asrwt>0</asrwt>
<pdfrwt beam="1">  1        2 0.17904921E+00 0.12025048E+04</pdfrwt>
<pdfrwt beam="2">  1       -2 0.47787525E-01 0.12025048E+04</pdfrwt>
<totfact> 0.81492702E+01</totfact>
</mgrwt>
</event>
<event>
12    1  0.1556559E-007  0.3522313E+04  0.7818608E-02  0.8108522E-01
          2   -1    0    0  501    0  0.00000000000E+00  0.00000000000E+00  0.31506543935E+04  0.31506543935E+04  0.00000000000E+00 0.  1.
         -2   -1    0    0    0  501 -0.00000000000E+00 -0.00000000000E+00 -0.98445324971E+03  0.98445324971E+03  0.00000000000E+00 0. -1.
         23    2    1    2    0    0 -0.83397209792E+03  0.13935961967E+04  0.69401968305E+03  0.17686316323E+04  0.93673426074E+02 0.  0.
        254    2    1    2    0    0  0.83397209792E+03 -0.13935961967E+04  0.14721814607E+04  0.23664760109E+04  0.89177947799E+03 0.  0.
        -24    2    4    4    0    0  0.41438582087E+03 -0.12269495018E+04  0.13872913101E+04  0.18995293309E+04  0.80708186406E+02 0.  0.
         24    2    4    4    0    0  0.41958627705E+03 -0.16664669489E+03  0.84890150614E+02  0.46694668000E+03  0.83720364842E+02 0.  0.
         13    1    3    3    0    0 -0.42313397588E+03  0.77106656672E+03  0.41153857780E+03  0.97105613271E+03  0.00000000000E+00 0. -1.
        -13    1    3    3    0    0 -0.41083812204E+03  0.62252962997E+03  0.28248110525E+03  0.79757549958E+03  0.00000000000E+00 0.  1.
          4    1    6    6  502    0  0.20993094394E+03 -0.12369262720E+03  0.26399457138E+02  0.24508732849E+03  0.00000000000E+00 0. -1.
          1    1    5    5  503    0  0.22531116283E+03 -0.58521376668E+03  0.71614059694E+03  0.95189160486E+03  0.00000000000E+00 0. -1.
         -2    1    5    5    0  503  0.18907465804E+03 -0.64173573512E+03  0.67115071317E+03  0.94763772605E+03  0.00000000000E+00 0.  1.
         -3    1    6    6    0  502  0.20965533311E+03 -0.42954067689E+02  0.58490693476E+02  0.22185935151E+03  0.00000000000E+00 0.  1.
<mgrwt>
<rscale>  0 0.35223129E+04</rscale>
<asrwt>0</asrwt>
<pdfrwt beam="1">  1        2 0.48471606E+00 0.35223129E+04</pdfrwt>
<pdfrwt beam="2">  1       -2 0.15145435E+00 0.35223129E+04</pdfrwt>
<totfact> 0.33409155E-01</totfact>
</mgrwt>
</event>
<event>
12    1  0.1556559E-007  0.2454321E+04  0.7818608E-02  0.8419442E-01
          2   -1    0    0  501    0  0.00000000000E+00  0.00000000000E+00  0.14901684703E+04  0.14901684703E+04  0.00000000000E+00 0. -1.
         -2   -1    0    0    0  501 -0.00000000000E+00 -0.00000000000E+00 -0.10105720467E+04  0.10105720467E+04  0.00000000000E+00 0.  1.
         23    2    1    2    0    0 -0.65300219372E+03 -0.83352648885E+03  0.12749382398E+03  0.10717725203E+04  0.10612910735E+03 0.  0.
        254    2    1    2    0    0  0.65300219372E+03  0.83352648885E+03  0.35210259971E+03  0.14289679967E+04  0.89263375600E+03 0.  0.
        -24    2    4    4    0    0  0.65136495973E+03  0.17578881381E+03  0.17421164140E+01  0.67942948334E+03  0.80270605059E+02 0.  0.
         24    2    4    4    0    0  0.16372339872E+01  0.65773767504E+03  0.35036048330E+03  0.74953851339E+03  0.80212125629E+02 0.  0.
         13    1    3    3    0    0 -0.63732812000E+03 -0.82153162525E+03  0.13886784061E+03  0.10489926697E+04  0.00000000000E+00 0.  1.
        -13    1    3    3    0    0 -0.15674073714E+02 -0.11994863605E+02 -0.11374016630E+02  0.22779850614E+02  0.00000000000E+00 0. -1.
          2    1    6    6  502    0  0.37887441375E+02  0.44933476358E+03  0.24592313048E+03  0.51362960787E+03  0.00000000000E+00 0. -1.
          3    1    5    5  503    0  0.46462083846E+02  0.21885624527E+02  0.19673034536E+02  0.54997582530E+02  0.00000000000E+00 0. -1.
         -4    1    5    5    0  503  0.60490287588E+03  0.15390318928E+03 -0.17930918122E+02  0.62443190081E+03  0.00000000000E+00 0.  1.
         -1    1    6    6    0  502 -0.36250207388E+02  0.20840291147E+03  0.10443735282E+03  0.23590890552E+03  0.00000000000E+00 0.  1.
<mgrwt>
<rscale>  0 0.24543208E+04</rscale>
<asrwt>0</asrwt>
<pdfrwt beam="1">  1        2 0.22925669E+00 0.24543208E+04</pdfrwt>
<pdfrwt beam="2">  1       -2 0.15547262E+00 0.24543208E+04</pdfrwt>
<totfact> 0.31345818E+00</totfact>
</mgrwt>
</event>
<event>
12    1  0.1556559E-007  0.1213112E+04  0.7818608E-02  0.9101456E-01
         -2   -1    0    0    0  501 -0.00000000000E+00  0.00000000000E+00  0.17817531517E+03  0.17817531517E+03  0.00000000000E+00 0.  1.
          2   -1    0    0  501    0  0.00000000000E+00 -0.00000000000E+00 -0.20648784368E+04  0.20648784368E+04  0.00000000000E+00 0. -1.
         23    2    1    2    0    0  0.16542948549E+03 -0.18668664538E+03 -0.25481250994E+03  0.36745341667E+03  0.88734322353E+02 0.  0.
        254    2    1    2    0    0 -0.16542948549E+03  0.18668664538E+03 -0.16318906117E+04  0.18756003353E+04  0.89027570507E+03 0.  0.
        -24    2    4    4    0    0 -0.78571905179E+02  0.56203065151E+02 -0.16867614970E+04  0.16914538402E+04  0.80742905601E+02 0.  0.
         24    2    4    4    0    0 -0.86857580316E+02  0.13048358023E+03  0.54870885320E+02  0.18414649513E+03  0.79554469683E+02 0.  0.
         13    1    3    3    0    0  0.74135750047E+02 -0.28954957720E+02 -0.10360495522E+03  0.13064641502E+03  0.00000000000E+00 0. -1.
        -13    1    3    3    0    0  0.91293735448E+02 -0.15773168766E+03 -0.15120755473E+03  0.23680700165E+03  0.00000000000E+00 0.  1.
          2    1    6    6  502    0 -0.86524366715E+02  0.13993598698E+03  0.45204177991E+02  0.17062228517E+03  0.00000000000E+00 0. -1.
          3    1    5    5  503    0 -0.42783421995E+02  0.25826442613E+02 -0.13987098883E+04  0.13996023642E+04  0.00000000000E+00 0. -1.
         -4    1    5    5    0  503 -0.35788483184E+02  0.30376622537E+02 -0.28805160876E+03  0.29185147599E+03  0.00000000000E+00 0.  1.
         -1    1    6    6    0  502 -0.33321360085E+00 -0.94524067503E+01  0.96667073287E+01  0.13524209968E+02  0.00000000000E+00 0.  1.
<mgrwt>
<rscale>  0 0.12131123E+04</rscale>
<asrwt>0</asrwt>
<pdfrwt beam="1">  1        2 0.31767360E+00 0.12131123E+04</pdfrwt>
<pdfrwt beam="2">  1       -2 0.27411587E-01 0.12131123E+04</pdfrwt>
<totfact> 0.73602119E+01</totfact>
</mgrwt>
</event>
<event>
12    1  0.1556559E-007  0.2055477E+04  0.7818608E-02  0.8581114E-01
         -2   -1    0    0    0  501 -0.00000000000E+00  0.00000000000E+00  0.95422748425E+03  0.95422748425E+03  0.00000000000E+00 0.  1.
          2   -1    0    0  501    0  0.00000000000E+00 -0.00000000000E+00 -0.11069123647E+04  0.11069123647E+04  0.00000000000E+00 0. -1.
         23    2    1    2    0    0  0.12310807197E+03 -0.56162247179E+03  0.49584313768E+03  0.76642216533E+03  0.10472401883E+03 0.  0.
        254    2    1    2    0    0 -0.12310807197E+03  0.56162247179E+03 -0.64852801811E+03  0.12947176836E+04  0.96183672821E+03 0.  0.
        -24    2    4    4    0    0  0.11699469831E+03  0.37116973480E+03  0.15844102818E+03  0.42772227815E+03  0.79925317304E+02 0.  0.
         24    2    4    4    0    0 -0.24010277029E+03  0.19045273698E+03 -0.80696904629E+03  0.86699540544E+03  0.80996333664E+02 0.  0.
         11    1    3    3    0    0  0.57872916780E+02 -0.29565247403E+03  0.19134848924E+03  0.35689480836E+03  0.00000000000E+00 0. -1.
        -11    1    3    3    0    0  0.65235155192E+02 -0.26596999776E+03  0.30449464844E+03  0.40952735697E+03  0.00000000000E+00 0.  1.
          4    1    6    6  502    0 -0.16804101226E+02  0.29595126355E+02 -0.16584543727E+03  0.16930138329E+03  0.00000000000E+00 0. -1.
          3    1    5    5  503    0 -0.95990458920E+01  0.16149038209E+02 -0.18446551121E+00  0.18787419850E+02  0.00000000000E+00 0. -1.
         -2    1    5    5    0  503  0.12659374421E+03  0.35502069659E+03  0.15862549369E+03  0.40893485830E+03  0.00000000000E+00 0.  1.
         -3    1    6    6    0  502 -0.22329866906E+03  0.16085761063E+03 -0.64112360902E+03  0.69769402215E+03  0.00000000000E+00 0.  1.
<mgrwt>
<rscale>  0 0.20554768E+04</rscale>
<asrwt>0</asrwt>
<pdfrwt beam="1">  1        2 0.17029421E+00 0.20554768E+04</pdfrwt>
<pdfrwt beam="2">  1       -2 0.14680423E+00 0.20554768E+04</pdfrwt>
<totfact> 0.63288350E+00</totfact>
</mgrwt>
</event>
<event>
12    1  0.1556559E-007  0.3677034E+04  0.7818608E-02  0.8073071E-01
          2   -1    0    0  501    0  0.00000000000E+00  0.00000000000E+00  0.16272135565E+04  0.16272135565E+04  0.00000000000E+00 0. -1.
         -2   -1    0    0    0  501 -0.00000000000E+00 -0.00000000000E+00 -0.20772590181E+04  0.20772590181E+04  0.00000000000E+00 0.  1.
         23    2    1    2    0    0 -0.54808342013E+03  0.11965605454E+04 -0.13378797448E+04  0.18789460896E+04  0.91452839203E+02 0.  0.
        254    2    1    2    0    0  0.54808342013E+03 -0.11965605454E+04  0.88783428315E+03  0.18255264850E+04  0.90119068945E+03 0.  0.
        -24    2    4    4    0    0  0.60634259694E+03 -0.30324760875E+03  0.50229386644E+03  0.84755944093E+03  0.80295831637E+02 0.  0.
         24    2    4    4    0    0 -0.58259176803E+02 -0.89331293669E+03  0.38554041671E+03  0.97796704406E+03  0.79849807831E+02 0.  0.
         11    1    3    3    0    0 -0.46629016246E+03  0.10812422771E+04 -0.12085253365E+04  0.16873188395E+04  0.00000000000E+00 0.  1.
        -11    1    3    3    0    0 -0.81793257674E+02  0.11531826835E+03 -0.12935440829E+03  0.19162725005E+03  0.00000000000E+00 0. -1.
          2    1    6    6  502    0 -0.62871443390E+02 -0.88105922463E+03  0.37004374218E+03  0.95767977259E+03  0.00000000000E+00 0. -1.
          1    1    5    5  503    0  0.42880500836E+03 -0.24229781422E+03  0.33078663879E+03  0.59329736758E+03  0.00000000000E+00 0. -1.
         -2    1    5    5    0  503  0.17753758857E+03 -0.60949794522E+02  0.17150722765E+03  0.25426207335E+03  0.00000000000E+00 0.  1.
         -1    1    6    6    0  502  0.46122665867E+01 -0.12253712067E+02  0.15496674531E+02  0.20287271477E+02  0.00000000000E+00 0.  1.
<mgrwt>
<rscale>  0 0.36770336E+04</rscale>
<asrwt>0</asrwt>
<pdfrwt beam="1">  1        2 0.25034055E+00 0.36770336E+04</pdfrwt>
<pdfrwt beam="2">  1       -2 0.31957831E+00 0.36770336E+04</pdfrwt>
<totfact> 0.21003913E-01</totfact>
</mgrwt>
</event>
<event>
12    1  0.1556559E-007  0.1181572E+04  0.7818608E-02  0.9129141E-01
         -2   -1    0    0    0  501 -0.00000000000E+00  0.00000000000E+00  0.14960438952E+03  0.14960438952E+03  0.00000000000E+00 0.  1.
          2   -1    0    0  501    0  0.00000000000E+00 -0.00000000000E+00 -0.23330078223E+04  0.23330078223E+04  0.00000000000E+00 0. -1.
         23    2    1    2    0    0  0.16885039920E+03  0.17201470904E+03 -0.50998011083E+03  0.57090303295E+03  0.88040003173E+02 0.  0.
        254    2    1    2    0    0 -0.16885039920E+03 -0.17201470904E+03 -0.16734233219E+04  0.19117091788E+04  0.89229303072E+03 0.  0.
        -24    2    4    4    0    0  0.31247318701E+03  0.99867906655E+01 -0.28850203739E+03  0.43186748892E+03  0.74410172805E+02 0.  0.
         24    2    4    4    0    0 -0.48132358621E+03 -0.18200149970E+03 -0.13849212845E+04  0.14798416899E+04  0.84424654823E+02 0.  0.
         13    1    3    3    0    0  0.90767554840E+01 -0.73832909848E+01 -0.73596617232E+01  0.13822629871E+02  0.00000000000E+00 0. -1.
        -13    1    3    3    0    0  0.15977364372E+03  0.17939800002E+03 -0.50262044910E+03  0.55708040308E+03  0.00000000000E+00 0.  1.
          4    1    6    6  502    0 -0.28677320403E+03 -0.63689972927E+02 -0.77778210173E+03  0.83140861252E+03  0.00000000000E+00 0. -1.
          3    1    5    5  503    0  0.96508486240E+02 -0.31169661975E+02 -0.86160674098E+02  0.13307553308E+03  0.00000000000E+00 0. -1.
         -4    1    5    5    0  503  0.21596470077E+03  0.41156452641E+02 -0.20234136329E+03  0.29879195583E+03  0.00000000000E+00 0.  1.
         -3    1    6    6    0  502 -0.19455038219E+03 -0.11831152677E+03 -0.60713918280E+03  0.64843307740E+03  0.00000000000E+00 0.  1.
<mgrwt>
<rscale>  0 0.11815722E+04</rscale>
<asrwt>0</asrwt>
<pdfrwt beam="1">  1        2 0.35892428E+00 0.11815722E+04</pdfrwt>
<pdfrwt beam="2">  1       -2 0.23016060E-01 0.11815722E+04</pdfrwt>
<totfact> 0.71771986E+01</totfact>
</mgrwt>
</event>
<event>
12    1  0.1556559E-007  0.3185824E+04  0.7818608E-02  0.8192571E-01
          1   -1    0    0  501    0  0.00000000000E+00  0.00000000000E+00  0.67397974604E+03  0.67397974604E+03  0.00000000000E+00 0. -1.
         -1   -1    0    0    0  501 -0.00000000000E+00 -0.00000000000E+00 -0.37647551336E+04  0.37647551336E+04  0.00000000000E+00 0.  1.
         23    2    1    2    0    0  0.11006440329E+04  0.72458971739E+03 -0.53864442093E+03  0.14264199837E+04  0.89936710659E+02 0.  0.
        254    2    1    2    0    0 -0.11006440329E+04 -0.72458971739E+03 -0.25521309667E+04  0.30123148960E+04  0.90786618837E+03 0.  0.
        -24    2    4    4    0    0 -0.72951286365E+02 -0.48536542829E+03 -0.11733913176E+04  0.12743744446E+04  0.79256239848E+02 0.  0.
         24    2    4    4    0    0 -0.10276927465E+04 -0.23922428910E+03 -0.13787396490E+04  0.17379404514E+04  0.78315714206E+02 0.  0.
         13    1    3    3    0    0  0.94700568455E+03  0.60493314418E+03 -0.42822055701E+03  0.12025542487E+04  0.00000000000E+00 0. -1.
        -13    1    3    3    0    0  0.15363834835E+03  0.11965657321E+03 -0.11042386392E+03  0.22386573503E+03  0.00000000000E+00 0.  1.
          4    1    6    6  502    0 -0.95486491590E+03 -0.20102922592E+03 -0.12675950670E+04  0.15996802840E+04  0.00000000000E+00 0. -1.
          3    1    5    5  503    0 -0.54463988706E+02 -0.23762502885E+03 -0.67104019361E+03  0.71395162430E+03  0.00000000000E+00 0. -1.
         -4    1    5    5    0  503 -0.18487297659E+02 -0.24774039944E+03 -0.50235112404E+03  0.56042282030E+03  0.00000000000E+00 0.  1.
         -3    1    6    6    0  502 -0.72827830639E+02 -0.38195063181E+02 -0.11114458207E+03  0.13826016741E+03  0.00000000000E+00 0.  1.
<mgrwt>
<rscale>  0 0.31858240E+04</rscale>
<asrwt>0</asrwt>
<pdfrwt beam="1">  1        1 0.10368919E+00 0.31858240E+04</pdfrwt>
<pdfrwt beam="2">  1       -1 0.57919310E+00 0.31858240E+04</pdfrwt>
<totfact> 0.12943889E-02</totfact>
</mgrwt>
</event>
<event>
12    1  0.1556559E-007  0.1220618E+04  0.7818608E-02  0.9094998E-01
         -2   -1    0    0    0  501 -0.00000000000E+00  0.00000000000E+00  0.29547152996E+03  0.29547152996E+03  0.00000000000E+00 0. -1.
          2   -1    0    0  501    0  0.00000000000E+00 -0.00000000000E+00 -0.12606195607E+04  0.12606195607E+04  0.00000000000E+00 0.  1.
         23    2    1    2    0    0 -0.13926483124E+02  0.25866497865E+03 -0.28142658480E+03  0.39559071655E+03  0.10094342118E+03 0.  0.
        254    2    1    2    0    0  0.13926483124E+02 -0.25866497865E+03 -0.68372144596E+03  0.11605003741E+04  0.90121284087E+03 0.  0.
        -24    2    4    4    0    0 -0.20037189266E+03 -0.26932910250E+03 -0.82162696133E+03  0.89117467472E+03  0.80214565066E+02 0.  0.
         24    2    4    4    0    0  0.21429837579E+03  0.10664123848E+02  0.13790551537E+03  0.26932569940E+03  0.86492102442E+02 0.  0.
         13    1    3    3    0    0 -0.51605503522E+02  0.13497100114E+03 -0.18251631269E+03  0.23279283395E+03  0.00000000000E+00 0.  1.
        -13    1    3    3    0    0  0.37679020398E+02  0.12369397750E+03 -0.98910272111E+02  0.16279788260E+03  0.00000000000E+00 0. -1.
          2    1    6    6  502    0  0.11348103222E+02 -0.17752875978E+02  0.32876613263E+02  0.39048889253E+02  0.00000000000E+00 0. -1.
          3    1    5    5  503    0  0.49122022611E+01 -0.10332845275E+02 -0.11457505891E+02  0.16191722076E+02  0.00000000000E+00 0. -1.
         -4    1    5    5    0  503 -0.20528409493E+03 -0.25899625722E+03 -0.81016945544E+03  0.87498295264E+03  0.00000000000E+00 0.  1.
         -1    1    6    6    0  502  0.20295027257E+03  0.28416999826E+02  0.10502890211E+03  0.23027681015E+03  0.00000000000E+00 0.  1.
<mgrwt>
<rscale>  0 0.12206182E+04</rscale>
<asrwt>0</asrwt>
<pdfrwt beam="1">  1        2 0.19394147E+00 0.12206182E+04</pdfrwt>
<pdfrwt beam="2">  1       -2 0.45457158E-01 0.12206182E+04</pdfrwt>
<totfact> 0.78809049E+01</totfact>
</mgrwt>
</event>
<event>
12    1  0.1556559E-007  0.2893246E+04  0.7818608E-02  0.8274890E-01
         -1   -1    0    0    0  501 -0.00000000000E+00  0.00000000000E+00  0.23761811324E+04  0.23761811324E+04  0.00000000000E+00 0.  1.
          1   -1    0    0  501    0  0.00000000000E+00 -0.00000000000E+00 -0.88070652003E+03  0.88070652003E+03  0.00000000000E+00 0. -1.
         23    2    1    2    0    0  0.65233123378E+03 -0.33448830820E+03 -0.53858672004E+03  0.91352025701E+03  0.83816096794E+02 0.  0.
        254    2    1    2    0    0 -0.65233123378E+03  0.33448830820E+03  0.20340613325E+04  0.23433673955E+04  0.90362977984E+03 0.  0.
        -24    2    4    4    0    0 -0.48930133857E+03  0.61676776684E+03  0.16709428516E+04  0.18489030367E+04  0.81081118680E+02 0.  0.
         24    2    4    4    0    0 -0.16302989521E+03 -0.28227945864E+03  0.36311848089E+03  0.49446435875E+03  0.79871968845E+02 0.  0.
         11    1    3    3    0    0  0.62269748598E+03 -0.32622376879E+03 -0.49336751834E+03  0.85882804712E+03  0.00000000000E+00 0. -1.
        -11    1    3    3    0    0  0.29633747798E+02 -0.82645394093E+01 -0.45219201701E+02  0.54692209890E+02  0.00000000000E+00 0.  1.
          2    1    6    6  502    0 -0.12337259489E+03 -0.15133960137E+03  0.17752185533E+03  0.26389104046E+03  0.00000000000E+00 0. -1.
          1    1    5    5  503    0 -0.39061868814E+03  0.51467113995E+03  0.14307762046E+04  0.15699012356E+04  0.00000000000E+00 0. -1.
         -2    1    5    5    0  503 -0.98682650425E+02  0.10209662689E+03  0.24016664696E+03  0.27900180112E+03  0.00000000000E+00 0.  1.
         -1    1    6    6    0  502 -0.39657300324E+02 -0.13093985727E+03  0.18559662555E+03  0.23057331829E+03  0.00000000000E+00 0.  1.
<mgrwt>
<rscale>  0 0.28932461E+04</rscale>
<asrwt>0</asrwt>
<pdfrwt beam="1">  1        1 0.13549331E+00 0.28932461E+04</pdfrwt>
<pdfrwt beam="2">  1       -1 0.36556632E+00 0.28932461E+04</pdfrwt>
<totfact> 0.19831233E-01</totfact>
</mgrwt>
</event>
<event>
12    1  0.1556559E-007  0.1686165E+04  0.7818608E-02  0.8769295E-01
         -1   -1    0    0    0  501 -0.00000000000E+00  0.00000000000E+00  0.43479465350E+03  0.43479465350E+03  0.00000000000E+00 0.  1.
          1   -1    0    0  501    0  0.00000000000E+00 -0.00000000000E+00 -0.16347674069E+04  0.16347674069E+04  0.00000000000E+00 0. -1.
         23    2    1    2    0    0  0.37351529883E+03  0.46397193887E+03 -0.51119010434E+03  0.79084407810E+03  0.96619845675E+02 0.  0.
        254    2    1    2    0    0 -0.37351529883E+03 -0.46397193887E+03 -0.68878264905E+03  0.12787179823E+04  0.89772740968E+03 0.  0.
        -24    2    4    4    0    0  0.17635882140E+03 -0.38930177644E+03 -0.54794745276E+03  0.69990628099E+03  0.83451088409E+02 0.  0.
         24    2    4    4    0    0 -0.54987412023E+03 -0.74670162422E+02 -0.14083519629E+03  0.57881170130E+03  0.85154282283E+02 0.  0.
         11    1    3    3    0    0  0.35615850791E+03  0.43821977614E+03 -0.50809410213E+03  0.75963482778E+03  0.00000000000E+00 0. -1.
        -11    1    3    3    0    0  0.17356790915E+02  0.25752162731E+02 -0.30960022155E+01  0.31209250326E+02  0.00000000000E+00 0.  1.
          2    1    6    6  502    0 -0.23704390613E+03 -0.60155986550E+01 -0.94256572827E+02  0.25516720475E+03  0.00000000000E+00 0. -1.
          1    1    5    5  503    0  0.91252662813E+02 -0.17809810474E+03 -0.19180288434E+03  0.27719006083E+03  0.00000000000E+00 0. -1.
         -2    1    5    5    0  503  0.85106158588E+02 -0.21120367170E+03 -0.35614456842E+03  0.42271622016E+03  0.00000000000E+00 0.  1.
         -1    1    6    6    0  502 -0.31283021411E+03 -0.68654563767E+02 -0.46578623460E+02  0.32364449655E+03  0.00000000000E+00 0.  1.
<mgrwt>
<rscale>  0 0.16861650E+04</rscale>
<asrwt>0</asrwt>
<pdfrwt beam="1">  1        1 0.25150268E+00 0.16861650E+04</pdfrwt>
<pdfrwt beam="2">  1       -1 0.66891483E-01 0.16861650E+04</pdfrwt>
<totfact> 0.11392725E+01</totfact>
</mgrwt>
</event>
<event>
12    1  0.1556559E-007  0.2036708E+04  0.7818608E-02  0.8589648E-01
          2   -1    0    0  501    0  0.00000000000E+00  0.00000000000E+00  0.37800512176E+04  0.37800512176E+04  0.00000000000E+00 0. -1.
         -2   -1    0    0    0  501 -0.00000000000E+00 -0.00000000000E+00 -0.27434684404E+03  0.27434684404E+03  0.00000000000E+00 0.  1.
         23    2    1    2    0    0 -0.38747748792E+03  0.13422754081E+03  0.27959103344E+04  0.28273218629E+04  0.92078675346E+02 0.  0.
        254    2    1    2    0    0  0.38747748792E+03 -0.13422754081E+03  0.70979403922E+03  0.12270761987E+04  0.91310053281E+03 0.  0.
        -24    2    4    4    0    0 -0.79982730771E+02 -0.31496056522E+03 -0.23371909320E+02  0.33547070787E+03  0.79980965427E+02 0.  0.
         24    2    4    4    0    0  0.46746021869E+03  0.18073302441E+03  0.73316594854E+03  0.89160549086E+03  0.79022535105E+02 0.  0.
         11    1    3    3    0    0 -0.32127249217E+03  0.14265958728E+03  0.22389352654E+04  0.22663624809E+04  0.00000000000E+00 0. -1.
        -11    1    3    3    0    0 -0.66204995756E+02 -0.84320464702E+01  0.55697506897E+03  0.56095938207E+03  0.00000000000E+00 0.  1.
          4    1    6    6  502    0  0.71393900904E+02  0.11153393620E+01  0.12479061320E+03  0.14377423347E+03  0.00000000000E+00 0. -1.
          3    1    5    5  503    0  0.51491720766E+01 -0.61433611515E+02 -0.28647856300E+02  0.67980160838E+02  0.00000000000E+00 0. -1.
         -4    1    5    5    0  503 -0.85131902847E+02 -0.25352695370E+03  0.52759469802E+01  0.26749054704E+03  0.00000000000E+00 0.  1.
         -3    1    6    6    0  502  0.39606631779E+03  0.17961768504E+03  0.60837533534E+03  0.74783125738E+03  0.00000000000E+00 0.  1.
<mgrwt>
<rscale>  0 0.20367082E+04</rscale>
<asrwt>0</asrwt>
<pdfrwt beam="1">  1        2 0.58154630E+00 0.20367082E+04</pdfrwt>
<pdfrwt beam="2">  1       -2 0.42207209E-01 0.20367082E+04</pdfrwt>
<totfact> 0.25254750E+00</totfact>
</mgrwt>
</event>
<event>
12    1  0.1556559E-007  0.1721624E+04  0.7818608E-02  0.8749126E-01
          1   -1    0    0  501    0  0.00000000000E+00  0.00000000000E+00  0.27162343560E+04  0.27162343560E+04  0.00000000000E+00 0. -1.
         -1   -1    0    0    0  501 -0.00000000000E+00 -0.00000000000E+00 -0.27280326723E+03  0.27280326723E+03  0.00000000000E+00 0.  1.
         23    2    1    2    0    0  0.38005968679E+03  0.47520780123E+03  0.10902659976E+04  0.12518328866E+04  0.90209813801E+02 0.  0.
        254    2    1    2    0    0 -0.38005968679E+03 -0.47520780123E+03  0.13531650912E+04  0.17372047366E+04  0.90363527666E+03 0.  0.
        -24    2    4    4    0    0 -0.25411383898E+03  0.62825818058E-02  0.11804963018E+04  0.12101462584E+04  0.79426726473E+02 0.  0.
         24    2    4    4    0    0 -0.12594584781E+03 -0.47521408381E+03  0.17266878935E+03  0.52705847827E+03  0.79280178260E+02 0.  0.
         13    1    3    3    0    0  0.35831946612E+03  0.47197076407E+03  0.10400776463E+04  0.11970425023E+04  0.00000000000E+00 0. -1.
        -13    1    3    3    0    0  0.21740220672E+02  0.32370371584E+01  0.50188351280E+02  0.54790384271E+02  0.00000000000E+00 0.  1.
          2    1    6    6  502    0 -0.50914906844E+02 -0.19221508383E+03  0.11145913333E+03  0.22795197870E+03  0.00000000000E+00 0. -1.
          1    1    5    5  503    0 -0.32314440440E+02  0.13607527905E+02  0.78592626195E+02  0.86059216641E+02  0.00000000000E+00 0. -1.
         -2    1    5    5    0  503 -0.22179939854E+03 -0.13601245323E+02  0.11019036756E+04  0.11240870417E+04  0.00000000000E+00 0.  1.
         -1    1    6    6    0  502 -0.75030940963E+02 -0.28299899998E+03  0.61209656015E+02  0.29910649956E+03  0.00000000000E+00 0.  1.
<mgrwt>
<rscale>  0 0.17216244E+04</rscale>
<asrwt>0</asrwt>
<pdfrwt beam="1">  1        1 0.41788219E+00 0.17216244E+04</pdfrwt>
<pdfrwt beam="2">  1       -1 0.41969735E-01 0.17216244E+04</pdfrwt>
<totfact> 0.50732876E+00</totfact>
</mgrwt>
</event>
<event>
12    1  0.1556559E-007  0.1553334E+04  0.7818608E-02  0.8849741E-01
          2   -1    0    0  501    0  0.00000000000E+00  0.00000000000E+00  0.43527541176E+03  0.43527541176E+03  0.00000000000E+00 0. -1.
         -2   -1    0    0    0  501 -0.00000000000E+00 -0.00000000000E+00 -0.13858160565E+04  0.13858160565E+04  0.00000000000E+00 0.  1.
         23    2    1    2    0    0  0.42433958258E+03 -0.37179712315E+02 -0.64104116912E+03  0.77511216992E+03  0.91753381956E+02 0.  0.
        254    2    1    2    0    0 -0.42433958258E+03  0.37179712315E+02 -0.30949947559E+03  0.10459792983E+04  0.90378999484E+03 0.  0.
        -24    2    4    4    0    0 -0.66974183657E+03  0.95747303938E+02 -0.61889076639E+02  0.68364756069E+03  0.76302395513E+02 0.  0.
         24    2    4    4    0    0  0.24540225399E+03 -0.58567591623E+02 -0.24761039896E+03  0.36233173763E+03  0.79504398442E+02 0.  0.
         11    1    3    3    0    0  0.20098339221E+03  0.21991072291E+01 -0.37539714497E+03  0.42581941768E+03  0.00000000000E+00 0.  1.
        -11    1    3    3    0    0  0.22335619037E+03 -0.39378819544E+02 -0.26564402415E+03  0.34929275224E+03  0.00000000000E+00 0. -1.
          4    1    6    6  502    0  0.18850577288E+03 -0.26765743271E+02 -0.13927349724E+03  0.23589815272E+03  0.00000000000E+00 0. -1.
          1    1    5    5  503    0 -0.65003421509E+03  0.96365472918E+02 -0.46769514385E+02  0.65880055604E+03  0.00000000000E+00 0. -1.
         -2    1    5    5    0  503 -0.19707621479E+02 -0.61816897962E+00 -0.15119562254E+02  0.24847004648E+02  0.00000000000E+00 0.  1.
         -3    1    6    6    0  502  0.56896481114E+02 -0.31801848352E+02 -0.10833690171E+03  0.12643358491E+03  0.00000000000E+00 0.  1.
<mgrwt>
<rscale>  0 0.15533340E+04</rscale>
<asrwt>0</asrwt>
<pdfrwt beam="1">  1        2 0.66965448E-01 0.15533340E+04</pdfrwt>
<pdfrwt beam="2">  1       -2 0.21320247E+00 0.15533340E+04</pdfrwt>
<totfact> 0.75862600E+00</totfact>
</mgrwt>
</event>
<event>
12    1  0.1556559E-007  0.1465489E+04  0.7818608E-02  0.8907733E-01
          2   -1    0    0  501    0  0.00000000000E+00  0.00000000000E+00  0.85386565549E+03  0.85386565549E+03  0.00000000000E+00 0. -1.
         -2   -1    0    0    0  501 -0.00000000000E+00 -0.00000000000E+00 -0.62880406116E+03  0.62880406116E+03  0.00000000000E+00 0.  1.
         23    2    1    2    0    0 -0.42972439028E+03  0.80909456195E+02 -0.33765685584E+02  0.44824556849E+03  0.92599008876E+02 0.  0.
        254    2    1    2    0    0  0.42972439028E+03 -0.80909456195E+02  0.25882727992E+03  0.10344241482E+04  0.90101740591E+03 0.  0.
        -24    2    4    4    0    0  0.34409813573E+03 -0.40947413794E+03 -0.81443085731E+02  0.54720659599E+03  0.82033443379E+02 0.  0.
         24    2    4    4    0    0  0.85626254549E+02  0.32856468174E+03  0.34027036565E+03  0.48721755216E+03  0.79438125877E+02 0.  0.
         13    1    3    3    0    0 -0.51625117351E+02  0.25361503667E+01 -0.34436506718E+02  0.62108435781E+02  0.00000000000E+00 0.  1.
        -13    1    3    3    0    0 -0.37809927293E+03  0.78373305828E+02  0.67082113445E+00  0.38613713271E+03  0.00000000000E+00 0. -1.
          4    1    6    6  502    0 -0.12221199616E+02  0.71136715433E+02  0.55367169679E+02  0.90968750024E+02  0.00000000000E+00 0. -1.
          3    1    5    5  503    0  0.24145575943E+03 -0.23755731787E+03 -0.27492305632E+02  0.33983847619E+03  0.00000000000E+00 0. -1.
         -4    1    5    5    0  503  0.10264237631E+03 -0.17191682007E+03 -0.53950780099E+02  0.20736811980E+03  0.00000000000E+00 0.  1.
         -3    1    6    6    0  502  0.97847454165E+02  0.25742796631E+03  0.28490319597E+03  0.39624880214E+03  0.00000000000E+00 0.  1.
<mgrwt>
<rscale>  0 0.14654886E+04</rscale>
<asrwt>0</asrwt>
<pdfrwt beam="1">  1        2 0.13136395E+00 0.14654886E+04</pdfrwt>
<pdfrwt beam="2">  1       -2 0.96739087E-01 0.14654886E+04</pdfrwt>
<totfact> 0.27297713E+01</totfact>
</mgrwt>
</event>
<event>
12    1  0.1556559E-007  0.2741568E+04  0.7818608E-02  0.8321642E-01
         -2   -1    0    0    0  501 -0.00000000000E+00  0.00000000000E+00  0.67664447965E+03  0.67664447965E+03  0.00000000000E+00 0.  1.
          2   -1    0    0  501    0  0.00000000000E+00 -0.00000000000E+00 -0.27770106569E+04  0.27770106569E+04  0.00000000000E+00 0. -1.
         23    2    1    2    0    0 -0.48793113256E+03 -0.27208322290E+03  0.43183884853E+03  0.71180468134E+03  0.89861242831E+02 0.  0.
        254    2    1    2    0    0  0.48793113256E+03  0.27208322290E+03 -0.25322050258E+04  0.27418504552E+04  0.89082857823E+03 0.  0.
        -24    2    4    4    0    0  0.37822776240E+03  0.58951204929E+03 -0.16133009740E+04  0.17605131852E+04  0.78012474218E+02 0.  0.
         24    2    4    4    0    0  0.10970337016E+03 -0.31742882639E+03 -0.91890405173E+03  0.98133726993E+03  0.76434886143E+02 0.  0.
         13    1    3    3    0    0 -0.26317577075E+03 -0.10680416415E+03  0.18222579512E+03  0.33745348746E+03  0.00000000000E+00 0. -1.
        -13    1    3    3    0    0 -0.22475536181E+03 -0.16527905875E+03  0.24961305341E+03  0.37435119387E+03  0.00000000000E+00 0.  1.
          2    1    6    6  502    0  0.11165097670E+03 -0.32046672722E+03 -0.89529293629E+03  0.95745198607E+03  0.00000000000E+00 0. -1.
          3    1    5    5  503    0  0.30339265096E+03  0.40918136205E+03 -0.11519023439E+04  0.12595060530E+04  0.00000000000E+00 0. -1.
         -4    1    5    5    0  503  0.74835111443E+02  0.18033068724E+03 -0.46139863009E+03  0.50100713220E+03  0.00000000000E+00 0.  1.
         -1    1    6    6    0  502 -0.19476065432E+01  0.30379008367E+01 -0.23611115446E+02  0.23885283866E+02  0.00000000000E+00 0.  1.
<mgrwt>
<rscale>  0 0.27415681E+04</rscale>
<asrwt>0</asrwt>
<pdfrwt beam="1">  1        2 0.42723241E+00 0.27415681E+04</pdfrwt>
<pdfrwt beam="2">  1       -2 0.10409915E+00 0.27415681E+04</pdfrwt>
<totfact> 0.15660524E+00</totfact>
</mgrwt>
</event>
<event>
12    1  0.1556559E-007  0.1306948E+04  0.7818608E-02  0.9024073E-01
          2   -1    0    0  501    0  0.00000000000E+00  0.00000000000E+00  0.13500835142E+04  0.13500835142E+04  0.00000000000E+00 0. -1.
         -2   -1    0    0    0  501 -0.00000000000E+00 -0.00000000000E+00 -0.31629784519E+03  0.31629784519E+03  0.00000000000E+00 0.  1.
         23    2    1    2    0    0 -0.24027316113E+03 -0.20835722145E+03  0.37330103998E+03  0.49888347582E+03  0.91581287981E+02 0.  0.
        254    2    1    2    0    0  0.24027316113E+03  0.20835722145E+03  0.66048462904E+03  0.11674978836E+04  0.90866244516E+03 0.  0.
        -24    2    4    4    0    0  0.33385186323E+01  0.10064409194E+02  0.81095571711E+03  0.81469439781E+03  0.77235669630E+02 0.  0.
         24    2    4    4    0    0  0.23693464250E+03  0.19829281226E+03 -0.15047108807E+03  0.35280348576E+03  0.79816583548E+02 0.  0.
         13    1    3    3    0    0 -0.15933472056E+03 -0.99769726811E+02  0.26784612262E+03  0.32723553744E+03  0.00000000000E+00 0. -1.
        -13    1    3    3    0    0 -0.80938440572E+02 -0.10858749464E+03  0.10545491736E+03  0.17164793838E+03  0.00000000000E+00 0.  1.
          2    1    6    6  502    0  0.53053020235E+02  0.41990799113E+02  0.13716475279E+01  0.67673714122E+02  0.00000000000E+00 0. -1.
          3    1    5    5  503    0  0.11819529438E+02  0.18853179514E+02  0.66222307981E+02  0.69860845459E+02  0.00000000000E+00 0. -1.
         -4    1    5    5    0  503 -0.84810108062E+01 -0.87887703201E+01  0.74473340913E+03  0.74483355235E+03  0.00000000000E+00 0.  1.
         -1    1    6    6    0  502  0.18388162227E+03  0.15630201315E+03 -0.15184273560E+03  0.28512977164E+03  0.00000000000E+00 0.  1.
<mgrwt>
<rscale>  0 0.13069484E+04</rscale>
<asrwt>0</asrwt>
<pdfrwt beam="1">  1        2 0.20770515E+00 0.13069484E+04</pdfrwt>
<pdfrwt beam="2">  1       -2 0.48661208E-01 0.13069484E+04</pdfrwt>
<totfact> 0.60559144E+01</totfact>
</mgrwt>
</event>
<event>
12    1  0.1556559E-007  0.3085702E+04  0.7818608E-02  0.8219673E-01
         -4   -1    0    0    0  501 -0.00000000000E+00  0.00000000000E+00  0.19032967662E+04  0.19032967662E+04  0.00000000000E+00 0.  1.
          4   -1    0    0  501    0  0.00000000000E+00 -0.00000000000E+00 -0.12506660415E+04  0.12506660415E+04  0.00000000000E+00 0. -1.
         23    2    1    2    0    0  0.58342539138E+03 -0.70433474947E+03 -0.79879013742E+03  0.12175268702E+04  0.88506323836E+02 0.  0.
        254    2    1    2    0    0 -0.58342539138E+03  0.70433474947E+03  0.14514208621E+04  0.19364359375E+04  0.89815866890E+03 0.  0.
        -24    2    4    4    0    0 -0.34412500006E+03 -0.15198855472E+03  0.52354947376E+03  0.64852343543E+03  0.70399278410E+02 0.  0.
         24    2    4    4    0    0 -0.23930039132E+03  0.85632330419E+03  0.92787138837E+03  0.12879125021E+04  0.84964822842E+02 0.  0.
         13    1    3    3    0    0  0.47068516061E+03 -0.60302219617E+03 -0.69751014750E+03  0.10352297790E+04  0.00000000000E+00 0. -1.
        -13    1    3    3    0    0  0.11274023077E+03 -0.10131255330E+03 -0.10127998991E+03  0.18229709116E+03  0.00000000000E+00 0.  1.
          4    1    6    6  502    0 -0.21278066302E+03  0.74333226852E+03  0.76287255139E+03  0.10861827662E+04  0.00000000000E+00 0. -1.
          3    1    5    5  503    0 -0.32953193462E+03 -0.15866442003E+03  0.50958916698E+03  0.62725338837E+03  0.00000000000E+00 0. -1.
         -4    1    5    5    0  503 -0.14593065440E+02  0.66758653142E+01  0.13960306771E+02  0.21270047056E+02  0.00000000000E+00 0.  1.
         -3    1    6    6    0  502 -0.26519728299E+02  0.11299103567E+03  0.16499883698E+03  0.20172973587E+03  0.00000000000E+00 0.  1.
<mgrwt>
<rscale>  0 0.30857016E+04</rscale>
<asrwt>0</asrwt>
<pdfrwt beam="1">  1        4 0.19241016E+00 0.30857016E+04</pdfrwt>
<pdfrwt beam="2">  1       -4 0.29281489E+00 0.30857016E+04</pdfrwt>
<totfact> 0.85334161E-03</totfact>
</mgrwt>
</event>
<event>
12    1  0.1556559E-007  0.1531651E+04  0.7818608E-02  0.8863674E-01
         -2   -1    0    0    0  501 -0.00000000000E+00  0.00000000000E+00  0.14844971565E+04  0.14844971565E+04  0.00000000000E+00 0.  1.
          2   -1    0    0  501    0  0.00000000000E+00 -0.00000000000E+00 -0.39507566660E+03  0.39507566660E+03  0.00000000000E+00 0. -1.
         23    2    1    2    0    0 -0.17125302907E+03  0.44896521965E+03  0.17905356715E+03  0.52144429757E+03  0.94586506119E+02 0.  0.
        254    2    1    2    0    0  0.17125302907E+03 -0.44896521965E+03  0.91036792272E+03  0.13581285255E+04  0.88591532815E+03 0.  0.
        -24    2    4    4    0    0 -0.17581792305E+03 -0.56446303072E+03  0.37692989735E+03  0.70571326755E+03  0.80153685907E+02 0.  0.
         24    2    4    4    0    0  0.34707095213E+03  0.11549781107E+03  0.53343802537E+03  0.65241525796E+03  0.85390583365E+02 0.  0.
         13    1    3    3    0    0 -0.16879095224E+03  0.36940385498E+03  0.12395094909E+03  0.42463329052E+03  0.00000000000E+00 0. -1.
        -13    1    3    3    0    0 -0.24620768294E+01  0.79561364666E+02  0.55102618059E+02  0.96811007054E+02  0.00000000000E+00 0.  1.
          4    1    6    6  502    0  0.25005181446E+03  0.81809918904E+02  0.44464902685E+03  0.51665416849E+03  0.00000000000E+00 0. -1.
          1    1    5    5  503    0 -0.15607677522E+03 -0.37844843942E+03  0.25037689731E+03  0.47986641034E+03  0.00000000000E+00 0. -1.
         -4    1    5    5    0  503 -0.19741147830E+02 -0.18601459130E+03  0.12655300003E+03  0.22584685721E+03  0.00000000000E+00 0.  1.
         -3    1    6    6    0  502  0.97019137672E+02  0.33687892167E+02  0.88788998522E+02  0.13576108946E+03  0.00000000000E+00 0.  1.
<mgrwt>
<rscale>  0 0.15316510E+04</rscale>
<asrwt>0</asrwt>
<pdfrwt beam="1">  1        2 0.60780872E-01 0.15316510E+04</pdfrwt>
<pdfrwt beam="2">  1       -2 0.22838418E+00 0.15316510E+04</pdfrwt>
<totfact> 0.67999379E+00</totfact>
</mgrwt>
</event>
<event>
12    1  0.1556559E-007  0.2211536E+04  0.7818608E-02  0.8513642E-01
         -1   -1    0    0    0  501 -0.00000000000E+00  0.00000000000E+00  0.12657517937E+04  0.12657517937E+04  0.00000000000E+00 0.  1.
          1   -1    0    0  501    0  0.00000000000E+00 -0.00000000000E+00 -0.96600558900E+03  0.96600558900E+03  0.00000000000E+00 0. -1.
         23    2    1    2    0    0  0.35383305861E+03  0.65923647667E+03 -0.42581241179E+03  0.86578291532E+03  0.92050425716E+02 0.  0.
        254    2    1    2    0    0 -0.35383305861E+03 -0.65923647667E+03  0.72555861652E+03  0.13659744674E+04  0.88298379040E+03 0.  0.
        -24    2    4    4    0    0 -0.97359997384E+02 -0.81852429089E+03  0.41893642207E+03  0.92823696913E+03  0.81579171672E+02 0.  0.
         24    2    4    4    0    0 -0.25647306123E+03  0.15928781422E+03  0.30662219445E+03  0.43773749830E+03  0.80286414735E+02 0.  0.
         13    1    3    3    0    0  0.16825702801E+03  0.33497887325E+03 -0.26481321880E+03  0.45896330338E+03  0.00000000000E+00 0. -1.
        -13    1    3    3    0    0  0.18557603060E+03  0.32425760342E+03 -0.16099919299E+03  0.40681961194E+03  0.00000000000E+00 0.  1.
          2    1    6    6  502    0 -0.12599080724E+03  0.61025756537E+02  0.89976001795E+02  0.16641366341E+03  0.00000000000E+00 0. -1.
          3    1    5    5  503    0 -0.16202785664E+02 -0.47743092564E+03  0.24142077595E+03  0.53524462639E+03  0.00000000000E+00 0. -1.
         -4    1    5    5    0  503 -0.81157211721E+02 -0.34109336525E+03  0.17751564612E+03  0.39299234274E+03  0.00000000000E+00 0.  1.
         -1    1    6    6    0  502 -0.13048225398E+03  0.98262057680E+02  0.21664619266E+03  0.27132383488E+03  0.00000000000E+00 0.  1.
<mgrwt>
<rscale>  0 0.22115364E+04</rscale>
<asrwt>0</asrwt>
<pdfrwt beam="1">  1        1 0.14861624E+00 0.22115364E+04</pdfrwt>
<pdfrwt beam="2">  1       -1 0.19473104E+00 0.22115364E+04</pdfrwt>
<totfact> 0.23999573E+00</totfact>
</mgrwt>
</event>
<event>
12    1  0.1556559E-007  0.1033623E+04  0.7818608E-02  0.9272417E-01
         -2   -1    0    0    0  501 -0.00000000000E+00  0.00000000000E+00  0.10818648072E+03  0.10818648072E+03  0.00000000000E+00 0.  1.
          2   -1    0    0  501    0  0.00000000000E+00 -0.00000000000E+00 -0.24688327470E+04  0.24688327470E+04  0.00000000000E+00 0. -1.
         23    2    1    2    0    0  0.58711512407E+02 -0.67024065977E+02 -0.17273711281E+03  0.21538438087E+03  0.92806542182E+02 0.  0.
        254    2    1    2    0    0 -0.58711512407E+02  0.67024065977E+02 -0.21879091534E+04  0.23616348468E+04  0.88455266597E+03 0.  0.
        -24    2    4    4    0    0  0.26159261160E+03 -0.28947333766E+03 -0.11102120307E+04  0.11795161587E+04  0.80387236978E+02 0.  0.
         24    2    4    4    0    0 -0.32030412400E+03  0.35649740364E+03 -0.10776971228E+04  0.11821186882E+04  0.79299267149E+02 0.  0.
         13    1    3    3    0    0  0.51459694160E+02 -0.90315088962E+02 -0.13372119524E+03  0.16937022606E+03  0.00000000000E+00 0.  1.
        -13    1    3    3    0    0  0.72518182471E+01  0.23291022985E+02 -0.39015917567E+02  0.46014154813E+02  0.00000000000E+00 0. -1.
          4    1    6    6  502    0 -0.31325149456E+03  0.32945023869E+03 -0.10414502831E+04  0.11363461844E+04  0.00000000000E+00 0. -1.
          3    1    5    5  503    0  0.21496654237E+03 -0.22169186863E+03 -0.95735746563E+03  0.10059280372E+04  0.00000000000E+00 0. -1.
         -4    1    5    5    0  503  0.46626069231E+02 -0.67781469027E+02 -0.15285456503E+03  0.17358812150E+03  0.00000000000E+00 0.  1.
         -3    1    6    6    0  502 -0.70526294415E+01  0.27047164944E+02 -0.36246839714E+02  0.45772503785E+02  0.00000000000E+00 0.  1.
<mgrwt>
<rscale>  0 0.10336234E+04</rscale>
<asrwt>0</asrwt>
<pdfrwt beam="1">  1        2 0.37982040E+00 0.10336234E+04</pdfrwt>
<pdfrwt beam="2">  1       -2 0.16644075E-01 0.10336234E+04</pdfrwt>
<totfact> 0.10746547E+02</totfact>
</mgrwt>
</event>
<event>
12    1  0.1556559E-007  0.2174713E+04  0.7818608E-02  0.8529028E-01
         -2   -1    0    0    0  501 -0.00000000000E+00  0.00000000000E+00  0.40386353895E+03  0.40386353895E+03  0.00000000000E+00 0.  1.
          2   -1    0    0  501    0  0.00000000000E+00 -0.00000000000E+00 -0.29275823055E+04  0.29275823055E+04  0.00000000000E+00 0. -1.
         23    2    1    2    0    0  0.24306992971E+03  0.46148375664E+03  0.69414445079E+02  0.53452733654E+03  0.94079009080E+02 0.  0.
        254    2    1    2    0    0 -0.24306992971E+03 -0.46148375664E+03 -0.25931332116E+04  0.27969185079E+04  0.90904512441E+03 0.  0.
        -24    2    4    4    0    0 -0.32376049332E+03 -0.26014084074E+03 -0.25193881713E+04  0.25546229957E+04  0.79295512834E+02 0.  0.
         24    2    4    4    0    0  0.80690563611E+02 -0.20134291590E+03 -0.73745040260E+02  0.24229551215E+03  0.78859669059E+02 0.  0.
         11    1    3    3    0    0  0.18283371892E+02  0.11802646403E+03  0.19748880505E+02  0.12105596301E+03  0.00000000000E+00 0. -1.
        -11    1    3    3    0    0  0.22478655782E+03  0.34345729261E+03  0.49665564574E+02  0.41347137353E+03  0.00000000000E+00 0.  1.
          2    1    6    6  502    0  0.55067126037E+02 -0.56277781863E+02 -0.49495893634E+02  0.93002261198E+02  0.00000000000E+00 0. -1.
          1    1    5    5  503    0 -0.13274194199E+03 -0.14841563629E+03 -0.13301657948E+04  0.13449864928E+04  0.00000000000E+00 0. -1.
         -2    1    5    5    0  503 -0.19101855133E+03 -0.11172520445E+03 -0.11892223766E+04  0.12096365029E+04  0.00000000000E+00 0.  1.
         -1    1    6    6    0  502  0.25623437575E+02 -0.14506513404E+03 -0.24249146626E+02  0.14929325095E+03  0.00000000000E+00 0.  1.
<mgrwt>
<rscale>  0 0.21747126E+04</rscale>
<asrwt>0</asrwt>
<pdfrwt beam="1">  1        2 0.45039726E+00 0.21747126E+04</pdfrwt>
<pdfrwt beam="2">  1       -2 0.62132854E-01 0.21747126E+04</pdfrwt>
<totfact> 0.42596482E+00</totfact>
</mgrwt>
</event>
<event>
12    1  0.1556559E-007  0.1222808E+04  0.7818608E-02  0.9093124E-01
          2   -1    0    0  501    0  0.00000000000E+00  0.00000000000E+00  0.79023787026E+03  0.79023787026E+03  0.00000000000E+00 0. -1.
         -2   -1    0    0    0  501 -0.00000000000E+00 -0.00000000000E+00 -0.47304086336E+03  0.47304086336E+03  0.00000000000E+00 0.  1.
         23    2    1    2    0    0 -0.22103533826E+02 -0.44269267545E+02  0.34687169835E+03  0.36210735932E+03  0.91397102243E+02 0.  0.
        254    2    1    2    0    0  0.22103533826E+02  0.44269267545E+02 -0.29674691450E+02  0.90117137431E+03  0.89932248071E+03 0.  0.
        -24    2    4    4    0    0 -0.73574515353E+02  0.38783806389E+03  0.21938657479E+03  0.45865460291E+03  0.80012514403E+02 0.  0.
         24    2    4    4    0    0  0.95678049179E+02 -0.34356879634E+03 -0.24906126624E+03  0.44251677140E+03  0.81214356598E+02 0.  0.
         13    1    3    3    0    0  0.49774774293E+01 -0.49904695543E+02  0.31871435938E+03  0.32263616783E+03  0.00000000000E+00 0. -1.
        -13    1    3    3    0    0 -0.27081011255E+02  0.56354279983E+01  0.28157338973E+02  0.39471191487E+02  0.00000000000E+00 0.  1.
          4    1    6    6  502    0  0.66332491108E+02 -0.97730875934E+02 -0.84613559309E+02  0.14529548481E+03  0.00000000000E+00 0. -1.
          1    1    5    5  503    0  0.12854397199E+02  0.13437614804E+03  0.73391651941E+02  0.15365064030E+03  0.00000000000E+00 0. -1.
         -2    1    5    5    0  503 -0.86428912552E+02  0.25346191585E+03  0.14599492285E+03  0.30500396261E+03  0.00000000000E+00 0.  1.
         -3    1    6    6    0  502  0.29345558071E+02 -0.24583792041E+03 -0.16444770693E+03  0.29722128659E+03  0.00000000000E+00 0.  1.
<mgrwt>
<rscale>  0 0.12228079E+04</rscale>
<asrwt>0</asrwt>
<pdfrwt beam="1">  1        2 0.12157506E+00 0.12228079E+04</pdfrwt>
<pdfrwt beam="2">  1       -2 0.72775518E-01 0.12228079E+04</pdfrwt>
<totfact> 0.58907148E+01</totfact>
</mgrwt>
</event>
<event>
12    1  0.1556559E-007  0.1729887E+04  0.7818608E-02  0.8744500E-01
         -2   -1    0    0    0  501 -0.00000000000E+00  0.00000000000E+00  0.59495945595E+03  0.59495945595E+03  0.00000000000E+00 0.  1.
          2   -1    0    0  501    0  0.00000000000E+00 -0.00000000000E+00 -0.12574426696E+04  0.12574426696E+04  0.00000000000E+00 0. -1.
         23    2    1    2    0    0  0.78671833179E+02 -0.33366895219E+03  0.32724269034E+03  0.48284098138E+03  0.92322304574E+02 0.  0.
        254    2    1    2    0    0 -0.78671833179E+02  0.33366895219E+03 -0.98972590402E+03  0.13695611442E+04  0.88239227990E+03 0.  0.
        -24    2    4    4    0    0  0.37942823292E+03  0.21690468709E+03 -0.32596866185E+03  0.55087822094E+03  0.78726225548E+02 0.  0.
         24    2    4    4    0    0 -0.45810006610E+03  0.11676426510E+03 -0.66375724217E+03  0.81868292326E+03  0.78603359541E+02 0.  0.
         13    1    3    3    0    0  0.89479192353E+02 -0.18580509032E+03  0.20349385640E+03  0.28972367360E+03  0.00000000000E+00 0.  1.
        -13    1    3    3    0    0 -0.10807359175E+02 -0.14786386187E+03  0.12374883394E+03  0.19311730778E+03  0.00000000000E+00 0. -1.
          2    1    6    6  502    0 -0.25576849164E+03  0.83347126529E+02 -0.31631516984E+03  0.41523433322E+03  0.00000000000E+00 0. -1.
          1    1    5    5  503    0  0.34158177711E+03  0.19985789353E+03 -0.26199553322E+03  0.47461873908E+03  0.00000000000E+00 0. -1.
         -2    1    5    5    0  503  0.37846455810E+02  0.17046793560E+02 -0.63973128628E+02  0.76259481866E+02  0.00000000000E+00 0.  1.
         -1    1    6    6    0  502 -0.20233157446E+03  0.33417138575E+02 -0.34744207233E+03  0.40344859003E+03  0.00000000000E+00 0.  1.
<mgrwt>
<rscale>  0 0.17298872E+04</rscale>
<asrwt>0</asrwt>
<pdfrwt beam="1">  1        2 0.19345272E+00 0.17298872E+04</pdfrwt>
<pdfrwt beam="2">  1       -2 0.91532225E-01 0.17298872E+04</pdfrwt>
<totfact> 0.16896074E+01</totfact>
</mgrwt>
</event>
<event>
12    1  0.1556559E-007  0.1559579E+04  0.7818608E-02  0.8845772E-01
          1   -1    0    0  501    0  0.00000000000E+00  0.00000000000E+00  0.64864535149E+03  0.64864535149E+03  0.00000000000E+00 0. -1.
         -1   -1    0    0    0  501 -0.00000000000E+00 -0.00000000000E+00 -0.93744833761E+03  0.93744833761E+03  0.00000000000E+00 0.  1.
         23    2    1    2    0    0  0.35365339627E+02 -0.15489859941E+03  0.39796214269E+03  0.43879135928E+03  0.94444198471E+02 0.  0.
        254    2    1    2    0    0 -0.35365339627E+02  0.15489859941E+03 -0.68676512880E+03  0.11473023298E+04  0.90521379271E+03 0.  0.
        -24    2    4    4    0    0  0.38747885426E+03 -0.11365012741E+03 -0.30944226018E+03  0.51482072669E+03  0.78928159013E+02 0.  0.
         24    2    4    4    0    0 -0.42284419389E+03  0.26854872682E+03 -0.37732286862E+03  0.63248160313E+03  0.82126732118E+02 0.  0.
         13    1    3    3    0    0 -0.15625207634E+02  0.39296015436E+01  0.20205632952E+02  0.25842919434E+02  0.00000000000E+00 0.  1.
        -13    1    3    3    0    0  0.50990547260E+02 -0.15882820095E+03  0.37775650974E+03  0.41294843985E+03  0.00000000000E+00 0. -1.
          4    1    6    6  502    0 -0.39168112241E+03  0.23528398150E+03 -0.31379249605E+03  0.55429088408E+03  0.00000000000E+00 0. -1.
          3    1    5    5  503    0  0.34132423762E+03 -0.74223572040E+02 -0.27820688609E+03  0.44655396684E+03  0.00000000000E+00 0. -1.
         -4    1    5    5    0  503  0.46154616638E+02 -0.39426555375E+02 -0.31235374092E+02  0.68266759850E+02  0.00000000000E+00 0.  1.
         -3    1    6    6    0  502 -0.31163071477E+02  0.33264745323E+02 -0.63530372572E+02  0.78190719043E+02  0.00000000000E+00 0.  1.
<mgrwt>
<rscale>  0 0.15595788E+04</rscale>
<asrwt>0</asrwt>
<pdfrwt beam="1">  1        1 0.99791593E-01 0.15595788E+04</pdfrwt>
<pdfrwt beam="2">  1       -1 0.14422282E+00 0.15595788E+04</pdfrwt>
<totfact> 0.11400528E+01</totfact>
</mgrwt>
</event>
<event>
12    1  0.1556559E-007  0.1641906E+04  0.7818608E-02  0.8795209E-01
          1   -1    0    0  501    0  0.00000000000E+00  0.00000000000E+00  0.25527457880E+04  0.25527457880E+04  0.00000000000E+00 0. -1.
         -1   -1    0    0    0  501 -0.00000000000E+00 -0.00000000000E+00 -0.26401521636E+03  0.26401521636E+03  0.00000000000E+00 0.  1.
         23    2    1    2    0    0 -0.27348927708E+03  0.16493786545E+03 -0.69872334580E+01  0.33225389122E+03  0.91339710248E+02 0.  0.
        254    2    1    2    0    0  0.27348927708E+03 -0.16493786545E+03  0.22957178051E+04  0.24845071131E+04  0.89468121165E+03 0.  0.
        -24    2    4    4    0    0  0.11478859410E+03  0.34861448649E+03  0.12577849161E+04  0.13129302065E+04  0.83990181460E+02 0.  0.
         24    2    4    4    0    0  0.15870068297E+03 -0.51355235194E+03  0.10379328890E+04  0.11715769066E+04  0.79786220831E+02 0.  0.
         11    1    3    3    0    0 -0.22277570794E+03  0.10382482989E+03  0.24124101704E+02  0.24696271709E+03  0.00000000000E+00 0.  1.
        -11    1    3    3    0    0 -0.50713569139E+02  0.61113035558E+02 -0.31111335162E+02  0.85291174136E+02  0.00000000000E+00 0. -1.
          2    1    6    6  502    0 -0.27687888634E+01 -0.88131829554E+02  0.18032615288E+03  0.20072968636E+03  0.00000000000E+00 0. -1.
          1    1    5    5  503    0  0.77052134749E+02  0.10641218146E+03  0.43433453433E+03  0.45376984425E+03  0.00000000000E+00 0. -1.
         -2    1    5    5    0  503  0.37736459355E+02  0.24220230503E+03  0.82345038176E+03  0.85916036230E+03  0.00000000000E+00 0.  1.
         -1    1    6    6    0  502  0.16146947183E+03 -0.42542052238E+03  0.85760673613E+03  0.97084722025E+03  0.00000000000E+00 0.  1.
<mgrwt>
<rscale>  0 0.16419059E+04</rscale>
<asrwt>0</asrwt>
<pdfrwt beam="1">  1        1 0.39273010E+00 0.16419059E+04</pdfrwt>
<pdfrwt beam="2">  1       -1 0.40617727E-01 0.16419059E+04</pdfrwt>
<totfact> 0.70642686E+00</totfact>
</mgrwt>
</event>
<event>
12    1  0.1556559E-007  0.1549192E+04  0.7818608E-02  0.8852384E-01
         -3   -1    0    0    0  501 -0.00000000000E+00  0.00000000000E+00  0.34257449722E+04  0.34257449722E+04  0.00000000000E+00 0.  1.
          3   -1    0    0  501    0  0.00000000000E+00 -0.00000000000E+00 -0.17514417863E+03  0.17514417863E+03  0.00000000000E+00 0. -1.
         23    2    1    2    0    0  0.27111313624E+02  0.86814652981E+02  0.23116482175E+04  0.23156635781E+04  0.10153087295E+03 0.  0.
        254    2    1    2    0    0 -0.27111313624E+02 -0.86814652981E+02  0.93895257600E+03  0.12852255727E+04  0.87286942056E+03 0.  0.
        -24    2    4    4    0    0  0.29723420048E+03  0.25301430746E+03  0.37446645655E+03  0.54653826479E+03  0.78195511930E+02 0.  0.
         24    2    4    4    0    0 -0.32434551410E+03 -0.33982896044E+03  0.56448611945E+03  0.73868730788E+03  0.79565224118E+02 0.  0.
         13    1    3    3    0    0 -0.25304841112E+02 -0.77115476624E+01  0.62153763446E+03  0.62210034078E+03  0.00000000000E+00 0. -1.
        -13    1    3    3    0    0  0.52416154736E+02  0.94526200643E+02  0.16901105831E+04  0.16935632374E+04  0.00000000000E+00 0.  1.
          4    1    6    6  502    0 -0.32166155724E+03 -0.31559162732E+03  0.54682899075E+03  0.70858039612E+03  0.00000000000E+00 0. -1.
          3    1    5    5  503    0  0.26197475274E+03  0.18922298288E+03  0.28284998918E+03  0.42946504479E+03  0.00000000000E+00 0. -1.
         -4    1    5    5    0  503  0.35259447740E+02  0.63791324583E+02  0.91616467369E+02  0.11707322000E+03  0.00000000000E+00 0.  1.
         -3    1    6    6    0  502 -0.26839568568E+01 -0.24237333126E+02  0.17657128706E+02  0.30106911758E+02  0.00000000000E+00 0.  1.
<mgrwt>
<rscale>  0 0.15491924E+04</rscale>
<asrwt>0</asrwt>
<pdfrwt beam="1">  1        3 0.26945261E-01 0.15491924E+04</pdfrwt>
<pdfrwt beam="2">  1       -3 0.52703764E+00 0.15491924E+04</pdfrwt>
<totfact> 0.74382109E-02</totfact>
</mgrwt>
</event>
<event>
12    1  0.1556559E-007  0.1453803E+04  0.7818608E-02  0.8915768E-01
         -2   -1    0    0    0  501 -0.00000000000E+00  0.00000000000E+00  0.78442922986E+03  0.78442922986E+03  0.00000000000E+00 0. -1.
          2   -1    0    0  501    0  0.00000000000E+00 -0.00000000000E+00 -0.67359272774E+03  0.67359272774E+03  0.00000000000E+00 0.  1.
         23    2    1    2    0    0 -0.32146322096E+03 -0.22681740319E+03  0.23253737526E+03  0.46571526255E+03  0.89623312052E+02 0.  0.
        254    2    1    2    0    0  0.32146322096E+03  0.22681740319E+03 -0.12170087314E+03  0.99230669505E+03  0.90281600434E+03 0.  0.
        -24    2    4    4    0    0 -0.24657944866E+03  0.29315952906E+03 -0.13834004061E+03  0.41461109848E+03  0.77591637220E+02 0.  0.
         24    2    4    4    0    0  0.56804266962E+03 -0.66342125863E+02  0.16639167472E+02  0.57769559657E+03  0.79884843568E+02 0.  0.
         13    1    3    3    0    0 -0.95544606541E+02 -0.11420410585E+03  0.63259297053E+02  0.16178098867E+03  0.00000000000E+00 0.  1.
        -13    1    3    3    0    0 -0.22591861442E+03 -0.11261329734E+03  0.16927807821E+03  0.30393427388E+03  0.00000000000E+00 0. -1.
          4    1    6    6  502    0  0.13550008928E+01  0.54943520610E+01 -0.24207201184E+01  0.61549831747E+01  0.00000000000E+00 0. -1.
          3    1    5    5  503    0 -0.91845626896E+01  0.25845163521E+01  0.74067576622E+01  0.12078740648E+02  0.00000000000E+00 0. -1.
         -2    1    5    5    0  503 -0.23739488597E+03  0.29057501270E+03 -0.14574679827E+03  0.40253235783E+03  0.00000000000E+00 0.  1.
         -3    1    6    6    0  502  0.56668766872E+03 -0.71836477924E+02  0.19059887591E+02  0.57154061340E+03  0.00000000000E+00 0.  1.
<mgrwt>
<rscale>  0 0.14538030E+04</rscale>
<asrwt>0</asrwt>
<pdfrwt beam="1">  1        2 0.10362965E+00 0.14538030E+04</pdfrwt>
<pdfrwt beam="2">  1       -2 0.12068142E+00 0.14538030E+04</pdfrwt>
<totfact> 0.21827646E+01</totfact>
</mgrwt>
</event>
<event>
12    1  0.1556559E-007  0.1145505E+04  0.7818608E-02  0.9161941E-01
          1   -1    0    0  501    0  0.00000000000E+00  0.00000000000E+00  0.13934049489E+04  0.13934049489E+04  0.00000000000E+00 0. -1.
         -1   -1    0    0    0  501 -0.00000000000E+00 -0.00000000000E+00 -0.23542701752E+03  0.23542701752E+03  0.00000000000E+00 0.  1.
         23    2    1    2    0    0 -0.16227809641E+03 -0.67500057342E+02  0.35887562500E+03  0.41070313129E+03  0.94841496847E+02 0.  0.
        254    2    1    2    0    0  0.16227809641E+03  0.67500057342E+02  0.79910230634E+03  0.12181288351E+04  0.90243167307E+03 0.  0.
        -24    2    4    4    0    0  0.11227711382E+03 -0.22742626080E+03  0.86172002759E+03  0.90176967031E+03  0.79361690718E+02 0.  0.
         24    2    4    4    0    0  0.50000982581E+02  0.29492631815E+03 -0.62617721249E+02  0.31635916477E+03  0.81734391340E+02 0.  0.
         13    1    3    3    0    0  0.12476093193E+02 -0.40772965042E+00  0.20516967474E+02  0.24015934276E+02  0.00000000000E+00 0. -1.
        -13    1    3    3    0    0 -0.17475418960E+03 -0.67092327692E+02  0.33835865752E+03  0.38668719702E+03  0.00000000000E+00 0.  1.
          2    1    6    6  502    0 -0.19644673989E+02  0.89991829270E+02 -0.43772493886E+01  0.92214981775E+02  0.00000000000E+00 0. -1.
          1    1    5    5  503    0 -0.11291660646E+02 -0.15206825853E+02  0.87904025822E+02  0.89921448545E+02  0.00000000000E+00 0. -1.
         -2    1    5    5    0  503  0.12356877447E+03 -0.21221943495E+03  0.77381600177E+03  0.81184822177E+03  0.00000000000E+00 0.  1.
         -1    1    6    6    0  502  0.69645656570E+02  0.20493448888E+03 -0.58240471860E+02  0.22414418300E+03  0.00000000000E+00 0.  1.
<mgrwt>
<rscale>  0 0.11455046E+04</rscale>
<asrwt>0</asrwt>
<pdfrwt beam="1">  1        1 0.21436999E+00 0.11455046E+04</pdfrwt>
<pdfrwt beam="2">  1       -1 0.36219542E-01 0.11455046E+04</pdfrwt>
<totfact> 0.56259475E+01</totfact>
</mgrwt>
</event>
<event>
12    1  0.1556559E-007  0.1528265E+04  0.7818608E-02  0.8865872E-01
          2   -1    0    0  501    0  0.00000000000E+00  0.00000000000E+00  0.81748637230E+03  0.81748637230E+03  0.00000000000E+00 0. -1.
         -2   -1    0    0    0  501 -0.00000000000E+00 -0.00000000000E+00 -0.71426075094E+03  0.71426075094E+03  0.00000000000E+00 0.  1.
         23    2    1    2    0    0  0.21128876755E+02 -0.26312395734E+03  0.47067620310E+03  0.54770730769E+03  0.93629911735E+02 0.  0.
        254    2    1    2    0    0 -0.21128876755E+02  0.26312395734E+03 -0.36745058173E+03  0.98403981555E+03  0.87386142048E+03 0.  0.
        -24    2    4    4    0    0 -0.42227811748E+03  0.25636771362E+03 -0.24070753783E+03  0.55535781480E+03  0.80243196596E+02 0.  0.
         24    2    4    4    0    0  0.40114924073E+03  0.67562437280E+01 -0.12674304390E+03  0.42868200075E+03  0.82085920997E+02 0.  0.
         13    1    3    3    0    0  0.10079231150E+02 -0.26677687997E+03  0.46029685917E+03  0.53211342132E+03  0.00000000000E+00 0. -1.
        -13    1    3    3    0    0  0.11049645605E+02  0.36529226258E+01  0.10379343927E+02  0.15593886368E+02  0.00000000000E+00 0.  1.
          4    1    6    6  502    0  0.32995215342E+02  0.15145165955E+02  0.68560320662E+01  0.36946792323E+02  0.00000000000E+00 0. -1.
          3    1    5    5  503    0 -0.35477804991E+02  0.44269821412E+02 -0.46551839980E+02  0.73386412505E+02  0.00000000000E+00 0. -1.
         -4    1    5    5    0  503 -0.38680031249E+03  0.21209789220E+03 -0.19415569785E+03  0.48197140229E+03  0.00000000000E+00 0.  1.
         -3    1    6    6    0  502  0.36815402538E+03 -0.83889222268E+01 -0.13359907597E+03  0.39173520843E+03  0.00000000000E+00 0.  1.
<mgrwt>
<rscale>  0 0.15282649E+04</rscale>
<asrwt>0</asrwt>
<pdfrwt beam="1">  1        2 0.12576713E+00 0.15282649E+04</pdfrwt>
<pdfrwt beam="2">  1       -2 0.10988627E+00 0.15282649E+04</pdfrwt>
<totfact> 0.21252890E+01</totfact>
</mgrwt>
</event>
<event>
12    1  0.1556559E-007  0.2164839E+04  0.7818608E-02  0.8533207E-01
         -2   -1    0    0    0  501 -0.00000000000E+00  0.00000000000E+00  0.61340876664E+03  0.61340876664E+03  0.00000000000E+00 0.  1.
          2   -1    0    0  501    0  0.00000000000E+00 -0.00000000000E+00 -0.19100351833E+04  0.19100351833E+04  0.00000000000E+00 0. -1.
         23    2    1    2    0    0 -0.48676810863E+03 -0.74835488489E+03 -0.35282836234E+03  0.96386388607E+03  0.86991449409E+02 0.  0.
        254    2    1    2    0    0  0.48676810863E+03  0.74835488489E+03 -0.94379805431E+03  0.15595800639E+04  0.86287715405E+03 0.  0.
        -24    2    4    4    0    0 -0.22287010944E+03  0.34577520269E+03 -0.26947197326E+03  0.49760468392E+03  0.75919039831E+02 0.  0.
         24    2    4    4    0    0  0.70963821807E+03  0.40257968220E+03 -0.67432608105E+03  0.10619753800E+04  0.86135027538E+02 0.  0.
         11    1    3    3    0    0 -0.46380195451E+03 -0.68300657450E+03 -0.30709636647E+03  0.88086231167E+03  0.00000000000E+00 0. -1.
        -11    1    3    3    0    0 -0.22966154117E+02 -0.65348310391E+02 -0.45731995873E+02  0.83001574397E+02  0.00000000000E+00 0.  1.
          2    1    6    6  502    0  0.16362466010E+03  0.64406897657E+02 -0.11324793969E+03  0.20915633794E+03  0.00000000000E+00 0. -1.
          1    1    5    5  503    0 -0.39158225003E+02  0.11243689650E+03 -0.54244028697E+02  0.13083515173E+03  0.00000000000E+00 0. -1.
         -2    1    5    5    0  503 -0.18371188444E+03  0.23333830619E+03 -0.21522794456E+03  0.36676953219E+03  0.00000000000E+00 0.  1.
         -1    1    6    6    0  502  0.54601355797E+03  0.33817278455E+03 -0.56107814137E+03  0.85281904201E+03  0.00000000000E+00 0.  1.
<mgrwt>
<rscale>  0 0.21648393E+04</rscale>
<asrwt>0</asrwt>
<pdfrwt beam="1">  1        2 0.29385157E+00 0.21648393E+04</pdfrwt>
<pdfrwt beam="2">  1       -2 0.94370578E-01 0.21648393E+04</pdfrwt>
<totfact> 0.65047243E+00</totfact>
</mgrwt>
</event>
<event>
12    1  0.1556559E-007  0.1592207E+04  0.7818608E-02  0.8825350E-01
         -2   -1    0    0    0  501 -0.00000000000E+00  0.00000000000E+00  0.28396999321E+03  0.28396999321E+03  0.00000000000E+00 0.  1.
          2   -1    0    0  501    0  0.00000000000E+00 -0.00000000000E+00 -0.22318582938E+04  0.22318582938E+04  0.00000000000E+00 0. -1.
         23    2    1    2    0    0  0.13777137975E+03 -0.53101340825E+03 -0.52459215452E+03  0.76440511808E+03  0.90344137319E+02 0.  0.
        254    2    1    2    0    0 -0.13777137975E+03  0.53101340825E+03 -0.14232961460E+04  0.17514231689E+04  0.86067125220E+03 0.  0.
        -24    2    4    4    0    0 -0.21965793468E+03 -0.93831616977E+02 -0.88129577619E+03  0.91645383859E+03  0.78430941061E+02 0.  0.
         24    2    4    4    0    0  0.81886554932E+02  0.62484502523E+03 -0.54200036984E+03  0.83496933029E+03  0.79200177960E+02 0.  0.
         13    1    3    3    0    0 -0.25792764095E+01  0.25789538115E+01 -0.69654337389E+01  0.78626291232E+01  0.00000000000E+00 0. -1.
        -13    1    3    3    0    0  0.14035065615E+03 -0.53359236206E+03 -0.51762672078E+03  0.75654248896E+03  0.00000000000E+00 0.  1.
          4    1    6    6  502    0  0.79847957511E+01  0.32857856992E+03 -0.25611619833E+03  0.41668110183E+03  0.00000000000E+00 0. -1.
          1    1    5    5  503    0 -0.94528202869E+01  0.16064609587E+01 -0.13327429508E+03  0.13361876461E+03  0.00000000000E+00 0. -1.
         -2    1    5    5    0  503 -0.21020511439E+03 -0.95438077936E+02 -0.74802148112E+03  0.78283507398E+03  0.00000000000E+00 0.  1.
         -3    1    6    6    0  502  0.73901759181E+02  0.29626645531E+03 -0.28588417150E+03  0.41828822846E+03  0.00000000000E+00 0.  1.
<mgrwt>
<rscale>  0 0.15922070E+04</rscale>
<asrwt>0</asrwt>
<pdfrwt beam="1">  1        2 0.34336281E+00 0.15922070E+04</pdfrwt>
<pdfrwt beam="2">  1       -2 0.43687692E-01 0.15922070E+04</pdfrwt>
<totfact> 0.23641159E+01</totfact>
</mgrwt>
</event>
<event>
12    1  0.1556559E-007  0.1198193E+04  0.7818608E-02  0.9114440E-01
          2   -1    0    0  501    0  0.00000000000E+00  0.00000000000E+00  0.17126972871E+04  0.17126972871E+04  0.00000000000E+00 0. -1.
         -2   -1    0    0    0  501 -0.00000000000E+00 -0.00000000000E+00 -0.20956208135E+03  0.20956208135E+03  0.00000000000E+00 0.  1.
         23    2    1    2    0    0  0.99605161052E+02 -0.69289809646E+02  0.66599497261E+03  0.68301099433E+03  0.90732844098E+02 0.  0.
        254    2    1    2    0    0 -0.99605161052E+02  0.69289809646E+02  0.83714023318E+03  0.12392483742E+04  0.90565473390E+03 0.  0.
        -24    2    4    4    0    0  0.29716224580E+03 -0.23943991396E+03  0.47360854923E+03  0.61361517637E+03  0.81127393911E+02 0.  0.
         24    2    4    4    0    0 -0.39676740685E+03  0.30872972361E+03  0.36353168395E+03  0.62563319780E+03  0.80766302196E+02 0.  0.
         11    1    3    3    0    0  0.10597949095E+02  0.19504025063E+02  0.56912550384E+02  0.61088148686E+02  0.00000000000E+00 0.  1.
        -11    1    3    3    0    0  0.89007211957E+02 -0.88793834710E+02  0.60908242223E+03  0.62192284564E+03  0.00000000000E+00 0. -1.
          2    1    6    6  502    0 -0.10349554700E+03  0.12386028754E+03  0.13484039644E+03  0.21032030713E+03  0.00000000000E+00 0. -1.
          3    1    5    5  503    0  0.21303442741E+03 -0.12660610158E+03  0.32814855047E+03  0.41121070438E+03  0.00000000000E+00 0. -1.
         -4    1    5    5    0  503  0.84127818385E+02 -0.11283381238E+03  0.14545999876E+03  0.20240447199E+03  0.00000000000E+00 0.  1.
         -1    1    6    6    0  502 -0.29327185985E+03  0.18486943607E+03  0.22869128752E+03  0.41531289067E+03  0.00000000000E+00 0.  1.
<mgrwt>
<rscale>  0 0.11981927E+04</rscale>
<asrwt>0</asrwt>
<pdfrwt beam="1">  1        2 0.26349188E+00 0.11981927E+04</pdfrwt>
<pdfrwt beam="2">  1       -2 0.32240321E-01 0.11981927E+04</pdfrwt>
<totfact> 0.85273632E+01</totfact>
</mgrwt>
</event>
<event>
12    1  0.1556559E-007  0.1354540E+04  0.7818608E-02  0.8987398E-01
          2   -1    0    0  501    0  0.00000000000E+00  0.00000000000E+00  0.87997158915E+03  0.87997158915E+03  0.00000000000E+00 0. -1.
         -2   -1    0    0    0  501 -0.00000000000E+00 -0.00000000000E+00 -0.52126090455E+03  0.52126090455E+03  0.00000000000E+00 0.  1.
         23    2    1    2    0    0 -0.87585241415E+02 -0.28484669977E+03  0.34311633924E+03  0.46321689925E+03  0.89622857630E+02 0.  0.
        254    2    1    2    0    0  0.87585241415E+02  0.28484669977E+03  0.15594345358E+02  0.93801559444E+03  0.88928131372E+03 0.  0.
        -24    2    4    4    0    0  0.65557989964E+02 -0.12259290096E+03 -0.34914148756E+03  0.38503556194E+03  0.83819664834E+02 0.  0.
         24    2    4    4    0    0  0.22027251452E+02  0.40743960074E+03  0.36473583291E+03  0.55298003250E+03  0.79135709249E+02 0.  0.
         11    1    3    3    0    0 -0.69925508890E+01 -0.92665421407E+02  0.56187924783E+02  0.10859493075E+03  0.00000000000E+00 0.  1.
        -11    1    3    3    0    0 -0.80592690526E+02 -0.19218127837E+03  0.28692841446E+03  0.35462196850E+03  0.00000000000E+00 0. -1.
          2    1    6    6  502    0  0.51618603279E+00  0.31934401796E+03  0.31914744569E+03  0.45148196016E+03  0.00000000000E+00 0. -1.
          1    1    5    5  503    0  0.72871705659E+02 -0.12358990588E+03 -0.27180720438E+03  0.30734981157E+03  0.00000000000E+00 0. -1.
         -2    1    5    5    0  503 -0.73137156957E+01  0.99700491622E+00 -0.77334283180E+02  0.77685750374E+02  0.00000000000E+00 0.  1.
         -1    1    6    6    0  502  0.21511065419E+02  0.88095582777E+02  0.45588387223E+02  0.10149807235E+03  0.00000000000E+00 0.  1.
<mgrwt>
<rscale>  0 0.13545402E+04</rscale>
<asrwt>0</asrwt>
<pdfrwt beam="1">  1        2 0.13538024E+00 0.13545402E+04</pdfrwt>
<pdfrwt beam="2">  1       -2 0.80193986E-01 0.13545402E+04</pdfrwt>
<totfact> 0.40633313E+01</totfact>
</mgrwt>
</event>
<event>
12    1  0.1556559E-007  0.2318953E+04  0.7818608E-02  0.8470486E-01
          1   -1    0    0  501    0  0.00000000000E+00  0.00000000000E+00  0.21289319032E+04  0.21289319032E+04  0.00000000000E+00 0. -1.
         -1   -1    0    0    0  501 -0.00000000000E+00 -0.00000000000E+00 -0.63148366065E+03  0.63148366065E+03  0.00000000000E+00 0.  1.
         23    2    1    2    0    0 -0.78477844029E+03 -0.27682798511E+03  0.10742536088E+02  0.83661022976E+03  0.85383492404E+02 0.  0.
        254    2    1    2    0    0  0.78477844029E+03  0.27682798511E+03  0.14867057065E+04  0.19238053341E+04  0.89343280228E+03 0.  0.
        -24    2    4    4    0    0  0.75116115674E+03 -0.12731806809E+03  0.71369640130E+03  0.10469877590E+04  0.79798748973E+02 0.  0.
         24    2    4    4    0    0  0.33617283546E+02  0.40414605321E+03  0.77300930519E+03  0.87681757515E+03  0.82471329031E+02 0.  0.
         11    1    3    3    0    0 -0.92518807332E+02 -0.58738193835E+02 -0.13414663222E+02  0.11040769137E+03  0.00000000000E+00 0. -1.
        -11    1    3    3    0    0 -0.69225963296E+03 -0.21808979128E+03  0.24157199310E+02  0.72620253839E+03  0.00000000000E+00 0.  1.
          4    1    6    6  502    0  0.24681897380E+02  0.12924298481E+03  0.33130430384E+03  0.35647648860E+03  0.00000000000E+00 0. -1.
          1    1    5    5  503    0  0.24037554817E+03 -0.41629168275E+01  0.23543646913E+03  0.33649378157E+03  0.00000000000E+00 0. -1.
         -2    1    5    5    0  503  0.51078560857E+03 -0.12315515127E+03  0.47825993217E+03  0.71049397740E+03  0.00000000000E+00 0.  1.
         -3    1    6    6    0  502  0.89353861653E+01  0.27490306839E+03  0.44170500134E+03  0.52034108655E+03  0.00000000000E+00 0.  1.
<mgrwt>
<rscale>  0 0.23189530E+04</rscale>
<asrwt>0</asrwt>
<pdfrwt beam="1">  1        1 0.32752798E+00 0.23189530E+04</pdfrwt>
<pdfrwt beam="2">  1       -1 0.97151333E-01 0.23189530E+04</pdfrwt>
<totfact> 0.22368696E+00</totfact>
</mgrwt>
</event>
<event>
12    1  0.1556559E-007  0.1666888E+04  0.7818608E-02  0.8780478E-01
         -2   -1    0    0    0  501 -0.00000000000E+00  0.00000000000E+00  0.39343539818E+03  0.39343539818E+03  0.00000000000E+00 0.  1.
          2   -1    0    0  501    0  0.00000000000E+00 -0.00000000000E+00 -0.17655475964E+04  0.17655475964E+04  0.00000000000E+00 0. -1.
         23    2    1    2    0    0  0.11930850457E+02 -0.87849978531E+02  0.26050404476E+03  0.29014535604E+03  0.91989164433E+02 0.  0.
        254    2    1    2    0    0 -0.11930850457E+02  0.87849978531E+02 -0.16326162430E+04  0.18688376386E+04  0.90512891814E+03 0.  0.
        -24    2    4    4    0    0 -0.28875712339E+03  0.38672115301E+03 -0.98297786856E+03  0.10979294905E+04  0.79181750011E+02 0.  0.
         24    2    4    4    0    0  0.27682627294E+03 -0.29887117448E+03 -0.64963837444E+03  0.77090814805E+03  0.79451814718E+02 0.  0.
         13    1    3    3    0    0  0.35085178079E+02 -0.83920732677E+02  0.24662822891E+03  0.26286715731E+03  0.00000000000E+00 0.  1.
        -13    1    3    3    0    0 -0.23154327622E+02 -0.39292458542E+01  0.13875815849E+02  0.27278198732E+02  0.00000000000E+00 0. -1.
          2    1    6    6  502    0  0.15581467750E+03 -0.22361705451E+03 -0.42776538173E+03  0.50721398108E+03  0.00000000000E+00 0. -1.
          1    1    5    5  503    0 -0.11542439192E+03  0.21415810885E+03 -0.52886858748E+03  0.58214127895E+03  0.00000000000E+00 0. -1.
         -2    1    5    5    0  503 -0.17333273147E+03  0.17256304416E+03 -0.45410928109E+03  0.51578821155E+03  0.00000000000E+00 0.  1.
         -1    1    6    6    0  502  0.12101159544E+03 -0.75254119975E+02 -0.22187299271E+03  0.26369416697E+03  0.00000000000E+00 0.  1.
<mgrwt>
<rscale>  0 0.16668880E+04</rscale>
<asrwt>0</asrwt>
<pdfrwt beam="1">  1        2 0.27162270E+00 0.16668880E+04</pdfrwt>
<pdfrwt beam="2">  1       -2 0.60528524E-01 0.16668880E+04</pdfrwt>
<totfact> 0.21868199E+01</totfact>
</mgrwt>
</event>
<event>
12    1  0.1556559E-007  0.1438848E+04  0.7818608E-02  0.8926169E-01
         -1   -1    0    0    0  501 -0.00000000000E+00  0.00000000000E+00  0.29697933253E+03  0.29697933253E+03  0.00000000000E+00 0.  1.
          1   -1    0    0  501    0  0.00000000000E+00 -0.00000000000E+00 -0.17427837472E+04  0.17427837472E+04  0.00000000000E+00 0. -1.
         23    2    1    2    0    0  0.15601203969E+03  0.39501469075E+03 -0.50177676981E+03  0.66370469114E+03  0.91365353857E+02 0.  0.
        254    2    1    2    0    0 -0.15601203969E+03 -0.39501469075E+03 -0.94402764484E+03  0.13760583886E+04  0.90662678767E+03 0.  0.
        -24    2    4    4    0    0  0.24091567371E+03  0.13340480366E+03 -0.49696782319E+03  0.57450372559E+03  0.85090010913E+02 0.  0.
         24    2    4    4    0    0 -0.39692771340E+03 -0.52841949440E+03 -0.44705982165E+03  0.80155466299E+03  0.76476283180E+02 0.  0.
         11    1    3    3    0    0  0.13805276299E+03  0.39265884895E+03 -0.47805101691E+03  0.63385511893E+03  0.00000000000E+00 0. -1.
        -11    1    3    3    0    0  0.17959276698E+02  0.23558417916E+01 -0.23725752900E+02  0.29849572203E+02  0.00000000000E+00 0.  1.
          2    1    6    6  502    0 -0.94475001278E+02 -0.18299212385E+03 -0.12865455624E+03  0.24282429471E+03  0.00000000000E+00 0. -1.
          3    1    5    5  503    0  0.68565355724E+02  0.74677867255E+02 -0.13010063293E+03  0.16493685626E+03  0.00000000000E+00 0. -1.
         -4    1    5    5    0  503  0.17235031799E+03  0.58726936400E+02 -0.36686719025E+03  0.40956686933E+03  0.00000000000E+00 0.  1.
         -1    1    6    6    0  502 -0.30245271212E+03 -0.34542737055E+03 -0.31840526541E+03  0.55873036828E+03  0.00000000000E+00 0.  1.
<mgrwt>
<rscale>  0 0.14388478E+04</rscale>
<asrwt>0</asrwt>
<pdfrwt beam="1">  1        1 0.26812058E+00 0.14388478E+04</pdfrwt>
<pdfrwt beam="2">  1       -1 0.45689128E-01 0.14388478E+04</pdfrwt>
<totfact> 0.20623444E+01</totfact>
</mgrwt>
</event>
<event>
12    1  0.1599573E-007  0.2321489E+04  0.7818608E-02  0.8469496E-01
          2   -1    0    0  501    0  0.00000000000E+00  0.00000000000E+00  0.17126189079E+04  0.17126189079E+04  0.00000000000E+00 0. -1.
         -2   -1    0    0    0  501 -0.00000000000E+00 -0.00000000000E+00 -0.78670599716E+03  0.78670599716E+03  0.00000000000E+00 0.  1.
         23    2    1    2    0    0 -0.67891619680E+03 -0.55806129626E+03  0.86889298139E+03  0.12392274339E+04  0.91378373176E+02 0.  0.
        254    2    1    2    0    0  0.67891619680E+03  0.55806129626E+03  0.57019929357E+02  0.12600974712E+04  0.90124067369E+03 0.  0.
        -24    2    4    4    0    0  0.15466394360E+03 -0.24244504565E+03  0.24386132045E+02  0.29934432728E+03  0.79446883074E+02 0.  0.
         24    2    4    4    0    0  0.52425225320E+03  0.80050634191E+03  0.32633797312E+02  0.96075314391E+03  0.79566389829E+02 0.  0.
         11    1    3    3    0    0 -0.64527357949E+03 -0.52143297140E+03  0.84451761828E+03  0.11838413507E+04  0.00000000000E+00 0. -1.
        -11    1    3    3    0    0 -0.33642617305E+02 -0.36628324868E+02  0.24375363110E+02  0.55386083167E+02  0.00000000000E+00 0.  1.
          2    1    6    6  502    0  0.51033260314E+03  0.74568939834E+03  0.28578873253E+02  0.90405132410E+03  0.00000000000E+00 0. -1.
          3    1    5    5  503    0  0.16250432552E+03 -0.21344115410E+03  0.23437755157E+02  0.26928444151E+03  0.00000000000E+00 0. -1.
         -4    1    5    5    0  503 -0.78403819169E+01 -0.29003891550E+02  0.94837688734E+00  0.30059885768E+02  0.00000000000E+00 0.  1.
         -1    1    6    6    0  502  0.13919650060E+02  0.54816943575E+02  0.40549240595E+01  0.56701819810E+02  0.00000000000E+00 0.  1.
<mgrwt>
<rscale>  0 0.23214888E+04</rscale>
<asrwt>0</asrwt>
<pdfrwt beam="1">  1        2 0.26347983E+00 0.23214888E+04</pdfrwt>
<pdfrwt beam="2">  1       -2 0.12103169E+00 0.23214888E+04</pdfrwt>
<totfact> 0.45399891E+00</totfact>
</mgrwt>
</event>
<event>
12    1  0.1556559E-007  0.1267694E+04  0.7818608E-02  0.9055584E-01
         -2   -1    0    0    0  501 -0.00000000000E+00  0.00000000000E+00  0.77779450433E+03  0.77779450433E+03  0.00000000000E+00 0.  1.
          2   -1    0    0  501    0  0.00000000000E+00 -0.00000000000E+00 -0.51654009311E+03  0.51654009311E+03  0.00000000000E+00 0. -1.
         23    2    1    2    0    0 -0.78357686493E+02  0.12631891925E+03 -0.20719899423E+03  0.27073281136E+03  0.90930938313E+02 0.  0.
        254    2    1    2    0    0  0.78357686493E+02 -0.12631891925E+03  0.46845340545E+03  0.10236017861E+04  0.89789510913E+03 0.  0.
        -24    2    4    4    0    0  0.30502055012E+03 -0.36459708960E+03  0.48860856907E+02  0.48450624014E+03  0.79939600088E+02 0.  0.
         24    2    4    4    0    0 -0.22666286363E+03  0.23827817035E+03  0.41959254854E+03  0.53909554593E+03  0.80084709158E+02 0.  0.
         13    1    3    3    0    0 -0.38576631389E+02  0.10603763784E+03 -0.19355185076E+03  0.22404119278E+03  0.00000000000E+00 0. -1.
        -13    1    3    3    0    0 -0.39781055103E+02  0.20281281414E+02 -0.13647143469E+02  0.46691618582E+02  0.00000000000E+00 0.  1.
          4    1    6    6  502    0 -0.19323997260E+03  0.17726097849E+03  0.28304887123E+03  0.38584945900E+03  0.00000000000E+00 0. -1.
          3    1    5    5  503    0  0.10942650141E+03 -0.12199313108E+03  0.54858958973E+02  0.17281779023E+03  0.00000000000E+00 0. -1.
         -4    1    5    5    0  503  0.19559404872E+03 -0.24260395852E+03 -0.59981020655E+01  0.31168844992E+03  0.00000000000E+00 0.  1.
         -3    1    6    6    0  502 -0.33422891031E+02  0.61017191860E+02  0.13654367731E+03  0.15324608694E+03  0.00000000000E+00 0.  1.
<mgrwt>
<rscale>  0 0.12676940E+04</rscale>
<asrwt>0</asrwt>
<pdfrwt beam="1">  1        2 0.79467706E-01 0.12676940E+04</pdfrwt>
<pdfrwt beam="2">  1       -2 0.11966069E+00 0.12676940E+04</pdfrwt>
<totfact> 0.31132596E+01</totfact>
</mgrwt>
</event>
<event>
12    1  0.1556559E-007  0.1455805E+04  0.7818608E-02  0.8914386E-01
         -1   -1    0    0    0  501 -0.00000000000E+00  0.00000000000E+00  0.55303905589E+03  0.55303905589E+03  0.00000000000E+00 0.  1.
          1   -1    0    0  501    0  0.00000000000E+00 -0.00000000000E+00 -0.95805490663E+03  0.95805490663E+03  0.00000000000E+00 0. -1.
         23    2    1    2    0    0  0.28953163619E+03 -0.28832350465E+03  0.56885368147E+02  0.42244596691E+03  0.90915555117E+02 0.  0.
        254    2    1    2    0    0 -0.28953163619E+03  0.28832350465E+03 -0.46190121888E+03  0.10886479956E+04  0.89713026404E+03 0.  0.
        -24    2    4    4    0    0 -0.58616449116E+03  0.30921803119E+03 -0.38779963722E+03  0.77203537797E+03  0.80283651501E+02 0.  0.
         24    2    4    4    0    0  0.29663285497E+03 -0.20894526542E+02 -0.74101581663E+02  0.31661261764E+03  0.79529072406E+02 0.  0.
         13    1    3    3    0    0  0.82673064931E+02 -0.12003162941E+03  0.54970326251E+02  0.15576958783E+03  0.00000000000E+00 0.  1.
        -13    1    3    3    0    0  0.20685857126E+03 -0.16829187523E+03  0.19150418958E+01  0.26667637908E+03  0.00000000000E+00 0. -1.
          2    1    6    6  502    0  0.23203360467E+02 -0.15512860812E+02 -0.27509871344E+02  0.39189766635E+02  0.00000000000E+00 0. -1.
          1    1    5    5  503    0 -0.62301988745E+02  0.60724246007E+02 -0.63337559795E+02  0.10761328141E+03  0.00000000000E+00 0. -1.
         -2    1    5    5    0  503 -0.52386250242E+03  0.24849378518E+03 -0.32446207742E+03  0.66442209656E+03  0.00000000000E+00 0.  1.
         -1    1    6    6    0  502  0.27342949450E+03 -0.53816657303E+01 -0.46591710319E+02  0.27742285101E+03  0.00000000000E+00 0.  1.
<mgrwt>
<rscale>  0 0.14558046E+04</rscale>
<asrwt>0</asrwt>
<pdfrwt beam="1">  1        1 0.14739306E+00 0.14558046E+04</pdfrwt>
<pdfrwt beam="2">  1       -1 0.85082932E-01 0.14558046E+04</pdfrwt>
<totfact> 0.21665362E+01</totfact>
</mgrwt>
</event>
<event>
12    1  0.1556559E-007  0.1829411E+04  0.7818608E-02  0.8690814E-01
          1   -1    0    0  501    0  0.00000000000E+00  0.00000000000E+00  0.12883561309E+04  0.12883561309E+04  0.00000000000E+00 0. -1.
         -1   -1    0    0    0  501 -0.00000000000E+00 -0.00000000000E+00 -0.64942136463E+03  0.64942136463E+03  0.00000000000E+00 0.  1.
         23    2    1    2    0    0  0.50907238181E+03 -0.30472870847E+03  0.61883961486E+03  0.86214749709E+03  0.91222596571E+02 0.  0.
        254    2    1    2    0    0 -0.50907238181E+03  0.30472870847E+03  0.20095151434E+02  0.10756299985E+04  0.89697369126E+03 0.  0.
        -24    2    4    4    0    0  0.20521825793E+03  0.25935154917E+03  0.90130067190E+02  0.35215997779E+03  0.80718408684E+02 0.  0.
         24    2    4    4    0    0 -0.71429063974E+03  0.45377159307E+02 -0.70034915757E+02  0.72347002068E+03  0.78954270267E+02 0.  0.
         11    1    3    3    0    0  0.36713964924E+03 -0.24365600147E+03  0.40620833567E+03  0.59930374691E+03  0.00000000000E+00 0.  1.
        -11    1    3    3    0    0  0.14193273257E+03 -0.61072707005E+02  0.21263127920E+03  0.26284375018E+03  0.00000000000E+00 0. -1.
          4    1    6    6  502    0 -0.12812456124E+03 -0.22158929305E+02 -0.13250580965E+02  0.13070003533E+03  0.00000000000E+00 0. -1.
          3    1    5    5  503    0  0.49725028569E+02  0.19250249602E+02  0.24465875448E+02  0.58666256377E+02  0.00000000000E+00 0. -1.
         -4    1    5    5    0  503  0.15549322936E+03  0.24010129956E+03  0.65664191742E+02  0.29349372141E+03  0.00000000000E+00 0.  1.
         -3    1    6    6    0  502 -0.58616607851E+03  0.67536088613E+02 -0.56784334792E+02  0.59276998535E+03  0.00000000000E+00 0.  1.
<mgrwt>
<rscale>  0 0.18294108E+04</rscale>
<asrwt>0</asrwt>
<pdfrwt beam="1">  1        1 0.19820864E+00 0.18294108E+04</pdfrwt>
<pdfrwt beam="2">  1       -1 0.99910979E-01 0.18294108E+04</pdfrwt>
<totfact> 0.82898671E+00</totfact>
</mgrwt>
</event>
<event>
12    1  0.1556559E-007  0.1530275E+04  0.7818608E-02  0.8864566E-01
          2   -1    0    0  501    0  0.00000000000E+00  0.00000000000E+00  0.63135448276E+03  0.63135448276E+03  0.00000000000E+00 0. -1.
         -2   -1    0    0    0  501 -0.00000000000E+00 -0.00000000000E+00 -0.92726933796E+03  0.92726933796E+03  0.00000000000E+00 0.  1.
         23    2    1    2    0    0  0.18908381855E+03 -0.13579516601E+03  0.34494613051E+03  0.42763325148E+03  0.98434482109E+02 0.  0.
        254    2    1    2    0    0 -0.18908381855E+03  0.13579516601E+03 -0.64086098572E+03  0.11309905692E+04  0.90235461275E+03 0.  0.
        -24    2    4    4    0    0  0.22815794921E+02 -0.10986448187E+03 -0.76273400148E+03  0.77479974799E+03  0.77205748495E+02 0.  0.
         24    2    4    4    0    0 -0.21189961347E+03  0.24565964788E+03  0.12187301577E+03  0.35619082125E+03  0.82272476468E+02 0.  0.
         13    1    3    3    0    0  0.19533253192E+03 -0.13835476909E+03  0.30801488771E+03  0.39008974763E+03  0.00000000000E+00 0. -1.
        -13    1    3    3    0    0 -0.62487133649E+01  0.25596030811E+01  0.36931242797E+02  0.37543503848E+02  0.00000000000E+00 0.  1.
          4    1    6    6  502    0 -0.18624769478E+03  0.16362913171E+03  0.10130665736E+03  0.26781660773E+03  0.00000000000E+00 0. -1.
          1    1    5    5  503    0  0.55716603249E+01 -0.13780979681E+02 -0.36352090179E+03  0.36382468971E+03  0.00000000000E+00 0. -1.
         -2    1    5    5    0  503  0.17244134596E+02 -0.96083502192E+02 -0.39921309969E+03  0.41097505829E+03  0.00000000000E+00 0.  1.
         -3    1    6    6    0  502 -0.25651918695E+02  0.82030516173E+02  0.20566358408E+02  0.88374213516E+02  0.00000000000E+00 0.  1.
<mgrwt>
<rscale>  0 0.15302753E+04</rscale>
<asrwt>0</asrwt>
<pdfrwt beam="1">  1        2 0.97131460E-01 0.15302753E+04</pdfrwt>
<pdfrwt beam="2">  1       -2 0.14265682E+00 0.15302753E+04</pdfrwt>
<totfact> 0.15355750E+01</totfact>
</mgrwt>
</event>
<event>
12    1  0.1556559E-007  0.2040295E+04  0.7818608E-02  0.8588010E-01
         -2   -1    0    0    0  501 -0.00000000000E+00  0.00000000000E+00  0.95882433377E+03  0.95882433377E+03  0.00000000000E+00 0.  1.
          2   -1    0    0  501    0  0.00000000000E+00 -0.00000000000E+00 -0.10853922225E+04  0.10853922225E+04  0.00000000000E+00 0. -1.
         23    2    1    2    0    0 -0.73852631799E+03 -0.22246632546E+03 -0.31925993840E+03  0.83892989523E+03  0.83451018748E+02 0.  0.
        254    2    1    2    0    0  0.73852631799E+03  0.22246632546E+03  0.19269204965E+03  0.12052866611E+04  0.90591021686E+03 0.  0.
        -24    2    4    4    0    0 -0.73161963601E+02 -0.23177804486E+03  0.27146971609E+02  0.25724087538E+03  0.79763242779E+02 0.  0.
         24    2    4    4    0    0  0.81168828159E+03  0.45424437032E+03  0.16554507805E+03  0.94804578568E+03  0.78802439400E+02 0.  0.
         13    1    3    3    0    0 -0.18246622332E+03 -0.36409712262E+02 -0.44109713063E+02  0.19122043977E+03  0.00000000000E+00 0.  1.
        -13    1    3    3    0    0 -0.55606009467E+03 -0.18605661320E+03 -0.27515022533E+03  0.64770945546E+03  0.00000000000E+00 0. -1.
          2    1    6    6  502    0  0.34259308069E+03  0.21240753210E+03  0.10691569712E+03  0.41703470470E+03  0.00000000000E+00 0. -1.
          1    1    5    5  503    0  0.17457469684E+02 -0.42732351374E+02  0.46612725286E+01  0.46395523096E+02  0.00000000000E+00 0. -1.
         -2    1    5    5    0  503 -0.90619433285E+02 -0.18904569349E+03  0.22485699081E+02  0.21084535228E+03  0.00000000000E+00 0.  1.
         -1    1    6    6    0  502  0.46909520090E+03  0.24183683821E+03  0.58629380923E+02  0.53101108099E+03  0.00000000000E+00 0.  1.
<mgrwt>
<rscale>  0 0.20402946E+04</rscale>
<asrwt>0</asrwt>
<pdfrwt beam="1">  1        2 0.16698342E+00 0.20402946E+04</pdfrwt>
<pdfrwt beam="2">  1       -2 0.14751144E+00 0.20402946E+04</pdfrwt>
<totfact> 0.64514811E+00</totfact>
</mgrwt>
</event>
<event>
12    1  0.1556559E-007  0.2905034E+04  0.7818608E-02  0.8271381E-01
          1   -1    0    0  501    0  0.00000000000E+00  0.00000000000E+00  0.20582934957E+04  0.20582934957E+04  0.00000000000E+00 0. -1.
         -1   -1    0    0    0  501 -0.00000000000E+00 -0.00000000000E+00 -0.10250263845E+04  0.10250263845E+04  0.00000000000E+00 0.  1.
         23    2    1    2    0    0 -0.90769821699E+03 -0.81144631712E+03  0.10004389343E+04  0.15785652301E+04  0.92892118912E+02 0.  0.
        254    2    1    2    0    0  0.90769821699E+03  0.81144631712E+03  0.32828176885E+02  0.15047546501E+04  0.88365586571E+03 0.  0.
        -24    2    4    4    0    0 -0.53039680187E+02  0.75977132698E+02  0.24401335205E+03  0.27378240681E+03  0.82635088997E+02 0.  0.
         24    2    4    4    0    0  0.96073789718E+03  0.73546918443E+03 -0.21118517516E+03  0.12309722433E+04  0.82226863977E+02 0.  0.
         11    1    3    3    0    0 -0.47117799616E+03 -0.40028376642E+03  0.56435913322E+03  0.83710036972E+03  0.00000000000E+00 0.  1.
        -11    1    3    3    0    0 -0.43652022083E+03 -0.41116255070E+03  0.43607980104E+03  0.74146486037E+03  0.00000000000E+00 0. -1.
          4    1    6    6  502    0  0.33021619902E+03  0.21794887192E+03 -0.41789912333E+02  0.39785782089E+03  0.00000000000E+00 0. -1.
          1    1    5    5  503    0 -0.29707878331E+02 -0.96144021188E+01  0.36083778263E+02  0.47718275501E+02  0.00000000000E+00 0. -1.
         -2    1    5    5    0  503 -0.23331801856E+02  0.85591534817E+02  0.20792957378E+03  0.22606413131E+03  0.00000000000E+00 0.  1.
         -3    1    6    6    0  502  0.63052169816E+03  0.51752031250E+03 -0.16939526283E+03  0.83311442237E+03  0.00000000000E+00 0.  1.
<mgrwt>
<rscale>  0 0.29050337E+04</rscale>
<asrwt>0</asrwt>
<pdfrwt beam="1">  1        1 0.31666054E+00 0.29050337E+04</pdfrwt>
<pdfrwt beam="2">  1       -1 0.15769637E+00 0.29050337E+04</pdfrwt>
<totfact> 0.71014254E-01</totfact>
</mgrwt>
</event>
<event>
12    1  0.1556559E-007  0.2536589E+04  0.7818608E-02  0.8390065E-01
         -2   -1    0    0    0  501 -0.00000000000E+00  0.00000000000E+00  0.67606318596E+03  0.67606318596E+03  0.00000000000E+00 0.  1.
          2   -1    0    0  501    0  0.00000000000E+00 -0.00000000000E+00 -0.23793195746E+04  0.23793195746E+04  0.00000000000E+00 0. -1.
         23    2    1    2    0    0  0.43339376312E+03  0.80634734581E+03  0.11077824411E+02  0.91977859172E+03  0.88564911691E+02 0.  0.
        254    2    1    2    0    0 -0.43339376312E+03 -0.80634734581E+03 -0.17143342130E+04  0.21356041688E+04  0.88534579455E+03 0.  0.
        -24    2    4    4    0    0 -0.23459856649E+03 -0.15253821850E+03 -0.13000595554E+04  0.13322094567E+04  0.79515995945E+02 0.  0.
         24    2    4    4    0    0 -0.19879519663E+03 -0.65380912731E+03 -0.41427465768E+03  0.80339471211E+03  0.82665992333E+02 0.  0.
         11    1    3    3    0    0  0.42826955839E+03  0.77322297802E+03 -0.17008325784E+01  0.88390694149E+03  0.00000000000E+00 0.  1.
        -11    1    3    3    0    0  0.51242047277E+01  0.33124367792E+02  0.12778656990E+02  0.35871650230E+02  0.00000000000E+00 0. -1.
          4    1    6    6  502    0 -0.17111979185E+03 -0.42949910824E+03 -0.27916670775E+03  0.54007917740E+03  0.00000000000E+00 0. -1.
          1    1    5    5  503    0 -0.18740501363E+03 -0.12096474905E+03 -0.11567830485E+04  0.11780917328E+04  0.00000000000E+00 0. -1.
         -2    1    5    5    0  503 -0.47193552860E+02 -0.31573469453E+02 -0.14327650690E+03  0.15411772395E+03  0.00000000000E+00 0.  1.
         -3    1    6    6    0  502 -0.27675404776E+02 -0.22431001907E+03 -0.13510794994E+03  0.26331553471E+03  0.00000000000E+00 0.  1.
<mgrwt>
<rscale>  0 0.25365886E+04</rscale>
<asrwt>0</asrwt>
<pdfrwt beam="1">  1        2 0.36604917E+00 0.25365886E+04</pdfrwt>
<pdfrwt beam="2">  1       -2 0.10400972E+00 0.25365886E+04</pdfrwt>
<totfact> 0.27313258E+00</totfact>
</mgrwt>
</event>
<event>
12    1  0.1556559E-007  0.1506600E+04  0.7818608E-02  0.8880076E-01
          2   -1    0    0  501    0  0.00000000000E+00  0.00000000000E+00  0.20629206341E+04  0.20629206341E+04  0.00000000000E+00 0. -1.
         -2   -1    0    0    0  501 -0.00000000000E+00 -0.00000000000E+00 -0.27507643058E+03  0.27507643058E+03  0.00000000000E+00 0.  1.
         23    2    1    2    0    0  0.18186633770E+03 -0.10100222605E+03  0.14232197342E+04  0.14412434161E+04  0.91385766023E+02 0.  0.
        254    2    1    2    0    0 -0.18186633770E+03  0.10100222605E+03  0.36462446934E+03  0.89675364858E+03  0.79242620359E+03 0.  0.
        -24    2    4    4    0    0  0.90701488971E+02 -0.21382738390E+03 -0.10224696319E+03  0.26594833287E+03  0.79530900074E+02 0.  0.
         24    2    4    4    0    0 -0.27256782667E+03  0.31482960995E+03  0.46687143254E+03  0.63080531571E+03  0.80842491107E+02 0.  0.
         13    1    3    3    0    0  0.13991637883E+01  0.86369101883E+01  0.15710553793E+02  0.17982641001E+02  0.00000000000E+00 0.  1.
        -13    1    3    3    0    0  0.18046717391E+03 -0.10963913624E+03  0.14075091804E+04  0.14232607751E+04  0.00000000000E+00 0. -1.
          4    1    6    6  502    0 -0.88533048511E+02  0.15399080607E+03  0.22826765187E+03  0.28923587247E+03  0.00000000000E+00 0. -1.
          1    1    5    5  503    0 -0.50011661663E+01 -0.64011229697E+02 -0.47724730993E+02  0.80000619615E+02  0.00000000000E+00 0. -1.
         -2    1    5    5    0  503  0.95702655138E+02 -0.14981615420E+03 -0.54522232201E+02  0.18594771325E+03  0.00000000000E+00 0.  1.
         -3    1    6    6    0  502 -0.18403477816E+03  0.16083880388E+03  0.23860378067E+03  0.34156944324E+03  0.00000000000E+00 0.  1.
<mgrwt>
<rscale>  0 0.15065999E+04</rscale>
<asrwt>0</asrwt>
<pdfrwt beam="1">  1        2 0.31737239E+00 0.15065999E+04</pdfrwt>
<pdfrwt beam="2">  1       -2 0.42319452E-01 0.15065999E+04</pdfrwt>
<totfact> 0.31516505E+01</totfact>
</mgrwt>
</event>
<event>
12    1  0.1558696E-007  0.1710054E+04  0.7818608E-02  0.8755651E-01
          1   -1    0    0  501    0  0.00000000000E+00  0.00000000000E+00  0.17772963979E+04  0.17772963979E+04  0.00000000000E+00 0. -1.
         -1   -1    0    0    0  501 -0.00000000000E+00 -0.00000000000E+00 -0.41133915151E+03  0.41133915151E+03  0.00000000000E+00 0.  1.
         23    2    1    2    0    0  0.47046269774E+03 -0.34444553022E+03  0.36482504159E+03  0.69385890777E+03  0.91460372128E+02 0.  0.
        254    2    1    2    0    0 -0.47046269774E+03  0.34444553022E+03  0.10011322048E+04  0.14947766416E+04  0.94451767777E+03 0.  0.
        -24    2    4    4    0    0 -0.28437989428E+03 -0.30684594811E+03  0.42216947726E+03  0.59995487452E+03  0.81807235527E+02 0.  0.
         24    2    4    4    0    0 -0.18608280346E+03  0.65129147833E+03  0.57896272751E+03  0.89482176709E+03  0.81858142673E+02 0.  0.
         13    1    3    3    0    0  0.44157362461E+03 -0.34587111206E+03  0.34135605153E+03  0.65661103100E+03  0.00000000000E+00 0.  1.
        -13    1    3    3    0    0  0.28889073122E+02  0.14255818408E+01  0.23468990065E+02  0.37247876773E+02  0.00000000000E+00 0. -1.
          2    1    6    6  502    0 -0.14756756902E+01  0.26000561317E+02  0.45449592723E+02  0.52381984367E+02  0.00000000000E+00 0. -1.
          3    1    5    5  503    0 -0.77835423995E+02 -0.80892869184E+02  0.65679730561E+02  0.13006089543E+03  0.00000000000E+00 0. -1.
         -4    1    5    5    0  503 -0.20654447028E+03 -0.22595307893E+03  0.35648974670E+03  0.46989397909E+03  0.00000000000E+00 0.  1.
         -1    1    6    6    0  502 -0.18460712777E+03  0.62529091701E+03  0.53351313479E+03  0.84243978272E+03  0.00000000000E+00 0.  1.
<mgrwt>
<rscale>  0 0.17100545E+04</rscale>
<asrwt>0</asrwt>
<pdfrwt beam="1">  1        1 0.27343021E+00 0.17100545E+04</pdfrwt>
<pdfrwt beam="2">  1       -1 0.63282947E-01 0.17100545E+04</pdfrwt>
<totfact> 0.10165606E+01</totfact>
</mgrwt>
</event>
<event>
12    1  0.1556559E-007  0.2157069E+04  0.7818608E-02  0.8536512E-01
          2   -1    0    0  501    0  0.00000000000E+00  0.00000000000E+00  0.36299747821E+04  0.36299747821E+04  0.00000000000E+00 0. -1.
         -2   -1    0    0    0  501 -0.00000000000E+00 -0.00000000000E+00 -0.32045318320E+03  0.32045318320E+03  0.00000000000E+00 0.  1.
         23    2    1    2    0    0  0.55687038593E+03  0.53826176999E+03  0.58023401463E+03  0.97196234540E+03  0.90603142146E+02 0.  0.
        254    2    1    2    0    0 -0.55687038593E+03 -0.53826176999E+03  0.27292875843E+04  0.29784656199E+04  0.90687175034E+03 0.  0.
        -24    2    4    4    0    0 -0.33142062487E+03 -0.15735432339E+03  0.23791471987E+04  0.24085748266E+04  0.79317640958E+02 0.  0.
         24    2    4    4    0    0 -0.22544976106E+03 -0.38090744661E+03  0.35014038552E+03  0.56989079335E+03  0.79114784476E+02 0.  0.
         13    1    3    3    0    0  0.29827856076E+02  0.64537741101E+02  0.50962052004E+02  0.87475435232E+02  0.00000000000E+00 0. -1.
        -13    1    3    3    0    0  0.52704252986E+03  0.47372402889E+03  0.52927196262E+03  0.88448691016E+03  0.00000000000E+00 0.  1.
          2    1    6    6  502    0 -0.13099576503E+03 -0.14462722309E+03  0.14784175038E+03  0.24481443436E+03  0.00000000000E+00 0. -1.
          3    1    5    5  503    0 -0.13507644998E+03 -0.10751883237E+03  0.10618787531E+04  0.10758217478E+04  0.00000000000E+00 0. -1.
         -4    1    5    5    0  503 -0.19634417489E+03 -0.49835491014E+02  0.13172684456E+04  0.13327530788E+04  0.00000000000E+00 0.  1.
         -1    1    6    6    0  502 -0.94453996029E+02 -0.23628022352E+03  0.20229863514E+03  0.32507635899E+03  0.00000000000E+00 0.  1.
<mgrwt>
<rscale>  0 0.21570693E+04</rscale>
<asrwt>0</asrwt>
<pdfrwt beam="1">  1        2 0.55845763E+00 0.21570693E+04</pdfrwt>
<pdfrwt beam="2">  1       -2 0.49300492E-01 0.21570693E+04</pdfrwt>
<totfact> 0.23577905E+00</totfact>
</mgrwt>
</event>
<event>
12    1  0.1556559E-007  0.1884678E+04  0.7818608E-02  0.8662521E-01
         -2   -1    0    0    0  501 -0.00000000000E+00  0.00000000000E+00  0.42262030397E+03  0.42262030397E+03  0.00000000000E+00 0. -1.
          2   -1    0    0  501    0  0.00000000000E+00 -0.00000000000E+00 -0.21011837310E+04  0.21011837310E+04  0.00000000000E+00 0.  1.
         23    2    1    2    0    0 -0.51577011405E+02 -0.23241150162E+03  0.26610789412E+03  0.36913164564E+03  0.93645428672E+02 0.  0.
        254    2    1    2    0    0  0.51577011405E+02  0.23241150162E+03 -0.19446713212E+04  0.21546723893E+04  0.89676711796E+03 0.  0.
        -24    2    4    4    0    0 -0.19719314683E+03 -0.14349405383E+03 -0.14807811870E+04  0.15029263187E+04  0.81233706935E+02 0.  0.
         24    2    4    4    0    0  0.24877015824E+03  0.37590555545E+03 -0.46389013420E+03  0.65174607064E+03  0.79920621497E+02 0.  0.
         13    1    3    3    0    0 -0.15831108577E+02 -0.20743076825E+03  0.19172528261E+03  0.28290763795E+03  0.00000000000E+00 0. -1.
        -13    1    3    3    0    0 -0.35745902828E+02 -0.24980733371E+02  0.74382611505E+02  0.86224007696E+02  0.00000000000E+00 0.  1.
          4    1    6    6  502    0  0.75664716595E+02  0.73712833957E+02 -0.74063396128E+02  0.12901208421E+03  0.00000000000E+00 0. -1.
          3    1    5    5  503    0 -0.19116549903E+02 -0.82516454282E+01 -0.32786015543E+03  0.32852064417E+03  0.00000000000E+00 0. -1.
         -4    1    5    5    0  503 -0.17807659693E+03 -0.13524240841E+03 -0.11529210315E+04  0.11744056745E+04  0.00000000000E+00 0.  1.
         -3    1    6    6    0  502  0.17310544164E+03  0.30219272150E+03 -0.38982673807E+03  0.52273398643E+03  0.00000000000E+00 0.  1.
<mgrwt>
<rscale>  0 0.18846781E+04</rscale>
<asrwt>0</asrwt>
<pdfrwt beam="1">  1        2 0.32325904E+00 0.18846781E+04</pdfrwt>
<pdfrwt beam="2">  1       -2 0.65018508E-01 0.18846781E+04</pdfrwt>
<totfact> 0.12003495E+01</totfact>
</mgrwt>
</event>
<event>
12    1  0.1556559E-007  0.1221447E+04  0.7818608E-02  0.9094289E-01
         -2   -1    0    0    0  501 -0.00000000000E+00  0.00000000000E+00  0.14722218809E+03  0.14722218809E+03  0.00000000000E+00 0. -1.
          2   -1    0    0  501    0  0.00000000000E+00 -0.00000000000E+00 -0.25334694336E+04  0.25334694336E+04  0.00000000000E+00 0.  1.
         23    2    1    2    0    0  0.18330945237E+03  0.46734177461E+02 -0.10665352623E+04  0.10870799335E+04  0.91972155595E+02 0.  0.
        254    2    1    2    0    0 -0.18330945237E+03 -0.46734177461E+02 -0.13197119832E+04  0.15936116882E+04  0.87302465915E+03 0.  0.
        -24    2    4    4    0    0 -0.46748058130E+03 -0.23417489229E+03 -0.65023849554E+03  0.83831862021E+03  0.81191340954E+02 0.  0.
         24    2    4    4    0    0  0.28417112894E+03  0.18744071483E+03 -0.66947348770E+03  0.75529306802E+03  0.79910047936E+02 0.  0.
         11    1    3    3    0    0  0.16230857326E+03  0.71918872742E+02 -0.90627281270E+03  0.92349705373E+03  0.00000000000E+00 0.  1.
        -11    1    3    3    0    0  0.21000879105E+02 -0.25184695281E+02 -0.16026244961E+03  0.16358287977E+03  0.00000000000E+00 0. -1.
          4    1    6    6  502    0  0.84880580251E+01  0.89460339468E+01 -0.36245583148E+01  0.12853640550E+02  0.00000000000E+00 0. -1.
          1    1    5    5  503    0 -0.25197004806E+02 -0.19111937279E+01 -0.12440050349E+02  0.28165520861E+02  0.00000000000E+00 0. -1.
         -2    1    5    5    0  503 -0.44228357650E+03 -0.23226369856E+03 -0.63779844519E+03  0.81015309935E+03  0.00000000000E+00 0.  1.
         -3    1    6    6    0  502  0.27568307091E+03  0.17849468088E+03 -0.66584892939E+03  0.74243942747E+03  0.00000000000E+00 0.  1.
<mgrwt>
<rscale>  0 0.12214465E+04</rscale>
<asrwt>0</asrwt>
<pdfrwt beam="1">  1        2 0.38976455E+00 0.12214465E+04</pdfrwt>
<pdfrwt beam="2">  1       -2 0.22649566E-01 0.12214465E+04</pdfrwt>
<totfact> 0.56583132E+01</totfact>
</mgrwt>
</event>
<event>
12    1  0.1556559E-007  0.2701273E+04  0.7818608E-02  0.8334592E-01
         -2   -1    0    0    0  501 -0.00000000000E+00  0.00000000000E+00  0.11553893627E+04  0.11553893627E+04  0.00000000000E+00 0.  1.
          2   -1    0    0  501    0  0.00000000000E+00 -0.00000000000E+00 -0.15788776269E+04  0.15788776269E+04  0.00000000000E+00 0. -1.
         23    2    1    2    0    0  0.13264960795E+03  0.85484451489E+03 -0.10368893238E+04  0.13535343950E+04  0.92524729483E+02 0.  0.
        254    2    1    2    0    0 -0.13264960795E+03 -0.85484451489E+03  0.61340105956E+03  0.13807325946E+04  0.88419826663E+03 0.  0.
        -24    2    4    4    0    0 -0.36065423994E+03 -0.51889469788E+03 -0.49498660951E+01  0.63684174113E+03  0.78865162166E+02 0.  0.
         24    2    4    4    0    0  0.22800463199E+03 -0.33594981701E+03  0.61835092566E+03  0.74389085344E+03  0.78532431616E+02 0.  0.
         13    1    3    3    0    0  0.99623970292E+02  0.79009045226E+03 -0.93143291157E+03  0.12254530293E+04  0.00000000000E+00 0. -1.
        -13    1    3    3    0    0  0.33025637659E+02  0.64754062629E+02 -0.10545641225E+03  0.12808136576E+03  0.00000000000E+00 0.  1.
          2    1    6    6  502    0 -0.47106127384E+01 -0.23128528050E+02  0.37990899115E+02  0.44726134392E+02  0.00000000000E+00 0. -1.
          1    1    5    5  503    0 -0.12563390552E+03 -0.24927512843E+03 -0.34739429176E+01  0.27916668167E+03  0.00000000000E+00 0. -1.
         -2    1    5    5    0  503 -0.23502033441E+03 -0.26961956944E+03 -0.14759231776E+01  0.35767505947E+03  0.00000000000E+00 0.  1.
         -1    1    6    6    0  502  0.23271524472E+03 -0.31282128897E+03  0.58036002654E+03  0.69916471905E+03  0.00000000000E+00 0.  1.
<mgrwt>
<rscale>  0 0.27012726E+04</rscale>
<asrwt>0</asrwt>
<pdfrwt beam="1">  1        2 0.24290425E+00 0.27012726E+04</pdfrwt>
<pdfrwt beam="2">  1       -2 0.17775221E+00 0.27012726E+04</pdfrwt>
<totfact> 0.18898160E+00</totfact>
</mgrwt>
</event>
<event>
12    1  0.1556559E-007  0.1531124E+04  0.7818608E-02  0.8864015E-01
         -2   -1    0    0    0  501 -0.00000000000E+00  0.00000000000E+00  0.23177665729E+03  0.23177665729E+03  0.00000000000E+00 0.  1.
          2   -1    0    0  501    0  0.00000000000E+00 -0.00000000000E+00 -0.25286642010E+04  0.25286642010E+04  0.00000000000E+00 0. -1.
         23    2    1    2    0    0  0.20567750594E+02  0.33752981404E+02  0.13308822347E+03  0.16743238546E+03  0.93588633700E+02 0.  0.
        254    2    1    2    0    0 -0.20567750594E+02 -0.33752981404E+02 -0.24299757672E+04  0.25930084729E+04  0.90407323542E+03 0.  0.
        -24    2    4    4    0    0  0.21687926188E+02 -0.40857894145E+03 -0.65325159632E+03  0.77498310357E+03  0.80337072381E+02 0.  0.
         24    2    4    4    0    0 -0.42255676782E+02  0.37482596004E+03 -0.17767241709E+04  0.18180253693E+04  0.78660164096E+02 0.  0.
         11    1    3    3    0    0  0.11063687648E+02  0.21222673578E+02  0.14546415491E+03  0.14741990172E+03  0.00000000000E+00 0.  1.
        -11    1    3    3    0    0  0.95040629462E+01  0.12530307825E+02 -0.12375931442E+02  0.20012483747E+02  0.00000000000E+00 0. -1.
          2    1    6    6  502    0  0.91082675281E+01  0.23123555680E+03 -0.11453981154E+04  0.11685416920E+04  0.00000000000E+00 0. -1.
          1    1    5    5  503    0  0.39867453494E+02 -0.28445939400E+03 -0.40100724107E+03  0.49326804891E+03  0.00000000000E+00 0. -1.
         -2    1    5    5    0  503 -0.18179527306E+02 -0.12411954745E+03 -0.25224435525E+03  0.28171505467E+03  0.00000000000E+00 0.  1.
         -1    1    6    6    0  502 -0.51363944311E+02  0.14359040324E+03 -0.63132605551E+03  0.64948367728E+03  0.00000000000E+00 0.  1.
<mgrwt>
<rscale>  0 0.15311242E+04</rscale>
<asrwt>0</asrwt>
<pdfrwt beam="1">  1        2 0.38902524E+00 0.15311242E+04</pdfrwt>
<pdfrwt beam="2">  1       -2 0.35657949E-01 0.15311242E+04</pdfrwt>
<totfact> 0.23936469E+01</totfact>
</mgrwt>
</event>
<event>
12    1  0.1556559E-007  0.2222167E+04  0.7818608E-02  0.8509258E-01
          2   -1    0    0  501    0  0.00000000000E+00  0.00000000000E+00  0.16070729972E+04  0.16070729972E+04  0.00000000000E+00 0.  1.
         -2   -1    0    0    0  501 -0.00000000000E+00 -0.00000000000E+00 -0.76817084419E+03  0.76817084419E+03  0.00000000000E+00 0. -1.
         23    2    1    2    0    0 -0.62479337869E+03 -0.68044524317E+03  0.40648400420E+03  0.10134105468E+04  0.91647125822E+02 0.  0.
        254    2    1    2    0    0  0.62479337869E+03  0.68044524317E+03  0.43241814881E+03  0.13618332946E+04  0.90234803256E+03 0.  0.
        -24    2    4    4    0    0  0.65727318800E+03  0.13957626576E+03  0.22957917315E+02  0.67712616588E+03  0.80518326690E+02 0.  0.
         24    2    4    4    0    0 -0.32479809303E+02  0.54086897740E+03  0.40946023150E+03  0.68470712872E+03  0.87017137454E+02 0.  0.
         11    1    3    3    0    0 -0.59257702905E+03 -0.61024503904E+03  0.38131477677E+03  0.93217353642E+03  0.00000000000E+00 0. -1.
        -11    1    3    3    0    0 -0.32216349647E+02 -0.70200204130E+02  0.25169227433E+02  0.81237010371E+02  0.00000000000E+00 0.  1.
          2    1    6    6  502    0 -0.12614081512E+02  0.29474565249E+03  0.16874392054E+03  0.33986559907E+03  0.00000000000E+00 0. -1.
          3    1    5    5  503    0  0.20310542826E+03  0.34961404408E+02  0.43418818393E+02  0.21061649645E+03  0.00000000000E+00 0. -1.
         -4    1    5    5    0  503  0.45416775974E+03  0.10461486135E+03 -0.20460901078E+02  0.46650966944E+03  0.00000000000E+00 0.  1.
         -1    1    6    6    0  502 -0.19865727791E+02  0.24612332491E+03  0.24071631096E+03  0.34484152965E+03  0.00000000000E+00 0.  1.
<mgrwt>
<rscale>  0 0.22221671E+04</rscale>
<asrwt>0</asrwt>
<pdfrwt beam="1">  1        2 0.24724200E+00 0.22221671E+04</pdfrwt>
<pdfrwt beam="2">  1       -2 0.11818013E+00 0.22221671E+04</pdfrwt>
<totfact> 0.55614350E+00</totfact>
</mgrwt>
</event>
<event>
12    1  0.1556559E-007  0.2528756E+04  0.7818608E-02  0.8392812E-01
         -2   -1    0    0    0  501 -0.00000000000E+00  0.00000000000E+00  0.19660339988E+04  0.19660339988E+04  0.00000000000E+00 0.  1.
          2   -1    0    0  501    0  0.00000000000E+00 -0.00000000000E+00 -0.81313541440E+03  0.81313541440E+03  0.00000000000E+00 0. -1.
         23    2    1    2    0    0 -0.15952895404E+03  0.47106690533E+03  0.15705692188E+04  0.16499337925E+04  0.90776274926E+02 0.  0.
        254    2    1    2    0    0  0.15952895404E+03 -0.47106690533E+03 -0.41767063436E+03  0.11292356208E+04  0.92378071635E+03 0.  0.
        -24    2    4    4    0    0 -0.21326092483E+03 -0.11054588127E+03  0.19698504121E+03  0.32167517216E+03  0.83493688395E+02 0.  0.
         24    2    4    4    0    0  0.37278987887E+03 -0.36052102406E+03 -0.61465567557E+03  0.80756044859E+03  0.73515821720E+02 0.  0.
         11    1    3    3    0    0 -0.11949653437E+03  0.30506500442E+03  0.11570936797E+04  0.12025846591E+04  0.00000000000E+00 0.  1.
        -11    1    3    3    0    0 -0.40032419671E+02  0.16600190091E+03  0.41347553905E+03  0.44734913337E+03  0.00000000000E+00 0. -1.
          4    1    6    6  502    0  0.30415482402E+03 -0.30459670030E+03 -0.46479231759E+03  0.63349917545E+03  0.00000000000E+00 0. -1.
          1    1    5    5  503    0 -0.19858006114E+02  0.65880441052E+01 -0.12677356181E+01  0.20960674740E+02  0.00000000000E+00 0. -1.
         -2    1    5    5    0  503 -0.19340291871E+03 -0.11713392537E+03  0.19825277683E+03  0.30071449742E+03  0.00000000000E+00 0.  1.
         -3    1    6    6    0  502  0.68635054850E+02 -0.55924323761E+02 -0.14986335798E+03  0.17406127314E+03  0.00000000000E+00 0.  1.
<mgrwt>
<rscale>  0 0.25287561E+04</rscale>
<asrwt>0</asrwt>
<pdfrwt beam="1">  1        2 0.12509776E+00 0.25287561E+04</pdfrwt>
<pdfrwt beam="2">  1       -2 0.30246677E+00 0.25287561E+04</pdfrwt>
<totfact> 0.92071353E-01</totfact>
</mgrwt>
</event>
<event>
12    1  0.1556559E-007  0.4228090E+04  0.7818608E-02  0.7960050E-01
          2   -1    0    0  501    0  0.00000000000E+00  0.00000000000E+00  0.22250362676E+04  0.22250362676E+04  0.00000000000E+00 0. -1.
         -2   -1    0    0    0  501 -0.00000000000E+00 -0.00000000000E+00 -0.20085905877E+04  0.20085905877E+04  0.00000000000E+00 0.  1.
         23    2    1    2    0    0  0.34203604599E+03 -0.29401184981E+03 -0.18599041116E+04  0.19160673225E+04  0.92946520647E+02 0.  0.
        254    2    1    2    0    0 -0.34203604599E+03  0.29401184981E+03  0.20763497915E+04  0.23175595328E+04  0.92543076839E+03 0.  0.
        -24    2    4    4    0    0  0.29125213883E+03 -0.45554656755E+02  0.67076324345E+03  0.73702819915E+03  0.79901204303E+02 0.  0.
         24    2    4    4    0    0 -0.63328818482E+03  0.33956650656E+03  0.14055865480E+04  0.15805313337E+04  0.77758699607E+02 0.  0.
         13    1    3    3    0    0  0.27471836030E+03 -0.26187577722E+03 -0.14181517403E+04  0.14680611222E+04  0.00000000000E+00 0.  1.
        -13    1    3    3    0    0  0.67317685696E+02 -0.32136072587E+02 -0.44175237129E+03  0.44800620030E+03  0.00000000000E+00 0. -1.
          4    1    6    6  502    0 -0.62746109825E+03  0.33643086053E+03  0.13661002745E+04  0.15404944381E+04  0.00000000000E+00 0. -1.
          1    1    5    5  503    0  0.16153468827E+03 -0.48259583368E+01  0.28003809821E+03  0.32332349410E+03  0.00000000000E+00 0. -1.
         -2    1    5    5    0  503  0.12971745056E+03 -0.40728698418E+02  0.39072514524E+03  0.41370470505E+03  0.00000000000E+00 0.  1.
         -3    1    6    6    0  502 -0.58270865685E+01  0.31356460366E+01  0.39486273505E+02  0.40036895599E+02  0.00000000000E+00 0.  1.
<mgrwt>
<rscale>  0 0.42280903E+04</rscale>
<asrwt>0</asrwt>
<pdfrwt beam="1">  1        2 0.34231327E+00 0.42280903E+04</pdfrwt>
<pdfrwt beam="2">  1       -2 0.30901394E+00 0.42280903E+04</pdfrwt>
<totfact> 0.10834125E-01</totfact>
</mgrwt>
</event>
<event>
12    1  0.1556559E-007  0.1124203E+04  0.7818608E-02  0.9181918E-01
         -1   -1    0    0    0  501 -0.00000000000E+00  0.00000000000E+00  0.14024161988E+03  0.14024161988E+03  0.00000000000E+00 0.  1.
          1   -1    0    0  501    0  0.00000000000E+00 -0.00000000000E+00 -0.22529550314E+04  0.22529550314E+04  0.00000000000E+00 0. -1.
         23    2    1    2    0    0  0.89813973530E+02 -0.12499028920E+03 -0.59635054474E+03  0.62224112255E+03  0.88661830254E+02 0.  0.
        254    2    1    2    0    0 -0.89813973530E+02  0.12499028920E+03 -0.15163628668E+04  0.17709555287E+04  0.90179710509E+03 0.  0.
        -24    2    4    4    0    0 -0.42080019039E+03 -0.17094242288E+03 -0.83100190558E+03  0.95031557269E+03  0.79002585042E+02 0.  0.
         24    2    4    4    0    0  0.33098621686E+03  0.29593271208E+03 -0.68536096121E+03  0.82063995605E+03  0.81254196724E+02 0.  0.
         13    1    3    3    0    0  0.53409933825E+02 -0.12889144363E+03 -0.50226820607E+03  0.52128588712E+03  0.00000000000E+00 0. -1.
        -13    1    3    3    0    0  0.36404039705E+02  0.39011544301E+01 -0.94082338668E+02  0.10095523544E+03  0.00000000000E+00 0.  1.
          4    1    6    6  502    0  0.10531230924E+03  0.48194691274E+02 -0.19204126644E+03  0.22426158557E+03  0.00000000000E+00 0. -1.
          1    1    5    5  503    0 -0.12118307346E+03 -0.12389674792E+02 -0.23275659100E+03  0.26270605625E+03  0.00000000000E+00 0. -1.
         -2    1    5    5    0  503 -0.29961711693E+03 -0.15855274809E+03 -0.59824531458E+03  0.68760951644E+03  0.00000000000E+00 0.  1.
         -3    1    6    6    0  502  0.22567390761E+03  0.24773802081E+03 -0.49331969477E+03  0.59637837049E+03  0.00000000000E+00 0.  1.
<mgrwt>
<rscale>  0 0.11242029E+04</rscale>
<asrwt>0</asrwt>
<pdfrwt beam="1">  1        1 0.34660849E+00 0.11242029E+04</pdfrwt>
<pdfrwt beam="2">  1       -1 0.21575632E-01 0.11242029E+04</pdfrwt>
<totfact> 0.36087124E+01</totfact>
</mgrwt>
</event>
<event>
12    1  0.1556559E-007  0.2960235E+04  0.7818608E-02  0.8255178E-01
         -1   -1    0    0    0  501 -0.00000000000E+00  0.00000000000E+00  0.12723552734E+04  0.12723552734E+04  0.00000000000E+00 0.  1.
          1   -1    0    0  501    0  0.00000000000E+00 -0.00000000000E+00 -0.17218056915E+04  0.17218056915E+04  0.00000000000E+00 0. -1.
         23    2    1    2    0    0  0.65295664506E+03 -0.85485507194E+02  0.97907393999E+03  0.11834984557E+04  0.91775063882E+02 0.  0.
        254    2    1    2    0    0 -0.65295664506E+03  0.85485507194E+02 -0.14285243580E+04  0.18106625092E+04  0.89674786222E+03 0.  0.
        -24    2    4    4    0    0 -0.80830075191E+03 -0.11009659289E+03 -0.12452101176E+04  0.14908026501E+04  0.80454578382E+02 0.  0.
         24    2    4    4    0    0  0.15534410685E+03  0.19558210009E+03 -0.18331424044E+03  0.31985985911E+03  0.79511441422E+02 0.  0.
         11    1    3    3    0    0  0.98277534645E+01 -0.13795664508E+02  0.16652487636E+02  0.23753114361E+02  0.00000000000E+00 0. -1.
        -11    1    3    3    0    0  0.64312889160E+03 -0.71689842685E+02  0.96242145235E+03  0.11597453413E+04  0.00000000000E+00 0.  1.
          4    1    6    6  502    0  0.13065294112E+03  0.19280725965E+03 -0.18088080806E+03  0.29489438300E+03  0.00000000000E+00 0. -1.
          1    1    5    5  503    0 -0.68047963966E+03 -0.10765337623E+03 -0.10013066643E+04  0.12154245454E+04  0.00000000000E+00 0. -1.
         -2    1    5    5    0  503 -0.12782111226E+03 -0.24432166680E+01 -0.24390345326E+03  0.27537810472E+03  0.00000000000E+00 0.  1.
         -3    1    6    6    0  502  0.24691165732E+02  0.27748404372E+01 -0.24334323739E+01  0.24965476118E+02  0.00000000000E+00 0.  1.
<mgrwt>
<rscale>  0 0.29602355E+04</rscale>
<asrwt>0</asrwt>
<pdfrwt beam="1">  1        1 0.26489318E+00 0.29602355E+04</pdfrwt>
<pdfrwt beam="2">  1       -1 0.19574697E+00 0.29602355E+04</pdfrwt>
<totfact> 0.63352307E-01</totfact>
</mgrwt>
</event>
<event>
12    1  0.1556559E-007  0.2743706E+04  0.7818608E-02  0.8320962E-01
          2   -1    0    0  501    0  0.00000000000E+00  0.00000000000E+00  0.15971897392E+04  0.15971897392E+04  0.00000000000E+00 0.  1.
         -2   -1    0    0    0  501 -0.00000000000E+00 -0.00000000000E+00 -0.11783071882E+04  0.11783071882E+04  0.00000000000E+00 0. -1.
         23    2    1    2    0    0  0.76915395077E+03 -0.10548323913E+03 -0.76488767543E+03  0.10935966195E+04  0.90420664206E+02 0.  0.
        254    2    1    2    0    0 -0.76915395077E+03  0.10548323913E+03  0.11837702265E+04  0.16819003079E+04  0.90815867709E+03 0.  0.
        -24    2    4    4    0    0 -0.65595956211E+03  0.46057818735E+03  0.71152253408E+03  0.10748452059E+04  0.81318425186E+02 0.  0.
         24    2    4    4    0    0 -0.11319438866E+03 -0.35509494822E+03  0.47224769241E+03  0.60705510201E+03  0.81194962967E+02 0.  0.
         13    1    3    3    0    0  0.56520097400E+03 -0.94923016349E+02 -0.61221477420E+03  0.83861162035E+03  0.00000000000E+00 0.  1.
        -13    1    3    3    0    0  0.20395297677E+03 -0.10560222780E+02 -0.15267290123E+03  0.25498499918E+03  0.00000000000E+00 0. -1.
          4    1    6    6  502    0 -0.30199827075E+02 -0.21938594172E+03  0.25395546299E+03  0.33695043873E+03  0.00000000000E+00 0. -1.
          3    1    5    5  503    0 -0.63765698713E+03  0.43404295317E+03  0.66618703084E+03  0.10192177778E+04  0.00000000000E+00 0. -1.
         -4    1    5    5    0  503 -0.18302574986E+02  0.26535234180E+02  0.45335503246E+02  0.55627428114E+02  0.00000000000E+00 0.  1.
         -3    1    6    6    0  502 -0.82994561580E+02 -0.13570900650E+03  0.21829222942E+03  0.27010466327E+03  0.00000000000E+00 0.  1.
<mgrwt>
<rscale>  0 0.27437056E+04</rscale>
<asrwt>0</asrwt>
<pdfrwt beam="1">  1        2 0.24572150E+00 0.27437056E+04</pdfrwt>
<pdfrwt beam="2">  1       -2 0.18127803E+00 0.27437056E+04</pdfrwt>
<totfact> 0.17387109E+00</totfact>
</mgrwt>
</event>
<event>
12    1  0.1556559E-007  0.1294500E+04  0.7818608E-02  0.9033938E-01
          2   -1    0    0  501    0  0.00000000000E+00  0.00000000000E+00  0.23622964768E+04  0.23622964768E+04  0.00000000000E+00 0. -1.
         -2   -1    0    0    0  501 -0.00000000000E+00 -0.00000000000E+00 -0.17734114902E+03  0.17734114902E+03  0.00000000000E+00 0.  1.
         23    2    1    2    0    0 -0.27681969429E+03 -0.12449302000E+03  0.81652076681E+03  0.87600590656E+03  0.92479892579E+02 0.  0.
        254    2    1    2    0    0  0.27681969429E+03  0.12449302000E+03  0.13684345610E+04  0.16636317193E+04  0.89606344335E+03 0.  0.
        -24    2    4    4    0    0  0.43593271239E+02  0.78645841442E+02 -0.11083057610E+03  0.16331309128E+03  0.79386444135E+02 0.  0.
         24    2    4    4    0    0  0.23322642305E+03  0.45847178555E+02  0.14792651371E+04  0.15003186280E+04  0.78956390031E+02 0.  0.
         11    1    3    3    0    0 -0.90429809469E+02 -0.38832534188E+02  0.39703707292E+03  0.40905250693E+03  0.00000000000E+00 0. -1.
        -11    1    3    3    0    0 -0.18638988482E+03 -0.85660485809E+02  0.41948369389E+03  0.46695339963E+03  0.00000000000E+00 0.  1.
          4    1    6    6  502    0  0.95396712676E+01 -0.13342642262E+02  0.55461811376E+02  0.57836354929E+02  0.00000000000E+00 0. -1.
          1    1    5    5  503    0 -0.12504054976E+02  0.43446174481E+02 -0.76140964370E+02  0.88551498706E+02  0.00000000000E+00 0. -1.
         -2    1    5    5    0  503  0.56097326216E+02  0.35199666960E+02 -0.34689611729E+02  0.74761592576E+02  0.00000000000E+00 0.  1.
         -3    1    6    6    0  502  0.22368675178E+03  0.59189820817E+02  0.14238033257E+04  0.14424822730E+04  0.00000000000E+00 0.  1.
<mgrwt>
<rscale>  0 0.12944997E+04</rscale>
<asrwt>0</asrwt>
<pdfrwt beam="1">  1        2 0.36343021E+00 0.12944997E+04</pdfrwt>
<pdfrwt beam="2">  1       -2 0.27283255E-01 0.12944997E+04</pdfrwt>
<totfact> 0.50270337E+01</totfact>
</mgrwt>
</event>
<event>
12    1  0.1556559E-007  0.1441521E+04  0.7818608E-02  0.8924300E-01
          2   -1    0    0  501    0  0.00000000000E+00  0.00000000000E+00  0.95424998644E+03  0.95424998644E+03  0.00000000000E+00 0. -1.
         -2   -1    0    0    0  501 -0.00000000000E+00 -0.00000000000E+00 -0.54440223155E+03  0.54440223155E+03  0.00000000000E+00 0.  1.
         23    2    1    2    0    0  0.22506402243E+03 -0.48572174457E+02 -0.25412649771E+03  0.35452863105E+03  0.89984460167E+02 0.  0.
        254    2    1    2    0    0 -0.22506402243E+03  0.48572174457E+02  0.66397425260E+03  0.11441235869E+04  0.90285320168E+03 0.  0.
        -24    2    4    4    0    0 -0.25103303101E+03 -0.10584140613E+03  0.84593988065E+03  0.89240167692E+03  0.80910354073E+02 0.  0.
         24    2    4    4    0    0  0.25969008580E+02  0.15441358059E+03 -0.18196562805E+03  0.25172191002E+03  0.75726395100E+02 0.  0.
         11    1    3    3    0    0  0.39272196760E+02  0.13441336382E+02 -0.12223803849E+02  0.43271195299E+02  0.00000000000E+00 0. -1.
        -11    1    3    3    0    0  0.18579182567E+03 -0.62013510839E+02 -0.24190269386E+03  0.31125743575E+03  0.00000000000E+00 0.  1.
          4    1    6    6  502    0 -0.16022665607E+02  0.19312302766E+02 -0.57563084010E+01  0.25745406148E+02  0.00000000000E+00 0. -1.
          3    1    5    5  503    0 -0.14328869321E+02  0.97057017532E+01  0.96051439783E+02  0.97598136391E+02  0.00000000000E+00 0. -1.
         -4    1    5    5    0  503 -0.23670416169E+03 -0.11554710789E+03  0.74988844087E+03  0.79480354053E+03  0.00000000000E+00 0.  1.
         -3    1    6    6    0  502  0.41991674188E+02  0.13510127782E+03 -0.17620931965E+03  0.22597650387E+03  0.00000000000E+00 0.  1.
<mgrwt>
<rscale>  0 0.14415212E+04</rscale>
<asrwt>0</asrwt>
<pdfrwt beam="1">  1        2 0.14680769E+00 0.14415212E+04</pdfrwt>
<pdfrwt beam="2">  1       -2 0.83754190E-01 0.14415212E+04</pdfrwt>
<totfact> 0.32627196E+01</totfact>
</mgrwt>
</event>
<event>
12    1  0.1556559E-007  0.1475542E+04  0.7818608E-02  0.8900882E-01
          4   -1    0    0  501    0  0.00000000000E+00  0.00000000000E+00  0.39817497288E+03  0.39817497288E+03  0.00000000000E+00 0. -1.
         -4   -1    0    0    0  501 -0.00000000000E+00 -0.00000000000E+00 -0.13670015125E+04  0.13670015125E+04  0.00000000000E+00 0.  1.
         23    2    1    2    0    0 -0.13578881165E+03 -0.31725607316E+03  0.36836512792E+02  0.36381431658E+03  0.10915086325E+03 0.  0.
        254    2    1    2    0    0  0.13578881165E+03  0.31725607316E+03 -0.10056630524E+04  0.14013621688E+04  0.91288977199E+03 0.  0.
        -24    2    4    4    0    0  0.19809739332E+03  0.62997021516E+02 -0.10922397322E+04  0.11147771949E+04  0.80804454019E+02 0.  0.
         24    2    4    4    0    0 -0.62308581671E+02  0.25425905164E+03  0.86576679812E+02  0.28658497384E+03  0.78137065802E+02 0.  0.
         11    1    3    3    0    0 -0.98538001742E+02 -0.30295983797E+03  0.16445976482E+02  0.31900606789E+03  0.00000000000E+00 0. -1.
        -11    1    3    3    0    0 -0.37250809909E+02 -0.14296235188E+02  0.20390536310E+02  0.44808248687E+02  0.00000000000E+00 0.  1.
          4    1    6    6  502    0 -0.70248584982E+02  0.13362469151E+03  0.62089619433E+02  0.16323462474E+03  0.00000000000E+00 0. -1.
          3    1    5    5  503    0  0.15096484905E+03  0.47511417368E+02 -0.61776027605E+03  0.63771112511E+03  0.00000000000E+00 0. -1.
         -4    1    5    5    0  503  0.47132544269E+02  0.15485604147E+02 -0.47447945614E+03  0.47706606981E+03  0.00000000000E+00 0.  1.
         -3    1    6    6    0  502  0.79400033110E+01  0.12063436013E+03  0.24487060379E+02  0.12335034909E+03  0.00000000000E+00 0.  1.
<mgrwt>
<rscale>  0 0.14755416E+04</rscale>
<asrwt>0</asrwt>
<pdfrwt beam="1">  1        4 0.61257689E-01 0.14755416E+04</pdfrwt>
<pdfrwt beam="2">  1       -4 0.21030792E+00 0.14755416E+04</pdfrwt>
<totfact> 0.54688841E-01</totfact>
</mgrwt>
</event>
<event>
12    1  0.1556559E-007  0.1626317E+04  0.7818608E-02  0.8804541E-01
          3   -1    0    0  501    0  0.00000000000E+00  0.00000000000E+00  0.36822077036E+03  0.36822077036E+03  0.00000000000E+00 0. -1.
         -3   -1    0    0    0  501 -0.00000000000E+00 -0.00000000000E+00 -0.17957349936E+04  0.17957349936E+04  0.00000000000E+00 0.  1.
         23    2    1    2    0    0  0.11780998569E+03  0.46154636941E+03 -0.91606590667E+03  0.10365476193E+04  0.91378213570E+02 0.  0.
        254    2    1    2    0    0 -0.11780998569E+03 -0.46154636941E+03 -0.51144831657E+03  0.11274081446E+04  0.88462732279E+03 0.  0.
        -24    2    4    4    0    0  0.93491906731E+02  0.22597198766E+03 -0.24625924088E+03  0.35610052998E+03  0.79748968055E+02 0.  0.
         24    2    4    4    0    0 -0.21130189242E+03 -0.68751835707E+03 -0.26518907569E+03  0.77130761465E+03  0.85206863030E+02 0.  0.
         11    1    3    3    0    0  0.12862913493E+03  0.45083757124E+03 -0.89718023525E+03  0.10122906423E+04  0.00000000000E+00 0.  1.
        -11    1    3    3    0    0 -0.10819149241E+02  0.10708798177E+02 -0.18885671420E+02  0.24256977010E+02  0.00000000000E+00 0. -1.
          4    1    6    6  502    0 -0.14664725956E+02 -0.46792705546E+02  0.36641850385E+01  0.49173547072E+02  0.00000000000E+00 0. -1.
          1    1    5    5  503    0  0.32995949829E+02  0.13452010372E+02 -0.26007210046E+02  0.44114218371E+02  0.00000000000E+00 0. -1.
         -2    1    5    5    0  503  0.60495956902E+02  0.21251997728E+03 -0.22025203083E+03  0.31198631161E+03  0.00000000000E+00 0.  1.
         -3    1    6    6    0  502 -0.19663716647E+03 -0.64072565152E+03 -0.26885326073E+03  0.72213406758E+03  0.00000000000E+00 0.  1.
<mgrwt>
<rscale>  0 0.16263172E+04</rscale>
<asrwt>0</asrwt>
<pdfrwt beam="1">  1        3 0.56649349E-01 0.16263172E+04</pdfrwt>
<pdfrwt beam="2">  1       -3 0.27626692E+00 0.16263172E+04</pdfrwt>
<totfact> 0.39781406E-01</totfact>
</mgrwt>
</event>
<event>
12    1  0.1556559E-007  0.1627102E+04  0.7818608E-02  0.8804069E-01
          2   -1    0    0  501    0  0.00000000000E+00  0.00000000000E+00  0.19538482627E+04  0.19538482627E+04  0.00000000000E+00 0. -1.
         -2   -1    0    0    0  501 -0.00000000000E+00 -0.00000000000E+00 -0.33874969058E+03  0.33874969058E+03  0.00000000000E+00 0.  1.
         23    2    1    2    0    0  0.84490593927E+01 -0.30046737975E+03  0.12178450700E+04  0.12576406993E+04  0.90340916289E+02 0.  0.
        254    2    1    2    0    0 -0.84490593927E+01  0.30046737975E+03  0.39725350212E+03  0.10349572540E+04  0.90717922137E+03 0.  0.
        -24    2    4    4    0    0  0.32885998160E+03 -0.15953048660E+03  0.10292540668E+03  0.38807067970E+03  0.80039674205E+02 0.  0.
         24    2    4    4    0    0 -0.33730904100E+03  0.45999786635E+03  0.29432809545E+03  0.64688657426E+03  0.80360350934E+02 0.  0.
         13    1    3    3    0    0 -0.22816370600E+02 -0.21240821292E+03  0.95724757061E+03  0.98079597630E+03  0.00000000000E+00 0. -1.
        -13    1    3    3    0    0  0.31265429993E+02 -0.88059166824E+02  0.26059749939E+03  0.27684472302E+03  0.00000000000E+00 0.  1.
          2    1    6    6  502    0 -0.56866380428E+02  0.83187506556E+02  0.88264738145E+02  0.13395749501E+03  0.00000000000E+00 0. -1.
          1    1    5    5  503    0  0.43108228051E+02 -0.13292411826E+02 -0.12730415568E+02  0.46872924150E+02  0.00000000000E+00 0. -1.
         -2    1    5    5    0  503  0.28575175355E+03 -0.14623807478E+03  0.11565582224E+03  0.34119775555E+03  0.00000000000E+00 0.  1.
         -1    1    6    6    0  502 -0.28044266057E+03  0.37681035979E+03  0.20606335730E+03  0.51292907925E+03  0.00000000000E+00 0.  1.
<mgrwt>
<rscale>  0 0.16271023E+04</rscale>
<asrwt>0</asrwt>
<pdfrwt beam="1">  1        2 0.30059203E+00 0.16271023E+04</pdfrwt>
<pdfrwt beam="2">  1       -2 0.52115338E-01 0.16271023E+04</pdfrwt>
<totfact> 0.23578910E+01</totfact>
</mgrwt>
</event>
<event>
12    1  0.1556559E-007  0.1500336E+04  0.7818608E-02  0.8884229E-01
          2   -1    0    0  501    0  0.00000000000E+00  0.00000000000E+00  0.75924423578E+03  0.75924423578E+03  0.00000000000E+00 0. -1.
         -2   -1    0    0    0  501 -0.00000000000E+00 -0.00000000000E+00 -0.74120037191E+03  0.74120037191E+03  0.00000000000E+00 0.  1.
         23    2    1    2    0    0 -0.23658663735E+03 -0.76668002480E+02  0.40984416743E+03  0.48801193444E+03  0.91280813957E+02 0.  0.
        254    2    1    2    0    0  0.23658663735E+03  0.76668002480E+02 -0.39180030356E+03  0.10124326733E+04  0.89981176944E+03 0.  0.
        -24    2    4    4    0    0  0.29030693013E+03  0.37155577350E+03 -0.49173236484E+03  0.68615047506E+03  0.81669757476E+02 0.  0.
         24    2    4    4    0    0 -0.53720292777E+02 -0.29488777102E+03  0.99932061279E+02  0.32628219819E+03  0.81418601262E+02 0.  0.
         13    1    3    3    0    0 -0.21824075867E+03 -0.66917372419E+02  0.40753227226E+03  0.46710760688E+03  0.00000000000E+00 0. -1.
        -13    1    3    3    0    0 -0.18345878683E+02 -0.97506300609E+01  0.23118951754E+01  0.20904327555E+02  0.00000000000E+00 0.  1.
          2    1    6    6  502    0 -0.32806256657E+02 -0.48213842930E+02 -0.24960990703E+01  0.58369989177E+02  0.00000000000E+00 0. -1.
          1    1    5    5  503    0  0.37085374239E+02  0.43704189229E+02 -0.10399982252E+03  0.11874908094E+03  0.00000000000E+00 0. -1.
         -2    1    5    5    0  503  0.25322155589E+03  0.32785158427E+03 -0.38773254232E+03  0.56740139412E+03  0.00000000000E+00 0.  1.
         -1    1    6    6    0  502 -0.20914036120E+02 -0.24667392809E+03  0.10242816035E+03  0.26791220902E+03  0.00000000000E+00 0.  1.
<mgrwt>
<rscale>  0 0.15003361E+04</rscale>
<asrwt>0</asrwt>
<pdfrwt beam="1">  1        2 0.11680681E+00 0.15003361E+04</pdfrwt>
<pdfrwt beam="2">  1       -2 0.11403083E+00 0.15003361E+04</pdfrwt>
<totfact> 0.21464877E+01</totfact>
</mgrwt>
</event>
<event>
12    1  0.1556559E-007  0.1994487E+04  0.7818608E-02  0.8609203E-01
          1   -1    0    0  501    0  0.00000000000E+00  0.00000000000E+00  0.12058640446E+04  0.12058640446E+04  0.00000000000E+00 0. -1.
         -1   -1    0    0    0  501 -0.00000000000E+00 -0.00000000000E+00 -0.82471525112E+03  0.82471525112E+03  0.00000000000E+00 0.  1.
         23    2    1    2    0    0 -0.32086330250E+03 -0.55958513330E+03  0.62472018808E+03  0.90274069566E+03  0.92610312070E+02 0.  0.
        254    2    1    2    0    0  0.32086330250E+03  0.55958513330E+03 -0.24357139462E+03  0.11278386000E+04  0.89252680809E+03 0.  0.
        -24    2    4    4    0    0  0.48579409754E+03  0.20214055722E+02 -0.26231603221E+03  0.55813021505E+03  0.79341810879E+02 0.  0.
         24    2    4    4    0    0 -0.16493079503E+03  0.53937107758E+03  0.18744637585E+02  0.56970838499E+03  0.78057389211E+02 0.  0.
         13    1    3    3    0    0 -0.10495279492E+03 -0.22971057099E+03  0.29865540127E+03  0.39112285064E+03  0.00000000000E+00 0.  1.
        -13    1    3    3    0    0 -0.21591050759E+03 -0.32987456230E+03  0.32606478682E+03  0.51161784502E+03  0.00000000000E+00 0. -1.
          4    1    6    6  502    0 -0.12647566620E+01  0.88475982054E+02 -0.10677053032E+02  0.89126867281E+02  0.00000000000E+00 0. -1.
          3    1    5    5  503    0  0.11873559539E+03  0.38362716268E+02 -0.57307822101E+02  0.13730996354E+03  0.00000000000E+00 0. -1.
         -4    1    5    5    0  503  0.36705850215E+03 -0.18148660545E+02 -0.20500821011E+03  0.42082025152E+03  0.00000000000E+00 0.  1.
         -3    1    6    6    0  502 -0.16366603837E+03  0.45089509552E+03  0.29421690617E+02  0.48058151771E+03  0.00000000000E+00 0.  1.
<mgrwt>
<rscale>  0 0.19944869E+04</rscale>
<asrwt>0</asrwt>
<pdfrwt beam="1">  1        1 0.18551755E+00 0.19944869E+04</pdfrwt>
<pdfrwt beam="2">  1       -1 0.12687927E+00 0.19944869E+04</pdfrwt>
<totfact> 0.52947154E+00</totfact>
</mgrwt>
</event>
<event>
12    1  0.1556559E-007  0.2089945E+04  0.7818608E-02  0.8565686E-01
          2   -1    0    0  501    0  0.00000000000E+00  0.00000000000E+00  0.14222730312E+04  0.14222730312E+04  0.00000000000E+00 0.  1.
         -2   -1    0    0    0  501 -0.00000000000E+00 -0.00000000000E+00 -0.76776228724E+03  0.76776228724E+03  0.00000000000E+00 0. -1.
         23    2    1    2    0    0  0.52372714932E+03 -0.18670763338E+02 -0.43663696120E+03  0.68854570599E+03  0.93832984633E+02 0.  0.
        254    2    1    2    0    0 -0.52372714932E+03  0.18670763338E+02  0.10911477052E+04  0.15014896124E+04  0.88838562430E+03 0.  0.
        -24    2    4    4    0    0 -0.47590819924E+03 -0.21806200885E+03  0.18526589524E+03  0.56067513117E+03  0.77417678683E+02 0.  0.
         24    2    4    4    0    0 -0.47818950083E+02  0.23673277219E+03  0.90588180992E+03  0.94081448127E+03  0.78619191079E+02 0.  0.
         13    1    3    3    0    0  0.14250395777E+03 -0.12013305656E+02 -0.17560766486E+03  0.22647240329E+03  0.00000000000E+00 0.  1.
        -13    1    3    3    0    0  0.38122319155E+03 -0.66574576823E+01 -0.26102929634E+03  0.46207330270E+03  0.00000000000E+00 0. -1.
          4    1    6    6  502    0 -0.64732126537E+02  0.14633457901E+03  0.63021582254E+03  0.65021230395E+03  0.00000000000E+00 0. -1.
          1    1    5    5  503    0 -0.31959426973E+03 -0.18050758935E+03  0.11006646590E+03  0.38319461631E+03  0.00000000000E+00 0. -1.
         -2    1    5    5    0  503 -0.15631392951E+03 -0.37554419507E+02  0.75199429338E+02  0.17748051486E+03  0.00000000000E+00 0.  1.
         -3    1    6    6    0  502  0.16913176454E+02  0.90398193181E+02  0.27566598737E+03  0.29060217732E+03  0.00000000000E+00 0.  1.
<mgrwt>
<rscale>  0 0.20899451E+04</rscale>
<asrwt>0</asrwt>
<pdfrwt beam="1">  1        2 0.21881124E+00 0.20899451E+04</pdfrwt>
<pdfrwt beam="2">  1       -2 0.11811728E+00 0.20899451E+04</pdfrwt>
<totfact> 0.71585707E+00</totfact>
</mgrwt>
</event>
<event>
12    1  0.1556559E-007  0.1675930E+04  0.7818608E-02  0.8775213E-01
          2   -1    0    0  501    0  0.00000000000E+00  0.00000000000E+00  0.12159339432E+04  0.12159339432E+04  0.00000000000E+00 0. -1.
         -2   -1    0    0    0  501 -0.00000000000E+00 -0.00000000000E+00 -0.57748653372E+03  0.57748653372E+03  0.00000000000E+00 0.  1.
         23    2    1    2    0    0  0.52473998079E+03  0.99322049548E+02  0.49396238934E+03  0.73320471805E+03  0.91506281325E+02 0.  0.
        254    2    1    2    0    0 -0.52473998079E+03 -0.99322049548E+02  0.14448502011E+03  0.10602157588E+04  0.90441396344E+03 0.  0.
        -24    2    4    4    0    0 -0.30562078986E+03 -0.47306518412E+03 -0.64870914304E+02  0.57306961543E+03  0.83700734713E+02 0.  0.
         24    2    4    4    0    0 -0.21911919094E+03  0.37374313457E+03  0.20935593441E+03  0.48714614340E+03  0.76054633545E+02 0.  0.
         11    1    3    3    0    0  0.41976267998E+03  0.78856194501E+02  0.44075973117E+03  0.61374925461E+03  0.00000000000E+00 0. -1.
        -11    1    3    3    0    0  0.10497730082E+03  0.20465855047E+02  0.53202658164E+02  0.11945546344E+03  0.00000000000E+00 0.  1.
          2    1    6    6  502    0 -0.57347929192E+02  0.54019753401E+02  0.17531998520E+02  0.80711149863E+02  0.00000000000E+00 0. -1.
          1    1    5    5  503    0 -0.11175844044E+03 -0.19637816102E+03  0.13148665431E+02  0.22633430702E+03  0.00000000000E+00 0. -1.
         -2    1    5    5    0  503 -0.19386234942E+03 -0.27668702310E+03 -0.78019579735E+02  0.34673530841E+03  0.00000000000E+00 0.  1.
         -1    1    6    6    0  502 -0.16177126175E+03  0.31972338117E+03  0.19182393589E+03  0.40643499354E+03  0.00000000000E+00 0.  1.
<mgrwt>
<rscale>  0 0.16759302E+04</rscale>
<asrwt>0</asrwt>
<pdfrwt beam="1">  1        2 0.18706676E+00 0.16759302E+04</pdfrwt>
<pdfrwt beam="2">  1       -2 0.88844083E-01 0.16759302E+04</pdfrwt>
<totfact> 0.19237043E+01</totfact>
</mgrwt>
</event>
<event>
12    1  0.1556559E-007  0.2061415E+04  0.7818608E-02  0.8578434E-01
         -1   -1    0    0    0  501 -0.00000000000E+00  0.00000000000E+00  0.16076001763E+04  0.16076001763E+04  0.00000000000E+00 0.  1.
          1   -1    0    0  501    0  0.00000000000E+00 -0.00000000000E+00 -0.66083457521E+03  0.66083457521E+03  0.00000000000E+00 0. -1.
         23    2    1    2    0    0  0.28000519092E+03 -0.14669319157E+03  0.12279494612E+04  0.12713412834E+04  0.92341650540E+02 0.  0.
        254    2    1    2    0    0 -0.28000519092E+03  0.14669319157E+03 -0.28118386003E+03  0.99709346812E+03  0.90288937397E+03 0.  0.
        -24    2    4    4    0    0  0.30480670656E+03 -0.15790064309E+02 -0.21553613860E+03  0.38167692918E+03  0.77878088876E+02 0.  0.
         24    2    4    4    0    0 -0.58481189748E+03  0.16248325588E+03 -0.65647721424E+02  0.61541653894E+03  0.77602378832E+02 0.  0.
         11    1    3    3    0    0  0.18457317071E+03 -0.13769182480E+03  0.78163893175E+03  0.81485318529E+03  0.00000000000E+00 0. -1.
        -11    1    3    3    0    0  0.95432020213E+02 -0.90013667742E+01  0.44631052941E+03  0.45648809815E+03  0.00000000000E+00 0.  1.
          2    1    6    6  502    0 -0.47121386456E+01 -0.40815030271E+00 -0.90714408213E+01  0.10230438693E+02  0.00000000000E+00 0. -1.
          3    1    5    5  503    0  0.96287648500E+02  0.26215684895E+02 -0.91815734008E+02  0.13560494976E+03  0.00000000000E+00 0. -1.
         -4    1    5    5    0  503  0.20851905806E+03 -0.42005749204E+02 -0.12372040459E+03  0.24607197942E+03  0.00000000000E+00 0.  1.
         -1    1    6    6    0  502 -0.58009975883E+03  0.16289140618E+03 -0.56576280603E+02  0.60518610025E+03  0.00000000000E+00 0.  1.
<mgrwt>
<rscale>  0 0.20614148E+04</rscale>
<asrwt>0</asrwt>
<pdfrwt beam="1">  1        1 0.10166686E+00 0.20614148E+04</pdfrwt>
<pdfrwt beam="2">  1       -1 0.24732310E+00 0.20614148E+04</pdfrwt>
<totfact> 0.19903131E+00</totfact>
</mgrwt>
</event>
<event>
12    1  0.1556559E-007  0.2649740E+04  0.7818608E-02  0.8351499E-01
          2   -1    0    0  501    0  0.00000000000E+00  0.00000000000E+00  0.28538038465E+04  0.28538038465E+04  0.00000000000E+00 0.  1.
         -2   -1    0    0    0  501 -0.00000000000E+00 -0.00000000000E+00 -0.61506716414E+03  0.61506716414E+03  0.00000000000E+00 0. -1.
         23    2    1    2    0    0  0.60652457993E+03  0.56364704480E+03  0.19989371634E+04  0.21655384024E+04  0.90756442126E+02 0.  0.
        254    2    1    2    0    0 -0.60652457993E+03 -0.56364704480E+03  0.23979951898E+03  0.13033326083E+04  0.97754898666E+03 0.  0.
        -24    2    4    4    0    0  0.25881927980E+03 -0.12197895407E+03 -0.61448067112E+01  0.29797835390E+03  0.82988287770E+02 0.  0.
         24    2    4    4    0    0 -0.86534385973E+03 -0.44166809073E+03  0.24594432569E+03  0.10053542544E+04  0.79736237157E+02 0.  0.
         11    1    3    3    0    0  0.24227687842E+03  0.17933780071E+03  0.65397300442E+03  0.72009778718E+03  0.00000000000E+00 0. -1.
        -11    1    3    3    0    0  0.36424770151E+03  0.38430924409E+03  0.13449641590E+04  0.14454406152E+04  0.00000000000E+00 0.  1.
          4    1    6    6  502    0 -0.74498196954E+03 -0.40515287115E+03  0.19868208443E+03  0.87098883725E+03  0.00000000000E+00 0. -1.
          3    1    5    5  503    0  0.20504667623E+03 -0.60723573812E+02  0.13024827296E+02  0.21424550864E+03  0.00000000000E+00 0. -1.
         -4    1    5    5    0  503  0.53772603576E+02 -0.61255380258E+02 -0.19169634007E+02  0.83732845251E+02  0.00000000000E+00 0.  1.
         -3    1    6    6    0  502 -0.12036189019E+03 -0.36515219577E+02  0.47262241257E+02  0.13436541713E+03  0.00000000000E+00 0.  1.
<mgrwt>
<rscale>  0 0.26497404E+04</rscale>
<asrwt>0</asrwt>
<pdfrwt beam="1">  1        2 0.43904674E+00 0.26497404E+04</pdfrwt>
<pdfrwt beam="2">  1       -2 0.94625719E-01 0.26497404E+04</pdfrwt>
<totfact> 0.17766330E+00</totfact>
</mgrwt>
</event>
<event>
12    1  0.1556559E-007  0.2036104E+04  0.7818608E-02  0.8589925E-01
         -2   -1    0    0    0  501 -0.00000000000E+00  0.00000000000E+00  0.40132364692E+03  0.40132364692E+03  0.00000000000E+00 0.  1.
          2   -1    0    0  501    0  0.00000000000E+00 -0.00000000000E+00 -0.25825276311E+04  0.25825276311E+04  0.00000000000E+00 0. -1.
         23    2    1    2    0    0  0.70343122505E+03  0.29758266338E+02 -0.26385378173E+03  0.75736014198E+03  0.90964409172E+02 0.  0.
        254    2    1    2    0    0 -0.70343122505E+03 -0.29758266338E+02 -0.19173502024E+04  0.22264911360E+04  0.88618843212E+03 0.  0.
        -24    2    4    4    0    0 -0.44876593702E+03 -0.32698442305E+03 -0.49085911979E+03  0.74516360672E+03  0.77565753743E+02 0.  0.
         24    2    4    4    0    0 -0.25466528803E+03  0.29722615671E+03 -0.14264910826E+04  0.14813275293E+04  0.79098944693E+02 0.  0.
         13    1    3    3    0    0  0.38653183626E+03  0.26653838102E+02 -0.19194892400E+03  0.43239065318E+03  0.00000000000E+00 0. -1.
        -13    1    3    3    0    0  0.31689938879E+03  0.31044282358E+01 -0.71904857736E+02  0.32496948880E+03  0.00000000000E+00 0.  1.
          4    1    6    6  502    0 -0.19504399654E+03  0.24643790390E+03 -0.10185184715E+04  0.10659050979E+04  0.00000000000E+00 0. -1.
          1    1    5    5  503    0 -0.30588532259E+03 -0.21815774256E+03 -0.37848336582E+03  0.53329943692E+03  0.00000000000E+00 0. -1.
         -2    1    5    5    0  503 -0.14288061442E+03 -0.10882668049E+03 -0.11237575397E+03  0.21186416980E+03  0.00000000000E+00 0.  1.
         -3    1    6    6    0  502 -0.59621291486E+02  0.50788252812E+02 -0.40797261114E+03  0.41542243134E+03  0.00000000000E+00 0.  1.
<mgrwt>
<rscale>  0 0.20361035E+04</rscale>
<asrwt>0</asrwt>
<pdfrwt beam="1">  1        2 0.39731195E+00 0.20361035E+04</pdfrwt>
<pdfrwt beam="2">  1       -2 0.61742099E-01 0.20361035E+04</pdfrwt>
<totfact> 0.70396006E+00</totfact>
</mgrwt>
</event>
<event>
12    1  0.1556559E-007  0.1775606E+04  0.7818608E-02  0.8719381E-01
         -1   -1    0    0    0  501 -0.00000000000E+00  0.00000000000E+00  0.42715290703E+03  0.42715290703E+03  0.00000000000E+00 0.  1.
          1   -1    0    0  501    0  0.00000000000E+00 -0.00000000000E+00 -0.18452268052E+04  0.18452268052E+04  0.00000000000E+00 0. -1.
         23    2    1    2    0    0  0.29248150856E+03  0.52353432242E+03 -0.83657749701E+03  0.10338859923E+04  0.97080981515E+02 0.  0.
        254    2    1    2    0    0 -0.29248150856E+03 -0.52353432242E+03 -0.58149640117E+03  0.12384937199E+04  0.91438231072E+03 0.  0.
        -24    2    4    4    0    0 -0.61053840113E+03 -0.40602881155E+03 -0.46135126660E+03  0.86985876353E+03  0.78693978357E+02 0.  0.
         24    2    4    4    0    0  0.31805689257E+03 -0.11750551086E+03 -0.12014513457E+03  0.36863495640E+03  0.80555234013E+02 0.  0.
         11    1    3    3    0    0  0.22800494220E+03  0.31249655096E+03 -0.53328381344E+03  0.65881103035E+03  0.00000000000E+00 0. -1.
        -11    1    3    3    0    0  0.64476566362E+02  0.21103777145E+03 -0.30329368356E+03  0.37507496195E+03  0.00000000000E+00 0.  1.
          4    1    6    6  502    0  0.68261815978E+02 -0.56742793834E+02 -0.11373754775E+02  0.89491801135E+02  0.00000000000E+00 0. -1.
          3    1    5    5  503    0 -0.10913223917E+03 -0.10127868911E+03 -0.11843052605E+03  0.19024460043E+03  0.00000000000E+00 0. -1.
         -4    1    5    5    0  503 -0.50140616196E+03 -0.30475012245E+03 -0.34292074055E+03  0.67961416310E+03  0.00000000000E+00 0.  1.
         -3    1    6    6    0  502  0.24979507659E+03 -0.60762717027E+02 -0.10877137979E+03  0.27914315527E+03  0.00000000000E+00 0.  1.
<mgrwt>
<rscale>  0 0.17756058E+04</rscale>
<asrwt>0</asrwt>
<pdfrwt beam="1">  1        1 0.28388105E+00 0.17756058E+04</pdfrwt>
<pdfrwt beam="2">  1       -1 0.65715832E-01 0.17756058E+04</pdfrwt>
<totfact> 0.84238871E+00</totfact>
</mgrwt>
</event>
<event>
12    1  0.1556559E-007  0.1397995E+04  0.7818608E-02  0.8955271E-01
         -2   -1    0    0    0  501 -0.00000000000E+00  0.00000000000E+00  0.55804041781E+03  0.55804041781E+03  0.00000000000E+00 0.  1.
          2   -1    0    0  501    0  0.00000000000E+00 -0.00000000000E+00 -0.87555918736E+03  0.87555918736E+03  0.00000000000E+00 0. -1.
         23    2    1    2    0    0  0.19601030700E+01  0.10334345969E+03 -0.49284446489E+03  0.51205286975E+03  0.92837288719E+02 0.  0.
        254    2    1    2    0    0 -0.19601030700E+01 -0.10334345969E+03  0.17532569533E+03  0.92154673542E+03  0.89879117344E+03 0.  0.
        -24    2    4    4    0    0 -0.69376693520E+02 -0.25610970925E+03  0.48569592610E+03  0.56009988932E+03  0.86058379084E+02 0.  0.
         24    2    4    4    0    0  0.67416590450E+02  0.15276624956E+03 -0.31037023077E+03  0.36144684610E+03  0.80197373618E+02 0.  0.
         13    1    3    3    0    0 -0.29638506123E+02  0.29623007161E+00 -0.14045649331E+03  0.14354983563E+03  0.00000000000E+00 0.  1.
        -13    1    3    3    0    0  0.31598609193E+02  0.10304722962E+03 -0.35238797158E+03  0.36850303411E+03  0.00000000000E+00 0. -1.
          4    1    6    6  502    0  0.32224955929E+02  0.36485345529E+02 -0.33492614086E+02  0.59087929574E+02  0.00000000000E+00 0. -1.
          1    1    5    5  503    0 -0.74325893741E+02 -0.25073531777E+03  0.42535987438E+03  0.49932310261E+03  0.00000000000E+00 0. -1.
         -2    1    5    5    0  503  0.49492002216E+01 -0.53743914750E+01  0.60336051721E+02  0.60776786718E+02  0.00000000000E+00 0.  1.
         -3    1    6    6    0  502  0.35191634521E+02  0.11628090403E+03 -0.27687761668E+03  0.30235891653E+03  0.00000000000E+00 0.  1.
<mgrwt>
<rscale>  0 0.13979949E+04</rscale>
<asrwt>0</asrwt>
<pdfrwt beam="1">  1        2 0.13470141E+00 0.13979949E+04</pdfrwt>
<pdfrwt beam="2">  1       -2 0.85852373E-01 0.13979949E+04</pdfrwt>
<totfact> 0.34945373E+01</totfact>
</mgrwt>
</event>
<event>
12    1  0.1556559E-007  0.1264159E+04  0.7818608E-02  0.9058481E-01
         -3   -1    0    0    0  501 -0.00000000000E+00  0.00000000000E+00  0.16481167866E+03  0.16481167866E+03  0.00000000000E+00 0.  1.
          3   -1    0    0  501    0  0.00000000000E+00 -0.00000000000E+00 -0.24241263689E+04  0.24241263689E+04  0.00000000000E+00 0. -1.
         23    2    1    2    0    0 -0.30001807568E+03  0.71057602344E+01 -0.49572469899E+03  0.58689559705E+03  0.92963041451E+02 0.  0.
        254    2    1    2    0    0  0.30001807568E+03 -0.71057602344E+01 -0.17635899912E+04  0.20020424505E+04  0.89881198196E+03 0.  0.
        -24    2    4    4    0    0 -0.39439050154E+02 -0.40622476722E+03 -0.84104059212E+03  0.93799944469E+03  0.76939459821E+02 0.  0.
         24    2    4    4    0    0  0.33945712583E+03  0.39911900699E+03 -0.92254939913E+03  0.10640430058E+04  0.81012359560E+02 0.  0.
         13    1    3    3    0    0 -0.43768378927E+01 -0.93124586558E+01 -0.10084418686E+01  0.10339030475E+02  0.00000000000E+00 0. -1.
        -13    1    3    3    0    0 -0.29564123779E+03  0.16418218890E+02 -0.49471625713E+03  0.57655656657E+03  0.00000000000E+00 0.  1.
          2    1    6    6  502    0  0.15257707931E+03  0.24071276638E+03 -0.51067501500E+03  0.58481738344E+03  0.00000000000E+00 0. -1.
          1    1    5    5  503    0 -0.32163600051E+02 -0.39876426091E+03 -0.78570758929E+03  0.88169373867E+03  0.00000000000E+00 0. -1.
         -2    1    5    5    0  503 -0.72754501030E+01 -0.74605063089E+01 -0.55333002828E+02  0.56305706021E+02  0.00000000000E+00 0.  1.
         -1    1    6    6    0  502  0.18688004652E+03  0.15840624061E+03 -0.41187438413E+03  0.47922562239E+03  0.00000000000E+00 0.  1.
<mgrwt>
<rscale>  0 0.12641587E+04</rscale>
<asrwt>0</asrwt>
<pdfrwt beam="1">  1        3 0.37294251E+00 0.12641587E+04</pdfrwt>
<pdfrwt beam="2">  1       -3 0.25355644E-01 0.12641587E+04</pdfrwt>
<totfact> 0.60314003E-01</totfact>
</mgrwt>
</event>
<event>
12    1  0.1556559E-007  0.1353484E+04  0.7818608E-02  0.8988195E-01
          1   -1    0    0  501    0  0.00000000000E+00  0.00000000000E+00  0.91136588429E+03  0.91136588429E+03  0.00000000000E+00 0. -1.
         -1   -1    0    0    0  501 -0.00000000000E+00 -0.00000000000E+00 -0.50252015214E+03  0.50252015214E+03  0.00000000000E+00 0.  1.
         23    2    1    2    0    0 -0.17002446894E+03 -0.20160882751E+03 -0.16034155169E+03  0.31593836988E+03  0.67477410995E+02 0.  0.
        254    2    1    2    0    0  0.17002446894E+03  0.20160882751E+03  0.56918728385E+03  0.10979476665E+04  0.90108849455E+03 0.  0.
        -24    2    4    4    0    0  0.30129259005E+03  0.32547701665E+03 -0.44815859498E+02  0.45290733344E+03  0.80025484931E+02 0.  0.
         24    2    4    4    0    0 -0.13126812111E+03 -0.12386818914E+03  0.61400314334E+03  0.64504033310E+03  0.80638225386E+02 0.  0.
         13    1    3    3    0    0 -0.16171037104E+03 -0.17609917427E+03 -0.12005166914E+03  0.26753236542E+03  0.00000000000E+00 0. -1.
        -13    1    3    3    0    0 -0.83140978967E+01 -0.25509653240E+02 -0.40289882547E+02  0.48406004462E+02  0.00000000000E+00 0.  1.
          4    1    6    6  502    0 -0.11407006425E+03 -0.65854819149E+02  0.48473137932E+03  0.50230801990E+03  0.00000000000E+00 0. -1.
          3    1    5    5  503    0  0.28447770007E+03  0.26870562242E+03 -0.42951412697E+02  0.39366876585E+03  0.00000000000E+00 0. -1.
         -4    1    5    5    0  503  0.16814889978E+02  0.56771394235E+02 -0.18644468014E+01  0.59238567591E+02  0.00000000000E+00 0.  1.
         -3    1    6    6    0  502 -0.17198056866E+02 -0.58013369989E+02  0.12927176402E+03  0.14273231320E+03  0.00000000000E+00 0.  1.
<mgrwt>
<rscale>  0 0.13534840E+04</rscale>
<asrwt>0</asrwt>
<pdfrwt beam="1">  1        1 0.14021014E+00 0.13534840E+04</pdfrwt>
<pdfrwt beam="2">  1       -1 0.77310793E-01 0.13534840E+04</pdfrwt>
<totfact> 0.29242857E+01</totfact>
</mgrwt>
</event>
<event>
12    1  0.1556559E-007  0.1329976E+04  0.7818608E-02  0.9006126E-01
          1   -1    0    0  501    0  0.00000000000E+00  0.00000000000E+00  0.49440728833E+03  0.49440728833E+03  0.00000000000E+00 0. -1.
         -1   -1    0    0    0  501 -0.00000000000E+00 -0.00000000000E+00 -0.89442318851E+03  0.89442318851E+03  0.00000000000E+00 0.  1.
         23    2    1    2    0    0 -0.57080880860E+02 -0.16036738700E+02  0.26106927637E+03  0.28296314407E+03  0.91627342484E+02 0.  0.
        254    2    1    2    0    0  0.57080880860E+02  0.16036738700E+02 -0.66108517654E+03  0.11058673328E+04  0.88453012560E+03 0.  0.
        -24    2    4    4    0    0  0.25161466290E+03 -0.18378789267E+03 -0.73933771390E+03  0.80676946167E+03  0.84668654207E+02 0.  0.
         24    2    4    4    0    0 -0.19453378204E+03  0.19982463137E+03  0.78252537362E+02  0.29909787110E+03  0.74584188876E+02 0.  0.
         13    1    3    3    0    0 -0.19162367470E+02 -0.52878943255E+02  0.13754758128E+03  0.14860254400E+03  0.00000000000E+00 0. -1.
        -13    1    3    3    0    0 -0.37918513390E+02  0.36842204555E+02  0.12352169509E+03  0.13436060007E+03  0.00000000000E+00 0.  1.
          2    1    6    6  502    0 -0.12767635651E+03  0.83866085919E+02  0.23827852111E+02  0.15460445956E+03  0.00000000000E+00 0. -1.
          3    1    5    5  503    0  0.22053906263E+03 -0.12198985923E+03 -0.54398702865E+03  0.59953389498E+03  0.00000000000E+00 0. -1.
         -4    1    5    5    0  503  0.31075600279E+02 -0.61798033449E+02 -0.19535068526E+03  0.20723556669E+03  0.00000000000E+00 0.  1.
         -1    1    6    6    0  502 -0.66857425534E+02  0.11595854546E+03  0.54424685251E+02  0.14449341154E+03  0.00000000000E+00 0.  1.
<mgrwt>
<rscale>  0 0.13299765E+04</rscale>
<asrwt>0</asrwt>
<pdfrwt beam="1">  1        1 0.76062661E-01 0.13299765E+04</pdfrwt>
<pdfrwt beam="2">  1       -1 0.13760357E+00 0.13299765E+04</pdfrwt>
<totfact> 0.19354101E+01</totfact>
</mgrwt>
</event>
<event>
12    1  0.1556559E-007  0.2182916E+04  0.7818608E-02  0.8525572E-01
          2   -1    0    0  501    0  0.00000000000E+00  0.00000000000E+00  0.12238007252E+04  0.12238007252E+04  0.00000000000E+00 0.  1.
         -2   -1    0    0    0  501 -0.00000000000E+00 -0.00000000000E+00 -0.97342724292E+03  0.97342724292E+03  0.00000000000E+00 0. -1.
         23    2    1    2    0    0 -0.89035690713E+03 -0.12492631775E+03  0.23692676157E+02  0.90404734278E+03  0.91641956202E+02 0.  0.
        254    2    1    2    0    0  0.89035690713E+03  0.12492631775E+03  0.22668080617E+03  0.12931806254E+04  0.90143770447E+03 0.  0.
        -24    2    4    4    0    0  0.17394348179E+03  0.21463262627E+02  0.48384260562E+03  0.52086415430E+03  0.80490954291E+02 0.  0.
         24    2    4    4    0    0  0.71641342534E+03  0.10346305513E+03 -0.25716179945E+03  0.77231647108E+03  0.79923342189E+02 0.  0.
         13    1    3    3    0    0 -0.14186108305E+03 -0.21483420318E+02 -0.29820674295E+02  0.14654479468E+03  0.00000000000E+00 0. -1.
        -13    1    3    3    0    0 -0.74849582408E+03 -0.10344289743E+03  0.53513350451E+02  0.75750254810E+03  0.00000000000E+00 0.  1.
          2    1    6    6  502    0  0.48091763924E+03  0.35440148031E+02 -0.15224596695E+03  0.50568430298E+03  0.00000000000E+00 0. -1.
          3    1    5    5  503    0  0.11571551219E+03 -0.37611032052E+01  0.39546791934E+03  0.41206686458E+03  0.00000000000E+00 0. -1.
         -2    1    5    5    0  503  0.58227969596E+02  0.25224365832E+02  0.88374686277E+02  0.10879728972E+03  0.00000000000E+00 0.  1.
         -1    1    6    6    0  502  0.23549578610E+03  0.68022907094E+02 -0.10491583249E+03  0.26663216811E+03  0.00000000000E+00 0.  1.
<mgrwt>
<rscale>  0 0.21829164E+04</rscale>
<asrwt>0</asrwt>
<pdfrwt beam="1">  1        2 0.18827703E+00 0.21829164E+04</pdfrwt>
<pdfrwt beam="2">  1       -2 0.14975804E+00 0.21829164E+04</pdfrwt>
<totfact> 0.50494583E+00</totfact>
</mgrwt>
</event>
<event>
12    1  0.1556559E-007  0.1338560E+04  0.7818608E-02  0.8999533E-01
         -2   -1    0    0    0  501 -0.00000000000E+00  0.00000000000E+00  0.77438192001E+03  0.77438192001E+03  0.00000000000E+00 0. -1.
          2   -1    0    0  501    0  0.00000000000E+00 -0.00000000000E+00 -0.57844301225E+03  0.57844301225E+03  0.00000000000E+00 0.  1.
         23    2    1    2    0    0 -0.29231394874E+03 -0.21454106473E+03  0.66106203975E+02  0.37952726530E+03  0.90529563240E+02 0.  0.
        254    2    1    2    0    0  0.29231394874E+03  0.21454106473E+03  0.12983270378E+03  0.97329766696E+03  0.89385485648E+03 0.  0.
        -24    2    4    4    0    0  0.30944328145E+03 -0.24616912902E+03  0.26889756946E+03  0.48501430989E+03  0.81108528635E+02 0.  0.
         24    2    4    4    0    0 -0.17129332718E+02  0.46071019375E+03 -0.13906486568E+03  0.48828335707E+03  0.80835037333E+02 0.  0.
         13    1    3    3    0    0 -0.19314618503E+03 -0.16280124367E+03  0.84095336024E+02  0.26623620954E+03  0.00000000000E+00 0. -1.
        -13    1    3    3    0    0 -0.99167763710E+02 -0.51739821060E+02 -0.17989132049E+02  0.11329105576E+03  0.00000000000E+00 0.  1.
          2    1    6    6  502    0  0.25367215023E+02  0.22879851037E+03 -0.91740992053E+02  0.24780771491E+03  0.00000000000E+00 0. -1.
          1    1    5    5  503    0  0.26107962977E+03 -0.23555730239E+03  0.21659988434E+03  0.41299555166E+03  0.00000000000E+00 0. -1.
         -2    1    5    5    0  503  0.48363651686E+02 -0.10611826624E+02  0.52297685119E+02  0.72018758234E+02  0.00000000000E+00 0.  1.
         -1    1    6    6    0  502 -0.42496547741E+02  0.23191168338E+03 -0.47323873632E+02  0.24047564216E+03  0.00000000000E+00 0.  1.
<mgrwt>
<rscale>  0 0.13385601E+04</rscale>
<asrwt>0</asrwt>
<pdfrwt beam="1">  1        2 0.88991232E-01 0.13385601E+04</pdfrwt>
<pdfrwt beam="2">  1       -2 0.11913568E+00 0.13385601E+04</pdfrwt>
<totfact> 0.27388914E+01</totfact>
</mgrwt>
</event>
<event>
12    1  0.1556559E-007  0.2249907E+04  0.7818608E-02  0.8497938E-01
          1   -1    0    0  501    0  0.00000000000E+00  0.00000000000E+00  0.15879625861E+04  0.15879625861E+04  0.00000000000E+00 0. -1.
         -1   -1    0    0    0  501 -0.00000000000E+00 -0.00000000000E+00 -0.79694582010E+03  0.79694582010E+03  0.00000000000E+00 0.  1.
         23    2    1    2    0    0  0.88121643364E+03  0.48857311232E+02  0.68214400096E+03  0.11193215307E+04  0.92902160249E+02 0.  0.
        254    2    1    2    0    0 -0.88121643364E+03 -0.48857311232E+02  0.10887276503E+03  0.12655868754E+04  0.90051508624E+03 0.  0.
        -24    2    4    4    0    0 -0.77475881418E+03 -0.66444474075E+02  0.44791250201E+03  0.90091625959E+03  0.79739632882E+02 0.  0.
         24    2    4    4    0    0 -0.10645761946E+03  0.17587162843E+02 -0.33903973698E+03  0.36467061585E+03  0.79963627791E+02 0.  0.
         13    1    3    3    0    0  0.21711221387E+03 -0.15269586574E+02  0.13186498876E+03  0.25447838601E+03  0.00000000000E+00 0.  1.
        -13    1    3    3    0    0  0.66410421977E+03  0.64126897807E+02  0.55027901220E+03  0.86484314474E+03  0.00000000000E+00 0. -1.
          2    1    6    6  502    0 -0.50412169123E+02 -0.19858337593E+02 -0.77347019323E+02  0.94436760670E+02  0.00000000000E+00 0. -1.
          3    1    5    5  503    0 -0.35927825479E+02 -0.84084530482E+01  0.42078689449E+01  0.37137809404E+02  0.00000000000E+00 0. -1.
         -4    1    5    5    0  503 -0.73883098870E+03 -0.58036021027E+02  0.44370463306E+03  0.86377845019E+03  0.00000000000E+00 0.  1.
         -1    1    6    6    0  502 -0.56045450333E+02  0.37445500436E+02 -0.26169271766E+03  0.27023385518E+03  0.00000000000E+00 0.  1.
<mgrwt>
<rscale>  0 0.22499068E+04</rscale>
<asrwt>0</asrwt>
<pdfrwt beam="1">  1        1 0.24430194E+00 0.22499068E+04</pdfrwt>
<pdfrwt beam="2">  1       -1 0.12260705E+00 0.22499068E+04</pdfrwt>
<totfact> 0.30313924E+00</totfact>
</mgrwt>
</event>
<event>
12    1  0.1556559E-007  0.1316687E+04  0.7818608E-02  0.9016436E-01
          1   -1    0    0  501    0  0.00000000000E+00  0.00000000000E+00  0.93187946887E+03  0.93187946887E+03  0.00000000000E+00 0. -1.
         -1   -1    0    0    0  501 -0.00000000000E+00 -0.00000000000E+00 -0.46509866364E+03  0.46509866364E+03  0.00000000000E+00 0.  1.
         23    2    1    2    0    0 -0.22057999099E+03 -0.23376130384E+03  0.24938740883E+03  0.41671674930E+03  0.90326573434E+02 0.  0.
        254    2    1    2    0    0  0.22057999099E+03  0.23376130384E+03  0.21739339640E+03  0.98026138321E+03  0.90019587369E+03 0.  0.
        -24    2    4    4    0    0  0.40797503334E+03  0.32437792464E+03  0.42290743421E+03  0.67661561314E+03  0.85400961404E+02 0.  0.
         24    2    4    4    0    0 -0.18739504234E+03 -0.90616620805E+02 -0.20551403781E+03  0.30364577007E+03  0.81464471294E+02 0.  0.
         13    1    3    3    0    0 -0.55326861236E+02 -0.76676339567E+02  0.12580920625E+03  0.15737941098E+03  0.00000000000E+00 0. -1.
        -13    1    3    3    0    0 -0.16525312976E+03 -0.15708496427E+03  0.12357820258E+03  0.25933733832E+03  0.00000000000E+00 0.  1.
          4    1    6    6  502    0 -0.21171382140E+02 -0.25491868986E+02 -0.76540336555E+02  0.83405550931E+02  0.00000000000E+00 0. -1.
          3    1    5    5  503    0  0.15339100552E+02  0.10155387468E+00  0.11074322781E+01  0.15379360363E+02  0.00000000000E+00 0. -1.
         -4    1    5    5    0  503  0.39263593279E+03  0.32427637077E+03  0.42180000193E+03  0.66123625277E+03  0.00000000000E+00 0.  1.
         -3    1    6    6    0  502 -0.16622366020E+03 -0.65124751818E+02 -0.12897370126E+03  0.22024021914E+03  0.00000000000E+00 0.  1.
<mgrwt>
<rscale>  0 0.13166866E+04</rscale>
<asrwt>0</asrwt>
<pdfrwt beam="1">  1        1 0.14336607E+00 0.13166866E+04</pdfrwt>
<pdfrwt beam="2">  1       -1 0.71553641E-01 0.13166866E+04</pdfrwt>
<totfact> 0.33174367E+01</totfact>
</mgrwt>
</event>
<event>
12    1  0.1556559E-007  0.1120766E+04  0.7818608E-02  0.9185185E-01
         -1   -1    0    0    0  501 -0.00000000000E+00  0.00000000000E+00  0.49834084526E+03  0.49834084526E+03  0.00000000000E+00 0.  1.
          1   -1    0    0  501    0  0.00000000000E+00 -0.00000000000E+00 -0.63014912032E+03  0.63014912032E+03  0.00000000000E+00 0. -1.
         23    2    1    2    0    0 -0.65738607009E+02  0.16164000622E+03 -0.76010609118E+02  0.20614522919E+03  0.79178196216E+02 0.  0.
        254    2    1    2    0    0  0.65738607009E+02 -0.16164000622E+03 -0.55797665947E+02  0.92234473640E+03  0.90396757529E+03 0.  0.
        -24    2    4    4    0    0 -0.37428994229E+03 -0.21925047785E+03 -0.14469803284E+03  0.46398452168E+03  0.78615410135E+02 0.  0.
         24    2    4    4    0    0  0.44002854930E+03  0.57610471630E+02  0.88900366895E+02  0.45836021472E+03  0.72434249890E+02 0.  0.
         13    1    3    3    0    0 -0.59304593156E+02  0.63508076305E+02 -0.62148427930E+02  0.10683041524E+03  0.00000000000E+00 0. -1.
        -13    1    3    3    0    0 -0.64340138537E+01  0.98131929911E+02 -0.13862181188E+02  0.99314813949E+02  0.00000000000E+00 0.  1.
          2    1    6    6  502    0  0.73615773075E+02  0.36744883405E+02  0.23551831104E+02  0.85581290305E+02  0.00000000000E+00 0. -1.
          1    1    5    5  503    0 -0.95874729852E+02 -0.30958256281E+02 -0.60395319245E+02  0.11746476937E+03  0.00000000000E+00 0. -1.
         -2    1    5    5    0  503 -0.27841521244E+03 -0.18829222157E+03 -0.84302713597E+02  0.34651975231E+03  0.00000000000E+00 0.  1.
         -1    1    6    6    0  502  0.36641277623E+03  0.20865588225E+02  0.65348535791E+02  0.37277892441E+03  0.00000000000E+00 0.  1.
<mgrwt>
<rscale>  0 0.11207659E+04</rscale>
<asrwt>0</asrwt>
<pdfrwt beam="1">  1        1 0.96946019E-01 0.11207659E+04</pdfrwt>
<pdfrwt beam="2">  1       -1 0.76667822E-01 0.11207659E+04</pdfrwt>
<totfact> 0.54193089E+01</totfact>
</mgrwt>
</event>
<event>
12    1  0.1556559E-007  0.1693612E+04  0.7818608E-02  0.8765016E-01
          1   -1    0    0  501    0  0.00000000000E+00  0.00000000000E+00  0.60533261007E+03  0.60533261007E+03  0.00000000000E+00 0. -1.
         -1   -1    0    0    0  501 -0.00000000000E+00 -0.00000000000E+00 -0.11846053927E+04  0.11846053927E+04  0.00000000000E+00 0.  1.
         23    2    1    2    0    0  0.23381942844E+03 -0.28306728312E+03 -0.76543066160E+03  0.85360777980E+03  0.89238624621E+02 0.  0.
        254    2    1    2    0    0 -0.23381942844E+03  0.28306728312E+03  0.18615787900E+03  0.93633022294E+03  0.84098806091E+03 0.  0.
        -24    2    4    4    0    0  0.17867211338E+03 -0.92954842421E+02  0.29152071058E+03  0.36273094550E+03  0.77621435807E+02 0.  0.
         24    2    4    4    0    0 -0.41249154182E+03  0.37602212554E+03 -0.10536283158E+03  0.57359927745E+03  0.79830406693E+02 0.  0.
         11    1    3    3    0    0  0.22122588455E+03 -0.28318588780E+03 -0.75829090140E+03  0.83913063953E+03  0.00000000000E+00 0.  1.
        -11    1    3    3    0    0  0.12593543889E+02  0.11860467737E+00 -0.71397601985E+01  0.14477140271E+02  0.00000000000E+00 0. -1.
          2    1    6    6  502    0 -0.10417567252E+03  0.67851719459E+02 -0.50697644233E+02  0.13426346379E+03  0.00000000000E+00 0. -1.
          1    1    5    5  503    0  0.11191398921E+03 -0.18488050867E+02  0.12777477815E+03  0.17085942449E+03  0.00000000000E+00 0. -1.
         -2    1    5    5    0  503  0.66758124171E+02 -0.74466791554E+02  0.16374593243E+03  0.19187152101E+03  0.00000000000E+00 0.  1.
         -1    1    6    6    0  502 -0.30831586930E+03  0.30817040608E+03 -0.54665187344E+02  0.43933581365E+03  0.00000000000E+00 0.  1.
<mgrwt>
<rscale>  0 0.16936118E+04</rscale>
<asrwt>0</asrwt>
<pdfrwt beam="1">  1        1 0.93128094E-01 0.16936118E+04</pdfrwt>
<pdfrwt beam="2">  1       -1 0.18224698E+00 0.16936118E+04</pdfrwt>
<totfact> 0.64547979E+00</totfact>
</mgrwt>
</event>
<event>
12    1  0.1556559E-007  0.2249400E+04  0.7818608E-02  0.8498143E-01
         -1   -1    0    0    0  501 -0.00000000000E+00  0.00000000000E+00  0.10052560168E+04  0.10052560168E+04  0.00000000000E+00 0.  1.
          1   -1    0    0  501    0  0.00000000000E+00 -0.00000000000E+00 -0.12583365017E+04  0.12583365017E+04  0.00000000000E+00 0. -1.
         23    2    1    2    0    0 -0.36625511240E+03 -0.67276491451E+03 -0.65984573940E+03  0.10132466708E+04  0.67208470520E+02 0.  0.
        254    2    1    2    0    0  0.36625511240E+03  0.67276491451E+03  0.40676525450E+03  0.12503458477E+04  0.90063940005E+03 0.  0.
        -24    2    4    4    0    0 -0.32438214016E+02 -0.17543438809E+03 -0.54303356802E+02  0.20283274740E+03  0.79767202567E+02 0.  0.
         24    2    4    4    0    0  0.39869332642E+03  0.84819930259E+03  0.46106861131E+03  0.10475131003E+04  0.79378872673E+02 0.  0.
         11    1    3    3    0    0 -0.20093812160E+03 -0.41371166040E+03 -0.42832401271E+03  0.62848621825E+03  0.00000000000E+00 0. -1.
        -11    1    3    3    0    0 -0.16531699080E+03 -0.25905325411E+03 -0.23152172669E+03  0.38476045254E+03  0.00000000000E+00 0.  1.
          2    1    6    6  502    0  0.57302262553E+02  0.72002357319E+02  0.56575269472E+02  0.10802152503E+03  0.00000000000E+00 0. -1.
          3    1    5    5  503    0  0.42527627576E+01  0.26522242595E+01 -0.16331272523E+02  0.17083054376E+02  0.00000000000E+00 0. -1.
         -4    1    5    5    0  503 -0.36690976773E+02 -0.17808661234E+03 -0.37972084279E+02  0.18574969302E+03  0.00000000000E+00 0.  1.
         -1    1    6    6    0  502  0.34139106386E+03  0.77619694528E+03  0.40449334183E+03  0.93949157523E+03  0.00000000000E+00 0.  1.
<mgrwt>
<rscale>  0 0.22494002E+04</rscale>
<asrwt>0</asrwt>
<pdfrwt beam="1">  1        1 0.19359023E+00 0.22494002E+04</pdfrwt>
<pdfrwt beam="2">  1       -1 0.15465477E+00 0.22494002E+04</pdfrwt>
<totfact> 0.28251630E+00</totfact>
</mgrwt>
</event>
<event>
12    1  0.1556559E-007  0.2364687E+04  0.7818608E-02  0.8452844E-01
         -2   -1    0    0    0  501 -0.00000000000E+00  0.00000000000E+00  0.12471896191E+04  0.12471896191E+04  0.00000000000E+00 0.  1.
          2   -1    0    0  501    0  0.00000000000E+00 -0.00000000000E+00 -0.11208685865E+04  0.11208685865E+04  0.00000000000E+00 0. -1.
         23    2    1    2    0    0  0.28677765742E+03  0.21646221060E+02  0.10076831829E+04  0.10518706839E+04  0.91085425935E+02 0.  0.
        254    2    1    2    0    0 -0.28677765742E+03 -0.21646221060E+02 -0.88136215032E+03  0.13161875218E+04  0.93425926208E+03 0.  0.
        -24    2    4    4    0    0  0.31040680677E+03  0.14383482034E+03 -0.28003627520E+03  0.44906678440E+03  0.78738936940E+02 0.  0.
         24    2    4    4    0    0 -0.59718446420E+03 -0.16548104140E+03 -0.60132587512E+03  0.86712073737E+03  0.79324055287E+02 0.  0.
         11    1    3    3    0    0  0.45929707916E+02  0.30096841354E+01  0.71587647971E+02  0.85108093680E+02  0.00000000000E+00 0. -1.
        -11    1    3    3    0    0  0.24084794951E+03  0.18636536925E+02  0.93609553493E+03  0.96676259020E+03  0.00000000000E+00 0.  1.
          4    1    6    6  502    0 -0.23127013104E+03 -0.10414669343E+03 -0.23707714945E+03  0.34718580336E+03  0.00000000000E+00 0. -1.
          3    1    5    5  503    0  0.38508661668E+01  0.22516024002E+01  0.53385277897E+01  0.69569219174E+01  0.00000000000E+00 0. -1.
         -4    1    5    5    0  503  0.30655594061E+03  0.14158321794E+03 -0.28537480299E+03  0.44210986249E+03  0.00000000000E+00 0.  1.
         -1    1    6    6    0  502 -0.36591433316E+03 -0.61334347969E+02 -0.36424872567E+03  0.51993493401E+03  0.00000000000E+00 0.  1.
<mgrwt>
<rscale>  0 0.23646866E+04</rscale>
<asrwt>0</asrwt>
<pdfrwt beam="1">  1        2 0.17244132E+00 0.23646866E+04</pdfrwt>
<pdfrwt beam="2">  1       -2 0.19187533E+00 0.23646866E+04</pdfrwt>
<totfact> 0.28720227E+00</totfact>
</mgrwt>
</event>
<event>
12    1  0.1556559E-007  0.2433559E+04  0.7818608E-02  0.8427045E-01
          2   -1    0    0  501    0  0.00000000000E+00  0.00000000000E+00  0.23124223547E+04  0.23124223547E+04  0.00000000000E+00 0. -1.
         -2   -1    0    0    0  501 -0.00000000000E+00 -0.00000000000E+00 -0.64026029043E+03  0.64026029043E+03  0.00000000000E+00 0.  1.
         23    2    1    2    0    0 -0.89731604286E+03  0.34497213898E+03  0.22371794461E+03  0.99127723691E+03  0.91645972202E+02 0.  0.
        254    2    1    2    0    0  0.89731604286E+03 -0.34497213898E+03  0.14484441197E+04  0.19614054082E+04  0.90826149880E+03 0.  0.
        -24    2    4    4    0    0  0.13708383418E+03 -0.49779097372E+03  0.41621746873E+03  0.66793353689E+03  0.79438009189E+02 0.  0.
         24    2    4    4    0    0  0.76023220868E+03  0.15281883474E+03  0.10322266509E+04  0.12934718713E+04  0.79189744939E+02 0.  0.
         13    1    3    3    0    0 -0.66943146423E+03  0.22135731044E+03  0.18683447367E+03  0.72941391866E+03  0.00000000000E+00 0.  1.
        -13    1    3    3    0    0 -0.22788457863E+03  0.12361482854E+03  0.36883470934E+02  0.26186331824E+03  0.00000000000E+00 0. -1.
          4    1    6    6  502    0  0.23121920375E+02 -0.88477406084E+01  0.36244372879E+02  0.43892599389E+02  0.00000000000E+00 0. -1.
          1    1    5    5  503    0  0.31288316765E+02 -0.54971557155E+02  0.79881206057E+02  0.10189130455E+03  0.00000000000E+00 0. -1.
         -2    1    5    5    0  503  0.10579551742E+03 -0.44281941657E+03  0.33633626268E+03  0.56604223234E+03  0.00000000000E+00 0.  1.
         -3    1    6    6    0  502  0.73711028831E+03  0.16166657535E+03  0.99598227805E+03  0.12495792720E+04  0.00000000000E+00 0.  1.
<mgrwt>
<rscale>  0 0.24335589E+04</rscale>
<asrwt>0</asrwt>
<pdfrwt beam="1">  1        2 0.35575728E+00 0.24335589E+04</pdfrwt>
<pdfrwt beam="2">  1       -2 0.98501584E-01 0.24335589E+04</pdfrwt>
<totfact> 0.34236318E+00</totfact>
</mgrwt>
</event>
<event>
12    1  0.2220422E-007  0.2060388E+04  0.7818608E-02  0.8578896E-01
          1   -1    0    0  501    0  0.00000000000E+00  0.00000000000E+00  0.12614791133E+04  0.12614791133E+04  0.00000000000E+00 0. -1.
         -1   -1    0    0    0  501 -0.00000000000E+00 -0.00000000000E+00 -0.84131411785E+03  0.84131411785E+03  0.00000000000E+00 0.  1.
         23    2    1    2    0    0 -0.48779370790E+03 -0.52341058131E+03 -0.25185310646E+03  0.76386116867E+03  0.90291525967E+02 0.  0.
        254    2    1    2    0    0  0.48779370790E+03  0.52341058131E+03  0.67201810187E+03  0.13389320624E+04  0.91062033827E+03 0.  0.
        -24    2    4    4    0    0 -0.17289993346E+02 -0.12615326601E+03 -0.12146212478E+03  0.19302887045E+03  0.79331624689E+02 0.  0.
         24    2    4    4    0    0  0.50508370125E+03  0.64956384732E+03  0.79348022665E+03  0.11459031920E+04  0.80252839789E+02 0.  0.
         13    1    3    3    0    0 -0.39758882417E+02 -0.41200903960E+02  0.46003063489E+01  0.57440804632E+02  0.00000000000E+00 0. -1.
        -13    1    3    3    0    0 -0.44803482549E+03 -0.48220967735E+03 -0.25645341281E+03  0.70642036404E+03  0.00000000000E+00 0.  1.
          2    1    6    6  502    0  0.42171054942E+02  0.85091101033E+02  0.11649425434E+03  0.15029905071E+03  0.00000000000E+00 0. -1.
          3    1    5    5  503    0  0.65735215598E+00  0.46467117375E+01 -0.34769366799E+02  0.35084653474E+02  0.00000000000E+00 0. -1.
         -4    1    5    5    0  503 -0.17947345502E+02 -0.13079997775E+03 -0.86692757984E+02  0.15794421698E+03  0.00000000000E+00 0.  1.
         -1    1    6    6    0  502  0.46291264631E+03  0.56447274629E+03  0.67698597231E+03  0.99560414128E+03  0.00000000000E+00 0.  1.
<mgrwt>
<rscale>  0 0.20603885E+04</rscale>
<asrwt>0</asrwt>
<pdfrwt beam="1">  1        1 0.19407371E+00 0.20603885E+04</pdfrwt>
<pdfrwt beam="2">  1       -1 0.12943294E+00 0.20603885E+04</pdfrwt>
<totfact> 0.45625417E+00</totfact>
</mgrwt>
</event>
<event>
12    1  0.1556559E-007  0.1543574E+04  0.7818608E-02  0.8855983E-01
         -1   -1    0    0    0  501 -0.00000000000E+00  0.00000000000E+00  0.12962442399E+04  0.12962442399E+04  0.00000000000E+00 0.  1.
          1   -1    0    0  501    0  0.00000000000E+00 -0.00000000000E+00 -0.45952410975E+03  0.45952410975E+03  0.00000000000E+00 0. -1.
         23    2    1    2    0    0  0.28892208634E+03 -0.34498942735E+03  0.54724505982E+03  0.71406077657E+03  0.88949200011E+02 0.  0.
        254    2    1    2    0    0 -0.28892208634E+03  0.34498942735E+03  0.28947507036E+03  0.10417075731E+04  0.89379257915E+03 0.  0.
        -24    2    4    4    0    0  0.61577088879E+02  0.40019375780E+03 -0.17797454849E+03  0.44926132293E+03  0.78829022019E+02 0.  0.
         24    2    4    4    0    0 -0.35049917522E+03 -0.55204330455E+02  0.46744961884E+03  0.59244625017E+03  0.81155549744E+02 0.  0.
         11    1    3    3    0    0  0.19114698730E+03 -0.26706694280E+03  0.44183690526E+03  0.55052863099E+03  0.00000000000E+00 0.  1.
        -11    1    3    3    0    0  0.97775099039E+02 -0.77922484549E+02  0.10540815456E+03  0.16353214558E+03  0.00000000000E+00 0. -1.
          4    1    6    6  502    0 -0.32473589086E+03 -0.60026652483E+02  0.39194004719E+03  0.51251692500E+03  0.00000000000E+00 0. -1.
          3    1    5    5  503    0  0.58746860610E+02  0.39258234748E+03 -0.18552900189E+03  0.43817017667E+03  0.00000000000E+00 0. -1.
         -4    1    5    5    0  503  0.28302282682E+01  0.76114103266E+01  0.75544533994E+01  0.11091146261E+02  0.00000000000E+00 0.  1.
         -3    1    6    6    0  502 -0.25763284359E+02  0.48223220277E+01  0.75509571657E+02  0.79929325172E+02  0.00000000000E+00 0.  1.
<mgrwt>
<rscale>  0 0.15435744E+04</rscale>
<asrwt>0</asrwt>
<pdfrwt beam="1">  1        1 0.70696017E-01 0.15435744E+04</pdfrwt>
<pdfrwt beam="2">  1       -1 0.19942219E+00 0.15435744E+04</pdfrwt>
<totfact> 0.72854291E+00</totfact>
</mgrwt>
</event>
<event>
12    1  0.1556559E-007  0.1186609E+04  0.7818608E-02  0.9124659E-01
          1   -1    0    0  501    0  0.00000000000E+00  0.00000000000E+00  0.28550127309E+03  0.28550127309E+03  0.00000000000E+00 0. -1.
         -1   -1    0    0    0  501 -0.00000000000E+00 -0.00000000000E+00 -0.12329556260E+04  0.12329556260E+04  0.00000000000E+00 0.  1.
         23    2    1    2    0    0  0.11098346438E+02  0.24959011646E+03 -0.38027270673E+03  0.46358063468E+03  0.88776538759E+02 0.  0.
        254    2    1    2    0    0 -0.11098346438E+02 -0.24959011646E+03 -0.56718164615E+03  0.10548762644E+04  0.85361028222E+03 0.  0.
        -24    2    4    4    0    0 -0.34600632818E+02 -0.11653935643E+03  0.21361078130E+03  0.25825034506E+03  0.79278303769E+02 0.  0.
         24    2    4    4    0    0  0.23502286380E+02 -0.13305076003E+03 -0.78079242745E+03  0.79662591932E+03  0.81982793084E+02 0.  0.
         13    1    3    3    0    0  0.11754746867E+01  0.19968576585E+03 -0.35370427704E+03  0.40618038163E+03  0.00000000000E+00 0.  1.
        -13    1    3    3    0    0  0.99228717509E+01  0.49904350610E+02 -0.26568429689E+02  0.57400253046E+02  0.00000000000E+00 0. -1.
          2    1    6    6  502    0  0.12300005504E+02 -0.13991045434E+03 -0.64041563231E+03  0.65563588026E+03  0.00000000000E+00 0. -1.
          1    1    5    5  503    0 -0.41273577964E+02 -0.11182301096E+03  0.21837743244E+03  0.24879026713E+03  0.00000000000E+00 0. -1.
         -2    1    5    5    0  503  0.66729451458E+01 -0.47163454715E+01 -0.47666511372E+01  0.94600779378E+01  0.00000000000E+00 0.  1.
         -1    1    6    6    0  502  0.11202280876E+02  0.68596943064E+01 -0.14037679513E+03  0.14099003906E+03  0.00000000000E+00 0.  1.
<mgrwt>
<rscale>  0 0.11866093E+04</rscale>
<asrwt>0</asrwt>
<pdfrwt beam="1">  1        1 0.43923273E-01 0.11866093E+04</pdfrwt>
<pdfrwt beam="2">  1       -1 0.18968548E+00 0.11866093E+04</pdfrwt>
<totfact> 0.16459359E+01</totfact>
</mgrwt>
</event>
<event>
12    1  0.1556559E-007  0.1704330E+04  0.7818608E-02  0.8758898E-01
          2   -1    0    0  501    0  0.00000000000E+00  0.00000000000E+00  0.74099580442E+03  0.74099580442E+03  0.00000000000E+00 0. -1.
         -2   -1    0    0    0  501 -0.00000000000E+00 -0.00000000000E+00 -0.98001296059E+03  0.98001296059E+03  0.00000000000E+00 0.  1.
         23    2    1    2    0    0 -0.36302401328E+01 -0.25984027324E+02 -0.70772939971E+03  0.71404983444E+03  0.91092889576E+02 0.  0.
        254    2    1    2    0    0  0.36302401328E+01  0.25984027324E+02  0.46871224354E+03  0.10069589306E+04  0.89083487375E+03 0.  0.
        -24    2    4    4    0    0 -0.74490269724E+02 -0.39186456727E+03  0.57912197499E+02  0.41045682898E+03  0.77552217725E+02 0.  0.
         24    2    4    4    0    0  0.78120509857E+02  0.41784859459E+03  0.41080004604E+03  0.59650210158E+03  0.79735922311E+02 0.  0.
         13    1    3    3    0    0 -0.17880588310E+02  0.16975042202E+02 -0.61798218455E+02  0.66534857783E+02  0.00000000000E+00 0. -1.
        -13    1    3    3    0    0  0.14250348177E+02 -0.42959069526E+02 -0.64593118125E+03  0.64751497665E+03  0.00000000000E+00 0.  1.
          2    1    6    6  502    0  0.27925152245E+02  0.57122632108E+02  0.95773930935E+02  0.11495849283E+03  0.00000000000E+00 0. -1.
          1    1    5    5  503    0 -0.95884664209E+01 -0.13323667841E+02  0.17941955491E+02  0.24318153300E+02  0.00000000000E+00 0. -1.
         -2    1    5    5    0  503 -0.64901803303E+02 -0.37854089943E+03  0.39970242007E+02  0.38613867568E+03  0.00000000000E+00 0.  1.
         -1    1    6    6    0  502  0.50195357611E+02  0.36072596248E+03  0.31502611510E+03  0.48154360875E+03  0.00000000000E+00 0.  1.
<mgrwt>
<rscale>  0 0.17043304E+04</rscale>
<asrwt>0</asrwt>
<pdfrwt beam="1">  1        2 0.11399935E+00 0.17043304E+04</pdfrwt>
<pdfrwt beam="2">  1       -2 0.15077122E+00 0.17043304E+04</pdfrwt>
<totfact> 0.10704220E+01</totfact>
</mgrwt>
</event>
<event>
12    1  0.1556559E-007  0.1865244E+04  0.7818608E-02  0.8672353E-01
         -1   -1    0    0    0  501 -0.00000000000E+00  0.00000000000E+00  0.25154084344E+04  0.25154084344E+04  0.00000000000E+00 0.  1.
          1   -1    0    0  501    0  0.00000000000E+00 -0.00000000000E+00 -0.34578218541E+03  0.34578218541E+03  0.00000000000E+00 0. -1.
         23    2    1    2    0    0 -0.38814698663E+02 -0.42712350762E+03 -0.36559145189E+02  0.43937919939E+03  0.88184115174E+02 0.  0.
        254    2    1    2    0    0  0.38814698663E+02  0.42712350762E+03  0.22061853942E+04  0.24218114204E+04  0.90220590278E+03 0.  0.
        -24    2    4    4    0    0  0.25246135650E+03  0.60312252974E+03  0.18479169075E+04  0.19616188346E+04  0.75219894277E+02 0.  0.
         24    2    4    4    0    0 -0.21364665784E+03 -0.17599902212E+03  0.35826848664E+03  0.46019258587E+03  0.82464279402E+02 0.  0.
         11    1    3    3    0    0 -0.40944148820E+02 -0.42941751255E+03 -0.30356914042E+02  0.43243192023E+03  0.00000000000E+00 0. -1.
        -11    1    3    3    0    0  0.21294501573E+01  0.22940049264E+01 -0.62022311466E+01  0.69472791631E+01  0.00000000000E+00 0.  1.
          2    1    6    6  502    0 -0.17933541710E+03 -0.12345763964E+03  0.22611199828E+03  0.31389427580E+03  0.00000000000E+00 0. -1.
          1    1    5    5  503    0  0.23751554352E+03  0.49908809227E+03  0.15297464267E+04  0.16265382526E+04  0.00000000000E+00 0. -1.
         -2    1    5    5    0  503  0.14945812975E+02  0.10403443747E+03  0.31817048083E+03  0.33508058191E+03  0.00000000000E+00 0.  1.
         -1    1    6    6    0  502 -0.34311240734E+02 -0.52541382478E+02  0.13215648836E+03  0.14629831007E+03  0.00000000000E+00 0.  1.
<mgrwt>
<rscale>  0 0.18652436E+04</rscale>
<asrwt>0</asrwt>
<pdfrwt beam="1">  1        1 0.53197261E-01 0.18652436E+04</pdfrwt>
<pdfrwt beam="2">  1       -1 0.38698590E+00 0.18652436E+04</pdfrwt>
<totfact> 0.60073500E-01</totfact>
</mgrwt>
</event>
<event>
12    1  0.1556559E-007  0.2538967E+04  0.7818608E-02  0.8389233E-01
         -2   -1    0    0    0  501 -0.00000000000E+00  0.00000000000E+00  0.44543761433E+03  0.44543761433E+03  0.00000000000E+00 0.  1.
          2   -1    0    0  501    0  0.00000000000E+00 -0.00000000000E+00 -0.36179891319E+04  0.36179891319E+04  0.00000000000E+00 0. -1.
         23    2    1    2    0    0  0.80093959235E+03 -0.73027177876E+03 -0.13405546254E+04  0.17263521069E+04  0.91672197900E+02 0.  0.
        254    2    1    2    0    0 -0.80093959235E+03  0.73027177876E+03 -0.18319968921E+04  0.23370746393E+04  0.96483374495E+03 0.  0.
        -24    2    4    4    0    0 -0.63618358849E+03  0.83587580418E+03 -0.18446938251E+04  0.21243357361E+04  0.80554904843E+02 0.  0.
         24    2    4    4    0    0 -0.16475600385E+03 -0.10560402542E+03  0.12696933065E+02  0.21273890319E+03  0.82461371734E+02 0.  0.
         13    1    3    3    0    0  0.25949483253E+03 -0.29619764878E+03 -0.48451427843E+03  0.62435943274E+03  0.00000000000E+00 0. -1.
        -13    1    3    3    0    0  0.54144475982E+03 -0.43407412998E+03 -0.85604034702E+03  0.11019926742E+04  0.00000000000E+00 0.  1.
          2    1    6    6  502    0 -0.46268469454E+02 -0.89638227702E+01  0.34341964603E+02  0.58313736950E+02  0.00000000000E+00 0. -1.
          3    1    5    5  503    0 -0.44136929923E+03  0.53575284743E+03 -0.12712663497E+04  0.14484322917E+04  0.00000000000E+00 0. -1.
         -4    1    5    5    0  503 -0.19481428926E+03  0.30012295676E+03 -0.57342747546E+03  0.67590344435E+03  0.00000000000E+00 0.  1.
         -1    1    6    6    0  502 -0.11848753440E+03 -0.96640202654E+02 -0.21645031538E+02  0.15442516624E+03  0.00000000000E+00 0.  1.
<mgrwt>
<rscale>  0 0.25389671E+04</rscale>
<asrwt>0</asrwt>
<pdfrwt beam="1">  1        2 0.55661373E+00 0.25389671E+04</pdfrwt>
<pdfrwt beam="2">  1       -2 0.68528861E-01 0.25389671E+04</pdfrwt>
<totfact> 0.11615913E+00</totfact>
</mgrwt>
</event>
<event>
12    1  0.1556559E-007  0.1856146E+04  0.7818608E-02  0.8676998E-01
         -2   -1    0    0    0  501 -0.00000000000E+00  0.00000000000E+00  0.10922949982E+04  0.10922949982E+04  0.00000000000E+00 0.  1.
          2   -1    0    0  501    0  0.00000000000E+00 -0.00000000000E+00 -0.78854148622E+03  0.78854148622E+03  0.00000000000E+00 0. -1.
         23    2    1    2    0    0  0.44015194350E+03 -0.53986939916E+03  0.26049930554E+03  0.74921613063E+03  0.90951749295E+02 0.  0.
        254    2    1    2    0    0 -0.44015194350E+03  0.53986939916E+03  0.43254206487E+02  0.11316203538E+04  0.89078672942E+03 0.  0.
        -24    2    4    4    0    0 -0.90248111014E+02 -0.22665655669E+03 -0.94122937652E+02  0.27411663304E+03  0.82236761149E+02 0.  0.
         24    2    4    4    0    0 -0.34990383248E+03  0.76652595584E+03  0.13737714414E+03  0.85750372079E+03  0.80283363601E+02 0.  0.
         11    1    3    3    0    0  0.38874560687E+03 -0.47762912936E+03  0.19721516848E+03  0.64664252470E+03  0.00000000000E+00 0.  1.
        -11    1    3    3    0    0  0.51406336626E+02 -0.62240269799E+02  0.63284137060E+02  0.10257360593E+03  0.00000000000E+00 0. -1.
          4    1    6    6  502    0 -0.10893726646E+03  0.17470256715E+03  0.11361089693E+02  0.20619745234E+03  0.00000000000E+00 0. -1.
          3    1    5    5  503    0 -0.60906956770E+01 -0.59105742198E+01 -0.27321878032E+02  0.28609727028E+02  0.00000000000E+00 0. -1.
         -4    1    5    5    0  503 -0.84157415337E+02 -0.22074598247E+03 -0.66801059620E+02  0.24550690601E+03  0.00000000000E+00 0.  1.
         -3    1    6    6    0  502 -0.24096656603E+03  0.59182338870E+03  0.12601605445E+03  0.65130626846E+03  0.00000000000E+00 0.  1.
<mgrwt>
<rscale>  0 0.18561465E+04</rscale>
<asrwt>0</asrwt>
<pdfrwt beam="1">  1        2 0.12131407E+00 0.18561465E+04</pdfrwt>
<pdfrwt beam="2">  1       -2 0.16804538E+00 0.18561465E+04</pdfrwt>
<totfact> 0.72597803E+00</totfact>
</mgrwt>
</event>
<event>
12    1  0.1556559E-007  0.1394596E+04  0.7818608E-02  0.8957739E-01
          2   -1    0    0  501    0  0.00000000000E+00  0.00000000000E+00  0.60235246118E+03  0.60235246118E+03  0.00000000000E+00 0. -1.
         -2   -1    0    0    0  501 -0.00000000000E+00 -0.00000000000E+00 -0.80720971136E+03  0.80720971136E+03  0.00000000000E+00 0.  1.
         23    2    1    2    0    0  0.11900572671E+03 -0.28728704834E+03  0.19970383948E+03  0.38062053286E+03  0.91072253735E+02 0.  0.
        254    2    1    2    0    0 -0.11900572671E+03  0.28728704834E+03 -0.40456108966E+03  0.10289416397E+04  0.89350714125E+03 0.  0.
        -24    2    4    4    0    0 -0.23246933325E+03  0.57093742434E+03 -0.32643167593E+03  0.70198198425E+03  0.78800594824E+02 0.  0.
         24    2    4    4    0    0  0.11346360653E+03 -0.28365037600E+03 -0.78129413725E+02  0.32695965543E+03  0.86411140338E+02 0.  0.
         11    1    3    3    0    0  0.13063186040E+03 -0.24813545326E+03  0.18974082290E+03  0.33858154999E+03  0.00000000000E+00 0. -1.
        -11    1    3    3    0    0 -0.11626133690E+02 -0.39151595079E+02  0.99630165759E+01  0.42038982874E+02  0.00000000000E+00 0.  1.
          2    1    6    6  502    0  0.72790593513E+02 -0.18995837306E+03 -0.90018449561E+01  0.20362634213E+03  0.00000000000E+00 0. -1.
          1    1    5    5  503    0 -0.22727369868E+03  0.54138867098E+03 -0.32680106933E+03  0.67197765297E+03  0.00000000000E+00 0. -1.
         -2    1    5    5    0  503 -0.51956345667E+01  0.29548753365E+02  0.36939340320E+00  0.30004331278E+02  0.00000000000E+00 0.  1.
         -1    1    6    6    0  502  0.40673013018E+02 -0.93692002946E+02 -0.69127568769E+02  0.12333331329E+03  0.00000000000E+00 0.  1.
<mgrwt>
<rscale>  0 0.13945964E+04</rscale>
<asrwt>0</asrwt>
<pdfrwt beam="1">  1        2 0.92669610E-01 0.13945964E+04</pdfrwt>
<pdfrwt beam="2">  1       -2 0.12418611E+00 0.13945964E+04</pdfrwt>
<totfact> 0.23419246E+01</totfact>
</mgrwt>
</event>
<event>
12    1  0.1556559E-007  0.2478287E+04  0.7818608E-02  0.8410762E-01
         -2   -1    0    0    0  501 -0.00000000000E+00  0.00000000000E+00  0.80361493563E+03  0.80361493563E+03  0.00000000000E+00 0.  1.
          2   -1    0    0  501    0  0.00000000000E+00 -0.00000000000E+00 -0.19107114714E+04  0.19107114714E+04  0.00000000000E+00 0. -1.
         23    2    1    2    0    0  0.53554006458E+03 -0.47398691054E+03 -0.13490856543E+04  0.15296675793E+04  0.91564449242E+02 0.  0.
        254    2    1    2    0    0 -0.53554006458E+03  0.47398691054E+03  0.24198911849E+03  0.11846588278E+04  0.91290254279E+03 0.  0.
        -24    2    4    4    0    0 -0.28984686698E+03  0.73279341591E+03  0.13286365321E+03  0.80318215119E+03  0.80320737975E+02 0.  0.
         24    2    4    4    0    0 -0.24569319760E+03 -0.25880650537E+03  0.10912546528E+03  0.38147667659E+03  0.79184171625E+02 0.  0.
         11    1    3    3    0    0  0.23321290407E+02 -0.25900747928E+01 -0.29190153372E+02  0.37452051047E+02  0.00000000000E+00 0.  1.
        -11    1    3    3    0    0  0.51221877418E+03 -0.47139683574E+03 -0.13198955009E+04  0.14922155282E+04  0.00000000000E+00 0. -1.
          4    1    6    6  502    0 -0.21190975475E+03 -0.19533366386E+03  0.11277121666E+03  0.30948074529E+03  0.00000000000E+00 0. -1.
          1    1    5    5  503    0 -0.17400695540E+03  0.38728228694E+03  0.35916525898E+02  0.42609387128E+03  0.00000000000E+00 0. -1.
         -2    1    5    5    0  503 -0.11583991159E+03  0.34551112897E+03  0.96947127312E+02  0.37708827992E+03  0.00000000000E+00 0.  1.
         -3    1    6    6    0  502 -0.33783442850E+02 -0.63472841515E+02 -0.36457513825E+01  0.71995931301E+02  0.00000000000E+00 0.  1.
<mgrwt>
<rscale>  0 0.24782867E+04</rscale>
<asrwt>0</asrwt>
<pdfrwt beam="1">  1        2 0.29395561E+00 0.24782867E+04</pdfrwt>
<pdfrwt beam="2">  1       -2 0.12363307E+00 0.24782867E+04</pdfrwt>
<totfact> 0.32987283E+00</totfact>
</mgrwt>
</event>
<event>
12    1  0.1556559E-007  0.1358753E+04  0.7818608E-02  0.8984229E-01
          1   -1    0    0  501    0  0.00000000000E+00  0.00000000000E+00  0.11381120200E+04  0.11381120200E+04  0.00000000000E+00 0. -1.
         -1   -1    0    0    0  501 -0.00000000000E+00 -0.00000000000E+00 -0.40554220129E+03  0.40554220129E+03  0.00000000000E+00 0.  1.
         23    2    1    2    0    0 -0.13134622636E+03 -0.20378047623E+03 -0.11970868025E+03  0.28353969681E+03  0.85359696979E+02 0.  0.
        254    2    1    2    0    0  0.13134622636E+03  0.20378047623E+03  0.85227849894E+03  0.12601145245E+04  0.89595293478E+03 0.  0.
        -24    2    4    4    0    0  0.40482399434E+03  0.23736064352E+03  0.84827907659E+03  0.97253304659E+03  0.77592483220E+02 0.  0.
         24    2    4    4    0    0 -0.27347776798E+03 -0.33580167293E+02  0.39994223574E+01  0.28758147788E+03  0.82276326011E+02 0.  0.
         13    1    3    3    0    0 -0.38902081248E+02 -0.25500403056E+02  0.55662496382E+01  0.46846831445E+02  0.00000000000E+00 0. -1.
        -13    1    3    3    0    0 -0.92444145115E+02 -0.17828007317E+03 -0.12527492988E+03  0.23669286536E+03  0.00000000000E+00 0.  1.
          2    1    6    6  502    0 -0.32886446616E+02 -0.14893670686E+02 -0.25884304343E+02  0.44422258035E+02  0.00000000000E+00 0. -1.
          3    1    5    5  503    0  0.20307906921E+02 -0.38095530731E+01  0.52356539289E+02  0.56286152688E+02  0.00000000000E+00 0. -1.
         -4    1    5    5    0  503  0.38451608742E+03  0.24117019660E+03  0.79592253730E+03  0.91624689391E+03  0.00000000000E+00 0.  1.
         -1    1    6    6    0  502 -0.24059132137E+03 -0.18686496607E+02  0.29883726701E+02  0.24315921984E+03  0.00000000000E+00 0.  1.
<mgrwt>
<rscale>  0 0.13587530E+04</rscale>
<asrwt>0</asrwt>
<pdfrwt beam="1">  1        1 0.17509416E+00 0.13587530E+04</pdfrwt>
<pdfrwt beam="2">  1       -1 0.62391108E-01 0.13587530E+04</pdfrwt>
<totfact> 0.30258208E+01</totfact>
</mgrwt>
</event>
<event>
12    1  0.1556559E-007  0.2107720E+04  0.7818608E-02  0.8557850E-01
          2   -1    0    0  501    0  0.00000000000E+00  0.00000000000E+00  0.17953550697E+04  0.17953550697E+04  0.00000000000E+00 0. -1.
         -2   -1    0    0    0  501 -0.00000000000E+00 -0.00000000000E+00 -0.61860798339E+03  0.61860798339E+03  0.00000000000E+00 0.  1.
         23    2    1    2    0    0  0.73622357804E+02 -0.26763248127E+03 -0.44855336639E+03  0.53512505208E+03  0.90062768464E+02 0.  0.
        254    2    1    2    0    0 -0.73622357804E+02  0.26763248127E+03  0.16253004527E+04  0.18788380010E+04  0.90076815878E+03 0.  0.
        -24    2    4    4    0    0  0.20190406745E+03  0.24921815291E+03  0.15466855857E+04  0.15816142382E+04  0.79952219138E+02 0.  0.
         24    2    4    4    0    0 -0.27552642525E+03  0.18414328361E+02  0.78614866984E+02  0.29722376277E+03  0.76862014964E+02 0.  0.
         13    1    3    3    0    0  0.67631439903E+02 -0.27447555461E+03 -0.43604788590E+03  0.51966200606E+03  0.00000000000E+00 0.  1.
        -13    1    3    3    0    0  0.59909179011E+01  0.68430733379E+01 -0.12505480485E+02  0.15463046019E+02  0.00000000000E+00 0. -1.
          2    1    6    6  502    0 -0.14427021695E+03 -0.22078997988E+02  0.63042325472E+02  0.15898337162E+03  0.00000000000E+00 0. -1.
          3    1    5    5  503    0  0.19137347755E+03  0.22924212512E+03  0.15036240420E+04  0.15329908739E+04  0.00000000000E+00 0. -1.
         -4    1    5    5    0  503  0.10530589900E+02  0.19976027797E+02  0.43061543666E+02  0.48623364272E+02  0.00000000000E+00 0.  1.
         -1    1    6    6    0  502 -0.13125620830E+03  0.40493326348E+02  0.15572541512E+02  0.13824039115E+03  0.00000000000E+00 0.  1.
<mgrwt>
<rscale>  0 0.21077201E+04</rscale>
<asrwt>0</asrwt>
<pdfrwt beam="1">  1        2 0.27620847E+00 0.21077201E+04</pdfrwt>
<pdfrwt beam="2">  1       -2 0.95170460E-01 0.21077201E+04</pdfrwt>
<totfact> 0.74193785E+00</totfact>
</mgrwt>
</event>
<event>
12    1  0.1556559E-007  0.2065526E+04  0.7818608E-02  0.8576584E-01
         -2   -1    0    0    0  501 -0.00000000000E+00  0.00000000000E+00  0.12923755436E+04  0.12923755436E+04  0.00000000000E+00 0.  1.
          2   -1    0    0  501    0  0.00000000000E+00 -0.00000000000E+00 -0.82530113506E+03  0.82530113506E+03  0.00000000000E+00 0. -1.
         23    2    1    2    0    0 -0.45163880722E+03 -0.69660297082E+03  0.24793981960E+03  0.87101638427E+03  0.89230467764E+02 0.  0.
        254    2    1    2    0    0  0.45163880722E+03  0.69660297082E+03  0.21913458899E+03  0.12466602944E+04  0.90382996769E+03 0.  0.
        -24    2    4    4    0    0 -0.11114811972E+03  0.17990640976E+02 -0.21830397554E+03  0.25915084953E+03  0.82613372983E+02 0.  0.
         24    2    4    4    0    0  0.56278692693E+03  0.67861232985E+03  0.43743856453E+03  0.98750944491E+03  0.81108487259E+02 0.  0.
         13    1    3    3    0    0 -0.43114933227E+03 -0.62669302276E+03  0.21136135774E+03  0.78949826791E+03  0.00000000000E+00 0. -1.
        -13    1    3    3    0    0 -0.20489474947E+02 -0.69909948066E+02  0.36578461868E+02  0.81518116359E+02  0.00000000000E+00 0.  1.
          4    1    6    6  502    0  0.53520268310E+03  0.62093244816E+03  0.42076439525E+03  0.92143458449E+03  0.00000000000E+00 0. -1.
          3    1    5    5  503    0 -0.10008193115E+03  0.23518257707E+02 -0.22328448518E+03  0.24581591224E+03  0.00000000000E+00 0. -1.
         -4    1    5    5    0  503 -0.11066188563E+02 -0.55276167313E+01  0.49805096441E+01  0.13334937283E+02  0.00000000000E+00 0.  1.
         -3    1    6    6    0  502  0.27584243831E+02  0.57679881685E+02  0.16674169279E+02  0.66074860424E+02  0.00000000000E+00 0.  1.
<mgrwt>
<rscale>  0 0.20655256E+04</rscale>
<asrwt>0</asrwt>
<pdfrwt beam="1">  1        2 0.12696941E+00 0.20655256E+04</pdfrwt>
<pdfrwt beam="2">  1       -2 0.19882701E+00 0.20655256E+04</pdfrwt>
<totfact> 0.41314317E+00</totfact>
</mgrwt>
</event>
<event>
12    1  0.1556559E-007  0.2142824E+04  0.7818608E-02  0.8542610E-01
          2   -1    0    0  501    0  0.00000000000E+00  0.00000000000E+00  0.13813998722E+04  0.13813998722E+04  0.00000000000E+00 0. -1.
         -2   -1    0    0    0  501 -0.00000000000E+00 -0.00000000000E+00 -0.83098594906E+03  0.83098594906E+03  0.00000000000E+00 0.  1.
         23    2    1    2    0    0 -0.22427818661E+03  0.84667019144E+03  0.23228553071E+03  0.91083118808E+03  0.92226717093E+02 0.  0.
        254    2    1    2    0    0  0.22427818661E+03 -0.84667019144E+03  0.31812839241E+03  0.13015546331E+04  0.90867357778E+03 0.  0.
        -24    2    4    4    0    0 -0.74980557902E+02 -0.89424591267E+03  0.38808388596E+03  0.98069982449E+03  0.76584638305E+02 0.  0.
         24    2    4    4    0    0  0.29925874451E+03  0.47575721233E+02 -0.69955493555E+02  0.32085480865E+03  0.78960697426E+02 0.  0.
         13    1    3    3    0    0 -0.16933185802E+03  0.60104159252E+03  0.20704653579E+03  0.65786969992E+03  0.00000000000E+00 0.  1.
        -13    1    3    3    0    0 -0.54946328595E+02  0.24562859891E+03  0.25238994914E+02  0.25296148817E+03  0.00000000000E+00 0. -1.
          2    1    6    6  502    0  0.15906036117E+03  0.58852489255E+01 -0.10539323713E+01  0.15917269057E+03  0.00000000000E+00 0. -1.
          1    1    5    5  503    0 -0.11657575206E+02 -0.10716294406E+03  0.20582879965E+02  0.10974265618E+03  0.00000000000E+00 0. -1.
         -2    1    5    5    0  503 -0.63322982696E+02 -0.78708296862E+03  0.36750100600E+03  0.87095716831E+03  0.00000000000E+00 0.  1.
         -1    1    6    6    0  502  0.14019838334E+03  0.41690472308E+02 -0.68901561184E+02  0.16168211808E+03  0.00000000000E+00 0.  1.
<mgrwt>
<rscale>  0 0.21428242E+04</rscale>
<asrwt>0</asrwt>
<pdfrwt beam="1">  1        2 0.21252306E+00 0.21428242E+04</pdfrwt>
<pdfrwt beam="2">  1       -2 0.12784399E+00 0.21428242E+04</pdfrwt>
<totfact> 0.61717276E+00</totfact>
</mgrwt>
</event>
<event>
12    1  0.1556559E-007  0.2358037E+04  0.7818608E-02  0.8455383E-01
         -1   -1    0    0    0  501 -0.00000000000E+00  0.00000000000E+00  0.30845563181E+03  0.30845563181E+03  0.00000000000E+00 0.  1.
          1   -1    0    0  501    0  0.00000000000E+00 -0.00000000000E+00 -0.45065938646E+04  0.45065938646E+04  0.00000000000E+00 0. -1.
         23    2    1    2    0    0  0.85670258266E+03 -0.15960495284E+03 -0.27910483587E+04  0.29254249917E+04  0.93527456777E+02 0.  0.
        254    2    1    2    0    0 -0.85670258266E+03  0.15960495284E+03 -0.14070898740E+04  0.18896245047E+04  0.91179262939E+03 0.  0.
        -24    2    4    4    0    0  0.83135741564E+02 -0.77614977023E+02 -0.62896676906E+03  0.64406564935E+03  0.79282582631E+02 0.  0.
         24    2    4    4    0    0 -0.93983832422E+03  0.23721992987E+03 -0.77812310496E+03  0.12455588553E+04  0.79824337187E+02 0.  0.
         11    1    3    3    0    0  0.13913297711E+03  0.25199789856E+01 -0.51295150467E+03  0.53149184543E+03  0.00000000000E+00 0.  1.
        -11    1    3    3    0    0  0.71756960555E+03 -0.16212493183E+03 -0.22780968541E+04  0.23939331463E+04  0.00000000000E+00 0. -1.
          2    1    6    6  502    0 -0.52055748471E+01 -0.43335386687E+01 -0.91071996080E+01  0.11349830465E+02  0.00000000000E+00 0. -1.
          3    1    5    5  503    0 -0.66852034901E+01 -0.31799214036E+02 -0.88572618753E+02  0.94345062148E+02  0.00000000000E+00 0. -1.
         -4    1    5    5    0  503  0.89820945054E+02 -0.45815762987E+02 -0.54039415031E+03  0.54972058720E+03  0.00000000000E+00 0.  1.
         -1    1    6    6    0  502 -0.93463274938E+03  0.24155346853E+03 -0.76901590535E+03  0.12342090249E+04  0.00000000000E+00 0.  1.
<mgrwt>
<rscale>  0 0.23580367E+04</rscale>
<asrwt>0</asrwt>
<pdfrwt beam="1">  1        1 0.69332220E+00 0.23580367E+04</pdfrwt>
<pdfrwt beam="2">  1       -1 0.47454708E-01 0.23580367E+04</pdfrwt>
<totfact> 0.12732993E-01</totfact>
</mgrwt>
</event>
<event>
12    1  0.1556559E-007  0.1987532E+04  0.7818608E-02  0.8612472E-01
         -1   -1    0    0    0  501 -0.00000000000E+00  0.00000000000E+00  0.15947789525E+04  0.15947789525E+04  0.00000000000E+00 0.  1.
          1   -1    0    0  501    0  0.00000000000E+00 -0.00000000000E+00 -0.61925260455E+03  0.61925260455E+03  0.00000000000E+00 0. -1.
         23    2    1    2    0    0 -0.44006763363E+03 -0.16145408952E+03 -0.31786968667E+03  0.57465705736E+03  0.97276156793E+02 0.  0.
        254    2    1    2    0    0  0.44006763363E+03  0.16145408952E+03  0.12933960346E+04  0.16393744997E+04  0.89159884626E+03 0.  0.
        -24    2    4    4    0    0 -0.10959424005E+03 -0.26494529861E+03  0.28730039688E+03  0.41350881867E+03  0.79000736472E+02 0.  0.
         24    2    4    4    0    0  0.54966187368E+03  0.42639938813E+03  0.10060956378E+04  0.12258656810E+04  0.81077876321E+02 0.  0.
         11    1    3    3    0    0 -0.33265067742E+03 -0.15787163442E+03 -0.21779073718E+03  0.42779987301E+03  0.00000000000E+00 0. -1.
        -11    1    3    3    0    0 -0.10741695621E+03 -0.35824551038E+01 -0.10007894950E+03  0.14685718436E+03  0.00000000000E+00 0.  1.
          2    1    6    6  502    0  0.21664500903E+03  0.21179869670E+03  0.40036191301E+03  0.50207908665E+03  0.00000000000E+00 0. -1.
          1    1    5    5  503    0 -0.32969534930E+02 -0.12312279404E+03  0.17727560816E+03  0.21834114110E+03  0.00000000000E+00 0. -1.
         -2    1    5    5    0  503 -0.76624705117E+02 -0.14182250457E+03  0.11002478871E+03  0.19516767757E+03  0.00000000000E+00 0.  1.
         -3    1    6    6    0  502  0.33301686465E+03  0.21460069143E+03  0.60573372474E+03  0.72378659437E+03  0.00000000000E+00 0.  1.
<mgrwt>
<rscale>  0 0.19875322E+04</rscale>
<asrwt>0</asrwt>
<pdfrwt beam="1">  1        1 0.95269632E-01 0.19875322E+04</pdfrwt>
<pdfrwt beam="2">  1       -1 0.24535061E+00 0.19875322E+04</pdfrwt>
<totfact> 0.22713816E+00</totfact>
</mgrwt>
</event>
<event>
12    1  0.1556559E-007  0.1766705E+04  0.7818608E-02  0.8724209E-01
          2   -1    0    0  501    0  0.00000000000E+00  0.00000000000E+00  0.28517035933E+04  0.28517035933E+04  0.00000000000E+00 0. -1.
         -2   -1    0    0    0  501 -0.00000000000E+00 -0.00000000000E+00 -0.27362997465E+03  0.27362997465E+03  0.00000000000E+00 0.  1.
         23    2    1    2    0    0  0.48841273677E+03  0.13037317977E+03  0.16834472536E+04  0.17600532637E+04  0.90822177928E+02 0.  0.
        254    2    1    2    0    0 -0.48841273677E+03 -0.13037317977E+03  0.89462636510E+03  0.13652803043E+04  0.89893815621E+03 0.  0.
        -24    2    4    4    0    0 -0.51108989246E+03 -0.35494280964E+03  0.93091330223E+03  0.11227753731E+04  0.82629812778E+02 0.  0.
         24    2    4    4    0    0  0.22677155697E+02  0.22456962988E+03 -0.36286937135E+02  0.24250493114E+03  0.80908144008E+02 0.  0.
         13    1    3    3    0    0  0.20729831592E+03  0.10142932053E+03  0.73093934789E+03  0.76650690091E+03  0.00000000000E+00 0. -1.
        -13    1    3    3    0    0  0.28111442085E+03  0.28943859236E+02  0.95250790568E+03  0.99354636278E+03  0.00000000000E+00 0.  1.
          2    1    6    6  502    0  0.17376544706E+02  0.21462689273E+03 -0.53552096046E+02  0.22188842777E+03  0.00000000000E+00 0. -1.
          3    1    5    5  503    0 -0.47882634829E+03 -0.35321199431E+03  0.87358996965E+03  0.10569734244E+04  0.00000000000E+00 0. -1.
         -4    1    5    5    0  503 -0.32263544172E+02 -0.17308153381E+01  0.57323332585E+02  0.65801948777E+02  0.00000000000E+00 0.  1.
         -1    1    6    6    0  502  0.53006109908E+01  0.99427371480E+01  0.17265158911E+02  0.20616503367E+02  0.00000000000E+00 0.  1.
<mgrwt>
<rscale>  0 0.17667049E+04</rscale>
<asrwt>0</asrwt>
<pdfrwt beam="1">  1        2 0.43872361E+00 0.17667049E+04</pdfrwt>
<pdfrwt beam="2">  1       -2 0.42096921E-01 0.17667049E+04</pdfrwt>
<totfact> 0.10922927E+01</totfact>
</mgrwt>
</event>
<event>
12    1  0.1556559E-007  0.1533328E+04  0.7818608E-02  0.8862588E-01
         -2   -1    0    0    0  501 -0.00000000000E+00  0.00000000000E+00  0.20024766482E+03  0.20024766482E+03  0.00000000000E+00 0.  1.
          2   -1    0    0  501    0  0.00000000000E+00 -0.00000000000E+00 -0.29352318498E+04  0.29352318498E+04  0.00000000000E+00 0. -1.
         23    2    1    2    0    0 -0.11226483424E+03 -0.35177010760E+03 -0.22513354979E+03  0.44199194791E+03  0.91247822824E+02 0.  0.
        254    2    1    2    0    0  0.11226483424E+03  0.35177010760E+03 -0.25098506352E+04  0.26934875668E+04  0.90508533269E+03 0.  0.
        -24    2    4    4    0    0  0.38725751055E+03  0.48573130456E+03 -0.19766878478E+04  0.20735366393E+04  0.79724945033E+02 0.  0.
         24    2    4    4    0    0 -0.27499267631E+03 -0.13396119696E+03 -0.53316278740E+03  0.61995092749E+03  0.80684696912E+02 0.  0.
         13    1    3    3    0    0 -0.75678051174E+02 -0.27810914941E+03 -0.21402886391E+03  0.35899891504E+03  0.00000000000E+00 0. -1.
        -13    1    3    3    0    0 -0.36586783064E+02 -0.73660958185E+02 -0.11104685880E+02  0.82993032866E+02  0.00000000000E+00 0.  1.
          2    1    6    6  502    0 -0.25430978790E+03 -0.11786066086E+03 -0.42832030347E+03  0.51188171091E+03  0.00000000000E+00 0. -1.
          1    1    5    5  503    0  0.30915054169E+03  0.37873779386E+03 -0.16532549245E+04  0.17240267455E+04  0.00000000000E+00 0. -1.
         -2    1    5    5    0  503  0.78106968857E+02  0.10699351070E+03 -0.32343292337E+03  0.34950989376E+03  0.00000000000E+00 0.  1.
         -1    1    6    6    0  502 -0.20682888403E+02 -0.16100536103E+02 -0.10484248393E+03  0.10806921658E+03  0.00000000000E+00 0.  1.
<mgrwt>
<rscale>  0 0.15333275E+04</rscale>
<asrwt>0</asrwt>
<pdfrwt beam="1">  1        2 0.45157411E+00 0.15333275E+04</pdfrwt>
<pdfrwt beam="2">  1       -2 0.30807334E-01 0.15333275E+04</pdfrwt>
<totfact> 0.18079881E+01</totfact>
</mgrwt>
</event>
<event>
12    1  0.1556559E-007  0.1256753E+04  0.7818608E-02  0.9064582E-01
          2   -1    0    0  501    0  0.00000000000E+00  0.00000000000E+00  0.23019553222E+04  0.23019553222E+04  0.00000000000E+00 0. -1.
         -2   -1    0    0    0  501 -0.00000000000E+00 -0.00000000000E+00 -0.17153107667E+03  0.17153107667E+03  0.00000000000E+00 0.  1.
         23    2    1    2    0    0  0.39708853023E+02  0.28120422183E+03  0.64078900994E+03  0.70694085506E+03  0.92207428713E+02 0.  0.
        254    2    1    2    0    0 -0.39708853023E+02 -0.28120422183E+03  0.14896352356E+04  0.17665455438E+04  0.90610011360E+03 0.  0.
        -24    2    4    4    0    0  0.71728223117E+02  0.30349911417E+03  0.73264111850E+03  0.80036067567E+03  0.80978715385E+02 0.  0.
         24    2    4    4    0    0 -0.11143707614E+03 -0.58470333600E+03  0.75699411709E+03  0.96618486815E+03  0.78593212509E+02 0.  0.
         13    1    3    3    0    0  0.14564033501E+02  0.47623580216E+02  0.47458867744E+02  0.68792881841E+02  0.00000000000E+00 0.  1.
        -13    1    3    3    0    0  0.25144819522E+02  0.23358064161E+03  0.59333014220E+03  0.63814797322E+03  0.00000000000E+00 0. -1.
          4    1    6    6  502    0 -0.11971064285E+02 -0.10837241879E+03  0.18954528304E+03  0.21866710282E+03  0.00000000000E+00 0. -1.
          3    1    5    5  503    0  0.12055449550E+02  0.48030475508E+01  0.68262992231E+02  0.69485532580E+02  0.00000000000E+00 0. -1.
         -4    1    5    5    0  503  0.59672773567E+02  0.29869606662E+03  0.66437812627E+03  0.73087514309E+03  0.00000000000E+00 0.  1.
         -3    1    6    6    0  502 -0.99466011855E+02 -0.47633091721E+03  0.56744883405E+03  0.74751776532E+03  0.00000000000E+00 0.  1.
<mgrwt>
<rscale>  0 0.12567528E+04</rscale>
<asrwt>0</asrwt>
<pdfrwt beam="1">  1        2 0.35414695E+00 0.12567528E+04</pdfrwt>
<pdfrwt beam="2">  1       -2 0.26389398E-01 0.12567528E+04</pdfrwt>
<totfact> 0.57977595E+01</totfact>
</mgrwt>
</event>
<event>
12    1  0.1556559E-007  0.1161532E+04  0.7818608E-02  0.9147210E-01
         -2   -1    0    0    0  501 -0.00000000000E+00  0.00000000000E+00  0.27678714918E+03  0.27678714918E+03  0.00000000000E+00 0.  1.
          2   -1    0    0  501    0  0.00000000000E+00 -0.00000000000E+00 -0.12185864526E+04  0.12185864526E+04  0.00000000000E+00 0. -1.
         23    2    1    2    0    0 -0.14839649090E+01 -0.15272226798E+03 -0.30098802579E+03  0.35058800399E+03  0.94825437459E+02 0.  0.
        254    2    1    2    0    0  0.14839649090E+01  0.15272226798E+03 -0.64081127759E+03  0.11447855977E+04  0.93625246490E+03 0.  0.
        -24    2    4    4    0    0  0.28538052297E+03  0.40318496775E+03 -0.55708622025E+03  0.74880674446E+03  0.79789238923E+02 0.  0.
         24    2    4    4    0    0 -0.28389655806E+03 -0.25046269977E+03 -0.83725057341E+02  0.39597885329E+03  0.80377530254E+02 0.  0.
         11    1    3    3    0    0  0.51077174387E+01 -0.11432798793E+03 -0.12145874611E+03  0.16688080959E+03  0.00000000000E+00 0.  1.
        -11    1    3    3    0    0 -0.65916823477E+01 -0.38394280048E+02 -0.17952927967E+03  0.18370719441E+03  0.00000000000E+00 0. -1.
          2    1    6    6  502    0 -0.12414636288E+03 -0.86604589642E+02 -0.69867090522E+02  0.16671558026E+03  0.00000000000E+00 0. -1.
          3    1    5    5  503    0  0.55380660100E+02  0.11985885658E+03 -0.18835333599E+03  0.23002204719E+03  0.00000000000E+00 0. -1.
         -4    1    5    5    0  503  0.22999986287E+03  0.28332611117E+03 -0.36873288426E+03  0.51878469727E+03  0.00000000000E+00 0.  1.
         -1    1    6    6    0  502 -0.15975019518E+03 -0.16385811013E+03 -0.13857966819E+02  0.22926327303E+03  0.00000000000E+00 0.  1.
<mgrwt>
<rscale>  0 0.11615319E+04</rscale>
<asrwt>0</asrwt>
<pdfrwt beam="1">  1        2 0.18747484E+00 0.11615319E+04</pdfrwt>
<pdfrwt beam="2">  1       -2 0.42582638E-01 0.11615319E+04</pdfrwt>
<totfact> 0.95419355E+01</totfact>
</mgrwt>
</event>
<event>
12    1  0.1556559E-007  0.1138476E+04  0.7818608E-02  0.9168481E-01
          1   -1    0    0  501    0  0.00000000000E+00  0.00000000000E+00  0.41009088382E+03  0.41009088382E+03  0.00000000000E+00 0. -1.
         -1   -1    0    0    0  501 -0.00000000000E+00 -0.00000000000E+00 -0.79014661666E+03  0.79014661666E+03  0.00000000000E+00 0.  1.
         23    2    1    2    0    0 -0.14889678233E+03 -0.10986402155E+03 -0.17242287144E+03  0.26980153021E+03  0.93930102155E+02 0.  0.
        254    2    1    2    0    0  0.14889678233E+03  0.10986402155E+03 -0.20763286140E+03  0.93043597028E+03  0.88789601567E+03 0.  0.
        -24    2    4    4    0    0  0.87191611261E+02 -0.13940261634E+03 -0.50097570916E+03  0.53342809672E+03  0.80829491425E+02 0.  0.
         24    2    4    4    0    0  0.61705171065E+02  0.24926663789E+03  0.29334284776E+03  0.39700787356E+03  0.74992269176E+02 0.  0.
         11    1    3    3    0    0 -0.15186347976E+03 -0.10901208765E+03 -0.18129289942E+03  0.26040980611E+03  0.00000000000E+00 0.  1.
        -11    1    3    3    0    0  0.29666974341E+01 -0.85193389888E+00  0.88700279859E+01  0.93917240964E+01  0.00000000000E+00 0. -1.
          4    1    6    6  502    0  0.74011220239E+01  0.71192884319E+00 -0.14857785271E+01  0.75822811687E+01  0.00000000000E+00 0. -1.
          1    1    5    5  503    0 -0.13321569569E+02 -0.20836393370E+02 -0.10872441601E+03  0.11150165084E+03  0.00000000000E+00 0. -1.
         -2    1    5    5    0  503  0.10051318083E+03 -0.11856622297E+03 -0.39225129316E+03  0.42192644588E+03  0.00000000000E+00 0.  1.
         -3    1    6    6    0  502  0.54304049041E+02  0.24855470904E+03  0.29482862629E+03  0.38942559239E+03  0.00000000000E+00 0.  1.
<mgrwt>
<rscale>  0 0.11384760E+04</rscale>
<asrwt>0</asrwt>
<pdfrwt beam="1">  1        1 0.63090906E-01 0.11384760E+04</pdfrwt>
<pdfrwt beam="2">  1       -1 0.12156102E+00 0.11384760E+04</pdfrwt>
<totfact> 0.34603488E+01</totfact>
</mgrwt>
</event>
<event>
12    1  0.1556559E-007  0.1424301E+04  0.7818608E-02  0.8936414E-01
          2   -1    0    0  501    0  0.00000000000E+00  0.00000000000E+00  0.25597176643E+04  0.25597176643E+04  0.00000000000E+00 0. -1.
         -2   -1    0    0    0  501 -0.00000000000E+00 -0.00000000000E+00 -0.19813047165E+03  0.19813047165E+03  0.00000000000E+00 0.  1.
         23    2    1    2    0    0 -0.18066779830E+03  0.21813406535E+02  0.14692713203E+04  0.14832599987E+04  0.90472830153E+02 0.  0.
        254    2    1    2    0    0  0.18066779830E+03 -0.21813406535E+02  0.89231587234E+03  0.12745881373E+04  0.89175704403E+03 0.  0.
        -24    2    4    4    0    0  0.14237804206E+03 -0.41450647804E+03  0.69798558345E+03  0.82802085620E+03  0.79671427756E+02 0.  0.
         24    2    4    4    0    0  0.38289756237E+02  0.39269307150E+03  0.19433028889E+03  0.44656728106E+03  0.77357103728E+02 0.  0.
         11    1    3    3    0    0 -0.17326275993E+03 -0.65251998567E+01  0.12155332101E+04  0.12278369383E+04  0.00000000000E+00 0. -1.
        -11    1    3    3    0    0 -0.74050383654E+01  0.28338606391E+02  0.25373811023E+03  0.25542306041E+03  0.00000000000E+00 0.  1.
          4    1    6    6  502    0 -0.51242188322E+01  0.28143356644E+03  0.12072069209E+03  0.30627535884E+03  0.00000000000E+00 0. -1.
          3    1    5    5  503    0  0.12263095359E+03 -0.38513951849E+03  0.67171738885E+03  0.78394837200E+03  0.00000000000E+00 0. -1.
         -4    1    5    5    0  503  0.19747088465E+02 -0.29366959543E+02  0.26268194606E+02  0.44072484199E+02  0.00000000000E+00 0.  1.
         -3    1    6    6    0  502  0.43413975070E+02  0.11125950506E+03  0.73609596802E+02  0.14029192222E+03  0.00000000000E+00 0.  1.
<mgrwt>
<rscale>  0 0.14243006E+04</rscale>
<asrwt>0</asrwt>
<pdfrwt beam="1">  1        2 0.39380269E+00 0.14243006E+04</pdfrwt>
<pdfrwt beam="2">  1       -2 0.30481613E-01 0.14243006E+04</pdfrwt>
<totfact> 0.31197558E+01</totfact>
</mgrwt>
</event>
<event>
12    1  0.1556559E-007  0.1364417E+04  0.7818608E-02  0.8979986E-01
          2   -1    0    0  501    0  0.00000000000E+00  0.00000000000E+00  0.90272377339E+03  0.90272377339E+03  0.00000000000E+00 0. -1.
         -2   -1    0    0    0  501 -0.00000000000E+00 -0.00000000000E+00 -0.51556032411E+03  0.51556032411E+03  0.00000000000E+00 0.  1.
         23    2    1    2    0    0 -0.23823391481E+03  0.22455666750E+03  0.37870657732E+03  0.50911896014E+03  0.92748847845E+02 0.  0.
        254    2    1    2    0    0  0.23823391481E+03 -0.22455666750E+03  0.84568719584E+01  0.90916513736E+03  0.84813243849E+03 0.  0.
        -24    2    4    4    0    0  0.46460301517E+03 -0.15980913367E+03 -0.24211348554E+03  0.55511224117E+03  0.90198334323E+02 0.  0.
         24    2    4    4    0    0 -0.22636910035E+03 -0.64747533834E+02  0.25057035750E+03  0.35405289618E+03  0.84455529769E+02 0.  0.
         13    1    3    3    0    0 -0.64571746303E+02  0.12234458716E+03  0.14179622996E+03  0.19810067961E+03  0.00000000000E+00 0.  1.
        -13    1    3    3    0    0 -0.17366216851E+03  0.10221208034E+03  0.23691034735E+03  0.31101828053E+03  0.00000000000E+00 0. -1.
          4    1    6    6  502    0 -0.15637164319E+03 -0.34487384359E+02  0.11045461705E+03  0.19452941397E+03  0.00000000000E+00 0. -1.
          1    1    5    5  503    0  0.90259796133E+02 -0.69970843458E+01 -0.75173930452E+02  0.11767289325E+03  0.00000000000E+00 0. -1.
         -2    1    5    5    0  503  0.37434321903E+03 -0.15281204932E+03 -0.16693955509E+03  0.43743934792E+03  0.00000000000E+00 0.  1.
         -3    1    6    6    0  502 -0.69997457167E+02 -0.30260149475E+02  0.14011574045E+03  0.15952348221E+03  0.00000000000E+00 0.  1.
<mgrwt>
<rscale>  0 0.13644172E+04</rscale>
<asrwt>0</asrwt>
<pdfrwt beam="1">  1        2 0.13888058E+00 0.13644172E+04</pdfrwt>
<pdfrwt beam="2">  1       -2 0.79316973E-01 0.13644172E+04</pdfrwt>
<totfact> 0.40162137E+01</totfact>
</mgrwt>
</event>
<event>
12    1  0.1556559E-007  0.1980054E+04  0.7818608E-02  0.8616003E-01
         -1   -1    0    0    0  501 -0.00000000000E+00  0.00000000000E+00  0.15851575934E+04  0.15851575934E+04  0.00000000000E+00 0.  1.
          1   -1    0    0  501    0  0.00000000000E+00 -0.00000000000E+00 -0.61833205133E+03  0.61833205133E+03  0.00000000000E+00 0. -1.
         23    2    1    2    0    0 -0.41529346013E+03  0.29132485604E+03  0.10468266211E+04  0.11667371643E+04  0.89948909261E+02 0.  0.
        254    2    1    2    0    0  0.41529346013E+03 -0.29132485604E+03 -0.80001078996E+02  0.10367524804E+04  0.90062017698E+03 0.  0.
        -24    2    4    4    0    0  0.12550097417E+03 -0.51046765994E+03 -0.29206934279E+03  0.60688319646E+03  0.81700592358E+02 0.  0.
         24    2    4    4    0    0  0.28979248596E+03  0.21914280389E+03  0.21206826379E+03  0.42986928393E+03  0.88382121194E+02 0.  0.
         13    1    3    3    0    0 -0.14474079725E+03  0.14204657868E+03  0.48167660402E+03  0.52262747704E+03  0.00000000000E+00 0. -1.
        -13    1    3    3    0    0 -0.27055266288E+03  0.14927827737E+03  0.56515001707E+03  0.64410968731E+03  0.00000000000E+00 0.  1.
          2    1    6    6  502    0  0.15271965503E+03  0.16452390078E+03  0.10665258306E+03  0.24852802746E+03  0.00000000000E+00 0. -1.
          3    1    5    5  503    0  0.12155048585E+03 -0.33370462546E+03 -0.19249196558E+03  0.40396343210E+03  0.00000000000E+00 0. -1.
         -4    1    5    5    0  503  0.39504883186E+01 -0.17676303448E+03 -0.99577377208E+02  0.20291976436E+03  0.00000000000E+00 0.  1.
         -1    1    6    6    0  502  0.13707283093E+03  0.54618903117E+02  0.10541568073E+03  0.18134125647E+03  0.00000000000E+00 0.  1.
<mgrwt>
<rscale>  0 0.19800543E+04</rscale>
<asrwt>0</asrwt>
<pdfrwt beam="1">  1        1 0.95128008E-01 0.19800543E+04</pdfrwt>
<pdfrwt beam="2">  1       -1 0.24387040E+00 0.19800543E+04</pdfrwt>
<totfact> 0.23291987E+00</totfact>
</mgrwt>
</event>
<event>
12    1  0.1556559E-007  0.1639119E+04  0.7818608E-02  0.8796870E-01
          2   -1    0    0  501    0  0.00000000000E+00  0.00000000000E+00  0.52425974208E+03  0.52425974208E+03  0.00000000000E+00 0. -1.
         -2   -1    0    0    0  501 -0.00000000000E+00 -0.00000000000E+00 -0.12811919761E+04  0.12811919761E+04  0.00000000000E+00 0.  1.
         23    2    1    2    0    0  0.30572184942E+03  0.31676311682E+03  0.11703222820E+03  0.46422634997E+03  0.89469772439E+02 0.  0.
        254    2    1    2    0    0 -0.30572184942E+03 -0.31676311682E+03 -0.87396446224E+03  0.13412253682E+04  0.91720602142E+03 0.  0.
        -24    2    4    4    0    0 -0.61877032926E+03 -0.23502728780E+03 -0.46081934898E+03  0.81040679377E+03  0.79310482337E+02 0.  0.
         24    2    4    4    0    0  0.31304847984E+03 -0.81735829012E+02 -0.41314511325E+03  0.53081857446E+03  0.79996111838E+02 0.  0.
         11    1    3    3    0    0  0.28142961540E+03  0.25824118949E+03  0.78105821423E+02  0.38986107746E+03  0.00000000000E+00 0. -1.
        -11    1    3    3    0    0  0.24292234020E+02  0.58521927320E+02  0.38926406779E+02  0.74365272511E+02  0.00000000000E+00 0.  1.
          2    1    6    6  502    0  0.49062989656E+02  0.14636944182E+02 -0.49264347844E+02  0.71052044710E+02  0.00000000000E+00 0. -1.
          3    1    5    5  503    0 -0.10099845489E+03 -0.15708876369E+02 -0.48538265104E+02  0.11315219780E+03  0.00000000000E+00 0. -1.
         -4    1    5    5    0  503 -0.51777187437E+03 -0.21931841143E+03 -0.41228108388E+03  0.69725459597E+03  0.00000000000E+00 0.  1.
         -1    1    6    6    0  502  0.26398549018E+03 -0.96372773194E+02 -0.36388076541E+03  0.45976652975E+03  0.00000000000E+00 0.  1.
<mgrwt>
<rscale>  0 0.16391185E+04</rscale>
<asrwt>0</asrwt>
<pdfrwt beam="1">  1        2 0.80655346E-01 0.16391185E+04</pdfrwt>
<pdfrwt beam="2">  1       -2 0.19710645E+00 0.16391185E+04</pdfrwt>
<totfact> 0.77330789E+00</totfact>
</mgrwt>
</event>
<event>
12    1  0.1556559E-007  0.1648577E+04  0.7818608E-02  0.8791249E-01
          2   -1    0    0  501    0  0.00000000000E+00  0.00000000000E+00  0.99944495951E+03  0.99944495951E+03  0.00000000000E+00 0. -1.
         -2   -1    0    0    0  501 -0.00000000000E+00 -0.00000000000E+00 -0.67982851927E+03  0.67982851927E+03  0.00000000000E+00 0.  1.
         23    2    1    2    0    0  0.35354313484E+03  0.32533619755E+03  0.43906615491E+03  0.65737062696E+03  0.92307438333E+02 0.  0.
        254    2    1    2    0    0 -0.35354313484E+03 -0.32533619755E+03 -0.11944971467E+03  0.10219028518E+04  0.89396913514E+03 0.  0.
        -24    2    4    4    0    0  0.19533307971E+02 -0.35602385204E+03  0.28606663060E+03  0.46463825764E+03  0.83186897865E+02 0.  0.
         24    2    4    4    0    0 -0.37307644282E+03  0.30687654486E+02 -0.40551634528E+03  0.55726459418E+03  0.77282322159E+02 0.  0.
         13    1    3    3    0    0  0.62433211010E+02  0.72675766446E+02  0.13928499954E+03  0.16905615624E+03  0.00000000000E+00 0.  1.
        -13    1    3    3    0    0  0.29110992383E+03  0.25266043110E+03  0.29978115537E+03  0.48831447072E+03  0.00000000000E+00 0. -1.
          2    1    6    6  502    0 -0.11562186525E+03  0.45701801598E+02 -0.13399935220E+03  0.18279194945E+03  0.00000000000E+00 0. -1.
          1    1    5    5  503    0  0.12192299607E+00 -0.63492601715E+02  0.14749833663E+02  0.65183455960E+02  0.00000000000E+00 0. -1.
         -2    1    5    5    0  503  0.19411384975E+02 -0.29253125032E+03  0.27131679694E+03  0.39945480168E+03  0.00000000000E+00 0.  1.
         -1    1    6    6    0  502 -0.25745457756E+03 -0.15014147112E+02 -0.27151699308E+03  0.37447264473E+03  0.00000000000E+00 0.  1.
<mgrwt>
<rscale>  0 0.16485766E+04</rscale>
<asrwt>0</asrwt>
<pdfrwt beam="1">  1        2 0.15376076E+00 0.16485766E+04</pdfrwt>
<pdfrwt beam="2">  1       -2 0.10458900E+00 0.16485766E+04</pdfrwt>
<totfact> 0.17874176E+01</totfact>
</mgrwt>
</event>
<event>
12    1  0.1556559E-007  0.2157681E+04  0.7818608E-02  0.8536252E-01
          1   -1    0    0  501    0  0.00000000000E+00  0.00000000000E+00  0.76314506440E+03  0.76314506440E+03  0.00000000000E+00 0. -1.
         -1   -1    0    0    0  501 -0.00000000000E+00 -0.00000000000E+00 -0.15251315398E+04  0.15251315398E+04  0.00000000000E+00 0.  1.
         23    2    1    2    0    0  0.84173537288E+03 -0.80480241554E+02 -0.26388743078E+02  0.85072049871E+03  0.89629760219E+02 0.  0.
        254    2    1    2    0    0 -0.84173537288E+03  0.80480241554E+02 -0.73559773236E+03  0.14375561055E+04  0.90025997659E+03 0.  0.
        -24    2    4    4    0    0 -0.95977696152E+03  0.19011840849E+02 -0.81469942741E+03  0.12615565433E+04  0.79097970863E+02 0.  0.
         24    2    4    4    0    0  0.11804158863E+03  0.61468400704E+02  0.79101695048E+02  0.17599956222E+03  0.83705357115E+02 0.  0.
         13    1    3    3    0    0  0.62848935269E+03 -0.24970233342E+02 -0.37371687981E+02  0.63009445487E+03  0.00000000000E+00 0. -1.
        -13    1    3    3    0    0  0.21324602019E+03 -0.55510008211E+02  0.10982944903E+02  0.22062604383E+03  0.00000000000E+00 0.  1.
          2    1    6    6  502    0 -0.55787000806E+01 -0.71187187909E+01  0.21532758294E+02  0.23355036535E+02  0.00000000000E+00 0. -1.
          3    1    5    5  503    0 -0.82786030858E+03  0.43687240226E+02 -0.70198250404E+03  0.10862967833E+04  0.00000000000E+00 0. -1.
         -4    1    5    5    0  503 -0.13191665294E+03 -0.24675399377E+02 -0.11271692337E+03  0.17525975999E+03  0.00000000000E+00 0.  1.
         -1    1    6    6    0  502  0.12362028871E+03  0.68587119495E+02  0.57568936754E+02  0.15264452568E+03  0.00000000000E+00 0.  1.
<mgrwt>
<rscale>  0 0.21576808E+04</rscale>
<asrwt>0</asrwt>
<pdfrwt beam="1">  1        1 0.11740693E+00 0.21576808E+04</pdfrwt>
<pdfrwt beam="2">  1       -1 0.23463562E+00 0.21576808E+04</pdfrwt>
<totfact> 0.19180228E+00</totfact>
</mgrwt>
</event>
<event>
12    1  0.1556559E-007  0.2442598E+04  0.7818608E-02  0.8423726E-01
         -1   -1    0    0    0  501 -0.00000000000E+00  0.00000000000E+00  0.10605496101E+04  0.10605496101E+04  0.00000000000E+00 0.  1.
          1   -1    0    0  501    0  0.00000000000E+00 -0.00000000000E+00 -0.14064129964E+04  0.14064129964E+04  0.00000000000E+00 0. -1.
         23    2    1    2    0    0 -0.45424043451E+03 -0.68816641240E+03  0.51287689950E+03  0.97713798206E+03  0.10885099195E+03 0.  0.
        254    2    1    2    0    0  0.45424043451E+03  0.68816641240E+03 -0.85874028585E+03  0.14898246244E+04  0.89567580599E+03 0.  0.
        -24    2    4    4    0    0  0.45543664660E+03  0.28195238904E+03 -0.92378415639E+03  0.10707702348E+04  0.79069838210E+02 0.  0.
         24    2    4    4    0    0 -0.11962120877E+01  0.40621402336E+03  0.65043870534E+02  0.41905438964E+03  0.79778522704E+02 0.  0.
         11    1    3    3    0    0 -0.38755420819E+03 -0.57556543423E+03  0.47503017687E+03  0.84090873601E+03  0.00000000000E+00 0.  1.
        -11    1    3    3    0    0 -0.66686226320E+02 -0.11260097817E+03  0.37846722635E+02  0.13622924605E+03  0.00000000000E+00 0. -1.
          2    1    6    6  502    0 -0.25206368511E+02  0.16997460671E+03  0.58463636828E+02  0.18150681742E+03  0.00000000000E+00 0. -1.
          3    1    5    5  503    0  0.40497811029E+03  0.26075586107E+03 -0.77778384786E+03  0.91484895086E+03  0.00000000000E+00 0. -1.
         -4    1    5    5    0  503  0.50458536305E+02  0.21196527970E+02 -0.14600030853E+03  0.15592128391E+03  0.00000000000E+00 0.  1.
         -1    1    6    6    0  502  0.24010156423E+02  0.23623941666E+03  0.65802337063E+01  0.23754757222E+03  0.00000000000E+00 0.  1.
<mgrwt>
<rscale>  0 0.24425976E+04</rscale>
<asrwt>0</asrwt>
<pdfrwt beam="1">  1        1 0.21637123E+00 0.24425976E+04</pdfrwt>
<pdfrwt beam="2">  1       -1 0.16316148E+00 0.24425976E+04</pdfrwt>
<totfact> 0.18779754E+00</totfact>
</mgrwt>
</event>
<event>
12    1  0.1556559E-007  0.2374625E+04  0.7818608E-02  0.8449065E-01
         -1   -1    0    0    0  501 -0.00000000000E+00  0.00000000000E+00  0.42054144616E+03  0.42054144616E+03  0.00000000000E+00 0.  1.
          1   -1    0    0  501    0  0.00000000000E+00 -0.00000000000E+00 -0.33521341600E+04  0.33521341600E+04  0.00000000000E+00 0. -1.
         23    2    1    2    0    0 -0.69895219261E+03  0.65630269324E+03 -0.91112897976E+03  0.13261962795E+04  0.96815088076E+02 0.  0.
        254    2    1    2    0    0  0.69895219261E+03 -0.65630269324E+03 -0.20204637341E+04  0.24464793267E+04  0.99182659895E+03 0.  0.
        -24    2    4    4    0    0  0.74269259959E+03 -0.83830755856E+03 -0.14021596255E+04  0.17963074918E+04  0.79480371431E+02 0.  0.
         24    2    4    4    0    0 -0.43740406978E+02  0.18200486532E+03 -0.61830410857E+03  0.65017183488E+03  0.73378811599E+02 0.  0.
         11    1    3    3    0    0 -0.59229337052E+03  0.59854854584E+03 -0.78513606425E+03  0.11513081420E+04  0.00000000000E+00 0. -1.
        -11    1    3    3    0    0 -0.10665882209E+03  0.57754147394E+02 -0.12599291550E+03  0.17488813747E+03  0.00000000000E+00 0.  1.
          2    1    6    6  502    0 -0.64504444871E+02  0.14276003466E+03 -0.48180607807E+03  0.50663433339E+03  0.00000000000E+00 0. -1.
          1    1    5    5  503    0  0.56605337178E+03 -0.58942206466E+03 -0.10416392082E+04  0.13239512944E+04  0.00000000000E+00 0. -1.
         -2    1    5    5    0  503  0.17663922781E+03 -0.24888549390E+03 -0.36052041735E+03  0.47235619738E+03  0.00000000000E+00 0.  1.
         -1    1    6    6    0  502  0.20764037893E+02  0.39244830663E+02 -0.13649803050E+03  0.14353750149E+03  0.00000000000E+00 0.  1.
<mgrwt>
<rscale>  0 0.23746253E+04</rscale>
<asrwt>0</asrwt>
<pdfrwt beam="1">  1        1 0.51571298E+00 0.23746253E+04</pdfrwt>
<pdfrwt beam="2">  1       -1 0.64698681E-01 0.23746253E+04</pdfrwt>
<totfact> 0.70949461E-01</totfact>
</mgrwt>
</event>
<event>
12    1  0.1556559E-007  0.2172763E+04  0.7818608E-02  0.8529851E-01
          2   -1    0    0  501    0  0.00000000000E+00  0.00000000000E+00  0.25461490604E+04  0.25461490604E+04  0.00000000000E+00 0. -1.
         -2   -1    0    0    0  501 -0.00000000000E+00 -0.00000000000E+00 -0.46353343176E+03  0.46353343176E+03  0.00000000000E+00 0.  1.
         23    2    1    2    0    0  0.44467637743E+03 -0.77907728858E+01  0.19285027011E+04  0.19811928462E+04  0.90579517483E+02 0.  0.
        254    2    1    2    0    0 -0.44467637743E+03  0.77907728858E+01  0.15411292752E+03  0.10284896459E+04  0.91446289183E+03 0.  0.
        -24    2    4    4    0    0  0.14417158067E+03  0.26950657145E+03 -0.10082460456E+03  0.33079318137E+03  0.76415255187E+02 0.  0.
         24    2    4    4    0    0 -0.58884795810E+03 -0.26171579857E+03  0.25493753208E+03  0.69769646454E+03  0.80932900532E+02 0.  0.
         11    1    3    3    0    0 -0.34385571737E+01 -0.10728006324E+01  0.43383683306E+02  0.43532959397E+02  0.00000000000E+00 0.  1.
        -11    1    3    3    0    0  0.44811493460E+03 -0.67179722534E+01  0.18851190178E+04  0.19376598868E+04  0.00000000000E+00 0. -1.
          2    1    6    6  502    0 -0.13857552510E+03 -0.96757951596E+02  0.82741065968E+02  0.18817906725E+03  0.00000000000E+00 0. -1.
          3    1    5    5  503    0  0.38153380367E+02  0.11820482398E+03 -0.72685026586E+02  0.14391377257E+03  0.00000000000E+00 0. -1.
         -2    1    5    5    0  503  0.10601820031E+03  0.15130174747E+03 -0.28139577975E+02  0.18687940880E+03  0.00000000000E+00 0.  1.
         -1    1    6    6    0  502 -0.45027243300E+03 -0.16495784697E+03  0.17219646612E+03  0.50951739729E+03  0.00000000000E+00 0.  1.
<mgrwt>
<rscale>  0 0.21727634E+04</rscale>
<asrwt>0</asrwt>
<pdfrwt beam="1">  1        2 0.39171523E+00 0.21727634E+04</pdfrwt>
<pdfrwt beam="2">  1       -2 0.71312837E-01 0.21727634E+04</pdfrwt>
<totfact> 0.53515713E+00</totfact>
</mgrwt>
</event>
<event>
12    1  0.1556559E-007  0.1683186E+04  0.7818608E-02  0.8771013E-01
         -2   -1    0    0    0  501 -0.00000000000E+00  0.00000000000E+00  0.12758186103E+04  0.12758186103E+04  0.00000000000E+00 0. -1.
          2   -1    0    0  501    0  0.00000000000E+00 -0.00000000000E+00 -0.55515629074E+03  0.55515629074E+03  0.00000000000E+00 0.  1.
         23    2    1    2    0    0 -0.14778309228E+03  0.34256426304E+03 -0.24550278497E+03  0.45630359993E+03  0.93548068972E+02 0.  0.
        254    2    1    2    0    0  0.14778309228E+03 -0.34256426304E+03  0.96616510449E+03  0.13746713011E+04  0.90391153337E+03 0.  0.
        -24    2    4    4    0    0 -0.16963819515E+03 -0.41146734430E+03  0.12456517429E+03  0.46903694173E+03  0.79979230954E+02 0.  0.
         24    2    4    4    0    0  0.31742128743E+03  0.68903081263E+02  0.84159993019E+03  0.90563435933E+03  0.79870156992E+02 0.  0.
         13    1    3    3    0    0 -0.55578218266E+02  0.18169850640E+03 -0.17379494375E+03  0.25750333599E+03  0.00000000000E+00 0.  1.
        -13    1    3    3    0    0 -0.92204874014E+02  0.16086575663E+03 -0.71707841219E+02  0.19880026394E+03  0.00000000000E+00 0. -1.
          4    1    6    6  502    0  0.81630003396E+02  0.52418405388E+02  0.21253716130E+03  0.23363045951E+03  0.00000000000E+00 0. -1.
          1    1    5    5  503    0 -0.11066364077E+03 -0.30131316945E+03  0.12393633537E+03  0.34408760904E+03  0.00000000000E+00 0. -1.
         -2    1    5    5    0  503 -0.58974554378E+02 -0.11015417485E+03  0.62883892506E+00  0.12494933269E+03  0.00000000000E+00 0.  1.
         -1    1    6    6    0  502  0.23579128403E+03  0.16484675875E+02  0.62906276890E+03  0.67200389982E+03  0.00000000000E+00 0.  1.
<mgrwt>
<rscale>  0 0.16831859E+04</rscale>
<asrwt>0</asrwt>
<pdfrwt beam="1">  1        2 0.85408660E-01 0.16831859E+04</pdfrwt>
<pdfrwt beam="2">  1       -2 0.19627979E+00 0.16831859E+04</pdfrwt>
<totfact> 0.72938047E+00</totfact>
</mgrwt>
</event>
<event>
12    1  0.1556559E-007  0.2316824E+04  0.7818608E-02  0.8471317E-01
         -1   -1    0    0    0  501 -0.00000000000E+00  0.00000000000E+00  0.18525919511E+04  0.18525919511E+04  0.00000000000E+00 0.  1.
          1   -1    0    0  501    0  0.00000000000E+00 -0.00000000000E+00 -0.72434644554E+03  0.72434644554E+03  0.00000000000E+00 0. -1.
         23    2    1    2    0    0  0.90423654866E+03  0.92206310609E+02  0.88116464486E+03  0.12691822608E+04  0.90701378678E+02 0.  0.
        254    2    1    2    0    0 -0.90423654866E+03 -0.92206310609E+02  0.24708086069E+03  0.13077561358E+04  0.90721079108E+03 0.  0.
        -24    2    4    4    0    0 -0.86277051629E+03  0.26803746063E+03  0.12136931258E+03  0.91487710688E+03  0.77798242813E+02 0.  0.
         24    2    4    4    0    0 -0.41466032377E+02 -0.36024377124E+03  0.12571154810E+03  0.39287902896E+03  0.83997211341E+02 0.  0.
         11    1    3    3    0    0  0.34525093851E+03  0.30953815337E+02  0.39800229023E+03  0.52778989404E+03  0.00000000000E+00 0. -1.
        -11    1    3    3    0    0  0.55898561015E+03  0.61252495272E+02  0.48316235462E+03  0.74139236674E+03  0.00000000000E+00 0.  1.
          2    1    6    6  502    0  0.84080367463E+01 -0.17034080978E+03  0.25509720546E+02  0.17244544761E+03  0.00000000000E+00 0. -1.
          3    1    5    5  503    0 -0.31427131719E+01 -0.40407795471E+01  0.10700505356E+01  0.52296800646E+01  0.00000000000E+00 0. -1.
         -4    1    5    5    0  503 -0.85962780312E+03  0.27207824017E+03  0.12029926205E+03  0.90964742682E+03  0.00000000000E+00 0.  1.
         -1    1    6    6    0  502 -0.49874069123E+02 -0.18990296145E+03  0.10020182756E+03  0.22043358135E+03  0.00000000000E+00 0.  1.
<mgrwt>
<rscale>  0 0.23168240E+04</rscale>
<asrwt>0</asrwt>
<pdfrwt beam="1">  1        1 0.11143792E+00 0.23168240E+04</pdfrwt>
<pdfrwt beam="2">  1       -1 0.28501415E+00 0.23168240E+04</pdfrwt>
<totfact> 0.96385259E-01</totfact>
</mgrwt>
</event>
<event>
12    1  0.1556559E-007  0.1958395E+04  0.7818608E-02  0.8626323E-01
          4   -1    0    0  501    0  0.00000000000E+00  0.00000000000E+00  0.15895346651E+04  0.15895346651E+04  0.00000000000E+00 0. -1.
         -4   -1    0    0    0  501 -0.00000000000E+00 -0.00000000000E+00 -0.60321290059E+03  0.60321290059E+03  0.00000000000E+00 0.  1.
         23    2    1    2    0    0  0.41761269729E+03  0.30669527424E+03 -0.23687163682E+03  0.57752076491E+03  0.94655720363E+02 0.  0.
        254    2    1    2    0    0 -0.41761269729E+03 -0.30669527424E+03  0.12231934014E+04  0.16152268008E+04  0.91885426743E+03 0.  0.
        -24    2    4    4    0    0 -0.33527750639E+03 -0.54768245813E+03  0.42855006646E+03  0.77675187595E+03  0.85564221970E+02 0.  0.
         24    2    4    4    0    0 -0.82335190892E+02  0.24098718389E+03  0.79464333491E+03  0.83847492488E+03  0.82025992713E+02 0.  0.
         13    1    3    3    0    0  0.54470044107E+01 -0.63208551270E+01 -0.82120999547E+01  0.11707333268E+02  0.00000000000E+00 0. -1.
        -13    1    3    3    0    0  0.41216569288E+03  0.31301612937E+03 -0.22865953686E+03  0.56581343164E+03  0.00000000000E+00 0.  1.
          2    1    6    6  502    0 -0.39518933359E+02  0.80904021678E+02  0.17180685199E+03  0.19397113499E+03  0.00000000000E+00 0. -1.
          3    1    5    5  503    0 -0.13969713474E+02 -0.44944730591E+02  0.10490485825E+02  0.48220659423E+02  0.00000000000E+00 0. -1.
         -2    1    5    5    0  503 -0.32130779292E+03 -0.50273772754E+03  0.41805958064E+03  0.72853121652E+03  0.00000000000E+00 0.  1.
         -1    1    6    6    0  502 -0.42816257533E+02  0.16008316221E+03  0.62283648292E+03  0.64450378989E+03  0.00000000000E+00 0.  1.
<mgrwt>
<rscale>  0 0.19583951E+04</rscale>
<asrwt>0</asrwt>
<pdfrwt beam="1">  1        4 0.24454379E+00 0.19583951E+04</pdfrwt>
<pdfrwt beam="2">  1       -4 0.92801985E-01 0.19583951E+04</pdfrwt>
<totfact> 0.12551220E-01</totfact>
</mgrwt>
</event>
<event>
12    1  0.1556559E-007  0.2046444E+04  0.7818608E-02  0.8585209E-01
         -1   -1    0    0    0  501 -0.00000000000E+00  0.00000000000E+00  0.24867702912E+03  0.24867702912E+03  0.00000000000E+00 0.  1.
          1   -1    0    0  501    0  0.00000000000E+00 -0.00000000000E+00 -0.42102118135E+04  0.42102118135E+04  0.00000000000E+00 0. -1.
         23    2    1    2    0    0  0.11261263319E+03  0.17861171069E+03 -0.33417006775E+04  0.33495963982E+04  0.90823259608E+02 0.  0.
        254    2    1    2    0    0 -0.11261263319E+03 -0.17861171069E+03 -0.61983410688E+03  0.11092924444E+04  0.89540586264E+03 0.  0.
        -24    2    4    4    0    0 -0.11294702695E+03 -0.21433187282E+03  0.17544037502E+03  0.30928468633E+03  0.78628934906E+02 0.  0.
         24    2    4    4    0    0  0.33439376441E+00  0.35720162128E+02 -0.79527448190E+03  0.80000775809E+03  0.79214074777E+02 0.  0.
         11    1    3    3    0    0  0.11720940028E+03  0.16886311695E+03 -0.33039270373E+04  0.33103151909E+04  0.00000000000E+00 0. -1.
        -11    1    3    3    0    0 -0.45967670922E+01  0.97485937391E+01 -0.37773640283E+02  0.39281207311E+02  0.00000000000E+00 0.  1.
          4    1    6    6  502    0  0.31648957244E+02  0.18131872730E+02 -0.62103048586E+03  0.62210070380E+03  0.00000000000E+00 0. -1.
          3    1    5    5  503    0 -0.46227427236E+02 -0.24082082903E+02  0.25479121130E+02  0.58018164046E+02  0.00000000000E+00 0. -1.
         -4    1    5    5    0  503 -0.66719599715E+02 -0.19024978992E+03  0.14996125389E+03  0.25126652228E+03  0.00000000000E+00 0.  1.
         -3    1    6    6    0  502 -0.31314563479E+02  0.17588289397E+02 -0.17424399604E+03  0.17790705429E+03  0.00000000000E+00 0.  1.
<mgrwt>
<rscale>  0 0.20464437E+04</rscale>
<asrwt>0</asrwt>
<pdfrwt beam="1">  1        1 0.64772487E+00 0.20464437E+04</pdfrwt>
<pdfrwt beam="2">  1       -1 0.38258006E-01 0.20464437E+04</pdfrwt>
<totfact> 0.38134278E-01</totfact>
</mgrwt>
</event>
<event>
12    1  0.1556559E-007  0.1370721E+04  0.7818608E-02  0.8975289E-01
         -1   -1    0    0    0  501 -0.00000000000E+00  0.00000000000E+00  0.21996641015E+03  0.21996641015E+03  0.00000000000E+00 0.  1.
          1   -1    0    0  501    0  0.00000000000E+00 -0.00000000000E+00 -0.21354120719E+04  0.21354120719E+04  0.00000000000E+00 0. -1.
         23    2    1    2    0    0  0.26107878007E+03 -0.19498609418E+03 -0.22518234161E+03  0.40594028529E+03  0.88874754153E+02 0.  0.
        254    2    1    2    0    0 -0.26107878007E+03  0.19498609418E+03 -0.16902633201E+04  0.19494381967E+04  0.91495217646E+03 0.  0.
        -24    2    4    4    0    0  0.18240825924E+03 -0.26022511173E+03 -0.64911485933E+03  0.72699057278E+03  0.78583143780E+02 0.  0.
         24    2    4    4    0    0 -0.44348703931E+03  0.45521120591E+03 -0.10411484608E+04  0.12224476239E+04  0.80561032026E+02 0.  0.
         11    1    3    3    0    0  0.24485072292E+03 -0.14365884854E+03 -0.19164199434E+03  0.34251481029E+03  0.00000000000E+00 0.  1.
        -11    1    3    3    0    0  0.16228057155E+02 -0.51327245641E+02 -0.33540347268E+02  0.63425475000E+02  0.00000000000E+00 0. -1.
          2    1    6    6  502    0 -0.37276940243E+03  0.39205107383E+03 -0.93409630386E+03  0.10794429011E+04  0.00000000000E+00 0. -1.
          3    1    5    5  503    0  0.96348928222E+02 -0.19455683211E+03 -0.39396782076E+03  0.44982899049E+03  0.00000000000E+00 0. -1.
         -4    1    5    5    0  503  0.86059331019E+02 -0.65668279620E+02 -0.25514703857E+03  0.27716158229E+03  0.00000000000E+00 0.  1.
         -1    1    6    6    0  502 -0.70717636884E+02  0.63160132083E+02 -0.10705215691E+03  0.14300472282E+03  0.00000000000E+00 0.  1.
<mgrwt>
<rscale>  0 0.13707209E+04</rscale>
<asrwt>0</asrwt>
<pdfrwt beam="1">  1        1 0.32852495E+00 0.13707209E+04</pdfrwt>
<pdfrwt beam="2">  1       -1 0.33840985E-01 0.13707209E+04</pdfrwt>
<totfact> 0.19450901E+01</totfact>
</mgrwt>
</event>
<event>
12    1  0.1556559E-007  0.2692163E+04  0.7818608E-02  0.8337552E-01
          1   -1    0    0  501    0  0.00000000000E+00  0.00000000000E+00  0.15048580225E+04  0.15048580225E+04  0.00000000000E+00 0. -1.
         -1   -1    0    0    0  501 -0.00000000000E+00 -0.00000000000E+00 -0.12040570134E+04  0.12040570134E+04  0.00000000000E+00 0.  1.
         23    2    1    2    0    0 -0.66119556352E+03  0.38906173689E+03  0.10557658066E+04  0.13073440844E+04  0.77191374341E+02 0.  0.
        254    2    1    2    0    0  0.66119556352E+03 -0.38906173689E+03 -0.75496479752E+03  0.14015709515E+04  0.89770857086E+03 0.  0.
        -24    2    4    4    0    0  0.47389532898E+02 -0.21832108342E+03 -0.72030887967E+03  0.75835920381E+03  0.79711583739E+02 0.  0.
         24    2    4    4    0    0  0.61380603062E+03 -0.17074065347E+03 -0.34655917849E+02  0.64321174766E+03  0.81302556614E+02 0.  0.
         13    1    3    3    0    0 -0.51917233473E+03  0.27522532587E+03  0.83872851179E+03  0.10240871104E+04  0.00000000000E+00 0. -1.
        -13    1    3    3    0    0 -0.14202322879E+03  0.11383641102E+03  0.21703729485E+03  0.28325697404E+03  0.00000000000E+00 0.  1.
          4    1    6    6  502    0  0.49050206642E+03 -0.10469556713E+03 -0.13415796579E+02  0.50173042815E+03  0.00000000000E+00 0. -1.
          1    1    5    5  503    0  0.24698540302E+02 -0.87007252600E+01 -0.71000516614E+02  0.75675583067E+02  0.00000000000E+00 0. -1.
         -2    1    5    5    0  503  0.22690992596E+02 -0.20962035816E+03 -0.64930836306E+03  0.68268362075E+03  0.00000000000E+00 0.  1.
         -3    1    6    6    0  502  0.12330396420E+03 -0.66045086340E+02 -0.21240121270E+02  0.14148131951E+03  0.00000000000E+00 0.  1.
<mgrwt>
<rscale>  0 0.26921626E+04</rscale>
<asrwt>0</asrwt>
<pdfrwt beam="1">  1        1 0.23151662E+00 0.26921626E+04</pdfrwt>
<pdfrwt beam="2">  1       -1 0.18523954E+00 0.26921626E+04</pdfrwt>
<totfact> 0.10828824E+00</totfact>
</mgrwt>
</event>
<event>
12    1  0.1556559E-007  0.1951445E+04  0.7818608E-02  0.8629664E-01
         -1   -1    0    0    0  501 -0.00000000000E+00  0.00000000000E+00  0.11115635436E+04  0.11115635436E+04  0.00000000000E+00 0.  1.
          1   -1    0    0  501    0  0.00000000000E+00 -0.00000000000E+00 -0.85648216809E+03  0.85648216809E+03  0.00000000000E+00 0. -1.
         23    2    1    2    0    0 -0.49248248209E+03  0.58214349548E+03  0.13296271750E+03  0.77938490691E+03  0.91278170336E+02 0.  0.
        254    2    1    2    0    0  0.49248248209E+03 -0.58214349548E+03  0.12211865801E+03  0.11886608048E+04  0.90364345714E+03 0.  0.
        -24    2    4    4    0    0  0.16388323303E+03 -0.56951527348E+03  0.42567769025E+03  0.73398131868E+03  0.79509240994E+02 0.  0.
         24    2    4    4    0    0  0.32859924906E+03 -0.12628222000E+02 -0.30355903224E+03  0.45467948608E+03  0.80301995791E+02 0.  0.
         13    1    3    3    0    0 -0.55759118177E+02  0.98352657533E+02 -0.50848346043E+01  0.11317323026E+03  0.00000000000E+00 0.  1.
        -13    1    3    3    0    0 -0.43672336391E+03  0.48379083795E+03  0.13804755210E+03  0.66621167666E+03  0.00000000000E+00 0. -1.
          2    1    6    6  502    0  0.21051456620E+03 -0.54637431759E+01 -0.24374981664E+03  0.32211831396E+03  0.00000000000E+00 0. -1.
          1    1    5    5  503    0  0.54626840414E+02 -0.33019145024E+03  0.22956154489E+03  0.40584355163E+03  0.00000000000E+00 0. -1.
         -2    1    5    5    0  503  0.10925639261E+03 -0.23932382324E+03  0.19611614535E+03  0.32813776705E+03  0.00000000000E+00 0.  1.
         -1    1    6    6    0  502  0.11808468286E+03 -0.71644788237E+01 -0.59809215596E+02  0.13256117212E+03  0.00000000000E+00 0.  1.
<mgrwt>
<rscale>  0 0.19514450E+04</rscale>
<asrwt>0</asrwt>
<pdfrwt beam="1">  1        1 0.13176649E+00 0.19514450E+04</pdfrwt>
<pdfrwt beam="2">  1       -1 0.17100978E+00 0.19514450E+04</pdfrwt>
<totfact> 0.44563503E+00</totfact>
</mgrwt>
</event>
<event>
12    1  0.1556559E-007  0.1718265E+04  0.7818608E-02  0.8751015E-01
         -2   -1    0    0    0  501 -0.00000000000E+00  0.00000000000E+00  0.32553495735E+03  0.32553495735E+03  0.00000000000E+00 0.  1.
          2   -1    0    0  501    0  0.00000000000E+00 -0.00000000000E+00 -0.22673701715E+04  0.22673701715E+04  0.00000000000E+00 0. -1.
         23    2    1    2    0    0  0.59201336924E+03 -0.77903709628E+02 -0.46764889571E+03  0.76371802268E+03  0.89559539834E+02 0.  0.
        254    2    1    2    0    0 -0.59201336924E+03  0.77903709628E+02 -0.14741863185E+04  0.18291871062E+04  0.90341095333E+03 0.  0.
        -24    2    4    4    0    0 -0.40403668265E+03 -0.35219555390E+03 -0.46766886341E+03  0.71585656447E+03  0.80306325895E+02 0.  0.
         24    2    4    4    0    0 -0.18797668659E+03  0.43009926353E+03 -0.10065174550E+04  0.11133305417E+04  0.78146635421E+02 0.  0.
         11    1    3    3    0    0  0.64392853228E+02  0.83088945248E+01 -0.81640419302E+02  0.10431028396E+03  0.00000000000E+00 0. -1.
        -11    1    3    3    0    0  0.52762051601E+03 -0.86212604153E+02 -0.38600847641E+03  0.65940773873E+03  0.00000000000E+00 0.  1.
          4    1    6    6  502    0 -0.15386920492E+03  0.28410256187E+03 -0.74169811060E+03  0.80901550366E+03  0.00000000000E+00 0. -1.
          3    1    5    5  503    0 -0.31568864997E+02 -0.61872732026E+02 -0.52661293520E+02  0.87166737009E+02  0.00000000000E+00 0. -1.
         -4    1    5    5    0  503 -0.37246781765E+03 -0.29032282187E+03 -0.41500756989E+03  0.62868982746E+03  0.00000000000E+00 0.  1.
         -3    1    6    6    0  502 -0.34107481668E+02  0.14599670166E+03 -0.26481934444E+03  0.30431503806E+03  0.00000000000E+00 0.  1.
<mgrwt>
<rscale>  0 0.17182645E+04</rscale>
<asrwt>0</asrwt>
<pdfrwt beam="1">  1        2 0.34882619E+00 0.17182645E+04</pdfrwt>
<pdfrwt beam="2">  1       -2 0.50082300E-01 0.17182645E+04</pdfrwt>
<totfact> 0.16965263E+01</totfact>
</mgrwt>
</event>
<event>
12    1  0.1556559E-007  0.1660632E+04  0.7818608E-02  0.8784142E-01
          1   -1    0    0  501    0  0.00000000000E+00  0.00000000000E+00  0.46759958554E+03  0.46759958554E+03  0.00000000000E+00 0. -1.
         -1   -1    0    0    0  501 -0.00000000000E+00 -0.00000000000E+00 -0.14743905501E+04  0.14743905501E+04  0.00000000000E+00 0.  1.
         23    2    1    2    0    0 -0.13388986747E+02  0.47203297336E+03  0.46134332710E+02  0.48045288788E+03  0.75579149990E+02 0.  0.
        254    2    1    2    0    0  0.13388986747E+02 -0.47203297336E+03 -0.10529252972E+04  0.14615372477E+04  0.89690860852E+03 0.  0.
        -24    2    4    4    0    0  0.21369947462E+03 -0.42474474272E+03 -0.11097138432E+03  0.49407408169E+03  0.75623991855E+02 0.  0.
         24    2    4    4    0    0 -0.20031048787E+03 -0.47288230641E+02 -0.94195391289E+03  0.96746316602E+03  0.79670165593E+02 0.  0.
         11    1    3    3    0    0 -0.54832222327E+01  0.36977596739E+02  0.24685981541E+02  0.44797389112E+02  0.00000000000E+00 0.  1.
        -11    1    3    3    0    0 -0.79057645145E+01  0.43505537662E+03  0.21448351169E+02  0.43565549877E+03  0.00000000000E+00 0. -1.
          2    1    6    6  502    0 -0.13053725126E+03  0.77039558887E+01 -0.60724468971E+03  0.62116458212E+03  0.00000000000E+00 0. -1.
          1    1    5    5  503    0  0.18387525324E+03 -0.36476133993E+03 -0.12170418464E+03  0.42623098482E+03  0.00000000000E+00 0. -1.
         -2    1    5    5    0  503  0.29824221381E+02 -0.59983402786E+02  0.10732800316E+02  0.67843096874E+02  0.00000000000E+00 0.  1.
         -1    1    6    6    0  502 -0.69773236615E+02 -0.54992186529E+02 -0.33470922319E+03  0.34629858390E+03  0.00000000000E+00 0.  1.
<mgrwt>
<rscale>  0 0.16606317E+04</rscale>
<asrwt>0</asrwt>
<pdfrwt beam="1">  1        1 0.71938397E-01 0.16606317E+04</pdfrwt>
<pdfrwt beam="2">  1       -1 0.22682932E+00 0.16606317E+04</pdfrwt>
<totfact> 0.45970508E+00</totfact>
</mgrwt>
</event>
<event>
12    1  0.1556559E-007  0.1459691E+04  0.7818608E-02  0.8911709E-01
          2   -1    0    0  501    0  0.00000000000E+00  0.00000000000E+00  0.12626845395E+04  0.12626845395E+04  0.00000000000E+00 0. -1.
         -2   -1    0    0    0  501 -0.00000000000E+00 -0.00000000000E+00 -0.42185881741E+03  0.42185881741E+03  0.00000000000E+00 0.  1.
         23    2    1    2    0    0  0.29680704764E+03  0.59187396369E+02  0.64646084472E+03  0.72148883117E+03  0.10505683383E+03 0.  0.
        254    2    1    2    0    0 -0.29680704764E+03 -0.59187396369E+02  0.19436487733E+03  0.96305452569E+03  0.89336372351E+03 0.  0.
        -24    2    4    4    0    0 -0.55718487132E+03  0.58892863920E+02  0.30985290590E+03  0.64490937186E+03  0.77304103187E+02 0.  0.
         24    2    4    4    0    0  0.26037782367E+03 -0.11808026029E+03 -0.11548802857E+03  0.31814515383E+03  0.78353654864E+02 0.  0.
         13    1    3    3    0    0  0.17363655725E+03 -0.11689432671E+02  0.29688022492E+03  0.34412812265E+03  0.00000000000E+00 0.  1.
        -13    1    3    3    0    0  0.12317049039E+03  0.70876829040E+02  0.34958061980E+03  0.37736070853E+03  0.00000000000E+00 0. -1.
          4    1    6    6  502    0  0.19948498939E+03 -0.10461061541E+03 -0.12072212565E+03  0.25556109538E+03  0.00000000000E+00 0. -1.
          1    1    5    5  503    0 -0.33794346046E+03  0.16096053389E+02  0.14922832535E+03  0.36977555151E+03  0.00000000000E+00 0. -1.
         -2    1    5    5    0  503 -0.21924141085E+03  0.42796810531E+02  0.16062458055E+03  0.27513382035E+03  0.00000000000E+00 0.  1.
         -3    1    6    6    0  502  0.60892834281E+02 -0.13469644876E+02  0.52340970777E+01  0.62584058450E+02  0.00000000000E+00 0.  1.
<mgrwt>
<rscale>  0 0.14596912E+04</rscale>
<asrwt>0</asrwt>
<pdfrwt beam="1">  1        2 0.19425916E+00 0.14596912E+04</pdfrwt>
<pdfrwt beam="2">  1       -2 0.64901357E-01 0.14596912E+04</pdfrwt>
<totfact> 0.36902781E+01</totfact>
</mgrwt>
</event>
<event>
12    1  0.1556559E-007  0.2423006E+04  0.7818608E-02  0.8430940E-01
         -2   -1    0    0    0  501 -0.00000000000E+00  0.00000000000E+00  0.56134482265E+03  0.56134482265E+03  0.00000000000E+00 0.  1.
          2   -1    0    0  501    0  0.00000000000E+00 -0.00000000000E+00 -0.26146853202E+04  0.26146853202E+04  0.00000000000E+00 0. -1.
         23    2    1    2    0    0 -0.24019595694E+03  0.10143396973E+04 -0.97384575122E+03  0.14295593902E+04  0.93195405665E+02 0.  0.
        254    2    1    2    0    0  0.24019595694E+03 -0.10143396973E+04 -0.10794947463E+04  0.17464707527E+04  0.89346072296E+03 0.  0.
        -24    2    4    4    0    0 -0.33019955729E+03 -0.34598000181E+03 -0.46096428531E+03  0.66895266372E+03  0.79219219127E+02 0.  0.
         24    2    4    4    0    0  0.57039551422E+03 -0.66835969545E+03 -0.61853046097E+03  0.10775180889E+04  0.80059825718E+02 0.  0.
         13    1    3    3    0    0 -0.11312379382E+03  0.59622302781E+03 -0.61627831402E+03  0.86491493914E+03  0.00000000000E+00 0.  1.
        -13    1    3    3    0    0 -0.12707216312E+03  0.41811666945E+03 -0.35756743720E+03  0.56464445101E+03  0.00000000000E+00 0. -1.
          4    1    6    6  502    0  0.50581130116E+03 -0.58037447428E+03 -0.57086806717E+03  0.95842055117E+03  0.00000000000E+00 0. -1.
          3    1    5    5  503    0 -0.27606213554E+03 -0.30546335196E+03 -0.42742079884E+03  0.59347005093E+03  0.00000000000E+00 0. -1.
         -4    1    5    5    0  503 -0.54137421751E+02 -0.40516649847E+02 -0.33543486466E+02  0.75482612785E+02  0.00000000000E+00 0.  1.
         -3    1    6    6    0  502  0.64584213067E+02 -0.87985221163E+02 -0.47662393792E+02  0.11909753777E+03  0.00000000000E+00 0.  1.
<mgrwt>
<rscale>  0 0.24230065E+04</rscale>
<asrwt>0</asrwt>
<pdfrwt beam="1">  1        2 0.40225928E+00 0.24230065E+04</pdfrwt>
<pdfrwt beam="2">  1       -2 0.86360743E-01 0.24230065E+04</pdfrwt>
<totfact> 0.31111403E+00</totfact>
</mgrwt>
</event>
<event>
12    1  0.1556559E-007  0.1445404E+04  0.7818608E-02  0.8921593E-01
          2   -1    0    0  501    0  0.00000000000E+00  0.00000000000E+00  0.39355435987E+03  0.39355435987E+03  0.00000000000E+00 0. -1.
         -2   -1    0    0    0  501 -0.00000000000E+00 -0.00000000000E+00 -0.13271303729E+04  0.13271303729E+04  0.00000000000E+00 0.  1.
         23    2    1    2    0    0  0.89272592219E+02 -0.37187645871E+03 -0.68008116380E+02  0.39910098167E+03  0.91623105242E+02 0.  0.
        254    2    1    2    0    0 -0.89272592219E+02  0.37187645871E+03 -0.86556789669E+03  0.13215837511E+04  0.92255847035E+03 0.  0.
        -24    2    4    4    0    0 -0.18818092394E+03 -0.16415286923E+03 -0.69994750076E+03  0.74750843900E+03  0.80524145098E+02 0.  0.
         24    2    4    4    0    0  0.98908331723E+02  0.53602932794E+03 -0.16562039593E+03  0.57407531214E+03  0.70866423357E+02 0.  0.
         13    1    3    3    0    0  0.68682428669E+02 -0.22490719608E+03 -0.84279531931E+02  0.24980705026E+03  0.00000000000E+00 0.  1.
        -13    1    3    3    0    0  0.20590163550E+02 -0.14696926263E+03  0.16271415551E+02  0.14929393141E+03  0.00000000000E+00 0. -1.
          2    1    6    6  502    0  0.10865872024E+03  0.49365869787E+03 -0.14440961492E+03  0.52569930982E+03  0.00000000000E+00 0. -1.
          3    1    5    5  503    0 -0.15317801059E+03 -0.10346698235E+03 -0.41908729264E+03  0.45804265982E+03  0.00000000000E+00 0. -1.
         -2    1    5    5    0  503 -0.35002913352E+02 -0.60685886880E+02 -0.28086020812E+03  0.28946577918E+03  0.00000000000E+00 0.  1.
         -1    1    6    6    0  502 -0.97503885145E+01  0.42370630071E+02 -0.21210781013E+02  0.48376002315E+02  0.00000000000E+00 0.  1.
<mgrwt>
<rscale>  0 0.14454037E+04</rscale>
<asrwt>0</asrwt>
<pdfrwt beam="1">  1        2 0.60546824E-01 0.14454037E+04</pdfrwt>
<pdfrwt beam="2">  1       -2 0.20417391E+00 0.14454037E+04</pdfrwt>
<totfact> 0.98040965E+00</totfact>
</mgrwt>
</event>
<event>
12    1  0.1556559E-007  0.1907309E+04  0.7818608E-02  0.8651227E-01
          2   -1    0    0  501    0  0.00000000000E+00  0.00000000000E+00  0.14358496476E+04  0.14358496476E+04  0.00000000000E+00 0. -1.
         -2   -1    0    0    0  501 -0.00000000000E+00 -0.00000000000E+00 -0.63339308610E+03  0.63339308610E+03  0.00000000000E+00 0.  1.
         23    2    1    2    0    0 -0.30577617814E+02 -0.42726022328E+03 -0.33948366382E+03  0.55381152912E+03  0.89284728128E+02 0.  0.
        254    2    1    2    0    0  0.30577617814E+02  0.42726022328E+03  0.11419402253E+04  0.15154312046E+04  0.89945426148E+03 0.  0.
        -24    2    4    4    0    0  0.37554186106E+03  0.43298592165E+03  0.43525020335E+03  0.72502902461E+03  0.87839906965E+02 0.  0.
         24    2    4    4    0    0 -0.34496424325E+03 -0.57256983752E+01  0.70669002198E+03  0.79040217997E+03  0.79320276049E+02 0.  0.
         13    1    3    3    0    0  0.11948452867E+02 -0.85564664339E+02 -0.31869109972E+02  0.92085381466E+02  0.00000000000E+00 0. -1.
        -13    1    3    3    0    0 -0.42526070680E+02 -0.34169555894E+03 -0.30761455385E+03  0.46172614765E+03  0.00000000000E+00 0.  1.
          2    1    6    6  502    0 -0.29360611946E+03  0.11882342940E+02  0.64126342823E+03  0.70538254007E+03  0.00000000000E+00 0. -1.
          1    1    5    5  503    0  0.28645562232E+03  0.35935891661E+03  0.38281713258E+03  0.59811755659E+03  0.00000000000E+00 0. -1.
         -2    1    5    5    0  503  0.89086238743E+02  0.73627005040E+02  0.52433070766E+02  0.12691146802E+03  0.00000000000E+00 0.  1.
         -1    1    6    6    0  502 -0.51358123789E+02 -0.17608041315E+02  0.65426593753E+02  0.85019639897E+02  0.00000000000E+00 0.  1.
<mgrwt>
<rscale>  0 0.19073094E+04</rscale>
<asrwt>0</asrwt>
<pdfrwt beam="1">  1        2 0.22089994E+00 0.19073094E+04</pdfrwt>
<pdfrwt beam="2">  1       -2 0.97445091E-01 0.19073094E+04</pdfrwt>
<totfact> 0.11346397E+01</totfact>
</mgrwt>
</event>
<event>
12    1  0.1556559E-007  0.2282382E+04  0.7818608E-02  0.8484900E-01
          2   -1    0    0  501    0  0.00000000000E+00  0.00000000000E+00  0.33172144317E+04  0.33172144317E+04  0.00000000000E+00 0. -1.
         -2   -1    0    0    0  501 -0.00000000000E+00 -0.00000000000E+00 -0.39259367839E+03  0.39259367839E+03  0.00000000000E+00 0.  1.
         23    2    1    2    0    0 -0.57561125602E+03  0.29900814486E+03  0.83811029433E+02  0.66053028734E+03  0.92421767361E+02 0.  0.
        254    2    1    2    0    0  0.57561125602E+03 -0.29900814486E+03  0.28408097239E+04  0.30492778228E+04  0.89842148478E+03 0.  0.
        -24    2    4    4    0    0  0.59956517502E+03 -0.55176208179E+03  0.18428213243E+04  0.20165993073E+04  0.82234657869E+02 0.  0.
         24    2    4    4    0    0 -0.23953918997E+02  0.25275393693E+03  0.99798839956E+03  0.10326785154E+04  0.77367484801E+02 0.  0.
         13    1    3    3    0    0 -0.25586006874E+03  0.15853246054E+03  0.79253844510E+02  0.31125245010E+03  0.00000000000E+00 0.  1.
        -13    1    3    3    0    0 -0.31975118728E+03  0.14047568431E+03  0.45571849232E+01  0.34927783724E+03  0.00000000000E+00 0. -1.
          4    1    6    6  502    0  0.67942401231E+01  0.40458529114E+01  0.72187302397E+01  0.10707039316E+02  0.00000000000E+00 0. -1.
          3    1    5    5  503    0  0.18975043423E+03 -0.19233075518E+03  0.70327927858E+03  0.75339106072E+03  0.00000000000E+00 0. -1.
         -4    1    5    5    0  503  0.40981474079E+03 -0.35943132660E+03  0.11395420457E+04  0.12632082466E+04  0.00000000000E+00 0.  1.
         -3    1    6    6    0  502 -0.30748159120E+02  0.24870808402E+03  0.99076966932E+03  0.10219714761E+04  0.00000000000E+00 0.  1.
<mgrwt>
<rscale>  0 0.22823825E+04</rscale>
<asrwt>0</asrwt>
<pdfrwt beam="1">  1        2 0.51034066E+00 0.22823825E+04</pdfrwt>
<pdfrwt beam="2">  1       -2 0.60399030E-01 0.22823825E+04</pdfrwt>
<totfact> 0.25200414E+00</totfact>
</mgrwt>
</event>
<event>
12    1  0.1556559E-007  0.2624102E+04  0.7818608E-02  0.8360060E-01
         -2   -1    0    0    0  501 -0.00000000000E+00  0.00000000000E+00  0.15875755151E+04  0.15875755151E+04  0.00000000000E+00 0.  1.
          2   -1    0    0  501    0  0.00000000000E+00 -0.00000000000E+00 -0.10843439234E+04  0.10843439234E+04  0.00000000000E+00 0. -1.
         23    2    1    2    0    0  0.85899914830E+03  0.65976510812E+03  0.67809052905E+03  0.12811312117E+04  0.91218865275E+02 0.  0.
        254    2    1    2    0    0 -0.85899914830E+03 -0.65976510812E+03 -0.17485893736E+03  0.13907882267E+04  0.85472025187E+03 0.  0.
        -24    2    4    4    0    0 -0.66213548634E+02 -0.26228171552E+03  0.27447792026E+03  0.39331159047E+03  0.78612633615E+02 0.  0.
         24    2    4    4    0    0 -0.79278559967E+03 -0.39748339260E+03 -0.44933685762E+03  0.99747663627E+03  0.80956617013E+02 0.  0.
         11    1    3    3    0    0  0.15316914879E+03  0.15994002365E+03  0.12091126948E+03  0.25231158197E+03  0.00000000000E+00 0. -1.
        -11    1    3    3    0    0  0.70582999951E+03  0.49982508447E+03  0.55717925957E+03  0.10288196298E+04  0.00000000000E+00 0.  1.
          4    1    6    6  502    0 -0.72877399860E+03 -0.38384972775E+03 -0.40095664427E+03  0.91608863387E+03  0.00000000000E+00 0. -1.
          1    1    5    5  503    0 -0.34556931002E+02 -0.15304294372E+03  0.21138931023E+03  0.26325228315E+03  0.00000000000E+00 0. -1.
         -2    1    5    5    0  503 -0.31656617632E+02 -0.10923877180E+03  0.63088610035E+02  0.13005930732E+03  0.00000000000E+00 0.  1.
         -3    1    6    6    0  502 -0.64011601076E+02 -0.13633664847E+02 -0.48380213358E+02  0.81388002396E+02  0.00000000000E+00 0.  1.
<mgrwt>
<rscale>  0 0.26241020E+04</rscale>
<asrwt>0</asrwt>
<pdfrwt beam="1">  1        2 0.16682214E+00 0.26241020E+04</pdfrwt>
<pdfrwt beam="2">  1       -2 0.24424239E+00 0.26241020E+04</pdfrwt>
<totfact> 0.13713706E+00</totfact>
</mgrwt>
</event>
<event>
12    1  0.1556559E-007  0.2239276E+04  0.7818608E-02  0.8502256E-01
          2   -1    0    0  501    0  0.00000000000E+00  0.00000000000E+00  0.52189920753E+04  0.52189920753E+04  0.00000000000E+00 0. -1.
         -2   -1    0    0    0  501 -0.00000000000E+00 -0.00000000000E+00 -0.24019761062E+03  0.24019761062E+03  0.00000000000E+00 0.  1.
         23    2    1    2    0    0  0.23990543775E+03  0.74551938743E+03  0.82430426783E+03  0.11407318593E+04  0.91857894640E+02 0.  0.
        254    2    1    2    0    0 -0.23990543775E+03 -0.74551938743E+03  0.41544901969E+04  0.43184578266E+04  0.88087197045E+03 0.  0.
        -24    2    4    4    0    0 -0.21548598590E+03 -0.36888709873E+03  0.36857912341E+04  0.37113258743E+04  0.79817428414E+02 0.  0.
         24    2    4    4    0    0 -0.24419451854E+02 -0.37663228870E+03  0.46869896272E+03  0.60713195231E+03  0.80512727807E+02 0.  0.
         11    1    3    3    0    0  0.23812765374E+03  0.63786043599E+03  0.71295300933E+03  0.98583604560E+03  0.00000000000E+00 0.  1.
        -11    1    3    3    0    0  0.17777840186E+01  0.10765895144E+03  0.11135125849E+03  0.15489581372E+03  0.00000000000E+00 0. -1.
          2    1    6    6  502    0 -0.40352937263E+02 -0.36186460327E+03  0.44512161902E+03  0.57507182713E+03  0.00000000000E+00 0. -1.
          1    1    5    5  503    0 -0.19542952070E+03 -0.32765149481E+03  0.34567962317E+04  0.34777849829E+04  0.00000000000E+00 0. -1.
         -2    1    5    5    0  503 -0.20056465197E+02 -0.41235603918E+02  0.22899500246E+03  0.23354089145E+03  0.00000000000E+00 0.  1.
         -1    1    6    6    0  502  0.15933485409E+02 -0.14767685436E+02  0.23577343699E+02  0.32060125177E+02  0.00000000000E+00 0.  1.
<mgrwt>
<rscale>  0 0.22392762E+04</rscale>
<asrwt>0</asrwt>
<pdfrwt beam="1">  1        2 0.80292177E+00 0.22392762E+04</pdfrwt>
<pdfrwt beam="2">  1       -2 0.36953483E-01 0.22392762E+04</pdfrwt>
<totfact> 0.11100778E-01</totfact>
</mgrwt>
</event>
<event>
12    1  0.1556559E-007  0.1320390E+04  0.7818608E-02  0.9013550E-01
          1   -1    0    0  501    0  0.00000000000E+00  0.00000000000E+00  0.12413457141E+04  0.12413457141E+04  0.00000000000E+00 0. -1.
         -1   -1    0    0    0  501 -0.00000000000E+00 -0.00000000000E+00 -0.35111671921E+03  0.35111671921E+03  0.00000000000E+00 0.  1.
         23    2    1    2    0    0 -0.32576840343E+03  0.41927782732E+02  0.12396066804E+03  0.36233904594E+03  0.89667972834E+02 0.  0.
        254    2    1    2    0    0  0.32576840343E+03 -0.41927782732E+02  0.76626832681E+03  0.12301233873E+04  0.90451832914E+03 0.  0.
        -24    2    4    4    0    0  0.20398865122E+03  0.36692014928E+03  0.10647254210E+03  0.44034379247E+03  0.79526646929E+02 0.  0.
         24    2    4    4    0    0  0.12177975220E+03 -0.40884793201E+03  0.65979578471E+03  0.78977959486E+03  0.80214658197E+02 0.  0.
         11    1    3    3    0    0 -0.16057778833E+03  0.14392556039E+02  0.10812529857E+03  0.19412226035E+03  0.00000000000E+00 0. -1.
        -11    1    3    3    0    0 -0.16519061510E+03  0.27535226693E+02  0.15835369474E+02  0.16821678559E+03  0.00000000000E+00 0.  1.
          4    1    6    6  502    0  0.70715419526E+02 -0.12192179241E+03  0.24867561246E+03  0.28584113465E+03  0.00000000000E+00 0. -1.
          3    1    5    5  503    0  0.51116873586E+00  0.14614456894E+02  0.19386386721E+02  0.24283237714E+02  0.00000000000E+00 0. -1.
         -4    1    5    5    0  503  0.20347748249E+03  0.35230569238E+03  0.87086155380E+02  0.41606055476E+03  0.00000000000E+00 0.  1.
         -1    1    6    6    0  502  0.51064332679E+02 -0.28692613960E+03  0.41112017224E+03  0.50393846022E+03  0.00000000000E+00 0.  1.
<mgrwt>
<rscale>  0 0.13203897E+04</rscale>
<asrwt>0</asrwt>
<pdfrwt beam="1">  1        1 0.19097626E+00 0.13203897E+04</pdfrwt>
<pdfrwt beam="2">  1       -1 0.54017957E-01 0.13203897E+04</pdfrwt>
<totfact> 0.33834911E+01</totfact>
</mgrwt>
</event>
<event>
12    1  0.1556559E-007  0.2474805E+04  0.7818608E-02  0.8412017E-01
          2   -1    0    0  501    0  0.00000000000E+00  0.00000000000E+00  0.16332867352E+04  0.16332867352E+04  0.00000000000E+00 0. -1.
         -2   -1    0    0    0  501 -0.00000000000E+00 -0.00000000000E+00 -0.93747447538E+03  0.93747447538E+03  0.00000000000E+00 0.  1.
         23    2    1    2    0    0 -0.35917766352E+03 -0.99441137409E+03  0.48574951230E+03  0.11679612425E+04  0.10157903467E+03 0.  0.
        254    2    1    2    0    0  0.35917766352E+03  0.99441137409E+03  0.21006274748E+03  0.14027999681E+04  0.89769639505E+03 0.  0.
        -24    2    4    4    0    0  0.38479510380E+03  0.97252128688E+03  0.45477228417E+03  0.11432648144E+04  0.79822804030E+02 0.  0.
         24    2    4    4    0    0 -0.25617440284E+02  0.21890087213E+02 -0.24470953669E+03  0.25953515369E+03  0.79626060344E+02 0.  0.
         13    1    3    3    0    0  0.36532178650E+01 -0.52563511386E+02  0.19898628095E+02  0.56322501099E+02  0.00000000000E+00 0.  1.
        -13    1    3    3    0    0 -0.36283088139E+03 -0.94184786270E+03  0.46585088421E+03  0.11116387414E+04  0.00000000000E+00 0. -1.
          2    1    6    6  502    0  0.11881101421E+02  0.39197750360E+02 -0.81926189798E+02  0.91594349056E+02  0.00000000000E+00 0. -1.
          3    1    5    5  503    0  0.13664284546E+03  0.28915094095E+03  0.17243138981E+03  0.36333471904E+03  0.00000000000E+00 0. -1.
         -4    1    5    5    0  503  0.24815225835E+03  0.68337034593E+03  0.28234089437E+03  0.77993009536E+03  0.00000000000E+00 0.  1.
         -1    1    6    6    0  502 -0.37498541705E+02 -0.17307663147E+02 -0.16278334689E+03  0.16794080463E+03  0.00000000000E+00 0.  1.
<mgrwt>
<rscale>  0 0.24748047E+04</rscale>
<asrwt>0</asrwt>
<pdfrwt beam="1">  1        2 0.25127488E+00 0.24748047E+04</pdfrwt>
<pdfrwt beam="2">  1       -2 0.14422684E+00 0.24748047E+04</pdfrwt>
<totfact> 0.31735984E+00</totfact>
</mgrwt>
</event>
<event>
12    1  0.1556559E-007  0.1715187E+04  0.7818608E-02  0.8752750E-01
          2   -1    0    0  501    0  0.00000000000E+00  0.00000000000E+00  0.44255991800E+04  0.44255991800E+04  0.00000000000E+00 0. -1.
         -2   -1    0    0    0  501 -0.00000000000E+00 -0.00000000000E+00 -0.16618471375E+03  0.16618471375E+03  0.00000000000E+00 0.  1.
         23    2    1    2    0    0 -0.14931442206E+02 -0.29753787909E+03  0.10392545494E+03  0.32860008698E+03  0.91792044970E+02 0.  0.
        254    2    1    2    0    0  0.14931442206E+02  0.29753787909E+03  0.41554890114E+04  0.42631838068E+04  0.90437575691E+03 0.  0.
        -24    2    4    4    0    0 -0.23233850838E+02  0.48864957969E+03  0.11750348667E+04  0.12751587948E+04  0.77490583147E+02 0.  0.
         24    2    4    4    0    0  0.38165293044E+02 -0.19111170060E+03  0.29804541447E+04  0.29880250120E+04  0.84889882781E+02 0.  0.
         11    1    3    3    0    0 -0.33298247221E+02 -0.28474503711E+03  0.84276034004E+02  0.29881592885E+03  0.00000000000E+00 0.  1.
        -11    1    3    3    0    0  0.18366805015E+02 -0.12792841976E+02  0.19649420935E+02  0.29784158127E+02  0.00000000000E+00 0. -1.
          4    1    6    6  502    0 -0.12441529817E+02 -0.26602899645E+01  0.79097680158E+02  0.80114367084E+02  0.00000000000E+00 0. -1.
          3    1    5    5  503    0  0.28101053940E+02  0.13555139767E+03  0.33719879455E+03  0.36450909137E+03  0.00000000000E+00 0. -1.
         -4    1    5    5    0  503 -0.51334904778E+02  0.35309818202E+03  0.83783607212E+03  0.91064970342E+03  0.00000000000E+00 0.  1.
         -3    1    6    6    0  502  0.50606822861E+02 -0.18845141064E+03  0.29013564645E+04  0.29079106449E+04  0.00000000000E+00 0.  1.
<mgrwt>
<rscale>  0 0.17151874E+04</rscale>
<asrwt>0</asrwt>
<pdfrwt beam="1">  1        2 0.68086132E+00 0.17151874E+04</pdfrwt>
<pdfrwt beam="2">  1       -2 0.25566882E-01 0.17151874E+04</pdfrwt>
<totfact> 0.19471213E+00</totfact>
</mgrwt>
</event>
<event>
12    1  0.1556559E-007  0.2270292E+04  0.7818608E-02  0.8489728E-01
          1   -1    0    0  501    0  0.00000000000E+00  0.00000000000E+00  0.18079412064E+04  0.18079412064E+04  0.00000000000E+00 0. -1.
         -1   -1    0    0    0  501 -0.00000000000E+00 -0.00000000000E+00 -0.71272001958E+03  0.71272001958E+03  0.00000000000E+00 0.  1.
         23    2    1    2    0    0 -0.31565334956E+00 -0.67736570477E+03  0.12056554030E+04  0.13860018879E+04  0.92584473199E+02 0.  0.
        254    2    1    2    0    0  0.31565334956E+00  0.67736570477E+03 -0.11043421619E+03  0.11346593381E+04  0.90356610154E+03 0.  0.
        -24    2    4    4    0    0 -0.34921311442E+03 -0.49275573330E+01 -0.26140704009E+02  0.35920139049E+03  0.79801142934E+02 0.  0.
         24    2    4    4    0    0  0.34952876777E+03  0.68229326210E+03 -0.84293512186E+02  0.77545794764E+03  0.80840443769E+02 0.  0.
         11    1    3    3    0    0  0.58838499351E+01 -0.63958976428E+03  0.10858608381E+04  0.12602394399E+04  0.00000000000E+00 0. -1.
        -11    1    3    3    0    0 -0.61995032846E+01 -0.37775940491E+02  0.11979456496E+03  0.12576244795E+03  0.00000000000E+00 0.  1.
          4    1    6    6  502    0  0.19566154181E+02  0.11967642411E+02  0.34258320160E+01  0.23190411366E+02  0.00000000000E+00 0. -1.
          3    1    5    5  503    0 -0.32333067942E+02  0.54105565077E+00 -0.27225495317E+02  0.42272303214E+02  0.00000000000E+00 0. -1.
         -4    1    5    5    0  503 -0.31688004648E+03 -0.54686129838E+01  0.10847913084E+01  0.31692908727E+03  0.00000000000E+00 0.  1.
         -3    1    6    6    0  502  0.32996261359E+03  0.67032561969E+03 -0.87719344202E+02  0.75226753627E+03  0.00000000000E+00 0.  1.
<mgrwt>
<rscale>  0 0.22702915E+04</rscale>
<asrwt>0</asrwt>
<pdfrwt beam="1">  1        1 0.27814480E+00 0.22702915E+04</pdfrwt>
<pdfrwt beam="2">  1       -1 0.10964923E+00 0.22702915E+04</pdfrwt>
<totfact> 0.28035111E+00</totfact>
</mgrwt>
</event>
<event>
12    1  0.1556559E-007  0.1626408E+04  0.7818608E-02  0.8804487E-01
          1   -1    0    0  501    0  0.00000000000E+00  0.00000000000E+00  0.55676559744E+03  0.55676559744E+03  0.00000000000E+00 0. -1.
         -1   -1    0    0    0  501 -0.00000000000E+00 -0.00000000000E+00 -0.11877538031E+04  0.11877538031E+04  0.00000000000E+00 0.  1.
         23    2    1    2    0    0  0.32806907107E+03  0.44460598286E+03 -0.12606087048E+03  0.57404267480E+03  0.91268034035E+02 0.  0.
        254    2    1    2    0    0 -0.32806907107E+03 -0.44460598286E+03 -0.50492733517E+03  0.11704767257E+04  0.89986685475E+03 0.  0.
        -24    2    4    4    0    0 -0.37035127215E+03 -0.12594821525E+03 -0.68530808777E+03  0.79326426454E+03  0.81228077166E+02 0.  0.
         24    2    4    4    0    0  0.42282201079E+02 -0.31865776761E+03  0.18038075260E+03  0.37721246119E+03  0.80134060067E+02 0.  0.
         11    1    3    3    0    0  0.88125312404E+02  0.15800023731E+03 -0.44433824191E+01  0.18096930492E+03  0.00000000000E+00 0. -1.
        -11    1    3    3    0    0  0.23994375866E+03  0.28660574555E+03 -0.12161748806E+03  0.39307336988E+03  0.00000000000E+00 0.  1.
          4    1    6    6  502    0  0.25845312718E+02 -0.51989719612E+02  0.64615495793E+01  0.58418000289E+02  0.00000000000E+00 0. -1.
          3    1    5    5  503    0 -0.17658097782E+03 -0.18880807944E+02 -0.28436002476E+03  0.33525803543E+03  0.00000000000E+00 0. -1.
         -4    1    5    5    0  503 -0.19377029433E+03 -0.10706740731E+03 -0.40094806301E+03  0.45800622911E+03  0.00000000000E+00 0.  1.
         -3    1    6    6    0  502  0.16436888362E+02 -0.26666804800E+03  0.17391920302E+03  0.31879446090E+03  0.00000000000E+00 0.  1.
<mgrwt>
<rscale>  0 0.16264076E+04</rscale>
<asrwt>0</asrwt>
<pdfrwt beam="1">  1        1 0.85656246E-01 0.16264076E+04</pdfrwt>
<pdfrwt beam="2">  1       -1 0.18273135E+00 0.16264076E+04</pdfrwt>
<totfact> 0.72606488E+00</totfact>
</mgrwt>
</event>
<event>
12    1  0.1556559E-007  0.1395999E+04  0.7818608E-02  0.8956720E-01
          2   -1    0    0  501    0  0.00000000000E+00  0.00000000000E+00  0.15155806548E+04  0.15155806548E+04  0.00000000000E+00 0. -1.
         -2   -1    0    0    0  501 -0.00000000000E+00 -0.00000000000E+00 -0.32146299383E+03  0.32146299383E+03  0.00000000000E+00 0.  1.
         23    2    1    2    0    0  0.10090352020E+03  0.40647615954E+03  0.43098123824E+03  0.60753047747E+03  0.89129482668E+02 0.  0.
        254    2    1    2    0    0 -0.10090352020E+03 -0.40647615954E+03  0.76313642272E+03  0.12295131711E+04  0.86828627173E+03 0.  0.
        -24    2    4    4    0    0 -0.40253013447E+03 -0.72423021397E+02  0.62632923428E+03  0.75236168736E+03  0.80524503797E+02 0.  0.
         24    2    4    4    0    0  0.30162661427E+03 -0.33405313814E+03  0.13680718844E+03  0.47715148378E+03  0.79920073373E+02 0.  0.
         13    1    3    3    0    0  0.23361785705E+02  0.84792791496E+02  0.14786206488E+03  0.17204296194E+03  0.00000000000E+00 0.  1.
        -13    1    3    3    0    0  0.77541734495E+02  0.32168336804E+03  0.28311917336E+03  0.43548751554E+03  0.00000000000E+00 0. -1.
          4    1    6    6  502    0  0.50886809749E+02 -0.10670749499E+03  0.26342812970E+02  0.12111936546E+03  0.00000000000E+00 0. -1.
          3    1    5    5  503    0 -0.19209468962E+03  0.46665105194E+01  0.30900743141E+03  0.36387874185E+03  0.00000000000E+00 0. -1.
         -4    1    5    5    0  503 -0.21043544485E+03 -0.77089531916E+02  0.31732180287E+03  0.38848294551E+03  0.00000000000E+00 0.  1.
         -3    1    6    6    0  502  0.25073980452E+03 -0.22734564315E+03  0.11046437547E+03  0.35603211833E+03  0.00000000000E+00 0.  1.
<mgrwt>
<rscale>  0 0.13959987E+04</rscale>
<asrwt>0</asrwt>
<pdfrwt beam="1">  1        2 0.23316625E+00 0.13959987E+04</pdfrwt>
<pdfrwt beam="2">  1       -2 0.49455846E-01 0.13959987E+04</pdfrwt>
<totfact> 0.46853973E+01</totfact>
</mgrwt>
</event>
<event>
12    1  0.1556559E-007  0.1363677E+04  0.7818608E-02  0.8980539E-01
         -2   -1    0    0    0  501 -0.00000000000E+00  0.00000000000E+00  0.44568484036E+03  0.44568484036E+03  0.00000000000E+00 0.  1.
          2   -1    0    0  501    0  0.00000000000E+00 -0.00000000000E+00 -0.10431227902E+04  0.10431227902E+04  0.00000000000E+00 0. -1.
         23    2    1    2    0    0 -0.58920274280E+01  0.65516424215E+02 -0.56768657669E+03  0.57845672055E+03  0.89537759441E+02 0.  0.
        254    2    1    2    0    0  0.58920274280E+01 -0.65516424215E+02 -0.29751373176E+02  0.91035091003E+03  0.90748361823E+03 0.  0.
        -24    2    4    4    0    0  0.14133912563E+03  0.19212599089E+03 -0.37582841269E+03  0.45221742667E+03  0.79777568176E+02 0.  0.
         24    2    4    4    0    0 -0.13544709820E+03 -0.25764241511E+03  0.34607703952E+03  0.45813348336E+03  0.73426431385E+02 0.  0.
         11    1    3    3    0    0  0.36541885371E+02  0.68736186439E+01 -0.14969258643E+03  0.15424145503E+03  0.00000000000E+00 0. -1.
        -11    1    3    3    0    0 -0.42433912799E+02  0.58642805571E+02 -0.41799399026E+03  0.42421526551E+03  0.00000000000E+00 0.  1.
          2    1    6    6  502    0 -0.44992212652E+02 -0.16201576345E+03  0.20604651348E+03  0.26594843959E+03  0.00000000000E+00 0. -1.
          1    1    5    5  503    0  0.23923235436E+02  0.91958049559E+02 -0.17261510452E+03  0.19703953507E+03  0.00000000000E+00 0. -1.
         -2    1    5    5    0  503  0.11741589019E+03  0.10016794133E+03 -0.20321330817E+03  0.25517789159E+03  0.00000000000E+00 0.  1.
         -1    1    6    6    0  502 -0.90454885550E+02 -0.95626651662E+02  0.14003052603E+03  0.19218504377E+03  0.00000000000E+00 0.  1.
<mgrwt>
<rscale>  0 0.13636774E+04</rscale>
<asrwt>0</asrwt>
<pdfrwt beam="1">  1        2 0.16048043E+00 0.13636774E+04</pdfrwt>
<pdfrwt beam="2">  1       -2 0.68566898E-01 0.13636774E+04</pdfrwt>
<totfact> 0.44877570E+01</totfact>
</mgrwt>
</event>
<event>
12    1  0.1895669E-007  0.2002432E+04  0.7818608E-02  0.8605484E-01
          2   -1    0    0  501    0  0.00000000000E+00  0.00000000000E+00  0.16386128308E+04  0.16386128308E+04  0.00000000000E+00 0. -1.
         -2   -1    0    0    0  501 -0.00000000000E+00 -0.00000000000E+00 -0.61175744744E+03  0.61175744744E+03  0.00000000000E+00 0.  1.
         23    2    1    2    0    0 -0.31475777074E+03 -0.72407804527E+03  0.29678459926E+03  0.84865362552E+03  0.93650455739E+02 0.  0.
        254    2    1    2    0    0  0.31475777074E+03  0.72407804527E+03  0.73007078413E+03  0.14017166527E+04  0.89913555978E+03 0.  0.
        -24    2    4    4    0    0 -0.98288329900E+02 -0.12118621785E+03  0.33087973722E+03  0.37606686908E+03  0.87167622009E+02 0.  0.
         24    2    4    4    0    0  0.41304610064E+03  0.84526426312E+03  0.39919104691E+03  0.10256497837E+04  0.86748089563E+02 0.  0.
         11    1    3    3    0    0 -0.72015020129E+02 -0.87336152034E+02  0.52111103926E+02  0.12461674738E+03  0.00000000000E+00 0. -1.
        -11    1    3    3    0    0 -0.24274275062E+03 -0.63674189323E+03  0.24467349533E+03  0.72403687813E+03  0.00000000000E+00 0.  1.
          2    1    6    6  502    0  0.16528403913E+02  0.10842881106E+02  0.14362074409E+01  0.19819659391E+02  0.00000000000E+00 0. -1.
          3    1    5    5  503    0 -0.37170217360E+01  0.62804045988E+01  0.72257150665E+02  0.72624758552E+02  0.00000000000E+00 0. -1.
         -4    1    5    5    0  503 -0.94571308164E+02 -0.12746662245E+03  0.25862258655E+03  0.30344211053E+03  0.00000000000E+00 0.  1.
         -1    1    6    6    0  502  0.39651769673E+03  0.83442138201E+03  0.39775483947E+03  0.10058301243E+04  0.00000000000E+00 0.  1.
<mgrwt>
<rscale>  0 0.20024321E+04</rscale>
<asrwt>0</asrwt>
<pdfrwt beam="1">  1        2 0.25209428E+00 0.20024321E+04</pdfrwt>
<pdfrwt beam="2">  1       -2 0.94116531E-01 0.20024321E+04</pdfrwt>
<totfact> 0.93892708E+00</totfact>
</mgrwt>
</event>
<event>
12    1  0.1556559E-007  0.1763041E+04  0.7818608E-02  0.8726204E-01
         -2   -1    0    0    0  501 -0.00000000000E+00  0.00000000000E+00  0.80274069962E+03  0.80274069962E+03  0.00000000000E+00 0.  1.
          2   -1    0    0  501    0  0.00000000000E+00 -0.00000000000E+00 -0.96803215736E+03  0.96803215736E+03  0.00000000000E+00 0. -1.
         23    2    1    2    0    0  0.25482392299E+03  0.56505342319E+03 -0.22810778105E+03  0.66669014343E+03  0.90675160821E+02 0.  0.
        254    2    1    2    0    0 -0.25482392299E+03 -0.56505342319E+03  0.62816323308E+02  0.11040827136E+04  0.91149994246E+03 0.  0.
        -24    2    4    4    0    0 -0.58360686486E+03 -0.31740744780E+03 -0.46543099287E+02  0.67070473005E+03  0.79587148375E+02 0.  0.
         24    2    4    4    0    0  0.32878294187E+03 -0.24764597539E+03  0.10935942259E+03  0.43337798351E+03  0.80188785298E+02 0.  0.
         11    1    3    3    0    0  0.84340413953E+01 -0.89368457345E+00  0.41272806877E+00  0.84912938256E+01  0.00000000000E+00 0.  1.
        -11    1    3    3    0    0  0.24638988159E+03  0.56594710776E+03 -0.22852050912E+03  0.65819884960E+03  0.00000000000E+00 0. -1.
          2    1    6    6  502    0  0.16014400543E+02  0.46262394606E+01 -0.91272999477E+00  0.16694196367E+02  0.00000000000E+00 0. -1.
          1    1    5    5  503    0 -0.11424299122E+03 -0.87912391512E+02  0.13579635297E+02  0.14479107749E+03  0.00000000000E+00 0. -1.
         -2    1    5    5    0  503 -0.46936387364E+03 -0.22949505629E+03 -0.60122734584E+02  0.52591365256E+03  0.00000000000E+00 0.  1.
         -1    1    6    6    0  502  0.31276854133E+03 -0.25227221485E+03  0.11027215259E+03  0.41668378714E+03  0.00000000000E+00 0.  1.
<mgrwt>
<rscale>  0 0.17630415E+04</rscale>
<asrwt>0</asrwt>
<pdfrwt beam="1">  1        2 0.14892803E+00 0.17630415E+04</pdfrwt>
<pdfrwt beam="2">  1       -2 0.12349857E+00 0.17630415E+04</pdfrwt>
<totfact> 0.12363919E+01</totfact>
</mgrwt>
</event>
<event>
12    1  0.1556559E-007  0.1782965E+04  0.7818608E-02  0.8715412E-01
          1   -1    0    0  501    0  0.00000000000E+00  0.00000000000E+00  0.67064876201E+03  0.67064876201E+03  0.00000000000E+00 0. -1.
         -1   -1    0    0    0  501 -0.00000000000E+00 -0.00000000000E+00 -0.11850325689E+04  0.11850325689E+04  0.00000000000E+00 0.  1.
         23    2    1    2    0    0 -0.18360368464E+03 -0.15882298329E+02 -0.85374139003E+03  0.87835697610E+03  0.93134612312E+02 0.  0.
        254    2    1    2    0    0  0.18360368464E+03  0.15882298329E+02  0.33935758310E+03  0.97732435484E+03  0.89779550285E+03 0.  0.
        -24    2    4    4    0    0  0.51907950065E+03 -0.58171500395E+02  0.33342235938E+03  0.62454265870E+03  0.77817808715E+02 0.  0.
         24    2    4    4    0    0 -0.33547581600E+03  0.74053798724E+02  0.59352237214E+01  0.35278169613E+03  0.79948170826E+02 0.  0.
         11    1    3    3    0    0 -0.38109646922E+02 -0.29733439560E+02 -0.10648517008E+03  0.11694235359E+03  0.00000000000E+00 0. -1.
        -11    1    3    3    0    0 -0.14549403772E+03  0.13851141231E+02 -0.74725621995E+03  0.76141462252E+03  0.00000000000E+00 0.  1.
          4    1    6    6  502    0 -0.68773727687E+02  0.33747633432E+02 -0.26603698364E+02  0.81095531004E+02  0.00000000000E+00 0. -1.
          1    1    5    5  503    0  0.21080329670E+03 -0.50608994334E+02  0.17032291684E+03  0.27569765361E+03  0.00000000000E+00 0. -1.
         -4    1    5    5    0  503  0.30827620395E+03 -0.75625060612E+01  0.16309944254E+03  0.34884500509E+03  0.00000000000E+00 0.  1.
         -3    1    6    6    0  502 -0.26670208832E+03  0.40306165293E+02  0.32538922085E+02  0.27168616513E+03  0.00000000000E+00 0.  1.
<mgrwt>
<rscale>  0 0.17829645E+04</rscale>
<asrwt>0</asrwt>
<pdfrwt beam="1">  1        1 0.10317673E+00 0.17829645E+04</pdfrwt>
<pdfrwt beam="2">  1       -1 0.18231270E+00 0.17829645E+04</pdfrwt>
<totfact> 0.55015419E+00</totfact>
</mgrwt>
</event>
<event>
12    1  0.2330615E-007  0.1638649E+04  0.7818608E-02  0.8797150E-01
         -2   -1    0    0    0  501 -0.00000000000E+00  0.00000000000E+00  0.37575078765E+03  0.37575078765E+03  0.00000000000E+00 0.  1.
          2   -1    0    0  501    0  0.00000000000E+00 -0.00000000000E+00 -0.17865361537E+04  0.17865361537E+04  0.00000000000E+00 0. -1.
         23    2    1    2    0    0 -0.10632727259E+03 -0.46885844205E+03 -0.89786837366E+03  0.10225602102E+04  0.91258092406E+02 0.  0.
        254    2    1    2    0    0  0.10632727259E+03  0.46885844205E+03 -0.51291699236E+03  0.11397267311E+04  0.89708386065E+03 0.  0.
        -24    2    4    4    0    0 -0.94901028052E+02  0.63929141543E+03 -0.12499796412E+03  0.66306855773E+03  0.79597124633E+02 0.  0.
         24    2    4    4    0    0  0.20122830064E+03 -0.17043297338E+03 -0.38791902824E+03  0.47665817341E+03  0.84744406400E+02 0.  0.
         13    1    3    3    0    0 -0.10522287960E+03 -0.38765389708E+03 -0.80161200918E+03  0.89662099662E+03  0.00000000000E+00 0. -1.
        -13    1    3    3    0    0 -0.11043929832E+01 -0.81204544973E+02 -0.96256364482E+02  0.12593921356E+03  0.00000000000E+00 0.  1.
          2    1    6    6  502    0  0.19942750962E+03 -0.17681904013E+03 -0.35978111158E+03  0.44774853746E+03  0.00000000000E+00 0. -1.
          3    1    5    5  503    0 -0.10047052627E+03  0.62039961358E+03 -0.10937407123E+03  0.63792844006E+03  0.00000000000E+00 0. -1.
         -4    1    5    5    0  503  0.55694982212E+01  0.18891801850E+02 -0.15623892886E+02  0.25140117670E+02  0.00000000000E+00 0.  1.
         -1    1    6    6    0  502  0.18007910204E+01  0.63860667563E+01 -0.28137916661E+02  0.28909635953E+02  0.00000000000E+00 0.  1.
<mgrwt>
<rscale>  0 0.16386487E+04</rscale>
<asrwt>0</asrwt>
<pdfrwt beam="1">  1        2 0.27485171E+00 0.16386487E+04</pdfrwt>
<pdfrwt beam="2">  1       -2 0.57807814E-01 0.16386487E+04</pdfrwt>
<totfact> 0.23511316E+01</totfact>
</mgrwt>
</event>
<event>
12    1  0.1556559E-007  0.1598921E+04  0.7818608E-02  0.8821211E-01
         -1   -1    0    0    0  501 -0.00000000000E+00  0.00000000000E+00  0.88391723268E+03  0.88391723268E+03  0.00000000000E+00 0.  1.
          1   -1    0    0  501    0  0.00000000000E+00 -0.00000000000E+00 -0.72307361241E+03  0.72307361241E+03  0.00000000000E+00 0. -1.
         23    2    1    2    0    0  0.41509081139E+03  0.34312877775E+03  0.70455611005E+01  0.54612876208E+03  0.90383875885E+02 0.  0.
        254    2    1    2    0    0 -0.41509081139E+03 -0.34312877775E+03  0.15379805917E+03  0.10608620830E+04  0.90096435908E+03 0.  0.
        -24    2    4    4    0    0 -0.48481655110E+03 -0.54243707351E+03 -0.79546490736E+02  0.73623611615E+03  0.80192939797E+02 0.  0.
         24    2    4    4    0    0  0.69725739710E+02  0.19930829575E+03  0.23334454990E+03  0.32462596686E+03  0.79667206895E+02 0.  0.
         11    1    3    3    0    0  0.84335795477E+02  0.51399184682E+02 -0.30865625407E+02  0.10347506664E+03  0.00000000000E+00 0.  1.
        -11    1    3    3    0    0  0.33075501591E+03  0.29172959307E+03  0.37911186508E+02  0.44265369544E+03  0.00000000000E+00 0. -1.
          4    1    6    6  502    0  0.28461776064E+02  0.15308615029E+02  0.13596858239E+02  0.35061388233E+02  0.00000000000E+00 0. -1.
          3    1    5    5  503    0 -0.23831939262E+03 -0.21145727118E+03 -0.19463114466E+02  0.31920075698E+03  0.00000000000E+00 0. -1.
         -2    1    5    5    0  503 -0.24649715848E+03 -0.33097980233E+03 -0.60083376269E+02  0.41703535917E+03  0.00000000000E+00 0.  1.
         -1    1    6    6    0  502  0.41263963645E+02  0.18399968073E+03  0.21974769166E+03  0.28956457862E+03  0.00000000000E+00 0.  1.
<mgrwt>
<rscale>  0 0.15989212E+04</rscale>
<asrwt>0</asrwt>
<pdfrwt beam="1">  1        1 0.11124209E+00 0.15989212E+04</pdfrwt>
<pdfrwt beam="2">  1       -1 0.13598727E+00 0.15989212E+04</pdfrwt>
<totfact> 0.11248355E+01</totfact>
</mgrwt>
</event>
<event>
12    1  0.1556559E-007  0.1174062E+04  0.7818608E-02  0.9135868E-01
          2   -1    0    0  501    0  0.00000000000E+00  0.00000000000E+00  0.43534726863E+03  0.43534726863E+03  0.00000000000E+00 0. -1.
         -2   -1    0    0    0  501 -0.00000000000E+00 -0.00000000000E+00 -0.79156484009E+03  0.79156484009E+03  0.00000000000E+00 0.  1.
         23    2    1    2    0    0 -0.12783087584E+03 -0.90888213181E+02  0.12164220499E+03  0.21885810515E+03  0.92198937334E+02 0.  0.
        254    2    1    2    0    0  0.12783087584E+03  0.90888213181E+02 -0.47785977645E+03  0.10080540036E+04  0.87362549645E+03 0.  0.
        -24    2    4    4    0    0 -0.20888073616E+03  0.13822864140E+03  0.13988919246E+03  0.29816798957E+03  0.81220961545E+02 0.  0.
         24    2    4    4    0    0  0.33671161200E+03 -0.47340428218E+02 -0.61774896891E+03  0.70988601399E+03  0.81905668117E+02 0.  0.
         13    1    3    3    0    0 -0.88205613072E+02 -0.71328636112E+02  0.13141276571E+03  0.17360103542E+03  0.00000000000E+00 0. -1.
        -13    1    3    3    0    0 -0.39625262764E+02 -0.19559577069E+02 -0.97705607228E+01  0.45257069736E+02  0.00000000000E+00 0.  1.
          4    1    6    6  502    0  0.24636755423E+03 -0.53876616013E+02 -0.51131864444E+03  0.57012842210E+03  0.00000000000E+00 0. -1.
          1    1    5    5  503    0 -0.21419548219E+03  0.12835192270E+03  0.12422121519E+03  0.27889932046E+03  0.00000000000E+00 0. -1.
         -2    1    5    5    0  503  0.53147460223E+01  0.98767187004E+01  0.15667977273E+02  0.19268669113E+02  0.00000000000E+00 0.  1.
         -3    1    6    6    0  502  0.90344057770E+02  0.65361877952E+01 -0.10643032448E+03  0.13975759190E+03  0.00000000000E+00 0.  1.
<mgrwt>
<rscale>  0 0.11740623E+04</rscale>
<asrwt>0</asrwt>
<pdfrwt beam="1">  1        2 0.66976503E-01 0.11740623E+04</pdfrwt>
<pdfrwt beam="2">  1       -2 0.12177921E+00 0.11740623E+04</pdfrwt>
<totfact> 0.36528571E+01</totfact>
</mgrwt>
</event>
<event>
12    1  0.1556559E-007  0.2174241E+04  0.7818608E-02  0.8529227E-01
          2   -1    0    0  501    0  0.00000000000E+00  0.00000000000E+00  0.23500064816E+04  0.23500064816E+04  0.00000000000E+00 0. -1.
         -2   -1    0    0    0  501 -0.00000000000E+00 -0.00000000000E+00 -0.50290530245E+03  0.50290530245E+03  0.00000000000E+00 0.  1.
         23    2    1    2    0    0  0.46413138096E+03  0.75258358398E+03  0.57411299096E+03  0.10585254908E+04  0.95239164962E+02 0.  0.
        254    2    1    2    0    0 -0.46413138096E+03 -0.75258358398E+03  0.12729881882E+04  0.17943862933E+04  0.90416992461E+03 0.  0.
        -24    2    4    4    0    0 -0.69599590412E+03 -0.47828630880E+03  0.10958152216E+04  0.13857643415E+04  0.79772917259E+02 0.  0.
         24    2    4    4    0    0  0.23186452317E+03 -0.27429727518E+03  0.17717296654E+03  0.40862195182E+03  0.81126365394E+02 0.  0.
         11    1    3    3    0    0  0.23338837592E+03  0.36482452089E+03  0.22521038664E+03  0.48814627245E+03  0.00000000000E+00 0. -1.
        -11    1    3    3    0    0  0.23074300504E+03  0.38775906309E+03  0.34890260432E+03  0.57037921831E+03  0.00000000000E+00 0.  1.
          4    1    6    6  502    0  0.15677569452E+03 -0.22364384740E+03  0.10425950184E+03  0.29234437329E+03  0.00000000000E+00 0. -1.
          3    1    5    5  503    0 -0.28778569021E+03 -0.15072692741E+03  0.41911385477E+03  0.53027882609E+03  0.00000000000E+00 0. -1.
         -4    1    5    5    0  503 -0.40821021391E+03 -0.32755938139E+03  0.67670136688E+03  0.85548551537E+03  0.00000000000E+00 0.  1.
         -3    1    6    6    0  502  0.75088828649E+02 -0.50653427781E+02  0.72913464703E+02  0.11627757853E+03  0.00000000000E+00 0.  1.
<mgrwt>
<rscale>  0 0.21742408E+04</rscale>
<asrwt>0</asrwt>
<pdfrwt beam="1">  1        2 0.36153945E+00 0.21742408E+04</pdfrwt>
<pdfrwt beam="2">  1       -2 0.77370048E-01 0.21742408E+04</pdfrwt>
<totfact> 0.57945736E+00</totfact>
</mgrwt>
</event>
<event>
12    1  0.1556559E-007  0.1387215E+04  0.7818608E-02  0.8963125E-01
         -1   -1    0    0    0  501 -0.00000000000E+00  0.00000000000E+00  0.18522011336E+03  0.18522011336E+03  0.00000000000E+00 0.  1.
          1   -1    0    0  501    0  0.00000000000E+00 -0.00000000000E+00 -0.25974042142E+04  0.25974042142E+04  0.00000000000E+00 0. -1.
         23    2    1    2    0    0  0.17247735341E+02  0.51484682253E+02  0.77227263354E+02  0.13250689401E+03  0.92983169839E+02 0.  0.
        254    2    1    2    0    0 -0.17247735341E+02 -0.51484682253E+02 -0.24894113642E+04  0.26501174336E+04  0.90719640354E+03 0.  0.
        -24    2    4    4    0    0  0.29573751700E+03 -0.22709064315E+03 -0.50832352805E+03  0.63516389073E+03  0.77521092282E+02 0.  0.
         24    2    4    4    0    0 -0.31298525234E+03  0.17560596090E+03 -0.19810878362E+04  0.20149535428E+04  0.80817965602E+02 0.  0.
         11    1    3    3    0    0  0.43534209666E+02  0.52050694030E+02  0.81303994709E+02  0.10590014974E+03  0.00000000000E+00 0.  1.
        -11    1    3    3    0    0 -0.26286474325E+02 -0.56601177724E+00 -0.40767313543E+01  0.26606744264E+02  0.00000000000E+00 0. -1.
          4    1    6    6  502    0 -0.12996654256E+03  0.10991005517E+03 -0.10583053008E+04  0.10719056078E+04  0.00000000000E+00 0. -1.
          3    1    5    5  503    0  0.16644734747E+03 -0.16414343209E+03 -0.27331461087E+03  0.35965075044E+03  0.00000000000E+00 0. -1.
         -4    1    5    5    0  503  0.12929016953E+03 -0.62947211065E+02 -0.23500891718E+03  0.27551314029E+03  0.00000000000E+00 0.  1.
         -3    1    6    6    0  502 -0.18301870978E+03  0.65695905727E+02 -0.92278253537E+03  0.94304793502E+03  0.00000000000E+00 0.  1.
<mgrwt>
<rscale>  0 0.13872152E+04</rscale>
<asrwt>0</asrwt>
<pdfrwt beam="1">  1        1 0.39960064E+00 0.13872152E+04</pdfrwt>
<pdfrwt beam="2">  1       -1 0.28495402E-01 0.13872152E+04</pdfrwt>
<totfact> 0.12683749E+01</totfact>
</mgrwt>
</event>
<event>
12    1  0.1556559E-007  0.1851115E+04  0.7818608E-02  0.8679580E-01
          1   -1    0    0  501    0  0.00000000000E+00  0.00000000000E+00  0.17342827061E+04  0.17342827061E+04  0.00000000000E+00 0. -1.
         -1   -1    0    0    0  501 -0.00000000000E+00 -0.00000000000E+00 -0.49395447593E+03  0.49395447593E+03  0.00000000000E+00 0.  1.
         23    2    1    2    0    0  0.45764243421E+03  0.36691037309E+03  0.94796368130E+03  0.11189250980E+04  0.96428286553E+02 0.  0.
        254    2    1    2    0    0 -0.45764243421E+03 -0.36691037309E+03  0.29236454883E+03  0.11093120840E+04  0.89500639705E+03 0.  0.
        -24    2    4    4    0    0 -0.68554563237E+03 -0.10032398337E+03  0.27529860983E+03  0.74977095106E+03  0.79557770083E+02 0.  0.
         24    2    4    4    0    0  0.22790319817E+03 -0.26658638972E+03  0.17065939004E+02  0.35954113290E+03  0.77268422107E+02 0.  0.
         11    1    3    3    0    0  0.44485437740E+03  0.33205718574E+03  0.90904830954E+03  0.10651414088E+04  0.00000000000E+00 0. -1.
        -11    1    3    3    0    0  0.12788056808E+02  0.34853187351E+02  0.38915371761E+02  0.53783689208E+02  0.00000000000E+00 0.  1.
          2    1    6    6  502    0  0.42176849622E+02 -0.12979575203E+02 -0.50800714042E+01  0.44420301011E+02  0.00000000000E+00 0. -1.
          1    1    5    5  503    0 -0.19899559306E+03 -0.11458706158E+02  0.11352813668E+03  0.22938872209E+03  0.00000000000E+00 0. -1.
         -2    1    5    5    0  503 -0.48655003932E+03 -0.88865277209E+02  0.16177047315E+03  0.52038222898E+03  0.00000000000E+00 0.  1.
         -1    1    6    6    0  502  0.18572634855E+03 -0.25360681452E+03  0.22146010408E+02  0.31512083189E+03  0.00000000000E+00 0.  1.
<mgrwt>
<rscale>  0 0.18511150E+04</rscale>
<asrwt>0</asrwt>
<pdfrwt beam="1">  1        1 0.26681272E+00 0.18511150E+04</pdfrwt>
<pdfrwt beam="2">  1       -1 0.75992997E-01 0.18511150E+04</pdfrwt>
<totfact> 0.73787502E+00</totfact>
</mgrwt>
</event>
<event>
12    1  0.1556559E-007  0.1869777E+04  0.7818608E-02  0.8670048E-01
         -1   -1    0    0    0  501 -0.00000000000E+00  0.00000000000E+00  0.10695307676E+04  0.10695307676E+04  0.00000000000E+00 0.  1.
          1   -1    0    0  501    0  0.00000000000E+00 -0.00000000000E+00 -0.81719598892E+03  0.81719598892E+03  0.00000000000E+00 0. -1.
         23    2    1    2    0    0 -0.42787139897E+03  0.12338452834E+03 -0.46676420832E+03  0.65117822591E+03  0.88693741834E+02 0.  0.
        254    2    1    2    0    0  0.42787139897E+03 -0.12338452834E+03  0.71909898701E+03  0.12355485306E+04  0.90065484094E+03 0.  0.
        -24    2    4    4    0    0 -0.15858383835E+03 -0.13869923937E+03  0.58687249756E+03  0.62846359798E+03  0.78491100138E+02 0.  0.
         24    2    4    4    0    0  0.58645523733E+03  0.15314711032E+02  0.13222648944E+03  0.60708493264E+03  0.83090223042E+02 0.  0.
         13    1    3    3    0    0 -0.47477428955E+02  0.44384904080E+02 -0.78529447220E+02  0.10193625484E+03  0.00000000000E+00 0.  1.
        -13    1    3    3    0    0 -0.38039397002E+03  0.78999624256E+02 -0.38823476110E+03  0.54924197107E+03  0.00000000000E+00 0. -1.
          4    1    6    6  502    0  0.37691731912E+03 -0.26979733038E+02  0.10015039661E+03  0.39092796445E+03  0.00000000000E+00 0. -1.
          3    1    5    5  503    0 -0.16545579372E+03 -0.12148550699E+03  0.55273792052E+03  0.58962153697E+03  0.00000000000E+00 0. -1.
         -4    1    5    5    0  503  0.68719553711E+01 -0.17213732380E+02  0.34134577045E+02  0.38842061005E+02  0.00000000000E+00 0.  1.
         -3    1    6    6    0  502  0.20953791821E+03  0.42294444070E+02  0.32076092835E+02  0.21615696819E+03  0.00000000000E+00 0.  1.
<mgrwt>
<rscale>  0 0.18697767E+04</rscale>
<asrwt>0</asrwt>
<pdfrwt beam="1">  1        1 0.12572246E+00 0.18697767E+04</pdfrwt>
<pdfrwt beam="2">  1       -1 0.16454320E+00 0.18697767E+04</pdfrwt>
<totfact> 0.54124105E+00</totfact>
</mgrwt>
</event>
<event>
12    1  0.1556559E-007  0.1183849E+04  0.7818608E-02  0.9127112E-01
          2   -1    0    0  501    0  0.00000000000E+00  0.00000000000E+00  0.66370625143E+03  0.66370625143E+03  0.00000000000E+00 0. -1.
         -2   -1    0    0    0  501 -0.00000000000E+00 -0.00000000000E+00 -0.52790579474E+03  0.52790579474E+03  0.00000000000E+00 0.  1.
         23    2    1    2    0    0 -0.16182892987E+03  0.36583908190E+02  0.21733192041E+03  0.28796164546E+03  0.90342463685E+02 0.  0.
        254    2    1    2    0    0  0.16182892987E+03 -0.36583908190E+02 -0.81531463712E+02  0.90365040071E+03  0.88453924856E+03 0.  0.
        -24    2    4    4    0    0  0.16697032762E+02  0.74108869799E+01  0.39260206857E+03  0.39945654931E+03  0.71382339496E+02 0.  0.
         24    2    4    4    0    0  0.14513189711E+03 -0.43994795170E+02 -0.47413353228E+03  0.50419385140E+03  0.80062624193E+02 0.  0.
         11    1    3    3    0    0 -0.71086624665E+02  0.18079815515E+02  0.16736365677E+03  0.18273144651E+03  0.00000000000E+00 0. -1.
        -11    1    3    3    0    0 -0.90742305207E+02  0.18504092675E+02  0.49968263637E+02  0.10523019895E+03  0.00000000000E+00 0.  1.
          2    1    6    6  502    0  0.32532612877E+02 -0.14365501822E+02 -0.24092509242E+03  0.24353570313E+03  0.00000000000E+00 0. -1.
          3    1    5    5  503    0 -0.18382838363E+02 -0.95460430553E+00  0.29210891827E+03  0.29268833279E+03  0.00000000000E+00 0. -1.
         -4    1    5    5    0  503  0.35079871124E+02  0.83654912855E+01  0.10049315030E+03  0.10676821652E+03  0.00000000000E+00 0.  1.
         -1    1    6    6    0  502  0.11259928423E+03 -0.29629293348E+02 -0.23320843987E+03  0.26065814827E+03  0.00000000000E+00 0.  1.
<mgrwt>
<rscale>  0 0.11838486E+04</rscale>
<asrwt>0</asrwt>
<pdfrwt beam="1">  1        2 0.10210865E+00 0.11838486E+04</pdfrwt>
<pdfrwt beam="2">  1       -2 0.81216275E-01 0.11838486E+04</pdfrwt>
<totfact> 0.57848252E+01</totfact>
</mgrwt>
</event>
<event>
12    1  0.1556559E-007  0.1541407E+04  0.7818608E-02  0.8857375E-01
          2   -1    0    0  501    0  0.00000000000E+00  0.00000000000E+00  0.10693164206E+04  0.10693164206E+04  0.00000000000E+00 0. -1.
         -2   -1    0    0    0  501 -0.00000000000E+00 -0.00000000000E+00 -0.55547972109E+03  0.55547972109E+03  0.00000000000E+00 0.  1.
         23    2    1    2    0    0 -0.38259713037E+03  0.25376265869E+03  0.32578073266E+03  0.56829940435E+03  0.77814369496E+02 0.  0.
        254    2    1    2    0    0  0.38259713037E+03 -0.25376265869E+03  0.18805596682E+03  0.10564967373E+04  0.93276162987E+03 0.  0.
        -24    2    4    4    0    0 -0.20930845379E+03  0.73682319192E+02  0.28301481319E+03  0.36821183115E+03  0.79015537200E+02 0.  0.
         24    2    4    4    0    0  0.59190558416E+03 -0.32744497788E+03 -0.94958846376E+02  0.68828490615E+03  0.84536947134E+02 0.  0.
         11    1    3    3    0    0 -0.13643872453E+03  0.10798627502E+03  0.16666009077E+03  0.24094013157E+03  0.00000000000E+00 0. -1.
        -11    1    3    3    0    0 -0.24615840584E+03  0.14577638367E+03  0.15912064189E+03  0.32735927278E+03  0.00000000000E+00 0.  1.
          2    1    6    6  502    0  0.32763741401E+03 -0.22336433213E+03 -0.74968102975E+02  0.40355683168E+03  0.00000000000E+00 0. -1.
          1    1    5    5  503    0 -0.12763989124E+02  0.26518792067E+02  0.16564001338E+02  0.33771761746E+02  0.00000000000E+00 0. -1.
         -2    1    5    5    0  503 -0.19654446467E+03  0.47163527124E+02  0.26645081186E+03  0.33444006940E+03  0.00000000000E+00 0.  1.
         -1    1    6    6    0  502  0.26426817015E+03 -0.10408064576E+03 -0.19990743401E+02  0.28472807448E+03  0.00000000000E+00 0.  1.
<mgrwt>
<rscale>  0 0.15414066E+04</rscale>
<asrwt>0</asrwt>
<pdfrwt beam="1">  1        2 0.16451022E+00 0.15414066E+04</pdfrwt>
<pdfrwt beam="2">  1       -2 0.85458418E-01 0.15414066E+04</pdfrwt>
<totfact> 0.26102579E+01</totfact>
</mgrwt>
</event>
<event>
12    1  0.1556559E-007  0.2207205E+04  0.7818608E-02  0.8515435E-01
         -2   -1    0    0    0  501 -0.00000000000E+00  0.00000000000E+00  0.40088218105E+03  0.40088218105E+03  0.00000000000E+00 0.  1.
          2   -1    0    0  501    0  0.00000000000E+00 -0.00000000000E+00 -0.30381446475E+04  0.30381446475E+04  0.00000000000E+00 0. -1.
         23    2    1    2    0    0  0.16707288186E+03 -0.89970857331E+03 -0.10468682516E+04  0.13932432809E+04  0.88344998890E+02 0.  0.
        254    2    1    2    0    0 -0.16707288186E+03  0.89970857331E+03 -0.15903942149E+04  0.20457835477E+04  0.90470310075E+03 0.  0.
        -24    2    4    4    0    0 -0.14041925698E+03  0.98219519189E+03 -0.88997207364E+03  0.13351600300E+04  0.78594217953E+02 0.  0.
         24    2    4    4    0    0 -0.26653624880E+02 -0.82486618587E+02 -0.70042214124E+03  0.71062351770E+03  0.82946669649E+02 0.  0.
         11    1    3    3    0    0  0.16133442336E+03 -0.77680757672E+03 -0.94188483884E+03  0.12315055246E+04  0.00000000000E+00 0. -1.
        -11    1    3    3    0    0  0.57384584955E+01 -0.12290099658E+03 -0.10498341277E+03  0.16173775633E+03  0.00000000000E+00 0.  1.
          2    1    6    6  502    0  0.14891577541E+02 -0.26415919792E+02 -0.43904007293E+03  0.44008606605E+03  0.00000000000E+00 0. -1.
          1    1    5    5  503    0 -0.90420799406E+02  0.69987453174E+03 -0.67783573021E+03  0.97849964655E+03  0.00000000000E+00 0. -1.
         -2    1    5    5    0  503 -0.49998457572E+02  0.28232066015E+03 -0.21213634344E+03  0.35666038344E+03  0.00000000000E+00 0.  1.
         -1    1    6    6    0  502 -0.41545202421E+02 -0.56070698796E+02 -0.26138206831E+03  0.27053745164E+03  0.00000000000E+00 0.  1.
<mgrwt>
<rscale>  0 0.22072046E+04</rscale>
<asrwt>0</asrwt>
<pdfrwt beam="1">  1        2 0.46740686E+00 0.22072046E+04</pdfrwt>
<pdfrwt beam="2">  1       -2 0.61674182E-01 0.22072046E+04</pdfrwt>
<totfact> 0.36814421E+00</totfact>
</mgrwt>
</event>
<event>
12    1  0.1556559E-007  0.2663674E+04  0.7818608E-02  0.8346888E-01
         -1   -1    0    0    0  501 -0.00000000000E+00  0.00000000000E+00  0.92694044698E+03  0.92694044698E+03  0.00000000000E+00 0.  1.
          1   -1    0    0  501    0  0.00000000000E+00 -0.00000000000E+00 -0.19135968153E+04  0.19135968153E+04  0.00000000000E+00 0. -1.
         23    2    1    2    0    0  0.52434432664E+03  0.37039217964E+02 -0.15599222197E+04  0.16491468079E+04  0.10009488430E+03 0.  0.
        254    2    1    2    0    0 -0.52434432664E+03 -0.37039217964E+02  0.57326585139E+03  0.11913904544E+04  0.90247914210E+03 0.  0.
        -24    2    4    4    0    0 -0.68522790330E+03 -0.27575962482E+03  0.43958242216E+03  0.86336117013E+03  0.81111984747E+02 0.  0.
         24    2    4    4    0    0  0.16088357666E+03  0.23872040685E+03  0.13368342922E+03  0.32802928428E+03  0.82831118585E+02 0.  0.
         11    1    3    3    0    0  0.22052514427E+03  0.46473557112E+02 -0.54726208986E+03  0.59185042516E+03  0.00000000000E+00 0.  1.
        -11    1    3    3    0    0  0.30381918238E+03 -0.94343391482E+01 -0.10126601299E+04  0.10572963827E+04  0.00000000000E+00 0. -1.
          2    1    6    6  502    0  0.93473512125E+02  0.13377983571E+03  0.11996963453E+03  0.20255136416E+03  0.00000000000E+00 0. -1.
          1    1    5    5  503    0 -0.51555507963E+03 -0.24430201797E+03  0.33683319958E+03  0.66252329805E+03  0.00000000000E+00 0. -1.
         -2    1    5    5    0  503 -0.16967282367E+03 -0.31457606852E+02  0.10274922258E+03  0.20083787208E+03  0.00000000000E+00 0.  1.
         -3    1    6    6    0  502  0.67410064532E+02  0.10494057114E+03  0.13713794690E+02  0.12547792012E+03  0.00000000000E+00 0.  1.
<mgrwt>
<rscale>  0 0.26636744E+04</rscale>
<asrwt>0</asrwt>
<pdfrwt beam="1">  1        1 0.29439951E+00 0.26636744E+04</pdfrwt>
<pdfrwt beam="2">  1       -1 0.14260622E+00 0.26636744E+04</pdfrwt>
<totfact> 0.11928494E+00</totfact>
</mgrwt>
</event>
<event>
12    1  0.1556559E-007  0.1440414E+04  0.7818608E-02  0.8925073E-01
          1   -1    0    0  501    0  0.00000000000E+00  0.00000000000E+00  0.18825768883E+04  0.18825768883E+04  0.00000000000E+00 0. -1.
         -1   -1    0    0    0  501 -0.00000000000E+00 -0.00000000000E+00 -0.27552566432E+03  0.27552566432E+03  0.00000000000E+00 0.  1.
         23    2    1    2    0    0  0.29986452914E+03  0.29495479984E+03  0.36457280665E+03  0.56322122648E+03  0.85952014633E+02 0.  0.
        254    2    1    2    0    0 -0.29986452914E+03 -0.29495479984E+03  0.12424784173E+04  0.15948813262E+04  0.90718066403E+03 0.  0.
        -24    2    4    4    0    0 -0.31638025611E+03 -0.43444299781E+03  0.13118839753E+04  0.14197814592E+04  0.76828656184E+02 0.  0.
         24    2    4    4    0    0  0.16515726971E+02  0.13948819797E+03 -0.69405557991E+02  0.17509986694E+03  0.78186349912E+02 0.  0.
         13    1    3    3    0    0  0.26158187426E+03  0.23850154614E+03  0.33970623659E+03  0.49062041502E+03  0.00000000000E+00 0.  1.
        -13    1    3    3    0    0  0.38282654876E+02  0.56453253700E+02  0.24866570059E+02  0.72600811457E+02  0.00000000000E+00 0. -1.
          2    1    6    6  502    0 -0.83859004890E+01  0.11787767836E+03 -0.77280635835E+02  0.14120115813E+03  0.00000000000E+00 0. -1.
          3    1    5    5  503    0 -0.27014372557E+03 -0.40799470123E+03  0.11682152194E+04  0.12665560026E+04  0.00000000000E+00 0. -1.
         -4    1    5    5    0  503 -0.46236530536E+02 -0.26448296578E+02  0.14366875591E+03  0.15322545667E+03  0.00000000000E+00 0.  1.
         -1    1    6    6    0  502  0.24901627460E+02  0.21610519612E+02  0.78750778440E+01  0.33898708811E+02  0.00000000000E+00 0.  1.
<mgrwt>
<rscale>  0 0.14404142E+04</rscale>
<asrwt>0</asrwt>
<pdfrwt beam="1">  1        1 0.28962721E+00 0.14404142E+04</pdfrwt>
<pdfrwt beam="2">  1       -1 0.42388565E-01 0.14404142E+04</pdfrwt>
<totfact> 0.19056910E+01</totfact>
</mgrwt>
</event>
<event>
12    1  0.1556559E-007  0.1087739E+04  0.7818608E-02  0.9217226E-01
         -2   -1    0    0    0  501 -0.00000000000E+00  0.00000000000E+00  0.11277814828E+04  0.11277814828E+04  0.00000000000E+00 0.  1.
          2   -1    0    0  501    0  0.00000000000E+00 -0.00000000000E+00 -0.26227943104E+03  0.26227943104E+03  0.00000000000E+00 0. -1.
         23    2    1    2    0    0 -0.14484662144E+03 -0.13452951782E+00  0.96557447675E+02  0.19660616661E+03  0.91378784213E+02 0.  0.
        254    2    1    2    0    0  0.14484662144E+03  0.13452951782E+00  0.76894460413E+03  0.11934547473E+04  0.90115363160E+03 0.  0.
        -24    2    4    4    0    0  0.29234014207E+03  0.32464872700E+03  0.68852194367E+03  0.81925058104E+03  0.79053734905E+02 0.  0.
         24    2    4    4    0    0 -0.14749352063E+03 -0.32451419748E+03  0.80422660456E+02  0.37420416625E+03  0.80604905103E+02 0.  0.
         11    1    3    3    0    0 -0.87323244149E+02 -0.31216153293E+02  0.92679210580E+02  0.13110771628E+03  0.00000000000E+00 0.  1.
        -11    1    3    3    0    0 -0.57523377295E+02  0.31081623775E+02  0.38782370956E+01  0.65498450324E+02  0.00000000000E+00 0. -1.
          2    1    6    6  502    0 -0.18066526546E+02 -0.12033760893E+03  0.45680874561E+02  0.12997800508E+03  0.00000000000E+00 0. -1.
          3    1    5    5  503    0  0.48287243363E+02  0.10328659317E+03  0.16098394240E+03  0.19727039289E+03  0.00000000000E+00 0. -1.
         -4    1    5    5    0  503  0.24405289871E+03  0.22136213383E+03  0.52753800127E+03  0.62198018815E+03  0.00000000000E+00 0.  1.
         -1    1    6    6    0  502 -0.12942699408E+03 -0.20417658855E+03  0.34741785894E+02  0.24422616117E+03  0.00000000000E+00 0.  1.
<mgrwt>
<rscale>  0 0.10877387E+04</rscale>
<asrwt>0</asrwt>
<pdfrwt beam="1">  1        2 0.40350682E-01 0.10877387E+04</pdfrwt>
<pdfrwt beam="2">  1       -2 0.17350484E+00 0.10877387E+04</pdfrwt>
<totfact> 0.25488739E+01</totfact>
</mgrwt>
</event>
<event>
12    1  0.1556559E-007  0.1670005E+04  0.7818608E-02  0.8778659E-01
          2   -1    0    0  501    0  0.00000000000E+00  0.00000000000E+00  0.24254827603E+04  0.24254827603E+04  0.00000000000E+00 0. -1.
         -2   -1    0    0    0  501 -0.00000000000E+00 -0.00000000000E+00 -0.28745979763E+03  0.28745979763E+03  0.00000000000E+00 0.  1.
         23    2    1    2    0    0  0.89734362047E+02  0.58132299798E+03  0.65122703478E+03  0.88206312883E+03  0.89162933420E+02 0.  0.
        254    2    1    2    0    0 -0.89734362047E+02 -0.58132299798E+03  0.14867959279E+04  0.18308794291E+04  0.89194656174E+03 0.  0.
        -24    2    4    4    0    0 -0.17224779309E+03 -0.30030598165E+03  0.14854830134E+04  0.15274589036E+04  0.81350687449E+02 0.  0.
         24    2    4    4    0    0  0.82513431043E+02 -0.28101701633E+03  0.13129145648E+01  0.30342052553E+03  0.79267028476E+02 0.  0.
         13    1    3    3    0    0 -0.10500144410E+01  0.67926445314E+02  0.11898690278E+03  0.13701455228E+03  0.00000000000E+00 0. -1.
        -13    1    3    3    0    0  0.90784376488E+02  0.51339655267E+03  0.53224013200E+03  0.74504857655E+03  0.00000000000E+00 0.  1.
          2    1    6    6  502    0  0.72095629634E+02 -0.10718152178E+03  0.43590395492E+01  0.12924650730E+03  0.00000000000E+00 0. -1.
          3    1    5    5  503    0  0.60163394118E+01 -0.29432370472E+02  0.16739696261E+03  0.17007117293E+03  0.00000000000E+00 0. -1.
         -4    1    5    5    0  503 -0.17826413250E+03 -0.27087361118E+03  0.13180860507E+04  0.13573877307E+04  0.00000000000E+00 0.  1.
         -1    1    6    6    0  502  0.10417801409E+02 -0.17383549455E+03 -0.30461249844E+01  0.17417401824E+03  0.00000000000E+00 0.  1.
<mgrwt>
<rscale>  0 0.16700045E+04</rscale>
<asrwt>0</asrwt>
<pdfrwt beam="1">  1        2 0.37315118E+00 0.16700045E+04</pdfrwt>
<pdfrwt beam="2">  1       -2 0.44224586E-01 0.16700045E+04</pdfrwt>
<totfact> 0.17801618E+01</totfact>
</mgrwt>
</event>
<event>
12    1  0.1556559E-007  0.1881456E+04  0.7818608E-02  0.8664142E-01
         -1   -1    0    0    0  501 -0.00000000000E+00  0.00000000000E+00  0.60153520308E+03  0.60153520308E+03  0.00000000000E+00 0. -1.
          1   -1    0    0  501    0  0.00000000000E+00 -0.00000000000E+00 -0.14711846536E+04  0.14711846536E+04  0.00000000000E+00 0.  1.
         23    2    1    2    0    0 -0.34692087502E+03  0.56194095233E+03 -0.15218563892E+02  0.66774186253E+03  0.97549284261E+02 0.  0.
        254    2    1    2    0    0  0.34692087502E+03 -0.56194095233E+03 -0.85443088666E+03  0.14049779942E+04  0.89876542914E+03 0.  0.
        -24    2    4    4    0    0 -0.87555236665E+02  0.12585020824E+02 -0.63937415455E+03  0.64934387500E+03  0.70879166764E+02 0.  0.
         24    2    4    4    0    0  0.43447611168E+03 -0.57452597315E+03 -0.21505673211E+03  0.75563411918E+03  0.76706835315E+02 0.  0.
         13    1    3    3    0    0 -0.98414140463E+01  0.62782074564E+02 -0.15567605222E+02  0.65427766654E+02  0.00000000000E+00 0.  1.
        -13    1    3    3    0    0 -0.33707946097E+03  0.49915887777E+03  0.34904133023E+00  0.60231409588E+03  0.00000000000E+00 0. -1.
          4    1    6    6  502    0  0.18595330589E+02 -0.46203307986E+02 -0.30471902776E+02  0.58387231886E+02  0.00000000000E+00 0. -1.
          1    1    5    5  503    0  0.44512046079E+01  0.11680065681E+02 -0.23340206519E+02  0.26476449858E+02  0.00000000000E+00 0. -1.
         -2    1    5    5    0  503 -0.92006441273E+02  0.90495514333E+00 -0.61603394803E+03  0.62286742515E+03  0.00000000000E+00 0.  1.
         -3    1    6    6    0  502  0.41588078110E+03 -0.52832266517E+03 -0.18458482934E+03  0.69724688729E+03  0.00000000000E+00 0.  1.
<mgrwt>
<rscale>  0 0.18814562E+04</rscale>
<asrwt>0</asrwt>
<pdfrwt beam="1">  1        1 0.22633610E+00 0.18814562E+04</pdfrwt>
<pdfrwt beam="2">  1       -1 0.92543877E-01 0.18814562E+04</pdfrwt>
<totfact> 0.72888308E+00</totfact>
</mgrwt>
</event>
<event>
12    1  0.1556559E-007  0.1761362E+04  0.7818608E-02  0.8727121E-01
         -2   -1    0    0    0  501 -0.00000000000E+00  0.00000000000E+00  0.33875811412E+03  0.33875811412E+03  0.00000000000E+00 0. -1.
          2   -1    0    0  501    0  0.00000000000E+00 -0.00000000000E+00 -0.22895363583E+04  0.22895363583E+04  0.00000000000E+00 0.  1.
         23    2    1    2    0    0 -0.48894722297E+03  0.71806922655E+02 -0.99651485994E+02  0.51215033974E+03  0.90232648454E+02 0.  0.
        254    2    1    2    0    0  0.48894722297E+03 -0.71806922655E+02 -0.18511267582E+04  0.21161441327E+04  0.89842645467E+03 0.  0.
        -24    2    4    4    0    0  0.57171962145E+03  0.15941671455E+03 -0.17308361819E+04  0.18312185043E+04  0.72734497872E+02 0.  0.
         24    2    4    4    0    0 -0.82772398483E+02 -0.23122363720E+03 -0.12029057628E+03  0.28492562846E+03  0.79982189647E+02 0.  0.
         13    1    3    3    0    0 -0.15591625449E+03  0.55766664129E+02 -0.61142305516E+02  0.17651680024E+03  0.00000000000E+00 0. -1.
        -13    1    3    3    0    0 -0.33303096847E+03  0.16040258525E+02 -0.38509180478E+02  0.33563353950E+03  0.00000000000E+00 0.  1.
          2    1    6    6  502    0  0.13189038511E+02 -0.83517247416E+01 -0.82110704294E+01  0.17638699515E+02  0.00000000000E+00 0. -1.
          3    1    5    5  503    0  0.23955078099E+02 -0.74838221626E+01 -0.62781166496E+02  0.67611598321E+02  0.00000000000E+00 0. -1.
         -4    1    5    5    0  503  0.54776454335E+03  0.16690053671E+03 -0.16680550155E+04  0.17636069059E+04  0.00000000000E+00 0.  1.
         -1    1    6    6    0  502 -0.95961436994E+02 -0.22287191246E+03 -0.11207950585E+03  0.26728692895E+03  0.00000000000E+00 0.  1.
<mgrwt>
<rscale>  0 0.17613620E+04</rscale>
<asrwt>0</asrwt>
<pdfrwt beam="1">  1        2 0.35223635E+00 0.17613620E+04</pdfrwt>
<pdfrwt beam="2">  1       -2 0.52116634E-01 0.17613620E+04</pdfrwt>
<totfact> 0.15136411E+01</totfact>
</mgrwt>
</event>
<event>
12    1  0.1556559E-007  0.1367950E+04  0.7818608E-02  0.8977351E-01
         -2   -1    0    0    0  501 -0.00000000000E+00  0.00000000000E+00  0.17014341431E+03  0.17014341431E+03  0.00000000000E+00 0.  1.
          2   -1    0    0  501    0  0.00000000000E+00 -0.00000000000E+00 -0.27495717091E+04  0.27495717091E+04  0.00000000000E+00 0. -1.
         23    2    1    2    0    0 -0.31434165798E+03  0.11140077078E+03 -0.11304690296E+04  0.11821813519E+04  0.91497061767E+02 0.  0.
        254    2    1    2    0    0  0.31434165798E+03 -0.11140077078E+03 -0.14489592652E+04  0.17375337715E+04  0.89906609610E+03 0.  0.
        -24    2    4    4    0    0  0.50190088033E+03  0.23247503683E+03 -0.87133547907E+03  0.10350680478E+04  0.78684242230E+02 0.  0.
         24    2    4    4    0    0 -0.18755922235E+03 -0.34387580760E+03 -0.57762378614E+03  0.70246572373E+03  0.79873786455E+02 0.  0.
         11    1    3    3    0    0 -0.28039523345E+03  0.11405954533E+03 -0.10774928259E+04  0.11192059045E+04  0.00000000000E+00 0. -1.
        -11    1    3    3    0    0 -0.33946424522E+02 -0.26587745511E+01 -0.52976203689E+02  0.62975447416E+02  0.00000000000E+00 0.  1.
          2    1    6    6  502    0 -0.17408446164E+03 -0.25909653053E+03 -0.42437263801E+03  0.52680978333E+03  0.00000000000E+00 0. -1.
          1    1    5    5  503    0  0.20641491722E+03  0.56676014903E+02 -0.30746491868E+03  0.37463844562E+03  0.00000000000E+00 0. -1.
         -2    1    5    5    0  503  0.29548596310E+03  0.17579902192E+03 -0.56387056039E+03  0.66042960214E+03  0.00000000000E+00 0.  1.
         -1    1    6    6    0  502 -0.13474760712E+02 -0.84779277072E+02 -0.15325114813E+03  0.17565594040E+03  0.00000000000E+00 0.  1.
<mgrwt>
<rscale>  0 0.13679496E+04</rscale>
<asrwt>0</asrwt>
<pdfrwt beam="1">  1        2 0.42301101E+00 0.13679496E+04</pdfrwt>
<pdfrwt beam="2">  1       -2 0.26175911E-01 0.13679496E+04</pdfrwt>
<totfact> 0.32132992E+01</totfact>
</mgrwt>
</event>
<event>
12    1  0.1556559E-007  0.1115751E+04  0.7818608E-02  0.9189975E-01
         -1   -1    0    0    0  501 -0.00000000000E+00  0.00000000000E+00  0.37142472489E+03  0.37142472489E+03  0.00000000000E+00 0.  1.
          1   -1    0    0  501    0  0.00000000000E+00 -0.00000000000E+00 -0.83792161851E+03  0.83792161851E+03  0.00000000000E+00 0. -1.
         23    2    1    2    0    0  0.16253629292E+03 -0.16469642335E+02  0.45331303954E+01  0.18648963933E+03  0.89825055919E+02 0.  0.
        254    2    1    2    0    0 -0.16253629292E+03  0.16469642335E+02 -0.47103002401E+03  0.10228567041E+04  0.89312779483E+03 0.  0.
        -24    2    4    4    0    0  0.21654388527E+03  0.19740940899E+03 -0.51057086063E+03  0.59395630398E+03  0.78992140814E+02 0.  0.
         24    2    4    4    0    0 -0.37908017820E+03 -0.18093976665E+03  0.39540836622E+02  0.42890040008E+03  0.77143339129E+02 0.  0.
         11    1    3    3    0    0  0.13127301390E+03  0.18842922055E+02  0.25209426783E+02  0.13499324090E+03  0.00000000000E+00 0.  1.
        -11    1    3    3    0    0  0.31263279024E+02 -0.35312564390E+02 -0.20676296388E+02  0.51496398432E+02  0.00000000000E+00 0. -1.
          4    1    6    6  502    0 -0.31513416420E+03 -0.13194466245E+03  0.61516816511E+01  0.34169691041E+03  0.00000000000E+00 0. -1.
          1    1    5    5  503    0  0.18520640839E+03  0.16519678055E+03 -0.36325661716E+03  0.43993949576E+03  0.00000000000E+00 0. -1.
         -2    1    5    5    0  503  0.31337476885E+02  0.32212628436E+02 -0.14731424347E+03  0.15401680823E+03  0.00000000000E+00 0.  1.
         -3    1    6    6    0  502 -0.63946013999E+02 -0.48995104200E+02  0.33389154971E+02  0.87203489676E+02  0.00000000000E+00 0.  1.
<mgrwt>
<rscale>  0 0.11157505E+04</rscale>
<asrwt>0</asrwt>
<pdfrwt beam="1">  1        1 0.12891102E+00 0.11157505E+04</pdfrwt>
<pdfrwt beam="2">  1       -1 0.57142266E-01 0.11157505E+04</pdfrwt>
<totfact> 0.63298017E+01</totfact>
</mgrwt>
</event>
<event>
12    1  0.1556559E-007  0.1303919E+04  0.7818608E-02  0.9026463E-01
         -3   -1    0    0    0  501 -0.00000000000E+00  0.00000000000E+00  0.22667749528E+04  0.22667749528E+04  0.00000000000E+00 0.  1.
          3   -1    0    0  501    0  0.00000000000E+00 -0.00000000000E+00 -0.18751366981E+03  0.18751366981E+03  0.00000000000E+00 0. -1.
         23    2    1    2    0    0 -0.15458348214E+03 -0.95606309033E+02  0.26156613100E+02  0.20536293737E+03  0.91941004772E+02 0.  0.
        254    2    1    2    0    0  0.15458348214E+03  0.95606309033E+02  0.20531046699E+04  0.22489256853E+04  0.89966178809E+03 0.  0.
        -24    2    4    4    0    0 -0.22312771416E+03 -0.27088106639E+03  0.58123789940E+03  0.68371138472E+03  0.80381794866E+02 0.  0.
         24    2    4    4    0    0  0.37771119630E+03  0.36648737543E+03  0.14718667705E+04  0.15652143005E+04  0.80779157739E+02 0.  0.
         13    1    3    3    0    0 -0.16673135591E+03 -0.88100675333E+02  0.29028073773E+02  0.19079754480E+03  0.00000000000E+00 0. -1.
        -13    1    3    3    0    0  0.12147873764E+02 -0.75056336996E+01 -0.28714606730E+01  0.14565392566E+02  0.00000000000E+00 0.  1.
          4    1    6    6  502    0  0.73110739069E+02  0.39051834194E+02  0.18098405262E+03  0.19906143078E+03  0.00000000000E+00 0. -1.
          3    1    5    5  503    0 -0.12444895179E+03 -0.90463109416E+02  0.26736664801E+03  0.30847372697E+03  0.00000000000E+00 0. -1.
         -4    1    5    5    0  503 -0.98678762370E+02 -0.18041795698E+03  0.31387125139E+03  0.37523765775E+03  0.00000000000E+00 0.  1.
         -3    1    6    6    0  502  0.30460045723E+03  0.32743554123E+03  0.12908827179E+04  0.13661528698E+04  0.00000000000E+00 0.  1.
<mgrwt>
<rscale>  0 0.13039192E+04</rscale>
<asrwt>0</asrwt>
<pdfrwt beam="1">  1        3 0.28848259E-01 0.13039192E+04</pdfrwt>
<pdfrwt beam="2">  1       -3 0.34873459E+00 0.13039192E+04</pdfrwt>
<totfact> 0.61743581E-01</totfact>
</mgrwt>
</event>
<event>
12    1  0.1556559E-007  0.2272771E+04  0.7818608E-02  0.8488735E-01
          2   -1    0    0  501    0  0.00000000000E+00  0.00000000000E+00  0.38697871126E+04  0.38697871126E+04  0.00000000000E+00 0. -1.
         -2   -1    0    0    0  501 -0.00000000000E+00 -0.00000000000E+00 -0.33370611254E+03  0.33370611254E+03  0.00000000000E+00 0.  1.
         23    2    1    2    0    0  0.15115848229E+03  0.54491876442E+03  0.28842886433E+04  0.29406672609E+04  0.92831109013E+02 0.  0.
        254    2    1    2    0    0 -0.15115848229E+03 -0.54491876442E+03  0.65179235678E+03  0.12628259643E+04  0.92201452975E+03 0.  0.
        -24    2    4    4    0    0  0.36982054491E+03 -0.33655895297E+03  0.38261175792E+03  0.63510380654E+03  0.83222133604E+02 0.  0.
         24    2    4    4    0    0 -0.52097902720E+03 -0.20835981145E+03  0.26918059886E+03  0.62772215773E+03  0.82121584780E+02 0.  0.
         11    1    3    3    0    0  0.99623611630E+00 -0.35067254953E+01  0.93126487404E+01  0.10000751805E+02  0.00000000000E+00 0.  1.
        -11    1    3    3    0    0  0.15016224617E+03  0.54842548992E+03  0.28749759946E+04  0.29306665091E+04  0.00000000000E+00 0. -1.
          4    1    6    6  502    0 -0.12808169657E+03 -0.35659783437E+02  0.10017020018E+03  0.16646504184E+03  0.00000000000E+00 0. -1.
          1    1    5    5  503    0  0.13045711817E+03 -0.16828074015E+03  0.13806972091E+03  0.25377295959E+03  0.00000000000E+00 0. -1.
         -2    1    5    5    0  503  0.23936342674E+03 -0.16827821282E+03  0.24454203701E+03  0.38133084695E+03  0.00000000000E+00 0.  1.
         -1    1    6    6    0  502 -0.39289733063E+03 -0.17270002802E+03  0.16901039868E+03  0.46125711589E+03  0.00000000000E+00 0.  1.
<mgrwt>
<rscale>  0 0.22727707E+04</rscale>
<asrwt>0</asrwt>
<pdfrwt beam="1">  1        2 0.59535183E+00 0.22727707E+04</pdfrwt>
<pdfrwt beam="2">  1       -2 0.51339405E-01 0.22727707E+04</pdfrwt>
<totfact> 0.14210747E+00</totfact>
</mgrwt>
</event>
<event>
12    1  0.1556559E-007  0.1767160E+04  0.7818608E-02  0.8723961E-01
          2   -1    0    0  501    0  0.00000000000E+00  0.00000000000E+00  0.98589045068E+03  0.98589045068E+03  0.00000000000E+00 0. -1.
         -2   -1    0    0    0  501 -0.00000000000E+00 -0.00000000000E+00 -0.79188680352E+03  0.79188680352E+03  0.00000000000E+00 0.  1.
         23    2    1    2    0    0 -0.21557978832E+03  0.15632335341E+03 -0.51165683801E+03  0.58424002482E+03  0.92908830411E+02 0.  0.
        254    2    1    2    0    0  0.21557978832E+03 -0.15632335341E+03  0.70566048517E+03  0.11935372294E+04  0.92502041148E+03 0.  0.
        -24    2    4    4    0    0 -0.19188227890E+03  0.32460937495E+02  0.70695389257E+03  0.73773300409E+03  0.81201340375E+02 0.  0.
         24    2    4    4    0    0  0.40746206722E+03 -0.18878429090E+03 -0.12934074045E+01  0.45580422530E+03  0.78044693463E+02 0.  0.
         11    1    3    3    0    0 -0.17773287923E+03  0.10925623178E+03 -0.45869452058E+03  0.50391126575E+03  0.00000000000E+00 0.  1.
        -11    1    3    3    0    0 -0.37846909094E+02  0.47067121627E+02 -0.52962317429E+02  0.80328759070E+02  0.00000000000E+00 0. -1.
          4    1    6    6  502    0  0.16388343470E+02 -0.15888896521E+02  0.15985904412E+02  0.27867256309E+02  0.00000000000E+00 0. -1.
          1    1    5    5  503    0 -0.53799507582E+02  0.40966839440E+01  0.90468021787E+02  0.10533580968E+03  0.00000000000E+00 0. -1.
         -2    1    5    5    0  503 -0.13808277132E+03  0.28364253551E+02  0.61648587079E+03  0.63239719441E+03  0.00000000000E+00 0.  1.
         -3    1    6    6    0  502  0.39107372375E+03 -0.17289539438E+03 -0.17279311816E+02  0.42793696899E+03  0.00000000000E+00 0.  1.
<mgrwt>
<rscale>  0 0.17671600E+04</rscale>
<asrwt>0</asrwt>
<pdfrwt beam="1">  1        2 0.15167545E+00 0.17671600E+04</pdfrwt>
<pdfrwt beam="2">  1       -2 0.12182874E+00 0.17671600E+04</pdfrwt>
<totfact> 0.12450654E+01</totfact>
</mgrwt>
</event>
<event>
12    1  0.1556559E-007  0.3055795E+04  0.7818608E-02  0.8227975E-01
          1   -1    0    0  501    0  0.00000000000E+00  0.00000000000E+00  0.13545393304E+04  0.13545393304E+04  0.00000000000E+00 0. -1.
         -1   -1    0    0    0  501 -0.00000000000E+00 -0.00000000000E+00 -0.17234421282E+04  0.17234421282E+04  0.00000000000E+00 0.  1.
         23    2    1    2    0    0 -0.66191842937E+03 -0.44238136567E+03  0.97912419359E+03  0.12651283506E+04  0.89600654022E+02 0.  0.
        254    2    1    2    0    0  0.66191842937E+03  0.44238136567E+03 -0.13480269913E+04  0.18128531080E+04  0.91401441009E+03 0.  0.
        -24    2    4    4    0    0  0.24808179146E+03  0.31916592911E+03 -0.13092413794E+04  0.13725178457E+04  0.79251382905E+02 0.  0.
         24    2    4    4    0    0  0.41383663791E+03  0.12321543656E+03 -0.38785611924E+02  0.44033526225E+03  0.77123360931E+02 0.  0.
         11    1    3    3    0    0 -0.14803353695E+03 -0.96726575131E+02  0.16196405618E+03  0.23979640091E+03  0.00000000000E+00 0.  1.
        -11    1    3    3    0    0 -0.51388489243E+03 -0.34565479054E+03  0.81716013741E+03  0.10253319497E+04  0.00000000000E+00 0. -1.
          4    1    6    6  502    0  0.30844960853E+03  0.12600003320E+03 -0.28356983700E+02  0.33439690174E+03  0.00000000000E+00 0. -1.
          1    1    5    5  503    0  0.24015037711E+03  0.29994299170E+03 -0.11635929007E+04  0.12253923619E+04  0.00000000000E+00 0. -1.
         -2    1    5    5    0  503  0.79314143540E+01  0.19222937415E+02 -0.14564847867E+03  0.14712548384E+03  0.00000000000E+00 0.  1.
         -3    1    6    6    0  502  0.10538702938E+03 -0.27845966390E+01 -0.10428628224E+02  0.10593836051E+03  0.00000000000E+00 0.  1.
<mgrwt>
<rscale>  0 0.30557946E+04</rscale>
<asrwt>0</asrwt>
<pdfrwt beam="1">  1        1 0.20839067E+00 0.30557946E+04</pdfrwt>
<pdfrwt beam="2">  1       -1 0.26514494E+00 0.30557946E+04</pdfrwt>
<totfact> 0.38924599E-01</totfact>
</mgrwt>
</event>
<event>
12    1  0.1556559E-007  0.1702919E+04  0.7818608E-02  0.8759701E-01
         -1   -1    0    0    0  501 -0.00000000000E+00  0.00000000000E+00  0.11361364229E+04  0.11361364229E+04  0.00000000000E+00 0.  1.
          1   -1    0    0  501    0  0.00000000000E+00 -0.00000000000E+00 -0.63811284679E+03  0.63811284679E+03  0.00000000000E+00 0. -1.
         23    2    1    2    0    0  0.26906469348E+03  0.51345499314E+03 -0.24502130772E+02  0.58728080490E+03  0.90920570468E+02 0.  0.
        254    2    1    2    0    0 -0.26906469348E+03 -0.51345499314E+03  0.52252570685E+03  0.11869684648E+04  0.89433169616E+03 0.  0.
        -24    2    4    4    0    0 -0.33345878500E+03 -0.73903737980E+03  0.36018786948E+03  0.89077359683E+03  0.79820357458E+02 0.  0.
         24    2    4    4    0    0  0.64394091519E+02  0.22558238666E+03  0.16233783737E+03  0.29619486793E+03  0.79648064330E+02 0.  0.
         13    1    3    3    0    0  0.21318118738E+03  0.31600794795E+03 -0.25929808063E+02  0.38207276371E+03  0.00000000000E+00 0. -1.
        -13    1    3    3    0    0  0.55883506098E+02  0.19744704518E+03  0.14276772906E+01  0.20520804119E+03  0.00000000000E+00 0.  1.
          4    1    6    6  502    0  0.14879582179E+02  0.17592693622E+03  0.12828515743E+03  0.21824016695E+03  0.00000000000E+00 0. -1.
          1    1    5    5  503    0 -0.32170197634E+03 -0.69386592243E+03  0.35687513306E+03  0.84397982232E+03  0.00000000000E+00 0. -1.
         -2    1    5    5    0  503 -0.11756808657E+02 -0.45171457364E+02  0.33127364225E+01  0.46793774509E+02  0.00000000000E+00 0.  1.
         -3    1    6    6    0  502  0.49514509341E+02  0.49655450443E+02  0.34052679938E+02  0.77954700980E+02  0.00000000000E+00 0.  1.
<mgrwt>
<rscale>  0 0.17029190E+04</rscale>
<asrwt>0</asrwt>
<pdfrwt beam="1">  1        1 0.98171207E-01 0.17029190E+04</pdfrwt>
<pdfrwt beam="2">  1       -1 0.17479022E+00 0.17029190E+04</pdfrwt>
<totfact> 0.67585702E+00</totfact>
</mgrwt>
</event>
<event>
12    1  0.1556559E-007  0.3463709E+04  0.7818608E-02  0.8122445E-01
          2   -1    0    0  501    0  0.00000000000E+00  0.00000000000E+00  0.22277058145E+04  0.22277058145E+04  0.00000000000E+00 0. -1.
         -2   -1    0    0    0  501 -0.00000000000E+00 -0.00000000000E+00 -0.13463719971E+04  0.13463719971E+04  0.00000000000E+00 0.  1.
         23    2    1    2    0    0 -0.33338466987E+03 -0.15445333813E+04  0.72201735752E+02  0.15845519714E+04  0.94144332371E+02 0.  0.
        254    2    1    2    0    0  0.33338466987E+03  0.15445333813E+04  0.80913208170E+03  0.19895258402E+04  0.89821469554E+03 0.  0.
        -24    2    4    4    0    0  0.55663004773E+03  0.14455052945E+04  0.62070766211E+03  0.16706564295E+04  0.80575039549E+02 0.  0.
         24    2    4    4    0    0 -0.22324537786E+03  0.99028086769E+02  0.18842441958E+03  0.31886941076E+03  0.80801475960E+02 0.  0.
         13    1    3    3    0    0 -0.13209938439E+03 -0.67734783429E+03 -0.13114867672E+02  0.69023353709E+03  0.00000000000E+00 0. -1.
        -13    1    3    3    0    0 -0.20128528548E+03 -0.86718554701E+03  0.85316603424E+02  0.89431843429E+03  0.00000000000E+00 0.  1.
          4    1    6    6  502    0 -0.99206086822E+02  0.80179387697E+02  0.66194784861E+02  0.14370919044E+03  0.00000000000E+00 0. -1.
          3    1    5    5  503    0  0.42435482433E+02  0.15311677387E+03  0.84474585812E+02  0.17994852669E+03  0.00000000000E+00 0. -1.
         -4    1    5    5    0  503  0.51419456529E+03  0.12923885207E+04  0.53623307630E+03  0.14907079028E+04  0.00000000000E+00 0.  1.
         -3    1    6    6    0  502 -0.12403929104E+03  0.18848699072E+02  0.12222963472E+03  0.17516022032E+03  0.00000000000E+00 0.  1.
<mgrwt>
<rscale>  0 0.34637094E+04</rscale>
<asrwt>0</asrwt>
<pdfrwt beam="1">  1        2 0.34272397E+00 0.34637094E+04</pdfrwt>
<pdfrwt beam="2">  1       -2 0.20713415E+00 0.34637094E+04</pdfrwt>
<totfact> 0.49057291E-01</totfact>
</mgrwt>
</event>
<event>
12    1  0.1556559E-007  0.2151642E+04  0.7818608E-02  0.8538830E-01
         -1   -1    0    0    0  501 -0.00000000000E+00  0.00000000000E+00  0.45232360389E+03  0.45232360389E+03  0.00000000000E+00 0.  1.
          1   -1    0    0  501    0  0.00000000000E+00 -0.00000000000E+00 -0.25587682081E+04  0.25587682081E+04  0.00000000000E+00 0. -1.
         23    2    1    2    0    0 -0.16892511646E+03 -0.23725695458E+03  0.29457581271E+03  0.42383363036E+03  0.89629678814E+02 0.  0.
        254    2    1    2    0    0  0.16892511646E+03  0.23725695458E+03 -0.24010204169E+04  0.25872581816E+04  0.91879230431E+03 0.  0.
        -24    2    4    4    0    0  0.34920573561E+03  0.61919673138E+02 -0.30519155759E+03  0.47489283959E+03  0.81256572467E+02 0.  0.
         24    2    4    4    0    0 -0.18028061915E+03  0.17533728144E+03 -0.20958288593E+04  0.21123653420E+04  0.79652160723E+02 0.  0.
         13    1    3    3    0    0 -0.83291493955E+02 -0.18846350788E+03  0.19361543778E+03  0.28274176295E+03  0.00000000000E+00 0.  1.
        -13    1    3    3    0    0 -0.85633622507E+02 -0.48793446696E+02  0.10096037493E+03  0.14109186741E+03  0.00000000000E+00 0. -1.
          4    1    6    6  502    0 -0.17020215759E+03  0.12629172927E+03 -0.17834758741E+04  0.17960246571E+04  0.00000000000E+00 0. -1.
          1    1    5    5  503    0  0.30389082869E+03  0.74566824790E+02 -0.28654671972E+03  0.42428630628E+03  0.00000000000E+00 0. -1.
         -2    1    5    5    0  503  0.45314906923E+02 -0.12647151651E+02 -0.18644837871E+02  0.50606533308E+02  0.00000000000E+00 0.  1.
         -3    1    6    6    0  502 -0.10078461558E+02  0.49045552171E+02 -0.31235298527E+03  0.31634068499E+03  0.00000000000E+00 0.  1.
<mgrwt>
<rscale>  0 0.21516424E+04</rscale>
<asrwt>0</asrwt>
<pdfrwt beam="1">  1        1 0.39365665E+00 0.21516424E+04</pdfrwt>
<pdfrwt beam="2">  1       -1 0.69588247E-01 0.21516424E+04</pdfrwt>
<totfact> 0.23580524E+00</totfact>
</mgrwt>
</event>
<event>
12    1  0.1556559E-007  0.2415172E+04  0.7818608E-02  0.8433845E-01
          1   -1    0    0  501    0  0.00000000000E+00  0.00000000000E+00  0.10188183519E+04  0.10188183519E+04  0.00000000000E+00 0. -1.
         -1   -1    0    0    0  501 -0.00000000000E+00 -0.00000000000E+00 -0.14313289899E+04  0.14313289899E+04  0.00000000000E+00 0.  1.
         23    2    1    2    0    0  0.82094668933E+03  0.39829948017E+03  0.33255623175E+03  0.97553420391E+03  0.92072759838E+02 0.  0.
        254    2    1    2    0    0 -0.82094668933E+03 -0.39829948017E+03 -0.74506686972E+03  0.14746131379E+04  0.88699680020E+03 0.  0.
        -24    2    4    4    0    0 -0.40997519926E+03  0.21917625047E+03 -0.86642595409E+02  0.47970692100E+03  0.80584725200E+02 0.  0.
         24    2    4    4    0    0 -0.41097149007E+03 -0.61747573064E+03 -0.65842427431E+03  0.99490621693E+03  0.78370988829E+02 0.  0.
         13    1    3    3    0    0  0.14668737867E+03  0.35786174966E+02  0.42079593264E+02  0.15674351517E+03  0.00000000000E+00 0.  1.
        -13    1    3    3    0    0  0.67425931066E+03  0.36251330520E+03  0.29047663849E+03  0.81879068874E+03  0.00000000000E+00 0. -1.
          2    1    6    6  502    0 -0.21960830462E+03 -0.27439536871E+03 -0.34319227046E+03  0.49122455184E+03  0.00000000000E+00 0. -1.
          3    1    5    5  503    0 -0.22385310339E+03  0.10464238467E+03 -0.73039476187E+01  0.24721162638E+03  0.00000000000E+00 0. -1.
         -4    1    5    5    0  503 -0.18612209587E+03  0.11453386580E+03 -0.79338647790E+02  0.23249529462E+03  0.00000000000E+00 0.  1.
         -1    1    6    6    0  502 -0.19136318545E+03 -0.34308036193E+03 -0.31523200385E+03  0.50368166509E+03  0.00000000000E+00 0.  1.
<mgrwt>
<rscale>  0 0.24151722E+04</rscale>
<asrwt>0</asrwt>
<pdfrwt beam="1">  1        1 0.15674129E+00 0.24151722E+04</pdfrwt>
<pdfrwt beam="2">  1       -1 0.22020446E+00 0.24151722E+04</pdfrwt>
<totfact> 0.14361256E+00</totfact>
</mgrwt>
</event>
<event>
12    1  0.1556559E-007  0.1874687E+04  0.7818608E-02  0.8667560E-01
         -2   -1    0    0    0  501 -0.00000000000E+00  0.00000000000E+00  0.41924952449E+03  0.41924952449E+03  0.00000000000E+00 0.  1.
          2   -1    0    0  501    0  0.00000000000E+00 -0.00000000000E+00 -0.20956804728E+04  0.20956804728E+04  0.00000000000E+00 0. -1.
         23    2    1    2    0    0 -0.15285576501E+03  0.18387405101E+03  0.26794162220E+03  0.37071893740E+03  0.92006880767E+02 0.  0.
        254    2    1    2    0    0  0.15285576501E+03 -0.18387405101E+03 -0.19443725705E+04  0.21442110599E+04  0.87171200804E+03 0.  0.
        -24    2    4    4    0    0  0.49496112743E+02 -0.49391652288E+03 -0.74963990900E+03  0.90259610582E+03  0.79475406976E+02 0.  0.
         24    2    4    4    0    0  0.10335965227E+03  0.31004247187E+03 -0.11947326615E+04  0.12416149541E+04  0.86093029182E+02 0.  0.
         11    1    3    3    0    0  0.25510942737E+01 -0.19855401367E+01 -0.48799859037E+01  0.58536069263E+01  0.00000000000E+00 0. -1.
        -11    1    3    3    0    0 -0.15540685928E+03  0.18585959115E+03  0.27282160810E+03  0.36486533047E+03  0.00000000000E+00 0.  1.
          4    1    6    6  502    0  0.85933644562E+01  0.18826225226E+02 -0.19323122686E+03  0.19433625422E+03  0.00000000000E+00 0. -1.
          1    1    5    5  503    0  0.23979796978E+02 -0.17685454792E+03 -0.33961909126E+03  0.38365829710E+03  0.00000000000E+00 0. -1.
         -2    1    5    5    0  503  0.25516315765E+02 -0.31706197496E+03 -0.41002081774E+03  0.51893780872E+03  0.00000000000E+00 0.  1.
         -1    1    6    6    0  502  0.94766287809E+02  0.29121624664E+03 -0.10015014347E+04  0.10472786999E+04  0.00000000000E+00 0.  1.
<mgrwt>
<rscale>  0 0.18746872E+04</rscale>
<asrwt>0</asrwt>
<pdfrwt beam="1">  1        2 0.32241238E+00 0.18746872E+04</pdfrwt>
<pdfrwt beam="2">  1       -2 0.64499927E-01 0.18746872E+04</pdfrwt>
<totfact> 0.12308697E+01</totfact>
</mgrwt>
</event>
<event>
12    1  0.1556559E-007  0.1342036E+04  0.7818608E-02  0.8996879E-01
          2   -1    0    0  501    0  0.00000000000E+00  0.00000000000E+00  0.33600383268E+04  0.33600383268E+04  0.00000000000E+00 0. -1.
         -2   -1    0    0    0  501 -0.00000000000E+00 -0.00000000000E+00 -0.13400592066E+03  0.13400592066E+03  0.00000000000E+00 0.  1.
         23    2    1    2    0    0  0.15777479300E+03 -0.28259346852E+03  0.13011501807E+04  0.13438526320E+04  0.90532590618E+02 0.  0.
        254    2    1    2    0    0 -0.15777479300E+03  0.28259346852E+03  0.19248822254E+04  0.21501916155E+04  0.90188715909E+03 0.  0.
        -24    2    4    4    0    0  0.25545021787E+02 -0.21008695610E+03  0.13470846708E+04  0.13658447859E+04  0.78139565317E+02 0.  0.
         24    2    4    4    0    0 -0.18331981479E+03  0.49268042463E+03  0.57779755460E+03  0.78434682952E+03  0.70779796378E+02 0.  0.
         11    1    3    3    0    0  0.25315333663E+02 -0.22233042669E+02  0.27096760608E+03  0.27305423976E+03  0.00000000000E+00 0. -1.
        -11    1    3    3    0    0  0.13245945934E+03 -0.26036042585E+03  0.10301825746E+04  0.10707983922E+04  0.00000000000E+00 0.  1.
          2    1    6    6  502    0 -0.14766999985E+03  0.40138240411E+03  0.42592747810E+03  0.60359628874E+03  0.00000000000E+00 0. -1.
          1    1    5    5  503    0  0.33180340075E+01 -0.15517647850E+03  0.11378030166E+04  0.11483407392E+04  0.00000000000E+00 0. -1.
         -2    1    5    5    0  503  0.22226987780E+02 -0.54910477605E+02  0.20928165422E+03  0.21750404669E+03  0.00000000000E+00 0.  1.
         -3    1    6    6    0  502 -0.35649814936E+02  0.91298020515E+02  0.15187007650E+03  0.18075054078E+03  0.00000000000E+00 0.  1.
<mgrwt>
<rscale>  0 0.13420358E+04</rscale>
<asrwt>0</asrwt>
<pdfrwt beam="1">  1        2 0.51692891E+00 0.13420358E+04</pdfrwt>
<pdfrwt beam="2">  1       -2 0.20616298E-01 0.13420358E+04</pdfrwt>
<totfact> 0.20433136E+01</totfact>
</mgrwt>
</event>
<event>
12    1  0.1556559E-007  0.3141842E+04  0.7818608E-02  0.8204348E-01
         -1   -1    0    0    0  501 -0.00000000000E+00  0.00000000000E+00  0.66681929197E+03  0.66681929197E+03  0.00000000000E+00 0.  1.
          1   -1    0    0  501    0  0.00000000000E+00 -0.00000000000E+00 -0.37008408342E+04  0.37008408342E+04  0.00000000000E+00 0. -1.
         23    2    1    2    0    0  0.34458633970E+03  0.58346348772E+03 -0.31588241968E+04  0.32319439844E+04  0.90123389105E+02 0.  0.
        254    2    1    2    0    0 -0.34458633970E+03 -0.58346348772E+03  0.12480265460E+03  0.11357161417E+04  0.90283224628E+03 0.  0.
        -24    2    4    4    0    0 -0.48798010710E+03 -0.74747283459E+03  0.11709186713E+03  0.90351544007E+03  0.76088249549E+02 0.  0.
         24    2    4    4    0    0  0.14339376739E+03  0.16400934687E+03  0.77107874704E+01  0.23220070164E+03  0.79980442697E+02 0.  0.
         13    1    3    3    0    0  0.19375494308E+03  0.33577969419E+03 -0.15930894216E+04  0.16395800945E+04  0.00000000000E+00 0. -1.
        -13    1    3    3    0    0  0.15083139662E+03  0.24768379353E+03 -0.15657347752E+04  0.15923638899E+04  0.00000000000E+00 0.  1.
          4    1    6    6  502    0  0.13426694864E+02  0.35810067562E+02 -0.26419005220E+02  0.46482264474E+02  0.00000000000E+00 0. -1.
          1    1    5    5  503    0 -0.24556301816E+02 -0.77037485439E+02  0.12582738771E+02  0.81829771090E+02  0.00000000000E+00 0. -1.
         -2    1    5    5    0  503 -0.46342380528E+03 -0.67043534915E+03  0.10450912836E+03  0.82168566898E+03  0.00000000000E+00 0.  1.
         -3    1    6    6    0  502  0.12996707253E+03  0.12819927930E+03  0.34129792691E+02  0.18571843717E+03  0.00000000000E+00 0.  1.
<mgrwt>
<rscale>  0 0.31418415E+04</rscale>
<asrwt>0</asrwt>
<pdfrwt beam="1">  1        1 0.56936011E+00 0.31418415E+04</pdfrwt>
<pdfrwt beam="2">  1       -1 0.10258759E+00 0.31418415E+04</pdfrwt>
<totfact> 0.12998597E-01</totfact>
</mgrwt>
</event>
<event>
12    1  0.1556559E-007  0.2223295E+04  0.7818608E-02  0.8508794E-01
         -1   -1    0    0    0  501 -0.00000000000E+00  0.00000000000E+00  0.48383566844E+03  0.48383566844E+03  0.00000000000E+00 0.  1.
          1   -1    0    0  501    0  0.00000000000E+00 -0.00000000000E+00 -0.25540909137E+04  0.25540909137E+04  0.00000000000E+00 0. -1.
         23    2    1    2    0    0 -0.52272297802E+03  0.54167774192E+03 -0.13186778535E+03  0.76964793227E+03  0.91185190667E+02 0.  0.
        254    2    1    2    0    0  0.52272297802E+03 -0.54167774192E+03 -0.19383874599E+04  0.22682786499E+04  0.90613906267E+03 0.  0.
        -24    2    4    4    0    0  0.17097220946E+03  0.10269602069E+02  0.30840355105E+02  0.19154745988E+03  0.80014628352E+02 0.  0.
         24    2    4    4    0    0  0.35175076856E+03 -0.55194734399E+03 -0.19692278150E+04  0.20767311900E+04  0.81115808146E+02 0.  0.
         11    1    3    3    0    0 -0.10976510266E+03  0.16151633512E+03 -0.11732599729E+02  0.19563629052E+03  0.00000000000E+00 0. -1.
        -11    1    3    3    0    0 -0.41295787536E+03  0.38016140681E+03 -0.12013518562E+03  0.57401164176E+03  0.00000000000E+00 0.  1.
          4    1    6    6  502    0  0.34116298573E+03 -0.51859659174E+03 -0.19050500405E+04  0.20036342642E+04  0.00000000000E+00 0. -1.
          3    1    5    5  503    0  0.64855941140E+02  0.32159527068E+01 -0.27186001038E+02  0.70396833064E+02  0.00000000000E+00 0. -1.
         -4    1    5    5    0  503  0.10611626832E+03  0.70536493625E+01  0.58026356142E+02  0.12115062682E+03  0.00000000000E+00 0.  1.
         -3    1    6    6    0  502  0.10587782830E+02 -0.33350752251E+02 -0.64177774514E+02  0.73096925807E+02  0.00000000000E+00 0.  1.
<mgrwt>
<rscale>  0 0.22232951E+04</rscale>
<asrwt>0</asrwt>
<pdfrwt beam="1">  1        1 0.39293706E+00 0.22232951E+04</pdfrwt>
<pdfrwt beam="2">  1       -1 0.74436258E-01 0.22232951E+04</pdfrwt>
<totfact> 0.20531491E+00</totfact>
</mgrwt>
</event>
<event>
12    1  0.1556559E-007  0.2636319E+04  0.7818608E-02  0.8355968E-01
          1   -1    0    0  501    0  0.00000000000E+00  0.00000000000E+00  0.71974858607E+03  0.71974858607E+03  0.00000000000E+00 0. -1.
         -1   -1    0    0    0  501 -0.00000000000E+00 -0.00000000000E+00 -0.24140998515E+04  0.24140998515E+04  0.00000000000E+00 0.  1.
         23    2    1    2    0    0  0.97001987076E+03 -0.55880456981E+03 -0.11184423639E+04  0.15850260154E+04  0.90515475849E+02 0.  0.
        254    2    1    2    0    0 -0.97001987076E+03  0.55880456981E+03 -0.57590890150E+03  0.15488224221E+04  0.90220770085E+03 0.  0.
        -24    2    4    4    0    0 -0.22770319826E+03 -0.16928480917E+03 -0.39016161743E+03  0.48929627403E+03  0.81723086987E+02 0.  0.
         24    2    4    4    0    0 -0.74231667250E+03  0.72808937899E+03 -0.18574728406E+03  0.10595261481E+04  0.83339179537E+02 0.  0.
         11    1    3    3    0    0  0.60416404460E+03 -0.35406539462E+03 -0.63729896657E+03  0.94685081678E+03  0.00000000000E+00 0.  1.
        -11    1    3    3    0    0  0.36585582615E+03 -0.20473917519E+03 -0.48114339734E+03  0.63817519866E+03  0.00000000000E+00 0. -1.
          4    1    6    6  502    0 -0.23019305282E+03  0.26778819353E+03 -0.89076849444E+02  0.36418957051E+03  0.00000000000E+00 0. -1.
          3    1    5    5  503    0 -0.12664659833E+03 -0.13252804436E+03 -0.20361004304E+03  0.27397097116E+03  0.00000000000E+00 0. -1.
         -4    1    5    5    0  503 -0.10105659993E+03 -0.36756764819E+02 -0.18655157439E+03  0.21532530287E+03  0.00000000000E+00 0.  1.
         -3    1    6    6    0  502 -0.51212361968E+03  0.46030118545E+03 -0.96670434621E+02  0.69533657756E+03  0.00000000000E+00 0.  1.
<mgrwt>
<rscale>  0 0.26363194E+04</rscale>
<asrwt>0</asrwt>
<pdfrwt beam="1">  1        1 0.11073055E+00 0.26363194E+04</pdfrwt>
<pdfrwt beam="2">  1       -1 0.37139998E+00 0.26363194E+04</pdfrwt>
<totfact> 0.25629510E-01</totfact>
</mgrwt>
</event>
<event>
12    1  0.1556559E-007  0.1297502E+04  0.7818608E-02  0.9031549E-01
          1   -1    0    0  501    0  0.00000000000E+00  0.00000000000E+00  0.65008771619E+03  0.65008771619E+03  0.00000000000E+00 0. -1.
         -1   -1    0    0    0  501 -0.00000000000E+00 -0.00000000000E+00 -0.64741687053E+03  0.64741687053E+03  0.00000000000E+00 0.  1.
         23    2    1    2    0    0  0.34961831433E+03 -0.68886285448E+02  0.89014696409E+01  0.36786012068E+03  0.90904049330E+02 0.  0.
        254    2    1    2    0    0 -0.34961831433E+03  0.68886285448E+02 -0.62306239825E+01  0.92964446605E+03  0.85861616950E+03 0.  0.
        -24    2    4    4    0    0 -0.44692803617E+03  0.26287863855E+01 -0.34002426614E+03  0.56693749856E+03  0.77782039526E+02 0.  0.
         24    2    4    4    0    0  0.97309721837E+02  0.66257499063E+02  0.33379364216E+03  0.36270696749E+03  0.79239577062E+02 0.  0.
         11    1    3    3    0    0  0.17799507080E+03 -0.40488852191E+02  0.49692297246E+02  0.18918487462E+03  0.00000000000E+00 0. -1.
        -11    1    3    3    0    0  0.17162324353E+03 -0.28397433257E+02 -0.40790827605E+02  0.17867524606E+03  0.00000000000E+00 0.  1.
          2    1    6    6  502    0  0.37989899938E+02 -0.13089160532E+02  0.67151063460E+02  0.78254865309E+02  0.00000000000E+00 0. -1.
          1    1    5    5  503    0 -0.27807194194E+03  0.25920806305E+02 -0.17433785884E+03  0.32922573125E+03  0.00000000000E+00 0. -1.
         -2    1    5    5    0  503 -0.16885609423E+03 -0.23292019919E+02 -0.16568640731E+03  0.23771176731E+03  0.00000000000E+00 0.  1.
         -1    1    6    6    0  502  0.59319821898E+02  0.79346659595E+02  0.26664257870E+03  0.28445210218E+03  0.00000000000E+00 0.  1.
<mgrwt>
<rscale>  0 0.12975018E+04</rscale>
<asrwt>0</asrwt>
<pdfrwt beam="1">  1        1 0.10001349E+00 0.12975018E+04</pdfrwt>
<pdfrwt beam="2">  1       -1 0.99602596E-01 0.12975018E+04</pdfrwt>
<totfact> 0.28797049E+01</totfact>
</mgrwt>
</event>
<event>
12    1  0.1556559E-007  0.1448776E+04  0.7818608E-02  0.8919250E-01
          1   -1    0    0  501    0  0.00000000000E+00  0.00000000000E+00  0.77182824814E+03  0.77182824814E+03  0.00000000000E+00 0. -1.
         -1   -1    0    0    0  501 -0.00000000000E+00 -0.00000000000E+00 -0.67986320828E+03  0.67986320828E+03  0.00000000000E+00 0.  1.
         23    2    1    2    0    0  0.28913672597E+03 -0.11311118649E+03  0.33394949226E+03  0.46501047186E+03  0.91204653091E+02 0.  0.
        254    2    1    2    0    0 -0.28913672597E+03  0.11311118649E+03 -0.24198445240E+03  0.98668098456E+03  0.90475891997E+03 0.  0.
        -24    2    4    4    0    0 -0.44776380602E+03  0.23607629071E+03 -0.45350135470E+03  0.68431005401E+03  0.79952049879E+02 0.  0.
         24    2    4    4    0    0  0.15862708005E+03 -0.12296510422E+03  0.21151690231E+03  0.30237093055E+03  0.80036318612E+02 0.  0.
         13    1    3    3    0    0  0.28409321634E+03 -0.11922269916E+03  0.33691807582E+03  0.45654878970E+03  0.00000000000E+00 0. -1.
        -13    1    3    3    0    0  0.50435096311E+01  0.61115126692E+01 -0.29685835647E+01  0.84616821546E+01  0.00000000000E+00 0.  1.
          2    1    6    6  502    0  0.93868210332E+02 -0.57006592806E+02  0.60699452725E+02  0.12548073994E+03  0.00000000000E+00 0. -1.
          1    1    5    5  503    0 -0.26112179325E+03  0.15712209433E+03 -0.22448814888E+03  0.37850610619E+03  0.00000000000E+00 0. -1.
         -4    1    5    5    0  503 -0.18664201277E+03  0.78954196373E+02 -0.22901320583E+03  0.30580394781E+03  0.00000000000E+00 0.  1.
         -1    1    6    6    0  502  0.64758869721E+02 -0.65958511412E+02  0.15081744958E+03  0.17689019061E+03  0.00000000000E+00 0.  1.
<mgrwt>
<rscale>  0 0.14487755E+04</rscale>
<asrwt>0</asrwt>
<pdfrwt beam="1">  1        1 0.11874281E+00 0.14487755E+04</pdfrwt>
<pdfrwt beam="2">  1       -1 0.10459434E+00 0.14487755E+04</pdfrwt>
<totfact> 0.19543522E+01</totfact>
</mgrwt>
</event>
<event>
12    1  0.1556559E-007  0.2225657E+04  0.7818608E-02  0.8507825E-01
          2   -1    0    0  501    0  0.00000000000E+00  0.00000000000E+00  0.73288852329E+03  0.73288852329E+03  0.00000000000E+00 0. -1.
         -2   -1    0    0    0  501 -0.00000000000E+00 -0.00000000000E+00 -0.16897343061E+04  0.16897343061E+04  0.00000000000E+00 0.  1.
         23    2    1    2    0    0 -0.47357547724E+03  0.19032954682E+03  0.44262359201E+03  0.68143645982E+03  0.89111926940E+02 0.  0.
        254    2    1    2    0    0  0.47357547724E+03 -0.19032954682E+03 -0.13994693748E+04  0.17411863696E+04  0.90150783327E+03 0.  0.
        -24    2    4    4    0    0  0.40538813979E+03 -0.21190052427E+02 -0.98693519710E+02  0.42527535579E+03  0.79562272540E+02 0.  0.
         24    2    4    4    0    0  0.68187337459E+02 -0.16913949440E+03 -0.13007758551E+04  0.13159110138E+04  0.79663601270E+02 0.  0.
         13    1    3    3    0    0 -0.53224427329E+02  0.20789052819E+02  0.16866054590E+02  0.59577581178E+02  0.00000000000E+00 0.  1.
        -13    1    3    3    0    0 -0.42035104992E+03  0.16954049400E+03  0.42575753742E+03  0.62185887864E+03  0.00000000000E+00 0. -1.
          2    1    6    6  502    0  0.51759043002E+02 -0.12372036221E+03 -0.11447904744E+04  0.11526191725E+04  0.00000000000E+00 0. -1.
          1    1    5    5  503    0  0.36910872406E+03 -0.75761114931E+01 -0.67003420689E+02  0.37521741167E+03  0.00000000000E+00 0. -1.
         -2    1    5    5    0  503  0.36279415730E+02 -0.13613940934E+02 -0.31690099022E+02  0.50057944119E+02  0.00000000000E+00 0.  1.
         -1    1    6    6    0  502  0.16428294457E+02 -0.45419132188E+02 -0.15598538075E+03  0.16329184130E+03  0.00000000000E+00 0.  1.
<mgrwt>
<rscale>  0 0.22256566E+04</rscale>
<asrwt>0</asrwt>
<pdfrwt beam="1">  1        2 0.11275208E+00 0.22256566E+04</pdfrwt>
<pdfrwt beam="2">  1       -2 0.25995912E+00 0.22256566E+04</pdfrwt>
<totfact> 0.19671669E+00</totfact>
</mgrwt>
</event>
<event>
12    1  0.1569217E-007  0.2319934E+04  0.7818608E-02  0.8470103E-01
          1   -1    0    0  501    0  0.00000000000E+00  0.00000000000E+00  0.10100587021E+04  0.10100587021E+04  0.00000000000E+00 0. -1.
         -1   -1    0    0    0  501 -0.00000000000E+00 -0.00000000000E+00 -0.13321243407E+04  0.13321243407E+04  0.00000000000E+00 0.  1.
         23    2    1    2    0    0  0.30546101748E+03  0.23541019805E+03 -0.10738673878E+04  0.11446895576E+04  0.91643996609E+02 0.  0.
        254    2    1    2    0    0 -0.30546101748E+03 -0.23541019805E+03  0.75180174917E+03  0.11974934852E+04  0.84856371745E+03 0.  0.
        -24    2    4    4    0    0  0.21237676827E+03 -0.18442543148E+03  0.16634157903E+02  0.29317211963E+03  0.80972619097E+02 0.  0.
         24    2    4    4    0    0 -0.51783778575E+03 -0.50984766575E+02  0.73516759127E+03  0.90432136560E+03  0.81057549006E+02 0.  0.
         13    1    3    3    0    0  0.51226791013E+02  0.42987710393E+02 -0.10298851112E+03  0.12279560572E+03  0.00000000000E+00 0. -1.
        -13    1    3    3    0    0  0.25423422647E+03  0.19242248766E+03 -0.97087887668E+03  0.10218939519E+04  0.00000000000E+00 0.  1.
          4    1    6    6  502    0 -0.50598274978E+02 -0.24242525551E+02  0.53985719539E+02  0.77861051816E+02  0.00000000000E+00 0. -1.
          1    1    5    5  503    0  0.48274297373E+02 -0.99373000089E+01  0.21063698319E+02  0.53598853581E+02  0.00000000000E+00 0. -1.
         -2    1    5    5    0  503  0.16410247090E+03 -0.17448813147E+03 -0.44295404154E+01  0.23957326605E+03  0.00000000000E+00 0.  1.
         -3    1    6    6    0  502 -0.46723951078E+03 -0.26742241024E+02  0.68118187173E+03  0.82646031378E+03  0.00000000000E+00 0.  1.
<mgrwt>
<rscale>  0 0.23199343E+04</rscale>
<asrwt>0</asrwt>
<pdfrwt beam="1">  1        1 0.15539365E+00 0.23199343E+04</pdfrwt>
<pdfrwt beam="2">  1       -1 0.20494220E+00 0.23199343E+04</pdfrwt>
<totfact> 0.18661252E+00</totfact>
</mgrwt>
</event>
<event>
12    1  0.1556559E-007  0.1931672E+04  0.7818608E-02  0.8639250E-01
         -1   -1    0    0    0  501 -0.00000000000E+00  0.00000000000E+00  0.79265823474E+03  0.79265823474E+03  0.00000000000E+00 0.  1.
          1   -1    0    0  501    0  0.00000000000E+00 -0.00000000000E+00 -0.11768488899E+04  0.11768488899E+04  0.00000000000E+00 0. -1.
         23    2    1    2    0    0  0.18722142545E+03  0.11406818605E+03  0.56237376143E+03  0.61088987901E+03  0.94121110898E+02 0.  0.
        254    2    1    2    0    0 -0.18722142545E+03 -0.11406818605E+03 -0.94656441664E+03  0.13586172457E+04  0.94962793355E+03 0.  0.
        -24    2    4    4    0    0 -0.20321986990E+03 -0.48779098344E+03 -0.31624072320E+03  0.62103646507E+03  0.80247971234E+02 0.  0.
         24    2    4    4    0    0  0.15998444450E+02  0.37372279738E+03 -0.63032369344E+03  0.73758078060E+03  0.82418261920E+02 0.  0.
         13    1    3    3    0    0  0.15150585275E+03  0.97089283487E+02  0.53021652837E+03  0.55991956507E+03  0.00000000000E+00 0.  1.
        -13    1    3    3    0    0  0.35715572700E+02  0.16978902567E+02  0.32157233057E+02  0.50970313944E+02  0.00000000000E+00 0. -1.
          4    1    6    6  502    0  0.93878619692E+01  0.41350242702E+01 -0.55946002139E+01  0.11684602245E+02  0.00000000000E+00 0. -1.
          1    1    5    5  503    0 -0.76519283205E+02 -0.17410871302E+03 -0.15938323213E+03  0.24813717846E+03  0.00000000000E+00 0. -1.
         -2    1    5    5    0  503 -0.12670058670E+03 -0.31368227042E+03 -0.15685749107E+03  0.37289928661E+03  0.00000000000E+00 0.  1.
         -3    1    6    6    0  502  0.66105824806E+01  0.36958777311E+03 -0.62472909322E+03  0.72589617836E+03  0.00000000000E+00 0.  1.
<mgrwt>
<rscale>  0 0.19316718E+04</rscale>
<asrwt>0</asrwt>
<pdfrwt beam="1">  1        1 0.18105367E+00 0.19316718E+04</pdfrwt>
<pdfrwt beam="2">  1       -1 0.12194742E+00 0.19316718E+04</pdfrwt>
<totfact> 0.61704456E+00</totfact>
</mgrwt>
</event>
<event>
12    1  0.1556559E-007  0.1192888E+04  0.7818608E-02  0.9119105E-01
          2   -1    0    0  501    0  0.00000000000E+00  0.00000000000E+00  0.10356305594E+04  0.10356305594E+04  0.00000000000E+00 0. -1.
         -2   -1    0    0    0  501 -0.00000000000E+00 -0.00000000000E+00 -0.34350612758E+03  0.34350612758E+03  0.00000000000E+00 0.  1.
         23    2    1    2    0    0  0.51456842582E+01 -0.66915128625E+02 -0.12641717175E+03  0.16410193286E+03  0.80274719243E+02 0.  0.
        254    2    1    2    0    0 -0.51456842582E+01  0.66915128625E+02  0.81854160360E+03  0.12150347541E+04  0.89543005558E+03 0.  0.
        -24    2    4    4    0    0  0.12196237332E+03 -0.10484157230E+03 -0.14100989592E+03  0.22867494987E+03  0.80881803652E+02 0.  0.
         24    2    4    4    0    0 -0.12710805758E+03  0.17175670092E+03  0.95955149952E+03  0.98635980427E+03  0.80683087712E+02 0.  0.
         13    1    3    3    0    0 -0.78467477978E+01  0.38155426330E+01  0.78834975632E+01  0.11759224057E+02  0.00000000000E+00 0. -1.
        -13    1    3    3    0    0  0.12992432056E+02 -0.70730671258E+02 -0.13430066931E+03  0.15234270880E+03  0.00000000000E+00 0.  1.
          4    1    6    6  502    0 -0.84842879747E+02  0.12315706347E+03  0.80746205414E+03  0.82119482792E+03  0.00000000000E+00 0. -1.
          3    1    5    5  503    0  0.92506368873E+02 -0.89492819831E+02 -0.14649986317E+03  0.19500923822E+03  0.00000000000E+00 0. -1.
         -4    1    5    5    0  503  0.29456004447E+02 -0.15348752468E+02  0.54899672488E+01  0.33665711647E+02  0.00000000000E+00 0.  1.
         -3    1    6    6    0  502 -0.42265177831E+02  0.48599637458E+02  0.15208944537E+03  0.16516497635E+03  0.00000000000E+00 0.  1.
<mgrwt>
<rscale>  0 0.11928880E+04</rscale>
<asrwt>0</asrwt>
<pdfrwt beam="1">  1        2 0.15932778E+00 0.11928880E+04</pdfrwt>
<pdfrwt beam="2">  1       -2 0.52847097E-01 0.11928880E+04</pdfrwt>
<totfact> 0.79686234E+01</totfact>
</mgrwt>
</event>
<event>
12    1  0.1556559E-007  0.1345972E+04  0.7818608E-02  0.8993883E-01
         -2   -1    0    0    0  501 -0.00000000000E+00  0.00000000000E+00  0.30149123549E+03  0.30149123549E+03  0.00000000000E+00 0.  1.
          2   -1    0    0  501    0  0.00000000000E+00 -0.00000000000E+00 -0.15022340301E+04  0.15022340301E+04  0.00000000000E+00 0. -1.
         23    2    1    2    0    0 -0.10838842052E+03  0.33869997466E+03 -0.67663774942E+03  0.76958718244E+03  0.89219195740E+02 0.  0.
        254    2    1    2    0    0  0.10838842052E+03 -0.33869997466E+03 -0.52410504517E+03  0.10341380831E+04  0.81748991069E+03 0.  0.
        -24    2    4    4    0    0  0.35036888472E+02  0.25893087223E+03 -0.93226457484E+02  0.28826582882E+03  0.78314976519E+02 0.  0.
         24    2    4    4    0    0  0.73351532043E+02 -0.59763084689E+03 -0.43087858769E+03  0.74587225431E+03  0.90144251136E+02 0.  0.
         11    1    3    3    0    0 -0.11993672408E+03  0.26811321402E+03 -0.51584772721E+03  0.59360625922E+03  0.00000000000E+00 0. -1.
        -11    1    3    3    0    0  0.11548303569E+02  0.70586760639E+02 -0.16079002221E+03  0.17598092321E+03  0.00000000000E+00 0.  1.
          2    1    6    6  502    0  0.57363029237E+02 -0.58418263290E+03 -0.40782019914E+03  0.71475672822E+03  0.00000000000E+00 0. -1.
          3    1    5    5  503    0  0.49088152302E+02  0.21238023585E+03 -0.98794985037E+02  0.23932292064E+03  0.00000000000E+00 0. -1.
         -4    1    5    5    0  503 -0.14051263830E+02  0.46550636374E+02  0.55685275532E+01  0.48942908180E+02  0.00000000000E+00 0.  1.
         -1    1    6    6    0  502  0.15988502807E+02 -0.13448213987E+02 -0.23058388545E+02  0.31115526088E+02  0.00000000000E+00 0.  1.
<mgrwt>
<rscale>  0 0.13459724E+04</rscale>
<asrwt>0</asrwt>
<pdfrwt beam="1">  1        2 0.23111293E+00 0.13459724E+04</pdfrwt>
<pdfrwt beam="2">  1       -2 0.46383267E-01 0.13459724E+04</pdfrwt>
<totfact> 0.54481543E+01</totfact>
</mgrwt>
</event>
<event>
12    1  0.1556559E-007  0.3353201E+04  0.7818608E-02  0.8149489E-01
          2   -1    0    0  501    0  0.00000000000E+00  0.00000000000E+00  0.20886371929E+04  0.20886371929E+04  0.00000000000E+00 0. -1.
         -2   -1    0    0    0  501 -0.00000000000E+00 -0.00000000000E+00 -0.13458481944E+04  0.13458481944E+04  0.00000000000E+00 0.  1.
         23    2    1    2    0    0 -0.10783211707E+04 -0.70812432031E+03 -0.54272707400E+03  0.14026764979E+04  0.93445602889E+02 0.  0.
        254    2    1    2    0    0  0.10783211707E+04  0.70812432031E+03  0.12855160725E+04  0.20318088894E+04  0.90082139741E+03 0.  0.
        -24    2    4    4    0    0  0.38597386558E+03  0.38657946895E+03  0.20604453362E+02  0.55234520527E+03  0.79001085802E+02 0.  0.
         24    2    4    4    0    0  0.69234730516E+03  0.32154485136E+03  0.12649116191E+04  0.14794636841E+04  0.77945532261E+02 0.  0.
         11    1    3    3    0    0 -0.29981831235E+03 -0.14900357595E+03 -0.13140119634E+03  0.35966562314E+03  0.00000000000E+00 0. -1.
        -11    1    3    3    0    0 -0.77850285839E+03 -0.55912074436E+03 -0.41132587766E+03  0.10430108748E+04  0.00000000000E+00 0.  1.
          2    1    6    6  502    0  0.59682946274E+03  0.26788053230E+03  0.11295923664E+04  0.13053521753E+04  0.00000000000E+00 0. -1.
          3    1    5    5  503    0  0.38858087246E+03  0.37836925591E+03  0.16050024152E+02  0.54260113484E+03  0.00000000000E+00 0. -1.
         -4    1    5    5    0  503 -0.26070068756E+01  0.82102130419E+01  0.45544292093E+01  0.97440704259E+01  0.00000000000E+00 0.  1.
         -1    1    6    6    0  502  0.95517842421E+02  0.53664319056E+02  0.13531925269E+03  0.17411150884E+03  0.00000000000E+00 0.  1.
<mgrwt>
<rscale>  0 0.33532006E+04</rscale>
<asrwt>0</asrwt>
<pdfrwt beam="1">  1        2 0.32132880E+00 0.33532006E+04</pdfrwt>
<pdfrwt beam="2">  1       -2 0.20705357E+00 0.33532006E+04</pdfrwt>
<totfact> 0.59322196E-01</totfact>
</mgrwt>
</event>
<event>
12    1  0.1556559E-007  0.1522840E+04  0.7818608E-02  0.8869405E-01
          1   -1    0    0  501    0  0.00000000000E+00  0.00000000000E+00  0.44368772968E+03  0.44368772968E+03  0.00000000000E+00 0.  1.
         -1   -1    0    0    0  501 -0.00000000000E+00 -0.00000000000E+00 -0.13066860191E+04  0.13066860191E+04  0.00000000000E+00 0. -1.
         23    2    1    2    0    0 -0.35006937885E+03 -0.21067369233E+03  0.59279124529E+02  0.42326314230E+03  0.93304332043E+02 0.  0.
        254    2    1    2    0    0  0.35006937885E+03  0.21067369233E+03 -0.92227741400E+03  0.13271106065E+04  0.86237750373E+03 0.  0.
        -24    2    4    4    0    0  0.20184910488E+03 -0.13927042111E+03  0.64779579180E+02  0.26639195913E+03  0.81418490990E+02 0.  0.
         24    2    4    4    0    0  0.14822027397E+03  0.34994411344E+03 -0.98705699318E+03  0.10607186474E+04  0.80077518705E+02 0.  0.
         11    1    3    3    0    0 -0.11267713386E+01 -0.20614916755E+02  0.97851869477E+01  0.22847194359E+02  0.00000000000E+00 0. -1.
        -11    1    3    3    0    0 -0.34894260751E+03 -0.19005877557E+03  0.49493937581E+02  0.40041594794E+03  0.00000000000E+00 0.  1.
          2    1    6    6  502    0  0.87766865915E+02  0.15960470636E+03 -0.37483252527E+03  0.41674465449E+03  0.00000000000E+00 0. -1.
          1    1    5    5  503    0  0.31987036967E+02 -0.65055694827E+02  0.10569352186E+02  0.73260665906E+02  0.00000000000E+00 0. -1.
         -2    1    5    5    0  503  0.16986206791E+03 -0.74214726282E+02  0.54210226994E+02  0.19313129322E+03  0.00000000000E+00 0.  1.
         -1    1    6    6    0  502  0.60453408058E+02  0.19033940707E+03 -0.61222446791E+03  0.64397399291E+03  0.00000000000E+00 0.  1.
<mgrwt>
<rscale>  0 0.15228402E+04</rscale>
<asrwt>0</asrwt>
<pdfrwt beam="1">  1        1 0.68259651E-01 0.15228402E+04</pdfrwt>
<pdfrwt beam="2">  1       -1 0.20102862E+00 0.15228402E+04</pdfrwt>
<totfact> 0.74607391E+00</totfact>
</mgrwt>
</event>
<event>
12    1  0.1556559E-007  0.1746391E+04  0.7818608E-02  0.8735339E-01
          2   -1    0    0  501    0  0.00000000000E+00  0.00000000000E+00  0.16625085808E+04  0.16625085808E+04  0.00000000000E+00 0. -1.
         -2   -1    0    0    0  501 -0.00000000000E+00 -0.00000000000E+00 -0.45862658856E+03  0.45862658856E+03  0.00000000000E+00 0.  1.
         23    2    1    2    0    0  0.49448237770E+03 -0.25827005183E+03  0.82303193578E+03  0.99950333711E+03  0.10202505590E+03 0.  0.
        254    2    1    2    0    0 -0.49448237770E+03  0.25827005183E+03  0.38085005644E+03  0.11216318322E+04  0.89543004196E+03 0.  0.
        -24    2    4    4    0    0 -0.64394468762E+03  0.66144036749E+02  0.51681276338E+03  0.83198042308E+03  0.77821575977E+02 0.  0.
         24    2    4    4    0    0  0.14946230991E+03  0.19212601508E+03 -0.13596270694E+03  0.28965140915E+03  0.78490084641E+02 0.  0.
         11    1    3    3    0    0  0.32276739005E+03 -0.19773407398E+03  0.62334296320E+03  0.72926949879E+03  0.00000000000E+00 0. -1.
        -11    1    3    3    0    0  0.17171498766E+03 -0.60535977844E+02  0.19968897259E+03  0.27023383832E+03  0.00000000000E+00 0.  1.
          4    1    6    6  502    0  0.33083394552E+02  0.40234054189E+01 -0.86335270464E+01  0.34427265002E+02  0.00000000000E+00 0. -1.
          1    1    5    5  503    0 -0.34247311144E+03  0.74181732896E+02  0.27787805195E+03  0.44722139183E+03  0.00000000000E+00 0. -1.
         -2    1    5    5    0  503 -0.30147157617E+03 -0.80376961472E+01  0.23893471143E+03  0.38475903125E+03  0.00000000000E+00 0.  1.
         -3    1    6    6    0  502  0.11637891536E+03  0.18810260966E+03 -0.12732917989E+03  0.25522414415E+03  0.00000000000E+00 0.  1.
<mgrwt>
<rscale>  0 0.17463913E+04</rscale>
<asrwt>0</asrwt>
<pdfrwt beam="1">  1        2 0.25577055E+00 0.17463913E+04</pdfrwt>
<pdfrwt beam="2">  1       -2 0.70557938E-01 0.17463913E+04</pdfrwt>
<totfact> 0.17821486E+01</totfact>
</mgrwt>
</event>
<event>
12    1  0.1556559E-007  0.1845901E+04  0.7818608E-02  0.8682264E-01
          2   -1    0    0  501    0  0.00000000000E+00  0.00000000000E+00  0.48570418298E+03  0.48570418298E+03  0.00000000000E+00 0. -1.
         -2   -1    0    0    0  501 -0.00000000000E+00 -0.00000000000E+00 -0.17538201806E+04  0.17538201806E+04  0.00000000000E+00 0.  1.
         23    2    1    2    0    0  0.26861261353E+03 -0.82698631050E+02  0.29169958590E+03  0.41462659371E+03  0.88514202669E+02 0.  0.
        254    2    1    2    0    0 -0.26861261353E+03  0.82698631050E+02 -0.15598155835E+04  0.18248977699E+04  0.90456366067E+03 0.  0.
        -24    2    4    4    0    0  0.78215358900E+02 -0.38969990238E+02 -0.14181556376E+04  0.14230986508E+04  0.80050327437E+02 0.  0.
         24    2    4    4    0    0 -0.34682797243E+03  0.12166862129E+03 -0.14165994593E+03  0.40179911910E+03  0.79259674218E+02 0.  0.
         11    1    3    3    0    0  0.18800241539E+03 -0.65412577887E+02  0.14472238769E+03  0.24610624339E+03  0.00000000000E+00 0.  1.
        -11    1    3    3    0    0  0.80610198144E+02 -0.17286053163E+02  0.14697719821E+03  0.16852035032E+03  0.00000000000E+00 0. -1.
          4    1    6    6  502    0 -0.11976481027E+03  0.62284843796E+02 -0.17034602927E+02  0.13606318107E+03  0.00000000000E+00 0. -1.
          1    1    5    5  503    0  0.57734682287E+01 -0.29747983014E+02 -0.16120422627E+03  0.16402767448E+03  0.00000000000E+00 0. -1.
         -2    1    5    5    0  503  0.72441890672E+02 -0.92220072243E+01 -0.12569514113E+04  0.12590709763E+04  0.00000000000E+00 0.  1.
         -3    1    6    6    0  502 -0.22706316216E+03  0.59383777492E+02 -0.12462534300E+03  0.26573593803E+03  0.00000000000E+00 0.  1.
<mgrwt>
<rscale>  0 0.18459012E+04</rscale>
<asrwt>0</asrwt>
<pdfrwt beam="1">  1        2 0.74723720E-01 0.18459012E+04</pdfrwt>
<pdfrwt beam="2">  1       -2 0.26981849E+00 0.18459012E+04</pdfrwt>
<totfact> 0.29123056E+00</totfact>
</mgrwt>
</event>
<event>
12    1  0.1556559E-007  0.1273806E+04  0.7818608E-02  0.9050599E-01
          1   -1    0    0  501    0  0.00000000000E+00  0.00000000000E+00  0.17473804436E+04  0.17473804436E+04  0.00000000000E+00 0. -1.
         -1   -1    0    0    0  501 -0.00000000000E+00 -0.00000000000E+00 -0.23214499685E+03  0.23214499685E+03  0.00000000000E+00 0.  1.
         23    2    1    2    0    0  0.55505822213E+01  0.20143698844E+03  0.13957465393E+02  0.22092021065E+03  0.89460937615E+02 0.  0.
        254    2    1    2    0    0 -0.55505822213E+01 -0.20143698844E+03  0.15012779814E+04  0.17586052298E+04  0.89344787633E+03 0.  0.
        -24    2    4    4    0    0  0.37242643794E+03 -0.18380667994E+03  0.11875283433E+04  0.12606273001E+04  0.80444242942E+02 0.  0.
         24    2    4    4    0    0 -0.37797702016E+03 -0.17630308493E+02  0.31374963802E+03  0.49797792972E+03  0.79785509826E+02 0.  0.
         13    1    3    3    0    0  0.83108238210E+01  0.43509463950E+02  0.41366592779E+02  0.60608070782E+02  0.00000000000E+00 0.  1.
        -13    1    3    3    0    0 -0.27602415997E+01  0.15792752449E+03 -0.27409127386E+02  0.16031213987E+03  0.00000000000E+00 0. -1.
          4    1    6    6  502    0 -0.65805830254E+01 -0.12853054679E+02  0.18682471208E+02  0.23612281084E+02  0.00000000000E+00 0. -1.
          3    1    5    5  503    0  0.79455539236E+02 -0.49165569929E+02  0.37495377349E+03  0.38642045525E+03  0.00000000000E+00 0. -1.
         -4    1    5    5    0  503  0.29297089871E+03 -0.13464111002E+03  0.81257456985E+03  0.87420684484E+03  0.00000000000E+00 0.  1.
         -3    1    6    6    0  502 -0.37139643714E+03 -0.47772538144E+01  0.29506716681E+03  0.47436564863E+03  0.00000000000E+00 0.  1.
<mgrwt>
<rscale>  0 0.12738063E+04</rscale>
<asrwt>0</asrwt>
<pdfrwt beam="1">  1        1 0.26882775E+00 0.12738063E+04</pdfrwt>
<pdfrwt beam="2">  1       -1 0.35714616E-01 0.12738063E+04</pdfrwt>
<totfact> 0.32602249E+01</totfact>
</mgrwt>
</event>
<event>
12    1  0.1556559E-007  0.1544101E+04  0.7818608E-02  0.8855645E-01
         -2   -1    0    0    0  501 -0.00000000000E+00  0.00000000000E+00  0.53275709415E+03  0.53275709415E+03  0.00000000000E+00 0.  1.
          2   -1    0    0  501    0  0.00000000000E+00 -0.00000000000E+00 -0.11188247911E+04  0.11188247911E+04  0.00000000000E+00 0. -1.
         23    2    1    2    0    0  0.16891423861E+03 -0.17223446834E+03  0.28047909110E+03  0.38071207465E+03  0.89868966556E+02 0.  0.
        254    2    1    2    0    0 -0.16891423861E+03  0.17223446834E+03 -0.86654678809E+03  0.12708698106E+04  0.89778060102E+03 0.  0.
        -24    2    4    4    0    0 -0.30272935768E+03 -0.44768674764E+01  0.56587649023E+02  0.31821819203E+03  0.79972178721E+02 0.  0.
         24    2    4    4    0    0  0.13381511907E+03  0.17671133581E+03 -0.92313443711E+03  0.95265161862E+03  0.78959072770E+02 0.  0.
         11    1    3    3    0    0  0.69273974291E+02 -0.10144808743E+03  0.19885160742E+03  0.23373608991E+03  0.00000000000E+00 0.  1.
        -11    1    3    3    0    0  0.99640264317E+02 -0.70786380910E+02  0.81627483684E+02  0.14697598473E+03  0.00000000000E+00 0. -1.
          2    1    6    6  502    0  0.15130068240E+02  0.46140388913E+02 -0.10469803963E+03  0.11541028531E+03  0.00000000000E+00 0. -1.
          1    1    5    5  503    0 -0.27344883114E+03 -0.22421447662E+02  0.32530153426E+02  0.27628824703E+03  0.00000000000E+00 0. -1.
         -2    1    5    5    0  503 -0.29280526541E+02  0.17944580185E+02  0.24057495598E+02  0.41929944991E+02  0.00000000000E+00 0.  1.
         -1    1    6    6    0  502  0.11868505083E+03  0.13057094690E+03 -0.81843639748E+03  0.83724133330E+03  0.00000000000E+00 0.  1.
<mgrwt>
<rscale>  0 0.15441008E+04</rscale>
<asrwt>0</asrwt>
<pdfrwt beam="1">  1        2 0.17212689E+00 0.15441008E+04</pdfrwt>
<pdfrwt beam="2">  1       -2 0.81962631E-01 0.15441008E+04</pdfrwt>
<totfact> 0.26738378E+01</totfact>
</mgrwt>
</event>
<event>
12    1  0.1556559E-007  0.2004657E+04  0.7818608E-02  0.8604446E-01
         -2   -1    0    0    0  501 -0.00000000000E+00  0.00000000000E+00  0.31155268478E+03  0.31155268478E+03  0.00000000000E+00 0.  1.
          2   -1    0    0  501    0  0.00000000000E+00 -0.00000000000E+00 -0.32246965994E+04  0.32246965994E+04  0.00000000000E+00 0. -1.
         23    2    1    2    0    0  0.62136392223E+03  0.29916405479E+03 -0.18760085960E+04  0.20008205905E+04  0.91008392960E+02 0.  0.
        254    2    1    2    0    0 -0.62136392223E+03 -0.29916405479E+03 -0.10371353186E+04  0.15354286937E+04  0.89794172903E+03 0.  0.
        -24    2    4    4    0    0 -0.10654979214E+03  0.14709618504E+03 -0.77653709516E+03  0.80160898938E+03  0.81098494665E+02 0.  0.
         24    2    4    4    0    0 -0.51481413009E+03 -0.44626023983E+03 -0.26059822347E+03  0.73381970431E+03  0.79988337677E+02 0.  0.
         13    1    3    3    0    0  0.21449619192E+02  0.11079158045E+02 -0.13121390742E+03  0.13341635360E+03  0.00000000000E+00 0.  1.
        -13    1    3    3    0    0  0.59991430304E+03  0.28808489675E+03 -0.17447946886E+04  0.18674042369E+04  0.00000000000E+00 0. -1.
          2    1    6    6  502    0 -0.19211155789E+03 -0.15412241890E+03 -0.13451386559E+03  0.28063241210E+03  0.00000000000E+00 0. -1.
          3    1    5    5  503    0 -0.76189606507E+02  0.14061708269E+03 -0.54441564442E+03  0.56742084379E+03  0.00000000000E+00 0. -1.
         -4    1    5    5    0  503 -0.30360185636E+02  0.64791023504E+01 -0.23212145075E+03  0.23418814559E+03  0.00000000000E+00 0.  1.
         -1    1    6    6    0  502 -0.32270257220E+03 -0.29213782093E+03 -0.12608435787E+03  0.45318729221E+03  0.00000000000E+00 0.  1.
<mgrwt>
<rscale>  0 0.20046575E+04</rscale>
<asrwt>0</asrwt>
<pdfrwt beam="1">  1        2 0.49610716E+00 0.20046575E+04</pdfrwt>
<pdfrwt beam="2">  1       -2 0.47931183E-01 0.20046575E+04</pdfrwt>
<totfact> 0.48025254E+00</totfact>
</mgrwt>
</event>
<event>
12    1  0.1556559E-007  0.1761965E+04  0.7818608E-02  0.8726792E-01
         -2   -1    0    0    0  501 -0.00000000000E+00  0.00000000000E+00  0.18398100807E+03  0.18398100807E+03  0.00000000000E+00 0.  1.
          2   -1    0    0  501    0  0.00000000000E+00 -0.00000000000E+00 -0.42185354875E+04  0.42185354875E+04  0.00000000000E+00 0. -1.
         23    2    1    2    0    0 -0.76252163870E+02 -0.22919902724E+03  0.89736097738E+01  0.25855580137E+03  0.91782297685E+02 0.  0.
        254    2    1    2    0    0  0.76252163870E+02  0.22919902724E+03 -0.40435280892E+04  0.41439606942E+04  0.87403903818E+03 0.  0.
        -24    2    4    4    0    0  0.14103645787E+03 -0.28697009978E+03 -0.22737125229E+04  0.22974569947E+04  0.79352916393E+02 0.  0.
         24    2    4    4    0    0 -0.64784294002E+02  0.51616912702E+03 -0.17698155663E+04  0.18465036994E+04  0.81860862876E+02 0.  0.
         13    1    3    3    0    0 -0.11560976390E+02 -0.13411951793E+01 -0.16645979080E+02  0.20311169320E+02  0.00000000000E+00 0. -1.
        -13    1    3    3    0    0 -0.64691187480E+02 -0.22785783206E+03  0.25619588854E+02  0.23824463205E+03  0.00000000000E+00 0.  1.
          2    1    6    6  502    0 -0.35254793694E+02  0.46723393547E+03 -0.16087772515E+04  0.16756236737E+04  0.00000000000E+00 0. -1.
          1    1    5    5  503    0  0.13744685744E+03 -0.27071000877E+03 -0.19669791283E+04  0.19902719509E+04  0.00000000000E+00 0. -1.
         -2    1    5    5    0  503  0.35896004313E+01 -0.16260091012E+02 -0.30673339453E+03  0.30718504376E+03  0.00000000000E+00 0.  1.
         -1    1    6    6    0  502 -0.29529500308E+02  0.48935191550E+02 -0.16103831485E+03  0.17088002578E+03  0.00000000000E+00 0.  1.
<mgrwt>
<rscale>  0 0.17619653E+04</rscale>
<asrwt>0</asrwt>
<pdfrwt beam="1">  1        2 0.64900542E+00 0.17619653E+04</pdfrwt>
<pdfrwt beam="2">  1       -2 0.28304772E-01 0.17619653E+04</pdfrwt>
<totfact> 0.24707115E+00</totfact>
</mgrwt>
</event>
<event>
12    1  0.1556559E-007  0.1397883E+04  0.7818608E-02  0.8955352E-01
         -1   -1    0    0    0  501 -0.00000000000E+00  0.00000000000E+00  0.21057514878E+04  0.21057514878E+04  0.00000000000E+00 0.  1.
          1   -1    0    0  501    0  0.00000000000E+00 -0.00000000000E+00 -0.23199281804E+03  0.23199281804E+03  0.00000000000E+00 0. -1.
         23    2    1    2    0    0  0.31183617569E+03  0.94522852593E+01  0.81223653604E+03  0.87487310310E+03  0.91343362536E+02 0.  0.
        254    2    1    2    0    0 -0.31183617569E+03 -0.94522852593E+01  0.10615221337E+04  0.14628712027E+04  0.95699099746E+03 0.  0.
        -24    2    4    4    0    0  0.33270276975E+03 -0.24511903802E+02  0.48693855527E+03  0.59559892509E+03  0.79605003165E+02 0.  0.
         24    2    4    4    0    0 -0.64453894544E+03  0.15059618543E+02  0.57458357842E+03  0.86727227761E+03  0.79735002534E+02 0.  0.
         11    1    3    3    0    0  0.34068164904E+02  0.12849767694E+02  0.18981351413E+03  0.19327422626E+03  0.00000000000E+00 0. -1.
        -11    1    3    3    0    0  0.27776801079E+03 -0.33974824349E+01  0.62242302191E+03  0.68159887684E+03  0.00000000000E+00 0.  1.
          4    1    6    6  502    0 -0.11880922707E+03 -0.24339643932E+02  0.12819160443E+03  0.17646851886E+03  0.00000000000E+00 0. -1.
          1    1    5    5  503    0  0.40248403796E+02  0.21568831075E+02  0.49037583682E+02  0.67006216842E+02  0.00000000000E+00 0. -1.
         -2    1    5    5    0  503  0.29245436596E+03 -0.46080734877E+02  0.43790097159E+03  0.52859270825E+03  0.00000000000E+00 0.  1.
         -3    1    6    6    0  502 -0.52572971838E+03  0.39399262475E+02  0.44639197399E+03  0.69080375876E+03  0.00000000000E+00 0.  1.
<mgrwt>
<rscale>  0 0.13978830E+04</rscale>
<asrwt>0</asrwt>
<pdfrwt beam="1">  1        1 0.35691204E-01 0.13978830E+04</pdfrwt>
<pdfrwt beam="2">  1       -1 0.32396175E+00 0.13978830E+04</pdfrwt>
<totfact> 0.27706016E+00</totfact>
</mgrwt>
</event>
<event>
12    1  0.1556559E-007  0.1888925E+04  0.7818608E-02  0.8660389E-01
         -1   -1    0    0    0  501 -0.00000000000E+00  0.00000000000E+00  0.51537644065E+03  0.51537644065E+03  0.00000000000E+00 0.  1.
          1   -1    0    0  501    0  0.00000000000E+00 -0.00000000000E+00 -0.17307911434E+04  0.17307911434E+04  0.00000000000E+00 0. -1.
         23    2    1    2    0    0 -0.44063449117E+03  0.19864581880E+03  0.17570121218E+03  0.52090759598E+03  0.82794271888E+02 0.  0.
        254    2    1    2    0    0  0.44063449117E+03 -0.19864581880E+03 -0.13911159149E+04  0.17252599881E+04  0.89872110330E+03 0.  0.
        -24    2    4    4    0    0  0.16151943766E+03  0.34872095480E+03 -0.64755207193E+03  0.75725533645E+03  0.80106963842E+02 0.  0.
         24    2    4    4    0    0  0.27911505351E+03 -0.54736677360E+03 -0.74356384301E+03  0.96800465163E+03  0.81426156788E+02 0.  0.
         13    1    3    3    0    0 -0.20401033986E+03  0.76865930342E+02  0.12058522481E+03  0.24913728436E+03  0.00000000000E+00 0.  1.
        -13    1    3    3    0    0 -0.23662415131E+03  0.12177988846E+03  0.55115987375E+02  0.27177031162E+03  0.00000000000E+00 0. -1.
          4    1    6    6  502    0  0.27245530053E+03 -0.49015551533E+03 -0.69197290824E+03  0.89067997942E+03  0.00000000000E+00 0. -1.
          1    1    5    5  503    0  0.16519125702E+03  0.31986577734E+03 -0.62134458494E+03  0.71810261115E+03  0.00000000000E+00 0. -1.
         -2    1    5    5    0  503 -0.36718193615E+01  0.28855177460E+02 -0.26207486997E+02  0.39152725299E+02  0.00000000000E+00 0.  1.
         -3    1    6    6    0  502  0.66597529770E+01 -0.57211258266E+02 -0.51590934772E+02  0.77324672212E+02  0.00000000000E+00 0.  1.
<mgrwt>
<rscale>  0 0.18889245E+04</rscale>
<asrwt>0</asrwt>
<pdfrwt beam="1">  1        1 0.26627556E+00 0.18889245E+04</pdfrwt>
<pdfrwt beam="2">  1       -1 0.79288684E-01 0.18889245E+04</pdfrwt>
<totfact> 0.67603939E+00</totfact>
</mgrwt>
</event>
<event>
12    1  0.1556559E-007  0.1209055E+04  0.7818608E-02  0.9104967E-01
          2   -1    0    0  501    0  0.00000000000E+00  0.00000000000E+00  0.56561492448E+03  0.56561492448E+03  0.00000000000E+00 0. -1.
         -2   -1    0    0    0  501 -0.00000000000E+00 -0.00000000000E+00 -0.64611745713E+03  0.64611745713E+03  0.00000000000E+00 0.  1.
         23    2    1    2    0    0  0.21591131149E+03 -0.86481352530E+02  0.96697248648E+02  0.26778562798E+03  0.90895906897E+02 0.  0.
        254    2    1    2    0    0 -0.21591131149E+03  0.86481352530E+02 -0.17719978130E+03  0.94394675363E+03  0.89751824073E+03 0.  0.
        -24    2    4    4    0    0 -0.34531595982E+03 -0.25982150844E+03  0.12831318644E+03  0.45769475082E+03  0.79182591279E+02 0.  0.
         24    2    4    4    0    0  0.12940464833E+03  0.34630286097E+03 -0.30551296774E+03  0.48625200281E+03  0.80197270865E+02 0.  0.
         13    1    3    3    0    0  0.92558845210E+02  0.38514317766E+00  0.83107577999E+01  0.92932001254E+02  0.00000000000E+00 0.  1.
        -13    1    3    3    0    0  0.12335246628E+03 -0.86866495708E+02  0.88386490848E+02  0.17485362672E+03  0.00000000000E+00 0. -1.
          4    1    6    6  502    0  0.73005456363E+02  0.91709380733E+02 -0.85818016904E+02  0.14527607924E+03  0.00000000000E+00 0. -1.
          1    1    5    5  503    0 -0.56508976215E+02 -0.34025678621E+02 -0.82750743831E+01  0.66479230249E+02  0.00000000000E+00 0. -1.
         -2    1    5    5    0  503 -0.28880698360E+03 -0.22579582982E+03  0.13658826082E+03  0.39121552057E+03  0.00000000000E+00 0.  1.
         -3    1    6    6    0  502  0.56399191969E+02  0.25459348024E+03 -0.21969495083E+03  0.34097592357E+03  0.00000000000E+00 0.  1.
<mgrwt>
<rscale>  0 0.12090553E+04</rscale>
<asrwt>0</asrwt>
<pdfrwt beam="1">  1        2 0.87017681E-01 0.12090553E+04</pdfrwt>
<pdfrwt beam="2">  1       -2 0.99402686E-01 0.12090553E+04</pdfrwt>
<totfact> 0.44004371E+01</totfact>
</mgrwt>
</event>
<event>
12    1  0.1556559E-007  0.1273064E+04  0.7818608E-02  0.9051203E-01
         -1   -1    0    0    0  501 -0.00000000000E+00  0.00000000000E+00  0.69870426697E+03  0.69870426697E+03  0.00000000000E+00 0.  1.
          1   -1    0    0  501    0  0.00000000000E+00 -0.00000000000E+00 -0.57989192081E+03  0.57989192081E+03  0.00000000000E+00 0. -1.
         23    2    1    2    0    0  0.36679826120E+02  0.14141500167E+03 -0.25320963908E+03  0.30649884096E+03  0.92102148971E+02 0.  0.
        254    2    1    2    0    0 -0.36679826120E+02 -0.14141500167E+03  0.37202198524E+03  0.97209734683E+03  0.88613163913E+03 0.  0.
        -24    2    4    4    0    0  0.27647802683E+03  0.12782744251E+03  0.44537161391E+03  0.54489136163E+03  0.75965565346E+02 0.  0.
         24    2    4    4    0    0 -0.31315785295E+03 -0.26924244419E+03 -0.73349628671E+02  0.42720598520E+03  0.81027471561E+02 0.  0.
         13    1    3    3    0    0  0.10475734745E+02  0.54608909037E+01 -0.97179619470E+02  0.97895049866E+02  0.00000000000E+00 0.  1.
        -13    1    3    3    0    0  0.26204091375E+02  0.13595411077E+03 -0.15603001961E+03  0.20860379110E+03  0.00000000000E+00 0. -1.
          4    1    6    6  502    0 -0.18981068216E+02 -0.13564970836E+02  0.14768421958E+02  0.27611513387E+02  0.00000000000E+00 0. -1.
          1    1    5    5  503    0  0.14045449157E+03  0.63510543627E+02  0.15933644033E+03  0.22169608605E+03  0.00000000000E+00 0. -1.
         -2    1    5    5    0  503  0.13602353526E+03  0.64316898888E+02  0.28603517359E+03  0.32319527558E+03  0.00000000000E+00 0.  1.
         -3    1    6    6    0  502 -0.29417678473E+03 -0.25567747335E+03 -0.88118050630E+02  0.39959447181E+03  0.00000000000E+00 0.  1.
<mgrwt>
<rscale>  0 0.12730640E+04</rscale>
<asrwt>0</asrwt>
<pdfrwt beam="1">  1        1 0.89214141E-01 0.12730640E+04</pdfrwt>
<pdfrwt beam="2">  1       -1 0.10749296E+00 0.12730640E+04</pdfrwt>
<totfact> 0.28553517E+01</totfact>
</mgrwt>
</event>
<event>
12    1  0.1556559E-007  0.2255365E+04  0.7818608E-02  0.8495731E-01
         -2   -1    0    0    0  501 -0.00000000000E+00  0.00000000000E+00  0.71534659562E+03  0.71534659562E+03  0.00000000000E+00 0.  1.
          2   -1    0    0  501    0  0.00000000000E+00 -0.00000000000E+00 -0.17776940420E+04  0.17776940420E+04  0.00000000000E+00 0. -1.
         23    2    1    2    0    0  0.54989392356E+03  0.60788145755E+03  0.74797808879E+02  0.82790650587E+03  0.89057715247E+02 0.  0.
        254    2    1    2    0    0 -0.54989392356E+03 -0.60788145755E+03 -0.11371452553E+04  0.16651341318E+04  0.89870415131E+03 0.  0.
        -24    2    4    4    0    0 -0.71804765799E+03 -0.19497564978E+03 -0.83293713178E+03  0.11197432725E+04  0.80204661362E+02 0.  0.
         24    2    4    4    0    0  0.16815373444E+03 -0.41290580777E+03 -0.30420812347E+03  0.54539085923E+03  0.78369142208E+02 0.  0.
         13    1    3    3    0    0  0.50590140114E+03  0.58688943630E+03  0.79646253898E+02  0.77892166735E+03  0.00000000000E+00 0.  1.
        -13    1    3    3    0    0  0.43992522420E+02  0.20992021250E+02 -0.48484450194E+01  0.48984838513E+02  0.00000000000E+00 0. -1.
          4    1    6    6  502    0  0.14868681973E+03 -0.27377677026E+03 -0.19611320365E+03  0.36813296367E+03  0.00000000000E+00 0. -1.
          3    1    5    5  503    0 -0.57180294412E+03 -0.17347171522E+03 -0.70579329845E+03  0.92476765894E+03  0.00000000000E+00 0. -1.
         -4    1    5    5    0  503 -0.14624471388E+03 -0.21503934566E+02 -0.12714383333E+03  0.19497561358E+03  0.00000000000E+00 0.  1.
         -1    1    6    6    0  502  0.19466914708E+02 -0.13912903751E+03 -0.10809491983E+03  0.17725789556E+03  0.00000000000E+00 0.  1.
<mgrwt>
<rscale>  0 0.22553646E+04</rscale>
<asrwt>0</asrwt>
<pdfrwt beam="1">  1        2 0.27349139E+00 0.22553646E+04</pdfrwt>
<pdfrwt beam="2">  1       -2 0.11005332E+00 0.22553646E+04</pdfrwt>
<totfact> 0.53018579E+00</totfact>
</mgrwt>
</event>
<event>
12    1  0.1556559E-007  0.2234232E+04  0.7818608E-02  0.8504314E-01
         -1   -1    0    0    0  501 -0.00000000000E+00  0.00000000000E+00  0.88631128101E+03  0.88631128101E+03  0.00000000000E+00 0.  1.
          1   -1    0    0  501    0  0.00000000000E+00 -0.00000000000E+00 -0.14080244771E+04  0.14080244771E+04  0.00000000000E+00 0. -1.
         23    2    1    2    0    0  0.36226120651E+03 -0.39214714152E+03  0.56647225645E+03  0.78399361212E+03  0.93501893947E+02 0.  0.
        254    2    1    2    0    0 -0.36226120651E+03  0.39214714152E+03 -0.10881854526E+04  0.15103421460E+04  0.90109558676E+03 0.  0.
        -24    2    4    4    0    0 -0.31577612188E+03  0.60213633819E+03 -0.41857482378E+03  0.80234455618E+03  0.79178120813E+02 0.  0.
         24    2    4    4    0    0 -0.46485084626E+02 -0.20998919667E+03 -0.66961062879E+03  0.70799758982E+03  0.81399429945E+02 0.  0.
         13    1    3    3    0    0  0.26827979627E+02 -0.25729215801E+02  0.82311281837E+02  0.90315448038E+02  0.00000000000E+00 0. -1.
        -13    1    3    3    0    0  0.33543322688E+03 -0.36641792572E+03  0.48416097462E+03  0.69367816408E+03  0.00000000000E+00 0.  1.
          4    1    6    6  502    0 -0.27698215131E+02 -0.17400605415E+03 -0.42555312453E+03  0.46058740734E+03  0.00000000000E+00 0. -1.
          3    1    5    5  503    0 -0.21067561337E+03  0.33501549000E+03 -0.27036251346E+03  0.47928642928E+03  0.00000000000E+00 0. -1.
         -4    1    5    5    0  503 -0.10510050851E+03  0.26712084819E+03 -0.14821231032E+03  0.32305812690E+03  0.00000000000E+00 0.  1.
         -3    1    6    6    0  502 -0.18786869495E+02 -0.35983142521E+02 -0.24405750426E+03  0.24741018248E+03  0.00000000000E+00 0.  1.
<mgrwt>
<rscale>  0 0.22342318E+04</rscale>
<asrwt>0</asrwt>
<pdfrwt beam="1">  1        1 0.21661915E+00 0.22342318E+04</pdfrwt>
<pdfrwt beam="2">  1       -1 0.13635558E+00 0.22342318E+04</pdfrwt>
<totfact> 0.30951092E+00</totfact>
</mgrwt>
</event>
<event>
12    1  0.1556559E-007  0.1704937E+04  0.7818608E-02  0.8758554E-01
         -2   -1    0    0    0  501 -0.00000000000E+00  0.00000000000E+00  0.18484595396E+04  0.18484595396E+04  0.00000000000E+00 0.  1.
          2   -1    0    0  501    0  0.00000000000E+00 -0.00000000000E+00 -0.39313954874E+03  0.39313954874E+03  0.00000000000E+00 0. -1.
         23    2    1    2    0    0 -0.52506678090E+03 -0.14126825079E+03  0.16705858872E+03  0.57600082481E+03  0.90645104833E+02 0.  0.
        254    2    1    2    0    0  0.52506678090E+03  0.14126825079E+03  0.12882614021E+04  0.16655982635E+04  0.90495761898E+03 0.  0.
        -24    2    4    4    0    0  0.49736363853E+03  0.22586673968E+03  0.22569212982E+03  0.59640800760E+03  0.79869900721E+02 0.  0.
         24    2    4    4    0    0  0.27703142367E+02 -0.84598488894E+02  0.10625692723E+04  0.10691902559E+04  0.78676403673E+02 0.  0.
         11    1    3    3    0    0 -0.14294597875E+03 -0.11936094427E+02  0.12481116041E+02  0.14398542095E+03  0.00000000000E+00 0.  1.
        -11    1    3    3    0    0 -0.38212080215E+03 -0.12933215636E+03  0.15457747268E+03  0.43201540385E+03  0.00000000000E+00 0. -1.
          4    1    6    6  502    0  0.98086447980E+01 -0.83283788100E+02  0.55460391381E+03  0.56090810306E+03  0.00000000000E+00 0. -1.
          1    1    5    5  503    0  0.11880880156E+03  0.40120049565E+02  0.19091240583E+02  0.12684488627E+03  0.00000000000E+00 0. -1.
         -2    1    5    5    0  503  0.37855483697E+03  0.18574669012E+03  0.20660088924E+03  0.46956312134E+03  0.00000000000E+00 0.  1.
         -3    1    6    6    0  502  0.17894497569E+02 -0.13147007939E+01  0.50796535847E+03  0.50828215283E+03  0.00000000000E+00 0.  1.
<mgrwt>
<rscale>  0 0.17049370E+04</rscale>
<asrwt>0</asrwt>
<pdfrwt beam="1">  1        2 0.60483009E-01 0.17049370E+04</pdfrwt>
<pdfrwt beam="2">  1       -2 0.28437839E+00 0.17049370E+04</pdfrwt>
<totfact> 0.30588305E+00</totfact>
</mgrwt>
</event>
<event>
12    1  0.1556559E-007  0.1382166E+04  0.7818608E-02  0.8966830E-01
          2   -1    0    0  501    0  0.00000000000E+00  0.00000000000E+00  0.99006973402E+03  0.99006973402E+03  0.00000000000E+00 0.  1.
         -2   -1    0    0    0  501 -0.00000000000E+00 -0.00000000000E+00 -0.48238578606E+03  0.48238578606E+03  0.00000000000E+00 0. -1.
         23    2    1    2    0    0 -0.10174505627E+02 -0.76476372120E+02 -0.26090775960E+03  0.28718674683E+03  0.91930476331E+02 0.  0.
        254    2    1    2    0    0  0.10174505627E+02  0.76476372120E+02  0.76859170756E+03  0.11852687733E+04  0.89898648258E+03 0.  0.
        -24    2    4    4    0    0 -0.97017037490E+02  0.14706902388E+03 -0.15618707748E+03  0.24808482471E+03  0.78166960607E+02 0.  0.
         24    2    4    4    0    0  0.10719154312E+03 -0.70592651757E+02  0.92477878504E+03  0.93718394855E+03  0.81391662658E+02 0.  0.
         13    1    3    3    0    0  0.26240793263E+02 -0.77603463820E+02 -0.20124689097E+03  0.21728135666E+03  0.00000000000E+00 0. -1.
        -13    1    3    3    0    0 -0.36415298890E+02  0.11270917005E+01 -0.59660868637E+02  0.69905390175E+02  0.00000000000E+00 0.  1.
          4    1    6    6  502    0  0.20445131904E+02 -0.60004363560E+02  0.44793556648E+03  0.45239893764E+03  0.00000000000E+00 0. -1.
          1    1    5    5  503    0 -0.15443277379E+02  0.94278244525E+02 -0.74681340138E+02  0.12126081301E+03  0.00000000000E+00 0. -1.
         -2    1    5    5    0  503 -0.81573760112E+02  0.52790779352E+02 -0.81505737341E+02  0.12682401170E+03  0.00000000000E+00 0.  1.
         -3    1    6    6    0  502  0.86746411213E+02 -0.10588288197E+02  0.47684321856E+03  0.48478501090E+03  0.00000000000E+00 0.  1.
<mgrwt>
<rscale>  0 0.13821658E+04</rscale>
<asrwt>0</asrwt>
<pdfrwt beam="1">  1        2 0.15231842E+00 0.13821658E+04</pdfrwt>
<pdfrwt beam="2">  1       -2 0.74213198E-01 0.13821658E+04</pdfrwt>
<totfact> 0.40731704E+01</totfact>
</mgrwt>
</event>
<event>
12    1  0.1556559E-007  0.2149509E+04  0.7818608E-02  0.8539742E-01
         -2   -1    0    0    0  501 -0.00000000000E+00  0.00000000000E+00  0.72060728196E+03  0.72060728196E+03  0.00000000000E+00 0.  1.
          2   -1    0    0  501    0  0.00000000000E+00 -0.00000000000E+00 -0.16029502196E+04  0.16029502196E+04  0.00000000000E+00 0. -1.
         23    2    1    2    0    0 -0.48623030063E+03 -0.13557944006E+03  0.41889036484E+03  0.66213146978E+03  0.90262149869E+02 0.  0.
        254    2    1    2    0    0  0.48623030063E+03  0.13557944006E+03 -0.13012333025E+04  0.16614260318E+04  0.90129166301E+03 0.  0.
        -24    2    4    4    0    0  0.11171320580E+03  0.35792005732E+03 -0.11190126217E+04  0.11828570832E+04  0.79843748141E+02 0.  0.
         24    2    4    4    0    0  0.37451709483E+03 -0.22234061726E+03 -0.18222068079E+03  0.47856894854E+03  0.78265302616E+02 0.  0.
         13    1    3    3    0    0 -0.37851360619E+03 -0.65447531855E+02  0.32002351759E+03  0.49997098047E+03  0.00000000000E+00 0. -1.
        -13    1    3    3    0    0 -0.10771669444E+03 -0.70131908202E+02  0.98866847247E+02  0.16216048931E+03  0.00000000000E+00 0.  1.
          2    1    6    6  502    0  0.17905702226E+03 -0.95788494434E+02 -0.12614674154E+03  0.23906035491E+03  0.00000000000E+00 0. -1.
          1    1    5    5  503    0  0.44959097309E+02  0.17441510549E+03 -0.41797483065E+03  0.45513174852E+03  0.00000000000E+00 0. -1.
         -2    1    5    5    0  503  0.66754108489E+02  0.18350495184E+03 -0.70103779103E+03  0.72772533473E+03  0.00000000000E+00 0.  1.
         -1    1    6    6    0  502  0.19546007257E+03 -0.12655212283E+03 -0.56073939253E+02  0.23950859363E+03  0.00000000000E+00 0.  1.
<mgrwt>
<rscale>  0 0.21495093E+04</rscale>
<asrwt>0</asrwt>
<pdfrwt beam="1">  1        2 0.24660772E+00 0.21495093E+04</pdfrwt>
<pdfrwt beam="2">  1       -2 0.11086266E+00 0.21495093E+04</pdfrwt>
<totfact> 0.65744423E+00</totfact>
</mgrwt>
</event>
<event>
12    1  0.1556559E-007  0.2884831E+04  0.7818608E-02  0.8277405E-01
         -1   -1    0    0    0  501 -0.00000000000E+00  0.00000000000E+00  0.14739911214E+04  0.14739911214E+04  0.00000000000E+00 0.  1.
          1   -1    0    0  501    0  0.00000000000E+00 -0.00000000000E+00 -0.14115161824E+04  0.14115161824E+04  0.00000000000E+00 0. -1.
         23    2    1    2    0    0 -0.94611918699E+03  0.41605794947E+03  0.81826050666E+03  0.13213955374E+04  0.91050404216E+02 0.  0.
        254    2    1    2    0    0  0.94611918699E+03 -0.41605794947E+03 -0.75578556764E+03  0.15641117665E+04  0.89832514188E+03 0.  0.
        -24    2    4    4    0    0  0.62329894057E+03 -0.67463708561E+03 -0.37273740137E+03  0.99453724167E+03  0.80835562038E+02 0.  0.
         24    2    4    4    0    0  0.32282024642E+03  0.25857913614E+03 -0.38304816627E+03  0.56957452483E+03  0.81321340996E+02 0.  0.
         11    1    3    3    0    0 -0.13534543904E+03  0.64487087727E+02  0.16145099708E+03  0.22032566080E+03  0.00000000000E+00 0. -1.
        -11    1    3    3    0    0 -0.81077374796E+03  0.35157086174E+03  0.65680950959E+03  0.11010698766E+04  0.00000000000E+00 0.  1.
          2    1    6    6  502    0  0.10063202249E+03  0.10681887603E+03 -0.18139499491E+03  0.23332642457E+03  0.00000000000E+00 0. -1.
          3    1    5    5  503    0  0.10094087449E+03 -0.81236688009E+02 -0.30688495286E+02  0.13315495997E+03  0.00000000000E+00 0. -1.
         -4    1    5    5    0  503  0.52235806608E+03 -0.59340039760E+03 -0.34204890608E+03  0.86138228170E+03  0.00000000000E+00 0.  1.
         -1    1    6    6    0  502  0.22218822394E+03  0.15176026012E+03 -0.20165317137E+03  0.33624810026E+03  0.00000000000E+00 0.  1.
<mgrwt>
<rscale>  0 0.28848309E+04</rscale>
<asrwt>0</asrwt>
<pdfrwt beam="1">  1        1 0.21715634E+00 0.28848309E+04</pdfrwt>
<pdfrwt beam="2">  1       -1 0.22676786E+00 0.28848309E+04</pdfrwt>
<totfact> 0.64280462E-01</totfact>
</mgrwt>
</event>
<event>
12    1  0.1556559E-007  0.1690141E+04  0.7818608E-02  0.8767007E-01
         -1   -1    0    0    0  501 -0.00000000000E+00  0.00000000000E+00  0.63440824141E+03  0.63440824141E+03  0.00000000000E+00 0.  1.
          1   -1    0    0  501    0  0.00000000000E+00 -0.00000000000E+00 -0.11256860586E+04  0.11256860586E+04  0.00000000000E+00 0. -1.
         23    2    1    2    0    0 -0.48636962953E+02  0.56836211513E+03  0.32535730416E+02  0.57861919943E+03  0.91326645161E+02 0.  0.
        254    2    1    2    0    0  0.48636962953E+02 -0.56836211513E+03 -0.52381354764E+03  0.11814751006E+04  0.89224533208E+03 0.  0.
        -24    2    4    4    0    0 -0.16014812766E+03 -0.10294794387E+03  0.20383531959E+03  0.28924351622E+03  0.76598121535E+02 0.  0.
         24    2    4    4    0    0  0.20878509061E+03 -0.46541417126E+03 -0.72764886723E+03  0.89223158440E+03  0.80017256613E+02 0.  0.
         11    1    3    3    0    0 -0.31486590215E+02  0.11604083233E+03  0.37489482163E+02  0.12594578756E+03  0.00000000000E+00 0. -1.
        -11    1    3    3    0    0 -0.17150372738E+02  0.45232128280E+03 -0.49537517467E+01  0.45267341187E+03  0.00000000000E+00 0.  1.
          2    1    6    6  502    0  0.47332217245E+02 -0.87455052291E+02 -0.93190711773E+02  0.13628365170E+03  0.00000000000E+00 0. -1.
          1    1    5    5  503    0 -0.36903435501E+02 -0.54254453279E+02  0.34227922696E+02  0.74006485827E+02  0.00000000000E+00 0. -1.
         -2    1    5    5    0  503 -0.12324469216E+03 -0.48693490592E+02  0.16960739689E+03  0.21523703039E+03  0.00000000000E+00 0.  1.
         -1    1    6    6    0  502  0.16145287336E+03 -0.37795911896E+03 -0.63445815545E+03  0.75594793270E+03  0.00000000000E+00 0.  1.
<mgrwt>
<rscale>  0 0.16901414E+04</rscale>
<asrwt>0</asrwt>
<pdfrwt beam="1">  1        1 0.17318247E+00 0.16901414E+04</pdfrwt>
<pdfrwt beam="2">  1       -1 0.97601268E-01 0.16901414E+04</pdfrwt>
<totfact> 0.11637363E+01</totfact>
</mgrwt>
</event>
<event>
12    1  0.1556559E-007  0.1872581E+04  0.7818608E-02  0.8668626E-01
          1   -1    0    0  501    0  0.00000000000E+00  0.00000000000E+00  0.23057030696E+04  0.23057030696E+04  0.00000000000E+00 0. -1.
         -1   -1    0    0    0  501 -0.00000000000E+00 -0.00000000000E+00 -0.38020520143E+03  0.38020520143E+03  0.00000000000E+00 0.  1.
         23    2    1    2    0    0 -0.30607457442E+01 -0.16235170411E+03  0.17527895653E+04  0.17624027507E+04  0.86166996711E+02 0.  0.
        254    2    1    2    0    0  0.30607457442E+01  0.16235170411E+03  0.17270830281E+03  0.92350552030E+03  0.89256195537E+03 0.  0.
        -24    2    4    4    0    0 -0.42484894473E+03  0.72860802128E+02  0.19158894961E+03  0.47857628652E+03  0.80768893070E+02 0.  0.
         24    2    4    4    0    0  0.42790969047E+03  0.89490901987E+02 -0.18880646805E+02  0.44492923378E+03  0.80561898648E+02 0.  0.
         13    1    3    3    0    0  0.34934927117E+02 -0.10345442372E+03  0.12484596824E+04  0.12532257759E+04  0.00000000000E+00 0. -1.
        -13    1    3    3    0    0 -0.37995672862E+02 -0.58897280389E+02  0.50432988295E+03  0.50917697477E+03  0.00000000000E+00 0.  1.
          4    1    6    6  502    0  0.13138197837E+02 -0.64901497302E+01  0.10739789916E+02  0.18168031631E+02  0.00000000000E+00 0. -1.
          3    1    5    5  503    0 -0.16649866924E+03  0.13421411687E+02  0.11443288913E+03  0.20247673265E+03  0.00000000000E+00 0. -1.
         -4    1    5    5    0  503 -0.25835027549E+03  0.59439390441E+02  0.77156060484E+02  0.27609955388E+03  0.00000000000E+00 0.  1.
         -3    1    6    6    0  502  0.41477149263E+03  0.95981051717E+02 -0.29620436720E+02  0.42676120215E+03  0.00000000000E+00 0.  1.
<mgrwt>
<rscale>  0 0.18725814E+04</rscale>
<asrwt>0</asrwt>
<pdfrwt beam="1">  1        1 0.35472354E+00 0.18725814E+04</pdfrwt>
<pdfrwt beam="2">  1       -1 0.58493110E-01 0.18725814E+04</pdfrwt>
<totfact> 0.51252746E+00</totfact>
</mgrwt>
</event>
<event>
12    1  0.1556559E-007  0.1753096E+04  0.7818608E-02  0.8731648E-01
         -1   -1    0    0    0  501 -0.00000000000E+00  0.00000000000E+00  0.20271956344E+03  0.20271956344E+03  0.00000000000E+00 0.  1.
          1   -1    0    0  501    0  0.00000000000E+00 -0.00000000000E+00 -0.37901433017E+04  0.37901433017E+04  0.00000000000E+00 0. -1.
         23    2    1    2    0    0 -0.17792662055E+01  0.24898854800E+03 -0.26602487020E+04  0.26734526570E+04  0.91801361304E+02 0.  0.
        254    2    1    2    0    0  0.17792662055E+01 -0.24898854800E+03 -0.92717503630E+03  0.13194102082E+04  0.90509186644E+03 0.  0.
        -24    2    4    4    0    0 -0.26338294794E+03 -0.34249256159E+03 -0.11166907932E+03  0.45310202477E+03  0.78483944617E+02 0.  0.
         24    2    4    4    0    0  0.26516221414E+03  0.93504013598E+02 -0.81550595699E+03  0.86630818342E+03  0.79911841432E+02 0.  0.
         13    1    3    3    0    0  0.37654631951E+02  0.77671533563E+02 -0.69037861677E+03  0.69575381633E+03  0.00000000000E+00 0.  1.
        -13    1    3    3    0    0 -0.39433898157E+02  0.17131701443E+03 -0.19698700852E+04  0.19776988407E+04  0.00000000000E+00 0. -1.
          4    1    6    6  502    0  0.43266001270E+02 -0.41156656225E+01 -0.70165902400E+02  0.82535685791E+02  0.00000000000E+00 0. -1.
          1    1    5    5  503    0 -0.14820593747E+02 -0.25367869218E+00 -0.10580858532E+02  0.18211779682E+02  0.00000000000E+00 0. -1.
         -2    1    5    5    0  503 -0.24856235419E+03 -0.34223888290E+03 -0.10108822078E+03  0.43489024509E+03  0.00000000000E+00 0.  1.
         -3    1    6    6    0  502  0.22189621287E+03  0.97619679220E+02 -0.74534005459E+03  0.78377249763E+03  0.00000000000E+00 0.  1.
<mgrwt>
<rscale>  0 0.17530958E+04</rscale>
<asrwt>0</asrwt>
<pdfrwt beam="1">  1        1 0.58309895E+00 0.17530958E+04</pdfrwt>
<pdfrwt beam="2">  1       -1 0.31187626E-01 0.17530958E+04</pdfrwt>
<totfact> 0.13247067E+00</totfact>
</mgrwt>
</event>
<event>
12    1  0.1556559E-007  0.1166034E+04  0.7818608E-02  0.9143118E-01
          1   -1    0    0  501    0  0.00000000000E+00  0.00000000000E+00  0.72291531660E+03  0.72291531660E+03  0.00000000000E+00 0. -1.
         -1   -1    0    0    0  501 -0.00000000000E+00 -0.00000000000E+00 -0.47019163193E+03  0.47019163193E+03  0.00000000000E+00 0.  1.
         23    2    1    2    0    0 -0.91105819395E+02  0.16978952762E+03  0.14773380679E+03  0.25928139903E+03  0.90955000950E+02 0.  0.
        254    2    1    2    0    0  0.91105819395E+02 -0.16978952762E+03  0.10498987788E+03  0.93382554949E+03  0.90767754650E+03 0.  0.
        -24    2    4    4    0    0 -0.33132808707E+03 -0.14356126730E+03 -0.18636281719E+03  0.41412349987E+03  0.79868859765E+02 0.  0.
         24    2    4    4    0    0  0.42243390647E+03 -0.26228260323E+02  0.29135269507E+03  0.51970204963E+03  0.77881323102E+02 0.  0.
         11    1    3    3    0    0 -0.40029275801E+02  0.15401814344E+03  0.11801341797E+03  0.19811889928E+03  0.00000000000E+00 0. -1.
        -11    1    3    3    0    0 -0.51076543594E+02  0.15771384179E+02  0.29720388817E+02  0.61162499752E+02  0.00000000000E+00 0.  1.
          4    1    6    6  502    0  0.18127760220E+03 -0.21412217711E+01  0.17056132282E+03  0.24891227116E+03  0.00000000000E+00 0. -1.
          3    1    5    5  503    0 -0.50156721789E+02 -0.46050141999E+02 -0.11801834068E+02  0.69105684326E+02  0.00000000000E+00 0. -1.
         -4    1    5    5    0  503 -0.28117136528E+03 -0.97511125297E+02 -0.17456098313E+03  0.34501781554E+03  0.00000000000E+00 0.  1.
         -3    1    6    6    0  502  0.24115630426E+03 -0.24087038552E+02  0.12079137225E+03  0.27078977847E+03  0.00000000000E+00 0.  1.
<mgrwt>
<rscale>  0 0.11660338E+04</rscale>
<asrwt>0</asrwt>
<pdfrwt beam="1">  1        1 0.11121774E+00 0.11660338E+04</pdfrwt>
<pdfrwt beam="2">  1       -1 0.72337174E-01 0.11660338E+04</pdfrwt>
<totfact> 0.49616729E+01</totfact>
</mgrwt>
</event>
<event>
12    1  0.1556559E-007  0.1290781E+04  0.7818608E-02  0.9036908E-01
         -2   -1    0    0    0  501 -0.00000000000E+00  0.00000000000E+00  0.24884811351E+03  0.24884811351E+03  0.00000000000E+00 0.  1.
          2   -1    0    0  501    0  0.00000000000E+00 -0.00000000000E+00 -0.16738281571E+04  0.16738281571E+04  0.00000000000E+00 0. -1.
         23    2    1    2    0    0 -0.29962814511E+03  0.10989361674E+03 -0.34649626083E+03  0.47993818996E+03  0.91800735673E+02 0.  0.
        254    2    1    2    0    0  0.29962814511E+03 -0.10989361674E+03 -0.10784837828E+04  0.14427380806E+04  0.90361068351E+03 0.  0.
        -24    2    4    4    0    0 -0.10568717903E+03  0.23545513088E+03 -0.78389905594E+03  0.82898141324E+03  0.78125252776E+02 0.  0.
         24    2    4    4    0    0  0.40531532414E+03 -0.34534874762E+03 -0.29458472682E+03  0.61375666741E+03  0.79817391925E+02 0.  0.
         13    1    3    3    0    0 -0.25668691840E+03  0.11041778396E+03 -0.25256468520E+03  0.37665525525E+03  0.00000000000E+00 0. -1.
        -13    1    3    3    0    0 -0.42941226706E+02 -0.52416722801E+00 -0.93931575628E+02  0.10328293471E+03  0.00000000000E+00 0.  1.
          2    1    6    6  502    0  0.33887866371E+03 -0.31004403279E+03 -0.22577711097E+03  0.51180206606E+03  0.00000000000E+00 0. -1.
          1    1    5    5  503    0 -0.73775995623E+02  0.22385085520E+03 -0.68622363046E+03  0.72557217002E+03  0.00000000000E+00 0. -1.
         -2    1    5    5    0  503 -0.31911183407E+02  0.11604275681E+02 -0.97675425478E+02  0.10340924322E+03  0.00000000000E+00 0.  1.
         -1    1    6    6    0  502  0.66436660426E+02 -0.35304714830E+02 -0.68807615842E+02  0.10195460135E+03  0.00000000000E+00 0.  1.
<mgrwt>
<rscale>  0 0.12907811E+04</rscale>
<asrwt>0</asrwt>
<pdfrwt beam="1">  1        2 0.25751202E+00 0.12907811E+04</pdfrwt>
<pdfrwt beam="2">  1       -2 0.38284326E-01 0.12907811E+04</pdfrwt>
<totfact> 0.64073300E+01</totfact>
</mgrwt>
</event>
<event>
12    1  0.1556559E-007  0.1873270E+04  0.7818608E-02  0.8668277E-01
          2   -1    0    0  501    0  0.00000000000E+00  0.00000000000E+00  0.89914010354E+03  0.89914010354E+03  0.00000000000E+00 0. -1.
         -2   -1    0    0    0  501 -0.00000000000E+00 -0.00000000000E+00 -0.97569345593E+03  0.97569345593E+03  0.00000000000E+00 0.  1.
         23    2    1    2    0    0  0.35169335978E+03 -0.41902710898E+02 -0.65037168629E+03  0.74605749330E+03  0.90412369029E+02 0.  0.
        254    2    1    2    0    0 -0.35169335978E+03  0.41902710898E+02  0.57381833391E+03  0.11287760662E+04  0.90522034376E+03 0.  0.
        -24    2    4    4    0    0  0.21237796314E+03  0.79968539064E+02  0.49690827101E+03  0.55309549961E+03  0.86587732473E+02 0.  0.
         24    2    4    4    0    0 -0.56407132293E+03 -0.38065828166E+02  0.76910062894E+02  0.57568056657E+03  0.76599558315E+02 0.  0.
         13    1    3    3    0    0  0.20644696461E+03 -0.22347976995E-01 -0.44967903576E+03  0.49480459264E+03  0.00000000000E+00 0.  1.
        -13    1    3    3    0    0  0.14524639517E+03 -0.41880362921E+02 -0.20069265053E+03  0.25125290065E+03  0.00000000000E+00 0. -1.
          2    1    6    6  502    0 -0.49054000032E+03 -0.35652347387E+02  0.40239928817E+02  0.49347728789E+03  0.00000000000E+00 0. -1.
          1    1    5    5  503    0  0.14729772073E+03  0.89358981318E+02  0.30580361486E+03  0.35099500984E+03  0.00000000000E+00 0. -1.
         -2    1    5    5    0  503  0.65080242409E+02 -0.93904422541E+01  0.19110465616E+03  0.20210048976E+03  0.00000000000E+00 0.  1.
         -1    1    6    6    0  502 -0.73531322605E+02 -0.24134807786E+01  0.36670134077E+02  0.82203278686E+02  0.00000000000E+00 0.  1.
<mgrwt>
<rscale>  0 0.18732700E+04</rscale>
<asrwt>0</asrwt>
<pdfrwt beam="1">  1        2 0.13832925E+00 0.18732700E+04</pdfrwt>
<pdfrwt beam="2">  1       -2 0.15010668E+00 0.18732700E+04</pdfrwt>
<totfact> 0.82391112E+00</totfact>
</mgrwt>
</event>
<event>
12    1  0.1556559E-007  0.2747926E+04  0.7818608E-02  0.8319620E-01
         -1   -1    0    0    0  501 -0.00000000000E+00  0.00000000000E+00  0.79085407845E+03  0.79085407845E+03  0.00000000000E+00 0.  1.
          1   -1    0    0  501    0  0.00000000000E+00 -0.00000000000E+00 -0.23870067639E+04  0.23870067639E+04  0.00000000000E+00 0. -1.
         23    2    1    2    0    0  0.35750148169E+02 -0.66463162961E+03 -0.19050090992E+04  0.20199964846E+04  0.91174851457E+02 0.  0.
        254    2    1    2    0    0 -0.35750148169E+02  0.66463162961E+03  0.30885641369E+03  0.11578643578E+04  0.89568092010E+03 0.  0.
        -24    2    4    4    0    0 -0.22272717650E+03  0.70053713262E+03 -0.52341482456E+02  0.74126771836E+03  0.79865700866E+02 0.  0.
         24    2    4    4    0    0  0.18697702833E+03 -0.35905503006E+02  0.36119789615E+03  0.41659663945E+03  0.82699610331E+02 0.  0.
         13    1    3    3    0    0  0.15366532065E+01 -0.33662817182E+03 -0.83441967952E+03  0.89976501873E+03  0.00000000000E+00 0. -1.
        -13    1    3    3    0    0  0.34213494962E+02 -0.32800345779E+03 -0.10705894197E+04  0.11202314658E+04  0.00000000000E+00 0.  1.
          4    1    6    6  502    0  0.15197625653E+00  0.81274791006E+01  0.52245433527E+02  0.52874042192E+02  0.00000000000E+00 0. -1.
          3    1    5    5  503    0 -0.10385623159E+03  0.42839868753E+03 -0.55467170107E+02  0.44428387240E+03  0.00000000000E+00 0. -1.
         -4    1    5    5    0  503 -0.11887094491E+03  0.27213844509E+03  0.31256876507E+01  0.29698384596E+03  0.00000000000E+00 0.  1.
         -3    1    6    6    0  502  0.18682505207E+03 -0.44032982107E+02  0.30895246262E+03  0.36372259726E+03  0.00000000000E+00 0.  1.
<mgrwt>
<rscale>  0 0.27479258E+04</rscale>
<asrwt>0</asrwt>
<pdfrwt beam="1">  1        1 0.36723180E+00 0.27479258E+04</pdfrwt>
<pdfrwt beam="2">  1       -1 0.12166986E+00 0.27479258E+04</pdfrwt>
<totfact> 0.84358413E-01</totfact>
</mgrwt>
</event>
<event>
12    1  0.1556559E-007  0.2176385E+04  0.7818608E-02  0.8528322E-01
         -2   -1    0    0    0  501 -0.00000000000E+00  0.00000000000E+00  0.70379529551E+03  0.70379529551E+03  0.00000000000E+00 0.  1.
          2   -1    0    0  501    0  0.00000000000E+00 -0.00000000000E+00 -0.16825380756E+04  0.16825380756E+04  0.00000000000E+00 0. -1.
         23    2    1    2    0    0  0.18328946181E+02 -0.87369285376E+03 -0.66181933654E+03  0.11014371616E+04  0.10716265062E+03 0.  0.
        254    2    1    2    0    0 -0.18328946181E+02  0.87369285376E+03 -0.31692344354E+03  0.12848962095E+04  0.88704151380E+03 0.  0.
        -24    2    4    4    0    0 -0.31574219108E+03  0.14984925173E+03  0.12876380034E+03  0.38076201453E+03  0.79067477211E+02 0.  0.
         24    2    4    4    0    0  0.29741324490E+03  0.72384360203E+03 -0.44568724388E+03  0.90413419500E+03  0.80108206595E+02 0.  0.
         11    1    3    3    0    0 -0.24180032855E+02 -0.65775953359E+03 -0.52853685984E+03  0.84414660470E+03  0.00000000000E+00 0. -1.
        -11    1    3    3    0    0  0.42508979036E+02 -0.21593332017E+03 -0.13328247669E+03  0.25729055686E+03  0.00000000000E+00 0.  1.
          4    1    6    6  502    0  0.29251279464E+03  0.70961357717E+03 -0.44828507874E+03  0.88886144913E+03  0.00000000000E+00 0. -1.
          3    1    5    5  503    0 -0.28621950423E+03  0.13975123463E+03  0.89971908033E+02  0.33097878545E+03  0.00000000000E+00 0. -1.
         -4    1    5    5    0  503 -0.29522686853E+02  0.10098017100E+02  0.38791892307E+02  0.49783229075E+02  0.00000000000E+00 0.  1.
         -3    1    6    6    0  502  0.49004502662E+01  0.14230024855E+02  0.25978348625E+01  0.15272745862E+02  0.00000000000E+00 0.  1.
<mgrwt>
<rscale>  0 0.21763845E+04</rscale>
<asrwt>0</asrwt>
<pdfrwt beam="1">  1        2 0.25885201E+00 0.21763845E+04</pdfrwt>
<pdfrwt beam="2">  1       -2 0.10827620E+00 0.21763845E+04</pdfrwt>
<totfact> 0.62701724E+00</totfact>
</mgrwt>
</event>
<event>
12    1  0.1556559E-007  0.2535998E+04  0.7818608E-02  0.8390272E-01
         -1   -1    0    0    0  501 -0.00000000000E+00  0.00000000000E+00  0.10431154282E+04  0.10431154282E+04  0.00000000000E+00 0.  1.
          1   -1    0    0  501    0  0.00000000000E+00 -0.00000000000E+00 -0.15413650792E+04  0.15413650792E+04  0.00000000000E+00 0. -1.
         23    2    1    2    0    0  0.55497853639E+02 -0.96275174915E+03  0.30922619821E+03  0.10169345678E+04  0.92542591972E+02 0.  0.
        254    2    1    2    0    0 -0.55497853639E+02  0.96275174915E+03 -0.80747584923E+03  0.15675459396E+04  0.93552770321E+03 0.  0.
        -24    2    4    4    0    0 -0.13718036390E+03  0.48591897249E+02 -0.60090143552E+03  0.62344995231E+03  0.80172832698E+02 0.  0.
         24    2    4    4    0    0  0.81682510264E+02  0.91415985190E+03 -0.20657441371E+03  0.94409598731E+03  0.79271543126E+02 0.  0.
         13    1    3    3    0    0  0.37877279323E+01 -0.71326137549E+03  0.21051297917E+03  0.74368800653E+03  0.00000000000E+00 0.  1.
        -13    1    3    3    0    0  0.51710125707E+02 -0.24949037365E+03  0.98713219041E+02  0.27324656130E+03  0.00000000000E+00 0. -1.
          2    1    6    6  502    0  0.50537369408E+02  0.40747011003E+03 -0.13017208426E+03  0.43073273360E+03  0.00000000000E+00 0. -1.
          1    1    5    5  503    0  0.67146630284E+01 -0.85364635632E+01 -0.52610890401E+02  0.53720235466E+02  0.00000000000E+00 0. -1.
         -2    1    5    5    0  503 -0.14389502693E+03  0.57128360812E+02 -0.54829054512E+03  0.56972971684E+03  0.00000000000E+00 0.  1.
         -1    1    6    6    0  502  0.31145140856E+02  0.50668974187E+03 -0.76402329451E+02  0.51336325371E+03  0.00000000000E+00 0.  1.
<mgrwt>
<rscale>  0 0.25359982E+04</rscale>
<asrwt>0</asrwt>
<pdfrwt beam="1">  1        1 0.23713309E+00 0.25359982E+04</pdfrwt>
<pdfrwt beam="2">  1       -1 0.16047930E+00 0.25359982E+04</pdfrwt>
<totfact> 0.15719162E+00</totfact>
</mgrwt>
</event>
<event>
12    1  0.1556559E-007  0.2546893E+04  0.7818608E-02  0.8386468E-01
          1   -1    0    0  501    0  0.00000000000E+00  0.00000000000E+00  0.15417050293E+04  0.15417050293E+04  0.00000000000E+00 0. -1.
         -1   -1    0    0    0  501 -0.00000000000E+00 -0.00000000000E+00 -0.10518651291E+04  0.10518651291E+04  0.00000000000E+00 0.  1.
         23    2    1    2    0    0 -0.10397598925E+04  0.39789002847E+03  0.26653620096E+03  0.11483372263E+04  0.90662727033E+02 0.  0.
        254    2    1    2    0    0  0.10397598925E+04 -0.39789002847E+03  0.22330369925E+03  0.14452329320E+04  0.89410098809E+03 0.  0.
        -24    2    4    4    0    0  0.26401720773E+03 -0.56602756221E+03  0.78697070226E+02  0.63445003610E+03  0.79002103038E+02 0.  0.
         24    2    4    4    0    0  0.77574268478E+03  0.16813753374E+03  0.14460662902E+03  0.81078289593E+03  0.80067995718E+02 0.  0.
         11    1    3    3    0    0 -0.69434238790E+03  0.22275283516E+03  0.15772891247E+03  0.74606205307E+03  0.00000000000E+00 0. -1.
        -11    1    3    3    0    0 -0.34541750460E+03  0.17513719331E+03  0.10880728850E+03  0.40227517323E+03  0.00000000000E+00 0.  1.
          2    1    6    6  502    0  0.82046392003E+02 -0.60672645810E+01  0.21460891757E+02  0.85023479200E+02  0.00000000000E+00 0. -1.
          1    1    5    5  503    0  0.15981627872E+02 -0.18799134109E+02 -0.10927063211E+02  0.26985562494E+02  0.00000000000E+00 0. -1.
         -2    1    5    5    0  503  0.24803557985E+03 -0.54722842810E+03  0.89624133437E+02  0.60746447360E+03  0.00000000000E+00 0.  1.
         -1    1    6    6    0  502  0.69369629277E+03  0.17420479832E+03  0.12314573727E+03  0.72575941673E+03  0.00000000000E+00 0.  1.
<mgrwt>
<rscale>  0 0.25468928E+04</rscale>
<asrwt>0</asrwt>
<pdfrwt beam="1">  1        1 0.23718539E+00 0.25468928E+04</pdfrwt>
<pdfrwt beam="2">  1       -1 0.16182540E+00 0.25468928E+04</pdfrwt>
<totfact> 0.15332493E+00</totfact>
</mgrwt>
</event>
<event>
12    1  0.1556559E-007  0.1692086E+04  0.7818608E-02  0.8765891E-01
          1   -1    0    0  501    0  0.00000000000E+00  0.00000000000E+00  0.62513981044E+03  0.62513981044E+03  0.00000000000E+00 0. -1.
         -1   -1    0    0    0  501 -0.00000000000E+00 -0.00000000000E+00 -0.11450054165E+04  0.11450054165E+04  0.00000000000E+00 0.  1.
         23    2    1    2    0    0 -0.47969479606E+03 -0.37251603693E+03 -0.20134699337E+03  0.64620606067E+03  0.90367947656E+02 0.  0.
        254    2    1    2    0    0  0.47969479606E+03  0.37251603693E+03 -0.31851861266E+03  0.11239391662E+04  0.89045485437E+03 0.  0.
        -24    2    4    4    0    0  0.58106210683E+03  0.37496838206E+02 -0.45152067890E+03  0.74116333313E+03  0.80081071645E+02 0.  0.
         24    2    4    4    0    0 -0.10136731077E+03  0.33501919872E+03  0.13300206624E+03  0.38277583312E+03  0.79464417115E+02 0.  0.
         13    1    3    3    0    0 -0.20560653433E+03 -0.12362201908E+03 -0.11494780860E+03  0.26602527937E+03  0.00000000000E+00 0. -1.
        -13    1    3    3    0    0 -0.27408826173E+03 -0.24889401785E+03 -0.86399184772E+02  0.38018078130E+03  0.00000000000E+00 0.  1.
          4    1    6    6  502    0  0.10292480934E+02  0.13777021520E+02  0.14913025428E+02  0.22762684665E+02  0.00000000000E+00 0. -1.
          1    1    5    5  503    0  0.23714530742E+03 -0.23953563716E+02 -0.17908299986E+03  0.29813149932E+03  0.00000000000E+00 0. -1.
         -4    1    5    5    0  503  0.34391679941E+03  0.61450401923E+02 -0.27243767904E+03  0.44303183381E+03  0.00000000000E+00 0.  1.
         -3    1    6    6    0  502 -0.11165979170E+03  0.32124217720E+03  0.11808904081E+03  0.36001314845E+03  0.00000000000E+00 0.  1.
<mgrwt>
<rscale>  0 0.16920857E+04</rscale>
<asrwt>0</asrwt>
<pdfrwt beam="1">  1        1 0.96175356E-01 0.16920857E+04</pdfrwt>
<pdfrwt beam="2">  1       -1 0.17615468E+00 0.16920857E+04</pdfrwt>
<totfact> 0.68146312E+00</totfact>
</mgrwt>
</event>
<event>
12    1  0.1556559E-007  0.1917137E+04  0.7818608E-02  0.8646373E-01
         -1   -1    0    0    0  501 -0.00000000000E+00  0.00000000000E+00  0.86488042341E+03  0.86488042341E+03  0.00000000000E+00 0.  1.
          1   -1    0    0  501    0  0.00000000000E+00 -0.00000000000E+00 -0.10624053561E+04  0.10624053561E+04  0.00000000000E+00 0. -1.
         23    2    1    2    0    0 -0.46052643029E+02 -0.50977392995E+03  0.48381780208E+03  0.71014532614E+03  0.90754686051E+02 0.  0.
        254    2    1    2    0    0  0.46052643029E+02  0.50977392995E+03 -0.68134273479E+03  0.12171404534E+04  0.86902972070E+03 0.  0.
        -24    2    4    4    0    0  0.38600709625E+03  0.52406761450E+03 -0.39786349220E+03  0.76700176082E+03  0.79674335656E+02 0.  0.
         24    2    4    4    0    0 -0.33995445322E+03 -0.14293684545E+02 -0.28347924259E+03  0.45013869258E+03  0.80566878372E+02 0.  0.
         13    1    3    3    0    0 -0.77386994645E+01 -0.10939940089E+02 -0.10464895977E+01  0.13441164348E+02  0.00000000000E+00 0. -1.
        -13    1    3    3    0    0 -0.38313943564E+02 -0.49883398986E+03  0.48486429168E+03  0.69670416179E+03  0.00000000000E+00 0.  1.
          4    1    6    6  502    0 -0.18393461284E+03 -0.39697886674E+02 -0.12253952915E+03  0.22455244423E+03  0.00000000000E+00 0. -1.
          1    1    5    5  503    0  0.32497803486E+03  0.47845662020E+03 -0.33632467900E+03  0.66906333800E+03  0.00000000000E+00 0. -1.
         -2    1    5    5    0  503  0.61029061387E+02  0.45610994299E+02 -0.61538813201E+02  0.97938422822E+02  0.00000000000E+00 0.  1.
         -3    1    6    6    0  502 -0.15601984038E+03  0.25404202129E+02 -0.16093971344E+03  0.22558624834E+03  0.00000000000E+00 0.  1.
<mgrwt>
<rscale>  0 0.19171370E+04</rscale>
<asrwt>0</asrwt>
<pdfrwt beam="1">  1        1 0.16344698E+00 0.19171370E+04</pdfrwt>
<pdfrwt beam="2">  1       -1 0.13305853E+00 0.19171370E+04</pdfrwt>
<totfact> 0.60477838E+00</totfact>
</mgrwt>
</event>
<event>
12    1  0.1556559E-007  0.1264342E+04  0.7818608E-02  0.9058330E-01
          2   -1    0    0  501    0  0.00000000000E+00  0.00000000000E+00  0.67510660121E+03  0.67510660121E+03  0.00000000000E+00 0. -1.
         -2   -1    0    0    0  501 -0.00000000000E+00 -0.00000000000E+00 -0.59196597026E+03  0.59196597026E+03  0.00000000000E+00 0.  1.
         23    2    1    2    0    0 -0.24581422338E+03 -0.15364589640E+03 -0.42587092994E+02  0.31163213245E+03  0.10615663706E+03 0.  0.
        254    2    1    2    0    0  0.24581422338E+03  0.15364589640E+03  0.12572772394E+03  0.95544043901E+03  0.90168025266E+03 0.  0.
        -24    2    4    4    0    0  0.21010287132E+03 -0.23396281254E+03  0.36731604924E+03  0.49057810296E+03  0.82849145369E+02 0.  0.
         24    2    4    4    0    0  0.35711352056E+02  0.38760870893E+03 -0.24158832529E+03  0.46486233605E+03  0.78843266412E+02 0.  0.
         13    1    3    3    0    0 -0.22083275306E+03 -0.12618601043E+03 -0.71924238939E+02  0.26431630710E+03  0.00000000000E+00 0.  1.
        -13    1    3    3    0    0 -0.24981470324E+02 -0.27459885963E+02  0.29337145945E+02  0.47315825353E+02  0.00000000000E+00 0. -1.
          4    1    6    6  502    0 -0.32838348764E+01  0.20837005254E+03 -0.16615311439E+03  0.26652527045E+03  0.00000000000E+00 0. -1.
          1    1    5    5  503    0  0.16546811107E+03 -0.18786805783E+03  0.33646211874E+03  0.41938152115E+03  0.00000000000E+00 0. -1.
         -2    1    5    5    0  503  0.44634760254E+02 -0.46094754705E+02  0.30853930493E+02  0.71196581808E+02  0.00000000000E+00 0.  1.
         -3    1    6    6    0  502  0.38995186933E+02  0.17923865639E+03 -0.75435210908E+02  0.19833706561E+03  0.00000000000E+00 0.  1.
<mgrwt>
<rscale>  0 0.12643419E+04</rscale>
<asrwt>0</asrwt>
<pdfrwt beam="1">  1        2 0.10386255E+00 0.12643419E+04</pdfrwt>
<pdfrwt beam="2">  1       -2 0.91071688E-01 0.12643419E+04</pdfrwt>
<totfact> 0.43347552E+01</totfact>
</mgrwt>
</event>
<event>
12    1  0.1556559E-007  0.1176778E+04  0.7818608E-02  0.9133429E-01
         -2   -1    0    0    0  501 -0.00000000000E+00  0.00000000000E+00  0.20663982874E+03  0.20663982874E+03  0.00000000000E+00 0.  1.
          2   -1    0    0  501    0  0.00000000000E+00 -0.00000000000E+00 -0.16753868356E+04  0.16753868356E+04  0.00000000000E+00 0. -1.
         23    2    1    2    0    0 -0.59028818205E+01  0.23796004085E+03 -0.37443701401E+03  0.45300385418E+03  0.91376087585E+02 0.  0.
        254    2    1    2    0    0  0.59028818205E+01 -0.23796004085E+03 -0.10943099929E+04  0.14290228102E+04  0.88765534216E+03 0.  0.
        -24    2    4    4    0    0  0.39588707450E+03 -0.23456723235E+03 -0.82233187869E+03  0.94598029403E+03  0.83070065216E+02 0.  0.
         24    2    4    4    0    0 -0.38998419268E+03 -0.33928085016E+01 -0.27197811418E+03  0.48304251615E+03  0.85198568802E+02 0.  0.
         13    1    3    3    0    0  0.20960611767E+02  0.14851397168E+03 -0.29271584110E+03  0.32890471366E+03  0.00000000000E+00 0. -1.
        -13    1    3    3    0    0 -0.26863493587E+02  0.89446069167E+02 -0.81721172907E+02  0.12409914052E+03  0.00000000000E+00 0.  1.
          4    1    6    6  502    0 -0.32666475973E+03  0.29195809179E+02 -0.22178084733E+03  0.39591540102E+03  0.00000000000E+00 0. -1.
          3    1    5    5  503    0  0.23567610273E+03 -0.17096774810E+03 -0.57491820206E+03  0.64444094791E+03  0.00000000000E+00 0. -1.
         -4    1    5    5    0  503  0.16021097177E+03 -0.63599484253E+02 -0.24741367663E+03  0.30153934612E+03  0.00000000000E+00 0.  1.
         -3    1    6    6    0  502 -0.63319432948E+02 -0.32588617681E+02 -0.50197266856E+02  0.87127115131E+02  0.00000000000E+00 0.  1.
<mgrwt>
<rscale>  0 0.11767781E+04</rscale>
<asrwt>0</asrwt>
<pdfrwt beam="1">  1        2 0.25775181E+00 0.11767781E+04</pdfrwt>
<pdfrwt beam="2">  1       -2 0.31790744E-01 0.11767781E+04</pdfrwt>
<totfact> 0.91970881E+01</totfact>
</mgrwt>
</event>
<event>
12    1  0.1556559E-007  0.1863836E+04  0.7818608E-02  0.8673070E-01
         -2   -1    0    0    0  501 -0.00000000000E+00  0.00000000000E+00  0.11497078621E+04  0.11497078621E+04  0.00000000000E+00 0.  1.
          2   -1    0    0  501    0  0.00000000000E+00 -0.00000000000E+00 -0.75538447740E+03  0.75538447740E+03  0.00000000000E+00 0. -1.
         23    2    1    2    0    0 -0.39600611501E+03  0.23565387061E+03 -0.40637071748E+03  0.62135082555E+03  0.92661202923E+02 0.  0.
        254    2    1    2    0    0  0.39600611501E+03 -0.23565387061E+03  0.80069410218E+03  0.12837415139E+04  0.89136279902E+03 0.  0.
        -24    2    4    4    0    0  0.16647135579E+03 -0.32106303983E+03  0.92588873021E+03  0.99723538125E+03  0.80089181815E+02 0.  0.
         24    2    4    4    0    0  0.22953475922E+03  0.85409169223E+02 -0.12519462803E+03  0.28650613268E+03  0.80194371979E+02 0.  0.
         11    1    3    3    0    0 -0.27236271298E+03  0.20509246669E+03 -0.27143747356E+03  0.43580118101E+03  0.00000000000E+00 0. -1.
        -11    1    3    3    0    0 -0.12364340203E+03  0.30561403922E+02 -0.13493324392E+03  0.18554964455E+03  0.00000000000E+00 0.  1.
          2    1    6    6  502    0  0.21435786462E+03  0.10004146175E+03 -0.11675362936E+03  0.26379726717E+03  0.00000000000E+00 0. -1.
          1    1    5    5  503    0  0.13762735933E+03 -0.25435408318E+03  0.64095774144E+03  0.70318142465E+03  0.00000000000E+00 0. -1.
         -2    1    5    5    0  503  0.28843996462E+02 -0.66708956657E+02  0.28493098877E+03  0.29405395660E+03  0.00000000000E+00 0.  1.
         -1    1    6    6    0  502  0.15176894600E+02 -0.14632292531E+02 -0.84409986752E+01  0.22708865516E+02  0.00000000000E+00 0.  1.
<mgrwt>
<rscale>  0 0.18638363E+04</rscale>
<asrwt>0</asrwt>
<pdfrwt beam="1">  1        2 0.11621300E+00 0.18638363E+04</pdfrwt>
<pdfrwt beam="2">  1       -2 0.17687813E+00 0.18638363E+04</pdfrwt>
<totfact> 0.66477830E+00</totfact>
</mgrwt>
</event>
<event>
12    1  0.1556559E-007  0.1856417E+04  0.7818608E-02  0.8676860E-01
          1   -1    0    0  501    0  0.00000000000E+00  0.00000000000E+00  0.86242185533E+03  0.86242185533E+03  0.00000000000E+00 0. -1.
         -1   -1    0    0    0  501 -0.00000000000E+00 -0.00000000000E+00 -0.99901309761E+03  0.99901309761E+03  0.00000000000E+00 0.  1.
         23    2    1    2    0    0 -0.53729871727E+03 -0.40301417861E+03  0.16383613119E+03  0.69752260583E+03  0.92656181758E+02 0.  0.
        254    2    1    2    0    0  0.53729871727E+03  0.40301417861E+03 -0.30042737347E+03  0.11639123471E+04  0.90184533334E+03 0.  0.
        -24    2    4    4    0    0  0.24366527315E+03  0.42908059736E+03 -0.56860678112E+03  0.75729386871E+03  0.81837691075E+02 0.  0.
         24    2    4    4    0    0  0.29363344412E+03 -0.26066418744E+02  0.26817940765E+03  0.40661847840E+03  0.80736203723E+02 0.  0.
         11    1    3    3    0    0 -0.30915025058E+03 -0.23678274241E+03  0.47850702473E+02  0.39233867292E+03  0.00000000000E+00 0.  1.
        -11    1    3    3    0    0 -0.22814846669E+03 -0.16623143621E+03  0.11598542872E+03  0.30518393292E+03  0.00000000000E+00 0. -1.
          4    1    6    6  502    0  0.11026635846E+03 -0.38329993240E+02  0.68986120108E+02  0.13559846222E+03  0.00000000000E+00 0. -1.
          3    1    5    5  503    0  0.41099250897E+02  0.35046008141E+02 -0.91064367886E+02  0.10587771347E+03  0.00000000000E+00 0. -1.
         -4    1    5    5    0  503  0.20256602225E+03  0.39403458922E+03 -0.47754241323E+03  0.65141615524E+03  0.00000000000E+00 0.  1.
         -3    1    6    6    0  502  0.18336708566E+03  0.12263574496E+02  0.19919328755E+03  0.27102001617E+03  0.00000000000E+00 0.  1.
<mgrwt>
<rscale>  0 0.18564167E+04</rscale>
<asrwt>0</asrwt>
<pdfrwt beam="1">  1        1 0.13268029E+00 0.18564167E+04</pdfrwt>
<pdfrwt beam="2">  1       -1 0.15369432E+00 0.18564167E+04</pdfrwt>
<totfact> 0.59968209E+00</totfact>
</mgrwt>
</event>
<event>
12    1  0.1556559E-007  0.1455069E+04  0.7818608E-02  0.8914894E-01
          1   -1    0    0  501    0  0.00000000000E+00  0.00000000000E+00  0.69857682976E+03  0.69857682976E+03  0.00000000000E+00 0. -1.
         -1   -1    0    0    0  501 -0.00000000000E+00 -0.00000000000E+00 -0.75769237543E+03  0.75769237543E+03  0.00000000000E+00 0.  1.
         23    2    1    2    0    0 -0.39649620012E+03 -0.72047327319E+02 -0.19161866849E+03  0.46202808603E+03  0.11980060135E+03 0.  0.
        254    2    1    2    0    0  0.39649620012E+03  0.72047327319E+02  0.13250312282E+03  0.99424111915E+03  0.89919868292E+03 0.  0.
        -24    2    4    4    0    0  0.14293130731E+03  0.22458063553E+03  0.46506137913E+03  0.54201147331E+03  0.81415787025E+02 0.  0.
         24    2    4    4    0    0  0.25356489281E+03 -0.15253330821E+03 -0.33255825631E+03  0.45222964585E+03  0.79718841958E+02 0.  0.
         13    1    3    3    0    0 -0.78414083858E+02  0.33509400600E+02 -0.39836025033E+02  0.94119909511E+02  0.00000000000E+00 0. -1.
        -13    1    3    3    0    0 -0.31808211627E+03 -0.10555672792E+03 -0.15178264346E+03  0.36790817652E+03  0.00000000000E+00 0.  1.
          4    1    6    6  502    0  0.67503609562E+02 -0.60409476415E+02 -0.15265876222E+03  0.17751264695E+03  0.00000000000E+00 0. -1.
          1    1    5    5  503    0  0.14336293825E+03  0.23098987399E+03  0.45627655193E+03  0.53112855863E+03  0.00000000000E+00 0. -1.
         -2    1    5    5    0  503 -0.43163094272E+00 -0.64092384650E+01  0.87848272029E+01  0.10882914681E+02  0.00000000000E+00 0.  1.
         -3    1    6    6    0  502  0.18606128325E+03 -0.92123831792E+02 -0.17989949409E+03  0.27471699890E+03  0.00000000000E+00 0.  1.
<mgrwt>
<rscale>  0 0.14550688E+04</rscale>
<asrwt>0</asrwt>
<pdfrwt beam="1">  1        1 0.10747336E+00 0.14550688E+04</pdfrwt>
<pdfrwt beam="2">  1       -1 0.11656806E+00 0.14550688E+04</pdfrwt>
<totfact> 0.17633335E+01</totfact>
</mgrwt>
</event>
<event>
12    1  0.1556559E-007  0.1408616E+04  0.7818608E-02  0.8947605E-01
          1   -1    0    0  501    0  0.00000000000E+00  0.00000000000E+00  0.98323114772E+03  0.98323114772E+03  0.00000000000E+00 0. -1.
         -1   -1    0    0    0  501 -0.00000000000E+00 -0.00000000000E+00 -0.50450997765E+03  0.50450997765E+03  0.00000000000E+00 0.  1.
         23    2    1    2    0    0 -0.28281366094E+03  0.17322265931E+02 -0.18426939166E+03  0.35016601907E+03  0.91528162348E+02 0.  0.
        254    2    1    2    0    0  0.28281366094E+03 -0.17322265931E+02  0.66299056173E+03  0.11375751063E+04  0.87990738707E+03 0.  0.
        -24    2    4    4    0    0  0.99076569538E+01 -0.81402509002E+01  0.81141339239E+03  0.81544967026E+03  0.80012786626E+02 0.  0.
         24    2    4    4    0    0  0.27290600398E+03 -0.91820150306E+01 -0.14842283065E+03  0.32212543604E+03  0.84696301432E+02 0.  0.
         11    1    3    3    0    0 -0.13546407842E+03 -0.12780776318E+02 -0.13559236438E+03  0.19209152522E+03  0.00000000000E+00 0. -1.
        -11    1    3    3    0    0 -0.14734958252E+03  0.30103042249E+02 -0.48677027279E+02  0.15807449385E+03  0.00000000000E+00 0.  1.
          4    1    6    6  502    0  0.67152360537E+02 -0.39128718919E+02 -0.34425247347E+02  0.85003493016E+02  0.00000000000E+00 0. -1.
          1    1    5    5  503    0  0.22400385891E+02  0.31957109094E+02  0.38465878506E+03  0.38663343756E+03  0.00000000000E+00 0. -1.
         -2    1    5    5    0  503 -0.12492728938E+02 -0.40097359994E+02  0.42675460733E+03  0.42881623270E+03  0.00000000000E+00 0.  1.
         -3    1    6    6    0  502  0.20575364344E+03  0.29946703889E+02 -0.11399758331E+03  0.23712194303E+03  0.00000000000E+00 0.  1.
<mgrwt>
<rscale>  0 0.14086162E+04</rscale>
<asrwt>0</asrwt>
<pdfrwt beam="1">  1        1 0.15126633E+00 0.14086162E+04</pdfrwt>
<pdfrwt beam="2">  1       -1 0.77616919E-01 0.14086162E+04</pdfrwt>
<totfact> 0.25285784E+01</totfact>
</mgrwt>
</event>
<event>
12    1  0.1556559E-007  0.1368716E+04  0.7818608E-02  0.8976780E-01
         -1   -1    0    0    0  501 -0.00000000000E+00  0.00000000000E+00  0.46591162647E+03  0.46591162647E+03  0.00000000000E+00 0.  1.
          1   -1    0    0  501    0  0.00000000000E+00 -0.00000000000E+00 -0.10052253455E+04  0.10052253455E+04  0.00000000000E+00 0. -1.
         23    2    1    2    0    0 -0.24055569119E+03  0.27310886665E+02 -0.54308795592E+01  0.25814172557E+03  0.89413259260E+02 0.  0.
        254    2    1    2    0    0  0.24055569119E+03 -0.27310886665E+02 -0.53388283951E+03  0.12129952464E+04  0.10619386312E+04 0.  0.
        -24    2    4    4    0    0 -0.32443230709E+03  0.23658344432E+03 -0.35884813712E+02  0.41091443760E+03  0.79592130023E+02 0.  0.
         24    2    4    4    0    0  0.56498799828E+03 -0.26389433099E+03 -0.49799802580E+03  0.80208080885E+03  0.80498037871E+02 0.  0.
         13    1    3    3    0    0 -0.18012491199E+03  0.21955923809E+02 -0.43394902472E+02  0.18657482164E+03  0.00000000000E+00 0.  1.
        -13    1    3    3    0    0 -0.60430779201E+02  0.53549628551E+01  0.37964022913E+02  0.71566903927E+02  0.00000000000E+00 0. -1.
          4    1    6    6  502    0  0.36053095892E+03 -0.13726060463E+03 -0.34093482815E+03  0.51483939532E+03  0.00000000000E+00 0. -1.
          3    1    5    5  503    0 -0.24374950244E+03  0.17854495093E+03 -0.61357828151E+02  0.30831299440E+03  0.00000000000E+00 0. -1.
         -4    1    5    5    0  503 -0.80682804648E+02  0.58038493388E+02  0.25473014439E+02  0.10260144319E+03  0.00000000000E+00 0.  1.
         -3    1    6    6    0  502  0.20445703935E+03 -0.12663372635E+03 -0.15706319765E+03  0.28724141353E+03  0.00000000000E+00 0.  1.
<mgrwt>
<rscale>  0 0.13687164E+04</rscale>
<asrwt>0</asrwt>
<pdfrwt beam="1">  1        1 0.15465005E+00 0.13687164E+04</pdfrwt>
<pdfrwt beam="2">  1       -1 0.71678712E-01 0.13687164E+04</pdfrwt>
<totfact> 0.28790675E+01</totfact>
</mgrwt>
</event>
<event>
12    1  0.1556559E-007  0.1636498E+04  0.7818608E-02  0.8798434E-01
         -2   -1    0    0    0  501 -0.00000000000E+00  0.00000000000E+00  0.59253104195E+03  0.59253104195E+03  0.00000000000E+00 0.  1.
          2   -1    0    0  501    0  0.00000000000E+00 -0.00000000000E+00 -0.11299518994E+04  0.11299518994E+04  0.00000000000E+00 0. -1.
         23    2    1    2    0    0 -0.52347850394E+03 -0.53572193790E+02  0.60176475378E+02  0.53749848145E+03  0.91562466835E+02 0.  0.
        254    2    1    2    0    0  0.52347850394E+03  0.53572193790E+02 -0.59759733287E+03  0.11849844599E+04  0.87759094914E+03 0.  0.
        -24    2    4    4    0    0  0.45242145877E+03  0.35661111687E+03 -0.63458692463E+03  0.86081071467E+03  0.80236254566E+02 0.  0.
         24    2    4    4    0    0  0.71057045178E+02 -0.30303892308E+03  0.36989591769E+02  0.32417374527E+03  0.82696400500E+02 0.  0.
         11    1    3    3    0    0 -0.40808258964E+03 -0.40183795944E+02  0.79619250316E+01  0.41013355102E+03  0.00000000000E+00 0. -1.
        -11    1    3    3    0    0 -0.11539591430E+03 -0.13388397846E+02  0.52214550347E+02  0.12736493043E+03  0.00000000000E+00 0.  1.
          4    1    6    6  502    0  0.61331911907E+02 -0.12876221508E+03  0.44676608017E+02  0.14945671867E+03  0.00000000000E+00 0. -1.
          3    1    5    5  503    0  0.40064850230E+02  0.65800467559E+02 -0.82859885162E+02  0.11313997668E+03  0.00000000000E+00 0. -1.
         -4    1    5    5    0  503  0.41235660854E+03  0.29081064931E+03 -0.55172703947E+03  0.74767073798E+03  0.00000000000E+00 0.  1.
         -3    1    6    6    0  502  0.97251332709E+01 -0.17427670800E+03 -0.76870162487E+01  0.17471702661E+03  0.00000000000E+00 0.  1.
<mgrwt>
<rscale>  0 0.16364982E+04</rscale>
<asrwt>0</asrwt>
<pdfrwt beam="1">  1        2 0.17383875E+00 0.16364982E+04</pdfrwt>
<pdfrwt beam="2">  1       -2 0.91158623E-01 0.16364982E+04</pdfrwt>
<totfact> 0.20491195E+01</totfact>
</mgrwt>
</event>
<event>
12    1  0.1556559E-007  0.1446336E+04  0.7818608E-02  0.8920945E-01
         -3   -1    0    0    0  501 -0.00000000000E+00  0.00000000000E+00  0.21913081558E+04  0.21913081558E+04  0.00000000000E+00 0.  1.
          3   -1    0    0  501    0  0.00000000000E+00 -0.00000000000E+00 -0.23865733472E+03  0.23865733472E+03  0.00000000000E+00 0. -1.
         23    2    1    2    0    0  0.17335287318E+03 -0.26425233668E+03  0.69662029970E+02  0.33692050340E+03  0.93712918597E+02 0.  0.
        254    2    1    2    0    0 -0.17335287318E+03  0.26425233668E+03  0.18829887911E+04  0.20930449871E+04  0.85750219507E+03 0.  0.
        -24    2    4    4    0    0  0.18265275510E+03  0.30829894218E+03  0.15625752436E+04  0.16051833494E+04  0.81005719355E+02 0.  0.
         24    2    4    4    0    0 -0.35600562828E+03 -0.44046605504E+02  0.32041354745E+03  0.48786163765E+03  0.81633481379E+02 0.  0.
         11    1    3    3    0    0  0.91420912961E+02 -0.92267306654E+02 -0.10341168845E+02  0.13029957397E+03  0.00000000000E+00 0.  1.
        -11    1    3    3    0    0  0.81931960223E+02 -0.17198503002E+03  0.80003198815E+02  0.20662092943E+03  0.00000000000E+00 0. -1.
          2    1    6    6  502    0 -0.16972282447E+03 -0.10522382979E+02  0.20429395874E+03  0.26580552904E+03  0.00000000000E+00 0. -1.
          3    1    5    5  503    0  0.18580992641E+03  0.31107872273E+03  0.15291535099E+04  0.15714979343E+04  0.00000000000E+00 0. -1.
         -4    1    5    5    0  503 -0.31571713111E+01 -0.27797805449E+01  0.33421733698E+02  0.33685415152E+02  0.00000000000E+00 0.  1.
         -1    1    6    6    0  502 -0.18628280381E+03 -0.33524222525E+02  0.11611958870E+03  0.22205610861E+03  0.00000000000E+00 0.  1.
<mgrwt>
<rscale>  0 0.14463357E+04</rscale>
<asrwt>0</asrwt>
<pdfrwt beam="1">  1        3 0.36716515E-01 0.14463357E+04</pdfrwt>
<pdfrwt beam="2">  1       -3 0.33712432E+00 0.14463357E+04</pdfrwt>
<totfact> 0.44442906E-01</totfact>
</mgrwt>
</event>
<event>
12    1  0.1556559E-007  0.1239521E+04  0.7818608E-02  0.9078950E-01
         -1   -1    0    0    0  501 -0.00000000000E+00  0.00000000000E+00  0.27531992262E+03  0.27531992262E+03  0.00000000000E+00 0.  1.
          1   -1    0    0  501    0  0.00000000000E+00 -0.00000000000E+00 -0.13951162305E+04  0.13951162305E+04  0.00000000000E+00 0. -1.
         23    2    1    2    0    0  0.41750142401E+01  0.96067528469E+02 -0.60637027179E+03  0.62338039964E+03  0.10803617623E+03 0.  0.
        254    2    1    2    0    0 -0.41750142401E+01 -0.96067528469E+02 -0.51342603612E+03  0.10470557535E+04  0.90745416171E+03 0.  0.
        -24    2    4    4    0    0  0.29935528455E+03 -0.30280059399E+03 -0.28194739923E+02  0.43411803643E+03  0.79760517098E+02 0.  0.
         24    2    4    4    0    0 -0.30353029879E+03  0.20673306552E+03 -0.48523129619E+03  0.61293771707E+03  0.73307786372E+02 0.  0.
         13    1    3    3    0    0 -0.28931906003E+02  0.65348072937E+01 -0.32310111785E+03  0.32445969125E+03  0.00000000000E+00 0. -1.
        -13    1    3    3    0    0  0.33106920243E+02  0.89532721175E+02 -0.28326915394E+03  0.29892070839E+03  0.00000000000E+00 0.  1.
          2    1    6    6  502    0 -0.73110440713E+01 -0.11343391401E+01 -0.32602476383E+02  0.33431415719E+02  0.00000000000E+00 0. -1.
          1    1    5    5  503    0  0.13027657631E+03 -0.11711366861E+03  0.26298723324E+02  0.17714180918E+03  0.00000000000E+00 0. -1.
         -2    1    5    5    0  503  0.16907870823E+03 -0.18568692537E+03 -0.54493463247E+02  0.25697622725E+03  0.00000000000E+00 0.  1.
         -1    1    6    6    0  502 -0.29621925472E+03  0.20786740466E+03 -0.45262881981E+03  0.57950630135E+03  0.00000000000E+00 0.  1.
<mgrwt>
<rscale>  0 0.12395213E+04</rscale>
<asrwt>0</asrwt>
<pdfrwt beam="1">  1        1 0.21463326E+00 0.12395213E+04</pdfrwt>
<pdfrwt beam="2">  1       -1 0.42356912E-01 0.12395213E+04</pdfrwt>
<totfact> 0.41877713E+01</totfact>
</mgrwt>
</event>
<event>
12    1  0.1556559E-007  0.2584835E+04  0.7818608E-02  0.8373371E-01
         -1   -1    0    0    0  501 -0.00000000000E+00  0.00000000000E+00  0.72971631451E+03  0.72971631451E+03  0.00000000000E+00 0.  1.
          1   -1    0    0  501    0  0.00000000000E+00 -0.00000000000E+00 -0.22890304399E+04  0.22890304399E+04  0.00000000000E+00 0. -1.
         23    2    1    2    0    0  0.59228581272E+03 -0.71560323120E+03 -0.14424960807E+04  0.17179962457E+04  0.88462924256E+02 0.  0.
        254    2    1    2    0    0 -0.59228581272E+03  0.71560323120E+03 -0.11681804467E+03  0.13007505087E+04  0.90300330114E+03 0.  0.
        -24    2    4    4    0    0 -0.58628831278E+03  0.75076298599E+03  0.19608520055E+03  0.97582784251E+03  0.80072002016E+02 0.  0.
         24    2    4    4    0    0 -0.59974999356E+01 -0.35159754797E+02 -0.31290324522E+03  0.32492266619E+03  0.79963240111E+02 0.  0.
         11    1    3    3    0    0  0.23878362687E+03 -0.33188271313E+03 -0.57146280913E+03  0.70266172370E+03  0.00000000000E+00 0.  1.
        -11    1    3    3    0    0  0.35350218585E+03 -0.38372051806E+03 -0.87103327161E+03  0.10153345220E+04  0.00000000000E+00 0. -1.
          4    1    6    6  502    0  0.19316633380E+02 -0.41498708442E+02 -0.27573303448E+03  0.27950667511E+03  0.00000000000E+00 0. -1.
          1    1    5    5  503    0 -0.51450256611E+03  0.66361147970E+03  0.14594955105E+03  0.85228772019E+03  0.00000000000E+00 0. -1.
         -4    1    5    5    0  503 -0.71785746670E+02  0.87151506293E+02  0.50135649501E+02  0.12354012233E+03  0.00000000000E+00 0.  1.
         -3    1    6    6    0  502 -0.25314133316E+02  0.63389536449E+01 -0.37170210736E+02  0.45415991072E+02  0.00000000000E+00 0.  1.
<mgrwt>
<rscale>  0 0.25848349E+04</rscale>
<asrwt>0</asrwt>
<pdfrwt beam="1">  1        1 0.35215852E+00 0.25848349E+04</pdfrwt>
<pdfrwt beam="2">  1       -1 0.11226405E+00 0.25848349E+04</pdfrwt>
<totfact> 0.12139094E+00</totfact>
</mgrwt>
</event>
<event>
12    1  0.1556559E-007  0.2308381E+04  0.7818608E-02  0.8474624E-01
         -2   -1    0    0    0  501 -0.00000000000E+00  0.00000000000E+00  0.11767481976E+04  0.11767481976E+04  0.00000000000E+00 0.  1.
          2   -1    0    0  501    0  0.00000000000E+00 -0.00000000000E+00 -0.11320650642E+04  0.11320650642E+04  0.00000000000E+00 0. -1.
         23    2    1    2    0    0 -0.57851948058E+03  0.65499811241E+02 -0.76497523796E+03  0.96563163168E+03  0.91007245450E+02 0.  0.
        254    2    1    2    0    0  0.57851948058E+03 -0.65499811241E+02  0.80965837132E+03  0.13431816301E+04  0.89978619603E+03 0.  0.
        -24    2    4    4    0    0  0.28233853074E+03 -0.29827783262E+03 -0.29740372473E+02  0.41956098722E+03  0.80387939832E+02 0.  0.
         24    2    4    4    0    0  0.29618094984E+03  0.23277802138E+03  0.83939874380E+03  0.92362064291E+03  0.81093024584E+02 0.  0.
         13    1    3    3    0    0 -0.38696464864E+02  0.13401356516E+02 -0.96490765306E+02  0.10482118364E+03  0.00000000000E+00 0.  1.
        -13    1    3    3    0    0 -0.53982301572E+03  0.52098454725E+02 -0.66848447265E+03  0.86081044804E+03  0.00000000000E+00 0. -1.
          4    1    6    6  502    0  0.19317210925E+03  0.10426241222E+03  0.44438245079E+03  0.49564289258E+03  0.00000000000E+00 0. -1.
          1    1    5    5  503    0  0.15455081280E+03 -0.21423090128E+03 -0.35309388510E+02  0.26651001054E+03  0.00000000000E+00 0. -1.
         -2    1    5    5    0  503  0.12778771794E+03 -0.84046931339E+02  0.55690160364E+01  0.15305097668E+03  0.00000000000E+00 0.  1.
         -3    1    6    6    0  502  0.10300884059E+03  0.12851560915E+03  0.39501629301E+03  0.42797775033E+03  0.00000000000E+00 0.  1.
<mgrwt>
<rscale>  0 0.23083808E+04</rscale>
<asrwt>0</asrwt>
<pdfrwt beam="1">  1        2 0.17416386E+00 0.23083808E+04</pdfrwt>
<pdfrwt beam="2">  1       -2 0.18103818E+00 0.23083808E+04</pdfrwt>
<totfact> 0.33641183E+00</totfact>
</mgrwt>
</event>
<event>
12    1  0.1556559E-007  0.1674321E+04  0.7818608E-02  0.8776147E-01
         -1   -1    0    0    0  501 -0.00000000000E+00  0.00000000000E+00  0.32186876600E+03  0.32186876600E+03  0.00000000000E+00 0.  1.
          1   -1    0    0  501    0  0.00000000000E+00 -0.00000000000E+00 -0.21774010218E+04  0.21774010218E+04  0.00000000000E+00 0. -1.
         23    2    1    2    0    0  0.21725575909E+03 -0.15344155323E+03 -0.14503784306E+04  0.14773051703E+04  0.89936639521E+02 0.  0.
        254    2    1    2    0    0 -0.21725575909E+03  0.15344155323E+03 -0.40515382518E+03  0.10219646175E+04  0.89973200577E+03 0.  0.
        -24    2    4    4    0    0 -0.77620640394E+01 -0.16332017279E+03 -0.57145113617E+03  0.59967121754E+03  0.79469740381E+02 0.  0.
         24    2    4    4    0    0 -0.20949369506E+03  0.31676172602E+03  0.16629731100E+03  0.42229339993E+03  0.80320113584E+02 0.  0.
         13    1    3    3    0    0  0.22119840817E+02 -0.21780518693E+02 -0.64554482538E+02  0.71630716651E+02  0.00000000000E+00 0.  1.
        -13    1    3    3    0    0  0.19513591828E+03 -0.13166103453E+03 -0.13858239481E+04  0.14056744537E+04  0.00000000000E+00 0. -1.
          4    1    6    6  502    0 -0.59248589092E+01  0.57087383785E+02  0.15114252854E+02  0.59350770676E+02  0.00000000000E+00 0. -1.
          3    1    5    5  503    0  0.34784852521E+02 -0.67319071949E+02 -0.27122643113E+03  0.28161253587E+03  0.00000000000E+00 0. -1.
         -4    1    5    5    0  503 -0.42546916560E+02 -0.96001100842E+02 -0.30022470504E+03  0.31805868167E+03  0.00000000000E+00 0.  1.
         -3    1    6    6    0  502 -0.20356883615E+03  0.25967434223E+03  0.15118305814E+03  0.36294262926E+03  0.00000000000E+00 0.  1.
<mgrwt>
<rscale>  0 0.16743206E+04</rscale>
<asrwt>0</asrwt>
<pdfrwt beam="1">  1        1 0.33498477E+00 0.16743206E+04</pdfrwt>
<pdfrwt beam="2">  1       -1 0.49518272E-01 0.16743206E+04</pdfrwt>
<totfact> 0.88070603E+00</totfact>
</mgrwt>
</event>
<event>
12    1  0.1556559E-007  0.2378295E+04  0.7818608E-02  0.8447675E-01
         -1   -1    0    0    0  501 -0.00000000000E+00  0.00000000000E+00  0.46557106154E+03  0.46557106154E+03  0.00000000000E+00 0.  1.
          1   -1    0    0  501    0  0.00000000000E+00 -0.00000000000E+00 -0.30372836466E+04  0.30372836466E+04  0.00000000000E+00 0. -1.
         23    2    1    2    0    0 -0.54236529371E+03 -0.82396790791E+03 -0.13987494318E+04  0.17140362093E+04  0.91306784481E+02 0.  0.
        254    2    1    2    0    0  0.54236529371E+03  0.82396790791E+03 -0.11729631533E+04  0.17888184988E+04  0.92246725559E+03 0.  0.
        -24    2    4    4    0    0 -0.17785028744E+03  0.51731279121E+03 -0.37196069349E+03  0.66618463042E+03  0.78765192875E+02 0.  0.
         24    2    4    4    0    0  0.72021558114E+03  0.30665511669E+03 -0.80100245978E+03  0.11226338684E+04  0.77162283174E+02 0.  0.
         13    1    3    3    0    0 -0.11504591414E+03 -0.15326067656E+03 -0.33402637268E+03  0.38509481298E+03  0.00000000000E+00 0. -1.
        -13    1    3    3    0    0 -0.42731937956E+03 -0.67070723135E+03 -0.10647230591E+04  0.13289413963E+04  0.00000000000E+00 0.  1.
          2    1    6    6  502    0  0.54493558983E+03  0.24400473182E+03 -0.65306765367E+03  0.88486748527E+03  0.00000000000E+00 0. -1.
          3    1    5    5  503    0 -0.12045528177E+03  0.26764242448E+03 -0.16394299002E+03  0.33618335215E+03  0.00000000000E+00 0. -1.
         -4    1    5    5    0  503 -0.57395005669E+02  0.24967036674E+03 -0.20801770347E+03  0.33000127827E+03  0.00000000000E+00 0.  1.
         -1    1    6    6    0  502  0.17527999131E+03  0.62650384873E+02 -0.14793480611E+03  0.23776638311E+03  0.00000000000E+00 0.  1.
<mgrwt>
<rscale>  0 0.23782947E+04</rscale>
<asrwt>0</asrwt>
<pdfrwt beam="1">  1        1 0.46727440E+00 0.23782947E+04</pdfrwt>
<pdfrwt beam="2">  1       -1 0.71626319E-01 0.23782947E+04</pdfrwt>
<totfact> 0.99204604E-01</totfact>
</mgrwt>
</event>
<event>
12    1  0.1556559E-007  0.1182171E+04  0.7818608E-02  0.9128607E-01
         -2   -1    0    0    0  501 -0.00000000000E+00  0.00000000000E+00  0.54119939208E+03  0.54119939208E+03  0.00000000000E+00 0.  1.
          2   -1    0    0  501    0  0.00000000000E+00 -0.00000000000E+00 -0.64557031848E+03  0.64557031848E+03  0.00000000000E+00 0. -1.
         23    2    1    2    0    0  0.18902505942E+02 -0.36569598436E+01 -0.24994908499E+03  0.27796862719E+03  0.12008886097E+03 0.  0.
        254    2    1    2    0    0 -0.18902505942E+02  0.36569598436E+01  0.14557815859E+03  0.90880108338E+03  0.89685881319E+03 0.  0.
        -24    2    4    4    0    0 -0.18693026760E+03  0.40425081932E+03  0.10687399775E+03  0.46537489366E+03  0.82402004802E+02 0.  0.
         24    2    4    4    0    0  0.16802776166E+03 -0.40059385947E+03  0.38704160844E+02  0.44342618971E+03  0.80124931975E+02 0.  0.
         11    1    3    3    0    0  0.13067702776E+02  0.57713113023E+02 -0.13837726490E+03  0.15049862362E+03  0.00000000000E+00 0. -1.
        -11    1    3    3    0    0  0.58348031663E+01 -0.61370072866E+02 -0.11157182009E+03  0.12747000357E+03  0.00000000000E+00 0.  1.
          2    1    6    6  502    0  0.93016386326E+02 -0.21147669572E+03  0.60478837694E+02  0.23881400874E+03  0.00000000000E+00 0. -1.
          1    1    5    5  503    0 -0.89214641977E+02  0.13875342676E+03  0.61622996850E+01  0.16507495182E+03  0.00000000000E+00 0. -1.
         -4    1    5    5    0  503 -0.97715625621E+02  0.26549739256E+03  0.10071169806E+03  0.30029994184E+03  0.00000000000E+00 0.  1.
         -1    1    6    6    0  502  0.75011375329E+02 -0.18911716375E+03 -0.21774676850E+02  0.20461218098E+03  0.00000000000E+00 0.  1.
<mgrwt>
<rscale>  0 0.11821713E+04</rscale>
<asrwt>0</asrwt>
<pdfrwt beam="1">  1        2 0.99318510E-01 0.11821713E+04</pdfrwt>
<pdfrwt beam="2">  1       -2 0.83261445E-01 0.11821713E+04</pdfrwt>
<totfact> 0.56600188E+01</totfact>
</mgrwt>
</event>
<event>
12    1  0.1556559E-007  0.1083663E+04  0.7818608E-02  0.9221262E-01
          2   -1    0    0  501    0  0.00000000000E+00  0.00000000000E+00  0.69010337790E+03  0.69010337790E+03  0.00000000000E+00 0. -1.
         -2   -1    0    0    0  501 -0.00000000000E+00 -0.00000000000E+00 -0.42541686461E+03  0.42541686461E+03  0.00000000000E+00 0.  1.
         23    2    1    2    0    0  0.12595664002E+03 -0.70298160220E+02 -0.13989232303E+01  0.17065128966E+03  0.91175650149E+02 0.  0.
        254    2    1    2    0    0 -0.12595664002E+03  0.70298160220E+02  0.26608543652E+03  0.94486895285E+03  0.89508042769E+03 0.  0.
        -24    2    4    4    0    0 -0.38241009344E+03 -0.24331990178E+03  0.26616599238E+03  0.53167153680E+03  0.79926424809E+02 0.  0.
         24    2    4    4    0    0  0.25645345341E+03  0.31361806200E+03 -0.80555855153E-01  0.41319741604E+03  0.81286133855E+02 0.  0.
         13    1    3    3    0    0  0.66774146431E+02 -0.34687717480E+02 -0.46224595005E+02  0.88310461209E+02  0.00000000000E+00 0.  1.
        -13    1    3    3    0    0  0.59182493594E+02 -0.35610442740E+02  0.44825671775E+02  0.82340828452E+02  0.00000000000E+00 0. -1.
          2    1    6    6  502    0  0.61613691211E+02  0.94271797676E+02  0.34485360525E+02  0.11778225194E+03  0.00000000000E+00 0. -1.
          1    1    5    5  503    0 -0.24096206358E+02  0.22813595888E+01  0.47261396003E+01  0.24661065629E+02  0.00000000000E+00 0. -1.
         -2    1    5    5    0  503 -0.35831388708E+03 -0.24560126137E+03  0.26143985277E+03  0.50701047117E+03  0.00000000000E+00 0.  1.
         -1    1    6    6    0  502  0.19483976220E+03  0.21934626432E+03 -0.34565916380E+02  0.29541516410E+03  0.00000000000E+00 0.  1.
<mgrwt>
<rscale>  0 0.10836634E+04</rscale>
<asrwt>0</asrwt>
<pdfrwt beam="1">  1        2 0.10616975E+00 0.10836634E+04</pdfrwt>
<pdfrwt beam="2">  1       -2 0.65448749E-01 0.10836634E+04</pdfrwt>
<totfact> 0.89232707E+01</totfact>
</mgrwt>
</event>
<event>
12    1  0.1556559E-007  0.1704944E+04  0.7818608E-02  0.8758550E-01
          2   -1    0    0  501    0  0.00000000000E+00  0.00000000000E+00  0.11280823369E+04  0.11280823369E+04  0.00000000000E+00 0. -1.
         -2   -1    0    0    0  501 -0.00000000000E+00 -0.00000000000E+00 -0.64419807950E+03  0.64419807950E+03  0.00000000000E+00 0.  1.
         23    2    1    2    0    0 -0.44557887732E+03  0.94162455311E+02  0.58884674315E+03  0.75012925179E+03  0.92446219828E+02 0.  0.
        254    2    1    2    0    0  0.44557887732E+03 -0.94162455311E+02 -0.10496248572E+03  0.10221511646E+04  0.90904828037E+03 0.  0.
        -24    2    4    4    0    0  0.40763285179E+03 -0.28948523556E+03 -0.40924971302E+03  0.65040045151E+03  0.74626913760E+02 0.  0.
         24    2    4    4    0    0  0.37946025532E+02  0.19532278025E+03  0.30428722730E+03  0.37175071312E+03  0.77569237909E+02 0.  0.
         13    1    3    3    0    0 -0.40076902020E+00  0.58039103962E+00  0.27899432087E+02  0.27908346070E+02  0.00000000000E+00 0. -1.
        -13    1    3    3    0    0 -0.44517810830E+03  0.93582064271E+02  0.56094731106E+03  0.72222090572E+03  0.00000000000E+00 0.  1.
          4    1    6    6  502    0  0.12648535933E+02  0.15821073976E+03  0.27685256750E+03  0.31912061633E+03  0.00000000000E+00 0. -1.
          3    1    5    5  503    0  0.41095137818E+03 -0.28605490061E+03 -0.40474799710E+03  0.64383956274E+03  0.00000000000E+00 0. -1.
         -4    1    5    5    0  503 -0.33185263922E+01 -0.34303349509E+01 -0.45017159165E+01  0.65608887724E+01  0.00000000000E+00 0.  1.
         -3    1    6    6    0  502  0.25297489600E+02  0.37112040496E+02  0.27434659794E+02  0.52630096787E+02  0.00000000000E+00 0.  1.
<mgrwt>
<rscale>  0 0.17049440E+04</rscale>
<asrwt>0</asrwt>
<pdfrwt beam="1">  1        2 0.17355113E+00 0.17049440E+04</pdfrwt>
<pdfrwt beam="2">  1       -2 0.99107397E-01 0.17049440E+04</pdfrwt>
<totfact> 0.16805651E+01</totfact>
</mgrwt>
</event>
<event>
12    1  0.1556559E-007  0.1199870E+04  0.7818608E-02  0.9112970E-01
         -1   -1    0    0    0  501 -0.00000000000E+00  0.00000000000E+00  0.11303053787E+03  0.11303053787E+03  0.00000000000E+00 0. -1.
          1   -1    0    0  501    0  0.00000000000E+00 -0.00000000000E+00 -0.31842897166E+04  0.31842897166E+04  0.00000000000E+00 0.  1.
         23    2    1    2    0    0 -0.64978614959E+02  0.22772085837E+03 -0.44194690153E+03  0.50952578045E+03  0.90666683157E+02 0.  0.
        254    2    1    2    0    0  0.64978614959E+02 -0.22772085837E+03 -0.26293122772E+04  0.27877944740E+04  0.89578790382E+03 0.  0.
        -24    2    4    4    0    0 -0.28703735729E+03  0.78985723552E+02 -0.18508358074E+04  0.18764173122E+04  0.81972889466E+02 0.  0.
         24    2    4    4    0    0  0.35201597225E+03 -0.30670658192E+03 -0.77847646985E+03  0.91137716186E+03  0.81231428283E+02 0.  0.
         11    1    3    3    0    0 -0.54104971889E+02  0.22368204392E+03 -0.44154578803E+03  0.49791935861E+03  0.00000000000E+00 0. -1.
        -11    1    3    3    0    0 -0.10873643070E+02  0.40388144537E+01 -0.40111349582E+00  0.11606421836E+02  0.00000000000E+00 0.  1.
          4    1    6    6  502    0  0.15778943286E+03 -0.15015370527E+03 -0.43934355482E+03  0.49037373450E+03  0.00000000000E+00 0. -1.
          1    1    5    5  503    0 -0.41584554422E+02 -0.17408979191E+02 -0.27250852533E+03  0.27621231707E+03  0.00000000000E+00 0. -1.
         -2    1    5    5    0  503 -0.24545280287E+03  0.96394702744E+02 -0.15783272820E+04  0.16002049951E+04  0.00000000000E+00 0.  1.
         -3    1    6    6    0  502  0.19422653939E+03 -0.15655287665E+03 -0.33913291503E+03  0.42100342736E+03  0.00000000000E+00 0.  1.
<mgrwt>
<rscale>  0 0.11998700E+04</rscale>
<asrwt>0</asrwt>
<pdfrwt beam="1">  1        1 0.48989069E+00 0.11998700E+04</pdfrwt>
<pdfrwt beam="2">  1       -1 0.17389315E-01 0.11998700E+04</pdfrwt>
<totfact> 0.11343279E+01</totfact>
</mgrwt>
</event>
<event>
12    1  0.1556559E-007  0.1370039E+04  0.7818608E-02  0.8975796E-01
         -2   -1    0    0    0  501 -0.00000000000E+00  0.00000000000E+00  0.32104949353E+03  0.32104949353E+03  0.00000000000E+00 0.  1.
          2   -1    0    0  501    0  0.00000000000E+00 -0.00000000000E+00 -0.14616189513E+04  0.14616189513E+04  0.00000000000E+00 0. -1.
         23    2    1    2    0    0  0.32470752143E+03 -0.88042283457E+02 -0.55602742233E+03  0.65609715548E+03  0.90058674736E+02 0.  0.
        254    2    1    2    0    0 -0.32470752143E+03  0.88042283457E+02 -0.58454203548E+03  0.11265712894E+04  0.90237855731E+03 0.  0.
        -24    2    4    4    0    0  0.18510888724E+03 -0.22212204151E+03 -0.20866348439E+02  0.30188025813E+03  0.84218669498E+02 0.  0.
         24    2    4    4    0    0 -0.50981640867E+03  0.31016432496E+03 -0.56367568704E+03  0.82469103126E+03  0.79185464890E+02 0.  0.
         13    1    3    3    0    0  0.23717677038E+03 -0.61307032291E+02 -0.47231267705E+03  0.53206262556E+03  0.00000000000E+00 0. -1.
        -13    1    3    3    0    0  0.87530751054E+02 -0.26735251166E+02 -0.83714745275E+02  0.12403452992E+03  0.00000000000E+00 0.  1.
          4    1    6    6  502    0 -0.40957435885E+03  0.24785021974E+03 -0.49264124481E+03  0.68693251702E+03  0.00000000000E+00 0. -1.
          3    1    5    5  503    0  0.13190955025E+03 -0.18151215205E+03 -0.48346734281E+02  0.22953038470E+03  0.00000000000E+00 0. -1.
         -4    1    5    5    0  503  0.53199336993E+02 -0.40609889461E+02  0.27480385842E+02  0.72349873425E+02  0.00000000000E+00 0.  1.
         -3    1    6    6    0  502 -0.10024204983E+03  0.62314105225E+02 -0.71034442229E+02  0.13775851424E+03  0.00000000000E+00 0.  1.
<mgrwt>
<rscale>  0 0.13700395E+04</rscale>
<asrwt>0</asrwt>
<pdfrwt beam="1">  1        2 0.22486446E+00 0.13700395E+04</pdfrwt>
<pdfrwt beam="2">  1       -2 0.49392230E-01 0.13700395E+04</pdfrwt>
<totfact> 0.50492516E+01</totfact>
</mgrwt>
</event>
<event>
12    1  0.1556559E-007  0.3029745E+04  0.7818608E-02  0.8235288E-01
          1   -1    0    0  501    0  0.00000000000E+00  0.00000000000E+00  0.10260069141E+04  0.10260069141E+04  0.00000000000E+00 0. -1.
         -1   -1    0    0    0  501 -0.00000000000E+00 -0.00000000000E+00 -0.22366698223E+04  0.22366698223E+04  0.00000000000E+00 0.  1.
         23    2    1    2    0    0 -0.74453855292E+03  0.90292735006E+03 -0.13508996512E+04  0.17897140943E+04  0.92364578737E+02 0.  0.
        254    2    1    2    0    0  0.74453855292E+03 -0.90292735006E+03  0.14023674301E+03  0.14729626421E+04  0.88336693665E+03 0.  0.
        -24    2    4    4    0    0  0.60311303206E+03 -0.49452441537E+03 -0.31063674627E+03  0.84333171077E+03  0.80084077086E+02 0.  0.
         24    2    4    4    0    0  0.14142552086E+03 -0.40840293469E+03  0.45087348928E+03  0.62963093137E+03  0.79712429314E+02 0.  0.
         11    1    3    3    0    0 -0.72891413315E+03  0.85512350565E+03 -0.12909394280E+04  0.17114545364E+04  0.00000000000E+00 0.  1.
        -11    1    3    3    0    0 -0.15624419768E+02  0.47803844404E+02 -0.59960223153E+02  0.78259557841E+02  0.00000000000E+00 0. -1.
          4    1    6    6  502    0 -0.41588304605E+01 -0.78783832623E+02  0.89382036857E+02  0.11921969915E+03  0.00000000000E+00 0. -1.
          3    1    5    5  503    0  0.46431007773E+02 -0.40321746940E+02 -0.49277860937E+02  0.78803485568E+02  0.00000000000E+00 0. -1.
         -4    1    5    5    0  503  0.55668202429E+03 -0.45420266843E+03 -0.26135888533E+03  0.76452822520E+03  0.00000000000E+00 0.  1.
         -3    1    6    6    0  502  0.14558435132E+03 -0.32961910206E+03  0.36149145243E+03  0.51041123221E+03  0.00000000000E+00 0.  1.
<mgrwt>
<rscale>  0 0.30297450E+04</rscale>
<asrwt>0</asrwt>
<pdfrwt beam="1">  1        1 0.15784722E+00 0.30297450E+04</pdfrwt>
<pdfrwt beam="2">  1       -1 0.34410305E+00 0.30297450E+04</pdfrwt>
<totfact> 0.20834579E-01</totfact>
</mgrwt>
</event>
<event>
12    1  0.1556559E-007  0.3591770E+04  0.7818608E-02  0.8092380E-01
         -2   -1    0    0    0  501 -0.00000000000E+00  0.00000000000E+00  0.11712153771E+04  0.11712153771E+04  0.00000000000E+00 0.  1.
          2   -1    0    0  501    0  0.00000000000E+00 -0.00000000000E+00 -0.27537226122E+04  0.27537226122E+04  0.00000000000E+00 0. -1.
         23    2    1    2    0    0  0.77248346132E+03 -0.11720861204E+04  0.26876114840E+03  0.14344816520E+04  0.12242746141E+03 0.  0.
        254    2    1    2    0    0 -0.77248346132E+03  0.11720861204E+04 -0.18512683835E+04  0.24904563373E+04  0.89702930193E+03 0.  0.
        -24    2    4    4    0    0  0.28180255788E+02  0.70557019010E+03 -0.10194679096E+04  0.12426850838E+04  0.79548593698E+02 0.  0.
         24    2    4    4    0    0 -0.80066371711E+03  0.46651593029E+03 -0.83180047387E+03  0.12477712535E+04  0.79633985057E+02 0.  0.
         11    1    3    3    0    0  0.65878593752E+03 -0.10598551290E+04  0.25840009580E+03  0.12743870745E+04  0.00000000000E+00 0.  1.
        -11    1    3    3    0    0  0.11369752380E+03 -0.11223099136E+03  0.10361052596E+02  0.16009457752E+03  0.00000000000E+00 0. -1.
          4    1    6    6  502    0 -0.19659005242E+03  0.14541121691E+03 -0.25018109419E+03  0.34983231783E+03  0.00000000000E+00 0. -1.
          1    1    5    5  503    0  0.33245916757E+02  0.11674033151E+03 -0.15956634674E+03  0.20048694470E+03  0.00000000000E+00 0. -1.
         -2    1    5    5    0  503 -0.50656609686E+01  0.58882985859E+03 -0.85990156289E+03  0.10421981391E+04  0.00000000000E+00 0.  1.
         -3    1    6    6    0  502 -0.60407366469E+03  0.32110471338E+03 -0.58161937969E+03  0.89793893565E+03  0.00000000000E+00 0.  1.
<mgrwt>
<rscale>  0 0.35917696E+04</rscale>
<asrwt>0</asrwt>
<pdfrwt beam="1">  1        2 0.42364963E+00 0.35917696E+04</pdfrwt>
<pdfrwt beam="2">  1       -2 0.18018698E+00 0.35917696E+04</pdfrwt>
<totfact> 0.36347814E-01</totfact>
</mgrwt>
</event>
<event>
12    1  0.1556559E-007  0.1556610E+04  0.7818608E-02  0.8847657E-01
          2   -1    0    0  501    0  0.00000000000E+00  0.00000000000E+00  0.91062194354E+03  0.91062194354E+03  0.00000000000E+00 0.  1.
         -2   -1    0    0    0  501 -0.00000000000E+00 -0.00000000000E+00 -0.66521389693E+03  0.66521389693E+03  0.00000000000E+00 0. -1.
         23    2    1    2    0    0  0.41266416059E+03 -0.30638693640E+03 -0.94459881916E+01  0.52422274925E+03  0.10274044924E+03 0.  0.
        254    2    1    2    0    0 -0.41266416059E+03  0.30638693640E+03  0.25485403480E+03  0.10516130912E+04  0.88134831386E+03 0.  0.
        -24    2    4    4    0    0 -0.41332844632E+03  0.15772445023E+01 -0.22546246501E+03  0.47707190988E+03  0.76950580445E+02 0.  0.
         24    2    4    4    0    0  0.66428573311E+00  0.30480969190E+03  0.48031649981E+03  0.57454118134E+03  0.80524775780E+02 0.  0.
         13    1    3    3    0    0  0.10745296626E+03 -0.63066493852E+02  0.39802432577E+02  0.13079662169E+03  0.00000000000E+00 0. -1.
        -13    1    3    3    0    0  0.30521119432E+03 -0.24332044255E+03 -0.49248420768E+02  0.39342612757E+03  0.00000000000E+00 0.  1.
          2    1    6    6  502    0 -0.15572186409E+02  0.13462316774E+03  0.28084023831E+03  0.31182868652E+03  0.00000000000E+00 0. -1.
          1    1    5    5  503    0 -0.39236232912E+02 -0.74697123595E+01 -0.49382257913E+02  0.63512880366E+02  0.00000000000E+00 0. -1.
         -2    1    5    5    0  503 -0.37409221341E+03  0.90469568618E+01 -0.17608020710E+03  0.41355902952E+03  0.00000000000E+00 0.  1.
         -1    1    6    6    0  502  0.16236472142E+02  0.17018652416E+03  0.19947626150E+03  0.26271249482E+03  0.00000000000E+00 0.  1.
<mgrwt>
<rscale>  0 0.15566096E+04</rscale>
<asrwt>0</asrwt>
<pdfrwt beam="1">  1        2 0.14009568E+00 0.15566096E+04</pdfrwt>
<pdfrwt beam="2">  1       -2 0.10234060E+00 0.15566096E+04</pdfrwt>
<totfact> 0.21694257E+01</totfact>
</mgrwt>
</event>
<event>
12    1  0.1556559E-007  0.3739128E+04  0.7818608E-02  0.8059345E-01
          2   -1    0    0  501    0  0.00000000000E+00  0.00000000000E+00  0.41541211466E+04  0.41541211466E+04  0.00000000000E+00 0. -1.
         -2   -1    0    0    0  501 -0.00000000000E+00 -0.00000000000E+00 -0.84139814508E+03  0.84139814508E+03  0.00000000000E+00 0.  1.
         23    2    1    2    0    0 -0.10810938343E+04  0.13694328853E+04  0.14786748122E+04  0.22892466849E+04  0.10030392931E+03 0.  0.
        254    2    1    2    0    0  0.10810938343E+04 -0.13694328853E+04  0.18340481893E+04  0.27062726068E+04  0.95711459885E+03 0.  0.
        -24    2    4    4    0    0 -0.28257078645E+02  0.11011912957E+03  0.11185206654E+03  0.17799350567E+03  0.79032386266E+02 0.  0.
         24    2    4    4    0    0  0.11093509130E+04 -0.14795520149E+04  0.17221961228E+04  0.25282791011E+04  0.80635691980E+02 0.  0.
         11    1    3    3    0    0 -0.98899586029E+03  0.12491566429E+04  0.13112800950E+04  0.20634826429E+04  0.00000000000E+00 0. -1.
        -11    1    3    3    0    0 -0.92097974021E+02  0.12027624244E+03  0.16739471718E+03  0.22576404199E+03  0.00000000000E+00 0.  1.
          2    1    6    6  502    0  0.10574393586E+04 -0.14347443810E+04  0.16635706425E+04  0.24380600318E+04  0.00000000000E+00 0. -1.
          3    1    5    5  503    0 -0.53510473024E+02  0.72886194788E+02  0.56325043095E+02  0.10652829950E+03  0.00000000000E+00 0. -1.
         -4    1    5    5    0  503  0.25253394379E+02  0.37232934786E+02  0.55527023446E+02  0.71465206172E+02  0.00000000000E+00 0.  1.
         -1    1    6    6    0  502  0.51911554337E+02 -0.44807633880E+02  0.58625480323E+02  0.90219069329E+02  0.00000000000E+00 0.  1.
<mgrwt>
<rscale>  0 0.37391281E+04</rscale>
<asrwt>0</asrwt>
<pdfrwt beam="1">  1        2 0.63909555E+00 0.37391281E+04</pdfrwt>
<pdfrwt beam="2">  1       -2 0.12944587E+00 0.37391281E+04</pdfrwt>
<totfact> 0.89745460E-02</totfact>
</mgrwt>
</event>
<event>
12    1  0.1556559E-007  0.2278756E+04  0.7818608E-02  0.8486345E-01
         -2   -1    0    0    0  501 -0.00000000000E+00  0.00000000000E+00  0.94799964286E+03  0.94799964286E+03  0.00000000000E+00 0.  1.
          2   -1    0    0  501    0  0.00000000000E+00 -0.00000000000E+00 -0.13693912842E+04  0.13693912842E+04  0.00000000000E+00 0. -1.
         23    2    1    2    0    0 -0.84917184492E+03  0.19398855782E+03  0.23467522456E+03  0.90670474118E+03  0.91195635199E+02 0.  0.
        254    2    1    2    0    0  0.84917184492E+03 -0.19398855782E+03 -0.65606686592E+03  0.14106861859E+04  0.89492312505E+03 0.  0.
        -24    2    4    4    0    0  0.69361133389E+03  0.13946493680E+03 -0.71428874473E+02  0.71530176274E+03  0.77507267858E+02 0.  0.
         24    2    4    4    0    0  0.15556051104E+03 -0.33345349462E+03 -0.58463799144E+03  0.69538442316E+03  0.79797301103E+02 0.  0.
         11    1    3    3    0    0 -0.79596520839E+03  0.15843070589E+03  0.21199948292E+03  0.83881147005E+03  0.00000000000E+00 0.  1.
        -11    1    3    3    0    0 -0.53206636538E+02  0.35557851934E+02  0.22675741640E+02  0.67893271130E+02  0.00000000000E+00 0. -1.
          4    1    6    6  502    0  0.11533116506E+03 -0.28052686687E+03 -0.52374285789E+03  0.60522985870E+03  0.00000000000E+00 0. -1.
          3    1    5    5  503    0  0.61605824980E+03  0.13803004326E+03 -0.83400984832E+02  0.63681691581E+03  0.00000000000E+00 0. -1.
         -4    1    5    5    0  503  0.77553084089E+02  0.14348935458E+01  0.11972110359E+02  0.78484846930E+02  0.00000000000E+00 0.  1.
         -3    1    6    6    0  502  0.40229345971E+02 -0.52926627749E+02 -0.60895133556E+02  0.90154564460E+02  0.00000000000E+00 0.  1.
<mgrwt>
<rscale>  0 0.22787562E+04</rscale>
<asrwt>0</asrwt>
<pdfrwt beam="1">  1        2 0.21067558E+00 0.22787562E+04</pdfrwt>
<pdfrwt beam="2">  1       -2 0.14584610E+00 0.22787562E+04</pdfrwt>
<totfact> 0.44169101E+00</totfact>
</mgrwt>
</event>
<event>
12    1  0.1556559E-007  0.1581085E+04  0.7818608E-02  0.8832253E-01
         -1   -1    0    0    0  501 -0.00000000000E+00  0.00000000000E+00  0.52664384068E+03  0.52664384068E+03  0.00000000000E+00 0.  1.
          1   -1    0    0  501    0  0.00000000000E+00 -0.00000000000E+00 -0.11866802260E+04  0.11866802260E+04  0.00000000000E+00 0. -1.
         23    2    1    2    0    0  0.46660932129E+02 -0.30338948078E+03 -0.69510572666E+03  0.76532584459E+03  0.91264766108E+02 0.  0.
        254    2    1    2    0    0 -0.46660932129E+02  0.30338948078E+03  0.35069341320E+02  0.94799822209E+03  0.89624123469E+03 0.  0.
        -24    2    4    4    0    0  0.23675793472E+01 -0.18534109898E+02  0.42536263764E+03  0.43275387711E+03  0.77417220243E+02 0.  0.
         24    2    4    4    0    0 -0.49028511476E+02  0.32192359068E+03 -0.39029329632E+03  0.51524434498E+03  0.84316574343E+02 0.  0.
         13    1    3    3    0    0  0.64569989233E+02 -0.13200985925E+03 -0.29046774572E+03  0.32552633957E+03  0.00000000000E+00 0. -1.
        -13    1    3    3    0    0 -0.17909057104E+02 -0.17137962153E+03 -0.40463798093E+03  0.43979950502E+03  0.00000000000E+00 0.  1.
          4    1    6    6  502    0 -0.65607063127E+02  0.26348821779E+03 -0.34719547080E+03  0.44076640365E+03  0.00000000000E+00 0. -1.
          1    1    5    5  503    0  0.11580991700E+02  0.10578617101E+02  0.36278013936E+03  0.36311906591E+03  0.00000000000E+00 0. -1.
         -2    1    5    5    0  503 -0.92134123530E+01 -0.29112726999E+02  0.62582498279E+02  0.69634811204E+02  0.00000000000E+00 0.  1.
         -3    1    6    6    0  502  0.16578551651E+02  0.58435372896E+02 -0.43097825521E+02  0.74477941331E+02  0.00000000000E+00 0.  1.
<mgrwt>
<rscale>  0 0.15810855E+04</rscale>
<asrwt>0</asrwt>
<pdfrwt beam="1">  1        1 0.18256619E+00 0.15810855E+04</pdfrwt>
<pdfrwt beam="2">  1       -1 0.81022130E-01 0.15810855E+04</pdfrwt>
<totfact> 0.15946370E+01</totfact>
</mgrwt>
</event>
<event>
12    1  0.1556559E-007  0.1768631E+04  0.7818608E-02  0.8723161E-01
          1   -1    0    0  501    0  0.00000000000E+00  0.00000000000E+00  0.19314079814E+04  0.19314079814E+04  0.00000000000E+00 0. -1.
         -1   -1    0    0    0  501 -0.00000000000E+00 -0.00000000000E+00 -0.40489311386E+03  0.40489311386E+03  0.00000000000E+00 0.  1.
         23    2    1    2    0    0  0.25134929974E+03  0.59045050251E+03  0.62824378800E+03  0.90288354634E+03  0.93274727032E+02 0.  0.
        254    2    1    2    0    0 -0.25134929974E+03 -0.59045050251E+03  0.89827107956E+03  0.14334175489E+04  0.91432306698E+03 0.  0.
        -24    2    4    4    0    0  0.13735062729E+03 -0.68972719322E+03  0.54892298680E+03  0.89574413803E+03  0.80326331306E+02 0.  0.
         24    2    4    4    0    0 -0.38869992703E+03  0.99276690709E+02  0.34934809277E+03  0.53767341090E+03  0.78135217886E+02 0.  0.
         11    1    3    3    0    0  0.81426362263E+02  0.20105690105E+03  0.27571029403E+03  0.35081376279E+03  0.00000000000E+00 0. -1.
        -11    1    3    3    0    0  0.16992293748E+03  0.38939360146E+03  0.35253349397E+03  0.55206978355E+03  0.00000000000E+00 0.  1.
          4    1    6    6  502    0 -0.16482539073E+03  0.60602825486E+02  0.10775499872E+03  0.20603701521E+03  0.00000000000E+00 0. -1.
          1    1    5    5  503    0  0.51278406801E+02 -0.43814778120E+03  0.36306610428E+03  0.57133173310E+03  0.00000000000E+00 0. -1.
         -2    1    5    5    0  503  0.86072220491E+02 -0.25157941202E+03  0.18585688251E+03  0.32441240493E+03  0.00000000000E+00 0.  1.
         -3    1    6    6    0  502 -0.22387453630E+03  0.38673865222E+02  0.24159309405E+03  0.33163639569E+03  0.00000000000E+00 0.  1.
<mgrwt>
<rscale>  0 0.17686309E+04</rscale>
<asrwt>0</asrwt>
<pdfrwt beam="1">  1        1 0.29713969E+00 0.17686309E+04</pdfrwt>
<pdfrwt beam="2">  1       -1 0.62291249E-01 0.17686309E+04</pdfrwt>
<totfact> 0.82047626E+00</totfact>
</mgrwt>
</event>
<event>
12    1  0.1556559E-007  0.1743785E+04  0.7818608E-02  0.8736779E-01
          4   -1    0    0  501    0  0.00000000000E+00  0.00000000000E+00  0.51893223464E+03  0.51893223464E+03  0.00000000000E+00 0. -1.
         -4   -1    0    0    0  501 -0.00000000000E+00 -0.00000000000E+00 -0.14649248281E+04  0.14649248281E+04  0.00000000000E+00 0.  1.
         23    2    1    2    0    0 -0.12493406401E+03  0.97865905262E+00  0.35862716418E+03  0.39104768172E+03  0.93248959070E+02 0.  0.
        254    2    1    2    0    0  0.12493406401E+03 -0.97865905262E+00 -0.13046197576E+04  0.15928093810E+04  0.90520690129E+03 0.  0.
        -24    2    4    4    0    0 -0.25722832012E+03 -0.26183152432E+03 -0.28946753747E+03  0.47430545110E+03  0.80324653098E+02 0.  0.
         24    2    4    4    0    0  0.38216238413E+03  0.26085286527E+03 -0.10151522201E+04  0.11185039299E+04  0.80154263669E+02 0.  0.
         13    1    3    3    0    0 -0.12936176546E+03  0.18073670400E+02  0.34450678538E+03  0.36843730687E+03  0.00000000000E+00 0. -1.
        -13    1    3    3    0    0  0.44277014535E+01 -0.17095011348E+02  0.14120378800E+02  0.22610374844E+02  0.00000000000E+00 0.  1.
          2    1    6    6  502    0  0.35954427132E+03  0.22384642799E+03 -0.95121931024E+03  0.10412480408E+04  0.00000000000E+00 0. -1.
          3    1    5    5  503    0 -0.24623654037E+02 -0.16550459569E+02 -0.62841761781E+00  0.29675527944E+02  0.00000000000E+00 0. -1.
         -4    1    5    5    0  503 -0.23260466609E+03 -0.24528106475E+03 -0.28883911985E+03  0.44462992316E+03  0.00000000000E+00 0.  1.
         -1    1    6    6    0  502  0.22618112811E+02  0.37006437282E+02 -0.63932909885E+02  0.77255889055E+02  0.00000000000E+00 0.  1.
<mgrwt>
<rscale>  0 0.17437852E+04</rscale>
<asrwt>0</asrwt>
<pdfrwt beam="1">  1        4 0.79835728E-01 0.17437852E+04</pdfrwt>
<pdfrwt beam="2">  1       -4 0.22537305E+00 0.17437852E+04</pdfrwt>
<totfact> 0.23856712E-01</totfact>
</mgrwt>
</event>
<event>
12    1  0.1556559E-007  0.1302641E+04  0.7818608E-02  0.9027474E-01
          2   -1    0    0  501    0  0.00000000000E+00  0.00000000000E+00  0.15572777247E+04  0.15572777247E+04  0.00000000000E+00 0. -1.
         -2   -1    0    0    0  501 -0.00000000000E+00 -0.00000000000E+00 -0.27241015769E+03  0.27241015769E+03  0.00000000000E+00 0.  1.
         23    2    1    2    0    0  0.95430648877E+02  0.44149716517E+02 -0.10332250776E+03  0.17379364009E+03  0.92046089054E+02 0.  0.
        254    2    1    2    0    0 -0.95430648877E+02 -0.44149716517E+02  0.13881900747E+04  0.16558942423E+04  0.89658120199E+03 0.  0.
        -24    2    4    4    0    0 -0.11856116538E+03 -0.11412585534E+03 -0.67467023532E+02  0.19614328561E+03  0.82697813950E+02 0.  0.
         24    2    4    4    0    0  0.23130516499E+02  0.69976138822E+02  0.14556570983E+04  0.14597509567E+04  0.80644819661E+02 0.  0.
         11    1    3    3    0    0  0.14465769606E+02 -0.89189745590E+01 -0.69031785595E+02  0.71092854915E+02  0.00000000000E+00 0. -1.
        -11    1    3    3    0    0  0.80964879271E+02  0.53068691076E+02 -0.34290722167E+02  0.10270078517E+03  0.00000000000E+00 0.  1.
          4    1    6    6  502    0  0.21875456013E+02 -0.10927186691E+02  0.53015676170E+03  0.53072038868E+03  0.00000000000E+00 0. -1.
          3    1    5    5  503    0 -0.12980071749E+02 -0.14192911612E+02  0.18968135213E+02  0.27013166347E+02  0.00000000000E+00 0. -1.
         -4    1    5    5    0  503 -0.10558109363E+03 -0.99932943727E+02 -0.86435158745E+02  0.16913011926E+03  0.00000000000E+00 0.  1.
         -3    1    6    6    0  502  0.12550604858E+01  0.80903325513E+02  0.92550033656E+03  0.92903056797E+03  0.00000000000E+00 0.  1.
<mgrwt>
<rscale>  0 0.13026408E+04</rscale>
<asrwt>0</asrwt>
<pdfrwt beam="1">  1        2 0.23958118E+00 0.13026408E+04</pdfrwt>
<pdfrwt beam="2">  1       -2 0.41909256E-01 0.13026408E+04</pdfrwt>
<totfact> 0.62290577E+01</totfact>
</mgrwt>
</event>
<event>
12    1  0.1556559E-007  0.1438657E+04  0.7818608E-02  0.8926302E-01
          2   -1    0    0  501    0  0.00000000000E+00  0.00000000000E+00  0.24769690270E+04  0.24769690270E+04  0.00000000000E+00 0. -1.
         -2   -1    0    0    0  501 -0.00000000000E+00 -0.00000000000E+00 -0.20889781097E+03  0.20889781097E+03  0.00000000000E+00 0.  1.
         23    2    1    2    0    0  0.92951219170E+02 -0.15479620903E+03  0.14621897939E+04  0.14760033231E+04  0.89358944298E+02 0.  0.
        254    2    1    2    0    0 -0.92951219170E+02  0.15479620903E+03  0.80588142214E+03  0.12098635149E+04  0.88415104063E+03 0.  0.
        -24    2    4    4    0    0 -0.21417249977E+03  0.13352541709E+03  0.96096289891E+03  0.99689171778E+03  0.81513846765E+02 0.  0.
         24    2    4    4    0    0  0.12122128060E+03  0.21270791940E+02 -0.15508147678E+03  0.21297179711E+03  0.78483606350E+02 0.  0.
         13    1    3    3    0    0  0.72715745632E+02 -0.44875033576E+02  0.78701084705E+03  0.79163591485E+03  0.00000000000E+00 0.  1.
        -13    1    3    3    0    0  0.20235473538E+02 -0.10992117545E+03  0.67517894684E+03  0.68436740824E+03  0.00000000000E+00 0. -1.
          2    1    6    6  502    0  0.11926130226E+03  0.41495242055E+01 -0.15515509626E+03  0.19573855181E+03  0.00000000000E+00 0. -1.
          3    1    5    5  503    0 -0.13724887571E+03  0.12348710808E+03  0.60354811878E+03  0.63115501378E+03  0.00000000000E+00 0. -1.
         -4    1    5    5    0  503 -0.76923624067E+02  0.10038309007E+02  0.35741478014E+03  0.36573670399E+03  0.00000000000E+00 0.  1.
         -1    1    6    6    0  502  0.19599783439E+01  0.17121267734E+02  0.73619485464E-01  0.17233245306E+02  0.00000000000E+00 0.  1.
<mgrwt>
<rscale>  0 0.14386569E+04</rscale>
<asrwt>0</asrwt>
<pdfrwt beam="1">  1        2 0.38107214E+00 0.14386569E+04</pdfrwt>
<pdfrwt beam="2">  1       -2 0.32138126E-01 0.14386569E+04</pdfrwt>
<totfact> 0.31492161E+01</totfact>
</mgrwt>
</event>
<event>
12    1  0.1556559E-007  0.2770457E+04  0.7818608E-02  0.8312499E-01
         -2   -1    0    0    0  501 -0.00000000000E+00  0.00000000000E+00  0.71663354307E+03  0.71663354307E+03  0.00000000000E+00 0. -1.
          2   -1    0    0  501    0  0.00000000000E+00 -0.00000000000E+00 -0.26775998108E+04  0.26775998108E+04  0.00000000000E+00 0.  1.
         23    2    1    2    0    0 -0.10515957798E+04  0.21771182321E+03 -0.15841812952E+03  0.10893377064E+04  0.91149397336E+02 0.  0.
        254    2    1    2    0    0  0.10515957798E+04 -0.21771182321E+03 -0.18025481382E+04  0.23048956475E+04  0.95399792094E+03 0.  0.
        -24    2    4    4    0    0  0.94128415791E+03 -0.53744197417E+03 -0.13136516591E+04  0.17049461360E+04  0.79378231114E+02 0.  0.
         24    2    4    4    0    0  0.11031162191E+03  0.31973015095E+03 -0.48889647907E+03  0.59994951149E+03  0.80768965176E+02 0.  0.
         13    1    3    3    0    0 -0.17169822811E+03  0.29079538588E+02 -0.59499442187E+02  0.18402740210E+03  0.00000000000E+00 0.  1.
        -13    1    3    3    0    0 -0.87989755171E+03  0.18863228462E+03 -0.98918687334E+02  0.90531030427E+03  0.00000000000E+00 0. -1.
          4    1    6    6  502    0  0.72414500381E+01  0.10897692670E+03 -0.19913905669E+03  0.22712281490E+03  0.00000000000E+00 0. -1.
          3    1    5    5  503    0  0.62741699067E+03 -0.31728637055E+03 -0.82929722129E+03  0.10872242650E+04  0.00000000000E+00 0. -1.
         -4    1    5    5    0  503  0.31386716724E+03 -0.22015560362E+03 -0.48435443783E+03  0.61772187101E+03  0.00000000000E+00 0.  1.
         -1    1    6    6    0  502  0.10307017188E+03  0.21075322425E+03 -0.28975742238E+03  0.37282669659E+03  0.00000000000E+00 0.  1.
<mgrwt>
<rscale>  0 0.27704569E+04</rscale>
<asrwt>0</asrwt>
<pdfrwt beam="1">  1        2 0.41193843E+00 0.27704569E+04</pdfrwt>
<pdfrwt beam="2">  1       -2 0.11025131E+00 0.27704569E+04</pdfrwt>
<totfact> 0.15601307E+00</totfact>
</mgrwt>
</event>
<event>
12    1  0.1556559E-007  0.1090080E+04  0.7818608E-02  0.9214915E-01
         -1   -1    0    0    0  501 -0.00000000000E+00  0.00000000000E+00  0.13341466726E+03  0.13341466726E+03  0.00000000000E+00 0.  1.
          1   -1    0    0  501    0  0.00000000000E+00 -0.00000000000E+00 -0.22266558960E+04  0.22266558960E+04  0.00000000000E+00 0. -1.
         23    2    1    2    0    0 -0.10386482148E+03  0.10003705947E+03 -0.22470356913E+03  0.28081885692E+03  0.87018515364E+02 0.  0.
        254    2    1    2    0    0  0.10386482148E+03 -0.10003705947E+03 -0.18685376596E+04  0.20792517063E+04  0.90058834020E+03 0.  0.
        -24    2    4    4    0    0  0.40032835724E+03  0.10933856086E+03 -0.47006517432E+03  0.63224642954E+03  0.80972619206E+02 0.  0.
         24    2    4    4    0    0 -0.29646353576E+03 -0.20937562033E+03 -0.13984724853E+04  0.14470052768E+04  0.79813535953E+02 0.  0.
         13    1    3    3    0    0 -0.10069339839E+02  0.59324326942E+02 -0.49307967363E+02  0.77794877836E+02  0.00000000000E+00 0.  1.
        -13    1    3    3    0    0 -0.93795481643E+02  0.40712732528E+02 -0.17539560176E+03  0.20302397909E+03  0.00000000000E+00 0. -1.
          4    1    6    6  502    0 -0.27830718869E+03 -0.17373147727E+03 -0.12990089846E+04  0.13397991863E+04  0.00000000000E+00 0. -1.
          3    1    5    5  503    0  0.30945321977E+03  0.11398652377E+03 -0.34150307178E+03  0.47474053004E+03  0.00000000000E+00 0. -1.
         -4    1    5    5    0  503  0.90875137473E+02 -0.46479629086E+01 -0.12856210253E+03  0.15750589950E+03  0.00000000000E+00 0.  1.
         -3    1    6    6    0  502 -0.18156347068E+02 -0.35644143066E+02 -0.99463500642E+02  0.10720609047E+03  0.00000000000E+00 0.  1.
<mgrwt>
<rscale>  0 0.10900799E+04</rscale>
<asrwt>0</asrwt>
<pdfrwt beam="1">  1        1 0.34256247E+00 0.10900799E+04</pdfrwt>
<pdfrwt beam="2">  1       -1 0.20525332E-01 0.10900799E+04</pdfrwt>
<totfact> 0.41020385E+01</totfact>
</mgrwt>
</event>
<event>
12    1  0.1684629E-007  0.2125499E+04  0.7818608E-02  0.8550093E-01
          1   -1    0    0  501    0  0.00000000000E+00  0.00000000000E+00  0.12007517174E+04  0.12007517174E+04  0.00000000000E+00 0. -1.
         -1   -1    0    0    0  501 -0.00000000000E+00 -0.00000000000E+00 -0.94060814911E+03  0.94060814911E+03  0.00000000000E+00 0.  1.
         23    2    1    2    0    0  0.97289983891E+02  0.44618298192E+03 -0.61006877637E+03  0.76770872822E+03  0.92995619059E+02 0.  0.
        254    2    1    2    0    0 -0.97289983891E+02 -0.44618298192E+03  0.87021234469E+03  0.13736511383E+04  0.95974128318E+03 0.  0.
        -24    2    4    4    0    0  0.19418329572E+03 -0.24120263588E+03 -0.10021180723E+03  0.33653409749E+03  0.85597479971E+02 0.  0.
         24    2    4    4    0    0 -0.29147327961E+03 -0.20498034605E+03  0.97042415192E+03  0.10371170408E+04  0.83157120858E+02 0.  0.
         11    1    3    3    0    0  0.10221855410E+02  0.21502080988E+02 -0.66695802258E+01  0.24724666130E+02  0.00000000000E+00 0. -1.
        -11    1    3    3    0    0  0.87068128481E+02  0.42468090094E+03 -0.60339919615E+03  0.74298406209E+03  0.00000000000E+00 0.  1.
          2    1    6    6  502    0 -0.41594964713E+01 -0.10543049490E+02  0.91558105370E+02  0.92256945334E+02  0.00000000000E+00 0. -1.
          3    1    5    5  503    0 -0.25985923756E+01 -0.38194276328E+02 -0.16371633845E+02  0.41636352161E+02  0.00000000000E+00 0. -1.
         -4    1    5    5    0  503  0.19678188810E+03 -0.20300835955E+03 -0.83840173387E+02  0.29489774533E+03  0.00000000000E+00 0.  1.
         -1    1    6    6    0  502 -0.28731378314E+03 -0.19443729656E+03  0.87886604655E+03  0.94486009549E+03  0.00000000000E+00 0.  1.
<mgrwt>
<rscale>  0 0.21254993E+04</rscale>
<asrwt>0</asrwt>
<pdfrwt beam="1">  1        1 0.18473103E+00 0.21254993E+04</pdfrwt>
<pdfrwt beam="2">  1       -1 0.14470895E+00 0.21254993E+04</pdfrwt>
<totfact> 0.37621755E+00</totfact>
</mgrwt>
</event>
<event>
12    1  0.1556559E-007  0.1887590E+04  0.7818608E-02  0.8661058E-01
          2   -1    0    0  501    0  0.00000000000E+00  0.00000000000E+00  0.23697830043E+04  0.23697830043E+04  0.00000000000E+00 0. -1.
         -2   -1    0    0    0  501 -0.00000000000E+00 -0.00000000000E+00 -0.37587790702E+03  0.37587790702E+03  0.00000000000E+00 0.  1.
         23    2    1    2    0    0 -0.27897608698E+03  0.26903136111E+03  0.16539940941E+04  0.17011593349E+04  0.89672121124E+02 0.  0.
        254    2    1    2    0    0  0.27897608698E+03 -0.26903136111E+03  0.33991100326E+03  0.10445015764E+04  0.90842639912E+03 0.  0.
        -24    2    4    4    0    0  0.12201867818E+03  0.95666608053E+02  0.55760408915E+03  0.58387999396E+03  0.77154840290E+02 0.  0.
         24    2    4    4    0    0  0.15695740880E+03 -0.36469796917E+03 -0.21769308590E+03  0.46062158246E+03  0.84508731425E+02 0.  0.
         13    1    3    3    0    0 -0.23620857775E+03  0.22295941297E+03  0.15012132957E+04  0.15359514157E+04  0.00000000000E+00 0. -1.
        -13    1    3    3    0    0 -0.42767509226E+02  0.46071948138E+02  0.15278079836E+03  0.16520791930E+03  0.00000000000E+00 0.  1.
          4    1    6    6  502    0  0.12731931084E+03 -0.27126265638E+03 -0.12170768729E+03  0.32342912176E+03  0.00000000000E+00 0. -1.
          1    1    5    5  503    0  0.97199912173E+02  0.44044685152E+02  0.44411425973E+03  0.45675511262E+03  0.00000000000E+00 0. -1.
         -2    1    5    5    0  503  0.24818766006E+02  0.51621922901E+02  0.11348982943E+03  0.12712488133E+03  0.00000000000E+00 0.  1.
         -3    1    6    6    0  502  0.29638097961E+02 -0.93435312790E+02 -0.95985398603E+02  0.13719246070E+03  0.00000000000E+00 0.  1.
<mgrwt>
<rscale>  0 0.18875901E+04</rscale>
<asrwt>0</asrwt>
<pdfrwt beam="1">  1        2 0.36458199E+00 0.18875901E+04</pdfrwt>
<pdfrwt beam="2">  1       -2 0.57827372E-01 0.18875901E+04</pdfrwt>
<totfact> 0.10863056E+01</totfact>
</mgrwt>
</event>
<event>
12    1  0.1556559E-007  0.2051062E+04  0.7818608E-02  0.8583113E-01
          2   -1    0    0  501    0  0.00000000000E+00  0.00000000000E+00  0.10731438476E+04  0.10731438476E+04  0.00000000000E+00 0. -1.
         -2   -1    0    0    0  501 -0.00000000000E+00 -0.00000000000E+00 -0.98003085111E+03  0.98003085111E+03  0.00000000000E+00 0.  1.
         23    2    1    2    0    0 -0.21312680021E+03 -0.13938238979E+03  0.82395099969E+03  0.86739389170E+03  0.92878576145E+02 0.  0.
        254    2    1    2    0    0  0.21312680021E+03  0.13938238979E+03 -0.73083800320E+03  0.11857808070E+04  0.89838825226E+03 0.  0.
        -24    2    4    4    0    0  0.45975970887E+03 -0.11677743133E+03 -0.65644434958E+03  0.81394619617E+03  0.81075691718E+02 0.  0.
         24    2    4    4    0    0 -0.24663290866E+03  0.25615982112E+03 -0.74393653622E+02  0.37183461085E+03  0.79252233612E+02 0.  0.
         13    1    3    3    0    0 -0.15479863731E+02 -0.41160829036E+02  0.22064168309E+03  0.22498131555E+03  0.00000000000E+00 0. -1.
        -13    1    3    3    0    0 -0.19764693648E+03 -0.98221560753E+02  0.60330931660E+03  0.64241257615E+03  0.00000000000E+00 0.  1.
          4    1    6    6  502    0 -0.29646982652E+02  0.73302243084E+02 -0.30259545991E+02  0.84662875837E+02  0.00000000000E+00 0. -1.
          3    1    5    5  503    0  0.45204587498E+02 -0.13274005487E+02 -0.30689454139E+02  0.56227186910E+02  0.00000000000E+00 0. -1.
         -4    1    5    5    0  503  0.41455512137E+03 -0.10350342585E+03 -0.62575489544E+03  0.75771900926E+03  0.00000000000E+00 0.  1.
         -1    1    6    6    0  502 -0.21698592601E+03  0.18285757804E+03 -0.44134107632E+02  0.28717173501E+03  0.00000000000E+00 0.  1.
<mgrwt>
<rscale>  0 0.20510622E+04</rscale>
<asrwt>0</asrwt>
<pdfrwt beam="1">  1        2 0.16509905E+00 0.20510622E+04</pdfrwt>
<pdfrwt beam="2">  1       -2 0.15077398E+00 0.20510622E+04</pdfrwt>
<totfact> 0.61905049E+00</totfact>
</mgrwt>
</event>
<event>
12    1  0.1556559E-007  0.1032905E+04  0.7818608E-02  0.9273173E-01
          1   -1    0    0  501    0  0.00000000000E+00  0.00000000000E+00  0.11300114657E+04  0.11300114657E+04  0.00000000000E+00 0. -1.
         -1   -1    0    0    0  501 -0.00000000000E+00 -0.00000000000E+00 -0.23603597937E+03  0.23603597937E+03  0.00000000000E+00 0.  1.
         23    2    1    2    0    0 -0.10143641524E+02  0.80803983748E+02  0.93235566354E+02  0.15278141023E+03  0.89538322669E+02 0.  0.
        254    2    1    2    0    0  0.10143641524E+02 -0.80803983748E+02  0.80073992000E+03  0.12132660349E+04  0.90785344336E+03 0.  0.
        -24    2    4    4    0    0 -0.26331693022E+03 -0.46719611519E+01  0.86830075810E+03  0.91085813359E+03  0.79741457538E+02 0.  0.
         24    2    4    4    0    0  0.27346057174E+03 -0.76132022596E+02 -0.67560838096E+02  0.30240790128E+03  0.79431119541E+02 0.  0.
         13    1    3    3    0    0  0.35407623290E+02  0.10695101785E+02  0.22725586109E+02  0.43411257218E+02  0.00000000000E+00 0. -1.
        -13    1    3    3    0    0 -0.45551264815E+02  0.70108881963E+02  0.70509980245E+02  0.10937015301E+03  0.00000000000E+00 0.  1.
          2    1    6    6  502    0  0.17542661929E+03 -0.58028647785E+02 -0.52591673563E+01  0.18484988926E+03  0.00000000000E+00 0. -1.
          3    1    5    5  503    0 -0.65126490994E+02  0.32193658638E+02  0.19840005743E+03  0.21128292471E+03  0.00000000000E+00 0. -1.
         -4    1    5    5    0  503 -0.19819043922E+03 -0.36865619790E+02  0.66990070066E+03  0.69957520887E+03  0.00000000000E+00 0.  1.
         -1    1    6    6    0  502  0.98033952450E+02 -0.18103374812E+02 -0.62301670739E+02  0.11755801202E+03  0.00000000000E+00 0.  1.
<mgrwt>
<rscale>  0 0.10329053E+04</rscale>
<asrwt>0</asrwt>
<pdfrwt beam="1">  1        1 0.17384791E+00 0.10329053E+04</pdfrwt>
<pdfrwt beam="2">  1       -1 0.36313228E-01 0.10329053E+04</pdfrwt>
<totfact> 0.87392375E+01</totfact>
</mgrwt>
</event>
<event>
12    1  0.1556559E-007  0.1260501E+04  0.7818608E-02  0.9061488E-01
         -2   -1    0    0    0  501 -0.00000000000E+00  0.00000000000E+00  0.53137791968E+03  0.53137791968E+03  0.00000000000E+00 0. -1.
          2   -1    0    0  501    0  0.00000000000E+00 -0.00000000000E+00 -0.74751991391E+03  0.74751991391E+03  0.00000000000E+00 0.  1.
         23    2    1    2    0    0 -0.15716186937E+03 -0.23630024779E+03 -0.11446241931E+03  0.31915658994E+03  0.90673166793E+02 0.  0.
        254    2    1    2    0    0  0.15716186937E+03  0.23630024779E+03 -0.10167957493E+03  0.95974124365E+03  0.91116785420E+03 0.  0.
        -24    2    4    4    0    0 -0.36812687947E+03  0.10720498101E+02 -0.37608649469E+02  0.37902645220E+03  0.81328423581E+02 0.  0.
         24    2    4    4    0    0  0.52528874884E+03  0.22557974969E+03 -0.64070925459E+02  0.58071479145E+03  0.79436090024E+02 0.  0.
         13    1    3    3    0    0 -0.11961590026E+03 -0.21706839313E+03 -0.69285663224E+02  0.25734636975E+03  0.00000000000E+00 0.  1.
        -13    1    3    3    0    0 -0.37545969108E+02 -0.19231854659E+02 -0.45176756084E+02  0.61810220192E+02  0.00000000000E+00 0. -1.
          2    1    6    6  502    0  0.43760525163E+03  0.17441803542E+03 -0.80388678948E+02  0.47789365662E+03  0.00000000000E+00 0. -1.
          1    1    5    5  503    0 -0.35951178009E+03  0.62140907843E+01 -0.21495685891E+02  0.36020743949E+03  0.00000000000E+00 0. -1.
         -2    1    5    5    0  503 -0.86150993800E+01  0.45064073162E+01 -0.16112963577E+02  0.18819012713E+02  0.00000000000E+00 0.  1.
         -1    1    6    6    0  502  0.87683497208E+02  0.51161714274E+02  0.16317753489E+02  0.10282113484E+03  0.00000000000E+00 0.  1.
<mgrwt>
<rscale>  0 0.12605008E+04</rscale>
<asrwt>0</asrwt>
<pdfrwt beam="1">  1        2 0.11500306E+00 0.12605008E+04</pdfrwt>
<pdfrwt beam="2">  1       -2 0.81750450E-01 0.12605008E+04</pdfrwt>
<totfact> 0.48747788E+01</totfact>
</mgrwt>
</event>
<event>
12    1  0.1556559E-007  0.2476971E+04  0.7818608E-02  0.8411236E-01
          2   -1    0    0  501    0  0.00000000000E+00  0.00000000000E+00  0.22624073817E+04  0.22624073817E+04  0.00000000000E+00 0.  1.
         -2   -1    0    0    0  501 -0.00000000000E+00 -0.00000000000E+00 -0.67797097010E+03  0.67797097010E+03  0.00000000000E+00 0. -1.
         23    2    1    2    0    0 -0.63678677379E+03 -0.64786532348E+03  0.13636302495E+04  0.16411783463E+04  0.93552308519E+02 0.  0.
        254    2    1    2    0    0  0.63678677379E+03  0.64786532348E+03  0.22080616214E+03  0.12992000055E+04  0.90218535815E+03 0.  0.
        -24    2    4    4    0    0  0.35911120100E+03  0.35611739802E+02  0.45203773459E+03  0.58404155185E+03  0.80854004833E+02 0.  0.
         24    2    4    4    0    0  0.27767557279E+03  0.61225358368E+03 -0.23123157244E+03  0.71515845367E+03  0.77623445600E+02 0.  0.
         11    1    3    3    0    0 -0.31497187399E+03 -0.27976453175E+03  0.56512884450E+03  0.70487309887E+03  0.00000000000E+00 0. -1.
        -11    1    3    3    0    0 -0.32181489980E+03 -0.36810079174E+03  0.79850140497E+03  0.93630524743E+03  0.00000000000E+00 0.  1.
          4    1    6    6  502    0  0.48534790365E+02  0.82004432450E+02 -0.70893719560E+01  0.95554235971E+02  0.00000000000E+00 0. -1.
          1    1    5    5  503    0  0.41333258561E+02 -0.19934678655E+01  0.10042658691E+03  0.10861819155E+03  0.00000000000E+00 0. -1.
         -2    1    5    5    0  503  0.31777794244E+03  0.37605207667E+02  0.35161114768E+03  0.47542336030E+03  0.00000000000E+00 0.  1.
         -3    1    6    6    0  502  0.22914078243E+03  0.53024915123E+03 -0.22414220049E+03  0.61960421770E+03  0.00000000000E+00 0.  1.
<mgrwt>
<rscale>  0 0.24769712E+04</rscale>
<asrwt>0</asrwt>
<pdfrwt beam="1">  1        2 0.34806267E+00 0.24769712E+04</pdfrwt>
<pdfrwt beam="2">  1       -2 0.10430323E+00 0.24769712E+04</pdfrwt>
<totfact> 0.31775718E+00</totfact>
</mgrwt>
</event>
<event>
12    1  0.1556559E-007  0.3096190E+04  0.7818608E-02  0.8216784E-01
         -2   -1    0    0    0  501 -0.00000000000E+00  0.00000000000E+00  0.95260398128E+03  0.95260398128E+03  0.00000000000E+00 0.  1.
          2   -1    0    0  501    0  0.00000000000E+00 -0.00000000000E+00 -0.25158381230E+04  0.25158381230E+04  0.00000000000E+00 0. -1.
         23    2    1    2    0    0 -0.74092212340E+03  0.11489386765E+04 -0.11510033241E+04  0.17894647117E+04  0.91376294552E+02 0.  0.
        254    2    1    2    0    0  0.74092212340E+03 -0.11489386765E+04 -0.41223081767E+03  0.16789773926E+04  0.88317900941E+03 0.  0.
        -24    2    4    4    0    0  0.45765872506E+03 -0.10196893713E+04 -0.63560388028E+03  0.12883127576E+04  0.80867459953E+02 0.  0.
         24    2    4    4    0    0  0.28326339834E+03 -0.12924930513E+03  0.22337306261E+03  0.39066463504E+03  0.76024971234E+02 0.  0.
         11    1    3    3    0    0 -0.61680287422E+03  0.93120785335E+03 -0.89607216308E+03  0.14319703814E+04  0.00000000000E+00 0. -1.
        -11    1    3    3    0    0 -0.12411924918E+03  0.21773082311E+03 -0.25493116100E+03  0.35749433030E+03  0.00000000000E+00 0.  1.
          2    1    6    6  502    0  0.15486153705E+03 -0.67128417297E+02  0.74526658627E+02  0.18450621375E+03  0.00000000000E+00 0. -1.
          3    1    5    5  503    0  0.71316948170E+02 -0.20252122629E+03 -0.92360533359E+02  0.23373365679E+03  0.00000000000E+00 0. -1.
         -4    1    5    5    0  503  0.38634177689E+03 -0.81716814503E+03 -0.54324334693E+03  0.10545791008E+04  0.00000000000E+00 0.  1.
         -1    1    6    6    0  502  0.12840186129E+03 -0.62120887828E+02  0.14884640399E+03  0.20615842129E+03  0.00000000000E+00 0.  1.
<mgrwt>
<rscale>  0 0.30961895E+04</rscale>
<asrwt>0</asrwt>
<pdfrwt beam="1">  1        2 0.38705202E+00 0.30961895E+04</pdfrwt>
<pdfrwt beam="2">  1       -2 0.14655446E+00 0.30961895E+04</pdfrwt>
<totfact> 0.92201566E-01</totfact>
</mgrwt>
</event>
<event>
12    1  0.1556559E-007  0.1283320E+04  0.7818608E-02  0.9042898E-01
         -2   -1    0    0    0  501 -0.00000000000E+00  0.00000000000E+00  0.35501095032E+03  0.35501095032E+03  0.00000000000E+00 0.  1.
          2   -1    0    0  501    0  0.00000000000E+00 -0.00000000000E+00 -0.11597599747E+04  0.11597599747E+04  0.00000000000E+00 0. -1.
         23    2    1    2    0    0 -0.21762111442E+02 -0.11151650275E+02 -0.55306155641E+03  0.56121983559E+03  0.92155682894E+02 0.  0.
        254    2    1    2    0    0  0.21762111442E+02  0.11151650275E+02 -0.25168746796E+03  0.95355108942E+03  0.91941021846E+03 0.  0.
        -24    2    4    4    0    0 -0.41890451477E+02  0.90079840987E+02 -0.58351274545E+03  0.59734033503E+03  0.80368924809E+02 0.  0.
         24    2    4    4    0    0  0.63652562919E+02 -0.78928190713E+02  0.33182527749E+03  0.35621075439E+03  0.80602597390E+02 0.  0.
         13    1    3    3    0    0 -0.25990091286E+02 -0.21099074070E+02 -0.54844638179E+03  0.54946709589E+03  0.00000000000E+00 0. -1.
        -13    1    3    3    0    0  0.42279798434E+01  0.99474237956E+01 -0.46151746193E+01  0.11752739702E+02  0.00000000000E+00 0.  1.
          2    1    6    6  502    0  0.70286422116E+02 -0.63545114859E+02  0.17956281241E+03  0.20302947164E+03  0.00000000000E+00 0. -1.
          3    1    5    5  503    0 -0.30729476983E+02  0.24133816800E+02 -0.76164362442E+02  0.85602289544E+02  0.00000000000E+00 0. -1.
         -4    1    5    5    0  503 -0.11160974494E+02  0.65946024187E+02 -0.50734838301E+03  0.51173804549E+03  0.00000000000E+00 0.  1.
         -1    1    6    6    0  502 -0.66338591971E+01 -0.15383075854E+02  0.15226246508E+03  0.15318128274E+03  0.00000000000E+00 0.  1.
<mgrwt>
<rscale>  0 0.12833199E+04</rscale>
<asrwt>0</asrwt>
<pdfrwt beam="1">  1        2 0.17842461E+00 0.12833199E+04</pdfrwt>
<pdfrwt beam="2">  1       -2 0.54617069E-01 0.12833199E+04</pdfrwt>
<totfact> 0.61988056E+01</totfact>
</mgrwt>
</event>
<event>
12    1  0.1556559E-007  0.1349341E+04  0.7818608E-02  0.8991327E-01
          2   -1    0    0  501    0  0.00000000000E+00  0.00000000000E+00  0.74257910677E+03  0.74257910677E+03  0.00000000000E+00 0. -1.
         -2   -1    0    0    0  501 -0.00000000000E+00 -0.00000000000E+00 -0.61297226178E+03  0.61297226178E+03  0.00000000000E+00 0.  1.
         23    2    1    2    0    0  0.32789934523E+03 -0.17244285419E+03  0.34924678782E+02  0.38275484666E+03  0.89593643151E+02 0.  0.
        254    2    1    2    0    0 -0.32789934523E+03  0.17244285419E+03  0.94682166205E+02  0.97279652189E+03  0.89449082826E+03 0.  0.
        -24    2    4    4    0    0  0.20651491310E+03 -0.14897558496E+03  0.19982088900E+03  0.33503561673E+03  0.86477410623E+02 0.  0.
         24    2    4    4    0    0 -0.53441425833E+03  0.32141843914E+03 -0.10513872279E+03  0.63776090516E+03  0.82318944323E+02 0.  0.
         11    1    3    3    0    0  0.66137135941E+02 -0.22343557418E+02 -0.26774376603E+02  0.74767790867E+02  0.00000000000E+00 0.  1.
        -11    1    3    3    0    0  0.26176220929E+03 -0.15009929677E+03  0.61699055385E+02  0.30798705580E+03  0.00000000000E+00 0. -1.
          2    1    6    6  502    0 -0.59696299474E+02  0.62470674434E+02  0.23115023567E+01  0.86438280745E+02  0.00000000000E+00 0. -1.
          3    1    5    5  503    0  0.14814440856E+02 -0.48472394524E+02  0.53932700855E+02  0.74012005177E+02  0.00000000000E+00 0. -1.
         -4    1    5    5    0  503  0.19170047225E+03 -0.10050319043E+03  0.14588818814E+03  0.26102361155E+03  0.00000000000E+00 0.  1.
         -1    1    6    6    0  502 -0.47471795886E+03  0.25894776471E+03 -0.10745022515E+03  0.55132262442E+03  0.00000000000E+00 0.  1.
<mgrwt>
<rscale>  0 0.13493412E+04</rscale>
<asrwt>0</asrwt>
<pdfrwt beam="1">  1        2 0.11424294E+00 0.13493412E+04</pdfrwt>
<pdfrwt beam="2">  1       -2 0.94303425E-01 0.13493412E+04</pdfrwt>
<totfact> 0.35194423E+01</totfact>
</mgrwt>
</event>
<event>
12    1  0.1556559E-007  0.2823286E+04  0.7818608E-02  0.8296075E-01
         -3   -1    0    0    0  501 -0.00000000000E+00  0.00000000000E+00  0.32438071771E+04  0.32438071771E+04  0.00000000000E+00 0.  1.
          3   -1    0    0  501    0  0.00000000000E+00 -0.00000000000E+00 -0.61432005362E+03  0.61432005362E+03  0.00000000000E+00 0. -1.
         23    2    1    2    0    0  0.11372861976E+01 -0.74253099316E+03 -0.22980609125E+03  0.78267868692E+03  0.91768829989E+02 0.  0.
        254    2    1    2    0    0 -0.11372861976E+01  0.74253099316E+03  0.28592932147E+04  0.30754485438E+04  0.85526164917E+03 0.  0.
        -24    2    4    4    0    0  0.40328753470E+03  0.25523729056E+03  0.14461285254E+04  0.15249389567E+04  0.79775932055E+02 0.  0.
         24    2    4    4    0    0 -0.40442482090E+03  0.48729370260E+03  0.14131646893E+04  0.15505095871E+04  0.77659206646E+02 0.  0.
         11    1    3    3    0    0 -0.48088637281E+01 -0.99320995972E+02  0.54630111744E+00  0.99438844805E+02  0.00000000000E+00 0.  1.
        -11    1    3    3    0    0  0.59461499257E+01 -0.64320999719E+03 -0.23035239237E+03  0.68323984212E+03  0.00000000000E+00 0. -1.
          2    1    6    6  502    0 -0.36455683203E+03  0.46276733346E+03  0.12722831209E+04  0.14020555012E+04  0.00000000000E+00 0. -1.
          1    1    5    5  503    0  0.18044461530E+03  0.75983124833E+02  0.51898055582E+03  0.55468415496E+03  0.00000000000E+00 0. -1.
         -2    1    5    5    0  503  0.22284291941E+03  0.17925416573E+03  0.92714796963E+03  0.97025480172E+03  0.00000000000E+00 0.  1.
         -1    1    6    6    0  502 -0.39867988866E+02  0.24526369142E+02  0.14088156841E+03  0.14845408596E+03  0.00000000000E+00 0.  1.
<mgrwt>
<rscale>  0 0.28232859E+04</rscale>
<asrwt>0</asrwt>
<pdfrwt beam="1">  1        3 0.94510780E-01 0.28232859E+04</pdfrwt>
<pdfrwt beam="2">  1       -3 0.49904725E+00 0.28232859E+04</pdfrwt>
<totfact> 0.69148883E-03</totfact>
</mgrwt>
</event>
<event>
12    1  0.1556559E-007  0.3427898E+04  0.7818608E-02  0.8131093E-01
          2   -1    0    0  501    0  0.00000000000E+00  0.00000000000E+00  0.26601561136E+04  0.26601561136E+04  0.00000000000E+00 0. -1.
         -2   -1    0    0    0  501 -0.00000000000E+00 -0.00000000000E+00 -0.11043041000E+04  0.11043041000E+04  0.00000000000E+00 0.  1.
         23    2    1    2    0    0  0.10500497981E+04  0.47737897404E+03 -0.47603718906E+03  0.12511827396E+04  0.91386973647E+02 0.  0.
        254    2    1    2    0    0 -0.10500497981E+04 -0.47737897404E+03  0.20318892026E+04  0.25132774741E+04  0.92601007909E+03 0.  0.
        -24    2    4    4    0    0 -0.46745057691E+02 -0.39523762726E+03  0.28732876377E+03  0.49754816767E+03  0.81231017728E+02 0.  0.
         24    2    4    4    0    0 -0.10033047404E+04 -0.82141346779E+02  0.17445604388E+04  0.20157293064E+04  0.79409752959E+02 0.  0.
         13    1    3    3    0    0  0.88556042437E+02  0.52096548829E+02 -0.69137686690E+02  0.12383958484E+03  0.00000000000E+00 0. -1.
        -13    1    3    3    0    0  0.96149375570E+03  0.42528242521E+03 -0.40689950237E+03  0.11273431547E+04  0.00000000000E+00 0.  1.
          4    1    6    6  502    0 -0.27448432456E+03 -0.60118966139E+01  0.41484408505E+03  0.49746698607E+03  0.00000000000E+00 0. -1.
          1    1    5    5  503    0  0.93758331778E+01 -0.14654693358E+03  0.14107349744E+03  0.20363114120E+03  0.00000000000E+00 0. -1.
         -4    1    5    5    0  503 -0.56120890869E+02 -0.24869069368E+03  0.14625526633E+03  0.29391702646E+03  0.00000000000E+00 0.  1.
         -3    1    6    6    0  502 -0.72882041589E+03 -0.76129450165E+02  0.13297163538E+04  0.15182623203E+04  0.00000000000E+00 0.  1.
<mgrwt>
<rscale>  0 0.34278981E+04</rscale>
<asrwt>0</asrwt>
<pdfrwt beam="1">  1        2 0.40925479E+00 0.34278981E+04</pdfrwt>
<pdfrwt beam="2">  1       -2 0.16989294E+00 0.34278981E+04</pdfrwt>
<totfact> 0.49476136E-01</totfact>
</mgrwt>
</event>
<event>
12    1  0.1556559E-007  0.2851045E+04  0.7818608E-02  0.8287594E-01
         -2   -1    0    0    0  501 -0.00000000000E+00  0.00000000000E+00  0.23926437631E+04  0.23926437631E+04  0.00000000000E+00 0. -1.
          2   -1    0    0  501    0  0.00000000000E+00 -0.00000000000E+00 -0.84931753479E+03  0.84931753479E+03  0.00000000000E+00 0.  1.
         23    2    1    2    0    0 -0.85184666863E+03  0.60347148334E+03  0.15234590912E+04  0.18491490269E+04  0.92757441178E+02 0.  0.
        254    2    1    2    0    0  0.85184666863E+03 -0.60347148334E+03  0.19867137066E+02  0.13928122710E+04  0.92179755967E+03 0.  0.
        -24    2    4    4    0    0 -0.10158858899E+03 -0.34817286967E+03 -0.12637421126E+03  0.39180738439E+03  0.77446733991E+02 0.  0.
         24    2    4    4    0    0  0.95343525762E+03 -0.25529861367E+03  0.14624134833E+03  0.10010048866E+04  0.80050474190E+02 0.  0.
         13    1    3    3    0    0 -0.77309753089E+03  0.53777512692E+03  0.14163332351E+04  0.17008473513E+04  0.00000000000E+00 0. -1.
        -13    1    3    3    0    0 -0.78749137748E+02  0.65696356423E+02  0.10712585610E+03  0.14830167561E+03  0.00000000000E+00 0.  1.
          2    1    6    6  502    0  0.89250985256E+03 -0.22462298069E+03  0.15091332018E+03  0.93263291310E+03  0.00000000000E+00 0. -1.
          3    1    5    5  503    0 -0.10735502542E+03 -0.31086824128E+03 -0.13051397735E+03  0.35383338339E+03  0.00000000000E+00 0. -1.
         -4    1    5    5    0  503  0.57664364349E+01 -0.37304628394E+02  0.41397660919E+01  0.37974001001E+02  0.00000000000E+00 0.  1.
         -1    1    6    6    0  502  0.60925405055E+02 -0.30675632976E+02 -0.46719718541E+01  0.68371973503E+02  0.00000000000E+00 0.  1.
<mgrwt>
<rscale>  0 0.28510449E+04</rscale>
<asrwt>0</asrwt>
<pdfrwt beam="1">  1        2 0.13066424E+00 0.28510449E+04</pdfrwt>
<pdfrwt beam="2">  1       -2 0.36809904E+00 0.28510449E+04</pdfrwt>
<totfact> 0.32866817E-01</totfact>
</mgrwt>
</event>
<event>
12    1  0.1556559E-007  0.1263182E+04  0.7818608E-02  0.9059282E-01
         -1   -1    0    0    0  501 -0.00000000000E+00  0.00000000000E+00  0.18013660658E+03  0.18013660658E+03  0.00000000000E+00 0.  1.
          1   -1    0    0  501    0  0.00000000000E+00 -0.00000000000E+00 -0.22144719470E+04  0.22144719470E+04  0.00000000000E+00 0. -1.
         23    2    1    2    0    0  0.36154688158E+03  0.14096725729E+03 -0.44793605738E+03  0.59976102375E+03  0.92079633481E+02 0.  0.
        254    2    1    2    0    0 -0.36154688158E+03 -0.14096725729E+03 -0.15863992830E+04  0.17948475298E+04  0.74446427378E+03 0.  0.
        -24    2    4    4    0    0 -0.12672367952E+03  0.83160367467E+02  0.25781100383E+01  0.17092629916E+03  0.78959580944E+02 0.  0.
         24    2    4    4    0    0 -0.23482320206E+03 -0.22412762475E+03 -0.15889773931E+04  0.16239212307E+04  0.83041431498E+02 0.  0.
         11    1    3    3    0    0  0.11111564734E+03  0.30220511479E+02 -0.19784306707E+03  0.22891449405E+03  0.00000000000E+00 0. -1.
        -11    1    3    3    0    0  0.25043123424E+03  0.11074674581E+03 -0.25009299031E+03  0.37084652970E+03  0.00000000000E+00 0.  1.
          2    1    6    6  502    0 -0.62576971266E+02 -0.64000491301E+02 -0.64037597507E+03  0.64660136844E+03  0.00000000000E+00 0. -1.
          3    1    5    5  503    0 -0.77622534277E+02  0.54599498583E+01  0.11166364574E+02  0.78611427781E+02  0.00000000000E+00 0. -1.
         -4    1    5    5    0  503 -0.49101145245E+02  0.77700417608E+02 -0.85882545356E+01  0.92314871374E+02  0.00000000000E+00 0.  1.
         -1    1    6    6    0  502 -0.17224623079E+03 -0.16012713345E+03 -0.94860141801E+03  0.97731986224E+03  0.00000000000E+00 0.  1.
<mgrwt>
<rscale>  0 0.12631824E+04</rscale>
<asrwt>0</asrwt>
<pdfrwt beam="1">  1        1 0.34068800E+00 0.12631824E+04</pdfrwt>
<pdfrwt beam="2">  1       -1 0.27713324E-01 0.12631824E+04</pdfrwt>
<totfact> 0.24661389E+01</totfact>
</mgrwt>
</event>
<event>
12    1  0.1556559E-007  0.1303574E+04  0.7818608E-02  0.9026736E-01
         -2   -1    0    0    0  501 -0.00000000000E+00  0.00000000000E+00  0.50011675546E+03  0.50011675546E+03  0.00000000000E+00 0.  1.
          2   -1    0    0  501    0  0.00000000000E+00 -0.00000000000E+00 -0.84945388889E+03  0.84945388889E+03  0.00000000000E+00 0. -1.
         23    2    1    2    0    0  0.23336805420E+03 -0.74645872393E+02  0.11670103734E+03  0.28725290502E+03  0.94140556278E+02 0.  0.
        254    2    1    2    0    0 -0.23336805420E+03  0.74645872393E+02 -0.46603817077E+03  0.10623177393E+04  0.92265635406E+03 0.  0.
        -24    2    4    4    0    0 -0.16567111397E+03  0.43420175405E+03 -0.94789781066E+01  0.47181182092E+03  0.80860757558E+02 0.  0.
         24    2    4    4    0    0 -0.67696940229E+02 -0.35955588165E+03 -0.45655919266E+03  0.59050591841E+03  0.79922684648E+02 0.  0.
         11    1    3    3    0    0  0.16240843736E+03 -0.70394084378E+02  0.37701767860E+02  0.18097859249E+03  0.00000000000E+00 0. -1.
        -11    1    3    3    0    0  0.70959616844E+02 -0.42517880151E+01  0.78999269481E+02  0.10627431252E+03  0.00000000000E+00 0.  1.
          4    1    6    6  502    0  0.52382641665E+00 -0.63589221254E+01  0.28744440043E+01  0.69980506604E+01  0.00000000000E+00 0. -1.
          3    1    5    5  503    0 -0.11409067118E+03  0.19919219872E+03  0.14541256942E+02  0.23001230714E+03  0.00000000000E+00 0. -1.
         -4    1    5    5    0  503 -0.51580442789E+02  0.23500955533E+03 -0.24020235049E+02  0.24179951378E+03  0.00000000000E+00 0.  1.
         -3    1    6    6    0  502 -0.68220766646E+02 -0.35319695953E+03 -0.45943363667E+03  0.58350786775E+03  0.00000000000E+00 0.  1.
<mgrwt>
<rscale>  0 0.13035737E+04</rscale>
<asrwt>0</asrwt>
<pdfrwt beam="1">  1        2 0.13068521E+00 0.13035737E+04</pdfrwt>
<pdfrwt beam="2">  1       -2 0.76941040E-01 0.13035737E+04</pdfrwt>
<totfact> 0.46977753E+01</totfact>
</mgrwt>
</event>
<event>
12    1  0.1556559E-007  0.1388499E+04  0.7818608E-02  0.8962186E-01
          1   -1    0    0  501    0  0.00000000000E+00  0.00000000000E+00  0.84312376502E+03  0.84312376502E+03  0.00000000000E+00 0. -1.
         -1   -1    0    0    0  501 -0.00000000000E+00 -0.00000000000E+00 -0.57166267435E+03  0.57166267435E+03  0.00000000000E+00 0.  1.
         23    2    1    2    0    0  0.36462605729E+03  0.91055491191E+02 -0.57558571642E+02  0.39155514479E+03  0.93590480869E+02 0.  0.
        254    2    1    2    0    0 -0.36462605729E+03 -0.91055491191E+02  0.32901966231E+03  0.10232312946E+04  0.89303139917E+03 0.  0.
        -24    2    4    4    0    0 -0.57431390235E+03 -0.97343245936E+02  0.47517592557E+03  0.75595445349E+03  0.79767221015E+02 0.  0.
         24    2    4    4    0    0  0.20968784506E+03  0.62877547449E+01 -0.14615626326E+03  0.26727684109E+03  0.77889205092E+02 0.  0.
         11    1    3    3    0    0  0.30311795034E+03  0.62312918178E+02 -0.80736717108E+02  0.31981527337E+03  0.00000000000E+00 0.  1.
        -11    1    3    3    0    0  0.61508106948E+02  0.28742573014E+02  0.23178145466E+02  0.71739871418E+02  0.00000000000E+00 0. -1.
          4    1    6    6  502    0  0.92819239057E+02 -0.12349433852E+02 -0.10798267858E+03  0.14292717912E+03  0.00000000000E+00 0. -1.
          1    1    5    5  503    0 -0.30235853944E+03 -0.51876637190E+02  0.30122124538E+03  0.42993733326E+03  0.00000000000E+00 0. -1.
         -2    1    5    5    0  503 -0.27195536291E+03 -0.45466608746E+02  0.17395468019E+03  0.32601712023E+03  0.00000000000E+00 0.  1.
         -3    1    6    6    0  502  0.11686860600E+03  0.18637188597E+02 -0.38173584680E+02  0.12434966198E+03  0.00000000000E+00 0.  1.
<mgrwt>
<rscale>  0 0.13884990E+04</rscale>
<asrwt>0</asrwt>
<pdfrwt beam="1">  1        1 0.12971135E+00 0.13884990E+04</pdfrwt>
<pdfrwt beam="2">  1       -1 0.87948104E-01 0.13884990E+04</pdfrwt>
<totfact> 0.25185425E+01</totfact>
</mgrwt>
</event>
<event>
12    1  0.1636426E-007  0.2139428E+04  0.7818608E-02  0.8544071E-01
         -2   -1    0    0    0  501 -0.00000000000E+00  0.00000000000E+00  0.66201195548E+03  0.66201195548E+03  0.00000000000E+00 0.  1.
          2   -1    0    0  501    0  0.00000000000E+00 -0.00000000000E+00 -0.17284998360E+04  0.17284998360E+04  0.00000000000E+00 0. -1.
         23    2    1    2    0    0 -0.51098069688E+03 -0.70426226491E+03 -0.56165202273E+03  0.10396431928E+04  0.91205061985E+02 0.  0.
        254    2    1    2    0    0  0.51098069688E+03  0.70426226491E+03 -0.50483585784E+03  0.13508685987E+04  0.90160973669E+03 0.  0.
        -24    2    4    4    0    0 -0.17509503071E+03  0.10248203847E+01 -0.27876536413E+03  0.33952449928E+03  0.83110994057E+02 0.  0.
         24    2    4    4    0    0  0.68607572759E+03  0.70323744453E+03 -0.22607049371E+03  0.10113440994E+04  0.80412760024E+02 0.  0.
         13    1    3    3    0    0 -0.77724796046E+01 -0.27682591597E+02 -0.47592850476E+01  0.29144263774E+02  0.00000000000E+00 0. -1.
        -13    1    3    3    0    0 -0.50320821728E+03 -0.67657967331E+03 -0.55689273768E+03  0.10104989290E+04  0.00000000000E+00 0.  1.
          2    1    6    6  502    0  0.66602234839E+03  0.66640421604E+03 -0.22799478949E+03  0.96936163105E+03  0.00000000000E+00 0. -1.
          3    1    5    5  503    0 -0.16022248929E+03  0.10092946108E+02 -0.27923941427E+03  0.32209899739E+03  0.00000000000E+00 0. -1.
         -4    1    5    5    0  503 -0.14872541427E+02 -0.90681257231E+01  0.47405014094E+00  0.17425501892E+02  0.00000000000E+00 0.  1.
         -1    1    6    6    0  502  0.20053379201E+02  0.36833228484E+02  0.19242957870E+01  0.41982468391E+02  0.00000000000E+00 0.  1.
<mgrwt>
<rscale>  0 0.21394275E+04</rscale>
<asrwt>0</asrwt>
<pdfrwt beam="1">  1        2 0.26592305E+00 0.21394275E+04</pdfrwt>
<pdfrwt beam="2">  1       -2 0.10184799E+00 0.21394275E+04</pdfrwt>
<totfact> 0.68683804E+00</totfact>
</mgrwt>
</event>
<event>
12    1  0.1556559E-007  0.1485023E+04  0.7818608E-02  0.8894474E-01
          1   -1    0    0  501    0  0.00000000000E+00  0.00000000000E+00  0.25001367255E+03  0.25001367255E+03  0.00000000000E+00 0. -1.
         -1   -1    0    0    0  501 -0.00000000000E+00 -0.00000000000E+00 -0.22051722703E+04  0.22051722703E+04  0.00000000000E+00 0.  1.
         23    2    1    2    0    0 -0.32343844883E+03  0.18036684306E+03 -0.15758534386E+03  0.41326156054E+03  0.93847475002E+02 0.  0.
        254    2    1    2    0    0  0.32343844883E+03 -0.18036684306E+03 -0.17975732539E+04  0.20419243823E+04  0.89500891153E+03 0.  0.
        -24    2    4    4    0    0  0.57618344071E+03 -0.32560036135E+03 -0.12505931829E+04  0.14172866344E+04  0.81945971407E+02 0.  0.
         24    2    4    4    0    0 -0.25274499188E+03  0.14523351829E+03 -0.54698007095E+03  0.62463774789E+03  0.77539101862E+02 0.  0.
         13    1    3    3    0    0 -0.10173518318E+03  0.10806360390E+03 -0.70812358900E+02  0.16444506729E+03  0.00000000000E+00 0.  1.
        -13    1    3    3    0    0 -0.22170326565E+03  0.72303239164E+02 -0.86772984959E+02  0.24881649325E+03  0.00000000000E+00 0. -1.
          2    1    6    6  502    0 -0.60353121060E+02  0.68166564124E+02 -0.21205748414E+03  0.23077598720E+03  0.00000000000E+00 0. -1.
          3    1    5    5  503    0  0.62465047959E+01 -0.18140291205E+02 -0.31937709456E+02  0.37257298244E+02  0.00000000000E+00 0. -1.
         -4    1    5    5    0  503  0.56993693592E+03 -0.30746007014E+03 -0.12186554734E+04  0.13800293361E+04  0.00000000000E+00 0.  1.
         -1    1    6    6    0  502 -0.19239187082E+03  0.77066954162E+02 -0.33492258681E+03  0.39386176069E+03  0.00000000000E+00 0.  1.
<mgrwt>
<rscale>  0 0.14850229E+04</rscale>
<asrwt>0</asrwt>
<pdfrwt beam="1">  1        1 0.38463643E-01 0.14850229E+04</pdfrwt>
<pdfrwt beam="2">  1       -1 0.33925726E+00 0.14850229E+04</pdfrwt>
<totfact> 0.19802257E+00</totfact>
</mgrwt>
</event>
<event>
12    1  0.1556559E-007  0.1013058E+04  0.7818608E-02  0.9294337E-01
          2   -1    0    0  501    0  0.00000000000E+00  0.00000000000E+00  0.14718957604E+04  0.14718957604E+04  0.00000000000E+00 0.  1.
         -2   -1    0    0    0  501 -0.00000000000E+00 -0.00000000000E+00 -0.17431387042E+03  0.17431387042E+03  0.00000000000E+00 0. -1.
         23    2    1    2    0    0 -0.84292889288E+02 -0.59669745592E+02  0.77629312826E+02  0.15759994756E+03  0.90253329793E+02 0.  0.
        254    2    1    2    0    0  0.84292889288E+02  0.59669745592E+02  0.12199525771E+04  0.14886096832E+04  0.84676367946E+03 0.  0.
        -24    2    4    4    0    0  0.45542398867E+03  0.27973236101E+02  0.56171243033E+03  0.72811517881E+03  0.80233084343E+02 0.  0.
         24    2    4    4    0    0 -0.37113109938E+03  0.31696509491E+02  0.65824014677E+03  0.76049450441E+03  0.79553999087E+02 0.  0.
         13    1    3    3    0    0 -0.95189066201E+02 -0.72346636796E+02  0.73619797871E+02  0.14040964646E+03  0.00000000000E+00 0. -1.
        -13    1    3    3    0    0  0.10896176913E+02  0.12676891204E+02  0.40095149545E+01  0.17190301105E+02  0.00000000000E+00 0.  1.
          4    1    6    6  502    0 -0.11230487145E+03 -0.26955103792E+02  0.19941490507E+03  0.23044579869E+03  0.00000000000E+00 0. -1.
          3    1    5    5  503    0  0.26130158170E+02  0.95341740075E+01  0.11749145978E+02  0.30194835174E+02  0.00000000000E+00 0. -1.
         -4    1    5    5    0  503  0.42929383050E+03  0.18439062094E+02  0.54996328435E+03  0.69792034363E+03  0.00000000000E+00 0.  1.
         -3    1    6    6    0  502 -0.25882622793E+03  0.58651613283E+02  0.45882524170E+03  0.53004870572E+03  0.00000000000E+00 0.  1.
<mgrwt>
<rscale>  0 0.10130584E+04</rscale>
<asrwt>0</asrwt>
<pdfrwt beam="1">  1        2 0.22644549E+00 0.10130584E+04</pdfrwt>
<pdfrwt beam="2">  1       -2 0.26817519E-01 0.10130584E+04</pdfrwt>
<totfact> 0.16565020E+02</totfact>
</mgrwt>
</event>
<event>
12    1  0.1556559E-007  0.1534524E+04  0.7818608E-02  0.8861814E-01
         -2   -1    0    0    0  501 -0.00000000000E+00  0.00000000000E+00  0.26833610443E+03  0.26833610443E+03  0.00000000000E+00 0.  1.
          2   -1    0    0  501    0  0.00000000000E+00 -0.00000000000E+00 -0.21938577764E+04  0.21938577764E+04  0.00000000000E+00 0. -1.
         23    2    1    2    0    0 -0.39613467224E+03  0.16091210155E+03 -0.10374611057E+04  0.11258336619E+04  0.91435799369E+02 0.  0.
        254    2    1    2    0    0  0.39613467224E+03 -0.16091210155E+03 -0.88806056629E+03  0.13363602190E+04  0.90243652547E+03 0.  0.
        -24    2    4    4    0    0  0.34663016580E+02 -0.29192489435E+03  0.59985107707E+02  0.31028210653E+03  0.79089214362E+02 0.  0.
         24    2    4    4    0    0  0.36147165566E+03  0.13101279280E+03 -0.94804567400E+03  0.10260781125E+04  0.78864333769E+02 0.  0.
         13    1    3    3    0    0 -0.32999963043E+03  0.94934533257E+02 -0.83559289800E+03  0.90339792610E+03  0.00000000000E+00 0. -1.
        -13    1    3    3    0    0 -0.66135041808E+02  0.65977568296E+02 -0.20186820771E+03  0.22243573579E+03  0.00000000000E+00 0.  1.
          4    1    6    6  502    0  0.17305451134E+03  0.55364789035E+02 -0.34742385890E+03  0.39206690946E+03  0.00000000000E+00 0. -1.
          3    1    5    5  503    0  0.59338705273E+00 -0.24176367234E+03  0.62083486759E+02  0.24960846279E+03  0.00000000000E+00 0. -1.
         -4    1    5    5    0  503  0.34069629528E+02 -0.50161222013E+02 -0.20983790523E+01  0.60673643739E+02  0.00000000000E+00 0.  1.
         -3    1    6    6    0  502  0.18841714432E+03  0.75648003760E+02 -0.60062181510E+03  0.63401120299E+03  0.00000000000E+00 0.  1.
<mgrwt>
<rscale>  0 0.15345244E+04</rscale>
<asrwt>0</asrwt>
<pdfrwt beam="1">  1        2 0.33751657E+00 0.15345244E+04</pdfrwt>
<pdfrwt beam="2">  1       -2 0.41282479E-01 0.15345244E+04</pdfrwt>
<totfact> 0.27907789E+01</totfact>
</mgrwt>
</event>
<event>
12    1  0.1556559E-007  0.1857654E+04  0.7818608E-02  0.8676226E-01
          1   -1    0    0  501    0  0.00000000000E+00  0.00000000000E+00  0.20273134039E+04  0.20273134039E+04  0.00000000000E+00 0. -1.
         -1   -1    0    0    0  501 -0.00000000000E+00 -0.00000000000E+00 -0.42554830421E+03  0.42554830421E+03  0.00000000000E+00 0.  1.
         23    2    1    2    0    0  0.33847532611E+03  0.16910848001E+03 -0.16902595988E+03  0.42424607742E+03  0.90839059310E+02 0.  0.
        254    2    1    2    0    0 -0.33847532611E+03 -0.16910848001E+03  0.17707910596E+04  0.20286156307E+04  0.91455845962E+03 0.  0.
        -24    2    4    4    0    0 -0.20366113765E+03 -0.33999464735E+03  0.17498069737E+04  0.17958966999E+04  0.79663620046E+02 0.  0.
         24    2    4    4    0    0 -0.13481418846E+03  0.17088616735E+03  0.20984085908E+02  0.23271893081E+03  0.79629274107E+02 0.  0.
         11    1    3    3    0    0  0.12602881980E+02  0.13260042096E+01  0.10177903081E+02  0.16253634440E+02  0.00000000000E+00 0. -1.
        -11    1    3    3    0    0  0.32587244413E+03  0.16778247580E+03 -0.17920386296E+03  0.40799244298E+03  0.00000000000E+00 0.  1.
          4    1    6    6  502    0 -0.14435966571E+02  0.78880332512E+02  0.45791952653E+01  0.80321062103E+02  0.00000000000E+00 0. -1.
          3    1    5    5  503    0 -0.61170669975E+02 -0.55312709662E+02  0.46355170251E+03  0.47083067828E+03  0.00000000000E+00 0. -1.
         -2    1    5    5    0  503 -0.14249046767E+03 -0.28468193769E+03  0.12862552711E+04  0.13250660216E+04  0.00000000000E+00 0.  1.
         -3    1    6    6    0  502 -0.12037822189E+03  0.92005834836E+02  0.16404890642E+02  0.15239786871E+03  0.00000000000E+00 0.  1.
<mgrwt>
<rscale>  0 0.18576542E+04</rscale>
<asrwt>0</asrwt>
<pdfrwt beam="1">  1        1 0.31189436E+00 0.18576542E+04</pdfrwt>
<pdfrwt beam="2">  1       -1 0.65468971E-01 0.18576542E+04</pdfrwt>
<totfact> 0.63416203E+00</totfact>
</mgrwt>
</event>
<event>
12    1  0.1556559E-007  0.2178937E+04  0.7818608E-02  0.8527247E-01
          2   -1    0    0  501    0  0.00000000000E+00  0.00000000000E+00  0.33540249987E+04  0.33540249987E+04  0.00000000000E+00 0. -1.
         -2   -1    0    0    0  501 -0.00000000000E+00 -0.00000000000E+00 -0.35388558430E+03  0.35388558430E+03  0.00000000000E+00 0.  1.
         23    2    1    2    0    0  0.34742135205E+03  0.10831565570E+02  0.26611619014E+04  0.26853070025E+04  0.90951160827E+02 0.  0.
        254    2    1    2    0    0 -0.34742135205E+03 -0.10831565570E+02  0.33897751295E+03  0.10226035804E+04  0.89999633873E+03 0.  0.
        -24    2    4    4    0    0 -0.19598751001E+03 -0.19500527958E+03  0.59654059628E+03  0.66218916515E+03  0.78712415032E+02 0.  0.
         24    2    4    4    0    0 -0.15143384204E+03  0.18417371401E+03 -0.25756308333E+03  0.36041441527E+03  0.81900203867E+02 0.  0.
         11    1    3    3    0    0  0.31375061229E+03  0.33580623302E+02  0.22262508035E+04  0.22485016667E+04  0.00000000000E+00 0. -1.
        -11    1    3    3    0    0  0.33670739753E+02 -0.22749057731E+02  0.43491109791E+03  0.43680533586E+03  0.00000000000E+00 0.  1.
          2    1    6    6  502    0 -0.98720221013E+02  0.57431699176E+02 -0.10432611296E+03  0.15468684479E+03  0.00000000000E+00 0. -1.
          3    1    5    5  503    0  0.25566223270E+01 -0.77890909633E+01  0.56750663012E+02  0.57339724521E+02  0.00000000000E+00 0. -1.
         -4    1    5    5    0  503 -0.19854413233E+03 -0.18721618862E+03  0.53978993327E+03  0.60484944063E+03  0.00000000000E+00 0.  1.
         -1    1    6    6    0  502 -0.52713621029E+02  0.12674201484E+03 -0.15323697038E+03  0.20572757048E+03  0.00000000000E+00 0.  1.
<mgrwt>
<rscale>  0 0.21789365E+04</rscale>
<asrwt>0</asrwt>
<pdfrwt beam="1">  1        2 0.51600382E+00 0.21789365E+04</pdfrwt>
<pdfrwt beam="2">  1       -2 0.54443938E-01 0.21789365E+04</pdfrwt>
<totfact> 0.29874429E+00</totfact>
</mgrwt>
</event>
<event>
12    1  0.1556559E-007  0.1485564E+04  0.7818608E-02  0.8894110E-01
         -2   -1    0    0    0  501 -0.00000000000E+00  0.00000000000E+00  0.39034251304E+03  0.39034251304E+03  0.00000000000E+00 0. -1.
          2   -1    0    0  501    0  0.00000000000E+00 -0.00000000000E+00 -0.14134387548E+04  0.14134387548E+04  0.00000000000E+00 0.  1.
         23    2    1    2    0    0  0.23779015595E+03  0.28699186640E+03 -0.18252325672E+03  0.42492025780E+03  0.91290725670E+02 0.  0.
        254    2    1    2    0    0 -0.23779015595E+03 -0.28699186640E+03 -0.84057298503E+03  0.13788610100E+04  0.10275145995E+04 0.  0.
        -24    2    4    4    0    0 -0.23340664555E+03 -0.28067535808E+03  0.13696716502E+03  0.39805720893E+03  0.80201112615E+02 0.  0.
         24    2    4    4    0    0 -0.43835103951E+01 -0.63165083238E+01 -0.97754015005E+03  0.98080380110E+03  0.79575359669E+02 0.  0.
         11    1    3    3    0    0  0.19052102819E+03  0.21528928185E+03 -0.96202575833E+02  0.30315453594E+03  0.00000000000E+00 0.  1.
        -11    1    3    3    0    0  0.47269127760E+02  0.71702584546E+02 -0.86320680890E+02  0.12176572186E+03  0.00000000000E+00 0. -1.
          4    1    6    6  502    0  0.12444603495E+01  0.31553480877E+02 -0.21537578250E+03  0.21767842917E+03  0.00000000000E+00 0. -1.
          1    1    5    5  503    0 -0.72326168978E+02 -0.14903977394E+03  0.57107051858E+02  0.17522883412E+03  0.00000000000E+00 0. -1.
         -2    1    5    5    0  503 -0.16108047658E+03 -0.13163558414E+03  0.79860113160E+02  0.22282837481E+03  0.00000000000E+00 0.  1.
         -3    1    6    6    0  502 -0.56279707446E+01 -0.37869989201E+02 -0.76216436754E+03  0.76312537194E+03  0.00000000000E+00 0.  1.
<mgrwt>
<rscale>  0 0.14855642E+04</rscale>
<asrwt>0</asrwt>
<pdfrwt beam="1">  1        2 0.21745211E+00 0.14855642E+04</pdfrwt>
<pdfrwt beam="2">  1       -2 0.60052695E-01 0.14855642E+04</pdfrwt>
<totfact> 0.35543546E+01</totfact>
</mgrwt>
</event>
<event>
12    1  0.1982757E-007  0.1995302E+04  0.7818608E-02  0.8608821E-01
          2   -1    0    0  501    0  0.00000000000E+00  0.00000000000E+00  0.11828420509E+04  0.11828420509E+04  0.00000000000E+00 0. -1.
         -2   -1    0    0    0  501 -0.00000000000E+00 -0.00000000000E+00 -0.84145388853E+03  0.84145388853E+03  0.00000000000E+00 0.  1.
         23    2    1    2    0    0 -0.14846370740E+03  0.21799955769E+03 -0.62414026482E+03  0.68422596894E+03  0.95125321696E+02 0.  0.
        254    2    1    2    0    0  0.14846370740E+03 -0.21799955769E+03  0.96552842719E+03  0.13400699705E+04  0.89105392795E+03 0.  0.
        -24    2    4    4    0    0 -0.27139731883E+03  0.73379694066E+02  0.61433204995E+02  0.29841355009E+03  0.78965334395E+02 0.  0.
         24    2    4    4    0    0  0.41986102623E+03 -0.29137925176E+03  0.90409522219E+03  0.10416564204E+04  0.80466003006E+02 0.  0.
         13    1    3    3    0    0 -0.15304825704E+02  0.21372382822E+02 -0.14620938668E+02  0.30079698883E+02  0.00000000000E+00 0. -1.
        -13    1    3    3    0    0 -0.13315888170E+03  0.19662717487E+03 -0.60951932615E+03  0.65414627006E+03  0.00000000000E+00 0.  1.
          2    1    6    6  502    0  0.40317332630E+03 -0.27226786525E+03  0.81637099473E+03  0.95033684687E+03  0.00000000000E+00 0. -1.
          3    1    5    5  503    0 -0.26006856769E+03  0.69032278152E+02  0.37626267483E+02  0.27169256768E+03  0.00000000000E+00 0. -1.
         -4    1    5    5    0  503 -0.11328751134E+02  0.43474159138E+01  0.23806937512E+02  0.26720982412E+02  0.00000000000E+00 0.  1.
         -1    1    6    6    0  502  0.16687699935E+02 -0.19111386511E+02  0.87724227458E+02  0.91319573513E+02  0.00000000000E+00 0.  1.
<mgrwt>
<rscale>  0 0.19953015E+04</rscale>
<asrwt>0</asrwt>
<pdfrwt beam="1">  1        2 0.18197570E+00 0.19953015E+04</pdfrwt>
<pdfrwt beam="2">  1       -2 0.12945444E+00 0.19953015E+04</pdfrwt>
<totfact> 0.79136894E+00</totfact>
</mgrwt>
</event>
<event>
12    1  0.1556559E-007  0.1665906E+04  0.7818608E-02  0.8781052E-01
         -1   -1    0    0    0  501 -0.00000000000E+00  0.00000000000E+00  0.93080119738E+03  0.93080119738E+03  0.00000000000E+00 0.  1.
          1   -1    0    0  501    0  0.00000000000E+00 -0.00000000000E+00 -0.74539063668E+03  0.74539063668E+03  0.00000000000E+00 0. -1.
         23    2    1    2    0    0 -0.19554015475E+03 -0.19425684745E+03 -0.45228610364E+03  0.53737848257E+03  0.90781270589E+02 0.  0.
        254    2    1    2    0    0  0.19554015475E+03  0.19425684745E+03  0.63769666434E+03  0.11388133515E+04  0.90236751876E+03 0.  0.
        -24    2    4    4    0    0  0.20601253089E+03  0.27462319573E+03 -0.12052537378E+03  0.37224898243E+03  0.78637628892E+02 0.  0.
         24    2    4    4    0    0 -0.10472376147E+02 -0.80366348286E+02  0.75822203811E+03  0.76656436905E+03  0.78433744159E+02 0.  0.
         13    1    3    3    0    0 -0.20289005195E+03 -0.17315574623E+03 -0.42855135946E+03  0.50478069825E+03  0.00000000000E+00 0. -1.
        -13    1    3    3    0    0  0.73498972035E+01 -0.21101101215E+02 -0.23734744179E+02  0.32597784321E+02  0.00000000000E+00 0.  1.
          4    1    6    6  502    0  0.16212528396E+02 -0.35357313358E+01  0.34463264474E+02  0.38250020539E+02  0.00000000000E+00 0. -1.
          1    1    5    5  503    0  0.53765733621E+01  0.38531113240E+02  0.22753506430E+01  0.38970905162E+02  0.00000000000E+00 0. -1.
         -2    1    5    5    0  503  0.20063595753E+03  0.23609208249E+03 -0.12280072442E+03  0.33327807727E+03  0.00000000000E+00 0.  1.
         -3    1    6    6    0  502 -0.26684904543E+02 -0.76830616950E+02  0.72375877364E+03  0.72831434851E+03  0.00000000000E+00 0.  1.
<mgrwt>
<rscale>  0 0.16659058E+04</rscale>
<asrwt>0</asrwt>
<pdfrwt beam="1">  1        1 0.11467548E+00 0.16659058E+04</pdfrwt>
<pdfrwt beam="2">  1       -1 0.14320018E+00 0.16659058E+04</pdfrwt>
<totfact> 0.93219804E+00</totfact>
</mgrwt>
</event>
<event>
12    1  0.1556559E-007  0.2006132E+04  0.7818608E-02  0.8603759E-01
          2   -1    0    0  501    0  0.00000000000E+00  0.00000000000E+00  0.15899560315E+04  0.15899560315E+04  0.00000000000E+00 0. -1.
         -2   -1    0    0    0  501 -0.00000000000E+00 -0.00000000000E+00 -0.63281092217E+03  0.63281092217E+03  0.00000000000E+00 0.  1.
         23    2    1    2    0    0 -0.57127869536E+03  0.52693133917E+03  0.57614877424E+03  0.97171547827E+03  0.90926215572E+02 0.  0.
        254    2    1    2    0    0  0.57127869536E+03 -0.52693133917E+03  0.38099633506E+03  0.12510514754E+04  0.90330260861E+03 0.  0.
        -24    2    4    4    0    0  0.45704240193E+03  0.14470077947E+03  0.27073582156E+03  0.55635503147E+03  0.80043508293E+02 0.  0.
         24    2    4    4    0    0  0.11423629343E+03 -0.67163211865E+03  0.11026051349E+03  0.69469644390E+03  0.79411175528E+02 0.  0.
         11    1    3    3    0    0 -0.40270229414E+03  0.39188172078E+03  0.46174278857E+03  0.72728730470E+03  0.00000000000E+00 0. -1.
        -11    1    3    3    0    0 -0.16857640122E+03  0.13504961839E+03  0.11440598567E+03  0.24442817357E+03  0.00000000000E+00 0.  1.
          2    1    6    6  502    0 -0.78275342687E+01 -0.13260867399E+02 -0.27301509866E+01  0.15638881715E+02  0.00000000000E+00 0. -1.
          1    1    5    5  503    0  0.11068343588E+03  0.60450869317E+02  0.42477975790E+02  0.13307707919E+03  0.00000000000E+00 0. -1.
         -2    1    5    5    0  503  0.34635896605E+03  0.84249910156E+02  0.22825784577E+03  0.42327795227E+03  0.00000000000E+00 0.  1.
         -1    1    6    6    0  502  0.12206382770E+03 -0.65837125125E+03  0.11299066448E+03  0.67905756219E+03  0.00000000000E+00 0.  1.
<mgrwt>
<rscale>  0 0.20061321E+04</rscale>
<asrwt>0</asrwt>
<pdfrwt beam="1">  1        2 0.24460862E+00 0.20061321E+04</pdfrwt>
<pdfrwt beam="2">  1       -2 0.97355527E-01 0.20061321E+04</pdfrwt>
<totfact> 0.92320589E+00</totfact>
</mgrwt>
</event>
<event>
12    1  0.1556559E-007  0.1787520E+04  0.7818608E-02  0.8712965E-01
         -2   -1    0    0    0  501 -0.00000000000E+00  0.00000000000E+00  0.18500300097E+03  0.18500300097E+03  0.00000000000E+00 0.  1.
          2   -1    0    0  501    0  0.00000000000E+00 -0.00000000000E+00 -0.43178042204E+04  0.43178042204E+04  0.00000000000E+00 0. -1.
         23    2    1    2    0    0 -0.27123827248E+03  0.27936316148E+01 -0.23051139961E+02  0.28678656331E+03  0.90206280298E+02 0.  0.
        254    2    1    2    0    0  0.27123827248E+03 -0.27936316148E+01 -0.41097500795E+04  0.42160206581E+04  0.90067001100E+03 0.  0.
        -24    2    4    4    0    0  0.55749119288E+03  0.50514297127E+02 -0.18012065001E+04  0.18878125186E+04  0.78378091057E+02 0.  0.
         24    2    4    4    0    0 -0.28625292039E+03 -0.53307928742E+02 -0.23085435794E+04  0.23282081395E+04  0.79982579172E+02 0.  0.
         13    1    3    3    0    0 -0.44714514187E+02  0.14424915061E+02  0.27443977697E+02  0.54411743818E+02  0.00000000000E+00 0. -1.
        -13    1    3    3    0    0 -0.22652375830E+03 -0.11631283447E+02 -0.50495117658E+02  0.23237481949E+03  0.00000000000E+00 0.  1.
          2    1    6    6  502    0 -0.20424483689E+03 -0.17847847952E+02 -0.13457616379E+04  0.13612894201E+04  0.00000000000E+00 0. -1.
          1    1    5    5  503    0  0.27482635155E+03 -0.13879555728E+02 -0.85525000673E+03  0.89842903981E+03  0.00000000000E+00 0. -1.
         -4    1    5    5    0  503  0.28266484132E+03  0.64393852855E+02 -0.94595649334E+03  0.98938347879E+03  0.00000000000E+00 0.  1.
         -1    1    6    6    0  502 -0.82008083504E+02 -0.35460080790E+02 -0.96278194150E+03  0.96691871942E+03  0.00000000000E+00 0.  1.
<mgrwt>
<rscale>  0 0.17875198E+04</rscale>
<asrwt>0</asrwt>
<pdfrwt beam="1">  1        2 0.66427747E+00 0.17875198E+04</pdfrwt>
<pdfrwt beam="2">  1       -2 0.28462004E-01 0.17875198E+04</pdfrwt>
<totfact> 0.19926262E+00</totfact>
</mgrwt>
</event>
<event>
12    1  0.1556559E-007  0.2030413E+04  0.7818608E-02  0.8592532E-01
          2   -1    0    0  501    0  0.00000000000E+00  0.00000000000E+00  0.36591533379E+04  0.36591533379E+04  0.00000000000E+00 0. -1.
         -2   -1    0    0    0  501 -0.00000000000E+00 -0.00000000000E+00 -0.28166198606E+03  0.28166198606E+03  0.00000000000E+00 0.  1.
         23    2    1    2    0    0  0.61653694059E+03 -0.51100037518E+03  0.10824993786E+04  0.13494419238E+04  0.89159510701E+02 0.  0.
        254    2    1    2    0    0 -0.61653694059E+03  0.51100037518E+03  0.22949919733E+04  0.25913734002E+04  0.89832553095E+03 0.  0.
        -24    2    4    4    0    0  0.19309960821E+01 -0.16314114377E+03  0.92081409548E+03  0.93864556170E+03  0.80858707182E+02 0.  0.
         24    2    4    4    0    0 -0.61846793668E+03  0.67414151895E+03  0.13741778778E+04  0.16527278385E+04  0.78581754974E+02 0.  0.
         13    1    3    3    0    0  0.14820970702E+02  0.20257160018E+01  0.18535901339E+02  0.23818991085E+02  0.00000000000E+00 0. -1.
        -13    1    3    3    0    0  0.60171596989E+03 -0.51302609118E+03  0.10639634773E+04  0.13256229327E+04  0.00000000000E+00 0.  1.
          4    1    6    6  502    0 -0.33551325726E+02  0.15246726230E+02  0.64105192209E+02  0.73943422877E+02  0.00000000000E+00 0. -1.
          1    1    5    5  503    0 -0.11241002165E+02 -0.15630820563E+02  0.29171256797E+03  0.29234723360E+03  0.00000000000E+00 0. -1.
         -2    1    5    5    0  503  0.13171998247E+02 -0.14751032321E+03  0.62910152751E+03  0.64629832810E+03  0.00000000000E+00 0.  1.
         -3    1    6    6    0  502 -0.58491661095E+03  0.65889479272E+03  0.13100726856E+04  0.15787844157E+04  0.00000000000E+00 0.  1.
<mgrwt>
<rscale>  0 0.20304132E+04</rscale>
<asrwt>0</asrwt>
<pdfrwt beam="1">  1        2 0.56294663E+00 0.20304132E+04</pdfrwt>
<pdfrwt beam="2">  1       -2 0.43332616E-01 0.20304132E+04</pdfrwt>
<totfact> 0.29466581E+00</totfact>
</mgrwt>
</event>
<event>
12    1  0.1556559E-007  0.1731395E+04  0.7818608E-02  0.8743658E-01
          2   -1    0    0  501    0  0.00000000000E+00  0.00000000000E+00  0.55167707954E+03  0.55167707954E+03  0.00000000000E+00 0. -1.
         -2   -1    0    0    0  501 -0.00000000000E+00 -0.00000000000E+00 -0.13584622768E+04  0.13584622768E+04  0.00000000000E+00 0.  1.
         23    2    1    2    0    0  0.50795611867E+03 -0.26116150494E+03 -0.58587503381E+03  0.82330317758E+03  0.91399216691E+02 0.  0.
        254    2    1    2    0    0 -0.50795611867E+03  0.26116150494E+03 -0.22091016344E+03  0.10868361788E+04  0.89787907259E+03 0.  0.
        -24    2    4    4    0    0 -0.31690050099E+03  0.57696180717E+03 -0.29837310183E+02  0.66373382209E+03  0.79633328738E+02 0.  0.
         24    2    4    4    0    0 -0.19105561768E+03 -0.31580030223E+03 -0.19107285325E+03  0.42310235667E+03  0.79212934751E+02 0.  0.
         11    1    3    3    0    0  0.30542636911E+03 -0.12437778375E+03 -0.38514989923E+03  0.50704590021E+03  0.00000000000E+00 0. -1.
        -11    1    3    3    0    0  0.20252974956E+03 -0.13678372119E+03 -0.20072513458E+03  0.31625727737E+03  0.00000000000E+00 0.  1.
          2    1    6    6  502    0 -0.16101510435E+02 -0.57560491961E+01  0.34193525382E+01  0.17437967554E+02  0.00000000000E+00 0. -1.
          3    1    5    5  503    0 -0.16639329122E+03  0.30939277126E+03  0.23737894689E+02  0.35209956251E+03  0.00000000000E+00 0. -1.
         -4    1    5    5    0  503 -0.15050720977E+03  0.26756903591E+03 -0.53575204872E+02  0.31163425958E+03  0.00000000000E+00 0.  1.
         -1    1    6    6    0  502 -0.17495410724E+03 -0.31004425303E+03 -0.19449220579E+03  0.40566438911E+03  0.00000000000E+00 0.  1.
<mgrwt>
<rscale>  0 0.17313954E+04</rscale>
<asrwt>0</asrwt>
<pdfrwt beam="1">  1        2 0.84873397E-01 0.17313954E+04</pdfrwt>
<pdfrwt beam="2">  1       -2 0.20899420E+00 0.17313954E+04</pdfrwt>
<totfact> 0.60467332E+00</totfact>
</mgrwt>
</event>
<event>
12    1  0.1556559E-007  0.1470835E+04  0.7818608E-02  0.8904083E-01
         -1   -1    0    0    0  501 -0.00000000000E+00  0.00000000000E+00  0.90733249453E+03  0.90733249453E+03  0.00000000000E+00 0.  1.
          1   -1    0    0  501    0  0.00000000000E+00 -0.00000000000E+00 -0.59607537672E+03  0.59607537672E+03  0.00000000000E+00 0. -1.
         23    2    1    2    0    0 -0.16382668060E+03 -0.32702644115E+03 -0.17676550868E+03  0.41642549662E+03  0.91535100883E+02 0.  0.
        254    2    1    2    0    0  0.16382668060E+03  0.32702644115E+03  0.48802262650E+03  0.10869823746E+04  0.89976614977E+03 0.  0.
        -24    2    4    4    0    0 -0.42244984607E+02  0.60675034568E+03  0.28551577570E+03  0.67673480551E+03  0.80747248372E+02 0.  0.
         24    2    4    4    0    0  0.20607166521E+03 -0.27972390453E+03  0.20250685080E+03  0.41024756911E+03  0.81135993059E+02 0.  0.
         11    1    3    3    0    0 -0.14118626732E+03 -0.18312876694E+03 -0.10283746015E+03  0.25307163131E+03  0.00000000000E+00 0. -1.
        -11    1    3    3    0    0 -0.22640413279E+02 -0.14389767420E+03 -0.73928048533E+02  0.16335386532E+03  0.00000000000E+00 0.  1.
          4    1    6    6  502    0  0.13576085792E+03 -0.18824531998E+03  0.89515237934E+02  0.24875749006E+03  0.00000000000E+00 0. -1.
          1    1    5    5  503    0  0.72702677327E+01  0.29045621115E+03  0.16851023134E+03  0.33587700941E+03  0.00000000000E+00 0. -1.
         -2    1    5    5    0  503 -0.49515252340E+02  0.31629413453E+03  0.11700554436E+03  0.34085779610E+03  0.00000000000E+00 0.  1.
         -3    1    6    6    0  502  0.70310807286E+02 -0.91478584547E+02  0.11299161287E+03  0.16149007904E+03  0.00000000000E+00 0.  1.
<mgrwt>
<rscale>  0 0.14708345E+04</rscale>
<asrwt>0</asrwt>
<pdfrwt beam="1">  1        1 0.91703903E-01 0.14708345E+04</pdfrwt>
<pdfrwt beam="2">  1       -1 0.13958962E+00 0.14708345E+04</pdfrwt>
<totfact> 0.14163074E+01</totfact>
</mgrwt>
</event>
<event>
12    1  0.1556559E-007  0.2154308E+04  0.7818608E-02  0.8537690E-01
         -1   -1    0    0    0  501 -0.00000000000E+00  0.00000000000E+00  0.80516241596E+03  0.80516241596E+03  0.00000000000E+00 0.  1.
          1   -1    0    0  501    0  0.00000000000E+00 -0.00000000000E+00 -0.14410270398E+04  0.14410270398E+04  0.00000000000E+00 0. -1.
         23    2    1    2    0    0  0.30090418843E+02  0.26111972508E+03  0.62182193678E+03  0.68123911449E+03  0.91297677507E+02 0.  0.
        254    2    1    2    0    0 -0.30090418843E+02 -0.26111972508E+03 -0.12576865606E+04  0.15649503413E+04  0.89342327135E+03 0.  0.
        -24    2    4    4    0    0  0.28551133017E+03 -0.20482074395E+03 -0.11683117082E+04  0.12226798153E+04  0.80780111081E+02 0.  0.
         24    2    4    4    0    0 -0.31560174901E+03 -0.56298981123E+02 -0.89374852436E+02  0.34227052602E+03  0.79920019288E+02 0.  0.
         13    1    3    3    0    0  0.55543333375E+01  0.18935613913E+03  0.52575625496E+03  0.55884366121E+03  0.00000000000E+00 0.  1.
        -13    1    3    3    0    0  0.24536085505E+02  0.71763585945E+02  0.96065681821E+02  0.12239545328E+03  0.00000000000E+00 0. -1.
          4    1    6    6  502    0 -0.39441463696E+02 -0.36140322553E+02 -0.15178715663E+02  0.55607062339E+02  0.00000000000E+00 0. -1.
          1    1    5    5  503    0  0.46121167775E+02 -0.73902521300E+02 -0.31349185553E+03  0.32537038626E+03  0.00000000000E+00 0. -1.
         -2    1    5    5    0  503  0.23939016239E+03 -0.13091822265E+03 -0.85481985266E+03  0.89730942900E+03  0.00000000000E+00 0.  1.
         -3    1    6    6    0  502 -0.27616028531E+03 -0.20158658569E+02 -0.74196136773E+02  0.28666346369E+03  0.00000000000E+00 0.  1.
<mgrwt>
<rscale>  0 0.21543081E+04</rscale>
<asrwt>0</asrwt>
<pdfrwt beam="1">  1        1 0.22169647E+00 0.21543081E+04</pdfrwt>
<pdfrwt beam="2">  1       -1 0.12387114E+00 0.21543081E+04</pdfrwt>
<totfact> 0.37675625E+00</totfact>
</mgrwt>
</event>
<event>
12    1  0.1556559E-007  0.2613592E+04  0.7818608E-02  0.8363599E-01
         -2   -1    0    0    0  501 -0.00000000000E+00  0.00000000000E+00  0.44739435305E+03  0.44739435305E+03  0.00000000000E+00 0.  1.
          2   -1    0    0  501    0  0.00000000000E+00 -0.00000000000E+00 -0.38170268803E+04  0.38170268803E+04  0.00000000000E+00 0. -1.
         23    2    1    2    0    0  0.73022595530E+03  0.10818981149E+03 -0.49502149531E+02  0.74551943256E+03  0.91726661392E+02 0.  0.
        254    2    1    2    0    0 -0.73022595530E+03 -0.10818981149E+03 -0.33201303777E+04  0.35189018007E+04  0.90247946094E+03 0.  0.
        -24    2    4    4    0    0 -0.78741969984E+03 -0.65480773328E+02 -0.33180225162E+04  0.34117521535E+04  0.80385470074E+02 0.  0.
         24    2    4    4    0    0  0.57193744541E+02 -0.42709038166E+02 -0.21078615071E+01  0.10714964724E+03  0.79883774742E+02 0.  0.
         13    1    3    3    0    0  0.69331817870E+03  0.82830895563E+02 -0.37980032770E+02  0.69928072837E+03  0.00000000000E+00 0.  1.
        -13    1    3    3    0    0  0.36907776599E+02  0.25358915931E+02 -0.11522116761E+02  0.46238704192E+02  0.00000000000E+00 0. -1.
          4    1    6    6  502    0  0.29481315534E+02  0.19816617842E+02 -0.13137861878E+02  0.37874129997E+02  0.00000000000E+00 0. -1.
          3    1    5    5  503    0 -0.21903967305E+03 -0.14630724800E+02 -0.77518863852E+03  0.80567354541E+03  0.00000000000E+00 0. -1.
         -4    1    5    5    0  503 -0.56838002679E+03 -0.50850048528E+02 -0.25428338777E+04  0.26060786081E+04  0.00000000000E+00 0.  1.
         -3    1    6    6    0  502  0.27712429007E+02 -0.62525656007E+02  0.11030000371E+02  0.69275517239E+02  0.00000000000E+00 0.  1.
<mgrwt>
<rscale>  0 0.26135924E+04</rscale>
<asrwt>0</asrwt>
<pdfrwt beam="1">  1        2 0.58723493E+00 0.26135924E+04</pdfrwt>
<pdfrwt beam="2">  1       -2 0.68829898E-01 0.26135924E+04</pdfrwt>
<totfact> 0.81350639E-01</totfact>
</mgrwt>
</event>
<event>
12    1  0.1556559E-007  0.1613122E+04  0.7818608E-02  0.8812527E-01
          3   -1    0    0  501    0  0.00000000000E+00  0.00000000000E+00  0.17770932741E+04  0.17770932741E+04  0.00000000000E+00 0. -1.
         -3   -1    0    0    0  501 -0.00000000000E+00 -0.00000000000E+00 -0.36606985668E+03  0.36606985668E+03  0.00000000000E+00 0.  1.
         23    2    1    2    0    0  0.39051543695E+03  0.10489136394E+03  0.99662000406E+03  0.10794408570E+04  0.91851111205E+02 0.  0.
        254    2    1    2    0    0 -0.39051543695E+03 -0.10489136394E+03  0.41440341341E+03  0.10637222738E+04  0.89233983548E+03 0.  0.
        -24    2    4    4    0    0 -0.24148851836E+01  0.34445963531E+03  0.27818802718E+03  0.44980931266E+03  0.79256338930E+02 0.  0.
         24    2    4    4    0    0 -0.38810055177E+03 -0.44935099926E+03  0.13621538623E+03  0.61391296113E+03  0.76132342536E+02 0.  0.
         13    1    3    3    0    0  0.28681056801E+02  0.97457046407E+01  0.16189463253E+03  0.16470414027E+03  0.00000000000E+00 0.  1.
        -13    1    3    3    0    0  0.36183438015E+03  0.95145659303E+02  0.83472537152E+03  0.91473671677E+03  0.00000000000E+00 0. -1.
          4    1    6    6  502    0 -0.27457486238E+03 -0.30462791171E+03  0.12867338008E+03  0.42982130983E+03  0.00000000000E+00 0. -1.
          3    1    5    5  503    0  0.12413049858E+02  0.16305346124E+02  0.19059790868E+01  0.20581080518E+02  0.00000000000E+00 0. -1.
         -4    1    5    5    0  503 -0.14827935042E+02  0.32815428919E+03  0.27628204809E+03  0.42922823215E+03  0.00000000000E+00 0.  1.
         -3    1    6    6    0  502 -0.11352568939E+03 -0.14472308755E+03  0.75420061441E+01  0.18409165130E+03  0.00000000000E+00 0.  1.
<mgrwt>
<rscale>  0 0.16131215E+04</rscale>
<asrwt>0</asrwt>
<pdfrwt beam="1">  1        3 0.27339896E+00 0.16131215E+04</pdfrwt>
<pdfrwt beam="2">  1       -3 0.56318440E-01 0.16131215E+04</pdfrwt>
<totfact> 0.42418596E-01</totfact>
</mgrwt>
</event>
<event>
12    1  0.1556559E-007  0.1833936E+04  0.7818608E-02  0.8688458E-01
         -1   -1    0    0    0  501 -0.00000000000E+00  0.00000000000E+00  0.86617826630E+03  0.86617826630E+03  0.00000000000E+00 0.  1.
          1   -1    0    0  501    0  0.00000000000E+00 -0.00000000000E+00 -0.97073537757E+03  0.97073537757E+03  0.00000000000E+00 0. -1.
         23    2    1    2    0    0  0.10860798641E+03 -0.67615119665E+03 -0.12389738552E+03  0.70192619290E+03  0.91507828605E+02 0.  0.
        254    2    1    2    0    0 -0.10860798641E+03  0.67615119665E+03  0.19340274243E+02  0.11349874510E+04  0.90490128313E+03 0.  0.
        -24    2    4    4    0    0  0.13645587473E+02  0.55859797089E+03  0.41326656335E+03  0.69951024206E+03  0.79419337828E+02 0.  0.
         24    2    4    4    0    0 -0.12225357389E+03  0.11755322576E+03 -0.39392628911E+03  0.43547720891E+03  0.75483647366E+02 0.  0.
         11    1    3    3    0    0  0.35639286456E+02 -0.89590601282E+02 -0.42107018567E+02  0.10521233573E+03  0.00000000000E+00 0. -1.
        -11    1    3    3    0    0  0.72968699957E+02 -0.58656059537E+03 -0.81790366949E+02  0.59671385717E+03  0.00000000000E+00 0.  1.
          4    1    6    6  502    0  0.33402366173E+01  0.15045514785E+02 -0.91012365134E+01  0.17898525132E+02  0.00000000000E+00 0. -1.
          1    1    5    5  503    0 -0.10298873195E+02  0.37851900477E+03  0.31747037035E+03  0.49413575038E+03  0.00000000000E+00 0. -1.
         -2    1    5    5    0  503  0.23944460668E+02  0.18007896612E+03  0.95796193003E+02  0.20537449168E+03  0.00000000000E+00 0.  1.
         -3    1    6    6    0  502 -0.12559381050E+03  0.10250771097E+03 -0.38482505259E+03  0.41757868378E+03  0.00000000000E+00 0.  1.
<mgrwt>
<rscale>  0 0.18339355E+04</rscale>
<asrwt>0</asrwt>
<pdfrwt beam="1">  1        1 0.14934390E+00 0.18339355E+04</pdfrwt>
<pdfrwt beam="2">  1       -1 0.13325820E+00 0.18339355E+04</pdfrwt>
<totfact> 0.71503312E+00</totfact>
</mgrwt>
</event>
<event>
12    1  0.1556559E-007  0.2109576E+04  0.7818608E-02  0.8557037E-01
          2   -1    0    0  501    0  0.00000000000E+00  0.00000000000E+00  0.14156281880E+04  0.14156281880E+04  0.00000000000E+00 0. -1.
         -2   -1    0    0    0  501 -0.00000000000E+00 -0.00000000000E+00 -0.78592523530E+03  0.78592523530E+03  0.00000000000E+00 0.  1.
         23    2    1    2    0    0 -0.23505059278E+03 -0.81159536657E+03  0.42866473954E+03  0.95178034673E+03  0.90534796011E+02 0.  0.
        254    2    1    2    0    0  0.23505059278E+03  0.81159536657E+03  0.20103821320E+03  0.12497730766E+04  0.89865486126E+03 0.  0.
        -24    2    4    4    0    0 -0.21747674965E+03  0.49867650239E+03 -0.17520487524E+03  0.57860111012E+03  0.90045020142E+02 0.  0.
         24    2    4    4    0    0  0.45252734242E+03  0.31291886418E+03  0.37624308843E+03  0.67117196650E+03  0.78827253018E+02 0.  0.
         11    1    3    3    0    0 -0.46182937033E+02 -0.67208165674E+02  0.48246610991E+02  0.94749863738E+02  0.00000000000E+00 0.  1.
        -11    1    3    3    0    0 -0.18886765574E+03 -0.74438720090E+03  0.38041812855E+03  0.85703048299E+03  0.00000000000E+00 0. -1.
          4    1    6    6  502    0  0.38276553327E+03  0.23873192261E+03  0.33214481511E+03  0.56019868131E+03  0.00000000000E+00 0. -1.
          1    1    5    5  503    0 -0.21650492992E+03  0.50265924475E+03 -0.17444503707E+03  0.57443169478E+03  0.00000000000E+00 0. -1.
         -2    1    5    5    0  503 -0.97181972340E+00 -0.39827423547E+01 -0.75983816147E+00  0.41694153392E+01  0.00000000000E+00 0.  1.
         -3    1    6    6    0  502  0.69761809149E+02  0.74186941573E+02  0.44098273321E+02  0.11097328519E+03  0.00000000000E+00 0.  1.
<mgrwt>
<rscale>  0 0.21095762E+04</rscale>
<asrwt>0</asrwt>
<pdfrwt beam="1">  1        2 0.21778895E+00 0.21095762E+04</pdfrwt>
<pdfrwt beam="2">  1       -2 0.12091157E+00 0.21095762E+04</pdfrwt>
<totfact> 0.68031645E+00</totfact>
</mgrwt>
</event>
<event>
12    1  0.1556559E-007  0.1625562E+04  0.7818608E-02  0.8804996E-01
          4   -1    0    0  501    0  0.00000000000E+00  0.00000000000E+00  0.13096164743E+04  0.13096164743E+04  0.00000000000E+00 0.  1.
         -4   -1    0    0    0  501 -0.00000000000E+00 -0.00000000000E+00 -0.50443242942E+03  0.50443242942E+03  0.00000000000E+00 0. -1.
         23    2    1    2    0    0 -0.36776662869E+03  0.18413128071E+03 -0.13607172441E+03  0.44302521133E+03  0.92731882145E+02 0.  0.
        254    2    1    2    0    0  0.36776662869E+03 -0.18413128071E+03  0.94125576928E+03  0.13710236924E+04  0.90806768479E+03 0.  0.
        -24    2    4    4    0    0  0.59458549860E+03 -0.24584684793E+03  0.36529742311E+03  0.74407181529E+03  0.78918129704E+02 0.  0.
         24    2    4    4    0    0 -0.22681886991E+03  0.61715567212E+02  0.57595834616E+03  0.62695187709E+03  0.78006593876E+02 0.  0.
         11    1    3    3    0    0 -0.13065621435E+02 -0.16371833970E+01  0.10288632025E+02  0.16710678678E+02  0.00000000000E+00 0.  1.
        -11    1    3    3    0    0 -0.35470100726E+03  0.18576846411E+03 -0.14636035644E+03  0.42631453265E+03  0.00000000000E+00 0. -1.
          2    1    6    6  502    0 -0.13464990366E+03  0.73965975569E+02  0.38632344487E+03  0.41574916254E+03  0.00000000000E+00 0. -1.
          3    1    5    5  503    0  0.46150049260E+03 -0.22489254139E+03  0.29522649260E+03  0.59221452344E+03  0.00000000000E+00 0. -1.
         -4    1    5    5    0  503  0.13308500600E+03 -0.20954306535E+02  0.70070930513E+02  0.15185729185E+03  0.00000000000E+00 0.  1.
         -1    1    6    6    0  502 -0.92168966244E+02 -0.12250408358E+02  0.18963490129E+03  0.21120271455E+03  0.00000000000E+00 0.  1.
<mgrwt>
<rscale>  0 0.16255621E+04</rscale>
<asrwt>0</asrwt>
<pdfrwt beam="1">  1        4 0.20147946E+00 0.16255621E+04</pdfrwt>
<pdfrwt beam="2">  1       -4 0.77604990E-01 0.16255621E+04</pdfrwt>
<totfact> 0.36617875E-01</totfact>
</mgrwt>
</event>
<event>
12    1  0.1556559E-007  0.3797361E+04  0.7818608E-02  0.8046721E-01
          1   -1    0    0  501    0  0.00000000000E+00  0.00000000000E+00  0.25231649708E+04  0.25231649708E+04  0.00000000000E+00 0. -1.
         -1   -1    0    0    0  501 -0.00000000000E+00 -0.00000000000E+00 -0.14287563491E+04  0.14287563491E+04  0.00000000000E+00 0.  1.
         23    2    1    2    0    0  0.12425831869E+04  0.78033263053E+03 -0.55391227285E+03  0.15708931750E+04  0.89188399455E+02 0.  0.
        254    2    1    2    0    0 -0.12425831869E+04 -0.78033263053E+03  0.16483208945E+04  0.23810281449E+04  0.89409242525E+03 0.  0.
        -24    2    4    4    0    0 -0.87803543210E+03 -0.20867253122E+03  0.47325793913E+03  0.10220438305E+04  0.78166931742E+02 0.  0.
         24    2    4    4    0    0 -0.36454775481E+03 -0.57166009931E+03  0.11750629554E+04  0.13589843144E+04  0.79844116849E+02 0.  0.
         11    1    3    3    0    0  0.11723580188E+04  0.75375268400E+03 -0.51148985107E+03  0.14846509019E+04  0.00000000000E+00 0.  1.
        -11    1    3    3    0    0  0.70225168099E+02  0.26579946533E+02 -0.42422421785E+02  0.86242273059E+02  0.00000000000E+00 0. -1.
          4    1    6    6  502    0 -0.21102356664E+02 -0.81375533286E+02  0.14746105308E+03  0.16974112362E+03  0.00000000000E+00 0. -1.
          1    1    5    5  503    0 -0.85296045068E+03 -0.21328320741E+03  0.46797097368E+03  0.99600606885E+03  0.00000000000E+00 0. -1.
         -2    1    5    5    0  503 -0.25074981423E+02  0.46106761869E+01  0.52869654429E+01  0.26037761652E+02  0.00000000000E+00 0.  1.
         -3    1    6    6    0  502 -0.34344539814E+03 -0.49028456603E+03  0.10276019023E+04  0.11892431908E+04  0.00000000000E+00 0.  1.
<mgrwt>
<rscale>  0 0.37973612E+04</rscale>
<asrwt>0</asrwt>
<pdfrwt beam="1">  1        1 0.38817923E+00 0.37973612E+04</pdfrwt>
<pdfrwt beam="2">  1       -1 0.21980867E+00 0.37973612E+04</pdfrwt>
<totfact> 0.11466649E-01</totfact>
</mgrwt>
</event>
<event>
12    1  0.1556559E-007  0.1350420E+04  0.7818608E-02  0.8990510E-01
          1   -1    0    0  501    0  0.00000000000E+00  0.00000000000E+00  0.15141848076E+04  0.15141848076E+04  0.00000000000E+00 0. -1.
         -1   -1    0    0    0  501 -0.00000000000E+00 -0.00000000000E+00 -0.30109187699E+03  0.30109187699E+03  0.00000000000E+00 0.  1.
         23    2    1    2    0    0 -0.22571783151E+03  0.15473705822E+03  0.99947768524E+01  0.28905059575E+03  0.92510835539E+02 0.  0.
        254    2    1    2    0    0  0.22571783151E+03 -0.15473705822E+03  0.12030981538E+04  0.15262260888E+04  0.89834782242E+03 0.  0.
        -24    2    4    4    0    0  0.21357668318E+03  0.92782750215E+02  0.12412303588E+04  0.12652524100E+04  0.77377121698E+02 0.  0.
         24    2    4    4    0    0  0.12141148328E+02 -0.24751980844E+03 -0.38132205072E+02  0.26097367886E+03  0.72385999631E+02 0.  0.
         13    1    3    3    0    0 -0.11522018743E+03  0.13094264084E+03  0.20084314146E+02  0.17557063096E+03  0.00000000000E+00 0.  1.
        -13    1    3    3    0    0 -0.11049764408E+03  0.23794417378E+02 -0.10089537293E+02  0.11347996479E+03  0.00000000000E+00 0. -1.
          4    1    6    6  502    0  0.70892126297E+01 -0.23429748917E+03 -0.16321118015E+02  0.23497223083E+03  0.00000000000E+00 0. -1.
          3    1    5    5  503    0  0.13667815783E+03  0.19177926448E+02  0.64604985653E+03  0.66062782927E+03  0.00000000000E+00 0. -1.
         -4    1    5    5    0  503  0.76898525345E+02  0.73604823767E+02  0.59518050230E+03  0.60462458071E+03  0.00000000000E+00 0.  1.
         -3    1    6    6    0  502  0.50519356980E+01 -0.13222319265E+02 -0.21811087057E+02  0.26001448030E+02  0.00000000000E+00 0.  1.
<mgrwt>
<rscale>  0 0.13504203E+04</rscale>
<asrwt>0</asrwt>
<pdfrwt beam="1">  1        1 0.23295150E+00 0.13504203E+04</pdfrwt>
<pdfrwt beam="2">  1       -1 0.46321828E-01 0.13504203E+04</pdfrwt>
<totfact> 0.29033181E+01</totfact>
</mgrwt>
</event>
<event>
12    1  0.1556559E-007  0.1788089E+04  0.7818608E-02  0.8712659E-01
         -2   -1    0    0    0  501 -0.00000000000E+00  0.00000000000E+00  0.13101618081E+04  0.13101618081E+04  0.00000000000E+00 0. -1.
          2   -1    0    0  501    0  0.00000000000E+00 -0.00000000000E+00 -0.61008907036E+03  0.61008907036E+03  0.00000000000E+00 0.  1.
         23    2    1    2    0    0  0.48946395771E+03  0.25113893026E+02  0.69652667894E+03  0.85636695879E+03  0.89494581479E+02 0.  0.
        254    2    1    2    0    0 -0.48946395771E+03 -0.25113893026E+02  0.35460588406E+01  0.10638839197E+04  0.94426201161E+03 0.  0.
        -24    2    4    4    0    0 -0.20001343079E+03 -0.44597147848E+03  0.16412886693E+03  0.52175412032E+03  0.79957144787E+02 0.  0.
         24    2    4    4    0    0 -0.28945052692E+03  0.42085758545E+03 -0.16058280809E+03  0.54212979939E+03  0.84942135379E+02 0.  0.
         11    1    3    3    0    0  0.47447981642E+03  0.30985149520E+02  0.63818462740E+03  0.79584596143E+03  0.00000000000E+00 0. -1.
        -11    1    3    3    0    0  0.14984141286E+02 -0.58712564945E+01  0.58342051544E+02  0.60520997358E+02  0.00000000000E+00 0.  1.
          4    1    6    6  502    0 -0.21691481978E+02  0.67689354983E+02 -0.44939585051E+02  0.84094800511E+02  0.00000000000E+00 0. -1.
          3    1    5    5  503    0 -0.56163669382E+02 -0.13696606050E+03  0.12066704883E+02  0.14852496374E+03  0.00000000000E+00 0. -1.
         -4    1    5    5    0  503 -0.14384976141E+03 -0.30900541798E+03  0.15206216205E+03  0.37322915658E+03  0.00000000000E+00 0.  1.
         -3    1    6    6    0  502 -0.26775904494E+03  0.35316823047E+03 -0.11564322304E+03  0.45803499888E+03  0.00000000000E+00 0.  1.
<mgrwt>
<rscale>  0 0.17880888E+04</rscale>
<asrwt>0</asrwt>
<pdfrwt beam="1">  1        2 0.93859857E-01 0.17880888E+04</pdfrwt>
<pdfrwt beam="2">  1       -2 0.20156335E+00 0.17880888E+04</pdfrwt>
<totfact> 0.59607856E+00</totfact>
</mgrwt>
</event>
<event>
12    1  0.1556559E-007  0.2092154E+04  0.7818608E-02  0.8564708E-01
          1   -1    0    0  501    0  0.00000000000E+00  0.00000000000E+00  0.71384479312E+03  0.71384479312E+03  0.00000000000E+00 0. -1.
         -1   -1    0    0    0  501 -0.00000000000E+00 -0.00000000000E+00 -0.15329339907E+04  0.15329339907E+04  0.00000000000E+00 0.  1.
         23    2    1    2    0    0  0.71933296285E+03  0.44439064532E+03 -0.31725961343E+03  0.90783601112E+03  0.92680114738E+02 0.  0.
        254    2    1    2    0    0 -0.71933296285E+03 -0.44439064532E+03 -0.50182958414E+03  0.13389427727E+04  0.90885194611E+03 0.  0.
        -24    2    4    4    0    0 -0.26124681040E+03  0.26904139471E+03 -0.94236687479E+02  0.39479730904E+03  0.79694378405E+02 0.  0.
         24    2    4    4    0    0 -0.45808615246E+03 -0.71343204003E+03 -0.40759289666E+03  0.94414546366E+03  0.80314932127E+02 0.  0.
         13    1    3    3    0    0  0.14401611242E+02 -0.41540551593E+01 -0.71568772753E+01  0.16609740304E+02  0.00000000000E+00 0.  1.
        -13    1    3    3    0    0  0.70493135161E+03  0.44854470048E+03 -0.31010273616E+03  0.89122627081E+03  0.00000000000E+00 0. -1.
          2    1    6    6  502    0 -0.28651018948E+03 -0.37280578705E+03 -0.21987361471E+03  0.51905360993E+03  0.00000000000E+00 0. -1.
          1    1    5    5  503    0 -0.61090550084E+02  0.11708086812E+03 -0.30585728203E+02  0.13555615721E+03  0.00000000000E+00 0. -1.
         -2    1    5    5    0  503 -0.20015626031E+03  0.15196052659E+03 -0.63650959276E+02  0.25924115183E+03  0.00000000000E+00 0.  1.
         -1    1    6    6    0  502 -0.17157596297E+03 -0.34062625298E+03 -0.18771928195E+03  0.42509185373E+03  0.00000000000E+00 0.  1.
<mgrwt>
<rscale>  0 0.20921539E+04</rscale>
<asrwt>0</asrwt>
<pdfrwt beam="1">  1        1 0.10982228E+00 0.20921539E+04</pdfrwt>
<pdfrwt beam="2">  1       -1 0.23583600E+00 0.20921539E+04</pdfrwt>
<totfact> 0.21012117E+00</totfact>
</mgrwt>
</event>
<event>
12    1  0.1556559E-007  0.1496733E+04  0.7818608E-02  0.8886629E-01
          2   -1    0    0  501    0  0.00000000000E+00  0.00000000000E+00  0.12402554809E+04  0.12402554809E+04  0.00000000000E+00 0.  1.
         -2   -1    0    0    0  501 -0.00000000000E+00 -0.00000000000E+00 -0.45156199666E+03  0.45156199666E+03  0.00000000000E+00 0. -1.
         23    2    1    2    0    0  0.30983769597E+03 -0.13298426967E+03 -0.11767643399E+03  0.36889109282E+03  0.92459079721E+02 0.  0.
        254    2    1    2    0    0 -0.30983769597E+03  0.13298426967E+03  0.90636991819E+03  0.13229263847E+04  0.90274225386E+03 0.  0.
        -24    2    4    4    0    0 -0.19350591084E+03 -0.37836602914E+03  0.37990342534E+03  0.57571467578E+03  0.80717939625E+02 0.  0.
         24    2    4    4    0    0 -0.11633178513E+03  0.51135029881E+03  0.52646649285E+03  0.74721170892E+03  0.78397433194E+02 0.  0.
         11    1    3    3    0    0  0.12587076288E+03 -0.20396485551E+02 -0.78321863449E+02  0.14964551401E+03  0.00000000000E+00 0.  1.
        -11    1    3    3    0    0  0.18396693309E+03 -0.11258778412E+03 -0.39354570538E+02  0.21924557881E+03  0.00000000000E+00 0. -1.
          2    1    6    6  502    0  0.11539279814E+02  0.55041019858E+02  0.60814433020E+02  0.82831540545E+02  0.00000000000E+00 0. -1.
          3    1    5    5  503    0 -0.62133776155E+02 -0.10508242279E+03  0.64001382337E+02  0.13783721798E+03  0.00000000000E+00 0. -1.
         -4    1    5    5    0  503 -0.13137213469E+03 -0.27328360635E+03  0.31590204301E+03  0.43787745780E+03  0.00000000000E+00 0.  1.
         -1    1    6    6    0  502 -0.12787106494E+03  0.45630927896E+03  0.46565205983E+03  0.66438016838E+03  0.00000000000E+00 0.  1.
<mgrwt>
<rscale>  0 0.14967328E+04</rscale>
<asrwt>0</asrwt>
<pdfrwt beam="1">  1        2 0.19080853E+00 0.14967328E+04</pdfrwt>
<pdfrwt beam="2">  1       -2 0.69471077E-01 0.14967328E+04</pdfrwt>
<totfact> 0.32740590E+01</totfact>
</mgrwt>
</event>
<event>
12    1  0.1556559E-007  0.2212929E+04  0.7818608E-02  0.8513066E-01
          1   -1    0    0  501    0  0.00000000000E+00  0.00000000000E+00  0.20919367895E+04  0.20919367895E+04  0.00000000000E+00 0. -1.
         -1   -1    0    0    0  501 -0.00000000000E+00 -0.00000000000E+00 -0.58522963194E+03  0.58522963194E+03  0.00000000000E+00 0.  1.
         23    2    1    2    0    0  0.11389097224E+03 -0.65649519247E+03  0.13970843871E+04  0.15524731866E+04  0.11987960258E+03 0.  0.
        254    2    1    2    0    0 -0.11389097224E+03  0.65649519247E+03  0.10962277053E+03  0.11246932349E+04  0.89942238663E+03 0.  0.
        -24    2    4    4    0    0  0.16279185289E+03  0.35209790981E+03 -0.33126854376E+03  0.51672072386E+03  0.82385271295E+02 0.  0.
         24    2    4    4    0    0 -0.27668282513E+03  0.30439728266E+03  0.44089131428E+03  0.60797251106E+03  0.77680961524E+02 0.  0.
         11    1    3    3    0    0  0.39130751674E+02 -0.25202026334E+03  0.67315172014E+03  0.71984628024E+03  0.00000000000E+00 0.  1.
        -11    1    3    3    0    0  0.74760220562E+02 -0.40447492913E+03  0.72393266694E+03  0.83262690632E+03  0.00000000000E+00 0. -1.
          4    1    6    6  502    0 -0.20132891890E+03  0.26351427390E+03  0.36869719117E+03  0.49589386456E+03  0.00000000000E+00 0. -1.
          3    1    5    5  503    0  0.71162013702E+01  0.22524919549E+02 -0.53405116659E+02  0.58396222549E+02  0.00000000000E+00 0. -1.
         -4    1    5    5    0  503  0.15567565152E+03  0.32957299026E+03 -0.27786342710E+03  0.45832450131E+03  0.00000000000E+00 0.  1.
         -3    1    6    6    0  502 -0.75353906221E+02  0.40883008760E+02  0.72194123114E+02  0.11207864650E+03  0.00000000000E+00 0.  1.
<mgrwt>
<rscale>  0 0.22129287E+04</rscale>
<asrwt>0</asrwt>
<pdfrwt beam="1">  1        1 0.32183642E+00 0.22129287E+04</pdfrwt>
<pdfrwt beam="2">  1       -1 0.90035329E-01 0.22129287E+04</pdfrwt>
<totfact> 0.28361178E+00</totfact>
</mgrwt>
</event>
<event>
12    1  0.1556559E-007  0.1241456E+04  0.7818608E-02  0.9077324E-01
          2   -1    0    0  501    0  0.00000000000E+00  0.00000000000E+00  0.12560061951E+04  0.12560061951E+04  0.00000000000E+00 0. -1.
         -2   -1    0    0    0  501 -0.00000000000E+00 -0.00000000000E+00 -0.30676879494E+03  0.30676879494E+03  0.00000000000E+00 0.  1.
         23    2    1    2    0    0 -0.12777928747E+03  0.91872191405E+02 -0.70341353317E+02  0.21401009757E+03  0.12682416968E+03 0.  0.
        254    2    1    2    0    0  0.12777928747E+03 -0.91872191405E+02  0.10195787535E+04  0.13487648925E+04  0.86882556061E+03 0.  0.
        -24    2    4    4    0    0 -0.22158142987E+03 -0.34952542695E+03  0.64101575398E+03  0.76726467230E+03  0.80793108374E+02 0.  0.
         24    2    4    4    0    0  0.34936071734E+03  0.25765323554E+03  0.37856299953E+03  0.58150022020E+03  0.79965372972E+02 0.  0.
         11    1    3    3    0    0 -0.31966632954E+02  0.87412696252E+02 -0.72641376552E+02  0.11806614534E+03  0.00000000000E+00 0.  1.
        -11    1    3    3    0    0 -0.95812654511E+02  0.44594951535E+01  0.23000232351E+01  0.95943952224E+02  0.00000000000E+00 0. -1.
          4    1    6    6  502    0  0.60074654860E+02  0.71100745591E+02  0.11508064463E+03  0.14801295534E+03  0.00000000000E+00 0. -1.
          1    1    5    5  503    0 -0.41940695689E+02 -0.48803641309E+02  0.15798941571E+03  0.17059153799E+03  0.00000000000E+00 0. -1.
         -2    1    5    5    0  503 -0.17964073418E+03 -0.30072178564E+03  0.48302633827E+03  0.59667313431E+03  0.00000000000E+00 0.  1.
         -3    1    6    6    0  502  0.28928606248E+03  0.18655248995E+03  0.26348235490E+03  0.43348726486E+03  0.00000000000E+00 0.  1.
<mgrwt>
<rscale>  0 0.12414564E+04</rscale>
<asrwt>0</asrwt>
<pdfrwt beam="1">  1        2 0.19323172E+00 0.12414564E+04</pdfrwt>
<pdfrwt beam="2">  1       -2 0.47195200E-01 0.12414564E+04</pdfrwt>
<totfact> 0.73436710E+01</totfact>
</mgrwt>
</event>
<event>
12    1  0.1556559E-007  0.1609679E+04  0.7818608E-02  0.8814624E-01
          2   -1    0    0  501    0  0.00000000000E+00  0.00000000000E+00  0.33688680451E+04  0.33688680451E+04  0.00000000000E+00 0. -1.
         -2   -1    0    0    0  501 -0.00000000000E+00 -0.00000000000E+00 -0.19228027250E+03  0.19228027250E+03  0.00000000000E+00 0.  1.
         23    2    1    2    0    0  0.35106388188E+03  0.37123286783E+03  0.15343957558E+04  0.16198107299E+04  0.91415391690E+02 0.  0.
        254    2    1    2    0    0 -0.35106388188E+03 -0.37123286783E+03  0.16421920168E+04  0.19413375877E+04  0.90052058177E+03 0.  0.
        -24    2    4    4    0    0  0.22714056175E+03  0.55307287110E+02  0.16646487189E+03  0.29807233139E+03  0.80528444459E+02 0.  0.
         24    2    4    4    0    0 -0.57820444363E+03 -0.42654015494E+03  0.14757271449E+04  0.16432652563E+04  0.79329780547E+02 0.  0.
         11    1    3    3    0    0  0.31534762528E+03  0.32987478947E+03  0.12617610555E+04  0.13417535030E+04  0.00000000000E+00 0.  1.
        -11    1    3    3    0    0  0.35716256600E+02  0.41358078363E+02  0.27263470029E+03  0.27805722690E+03  0.00000000000E+00 0. -1.
          2    1    6    6  502    0 -0.16328422984E+03 -0.11249490229E+03  0.49041754991E+03  0.52898602630E+03  0.00000000000E+00 0. -1.
          1    1    5    5  503    0  0.13514983972E+03  0.44587832623E+02  0.53601451024E+02  0.15207455259E+03  0.00000000000E+00 0. -1.
         -2    1    5    5    0  503  0.91990722032E+02  0.10719454487E+02  0.11286342087E+03  0.14599777880E+03  0.00000000000E+00 0.  1.
         -1    1    6    6    0  502 -0.41492021379E+03 -0.31404525266E+03  0.98530959496E+03  0.11142792300E+04  0.00000000000E+00 0.  1.
<mgrwt>
<rscale>  0 0.16096793E+04</rscale>
<asrwt>0</asrwt>
<pdfrwt beam="1">  1        2 0.51828735E+00 0.16096793E+04</pdfrwt>
<pdfrwt beam="2">  1       -2 0.29581583E-01 0.16096793E+04</pdfrwt>
<totfact> 0.10198997E+01</totfact>
</mgrwt>
</event>
<event>
12    1  0.2186078E-007  0.1869735E+04  0.7818608E-02  0.8670069E-01
          2   -1    0    0  501    0  0.00000000000E+00  0.00000000000E+00  0.11602414689E+04  0.11602414689E+04  0.00000000000E+00 0. -1.
         -2   -1    0    0    0  501 -0.00000000000E+00 -0.00000000000E+00 -0.75327202868E+03  0.75327202868E+03  0.00000000000E+00 0.  1.
         23    2    1    2    0    0 -0.53899181932E+03 -0.37274887254E+03  0.44366921628E+03  0.79653009195E+03  0.90354361379E+02 0.  0.
        254    2    1    2    0    0  0.53899181932E+03  0.37274887254E+03 -0.36699776047E+02  0.11169834056E+04  0.90379818081E+03 0.  0.
        -24    2    4    4    0    0  0.35506815278E+03 -0.26317781523E+03 -0.33631496499E+02  0.45036633022E+03  0.79767150422E+02 0.  0.
         24    2    4    4    0    0  0.18392366654E+03  0.63592668777E+03 -0.30682795471E+01  0.66661707543E+03  0.78346943640E+02 0.  0.
         11    1    3    3    0    0 -0.37848382873E+03 -0.27444289716E+03  0.26699759083E+03  0.53838334477E+03  0.00000000000E+00 0. -1.
        -11    1    3    3    0    0 -0.16050799059E+03 -0.98305975384E+02  0.17667162545E+03  0.25814674718E+03  0.00000000000E+00 0.  1.
          2    1    6    6  502    0  0.13775005839E+03  0.52053363362E+03 -0.30583302213E+02  0.53931964612E+03  0.00000000000E+00 0. -1.
          1    1    5    5  503    0  0.35483035195E+03 -0.24798751869E+03 -0.26857319821E+02  0.43373229499E+03  0.00000000000E+00 0. -1.
         -2    1    5    5    0  503  0.23780083174E+00 -0.15190296536E+02 -0.67741766785E+01  0.16634035222E+02  0.00000000000E+00 0.  1.
         -1    1    6    6    0  502  0.46173608150E+02  0.11539305415E+03  0.27515022666E+02  0.12729742931E+03  0.00000000000E+00 0.  1.
<mgrwt>
<rscale>  0 0.18697352E+04</rscale>
<asrwt>0</asrwt>
<pdfrwt beam="1">  1        2 0.17849869E+00 0.18697352E+04</pdfrwt>
<pdfrwt beam="2">  1       -2 0.11588800E+00 0.18697352E+04</pdfrwt>
<totfact> 0.10874618E+01</totfact>
</mgrwt>
</event>
<event>
12    1  0.1556559E-007  0.2177698E+04  0.7818608E-02  0.8527769E-01
         -2   -1    0    0    0  501 -0.00000000000E+00  0.00000000000E+00  0.58859337786E+03  0.58859337786E+03  0.00000000000E+00 0.  1.
          2   -1    0    0  501    0  0.00000000000E+00 -0.00000000000E+00 -0.20142797613E+04  0.20142797613E+04  0.00000000000E+00 0. -1.
         23    2    1    2    0    0 -0.70809258051E+03  0.44760612548E+03 -0.97046664345E+03  0.12852764927E+04  0.91563150800E+02 0.  0.
        254    2    1    2    0    0  0.70809258051E+03 -0.44760612548E+03 -0.45521974002E+03  0.13175966464E+04  0.90944464641E+03 0.  0.
        -24    2    4    4    0    0  0.84110866949E+03 -0.26589311116E+03 -0.56909529926E+03  0.10526378537E+04  0.77550312441E+02 0.  0.
         24    2    4    4    0    0 -0.13301608898E+03 -0.18171301433E+03  0.11387555924E+03  0.26495879274E+03  0.80762734950E+02 0.  0.
         13    1    3    3    0    0 -0.25913605450E+03  0.16421749742E+03 -0.28963273873E+03  0.42190757820E+03  0.00000000000E+00 0.  1.
        -13    1    3    3    0    0 -0.44895652601E+03  0.28338862806E+03 -0.68083390473E+03  0.86336891453E+03  0.00000000000E+00 0. -1.
          2    1    6    6  502    0 -0.25606626823E+02 -0.10281859318E+03  0.51601586886E+02  0.11785620989E+03  0.00000000000E+00 0. -1.
          3    1    5    5  503    0  0.30131320681E+03 -0.11934358957E+03 -0.17408677704E+03  0.36788414876E+03  0.00000000000E+00 0. -1.
         -2    1    5    5    0  503  0.53979546268E+03 -0.14654952159E+03 -0.39500852222E+03  0.68475370494E+03  0.00000000000E+00 0.  1.
         -1    1    6    6    0  502 -0.10740946216E+03 -0.78894421144E+02  0.62273972355E+02  0.14710258285E+03  0.00000000000E+00 0.  1.
<mgrwt>
<rscale>  0 0.21776976E+04</rscale>
<asrwt>0</asrwt>
<pdfrwt beam="1">  1        2 0.30988919E+00 0.21776976E+04</pdfrwt>
<pdfrwt beam="2">  1       -2 0.90552828E-01 0.21776976E+04</pdfrwt>
<totfact> 0.62585681E+00</totfact>
</mgrwt>
</event>
<event>
12    1  0.1556559E-007  0.1397452E+04  0.7818608E-02  0.8955665E-01
          1   -1    0    0  501    0  0.00000000000E+00  0.00000000000E+00  0.23404768914E+03  0.23404768914E+03  0.00000000000E+00 0. -1.
         -1   -1    0    0    0  501 -0.00000000000E+00 -0.00000000000E+00 -0.20859780411E+04  0.20859780411E+04  0.00000000000E+00 0.  1.
         23    2    1    2    0    0 -0.68960984907E+02 -0.14551018946E+03 -0.11394960509E+04  0.11543522644E+04  0.90272186439E+02 0.  0.
        254    2    1    2    0    0  0.68960984907E+02  0.14551018946E+03 -0.71243430098E+03  0.11656734658E+04  0.90846197657E+03 0.  0.
        -24    2    4    4    0    0  0.14545319041E+03  0.11591486014E+03 -0.91238560431E+03  0.93527219761E+03  0.87713780355E+02 0.  0.
         24    2    4    4    0    0 -0.76492205507E+02  0.29595329319E+02  0.19995130333E+03  0.23040126815E+03  0.79857871498E+02 0.  0.
         13    1    3    3    0    0 -0.17507380678E+02 -0.10023413998E+03 -0.88350869271E+03  0.88934863878E+03  0.00000000000E+00 0.  1.
        -13    1    3    3    0    0 -0.51453604228E+02 -0.45276049482E+02 -0.25598735822E+03  0.26500362566E+03  0.00000000000E+00 0. -1.
          2    1    6    6  502    0 -0.10133042995E+02  0.42392277225E+02  0.52751746447E+02  0.68429017835E+02  0.00000000000E+00 0. -1.
          1    1    5    5  503    0  0.48453371643E+02  0.52696508005E+02 -0.55504240126E+03  0.55963981128E+03  0.00000000000E+00 0. -1.
         -2    1    5    5    0  503  0.96999818771E+02  0.63218352138E+02 -0.35734320305E+03  0.37563238632E+03  0.00000000000E+00 0.  1.
         -1    1    6    6    0  502 -0.66359162512E+02 -0.12796947906E+02  0.14719955688E+03  0.16197225031E+03  0.00000000000E+00 0.  1.
<mgrwt>
<rscale>  0 0.13974525E+04</rscale>
<asrwt>0</asrwt>
<pdfrwt beam="1">  1        1 0.36007335E-01 0.13974525E+04</pdfrwt>
<pdfrwt beam="2">  1       -1 0.32091971E+00 0.13974525E+04</pdfrwt>
<totfact> 0.28668383E+00</totfact>
</mgrwt>
</event>
<event>
12    1  0.1556559E-007  0.1552918E+04  0.7818608E-02  0.8850006E-01
          1   -1    0    0  501    0  0.00000000000E+00  0.00000000000E+00  0.18419400750E+04  0.18419400750E+04  0.00000000000E+00 0. -1.
         -1   -1    0    0    0  501 -0.00000000000E+00 -0.00000000000E+00 -0.32731176909E+03  0.32731176909E+03  0.00000000000E+00 0.  1.
         23    2    1    2    0    0 -0.48545765588E+03  0.78635380789E+02  0.30627626954E+03  0.58654870622E+03  0.91550929683E+02 0.  0.
        254    2    1    2    0    0  0.48545765588E+03 -0.78635380789E+02  0.12083520364E+04  0.15827031379E+04  0.89609258451E+03 0.  0.
        -24    2    4    4    0    0  0.66763346867E+03 -0.26308004511E+03  0.69527905161E+03  0.10023963904E+04  0.80249643180E+02 0.  0.
         24    2    4    4    0    0 -0.18217581279E+03  0.18444466432E+03  0.51307298476E+03  0.58030674747E+03  0.79398819347E+02 0.  0.
         11    1    3    3    0    0 -0.24934377133E+03  0.33761314396E+02  0.20964289859E+03  0.32750921755E+03  0.00000000000E+00 0.  1.
        -11    1    3    3    0    0 -0.23611388455E+03  0.44874066393E+02  0.96633370951E+02  0.25903948868E+03  0.00000000000E+00 0. -1.
          4    1    6    6  502    0 -0.18461137638E+03  0.17812105775E+03  0.45909939092E+03  0.52590942399E+03  0.00000000000E+00 0. -1.
          3    1    5    5  503    0  0.58862416875E+03 -0.25855261095E+03  0.61641628425E+03  0.89067216200E+03  0.00000000000E+00 0. -1.
         -4    1    5    5    0  503  0.79009299915E+02 -0.45274341568E+01  0.78862767357E+02  0.11172422839E+03  0.00000000000E+00 0.  1.
         -3    1    6    6    0  502  0.24355635894E+01  0.63236065720E+01  0.53973593840E+02  0.54397323482E+02  0.00000000000E+00 0.  1.
<mgrwt>
<rscale>  0 0.15529181E+04</rscale>
<asrwt>0</asrwt>
<pdfrwt beam="1">  1        1 0.28337539E+00 0.15529181E+04</pdfrwt>
<pdfrwt beam="2">  1       -1 0.50355658E-01 0.15529181E+04</pdfrwt>
<totfact> 0.14555370E+01</totfact>
</mgrwt>
</event>
<event>
12    1  0.1556559E-007  0.1958698E+04  0.7818608E-02  0.8626178E-01
          1   -1    0    0  501    0  0.00000000000E+00  0.00000000000E+00  0.14945734632E+04  0.14945734632E+04  0.00000000000E+00 0. -1.
         -1   -1    0    0    0  501 -0.00000000000E+00 -0.00000000000E+00 -0.64173810530E+03  0.64173810530E+03  0.00000000000E+00 0.  1.
         23    2    1    2    0    0  0.50744714891E+03 -0.67672742490E+02  0.97775681682E+03  0.11059412792E+04  0.70820273542E+02 0.  0.
        254    2    1    2    0    0 -0.50744714891E+03  0.67672742490E+02 -0.12492145893E+03  0.10303702893E+04  0.88542382689E+03 0.  0.
        -24    2    4    4    0    0 -0.54753497460E+03  0.13816063131E+03  0.26191838673E+03  0.62754631315E+03  0.79562713512E+02 0.  0.
         24    2    4    4    0    0  0.40087825699E+02 -0.70487888819E+02 -0.38683984565E+03  0.40282397618E+03  0.77759329724E+02 0.  0.
         11    1    3    3    0    0  0.49306709518E+03 -0.77690621812E+02  0.94900041153E+03  0.10722652536E+04  0.00000000000E+00 0. -1.
        -11    1    3    3    0    0  0.14380053726E+02  0.10017879322E+02  0.28756405289E+02  0.33676025544E+02  0.00000000000E+00 0.  1.
          4    1    6    6  502    0  0.17809628052E+02 -0.29928238077E+02 -0.31784663825E+03  0.31974891357E+03  0.00000000000E+00 0. -1.
          3    1    5    5  503    0 -0.48412630947E+03  0.12554361935E+03  0.25802961211E+03  0.56277772220E+03  0.00000000000E+00 0. -1.
         -4    1    5    5    0  503 -0.63408665139E+02  0.12617011958E+02  0.38887746125E+01  0.64768590948E+02  0.00000000000E+00 0.  1.
         -1    1    6    6    0  502  0.22278197646E+02 -0.40559650742E+02 -0.68993207407E+02  0.83075062606E+02  0.00000000000E+00 0.  1.
<mgrwt>
<rscale>  0 0.19586983E+04</rscale>
<asrwt>0</asrwt>
<pdfrwt beam="1">  1        1 0.22993438E+00 0.19586983E+04</pdfrwt>
<pdfrwt beam="2">  1       -1 0.98728939E-01 0.19586983E+04</pdfrwt>
<totfact> 0.60283895E+00</totfact>
</mgrwt>
</event>
<event>
12    1  0.1556559E-007  0.1505460E+04  0.7818608E-02  0.8880830E-01
          2   -1    0    0  501    0  0.00000000000E+00  0.00000000000E+00  0.64717357176E+03  0.64717357176E+03  0.00000000000E+00 0. -1.
         -2   -1    0    0    0  501 -0.00000000000E+00 -0.00000000000E+00 -0.87550365698E+03  0.87550365698E+03  0.00000000000E+00 0.  1.
         23    2    1    2    0    0 -0.50431630303E+03  0.15232541026E+03 -0.50526359072E+02  0.53719550054E+03  0.92131041107E+02 0.  0.
        254    2    1    2    0    0  0.50431630303E+03 -0.15232541026E+03 -0.17780372615E+03  0.98548172820E+03  0.81364740981E+03 0.  0.
        -24    2    4    4    0    0  0.46398251708E+03 -0.44149946173E+03 -0.23391650344E+02  0.64573747641E+03  0.78918744740E+02 0.  0.
         24    2    4    4    0    0  0.40333785952E+02  0.28917405148E+03 -0.15441207580E+03  0.33974425180E+03  0.79590333189E+02 0.  0.
         11    1    3    3    0    0 -0.16856263663E+02  0.22586539062E+01 -0.19989913319E+02  0.26245604902E+02  0.00000000000E+00 0. -1.
        -11    1    3    3    0    0 -0.48746003936E+03  0.15006675635E+03 -0.30536445752E+02  0.51094989564E+03  0.00000000000E+00 0.  1.
          2    1    6    6  502    0  0.35841646160E+02  0.74985625647E+02 -0.15862866964E+02  0.84611454316E+02  0.00000000000E+00 0. -1.
          1    1    5    5  503    0  0.28911487530E+03 -0.30499815041E+03 -0.45955697395E+02  0.42275667823E+03  0.00000000000E+00 0. -1.
         -2    1    5    5    0  503  0.17486764178E+03 -0.13650131133E+03  0.22564047051E+02  0.22298079817E+03  0.00000000000E+00 0.  1.
         -1    1    6    6    0  502  0.44921397915E+01  0.21418842583E+03 -0.13854920884E+03  0.25513279748E+03  0.00000000000E+00 0.  1.
<mgrwt>
<rscale>  0 0.15054605E+04</rscale>
<asrwt>0</asrwt>
<pdfrwt beam="1">  1        2 0.99565165E-01 0.15054605E+04</pdfrwt>
<pdfrwt beam="2">  1       -2 0.13469287E+00 0.15054605E+04</pdfrwt>
<totfact> 0.17317435E+01</totfact>
</mgrwt>
</event>
<event>
12    1  0.1556559E-007  0.2024097E+04  0.7818608E-02  0.8595437E-01
          2   -1    0    0  501    0  0.00000000000E+00  0.00000000000E+00  0.12284182980E+04  0.12284182980E+04  0.00000000000E+00 0. -1.
         -2   -1    0    0    0  501 -0.00000000000E+00 -0.00000000000E+00 -0.83378971201E+03  0.83378971201E+03  0.00000000000E+00 0.  1.
         23    2    1    2    0    0 -0.64647507861E+02 -0.48016368417E+02  0.96981253544E+03  0.97658305975E+03  0.81812265562E+02 0.  0.
        254    2    1    2    0    0  0.64647507861E+02  0.48016368417E+02 -0.57518394949E+03  0.10856249502E+04  0.91720231403E+03 0.  0.
        -24    2    4    4    0    0 -0.17544458185E+03 -0.25848747845E+03 -0.60647412211E+03  0.68697918604E+03  0.80826749567E+02 0.  0.
         24    2    4    4    0    0  0.24009208972E+03  0.30650384687E+03  0.31290172617E+02  0.39864576417E+03  0.79690342584E+02 0.  0.
         13    1    3    3    0    0 -0.42519225696E+02 -0.50399577633E+02  0.33762290481E+03  0.34400178463E+03  0.00000000000E+00 0.  1.
        -13    1    3    3    0    0 -0.22128282165E+02  0.23832092159E+01  0.63218963063E+03  0.63258127512E+03  0.00000000000E+00 0. -1.
          4    1    6    6  502    0  0.96699204214E+02  0.12572623973E+03  0.52142459816E+02  0.16696304851E+03  0.00000000000E+00 0. -1.
          3    1    5    5  503    0 -0.83954469922E+02 -0.13172361352E+03 -0.38861923625E+03  0.41883693028E+03  0.00000000000E+00 0. -1.
         -4    1    5    5    0  503 -0.91490111932E+02 -0.12676386493E+03 -0.21785488586E+03  0.26814225576E+03  0.00000000000E+00 0.  1.
         -3    1    6    6    0  502  0.14339288550E+03  0.18077760714E+03 -0.20852287199E+02  0.23168271566E+03  0.00000000000E+00 0.  1.
<mgrwt>
<rscale>  0 0.20240974E+04</rscale>
<asrwt>0</asrwt>
<pdfrwt beam="1">  1        2 0.18898743E+00 0.20240974E+04</pdfrwt>
<pdfrwt beam="2">  1       -2 0.12827534E+00 0.20240974E+04</pdfrwt>
<totfact> 0.75890724E+00</totfact>
</mgrwt>
</event>
<event>
12    1  0.1556559E-007  0.3406396E+04  0.7818608E-02  0.8136338E-01
          2   -1    0    0  501    0  0.00000000000E+00  0.00000000000E+00  0.22633290366E+04  0.22633290366E+04  0.00000000000E+00 0. -1.
         -2   -1    0    0    0  501 -0.00000000000E+00 -0.00000000000E+00 -0.12816889190E+04  0.12816889190E+04  0.00000000000E+00 0.  1.
         23    2    1    2    0    0  0.96169294121E+03  0.91416773410E+03  0.13294235748E+04  0.18806139652E+04  0.93733054787E+02 0.  0.
        254    2    1    2    0    0 -0.96169294121E+03 -0.91416773410E+03 -0.34778345723E+03  0.16644039904E+04  0.94272549079E+03 0.  0.
        -24    2    4    4    0    0 -0.77632201186E+02 -0.11706668132E+02 -0.38201277109E+03  0.39787311965E+03  0.78774725175E+02 0.  0.
         24    2    4    4    0    0 -0.88406074002E+03 -0.90246106596E+03  0.34229313860E+02  0.12665308708E+04  0.83243216304E+02 0.  0.
         13    1    3    3    0    0  0.14741349138E+03  0.10137655237E+03  0.20094753944E+03  0.26904991436E+03  0.00000000000E+00 0.  1.
        -13    1    3    3    0    0  0.81427944983E+03  0.81279118172E+03  0.11284760354E+04  0.16115640508E+04  0.00000000000E+00 0. -1.
          2    1    6    6  502    0 -0.68359606399E+03 -0.64834139690E+03  0.14594492832E+02  0.94226490163E+03  0.00000000000E+00 0. -1.
          3    1    5    5  503    0 -0.53199083919E+02  0.24813962396E+01 -0.35435740272E+03  0.35833708811E+03  0.00000000000E+00 0. -1.
         -4    1    5    5    0  503 -0.24433117267E+02 -0.14188064371E+02 -0.27655368372E+02  0.39536031538E+02  0.00000000000E+00 0.  1.
         -1    1    6    6    0  502 -0.20046467604E+03 -0.25411966907E+03  0.19634821028E+02  0.32426596914E+03  0.00000000000E+00 0.  1.
<mgrwt>
<rscale>  0 0.34063962E+04</rscale>
<asrwt>0</asrwt>
<pdfrwt beam="1">  1        2 0.34820447E+00 0.34063962E+04</pdfrwt>
<pdfrwt beam="2">  1       -2 0.19718291E+00 0.34063962E+04</pdfrwt>
<totfact> 0.54662353E-01</totfact>
</mgrwt>
</event>
<event>
12    1  0.1556559E-007  0.1748995E+04  0.7818608E-02  0.8733904E-01
         -2   -1    0    0    0  501 -0.00000000000E+00  0.00000000000E+00  0.41325822947E+03  0.41325822947E+03  0.00000000000E+00 0.  1.
          2   -1    0    0  501    0  0.00000000000E+00 -0.00000000000E+00 -0.18505278690E+04  0.18505278690E+04  0.00000000000E+00 0. -1.
         23    2    1    2    0    0  0.36065286641E+03 -0.14196451246E+03  0.12507254003E+03  0.41758497757E+03  0.92247820399E+02 0.  0.
        254    2    1    2    0    0 -0.36065286641E+03  0.14196451246E+03 -0.15623421795E+04  0.18462011209E+04  0.90405811754E+03 0.  0.
        -24    2    4    4    0    0 -0.16167442615E+03  0.51545126379E+03 -0.97880132255E+03  0.11208706880E+04  0.80439074697E+02 0.  0.
         24    2    4    4    0    0 -0.19897844026E+03 -0.37348675133E+03 -0.58354085698E+03  0.72533043288E+03  0.80619674949E+02 0.  0.
         13    1    3    3    0    0  0.32065212447E+03 -0.14793588899E+03  0.13112296894E+03  0.37669091462E+03  0.00000000000E+00 0.  1.
        -13    1    3    3    0    0  0.40000741948E+02  0.59713765329E+01 -0.60504289050E+01  0.40894062943E+02  0.00000000000E+00 0. -1.
          4    1    6    6  502    0 -0.15581805895E+03 -0.34504571947E+03 -0.52439911811E+03  0.64678454766E+03  0.00000000000E+00 0. -1.
          1    1    5    5  503    0 -0.13231763972E+03  0.47151423052E+03 -0.91683803690E+03  0.10394352376E+04  0.00000000000E+00 0. -1.
         -2    1    5    5    0  503 -0.29356786431E+02  0.43937033273E+02 -0.61963285652E+02  0.81435450334E+02  0.00000000000E+00 0.  1.
         -3    1    6    6    0  502 -0.43160381314E+02 -0.28441031866E+02 -0.59141738876E+02  0.78545885226E+02  0.00000000000E+00 0.  1.
<mgrwt>
<rscale>  0 0.17489950E+04</rscale>
<asrwt>0</asrwt>
<pdfrwt beam="1">  1        2 0.28469659E+00 0.17489950E+04</pdfrwt>
<pdfrwt beam="2">  1       -2 0.63578190E-01 0.17489950E+04</pdfrwt>
<totfact> 0.17552481E+01</totfact>
</mgrwt>
</event>
<event>
12    1  0.1556559E-007  0.1494854E+04  0.7818608E-02  0.8887882E-01
          1   -1    0    0  501    0  0.00000000000E+00  0.00000000000E+00  0.19559450917E+04  0.19559450917E+04  0.00000000000E+00 0. -1.
         -1   -1    0    0    0  501 -0.00000000000E+00 -0.00000000000E+00 -0.28561478010E+03  0.28561478010E+03  0.00000000000E+00 0.  1.
         23    2    1    2    0    0  0.23779341983E+03 -0.36012375555E+03  0.19428279296E+03  0.48186508731E+03  0.90627418038E+02 0.  0.
        254    2    1    2    0    0 -0.23779341983E+03  0.36012375555E+03  0.14760475187E+04  0.17596947845E+04  0.85532135920E+03 0.  0.
        -24    2    4    4    0    0 -0.87934247164E+01  0.38851842994E+03  0.17133683060E+03  0.43211484363E+03  0.79643165663E+02 0.  0.
         24    2    4    4    0    0 -0.22899999512E+03 -0.28394674394E+02  0.13047106881E+04  0.13275799409E+04  0.83374244408E+02 0.  0.
         13    1    3    3    0    0  0.19091950553E+03 -0.28441272477E+03  0.11138648476E+03  0.36020522565E+03  0.00000000000E+00 0.  1.
        -13    1    3    3    0    0  0.46873914305E+02 -0.75711030785E+02  0.82896308209E+02  0.12165986166E+03  0.00000000000E+00 0. -1.
          4    1    6    6  502    0 -0.20385491290E+03 -0.52408266631E+02  0.11326097180E+04  0.11520018339E+04  0.00000000000E+00 0. -1.
          3    1    5    5  503    0 -0.66244272947E+00  0.23279874905E+03  0.59677404275E+02  0.24032704585E+03  0.00000000000E+00 0. -1.
         -4    1    5    5    0  503 -0.81309819869E+01  0.15571968090E+03  0.11165942632E+03  0.19178779777E+03  0.00000000000E+00 0.  1.
         -3    1    6    6    0  502 -0.25145082220E+02  0.24013592238E+02  0.17210097001E+03  0.17557810698E+03  0.00000000000E+00 0.  1.
<mgrwt>
<rscale>  0 0.14948536E+04</rscale>
<asrwt>0</asrwt>
<pdfrwt beam="1">  1        1 0.30091462E+00 0.14948536E+04</pdfrwt>
<pdfrwt beam="2">  1       -1 0.43940737E-01 0.14948536E+04</pdfrwt>
<totfact> 0.15826682E+01</totfact>
</mgrwt>
</event>
<event>
12    1  0.1556559E-007  0.1351290E+04  0.7818608E-02  0.8989852E-01
         -2   -1    0    0    0  501 -0.00000000000E+00  0.00000000000E+00  0.62145189021E+03  0.62145189021E+03  0.00000000000E+00 0.  1.
          2   -1    0    0  501    0  0.00000000000E+00 -0.00000000000E+00 -0.73456374298E+03  0.73456374298E+03  0.00000000000E+00 0. -1.
         23    2    1    2    0    0 -0.11880379210E+03  0.26551225039E+02 -0.38127251599E+03  0.41053729608E+03  0.91393826129E+02 0.  0.
        254    2    1    2    0    0  0.11880379210E+03 -0.26551225039E+02  0.26816066322E+03  0.94547833712E+03  0.89844300659E+03 0.  0.
        -24    2    4    4    0    0  0.14231333057E+03 -0.27627255636E+03 -0.22157166790E+03  0.38967244830E+03  0.78555734953E+02 0.  0.
         24    2    4    4    0    0 -0.23509538464E+02  0.24972133132E+03  0.48973233112E+03  0.55580588882E+03  0.78542906650E+02 0.  0.
         13    1    3    3    0    0 -0.11696195603E+03 -0.72673877724E+01 -0.27294144315E+03  0.29703525964E+03  0.00000000000E+00 0. -1.
        -13    1    3    3    0    0 -0.18418360755E+01  0.33818612811E+02 -0.10833107284E+03  0.11350203644E+03  0.00000000000E+00 0.  1.
          4    1    6    6  502    0 -0.24493607415E+01  0.20955050156E+03  0.34039500342E+03  0.39973262367E+03  0.00000000000E+00 0. -1.
          1    1    5    5  503    0  0.32432366792E+02 -0.14034187272E+03 -0.12027019260E+03  0.18765025682E+03  0.00000000000E+00 0. -1.
         -2    1    5    5    0  503  0.10988096378E+03 -0.13593068364E+03 -0.10130147530E+03  0.20202219149E+03  0.00000000000E+00 0.  1.
         -3    1    6    6    0  502 -0.21060177723E+02  0.40170829760E+02  0.14933732770E+03  0.15607326515E+03  0.00000000000E+00 0.  1.
<mgrwt>
<rscale>  0 0.13512898E+04</rscale>
<asrwt>0</asrwt>
<pdfrwt beam="1">  1        2 0.11300981E+00 0.13512898E+04</pdfrwt>
<pdfrwt beam="2">  1       -2 0.95607983E-01 0.13512898E+04</pdfrwt>
<totfact> 0.34557576E+01</totfact>
</mgrwt>
</event>
<event>
12    1  0.1556559E-007  0.1835893E+04  0.7818608E-02  0.8687441E-01
          2   -1    0    0  501    0  0.00000000000E+00  0.00000000000E+00  0.25835204204E+04  0.25835204204E+04  0.00000000000E+00 0. -1.
         -2   -1    0    0    0  501 -0.00000000000E+00 -0.00000000000E+00 -0.32615417589E+03  0.32615417589E+03  0.00000000000E+00 0.  1.
         23    2    1    2    0    0  0.38803732365E+03  0.27218070449E+02 -0.53049789741E+02  0.40280069715E+03  0.90112893259E+02 0.  0.
        254    2    1    2    0    0 -0.38803732365E+03 -0.27218070449E+02  0.23104160342E+04  0.25068738991E+04  0.89167298209E+03 0.  0.
        -24    2    4    4    0    0 -0.53947899405E+02 -0.22832874812E+03  0.19622503686E+04  0.19778633035E+04  0.80450889001E+02 0.  0.
         24    2    4    4    0    0 -0.33408942424E+03  0.20111067767E+03  0.34816566566E+03  0.52901059557E+03  0.81065599469E+02 0.  0.
         11    1    3    3    0    0  0.55280512832E+02  0.27241392217E+01 -0.41083649434E+02  0.68929110572E+02  0.00000000000E+00 0. -1.
        -11    1    3    3    0    0  0.33275681081E+03  0.24493931228E+02 -0.11966140307E+02  0.33387158658E+03  0.00000000000E+00 0.  1.
          4    1    6    6  502    0 -0.24758964569E+03  0.15425065992E+03  0.21015532697E+03  0.35952629973E+03  0.00000000000E+00 0. -1.
          1    1    5    5  503    0 -0.48891798513E+02 -0.19329264880E+03  0.18343782297E+04  0.18451818191E+04  0.00000000000E+00 0. -1.
         -2    1    5    5    0  503 -0.50561008917E+01 -0.35036099313E+02  0.12787213887E+03  0.13268148443E+03  0.00000000000E+00 0.  1.
         -3    1    6    6    0  502 -0.86499778547E+02  0.46860017744E+02  0.13801033869E+03  0.16948429584E+03  0.00000000000E+00 0.  1.
<mgrwt>
<rscale>  0 0.18358932E+04</rscale>
<asrwt>0</asrwt>
<pdfrwt beam="1">  1        2 0.39746467E+00 0.18358932E+04</pdfrwt>
<pdfrwt beam="2">  1       -2 0.50177567E-01 0.18358932E+04</pdfrwt>
<totfact> 0.11020100E+01</totfact>
</mgrwt>
</event>
<event>
12    1  0.1556559E-007  0.1407604E+04  0.7818608E-02  0.8948333E-01
         -2   -1    0    0    0  501 -0.00000000000E+00  0.00000000000E+00  0.25311449865E+03  0.25311449865E+03  0.00000000000E+00 0.  1.
          2   -1    0    0  501    0  0.00000000000E+00 -0.00000000000E+00 -0.19569691137E+04  0.19569691137E+04  0.00000000000E+00 0. -1.
         23    2    1    2    0    0 -0.21674150039E+03  0.10501659539E+03  0.16695208702E+02  0.25796568439E+03  0.90896650283E+02 0.  0.
        254    2    1    2    0    0  0.21674150039E+03 -0.10501659539E+03 -0.17205498238E+04  0.19521179280E+04  0.89020634985E+03 0.  0.
        -24    2    4    4    0    0 -0.10816171703E+03 -0.42209250723E+03 -0.10356115907E+04  0.11264478424E+04  0.80822850622E+02 0.  0.
         24    2    4    4    0    0  0.32490321742E+03  0.31707591183E+03 -0.68493823304E+03  0.82567008553E+03  0.80569674888E+02 0.  0.
         13    1    3    3    0    0 -0.18270501205E+03  0.10935331995E+03  0.39775870790E+02  0.21661345736E+03  0.00000000000E+00 0.  1.
        -13    1    3    3    0    0 -0.34036488337E+02 -0.43367245572E+01 -0.23080662088E+02  0.41352227033E+02  0.00000000000E+00 0. -1.
          2    1    6    6  502    0  0.16236626223E+03  0.19547854123E+03 -0.43385602587E+03  0.50279788621E+03  0.00000000000E+00 0. -1.
          1    1    5    5  503    0 -0.36930463166E+02 -0.17315724604E+03 -0.32442005148E+03  0.36958850194E+03  0.00000000000E+00 0. -1.
         -2    1    5    5    0  503 -0.71231253861E+02 -0.24893526119E+03 -0.71119153924E+03  0.75685934049E+03  0.00000000000E+00 0.  1.
         -1    1    6    6    0  502  0.16253695519E+03  0.12159737061E+03 -0.25108220717E+03  0.32287219932E+03  0.00000000000E+00 0.  1.
<mgrwt>
<rscale>  0 0.14076040E+04</rscale>
<asrwt>0</asrwt>
<pdfrwt beam="1">  1        2 0.30107218E+00 0.14076040E+04</pdfrwt>
<pdfrwt beam="2">  1       -2 0.38940691E-01 0.14076040E+04</pdfrwt>
<totfact> 0.42824548E+01</totfact>
</mgrwt>
</event>
<event>
12    1  0.1556559E-007  0.1335470E+04  0.7818608E-02  0.9001901E-01
          1   -1    0    0  501    0  0.00000000000E+00  0.00000000000E+00  0.10664536944E+04  0.10664536944E+04  0.00000000000E+00 0. -1.
         -1   -1    0    0    0  501 -0.00000000000E+00 -0.00000000000E+00 -0.41808642860E+03  0.41808642860E+03  0.00000000000E+00 0.  1.
         23    2    1    2    0    0 -0.17371434601E+03 -0.10368892296E+03 -0.14731977236E+03  0.26552338002E+03  0.88721379943E+02 0.  0.
        254    2    1    2    0    0  0.17371434601E+03  0.10368892296E+03  0.79568703820E+03  0.12190167430E+04  0.90108595054E+03 0.  0.
        -24    2    4    4    0    0 -0.28165510436E+03  0.20517114807E+03  0.87732769079E+02  0.36758761819E+03  0.77452052672E+02 0.  0.
         24    2    4    4    0    0  0.45536945036E+03 -0.10148222511E+03  0.70795426913E+03  0.85142912484E+03  0.77925150694E+02 0.  0.
         11    1    3    3    0    0 -0.17641711381E+03 -0.84123633351E+02 -0.14890595145E+03  0.24570870174E+03  0.00000000000E+00 0.  1.
        -11    1    3    3    0    0  0.27027678053E+01 -0.19565289610E+02  0.15861790949E+01  0.19814678282E+02  0.00000000000E+00 0. -1.
          4    1    6    6  502    0  0.18695672471E+03 -0.29788899082E+02  0.22290614040E+03  0.29245058189E+03  0.00000000000E+00 0. -1.
          1    1    5    5  503    0 -0.19671117307E+02  0.55951435470E+01  0.25041961729E+02  0.32332001712E+02  0.00000000000E+00 0. -1.
         -4    1    5    5    0  503 -0.26198398705E+03  0.19957600452E+03  0.62690807350E+02  0.33525561647E+03  0.00000000000E+00 0.  1.
         -3    1    6    6    0  502  0.26841272566E+03 -0.71693326025E+02  0.48504812873E+03  0.55897854294E+03  0.00000000000E+00 0.  1.
<mgrwt>
<rscale>  0 0.13354697E+04</rscale>
<asrwt>0</asrwt>
<pdfrwt beam="1">  1        1 0.16406980E+00 0.13354697E+04</pdfrwt>
<pdfrwt beam="2">  1       -1 0.64320989E-01 0.13354697E+04</pdfrwt>
<totfact> 0.32291485E+01</totfact>
</mgrwt>
</event>
<event>
12    1  0.1556559E-007  0.2834360E+04  0.7818608E-02  0.8292680E-01
         -2   -1    0    0    0  501 -0.00000000000E+00  0.00000000000E+00  0.81089729791E+03  0.81089729791E+03  0.00000000000E+00 0.  1.
          2   -1    0    0  501    0  0.00000000000E+00 -0.00000000000E+00 -0.24767610560E+04  0.24767610560E+04  0.00000000000E+00 0. -1.
         23    2    1    2    0    0  0.10240009202E+04 -0.49979975167E+03 -0.10097308963E+03  0.11475680359E+04  0.91318977473E+02 0.  0.
        254    2    1    2    0    0 -0.10240009202E+04  0.49979975167E+03 -0.15648906685E+04  0.21400903181E+04  0.91253826705E+03 0.  0.
        -24    2    4    4    0    0  0.20222631019E+02  0.34622911183E+03 -0.18752345546E+03  0.40300045970E+03  0.83431238086E+02 0.  0.
         24    2    4    4    0    0 -0.10442235513E+04  0.15357063984E+03 -0.13773672130E+04  0.17370898584E+04  0.79711794356E+02 0.  0.
         11    1    3    3    0    0  0.13566069378E+03 -0.94651744446E+02 -0.34234399652E+02  0.16892238065E+03  0.00000000000E+00 0. -1.
        -11    1    3    3    0    0  0.88834022646E+03 -0.40514800722E+03 -0.66738689978E+02  0.97864565520E+03  0.00000000000E+00 0.  1.
          2    1    6    6  502    0 -0.55222376412E+03  0.47366144640E+02 -0.75711480530E+03  0.93830563556E+03  0.00000000000E+00 0. -1.
          1    1    5    5  503    0  0.69883637744E+01 -0.10916047397E+01  0.16762826251E+01  0.72690269356E+01  0.00000000000E+00 0. -1.
         -2    1    5    5    0  503  0.13234267245E+02  0.34732071657E+03 -0.18919973809E+03  0.39573143277E+03  0.00000000000E+00 0.  1.
         -1    1    6    6    0  502 -0.49199978714E+03  0.10620449520E+03 -0.62025240772E+03  0.79878422282E+03  0.00000000000E+00 0.  1.
<mgrwt>
<rscale>  0 0.28343598E+04</rscale>
<asrwt>0</asrwt>
<pdfrwt beam="1">  1        2 0.38104017E+00 0.28343598E+04</pdfrwt>
<pdfrwt beam="2">  1       -2 0.12475343E+00 0.28343598E+04</pdfrwt>
<totfact> 0.15010328E+00</totfact>
</mgrwt>
</event>
<event>
12    1  0.1556559E-007  0.2193795E+04  0.7818608E-02  0.8521015E-01
         -2   -1    0    0    0  501 -0.00000000000E+00  0.00000000000E+00  0.12803461801E+04  0.12803461801E+04  0.00000000000E+00 0.  1.
          2   -1    0    0  501    0  0.00000000000E+00 -0.00000000000E+00 -0.93973384124E+03  0.93973384124E+03  0.00000000000E+00 0. -1.
         23    2    1    2    0    0  0.84547638286E+02 -0.84210314289E+03 -0.19296047647E+03  0.87284107441E+03  0.91278635385E+02 0.  0.
        254    2    1    2    0    0 -0.84547638286E+02  0.84210314289E+03  0.53357281532E+03  0.13472389469E+04  0.90225651810E+03 0.  0.
        -24    2    4    4    0    0  0.36690878854E+03  0.17425509846E+03  0.90504084156E+02  0.42337388416E+03  0.77894531849E+02 0.  0.
         24    2    4    4    0    0 -0.45145642683E+03  0.66784804443E+03  0.44306873117E+03  0.92386506277E+03  0.85923442022E+02 0.  0.
         11    1    3    3    0    0  0.98174896153E+02 -0.79239190036E+03 -0.16967301785E+03  0.81627946622E+03  0.00000000000E+00 0. -1.
        -11    1    3    3    0    0 -0.13627257867E+02 -0.49711242537E+02 -0.23287458619E+02  0.56561608186E+02  0.00000000000E+00 0.  1.
          2    1    6    6  502    0 -0.32075926105E+03  0.41022672502E+03  0.26208953056E+03  0.58297803689E+03  0.00000000000E+00 0. -1.
          3    1    5    5  503    0  0.32472834834E+03  0.14110906429E+03  0.10209918711E+03  0.36848950086E+03  0.00000000000E+00 0. -1.
         -4    1    5    5    0  503  0.42180440206E+02  0.33146034177E+02 -0.11595102957E+02  0.54884383300E+02  0.00000000000E+00 0.  1.
         -1    1    6    6    0  502 -0.13069716578E+03  0.25762131941E+03  0.18097920061E+03  0.34088702588E+03  0.00000000000E+00 0.  1.
<mgrwt>
<rscale>  0 0.21937955E+04</rscale>
<asrwt>0</asrwt>
<pdfrwt beam="1">  1        2 0.14457444E+00 0.21937955E+04</pdfrwt>
<pdfrwt beam="2">  1       -2 0.19697634E+00 0.21937955E+04</pdfrwt>
<totfact> 0.35107974E+00</totfact>
</mgrwt>
</event>
<event>
12    1  0.1556559E-007  0.3464752E+04  0.7818608E-02  0.8122195E-01
          2   -1    0    0  501    0  0.00000000000E+00  0.00000000000E+00  0.18218049657E+04  0.18218049657E+04  0.00000000000E+00 0. -1.
         -2   -1    0    0    0  501 -0.00000000000E+00 -0.00000000000E+00 -0.16473365290E+04  0.16473365290E+04  0.00000000000E+00 0.  1.
         23    2    1    2    0    0  0.33464529459E+03 -0.11049624556E+04 -0.10340559429E+04  0.15525448036E+04  0.90521669841E+02 0.  0.
        254    2    1    2    0    0 -0.33464529459E+03  0.11049624556E+04  0.12085243796E+04  0.19165966912E+04  0.93802036172E+03 0.  0.
        -24    2    4    4    0    0 -0.35684589994E+03  0.98145039437E+03  0.44376844945E+03  0.11375300706E+04  0.80376314111E+02 0.  0.
         24    2    4    4    0    0  0.22200605348E+02  0.12351206118E+03  0.76475593018E+03  0.77906662056E+03  0.79655950098E+02 0.  0.
         13    1    3    3    0    0  0.23274115130E+03 -0.86418469197E+03 -0.83401481980E+03  0.12233414670E+04  0.00000000000E+00 0.  1.
        -13    1    3    3    0    0  0.10190414329E+03 -0.24077776358E+03 -0.20004112307E+03  0.32920333652E+03  0.00000000000E+00 0. -1.
          4    1    6    6  502    0 -0.19453815535E+02  0.48033994270E+02  0.44080693735E+03  0.44384284557E+03  0.00000000000E+00 0. -1.
          3    1    5    5  503    0 -0.20830219006E+03  0.66420633593E+03  0.27165192744E+03  0.74723130873E+03  0.00000000000E+00 0. -1.
         -4    1    5    5    0  503 -0.14854370988E+03  0.31724405844E+03  0.17211652202E+03  0.39029876187E+03  0.00000000000E+00 0.  1.
         -3    1    6    6    0  502  0.41654420883E+02  0.75478066912E+02  0.32394899283E+03  0.33522377499E+03  0.00000000000E+00 0.  1.
<mgrwt>
<rscale>  0 0.34647516E+04</rscale>
<asrwt>0</asrwt>
<pdfrwt beam="1">  1        2 0.28027769E+00 0.34647516E+04</pdfrwt>
<pdfrwt beam="2">  1       -2 0.25343639E+00 0.34647516E+04</pdfrwt>
<totfact> 0.42330754E-01</totfact>
</mgrwt>
</event>
<event>
12    1  0.1556559E-007  0.2276013E+04  0.7818608E-02  0.8487439E-01
          2   -1    0    0  501    0  0.00000000000E+00  0.00000000000E+00  0.71524932630E+03  0.71524932630E+03  0.00000000000E+00 0. -1.
         -2   -1    0    0    0  501 -0.00000000000E+00 -0.00000000000E+00 -0.18106390428E+04  0.18106390428E+04  0.00000000000E+00 0.  1.
         23    2    1    2    0    0 -0.40000203802E+03  0.83850028630E+03 -0.20980763023E+03  0.95690222037E+03  0.92510848519E+02 0.  0.
        254    2    1    2    0    0  0.40000203802E+03 -0.83850028630E+03 -0.88558208623E+03  0.15689861487E+04  0.90242869126E+03 0.  0.
        -24    2    4    4    0    0  0.20993719255E+03 -0.71674912759E+03 -0.11221860725E+03  0.75951217776E+03  0.80391514712E+02 0.  0.
         24    2    4    4    0    0  0.19006484547E+03 -0.12175115872E+03 -0.77336347898E+03  0.80947397094E+03  0.78797518207E+02 0.  0.
         11    1    3    3    0    0 -0.21197207348E+03  0.34351632539E+03 -0.75718599034E+02  0.41069323343E+03  0.00000000000E+00 0.  1.
        -11    1    3    3    0    0 -0.18802996454E+03  0.49498396092E+03 -0.13408903120E+03  0.54620898694E+03  0.00000000000E+00 0. -1.
          2    1    6    6  502    0  0.17485317327E+03 -0.13197340649E+03 -0.73509593658E+03  0.76704409795E+03  0.00000000000E+00 0. -1.
          1    1    5    5  503    0  0.21077635697E+03 -0.62882026929E+03 -0.96626892275E+02  0.67020769918E+03  0.00000000000E+00 0. -1.
         -2    1    5    5    0  503 -0.83916442481E+00 -0.87928858293E+02 -0.15591714974E+02  0.89304478574E+02  0.00000000000E+00 0.  1.
         -1    1    6    6    0  502  0.15211672197E+02  0.10222247772E+02 -0.38267542405E+02  0.42429872994E+02  0.00000000000E+00 0.  1.
<mgrwt>
<rscale>  0 0.22760126E+04</rscale>
<asrwt>0</asrwt>
<pdfrwt beam="1">  1        2 0.11003836E+00 0.22760126E+04</pdfrwt>
<pdfrwt beam="2">  1       -2 0.27855985E+00 0.22760126E+04</pdfrwt>
<totfact> 0.15563256E+00</totfact>
</mgrwt>
</event>
<event>
12    1  0.1556559E-007  0.2250814E+04  0.7818608E-02  0.8497571E-01
         -1   -1    0    0    0  501 -0.00000000000E+00  0.00000000000E+00  0.95087316866E+03  0.95087316866E+03  0.00000000000E+00 0.  1.
          1   -1    0    0  501    0  0.00000000000E+00 -0.00000000000E+00 -0.13319765508E+04  0.13319765508E+04  0.00000000000E+00 0. -1.
         23    2    1    2    0    0  0.11021399992E+03 -0.93761824634E+03 -0.16509011033E+03  0.96256550354E+03  0.89456707011E+02 0.  0.
        254    2    1    2    0    0 -0.11021399992E+03  0.93761824634E+03 -0.21601327180E+03  0.13202842159E+04  0.89733693536E+03 0.  0.
        -24    2    4    4    0    0 -0.18074707714E+03  0.10943025834E+04 -0.20867062012E+03  0.11313579691E+04  0.79118749323E+02 0.  0.
         24    2    4    4    0    0  0.70533077228E+02 -0.15668433709E+03 -0.73426516858E+01  0.18892624683E+03  0.78194090157E+02 0.  0.
         13    1    3    3    0    0  0.83727253882E+02 -0.87989035605E+03 -0.14323174563E+03  0.89539523378E+03  0.00000000000E+00 0.  1.
        -13    1    3    3    0    0  0.26486746034E+02 -0.57727890292E+02 -0.21858364702E+02  0.67170269766E+02  0.00000000000E+00 0. -1.
          2    1    6    6  502    0  0.63228365254E+02 -0.57071232431E+02 -0.22011668988E+02  0.87974230974E+02  0.00000000000E+00 0. -1.
          1    1    5    5  503    0 -0.79930887445E+01  0.16554836160E+03 -0.10231216491E+02  0.16605669901E+03  0.00000000000E+00 0. -1.
         -2    1    5    5    0  503 -0.17275398840E+03  0.92875422184E+03 -0.19843940363E+03  0.96530127008E+03  0.00000000000E+00 0.  1.
         -1    1    6    6    0  502  0.73047119739E+01 -0.99613104663E+02  0.14669017302E+02  0.10095201586E+03  0.00000000000E+00 0.  1.
<mgrwt>
<rscale>  0 0.22508139E+04</rscale>
<asrwt>0</asrwt>
<pdfrwt beam="1">  1        1 0.20491947E+00 0.22508139E+04</pdfrwt>
<pdfrwt beam="2">  1       -1 0.14628818E+00 0.22508139E+04</pdfrwt>
<totfact> 0.29075413E+00</totfact>
</mgrwt>
</event>
<event>
12    1  0.1556559E-007  0.1135815E+04  0.7818608E-02  0.9170971E-01
         -2   -1    0    0    0  501 -0.00000000000E+00  0.00000000000E+00  0.41952636504E+03  0.41952636504E+03  0.00000000000E+00 0.  1.
          2   -1    0    0  501    0  0.00000000000E+00 -0.00000000000E+00 -0.76876901091E+03  0.76876901091E+03  0.00000000000E+00 0. -1.
         23    2    1    2    0    0 -0.76473624298E+02  0.43565575954E+02  0.12535958216E+03  0.17782031958E+03  0.90326444613E+02 0.  0.
        254    2    1    2    0    0  0.76473624298E+02 -0.43565575954E+02 -0.47460222802E+03  0.10104750564E+04  0.88773103476E+03 0.  0.
        -24    2    4    4    0    0  0.32202570730E+02 -0.45718071041E+03 -0.20703000369E+03  0.50932726419E+03  0.80632698622E+02 0.  0.
         24    2    4    4    0    0  0.44271053568E+02  0.41361513446E+03 -0.26757222433E+03  0.50114779218E+03  0.80726753531E+02 0.  0.
         11    1    3    3    0    0 -0.56947957868E+00 -0.23879774599E+02  0.31609246500E+02  0.39619596240E+02  0.00000000000E+00 0. -1.
        -11    1    3    3    0    0 -0.75904144719E+02  0.67445350552E+02  0.93750335656E+02  0.13820072334E+03  0.00000000000E+00 0.  1.
          4    1    6    6  502    0  0.27289080026E+02  0.37902843500E+03 -0.26344505644E+03  0.46239652484E+03  0.00000000000E+00 0. -1.
          1    1    5    5  503    0  0.19164200601E+02 -0.30631947103E+03 -0.96076764356E+02  0.32160477230E+03  0.00000000000E+00 0. -1.
         -2    1    5    5    0  503  0.13038370129E+02 -0.15086123939E+03 -0.11095323934E+03  0.18772249190E+03  0.00000000000E+00 0.  1.
         -3    1    6    6    0  502  0.16981973541E+02  0.34586699463E+02 -0.41271678822E+01  0.38751267332E+02  0.00000000000E+00 0.  1.
<mgrwt>
<rscale>  0 0.11358149E+04</rscale>
<asrwt>0</asrwt>
<pdfrwt beam="1">  1        2 0.11827215E+00 0.11358149E+04</pdfrwt>
<pdfrwt beam="2">  1       -2 0.64542519E-01 0.11358149E+04</pdfrwt>
<totfact> 0.79771317E+01</totfact>
</mgrwt>
</event>
<event>
12    1  0.1556559E-007  0.1237494E+04  0.7818608E-02  0.9080656E-01
         -1   -1    0    0    0  501 -0.00000000000E+00  0.00000000000E+00  0.95273265397E+03  0.95273265397E+03  0.00000000000E+00 0.  1.
          1   -1    0    0  501    0  0.00000000000E+00 -0.00000000000E+00 -0.40184210719E+03  0.40184210719E+03  0.00000000000E+00 0. -1.
         23    2    1    2    0    0 -0.10587696696E+03 -0.14836153152E+02  0.41825525080E+03  0.44103089161E+03  0.90226099121E+02 0.  0.
        254    2    1    2    0    0  0.10587696696E+03  0.14836153152E+02  0.13263529599E+03  0.91354386955E+03  0.89751893366E+03 0.  0.
        -24    2    4    4    0    0  0.85147099451E+02  0.40821556756E+03 -0.11657107412E+03  0.44075039385E+03  0.82353604735E+02 0.  0.
         24    2    4    4    0    0  0.20729867506E+02 -0.39337941441E+03  0.24920637011E+03  0.47279347570E+03  0.79074424937E+02 0.  0.
         13    1    3    3    0    0  0.10927643193E+02 -0.92663397663E+01  0.11703369725E+03  0.11790744137E+03  0.00000000000E+00 0. -1.
        -13    1    3    3    0    0 -0.11680461015E+03 -0.55698133859E+01  0.30122155355E+03  0.32312345024E+03  0.00000000000E+00 0.  1.
          2    1    6    6  502    0 -0.23758255506E+02 -0.59268046367E+02  0.51461877239E+02  0.82009028978E+02  0.00000000000E+00 0. -1.
          1    1    5    5  503    0 -0.16597559835E+02  0.51058867910E+02 -0.14915941543E+02  0.55722278281E+02  0.00000000000E+00 0. -1.
         -2    1    5    5    0  503  0.10174465929E+03  0.35715669965E+03 -0.10165513258E+03  0.38502811557E+03  0.00000000000E+00 0.  1.
         -1    1    6    6    0  502  0.44488123013E+02 -0.33411136804E+03  0.19774449287E+03  0.39078444672E+03  0.00000000000E+00 0.  1.
<mgrwt>
<rscale>  0 0.12374944E+04</rscale>
<asrwt>0</asrwt>
<pdfrwt beam="1">  1        1 0.61821863E-01 0.12374944E+04</pdfrwt>
<pdfrwt beam="2">  1       -1 0.14657425E+00 0.12374944E+04</pdfrwt>
<totfact> 0.21852545E+01</totfact>
</mgrwt>
</event>
<event>
12    1  0.1556559E-007  0.1381920E+04  0.7818608E-02  0.8967011E-01
          1   -1    0    0  501    0  0.00000000000E+00  0.00000000000E+00  0.69841726197E+03  0.69841726197E+03  0.00000000000E+00 0. -1.
         -1   -1    0    0    0  501 -0.00000000000E+00 -0.00000000000E+00 -0.68358216884E+03  0.68358216884E+03  0.00000000000E+00 0.  1.
         23    2    1    2    0    0 -0.23972516421E+03  0.30165771650E+03  0.70615480752E+02  0.40240904302E+03  0.92092125061E+02 0.  0.
        254    2    1    2    0    0  0.23972516421E+03 -0.30165771650E+03 -0.55780387620E+02  0.97959038780E+03  0.89889951827E+03 0.  0.
        -24    2    4    4    0    0 -0.30219606519E+03 -0.21355305980E+03 -0.16704674111E+03  0.41376483527E+03  0.79808232812E+02 0.  0.
         24    2    4    4    0    0  0.54192122940E+03 -0.88104656700E+02  0.11126635349E+03  0.56582555253E+03  0.79607192312E+02 0.  0.
         13    1    3    3    0    0 -0.24299951731E+03  0.30480265850E+03  0.65010304825E+02  0.39519585748E+03  0.00000000000E+00 0. -1.
        -13    1    3    3    0    0  0.32743530948E+01 -0.31449419972E+01  0.56051759266E+01  0.72131855322E+01  0.00000000000E+00 0.  1.
          2    1    6    6  502    0  0.21466490687E+02 -0.19528199533E+02  0.12799601775E+02  0.31717354950E+02  0.00000000000E+00 0. -1.
          3    1    5    5  503    0 -0.16113473123E+02  0.61761887336E+01 -0.31155044680E+01  0.17535555065E+02  0.00000000000E+00 0. -1.
         -4    1    5    5    0  503 -0.28608259207E+03 -0.21972924853E+03 -0.16393123664E+03  0.39622928020E+03  0.00000000000E+00 0.  1.
         -1    1    6    6    0  502  0.52045473871E+03 -0.68576457167E+02  0.98466751711E+02  0.53410819758E+03  0.00000000000E+00 0.  1.
<mgrwt>
<rscale>  0 0.13819198E+04</rscale>
<asrwt>0</asrwt>
<pdfrwt beam="1">  1        1 0.10744881E+00 0.13819198E+04</pdfrwt>
<pdfrwt beam="2">  1       -1 0.10516649E+00 0.13819198E+04</pdfrwt>
<totfact> 0.22652350E+01</totfact>
</mgrwt>
</event>
<event>
12    1  0.1556559E-007  0.1307214E+04  0.7818608E-02  0.9023864E-01
         -2   -1    0    0    0  501 -0.00000000000E+00  0.00000000000E+00  0.15599895594E+03  0.15599895594E+03  0.00000000000E+00 0.  1.
          2   -1    0    0  501    0  0.00000000000E+00 -0.00000000000E+00 -0.27384932282E+04  0.27384932282E+04  0.00000000000E+00 0. -1.
         23    2    1    2    0    0 -0.96320183438E+02 -0.27521535971E+03 -0.30380792589E+03  0.43064728357E+03  0.90203963612E+02 0.  0.
        254    2    1    2    0    0  0.96320183438E+02  0.27521535971E+03 -0.22786863464E+04  0.24638449006E+04  0.89056114723E+03 0.  0.
        -24    2    4    4    0    0 -0.38422663101E+03  0.11286455054E+03 -0.79418402492E+03  0.89296690032E+03  0.79329117510E+02 0.  0.
         24    2    4    4    0    0  0.48054681445E+03  0.16235080918E+03 -0.14845023214E+04  0.15708780002E+04  0.81409601132E+02 0.  0.
         13    1    3    3    0    0 -0.79543931744E+02 -0.25846546965E+03 -0.23638811283E+03  0.35918097941E+03  0.00000000000E+00 0. -1.
        -13    1    3    3    0    0 -0.16776251694E+02 -0.16749890065E+02 -0.67419813055E+02  0.71466304161E+02  0.00000000000E+00 0.  1.
          2    1    6    6  502    0  0.58128987343E+02  0.49834732616E+02 -0.22465254054E+03  0.23734203950E+03  0.00000000000E+00 0. -1.
          1    1    5    5  503    0 -0.15137841761E+03  0.45872065584E+01 -0.29329988419E+03  0.33009285034E+03  0.00000000000E+00 0. -1.
         -2    1    5    5    0  503 -0.23284821340E+03  0.10827734398E+03 -0.50088414072E+03  0.56287404997E+03  0.00000000000E+00 0.  1.
         -1    1    6    6    0  502  0.42241782710E+03  0.11251607656E+03 -0.12598497809E+04  0.13335359607E+04  0.00000000000E+00 0.  1.
<mgrwt>
<rscale>  0 0.13072140E+04</rscale>
<asrwt>0</asrwt>
<pdfrwt beam="1">  1        2 0.42130664E+00 0.13072140E+04</pdfrwt>
<pdfrwt beam="2">  1       -2 0.23999840E-01 0.13072140E+04</pdfrwt>
<totfact> 0.38397316E+01</totfact>
</mgrwt>
</event>
<event>
12    1  0.1556559E-007  0.2446086E+04  0.7818608E-02  0.8422449E-01
         -2   -1    0    0    0  501 -0.00000000000E+00  0.00000000000E+00  0.88150726525E+03  0.88150726525E+03  0.00000000000E+00 0.  1.
          2   -1    0    0  501    0  0.00000000000E+00 -0.00000000000E+00 -0.16969044842E+04  0.16969044842E+04  0.00000000000E+00 0. -1.
         23    2    1    2    0    0  0.29499486048E+01  0.60443090121E+03 -0.12698415219E+04  0.14092619371E+04  0.90422895378E+02 0.  0.
        254    2    1    2    0    0 -0.29499486048E+01 -0.60443090121E+03  0.45444430302E+03  0.11691498123E+04  0.89165365614E+03 0.  0.
        -24    2    4    4    0    0  0.36875694068E+03 -0.16634812747E+03 -0.31146323087E+02  0.41360406388E+03  0.80279806953E+02 0.  0.
         24    2    4    4    0    0 -0.37170688928E+03 -0.43808277374E+03  0.48559062611E+03  0.75554574842E+03  0.70488251466E+02 0.  0.
         13    1    3    3    0    0 -0.27009119772E+02  0.65446748202E+02 -0.12899778950E+03  0.14715026027E+03  0.00000000000E+00 0.  1.
        -13    1    3    3    0    0  0.29959068377E+02  0.53898415301E+03 -0.11408437324E+04  0.12621116768E+04  0.00000000000E+00 0. -1.
          4    1    6    6  502    0 -0.87425569250E+01  0.11519543875E+01  0.10142433477E+02  0.13439801239E+02  0.00000000000E+00 0. -1.
          1    1    5    5  503    0  0.22759315279E+02 -0.32775573465E+02 -0.14122653310E+02  0.42328170105E+02  0.00000000000E+00 0. -1.
         -2    1    5    5    0  503  0.34599762540E+03 -0.13357255401E+03 -0.17023669777E+02  0.37127589377E+03  0.00000000000E+00 0.  1.
         -3    1    6    6    0  502 -0.36296433236E+03 -0.43923472813E+03  0.47544819263E+03  0.74210594718E+03  0.00000000000E+00 0.  1.
<mgrwt>
<rscale>  0 0.24460856E+04</rscale>
<asrwt>0</asrwt>
<pdfrwt beam="1">  1        2 0.26106223E+00 0.24460856E+04</pdfrwt>
<pdfrwt beam="2">  1       -2 0.13561650E+00 0.24460856E+04</pdfrwt>
<totfact> 0.34399127E+00</totfact>
</mgrwt>
</event>
<event>
12    1  0.1556559E-007  0.1209852E+04  0.7818608E-02  0.9104277E-01
         -2   -1    0    0    0  501 -0.00000000000E+00  0.00000000000E+00  0.95647157035E+03  0.95647157035E+03  0.00000000000E+00 0.  1.
          2   -1    0    0  501    0  0.00000000000E+00 -0.00000000000E+00 -0.38258880794E+03  0.38258880794E+03  0.00000000000E+00 0. -1.
         23    2    1    2    0    0  0.11847743463E+02  0.25466974848E+03  0.71814391451E+02  0.27917216512E+03  0.88219845504E+02 0.  0.
        254    2    1    2    0    0 -0.11847743463E+02 -0.25466974848E+03  0.50206837096E+03  0.10598882132E+04  0.89793837511E+03 0.  0.
        -24    2    4    4    0    0  0.17251953968E+03 -0.22181958186E+02 -0.21075598790E+03  0.28347829793E+03  0.75411061001E+02 0.  0.
         24    2    4    4    0    0 -0.18436728314E+03 -0.23248779029E+03  0.71282435886E+03  0.77640991525E+03  0.81559317031E+02 0.  0.
         11    1    3    3    0    0 -0.43454922296E+01 -0.38323689189E+01 -0.63790594980E+01  0.86175840191E+01  0.00000000000E+00 0.  1.
        -11    1    3    3    0    0  0.16193235693E+02  0.25850211740E+03  0.78193450949E+02  0.27055458110E+03  0.00000000000E+00 0. -1.
          4    1    6    6  502    0 -0.43011124671E+02 -0.37371973146E+02  0.72202963516E+02  0.91977655780E+02  0.00000000000E+00 0. -1.
          1    1    5    5  503    0  0.28329945742E+02  0.96800623536E+01 -0.82935627297E+02  0.88173735931E+02  0.00000000000E+00 0. -1.
         -2    1    5    5    0  503  0.14418959394E+03 -0.31862020540E+02 -0.12782036060E+03  0.19530456200E+03  0.00000000000E+00 0.  1.
         -3    1    6    6    0  502 -0.14135615847E+03 -0.19511581715E+03  0.64062139534E+03  0.68443225947E+03  0.00000000000E+00 0.  1.
<mgrwt>
<rscale>  0 0.12098518E+04</rscale>
<asrwt>0</asrwt>
<pdfrwt beam="1">  1        2 0.58859817E-01 0.12098518E+04</pdfrwt>
<pdfrwt beam="2">  1       -2 0.14714947E+00 0.12098518E+04</pdfrwt>
<totfact> 0.25964286E+01</totfact>
</mgrwt>
</event>
<event>
12    1  0.1556559E-007  0.1876341E+04  0.7818608E-02  0.8666723E-01
         -4   -1    0    0    0  501 -0.00000000000E+00  0.00000000000E+00  0.61497827595E+03  0.61497827595E+03  0.00000000000E+00 0.  1.
          4   -1    0    0  501    0  0.00000000000E+00 -0.00000000000E+00 -0.14312112148E+04  0.14312112148E+04  0.00000000000E+00 0. -1.
         23    2    1    2    0    0  0.63759628569E+03  0.28657645420E+03 -0.57613778583E+03  0.91043921806E+03  0.91157741860E+02 0.  0.
        254    2    1    2    0    0 -0.63759628569E+03 -0.28657645420E+03 -0.24009515297E+03  0.11357502726E+04  0.86233862937E+03 0.  0.
        -24    2    4    4    0    0 -0.55155590124E+03  0.12790094771E+03 -0.37381958945E+03  0.68344677736E+03  0.82376255120E+02 0.  0.
         24    2    4    4    0    0 -0.86040384445E+02 -0.41447740191E+03  0.13372443647E+03  0.45230349529E+03  0.86612715546E+02 0.  0.
         13    1    3    3    0    0  0.62073056733E+03  0.25901661763E+03 -0.54760807005E+03  0.86733536986E+03  0.00000000000E+00 0. -1.
        -13    1    3    3    0    0  0.16865718358E+02  0.27559836568E+02 -0.28529715781E+02  0.43103848203E+02  0.00000000000E+00 0.  1.
          2    1    6    6  502    0 -0.79295977867E+02 -0.23916758854E+03  0.11122582406E+03  0.27542725256E+03  0.00000000000E+00 0. -1.
          1    1    5    5  503    0 -0.16023447397E+03  0.39727813832E+02 -0.15531586448E+03  0.22666363537E+03  0.00000000000E+00 0. -1.
         -2    1    5    5    0  503 -0.39132142727E+03  0.88173133874E+02 -0.21850372497E+03  0.45678314199E+03  0.00000000000E+00 0.  1.
         -1    1    6    6    0  502 -0.67444065786E+01 -0.17530981337E+03  0.22498612418E+02  0.17687624273E+03  0.00000000000E+00 0.  1.
<mgrwt>
<rscale>  0 0.18763409E+04</rscale>
<asrwt>0</asrwt>
<pdfrwt beam="1">  1        4 0.22018634E+00 0.18763409E+04</pdfrwt>
<pdfrwt beam="2">  1       -4 0.94612042E-01 0.18763409E+04</pdfrwt>
<totfact> 0.17196436E-01</totfact>
</mgrwt>
</event>
<event>
12    1  0.2017585E-007  0.1824729E+04  0.7818608E-02  0.8693258E-01
         -2   -1    0    0    0  501 -0.00000000000E+00  0.00000000000E+00  0.77848728870E+03  0.77848728870E+03  0.00000000000E+00 0.  1.
          2   -1    0    0  501    0  0.00000000000E+00 -0.00000000000E+00 -0.10692643200E+04  0.10692643200E+04  0.00000000000E+00 0. -1.
         23    2    1    2    0    0  0.38905285008E+03 -0.49244444869E+03  0.17223997541E+03  0.65710345848E+03  0.90855329040E+02 0.  0.
        254    2    1    2    0    0 -0.38905285008E+03  0.49244444869E+03 -0.46301700667E+03  0.11906481502E+04  0.89966361150E+03 0.  0.
        -24    2    4    4    0    0 -0.15818557817E+03  0.84950342117E+02  0.26004030864E+03  0.32529081794E+03  0.77161624848E+02 0.  0.
         24    2    4    4    0    0 -0.23086727191E+03  0.40749410657E+03 -0.72305731531E+03  0.86535733224E+03  0.81733023363E+02 0.  0.
         13    1    3    3    0    0  0.14940592110E+02 -0.32921419519E+02  0.31764297351E+02  0.48124959656E+02  0.00000000000E+00 0. -1.
        -13    1    3    3    0    0  0.37411225797E+03 -0.45952302917E+03  0.14047567806E+03  0.60897849882E+03  0.00000000000E+00 0.  1.
          2    1    6    6  502    0 -0.26397196071E+02  0.97047214698E+01 -0.45472213921E+02  0.53466960060E+02  0.00000000000E+00 0. -1.
          1    1    5    5  503    0 -0.39625961775E+01  0.53388862963E+01  0.60360721808E+02  0.60725798574E+02  0.00000000000E+00 0. -1.
         -2    1    5    5    0  503 -0.15422298199E+03  0.79611455821E+02  0.19967958683E+03  0.26456501936E+03  0.00000000000E+00 0.  1.
         -1    1    6    6    0  502 -0.20447007584E+03  0.39778938510E+03 -0.67758510139E+03  0.81189037218E+03  0.00000000000E+00 0.  1.
<mgrwt>
<rscale>  0 0.18247287E+04</rscale>
<asrwt>0</asrwt>
<pdfrwt beam="1">  1        2 0.16450220E+00 0.18247287E+04</pdfrwt>
<pdfrwt beam="2">  1       -2 0.11976728E+00 0.18247287E+04</pdfrwt>
<totfact> 0.11446405E+01</totfact>
</mgrwt>
</event>
<event>
12    1  0.1996923E-007  0.2391047E+04  0.7818608E-02  0.8442863E-01
          2   -1    0    0  501    0  0.00000000000E+00  0.00000000000E+00  0.21659878333E+04  0.21659878333E+04  0.00000000000E+00 0. -1.
         -2   -1    0    0    0  501 -0.00000000000E+00 -0.00000000000E+00 -0.65987290214E+03  0.65987290214E+03  0.00000000000E+00 0.  1.
         23    2    1    2    0    0 -0.68388268492E+03  0.21855899466E+03  0.14655637666E+04  0.16344952643E+04  0.90741689583E+02 0.  0.
        254    2    1    2    0    0  0.68388268492E+03 -0.21855899466E+03  0.40551164555E+02  0.11913654711E+04  0.94986511039E+03 0.  0.
        -24    2    4    4    0    0  0.90573397116E+03 -0.25990351006E+03  0.77318487694E+02  0.94909300844E+03  0.83039322474E+02 0.  0.
         24    2    4    4    0    0 -0.22185128624E+03  0.41344515399E+02 -0.36767323139E+02  0.24227246268E+03  0.80104606364E+02 0.  0.
         13    1    3    3    0    0 -0.53798838741E+03  0.14407988578E+03  0.10677324173E+04  0.12042603678E+04  0.00000000000E+00 0.  1.
        -13    1    3    3    0    0 -0.14589429751E+03  0.74479108882E+02  0.39783134932E+03  0.43023489654E+03  0.00000000000E+00 0. -1.
          2    1    6    6  502    0 -0.12109978345E+03  0.26301503680E+01 -0.54617646087E+02  0.13287273049E+03  0.00000000000E+00 0. -1.
          3    1    5    5  503    0  0.28942909404E+03 -0.73678253309E+02  0.62320343019E+02  0.30509262633E+03  0.00000000000E+00 0. -1.
         -4    1    5    5    0  503  0.61630487712E+03 -0.18622525675E+03  0.14998144675E+02  0.64400038211E+03  0.00000000000E+00 0.  1.
         -1    1    6    6    0  502 -0.10075150279E+03  0.38714365031E+02  0.17850322948E+02  0.10939973219E+03  0.00000000000E+00 0.  1.
<mgrwt>
<rscale>  0 0.23910472E+04</rscale>
<asrwt>0</asrwt>
<pdfrwt beam="1">  1        2 0.33322889E+00 0.23910472E+04</pdfrwt>
<pdfrwt beam="2">  1       -2 0.10151891E+00 0.23910472E+04</pdfrwt>
<totfact> 0.38692847E+00</totfact>
</mgrwt>
</event>
<event>
12    1  0.1556559E-007  0.1606075E+04  0.7818608E-02  0.8816825E-01
         -2   -1    0    0    0  501 -0.00000000000E+00  0.00000000000E+00  0.78758427635E+03  0.78758427635E+03  0.00000000000E+00 0. -1.
          2   -1    0    0  501    0  0.00000000000E+00 -0.00000000000E+00 -0.81879371520E+03  0.81879371520E+03  0.00000000000E+00 0.  1.
         23    2    1    2    0    0 -0.40240084942E+03  0.35920154135E+03  0.16684197249E+03  0.57147715724E+03  0.88304623575E+02 0.  0.
        254    2    1    2    0    0  0.40240084942E+03 -0.35920154135E+03 -0.19805141134E+03  0.10349008343E+04  0.86072247815E+03 0.  0.
        -24    2    4    4    0    0  0.21737500608E+03 -0.34107911849E+03 -0.51435005578E+03  0.65942217861E+03  0.81821582908E+02 0.  0.
         24    2    4    4    0    0  0.18502584334E+03 -0.18122422856E+02  0.31629864445E+03  0.37547865569E+03  0.79852385619E+02 0.  0.
         11    1    3    3    0    0 -0.34583600085E+03  0.26118233567E+03  0.12986278358E+03  0.45241915798E+03  0.00000000000E+00 0. -1.
        -11    1    3    3    0    0 -0.56564848570E+02  0.98019205678E+02  0.36979188907E+02  0.11905799926E+03  0.00000000000E+00 0.  1.
          4    1    6    6  502    0  0.12364790533E+03 -0.44917175236E+01  0.13279792764E+03  0.18150556357E+03  0.00000000000E+00 0. -1.
          3    1    5    5  503    0  0.88289332643E+02 -0.21350705598E+03 -0.28006882468E+03  0.36306861028E+03  0.00000000000E+00 0. -1.
         -4    1    5    5    0  503  0.12908567343E+03 -0.12757206251E+03 -0.23428123110E+03  0.29635356833E+03  0.00000000000E+00 0.  1.
         -3    1    6    6    0  502  0.61377938008E+02 -0.13630705332E+02  0.18350071680E+03  0.19397309213E+03  0.00000000000E+00 0.  1.
<mgrwt>
<rscale>  0 0.16060748E+04</rscale>
<asrwt>0</asrwt>
<pdfrwt beam="1">  1        2 0.12596826E+00 0.16060748E+04</pdfrwt>
<pdfrwt beam="2">  1       -2 0.12116681E+00 0.16060748E+04</pdfrwt>
<totfact> 0.16588957E+01</totfact>
</mgrwt>
</event>
<event>
12    1  0.1824709E-007  0.2172816E+04  0.7818608E-02  0.8529829E-01
         -1   -1    0    0    0  501 -0.00000000000E+00  0.00000000000E+00  0.12659706110E+04  0.12659706110E+04  0.00000000000E+00 0.  1.
          1   -1    0    0  501    0  0.00000000000E+00 -0.00000000000E+00 -0.93231384169E+03  0.93231384169E+03  0.00000000000E+00 0. -1.
         23    2    1    2    0    0 -0.89952056648E+03  0.32835285670E+02  0.22485915716E+03  0.93225763359E+03  0.91253763311E+02 0.  0.
        254    2    1    2    0    0  0.89952056648E+03 -0.32835285670E+02  0.10879761211E+03  0.12660268191E+04  0.88361280021E+03 0.  0.
        -24    2    4    4    0    0  0.44465963129E+03 -0.43376453568E+03 -0.67704193984E+02  0.62999695236E+03  0.80239902664E+02 0.  0.
         24    2    4    4    0    0  0.45486093518E+03  0.40092925001E+03  0.17650180610E+03  0.63602986671E+03  0.75752029114E+02 0.  0.
         11    1    3    3    0    0 -0.20912818156E+02  0.14510759333E+02  0.11489312881E+02  0.27926911933E+02  0.00000000000E+00 0. -1.
        -11    1    3    3    0    0 -0.87860774832E+03  0.18324526337E+02  0.21336984428E+03  0.90433072165E+03  0.00000000000E+00 0.  1.
          4    1    6    6  502    0  0.67361729641E+02  0.97730359766E+02  0.42651563649E+02  0.12612684774E+03  0.00000000000E+00 0. -1.
          3    1    5    5  503    0  0.47205642192E+02 -0.23379049390E+02  0.94176759303E+01  0.53513037898E+02  0.00000000000E+00 0. -1.
         -4    1    5    5    0  503  0.39745398910E+03 -0.41038548629E+03 -0.77121869914E+02  0.57648391446E+03  0.00000000000E+00 0.  1.
         -3    1    6    6    0  502  0.38749920554E+03  0.30319889025E+03  0.13385024245E+03  0.50990301896E+03  0.00000000000E+00 0.  1.
<mgrwt>
<rscale>  0 0.21728156E+04</rscale>
<asrwt>0</asrwt>
<pdfrwt beam="1">  1        1 0.14343290E+00 0.21728156E+04</pdfrwt>
<pdfrwt beam="2">  1       -1 0.19476471E+00 0.21728156E+04</pdfrwt>
<totfact> 0.25610571E+00</totfact>
</mgrwt>
</event>
<event>
12    1  0.2018247E-007  0.1581257E+04  0.7818608E-02  0.8832146E-01
          2   -1    0    0  501    0  0.00000000000E+00  0.00000000000E+00  0.14575305072E+04  0.14575305072E+04  0.00000000000E+00 0. -1.
         -2   -1    0    0    0  501 -0.00000000000E+00 -0.00000000000E+00 -0.42887161781E+03  0.42887161781E+03  0.00000000000E+00 0.  1.
         23    2    1    2    0    0 -0.43161083175E+03  0.30574480909E+03  0.27127383073E+03  0.59925777468E+03  0.75845836400E+02 0.  0.
        254    2    1    2    0    0  0.43161083175E+03 -0.30574480909E+03  0.75738505864E+03  0.12871443503E+04  0.89629272736E+03 0.  0.
        -24    2    4    4    0    0  0.67583253066E+03 -0.61129505688E+02  0.45545238889E+03  0.82123403546E+03  0.80635206290E+02 0.  0.
         24    2    4    4    0    0 -0.24422169890E+03 -0.24461530340E+03  0.30193266975E+03  0.46591031485E+03  0.80176053479E+02 0.  0.
         11    1    3    3    0    0 -0.59963625722E+01  0.19987547040E+02  0.17520986274E+02  0.27247813872E+02  0.00000000000E+00 0. -1.
        -11    1    3    3    0    0 -0.42561446918E+03  0.28575726205E+03  0.25375284446E+03  0.57200996081E+03  0.00000000000E+00 0.  1.
          4    1    6    6  502    0 -0.14524581238E+03 -0.17114148164E+03  0.14871090965E+03  0.26925951682E+03  0.00000000000E+00 0. -1.
          1    1    5    5  503    0  0.57724400929E+03 -0.34404746104E+02  0.41304727298E+03  0.71063519652E+03  0.00000000000E+00 0. -1.
         -2    1    5    5    0  503  0.98588521364E+02 -0.26724759584E+02  0.42405115916E+02  0.11059883894E+03  0.00000000000E+00 0.  1.
         -3    1    6    6    0  502 -0.98975886528E+02 -0.73473821759E+02  0.15322176010E+03  0.19665079803E+03  0.00000000000E+00 0.  1.
<mgrwt>
<rscale>  0 0.15812571E+04</rscale>
<asrwt>0</asrwt>
<pdfrwt beam="1">  1        2 0.22423546E+00 0.15812571E+04</pdfrwt>
<pdfrwt beam="2">  1       -2 0.65980249E-01 0.15812571E+04</pdfrwt>
<totfact> 0.27233530E+01</totfact>
</mgrwt>
</event>
<event>
12    1  0.1913784E-007  0.1971829E+04  0.7818608E-02  0.8619906E-01
          1   -1    0    0  501    0  0.00000000000E+00  0.00000000000E+00  0.15363684471E+04  0.15363684471E+04  0.00000000000E+00 0. -1.
         -1   -1    0    0    0  501 -0.00000000000E+00 -0.00000000000E+00 -0.63267854905E+03  0.63267854905E+03  0.00000000000E+00 0.  1.
         23    2    1    2    0    0 -0.42242166044E+03  0.82645281321E+02  0.10649584603E+04  0.11523023818E+04  0.91618531146E+02 0.  0.
        254    2    1    2    0    0  0.42242166044E+03 -0.82645281321E+02 -0.16126856224E+03  0.10167446144E+04  0.90691331445E+03 0.  0.
        -24    2    4    4    0    0  0.45131686621E+03  0.28831371578E+03  0.10574111717E+03  0.55182487412E+03  0.80732864447E+02 0.  0.
         24    2    4    4    0    0 -0.28895205771E+02 -0.37095899710E+03 -0.26700967941E+03  0.46491974024E+03  0.80066756616E+02 0.  0.
         13    1    3    3    0    0 -0.37044663500E+03  0.88266122939E+02  0.85570967353E+03  0.93662194252E+03  0.00000000000E+00 0. -1.
        -13    1    3    3    0    0 -0.51975025436E+02 -0.56208416181E+01  0.20924878680E+03  0.21568043932E+03  0.00000000000E+00 0.  1.
          4    1    6    6  502    0 -0.23811783626E+02 -0.37338066010E+03 -0.26632294464E+03  0.45924724193E+03  0.00000000000E+00 0. -1.
          3    1    5    5  503    0  0.45303132294E+03  0.29073943773E+03  0.10655551422E+03  0.54874482032E+03  0.00000000000E+00 0. -1.
         -4    1    5    5    0  503 -0.17144567313E+01 -0.24257219480E+01 -0.81439704724E+00  0.30800537988E+01  0.00000000000E+00 0.  1.
         -3    1    6    6    0  502 -0.50834221449E+01  0.24216630021E+01 -0.68673477386E+00  0.56724983075E+01  0.00000000000E+00 0.  1.
<mgrwt>
<rscale>  0 0.19718290E+04</rscale>
<asrwt>0</asrwt>
<pdfrwt beam="1">  1        1 0.23636438E+00 0.19718290E+04</pdfrwt>
<pdfrwt beam="2">  1       -1 0.97335162E-01 0.19718290E+04</pdfrwt>
<totfact> 0.58181662E+00</totfact>
</mgrwt>
</event>
<event>
12    1  0.1556559E-007  0.1373973E+04  0.7818608E-02  0.8972877E-01
          2   -1    0    0  501    0  0.00000000000E+00  0.00000000000E+00  0.19740143098E+04  0.19740143098E+04  0.00000000000E+00 0.  1.
         -2   -1    0    0    0  501 -0.00000000000E+00 -0.00000000000E+00 -0.23908150450E+03  0.23908150450E+03  0.00000000000E+00 0. -1.
         23    2    1    2    0    0  0.13196583876E+03 -0.30974054169E+03  0.25692835088E+03  0.43276917111E+03  0.89010068002E+02 0.  0.
        254    2    1    2    0    0 -0.13196583876E+03  0.30974054169E+03  0.14780044544E+04  0.17803266432E+04  0.93365497022E+03 0.  0.
        -24    2    4    4    0    0 -0.89228001106E+02 -0.27281931821E+03  0.16284132782E+03  0.33921284644E+03  0.78460439542E+02 0.  0.
         24    2    4    4    0    0 -0.42737837651E+02  0.58255985991E+03  0.13151631266E+04  0.14411137967E+04  0.77151879370E+02 0.  0.
         11    1    3    3    0    0  0.97214512492E+02 -0.17537486691E+03  0.19860651775E+03  0.28222606945E+03  0.00000000000E+00 0. -1.
        -11    1    3    3    0    0  0.34751326265E+02 -0.13436567479E+03  0.58321833132E+02  0.15054310166E+03  0.00000000000E+00 0.  1.
          2    1    6    6  502    0 -0.63275618799E+02  0.47622143241E+03  0.10952659703E+04  0.11959925595E+04  0.00000000000E+00 0. -1.
          3    1    5    5  503    0 -0.10209510992E+03 -0.25963423518E+03  0.14998342015E+03  0.31674654516E+03  0.00000000000E+00 0. -1.
         -4    1    5    5    0  503  0.12867108816E+02 -0.13185083028E+02  0.12857907661E+02  0.22466301279E+02  0.00000000000E+00 0.  1.
         -1    1    6    6    0  502  0.20537781148E+02  0.10633842750E+03  0.21989715623E+03  0.24512123722E+03  0.00000000000E+00 0.  1.
<mgrwt>
<rscale>  0 0.13739728E+04</rscale>
<asrwt>0</asrwt>
<pdfrwt beam="1">  1        2 0.30369450E+00 0.13739728E+04</pdfrwt>
<pdfrwt beam="2">  1       -2 0.36781771E-01 0.13739728E+04</pdfrwt>
<totfact> 0.46925731E+01</totfact>
</mgrwt>
</event>
<event>
12    1  0.1556559E-007  0.1802966E+04  0.7818608E-02  0.8704724E-01
         -2   -1    0    0    0  501 -0.00000000000E+00  0.00000000000E+00  0.10719172705E+04  0.10719172705E+04  0.00000000000E+00 0.  1.
          2   -1    0    0  501    0  0.00000000000E+00 -0.00000000000E+00 -0.75814808497E+03  0.75814808497E+03  0.00000000000E+00 0. -1.
         23    2    1    2    0    0 -0.39170902353E+03  0.55540935903E+03  0.19590550719E+03  0.71591490151E+03  0.11063301155E+03 0.  0.
        254    2    1    2    0    0  0.39170902353E+03 -0.55540935903E+03  0.11786367832E+03  0.11141504539E+04  0.87494221072E+03 0.  0.
        -24    2    4    4    0    0 -0.25489737283E+03 -0.71030388536E+02  0.12239568440E+03  0.30223087746E+03  0.79654334209E+02 0.  0.
         24    2    4    4    0    0  0.64660639636E+03 -0.48437897050E+03 -0.45320060765E+01  0.81191957647E+03  0.80436563206E+02 0.  0.
         13    1    3    3    0    0 -0.33121411340E+03  0.40409391485E+03  0.17798582447E+03  0.55197249447E+03  0.00000000000E+00 0.  1.
        -13    1    3    3    0    0 -0.60494910134E+02  0.15131544418E+03  0.17919682716E+02  0.16394240705E+03  0.00000000000E+00 0. -1.
          4    1    6    6  502    0  0.59382892839E+03 -0.46905888282E+03 -0.89231801101E+01  0.75678838184E+03  0.00000000000E+00 0. -1.
          3    1    5    5  503    0 -0.26230487103E+02  0.14913550973E+02  0.25228250859E+02  0.39330866984E+02  0.00000000000E+00 0. -1.
         -4    1    5    5    0  503 -0.22866688573E+03 -0.85943939510E+02  0.97167433538E+02  0.26290001047E+03  0.00000000000E+00 0.  1.
         -3    1    6    6    0  502  0.52777467971E+02 -0.15320087678E+02  0.43911740336E+01  0.55131194630E+02  0.00000000000E+00 0.  1.
<mgrwt>
<rscale>  0 0.18029665E+04</rscale>
<asrwt>0</asrwt>
<pdfrwt beam="1">  1        2 0.11663817E+00 0.18029665E+04</pdfrwt>
<pdfrwt beam="2">  1       -2 0.16491035E+00 0.18029665E+04</pdfrwt>
<totfact> 0.80874891E+00</totfact>
</mgrwt>
</event>
<event>
12    1  0.1556559E-007  0.1896392E+04  0.7818608E-02  0.8656654E-01
         -1   -1    0    0    0  501 -0.00000000000E+00  0.00000000000E+00  0.25353970060E+03  0.25353970060E+03  0.00000000000E+00 0.  1.
          1   -1    0    0  501    0  0.00000000000E+00 -0.00000000000E+00 -0.35460954613E+04  0.35460954613E+04  0.00000000000E+00 0. -1.
         23    2    1    2    0    0  0.23223691938E+03  0.42643943008E+03 -0.23616383406E+04  0.24128529968E+04  0.93484533275E+02 0.  0.
        254    2    1    2    0    0 -0.23223691938E+03 -0.42643943008E+03 -0.93091742005E+03  0.13867821651E+04  0.90596520693E+03 0.  0.
        -24    2    4    4    0    0 -0.97789122123E+01  0.27462313696E+03 -0.22546945503E+03  0.36372941031E+03  0.77130501710E+02 0.  0.
         24    2    4    4    0    0 -0.22245800717E+03 -0.70106256705E+03 -0.70544796502E+03  0.10230527548E+04  0.89464069990E+02 0.  0.
         11    1    3    3    0    0  0.17035547515E+03  0.22429447400E+03 -0.14389948098E+04  0.14662997857E+04  0.00000000000E+00 0. -1.
        -11    1    3    3    0    0  0.61881444223E+02  0.20214495608E+03 -0.92264353083E+03  0.94655321107E+03  0.00000000000E+00 0.  1.
          4    1    6    6  502    0 -0.17020183906E+03 -0.63077306219E+03 -0.62006144347E+03  0.90073276597E+03  0.00000000000E+00 0. -1.
          1    1    5    5  503    0 -0.27030076453E+02  0.25774008071E+03 -0.21744034805E+03  0.33829111605E+03  0.00000000000E+00 0. -1.
         -2    1    5    5    0  503  0.17251164241E+02  0.16883056250E+02 -0.80291069841E+01  0.25438294262E+02  0.00000000000E+00 0.  1.
         -3    1    6    6    0  502 -0.52256168107E+02 -0.70289504855E+02 -0.85386521545E+02  0.12231998880E+03  0.00000000000E+00 0.  1.
<mgrwt>
<rscale>  0 0.18963923E+04</rscale>
<asrwt>0</asrwt>
<pdfrwt beam="1">  1        1 0.54555307E+00 0.18963923E+04</pdfrwt>
<pdfrwt beam="2">  1       -1 0.39006114E-01 0.18963923E+04</pdfrwt>
<totfact> 0.13792592E+00</totfact>
</mgrwt>
</event>
<event>
12    1  0.1653070E-007  0.1465048E+04  0.7818608E-02  0.8908034E-01
          2   -1    0    0  501    0  0.00000000000E+00  0.00000000000E+00  0.14918147891E+04  0.14918147891E+04  0.00000000000E+00 0. -1.
         -2   -1    0    0    0  501 -0.00000000000E+00 -0.00000000000E+00 -0.35969055633E+03  0.35969055633E+03  0.00000000000E+00 0.  1.
         23    2    1    2    0    0 -0.35944412378E+02  0.53034285409E+02  0.92833977436E+03  0.93504384480E+03  0.91583944251E+02 0.  0.
        254    2    1    2    0    0  0.35944412378E+02 -0.53034285409E+02  0.20378445838E+03  0.91646150059E+03  0.89121767284E+03 0.  0.
        -24    2    4    4    0    0  0.20541631571E+03 -0.32263965672E+03 -0.16388575756E+03  0.42359782767E+03  0.79274000971E+02 0.  0.
         24    2    4    4    0    0 -0.16947190333E+03  0.26960537131E+03  0.36767021593E+03  0.49286367292E+03  0.79532572832E+02 0.  0.
         13    1    3    3    0    0 -0.32444988779E+02  0.70961492937E+02  0.47740873896E+03  0.48374302560E+03  0.00000000000E+00 0. -1.
        -13    1    3    3    0    0 -0.34994235987E+01 -0.17927207527E+02  0.45093103540E+03  0.45130081921E+03  0.00000000000E+00 0.  1.
          2    1    6    6  502    0 -0.16341312263E+03  0.27491145528E+03  0.36186809559E+03  0.48293754824E+03  0.00000000000E+00 0. -1.
          3    1    5    5  503    0  0.15225512109E+03 -0.28927153268E+03 -0.12633663539E+03  0.35045768212E+03  0.00000000000E+00 0. -1.
         -4    1    5    5    0  503  0.53161194620E+02 -0.33368124039E+02 -0.37549122165E+02  0.73140145547E+02  0.00000000000E+00 0.  1.
         -1    1    6    6    0  502 -0.60587806951E+01 -0.53060839732E+01  0.58021203436E+01  0.99261246781E+01  0.00000000000E+00 0.  1.
<mgrwt>
<rscale>  0 0.14650484E+04</rscale>
<asrwt>0</asrwt>
<pdfrwt beam="1">  1        2 0.22950996E+00 0.14650484E+04</pdfrwt>
<pdfrwt beam="2">  1       -2 0.55337010E-01 0.14650484E+04</pdfrwt>
<totfact> 0.38144432E+01</totfact>
</mgrwt>
</event>
<event>
12    1  0.1556559E-007  0.1675830E+04  0.7818608E-02  0.8775271E-01
         -1   -1    0    0    0  501 -0.00000000000E+00  0.00000000000E+00  0.89191776602E+03  0.89191776602E+03  0.00000000000E+00 0.  1.
          1   -1    0    0  501    0  0.00000000000E+00 -0.00000000000E+00 -0.78718162471E+03  0.78718162471E+03  0.00000000000E+00 0. -1.
         23    2    1    2    0    0  0.18279030476E+03 -0.58716068541E+02 -0.52788580104E+03  0.56896732536E+03  0.90556756602E+02 0.  0.
        254    2    1    2    0    0 -0.18279030476E+03  0.58716068541E+02  0.63262194235E+03  0.11101320654E+04  0.89180872859E+03 0.  0.
        -24    2    4    4    0    0 -0.14585208894E+03 -0.36113675327E+03  0.54156077247E+03  0.67172938146E+03  0.78991804812E+02 0.  0.
         24    2    4    4    0    0 -0.36938215817E+02  0.41985282182E+03  0.91061169884E+02  0.43840268391E+03  0.79145137705E+02 0.  0.
         13    1    3    3    0    0  0.79104775420E+02 -0.31187223837E+02 -0.11909546476E+03  0.14633502025E+03  0.00000000000E+00 0.  1.
        -13    1    3    3    0    0  0.10368552934E+03 -0.27528844705E+02 -0.40879033629E+03  0.42263230511E+03  0.00000000000E+00 0. -1.
          2    1    6    6  502    0 -0.27132822452E+02  0.39302596647E+02  0.16229247587E+02  0.50440783446E+02  0.00000000000E+00 0. -1.
          1    1    5    5  503    0 -0.17203737016E+02 -0.50096703236E+02  0.34830691607E+02  0.63394205730E+02  0.00000000000E+00 0. -1.
         -2    1    5    5    0  503 -0.12864835192E+03 -0.31104005004E+03  0.50673008086E+03  0.60833517573E+03  0.00000000000E+00 0.  1.
         -1    1    6    6    0  502 -0.98053933650E+01  0.38055022517E+03  0.74831922297E+02  0.38796190046E+03  0.00000000000E+00 0.  1.
<mgrwt>
<rscale>  0 0.16758297E+04</rscale>
<asrwt>0</asrwt>
<pdfrwt beam="1">  1        1 0.12110487E+00 0.16758297E+04</pdfrwt>
<pdfrwt beam="2">  1       -1 0.13721812E+00 0.16758297E+04</pdfrwt>
<totfact> 0.95574567E+00</totfact>
</mgrwt>
</event>
<event>
12    1  0.1556559E-007  0.1635523E+04  0.7818608E-02  0.8799017E-01
          2   -1    0    0  501    0  0.00000000000E+00  0.00000000000E+00  0.34889775449E+04  0.34889775449E+04  0.00000000000E+00 0. -1.
         -2   -1    0    0    0  501 -0.00000000000E+00 -0.00000000000E+00 -0.19167055820E+03  0.19167055820E+03  0.00000000000E+00 0.  1.
         23    2    1    2    0    0 -0.17601410546E+03  0.51055837989E+03  0.15275875427E+04  0.16233515155E+04  0.10047695065E+03 0.  0.
        254    2    1    2    0    0  0.17601410546E+03 -0.51055837989E+03  0.17697194439E+04  0.20572965875E+04  0.89939508244E+03 0.  0.
        -24    2    4    4    0    0 -0.10940165436E+03 -0.91474148952E+02  0.14354939199E+04  0.14447275169E+04  0.79111074165E+02 0.  0.
         24    2    4    4    0    0  0.28541575982E+03 -0.41908423094E+03  0.33422552402E+03  0.61256907065E+03  0.80252207726E+02 0.  0.
         13    1    3    3    0    0 -0.17668266687E+03  0.43498524678E+03  0.13774449530E+04  0.14552606393E+04  0.00000000000E+00 0.  1.
        -13    1    3    3    0    0  0.66856140427E+00  0.75573133102E+02  0.15014258973E+03  0.16809087623E+03  0.00000000000E+00 0. -1.
          4    1    6    6  502    0 -0.43554153384E+01 -0.99779161182E+00  0.46410742327E+01  0.64424219750E+01  0.00000000000E+00 0. -1.
          1    1    5    5  503    0 -0.66267818228E+02 -0.17136074960E+02  0.41357517530E+03  0.41920101911E+03  0.00000000000E+00 0. -1.
         -2    1    5    5    0  503 -0.43133836135E+02 -0.74338073991E+02  0.10219187446E+04  0.10255264978E+04  0.00000000000E+00 0.  1.
         -3    1    6    6    0  502  0.28977117516E+03 -0.41808643932E+03  0.32958444978E+03  0.60612664868E+03  0.00000000000E+00 0.  1.
<mgrwt>
<rscale>  0 0.16355235E+04</rscale>
<asrwt>0</asrwt>
<pdfrwt beam="1">  1        2 0.53676573E+00 0.16355235E+04</pdfrwt>
<pdfrwt beam="2">  1       -2 0.29487781E-01 0.16355235E+04</pdfrwt>
<totfact> 0.84732297E+00</totfact>
</mgrwt>
</event>
<event>
12    1  0.1556559E-007  0.1392654E+04  0.7818608E-02  0.8959153E-01
         -2   -1    0    0    0  501 -0.00000000000E+00  0.00000000000E+00  0.33902810205E+03  0.33902810205E+03  0.00000000000E+00 0.  1.
          2   -1    0    0  501    0  0.00000000000E+00 -0.00000000000E+00 -0.14301808835E+04  0.14301808835E+04  0.00000000000E+00 0. -1.
         23    2    1    2    0    0  0.27478655033E+03 -0.28146123555E+03 -0.20816547351E+03  0.45420220257E+03  0.90767290912E+02 0.  0.
        254    2    1    2    0    0 -0.27478655033E+03  0.28146123555E+03 -0.88298730791E+03  0.13150067829E+04  0.89154258334E+03 0.  0.
        -24    2    4    4    0    0 -0.25299766213E+03  0.11473688590E+03 -0.10344131434E+04  0.10740325272E+04  0.79768090653E+02 0.  0.
         24    2    4    4    0    0 -0.21788888194E+02  0.16672434965E+03  0.15142583547E+03  0.24097425573E+03  0.82867628566E+02 0.  0.
         11    1    3    3    0    0  0.23960144064E+03 -0.23473147587E+03 -0.13761066039E+03  0.36255263063E+03  0.00000000000E+00 0. -1.
        -11    1    3    3    0    0  0.35185109691E+02 -0.46729759677E+02 -0.70554813116E+02  0.91649571942E+02  0.00000000000E+00 0.  1.
          2    1    6    6  502    0 -0.24803511634E+02  0.37140128998E+02  0.42583998461E+01  0.44863541330E+02  0.00000000000E+00 0. -1.
          1    1    5    5  503    0 -0.84195022157E+02 -0.12669566934E+01 -0.30073721387E+03  0.31230318400E+03  0.00000000000E+00 0. -1.
         -2    1    5    5    0  503 -0.16880263998E+03  0.11600384259E+03 -0.73367592952E+03  0.76172934321E+03  0.00000000000E+00 0.  1.
         -1    1    6    6    0  502  0.30146234401E+01  0.12958422065E+03  0.14716743562E+03  0.19611071440E+03  0.00000000000E+00 0.  1.
<mgrwt>
<rscale>  0 0.13926543E+04</rscale>
<asrwt>0</asrwt>
<pdfrwt beam="1">  1        2 0.22002782E+00 0.13926543E+04</pdfrwt>
<pdfrwt beam="2">  1       -2 0.52158171E-01 0.13926543E+04</pdfrwt>
<totfact> 0.46983879E+01</totfact>
</mgrwt>
</event>
<event>
12    1  0.1556559E-007  0.1940638E+04  0.7818608E-02  0.8634889E-01
         -2   -1    0    0    0  501 -0.00000000000E+00  0.00000000000E+00  0.44767748700E+03  0.44767748700E+03  0.00000000000E+00 0.  1.
          2   -1    0    0  501    0  0.00000000000E+00 -0.00000000000E+00 -0.21031179477E+04  0.21031179477E+04  0.00000000000E+00 0. -1.
         23    2    1    2    0    0  0.23917227809E+03 -0.71584403955E+03 -0.59618105132E+03  0.96616368685E+03  0.91675276161E+02 0.  0.
        254    2    1    2    0    0 -0.23917227809E+03  0.71584403955E+03 -0.10592594094E+04  0.15846317479E+04  0.90520230468E+03 0.  0.
        -24    2    4    4    0    0 -0.35865794455E+03  0.88011349577E+03 -0.92545336009E+03  0.13288709593E+04  0.78732573143E+02 0.  0.
         24    2    4    4    0    0  0.11948566646E+03 -0.16426945622E+03 -0.13380604934E+03  0.25576078862E+03  0.79045831142E+02 0.  0.
         11    1    3    3    0    0  0.21665980358E+03 -0.69562341596E+03 -0.58314153327E+03  0.93321350994E+03  0.00000000000E+00 0.  1.
        -11    1    3    3    0    0  0.22512474508E+02 -0.20220623598E+02 -0.13039518051E+02  0.32950176907E+02  0.00000000000E+00 0. -1.
          2    1    6    6  502    0  0.21893524454E+02 -0.91045686350E+02 -0.39847270587E+02  0.10176663692E+03  0.00000000000E+00 0. -1.
          1    1    5    5  503    0 -0.32757279503E+03  0.79606929481E+03 -0.86768625112E+03  0.12222559832E+04  0.00000000000E+00 0. -1.
         -2    1    5    5    0  503 -0.31085149512E+02  0.84044200964E+02 -0.57767108965E+02  0.10661497603E+03  0.00000000000E+00 0.  1.
         -1    1    6    6    0  502  0.97592142003E+02 -0.73223769869E+02 -0.93958778755E+02  0.15399415171E+03  0.00000000000E+00 0.  1.
<mgrwt>
<rscale>  0 0.19406376E+04</rscale>
<asrwt>0</asrwt>
<pdfrwt beam="1">  1        2 0.32355660E+00 0.19406376E+04</pdfrwt>
<pdfrwt beam="2">  1       -2 0.68873460E-01 0.19406376E+04</pdfrwt>
<totfact> 0.10521707E+01</totfact>
</mgrwt>
</event>
<event>
12    1  0.1556559E-007  0.1247106E+04  0.7818608E-02  0.9072596E-01
         -1   -1    0    0    0  501 -0.00000000000E+00  0.00000000000E+00  0.32595493194E+03  0.32595493194E+03  0.00000000000E+00 0.  1.
          1   -1    0    0  501    0  0.00000000000E+00 -0.00000000000E+00 -0.11928583518E+04  0.11928583518E+04  0.00000000000E+00 0. -1.
         23    2    1    2    0    0 -0.50571807651E+02 -0.15977931236E+03  0.78926370060E+02  0.20359464092E+03  0.84465789132E+02 0.  0.
        254    2    1    2    0    0  0.50571807651E+02  0.15977931236E+03 -0.94582978996E+03  0.13152186429E+04  0.89839810249E+03 0.  0.
        -24    2    4    4    0    0  0.41535789375E+03  0.19582821256E+03 -0.77309385727E+03  0.90261811186E+03  0.78577827552E+02 0.  0.
         24    2    4    4    0    0 -0.36478608610E+03 -0.36048900204E+02 -0.17273593269E+03  0.41260053099E+03  0.77672929092E+02 0.  0.
         13    1    3    3    0    0 -0.20334226158E+02  0.21693051252E+01 -0.10183276914E+01  0.20474951269E+02  0.00000000000E+00 0. -1.
        -13    1    3    3    0    0 -0.30237581494E+02 -0.16194861749E+03  0.79944697751E+02  0.18311968965E+03  0.00000000000E+00 0.  1.
          4    1    6    6  502    0 -0.14738640619E+03 -0.53037878543E+02 -0.71906784370E+02  0.17235531593E+03  0.00000000000E+00 0. -1.
          3    1    5    5  503    0  0.26474405794E+02  0.37713258007E+02 -0.75243963120E+02  0.88231728861E+02  0.00000000000E+00 0. -1.
         -4    1    5    5    0  503  0.38888348796E+03  0.15811495456E+03 -0.69784989415E+03  0.81438638300E+03  0.00000000000E+00 0.  1.
         -3    1    6    6    0  502 -0.21739967991E+03  0.16988978340E+02 -0.10082914832E+03  0.24024521507E+03  0.00000000000E+00 0.  1.
<mgrwt>
<rscale>  0 0.12471055E+04</rscale>
<asrwt>0</asrwt>
<pdfrwt beam="1">  1        1 0.18351667E+00 0.12471055E+04</pdfrwt>
<pdfrwt beam="2">  1       -1 0.50146912E-01 0.12471055E+04</pdfrwt>
<totfact> 0.42569436E+01</totfact>
</mgrwt>
</event>
<event>
12    1  0.1713320E-007  0.2098205E+04  0.7818608E-02  0.8562034E-01
          1   -1    0    0  501    0  0.00000000000E+00  0.00000000000E+00  0.11743835833E+04  0.11743835833E+04  0.00000000000E+00 0. -1.
         -1   -1    0    0    0  501 -0.00000000000E+00 -0.00000000000E+00 -0.93718634363E+03  0.93718634363E+03  0.00000000000E+00 0.  1.
         23    2    1    2    0    0  0.80132606716E+03  0.26726631353E+03 -0.21059447504E+02  0.85000248539E+03  0.92227851435E+02 0.  0.
        254    2    1    2    0    0 -0.80132606716E+03 -0.26726631353E+03  0.25825668721E+03  0.12615674416E+04  0.90072256821E+03 0.  0.
        -24    2    4    4    0    0 -0.62805305834E+03  0.25155032916E+03  0.11815223450E+03  0.69132944285E+03  0.79045783165E+02 0.  0.
         24    2    4    4    0    0 -0.17327300882E+03 -0.51881664269E+03  0.14010445271E+03  0.57023799872E+03  0.79673541450E+02 0.  0.
         13    1    3    3    0    0  0.68607466950E+03  0.20328645732E+03  0.52781547560E+01  0.71557787471E+03  0.00000000000E+00 0.  1.
        -13    1    3    3    0    0  0.11525139766E+03  0.63979856205E+02 -0.26337602260E+02  0.13442461068E+03  0.00000000000E+00 0. -1.
          4    1    6    6  502    0 -0.11101718828E+03 -0.41037019814E+03  0.84745274945E+02  0.43348619037E+03  0.00000000000E+00 0. -1.
          1    1    5    5  503    0 -0.60646949318E+03  0.22781841668E+03  0.12126771492E+03  0.65909964028E+03  0.00000000000E+00 0. -1.
         -2    1    5    5    0  503 -0.21583565160E+02  0.23731912482E+02 -0.31154804215E+01  0.32229802564E+02  0.00000000000E+00 0.  1.
         -3    1    6    6    0  502 -0.62255820538E+02 -0.10844644454E+03  0.55359177765E+02  0.13675180835E+03  0.00000000000E+00 0.  1.
<mgrwt>
<rscale>  0 0.20982052E+04</rscale>
<asrwt>0</asrwt>
<pdfrwt beam="1">  1        1 0.18067440E+00 0.20982052E+04</pdfrwt>
<pdfrwt beam="2">  1       -1 0.14418251E+00 0.20982052E+04</pdfrwt>
<totfact> 0.39814740E+00</totfact>
</mgrwt>
</event>
<event>
12    1  0.1636796E-007  0.1652462E+04  0.7818608E-02  0.8788951E-01
          1   -1    0    0  501    0  0.00000000000E+00  0.00000000000E+00  0.19540246719E+04  0.19540246719E+04  0.00000000000E+00 0. -1.
         -1   -1    0    0    0  501 -0.00000000000E+00 -0.00000000000E+00 -0.34935966897E+03  0.34935966897E+03  0.00000000000E+00 0.  1.
         23    2    1    2    0    0 -0.13637528689E+03  0.51396241741E+03  0.26140189160E+03  0.59948870467E+03  0.91105283686E+02 0.  0.
        254    2    1    2    0    0  0.13637528689E+03 -0.51396241741E+03  0.13432631114E+04  0.17038956362E+04  0.90340963435E+03 0.  0.
        -24    2    4    4    0    0  0.23588493559E+03  0.19930861164E+03  0.33599832509E+03  0.46307591809E+03  0.78605381112E+02 0.  0.
         24    2    4    4    0    0 -0.99509648703E+02 -0.71327102905E+03  0.10072647863E+04  0.12408197181E+04  0.79959315894E+02 0.  0.
         11    1    3    3    0    0 -0.25403599862E+02  0.72916792588E+02  0.49489945259E+01  0.77373729871E+02  0.00000000000E+00 0. -1.
        -11    1    3    3    0    0 -0.11097168702E+03  0.44104562482E+03  0.25645289707E+03  0.52211497480E+03  0.00000000000E+00 0.  1.
          2    1    6    6  502    0 -0.41066788971E+02 -0.14512204874E+03  0.16947859518E+03  0.22686975209E+03  0.00000000000E+00 0. -1.
          1    1    5    5  503    0  0.95509140666E+01  0.10922314472E+02 -0.21614038206E+01  0.14669307394E+02  0.00000000000E+00 0. -1.
         -2    1    5    5    0  503  0.22633402152E+03  0.18838629717E+03  0.33815972891E+03  0.44840661069E+03  0.00000000000E+00 0.  1.
         -1    1    6    6    0  502 -0.58442859732E+02 -0.56814898030E+03  0.83778619109E+03  0.10139499661E+04  0.00000000000E+00 0.  1.
<mgrwt>
<rscale>  0 0.16524617E+04</rscale>
<asrwt>0</asrwt>
<pdfrwt beam="1">  1        1 0.30061917E+00 0.16524617E+04</pdfrwt>
<pdfrwt beam="2">  1       -1 0.53747642E-01 0.16524617E+04</pdfrwt>
<totfact> 0.10690586E+01</totfact>
</mgrwt>
</event>
<event>
12    1  0.3686163E-007  0.1655338E+04  0.7818608E-02  0.8787255E-01
         -1   -1    0    0    0  501 -0.00000000000E+00  0.00000000000E+00  0.69521776497E+03  0.69521776497E+03  0.00000000000E+00 0.  1.
          1   -1    0    0  501    0  0.00000000000E+00 -0.00000000000E+00 -0.98535417867E+03  0.98535417867E+03  0.00000000000E+00 0. -1.
         23    2    1    2    0    0 -0.25072670256E+03  0.23502807988E+03 -0.56676764190E+03  0.67257033145E+03  0.11411929343E+03 0.  0.
        254    2    1    2    0    0  0.25072670256E+03 -0.23502807988E+03  0.27663122819E+03  0.10080016122E+04  0.90633345744E+03 0.  0.
        -24    2    4    4    0    0  0.34500363358E+03 -0.32618383486E+03 -0.18936407627E+03  0.51724912648E+03  0.79148620664E+02 0.  0.
         24    2    4    4    0    0 -0.94276931020E+02  0.91155754986E+02  0.46599530446E+03  0.49075248571E+03  0.80553504374E+02 0.  0.
         11    1    3    3    0    0 -0.41653770299E+01 -0.11222493510E+02 -0.93386951688E+01  0.15182422528E+02  0.00000000000E+00 0.  1.
        -11    1    3    3    0    0 -0.24656132553E+03  0.24625057339E+03 -0.55742894673E+03  0.65738790892E+03  0.00000000000E+00 0. -1.
          4    1    6    6  502    0 -0.10353667474E+03  0.90730871101E+02  0.45882710229E+03  0.47903469998E+03  0.00000000000E+00 0. -1.
          1    1    5    5  503    0  0.31815690845E+03 -0.32433715372E+03 -0.18112423260E+03  0.48910570975E+03  0.00000000000E+00 0. -1.
         -2    1    5    5    0  503  0.26846725133E+02 -0.18466811473E+01 -0.82398436687E+01  0.28143416731E+02  0.00000000000E+00 0.  1.
         -3    1    6    6    0  502  0.92597437246E+01  0.42488388494E+00  0.71682021643E+01  0.11717785731E+02  0.00000000000E+00 0.  1.
<mgrwt>
<rscale>  0 0.16553377E+04</rscale>
<asrwt>0</asrwt>
<pdfrwt beam="1">  1        1 0.15159295E+00 0.16553377E+04</pdfrwt>
<pdfrwt beam="2">  1       -1 0.10695658E+00 0.16553377E+04</pdfrwt>
<totfact> 0.12103135E+01</totfact>
</mgrwt>
</event>
<event>
12    1  0.1556559E-007  0.1359206E+04  0.7818608E-02  0.8983888E-01
          1   -1    0    0  501    0  0.00000000000E+00  0.00000000000E+00  0.19914340544E+04  0.19914340544E+04  0.00000000000E+00 0. -1.
         -1   -1    0    0    0  501 -0.00000000000E+00 -0.00000000000E+00 -0.23192352863E+03  0.23192352863E+03  0.00000000000E+00 0.  1.
         23    2    1    2    0    0 -0.17428262176E+03  0.34327785443E+02  0.10506432869E+04  0.10693832102E+04  0.90422921343E+02 0.  0.
        254    2    1    2    0    0  0.17428262176E+03 -0.34327785443E+02  0.70886723879E+03  0.11539743728E+04  0.89309084744E+03 0.  0.
        -24    2    4    4    0    0  0.25149225031E+02 -0.17093444823E+03  0.86553893122E+03  0.88618908587E+03  0.79513428685E+02 0.  0.
         24    2    4    4    0    0  0.14913339673E+03  0.13660666279E+03 -0.15667169244E+03  0.26778528694E+03  0.79125156238E+02 0.  0.
         13    1    3    3    0    0 -0.54204858923E+02  0.55141252145E+02  0.38908743290E+03  0.39669604846E+03  0.00000000000E+00 0. -1.
        -13    1    3    3    0    0 -0.12007776284E+03 -0.20813466702E+02  0.66155585405E+03  0.67268716172E+03  0.00000000000E+00 0.  1.
          2    1    6    6  502    0  0.56051574273E+02  0.98769883499E+02 -0.10558387659E+03  0.15506522454E+03  0.00000000000E+00 0. -1.
          3    1    5    5  503    0 -0.26609850350E+02 -0.74813878411E+02  0.30866219801E+03  0.31871233584E+03  0.00000000000E+00 0. -1.
         -4    1    5    5    0  503  0.51759075381E+02 -0.96120569822E+02  0.55687673321E+03  0.56747675003E+03  0.00000000000E+00 0.  1.
         -1    1    6    6    0  502  0.93081822460E+02  0.37836779291E+02 -0.51087815844E+02  0.11272006240E+03  0.00000000000E+00 0.  1.
<mgrwt>
<rscale>  0 0.13592063E+04</rscale>
<asrwt>0</asrwt>
<pdfrwt beam="1">  1        1 0.30637446E+00 0.13592063E+04</pdfrwt>
<pdfrwt beam="2">  1       -1 0.35680544E-01 0.13592063E+04</pdfrwt>
<totfact> 0.22166184E+01</totfact>
</mgrwt>
</event>
<event>
12    1  0.1556559E-007  0.1229574E+04  0.7818608E-02  0.9087357E-01
          1   -1    0    0  501    0  0.00000000000E+00  0.00000000000E+00  0.84168905779E+03  0.84168905779E+03  0.00000000000E+00 0. -1.
         -1   -1    0    0    0  501 -0.00000000000E+00 -0.00000000000E+00 -0.44905323338E+03  0.44905323338E+03  0.00000000000E+00 0.  1.
         23    2    1    2    0    0  0.18474518488E+03  0.10418819934E+03  0.36553926402E+03  0.43422732904E+03  0.99741944646E+02 0.  0.
        254    2    1    2    0    0 -0.18474518488E+03 -0.10418819934E+03  0.27096560391E+02  0.85651496213E+03  0.82939598055E+03 0.  0.
        -24    2    4    4    0    0 -0.39635808727E+03  0.17766711379E+03  0.16225738214E+03  0.47071512482E+03  0.81116792397E+02 0.  0.
         24    2    4    4    0    0  0.21161290238E+03 -0.28185531312E+03 -0.13516082175E+03  0.38579983732E+03  0.79690832261E+02 0.  0.
         13    1    3    3    0    0  0.21793925774E+02  0.46879095851E+02  0.14598325697E+03  0.15486683358E+03  0.00000000000E+00 0. -1.
        -13    1    3    3    0    0  0.16295125911E+03  0.57309103486E+02  0.21955600705E+03  0.27936049546E+03  0.00000000000E+00 0.  1.
          4    1    6    6  502    0  0.13382816595E+02 -0.64095631863E+02 -0.11805870240E+02  0.66533663480E+02  0.00000000000E+00 0. -1.
          1    1    5    5  503    0 -0.85414102603E+01  0.17426589695E+02 -0.31735507114E+01  0.19665023309E+02  0.00000000000E+00 0. -1.
         -2    1    5    5    0  503 -0.38781667701E+03  0.16024052409E+03  0.16543093285E+03  0.45105010151E+03  0.00000000000E+00 0.  1.
         -3    1    6    6    0  502  0.19823008579E+03 -0.21775968126E+03 -0.12335495151E+03  0.31926617384E+03  0.00000000000E+00 0.  1.
<mgrwt>
<rscale>  0 0.12295742E+04</rscale>
<asrwt>0</asrwt>
<pdfrwt beam="1">  1        1 0.12949062E+00 0.12295742E+04</pdfrwt>
<pdfrwt beam="2">  1       -1 0.69085113E-01 0.12295742E+04</pdfrwt>
<totfact> 0.42625192E+01</totfact>
</mgrwt>
</event>
<event>
12    1  0.1556559E-007  0.1695317E+04  0.7818608E-02  0.8764039E-01
         -1   -1    0    0    0  501 -0.00000000000E+00  0.00000000000E+00  0.46847375190E+03  0.46847375190E+03  0.00000000000E+00 0.  1.
          1   -1    0    0  501    0  0.00000000000E+00 -0.00000000000E+00 -0.15337579479E+04  0.15337579479E+04  0.00000000000E+00 0. -1.
         23    2    1    2    0    0 -0.88923955241E+01  0.16001505727E+03 -0.10704826600E+04  0.10866212219E+04  0.95544027879E+02 0.  0.
        254    2    1    2    0    0  0.88923955241E+01 -0.16001505727E+03  0.51984639980E+01  0.91561047791E+03  0.90146083108E+03 0.  0.
        -24    2    4    4    0    0 -0.33752114917E+03  0.15597509935E+03  0.16422272506E+03  0.41400951578E+03  0.78651242693E+02 0.  0.
         24    2    4    4    0    0  0.34641354469E+03 -0.31599015662E+03 -0.15902426106E+03  0.50160096213E+03  0.80390836346E+02 0.  0.
         11    1    3    3    0    0  0.10634886072E+02  0.12891105271E+03 -0.55678241362E+03  0.57160984634E+03  0.00000000000E+00 0. -1.
        -11    1    3    3    0    0 -0.19527281596E+02  0.31104004569E+02 -0.51370024637E+03  0.51501137555E+03  0.00000000000E+00 0.  1.
          2    1    6    6  502    0  0.15305259986E+03 -0.15252340379E+03 -0.11442890119E+03  0.24450452032E+03  0.00000000000E+00 0. -1.
          1    1    5    5  503    0 -0.21594639690E+03  0.78543730367E+02  0.13636605428E+03  0.26720341441E+03  0.00000000000E+00 0. -1.
         -2    1    5    5    0  503 -0.12157475227E+03  0.77431368983E+02  0.27856670779E+02  0.14680610137E+03  0.00000000000E+00 0.  1.
         -1    1    6    6    0  502  0.19336094483E+03 -0.16346675283E+03 -0.44595359872E+02  0.25709644181E+03  0.00000000000E+00 0.  1.
<mgrwt>
<rscale>  0 0.16953175E+04</rscale>
<asrwt>0</asrwt>
<pdfrwt beam="1">  1        1 0.23596276E+00 0.16953175E+04</pdfrwt>
<pdfrwt beam="2">  1       -1 0.72072885E-01 0.16953175E+04</pdfrwt>
<totfact> 0.11462764E+01</totfact>
</mgrwt>
</event>
<event>
12    1  0.1556559E-007  0.1781310E+04  0.7818608E-02  0.8716302E-01
          2   -1    0    0  501    0  0.00000000000E+00  0.00000000000E+00  0.78098366253E+03  0.78098366253E+03  0.00000000000E+00 0. -1.
         -2   -1    0    0    0  501 -0.00000000000E+00 -0.00000000000E+00 -0.10157277044E+04  0.10157277044E+04  0.00000000000E+00 0.  1.
         23    2    1    2    0    0 -0.42143582689E+03 -0.15760611562E+03 -0.52304965751E+03  0.69623982379E+03  0.93386852141E+02 0.  0.
        254    2    1    2    0    0  0.42143582689E+03  0.15760611562E+03  0.28830561567E+03  0.11004715431E+04  0.96201332906E+03 0.  0.
        -24    2    4    4    0    0  0.23690206941E+03 -0.33209486386E+03 -0.11952785533E+03  0.43205624940E+03  0.77305273787E+02 0.  0.
         24    2    4    4    0    0  0.18453375748E+03  0.48970097947E+03  0.40783347100E+03  0.66841529371E+03  0.81185638174E+02 0.  0.
         11    1    3    3    0    0 -0.21999187378E+03 -0.12665587700E+03 -0.32113022526E+03  0.40934430163E+03  0.00000000000E+00 0.  1.
        -11    1    3    3    0    0 -0.20144395311E+03 -0.30950238620E+02 -0.20191943225E+03  0.28689552216E+03  0.00000000000E+00 0. -1.
          4    1    6    6  502    0  0.12333619837E+03  0.39105432896E+03  0.28470990769E+03  0.49919438856E+03  0.00000000000E+00 0. -1.
          1    1    5    5  503    0  0.21976178411E+03 -0.27263142706E+03 -0.81885369404E+02  0.35962251112E+03  0.00000000000E+00 0. -1.
         -4    1    5    5    0  503  0.17140285303E+02 -0.59463436790E+02 -0.37642485928E+02  0.72433738285E+02  0.00000000000E+00 0.  1.
         -3    1    6    6    0  502  0.61197559103E+02  0.98646650511E+02  0.12312356331E+03  0.16922090515E+03  0.00000000000E+00 0.  1.
<mgrwt>
<rscale>  0 0.17813105E+04</rscale>
<asrwt>0</asrwt>
<pdfrwt beam="1">  1        2 0.12015133E+00 0.17813105E+04</pdfrwt>
<pdfrwt beam="2">  1       -2 0.15626580E+00 0.17813105E+04</pdfrwt>
<totfact> 0.90261009E+00</totfact>
</mgrwt>
</event>
<event>
12    1  0.1556559E-007  0.1350926E+04  0.7818608E-02  0.8990128E-01
         -1   -1    0    0    0  501 -0.00000000000E+00  0.00000000000E+00  0.85285176800E+03  0.85285176800E+03  0.00000000000E+00 0.  1.
          1   -1    0    0  501    0  0.00000000000E+00 -0.00000000000E+00 -0.53496995522E+03  0.53496995522E+03  0.00000000000E+00 0. -1.
         23    2    1    2    0    0 -0.37148613656E+02 -0.22339917060E+03  0.38295225408E+03  0.45370995219E+03  0.88955510734E+02 0.  0.
        254    2    1    2    0    0  0.37148613656E+02  0.22339917060E+03 -0.65070441298E+02  0.93411177103E+03  0.90390454668E+03 0.  0.
        -24    2    4    4    0    0  0.17415895951E+03  0.42856547482E+03 -0.32208619828E+03  0.56924624276E+03  0.79385492280E+02 0.  0.
         24    2    4    4    0    0 -0.13701034585E+03 -0.20516630422E+03  0.25701575698E+03  0.36486552827E+03  0.78769963348E+02 0.  0.
         13    1    3    3    0    0 -0.25724925818E+02 -0.92841749258E+02  0.24581554168E+03  0.26402015595E+03  0.00000000000E+00 0. -1.
        -13    1    3    3    0    0 -0.11423687838E+02 -0.13055742134E+03  0.13713671240E+03  0.18968979624E+03  0.00000000000E+00 0.  1.
          4    1    6    6  502    0  0.68471900284E+01 -0.28194647932E+01  0.21176879425E+02  0.22434206364E+02  0.00000000000E+00 0. -1.
          3    1    5    5  503    0  0.18025361851E+02  0.10390380434E+03 -0.10406610786E+03  0.14815758175E+03  0.00000000000E+00 0. -1.
         -2    1    5    5    0  503  0.15613359766E+03  0.32466167049E+03 -0.21802009041E+03  0.42108866100E+03  0.00000000000E+00 0.  1.
         -3    1    6    6    0  502 -0.14385753588E+03 -0.20234683943E+03  0.23583887755E+03  0.34243132190E+03  0.00000000000E+00 0.  1.
<mgrwt>
<rscale>  0 0.13509257E+04</rscale>
<asrwt>0</asrwt>
<pdfrwt beam="1">  1        1 0.82303070E-01 0.13509257E+04</pdfrwt>
<pdfrwt beam="2">  1       -1 0.13120796E+00 0.13509257E+04</pdfrwt>
<totfact> 0.19563295E+01</totfact>
</mgrwt>
</event>
<event>
12    1  0.1556559E-007  0.2388110E+04  0.7818608E-02  0.8443968E-01
          2   -1    0    0  501    0  0.00000000000E+00  0.00000000000E+00  0.23721932568E+04  0.23721932568E+04  0.00000000000E+00 0. -1.
         -2   -1    0    0    0  501 -0.00000000000E+00 -0.00000000000E+00 -0.60103358809E+03  0.60103358809E+03  0.00000000000E+00 0.  1.
         23    2    1    2    0    0 -0.60734609742E+03  0.22218893858E+02 -0.26251024975E+03  0.66820274041E+03  0.90665924037E+02 0.  0.
        254    2    1    2    0    0  0.60734609742E+03 -0.22218893858E+02  0.20336699184E+04  0.23050241045E+04  0.89886585409E+03 0.  0.
        -24    2    4    4    0    0  0.23712155468E+03 -0.30099661481E+03  0.25945786322E+03  0.46950202344E+03  0.79298003792E+02 0.  0.
         24    2    4    4    0    0  0.37022454273E+03  0.27877772095E+03  0.17742120552E+04  0.18355220810E+04  0.80806331864E+02 0.  0.
         11    1    3    3    0    0 -0.54331657352E+03  0.37292924055E+02 -0.20869096613E+03  0.58321143729E+03  0.00000000000E+00 0.  1.
        -11    1    3    3    0    0 -0.64029523899E+02 -0.15074030197E+02 -0.53819283620E+02  0.84991303123E+02  0.00000000000E+00 0. -1.
          4    1    6    6  502    0  0.27632252171E+03  0.21286185643E+03  0.14579383595E+04  0.14990825748E+04  0.00000000000E+00 0. -1.
          1    1    5    5  503    0  0.21129310166E+03 -0.21475586714E+03  0.19987566373E+03  0.36154548570E+03  0.00000000000E+00 0. -1.
         -2    1    5    5    0  503  0.25828453022E+02 -0.86240747669E+02  0.59582199492E+02  0.10795653774E+03  0.00000000000E+00 0.  1.
         -3    1    6    6    0  502  0.93902021018E+02  0.65915864518E+02  0.31627369571E+03  0.33643950622E+03  0.00000000000E+00 0.  1.
<mgrwt>
<rscale>  0 0.23881104E+04</rscale>
<asrwt>0</asrwt>
<pdfrwt beam="1">  1        2 0.36495281E+00 0.23881104E+04</pdfrwt>
<pdfrwt beam="2">  1       -2 0.92466707E-01 0.23881104E+04</pdfrwt>
<totfact> 0.36841435E+00</totfact>
</mgrwt>
</event>
<event>
12    1  0.1556559E-007  0.1358199E+04  0.7818608E-02  0.8984645E-01
         -2   -1    0    0    0  501 -0.00000000000E+00  0.00000000000E+00  0.22265330404E+03  0.22265330404E+03  0.00000000000E+00 0.  1.
          2   -1    0    0  501    0  0.00000000000E+00 -0.00000000000E+00 -0.20712733799E+04  0.20712733799E+04  0.00000000000E+00 0. -1.
         23    2    1    2    0    0  0.16253752842E+03  0.15075367741E+03 -0.10608892817E+04  0.10877407698E+04  0.92459692256E+02 0.  0.
        254    2    1    2    0    0 -0.16253752842E+03 -0.15075367741E+03 -0.78773079408E+03  0.12061859141E+04  0.88612614007E+03 0.  0.
        -24    2    4    4    0    0 -0.44302734369E+02 -0.79303853158E+01 -0.94476891469E+03  0.94915985835E+03  0.79312743331E+02 0.  0.
         24    2    4    4    0    0 -0.11823479405E+03 -0.14282329210E+03  0.15703812060E+03  0.25702605579E+03  0.83806102057E+02 0.  0.
         13    1    3    3    0    0  0.25816943734E+02  0.73899618731E+02 -0.25552141946E+03  0.26724308043E+03  0.00000000000E+00 0.  1.
        -13    1    3    3    0    0  0.13672058469E+03  0.76854058684E+02 -0.80536786228E+03  0.82049768933E+03  0.00000000000E+00 0. -1.
          4    1    6    6  502    0 -0.34052977647E+02 -0.10568871238E+03  0.77575093808E+02  0.13545332919E+03  0.00000000000E+00 0. -1.
          3    1    5    5  503    0  0.13059196368E+02 -0.80128133049E+01 -0.44469917062E+02  0.47035319818E+02  0.00000000000E+00 0. -1.
         -4    1    5    5    0  503 -0.57361930738E+02  0.82427989109E-01 -0.90029899762E+03  0.90212453853E+03  0.00000000000E+00 0.  1.
         -3    1    6    6    0  502 -0.84181816407E+02 -0.37134579722E+02  0.79463026794E+02  0.12157272660E+03  0.00000000000E+00 0.  1.
<mgrwt>
<rscale>  0 0.13581986E+04</rscale>
<asrwt>0</asrwt>
<pdfrwt beam="1">  1        2 0.31865745E+00 0.13581986E+04</pdfrwt>
<pdfrwt beam="2">  1       -2 0.34254354E-01 0.13581986E+04</pdfrwt>
<totfact> 0.47564281E+01</totfact>
</mgrwt>
</event>
<event>
12    1  0.1556559E-007  0.2522349E+04  0.7818608E-02  0.8395067E-01
          2   -1    0    0  501    0  0.00000000000E+00  0.00000000000E+00  0.92410774977E+03  0.92410774977E+03  0.00000000000E+00 0. -1.
         -2   -1    0    0    0  501 -0.00000000000E+00 -0.00000000000E+00 -0.17211859039E+04  0.17211859039E+04  0.00000000000E+00 0.  1.
         23    2    1    2    0    0  0.57162504756E+03  0.72100902958E+02 -0.13306714803E+04  0.14528456265E+04  0.90111546481E+02 0.  0.
        254    2    1    2    0    0 -0.57162504756E+03 -0.72100902958E+02  0.53359332614E+03  0.11924480272E+04  0.89736097789E+03 0.  0.
        -24    2    4    4    0    0  0.23614880460E+03  0.17702246399E+02  0.12962768197E+03  0.28122702060E+03  0.78776098801E+02 0.  0.
         24    2    4    4    0    0 -0.80777385215E+03 -0.89803149357E+02  0.40396564417E+03  0.91122100659E+03  0.81069595532E+02 0.  0.
         13    1    3    3    0    0  0.55123795319E+03  0.86752500525E+02 -0.12703262449E+04  0.13874862327E+04  0.00000000000E+00 0.  1.
        -13    1    3    3    0    0  0.20387094367E+02 -0.14651597567E+02 -0.60345235403E+02  0.65359393846E+02  0.00000000000E+00 0. -1.
          2    1    6    6  502    0 -0.19931788602E+03 -0.10322504066E+02  0.13673945856E+03  0.24193357209E+03  0.00000000000E+00 0. -1.
          3    1    5    5  503    0  0.37069236228E+02 -0.22820858876E+02  0.74689385680E+01  0.44166785232E+02  0.00000000000E+00 0. -1.
         -4    1    5    5    0  503  0.19907956837E+03  0.40523105275E+02  0.12215874340E+03  0.23706023537E+03  0.00000000000E+00 0.  1.
         -1    1    6    6    0  502 -0.60845596613E+03 -0.79480645291E+02  0.26722618562E+03  0.66928743450E+03  0.00000000000E+00 0.  1.
<mgrwt>
<rscale>  0 0.25223491E+04</rscale>
<asrwt>0</asrwt>
<pdfrwt beam="1">  1        2 0.14217042E+00 0.25223491E+04</pdfrwt>
<pdfrwt beam="2">  1       -2 0.26479783E+00 0.25223491E+04</pdfrwt>
<totfact> 0.13112312E+00</totfact>
</mgrwt>
</event>
<event>
12    1  0.1556559E-007  0.2580852E+04  0.7818608E-02  0.8374734E-01
          1   -1    0    0  501    0  0.00000000000E+00  0.00000000000E+00  0.16038904090E+04  0.16038904090E+04  0.00000000000E+00 0. -1.
         -1   -1    0    0    0  501 -0.00000000000E+00 -0.00000000000E+00 -0.10382253499E+04  0.10382253499E+04  0.00000000000E+00 0.  1.
         23    2    1    2    0    0  0.16243675376E+03 -0.10406541256E+04  0.64367215865E+03  0.12386706207E+04  0.10317146264E+03 0.  0.
        254    2    1    2    0    0 -0.16243675376E+03  0.10406541256E+04 -0.78007099528E+02  0.14034451383E+04  0.92424371275E+03 0.  0.
        -24    2    4    4    0    0 -0.34748132705E+03  0.91558102205E+03 -0.34993951816E+03  0.10430199668E+04  0.80006900367E+02 0.  0.
         24    2    4    4    0    0  0.18504457329E+03  0.12507310351E+03  0.27193241863E+03  0.36042517152E+03  0.77937722783E+02 0.  0.
         11    1    3    3    0    0  0.10062038452E+03 -0.40998129028E+03  0.29894520049E+03  0.51727879626E+03  0.00000000000E+00 0. -1.
        -11    1    3    3    0    0  0.61816369234E+02 -0.63067283528E+03  0.34472695816E+03  0.72139182443E+03  0.00000000000E+00 0.  1.
          2    1    6    6  502    0  0.64976553416E+02  0.18912413773E+02  0.40338989470E+02  0.78783665566E+02  0.00000000000E+00 0. -1.
          3    1    5    5  503    0 -0.13917924972E+03  0.26887904524E+03 -0.12128224937E+03  0.32615362720E+03  0.00000000000E+00 0. -1.
         -4    1    5    5    0  503 -0.20830207733E+03  0.64670197681E+03 -0.22865726879E+03  0.71686633957E+03  0.00000000000E+00 0.  1.
         -1    1    6    6    0  502  0.12006801988E+03  0.10616068974E+03  0.23159342916E+03  0.28164150595E+03  0.00000000000E+00 0.  1.
<mgrwt>
<rscale>  0 0.25808523E+04</rscale>
<asrwt>0</asrwt>
<pdfrwt beam="1">  1        1 0.24675237E+00 0.25808523E+04</pdfrwt>
<pdfrwt beam="2">  1       -1 0.15972698E+00 0.25808523E+04</pdfrwt>
<totfact> 0.14366919E+00</totfact>
</mgrwt>
</event>
<event>
12    1  0.1556559E-007  0.1179155E+04  0.7818608E-02  0.9131301E-01
         -2   -1    0    0    0  501 -0.00000000000E+00  0.00000000000E+00  0.98981765912E+03  0.98981765912E+03  0.00000000000E+00 0.  1.
          2   -1    0    0  501    0  0.00000000000E+00 -0.00000000000E+00 -0.35117720888E+03  0.35117720888E+03  0.00000000000E+00 0. -1.
         23    2    1    2    0    0  0.97147158535E+02  0.15258693051E+03 -0.82006466759E+02  0.21675136754E+03  0.86808714816E+02 0.  0.
        254    2    1    2    0    0 -0.97147158535E+02 -0.15258693051E+03  0.72064691700E+03  0.11242435005E+04  0.84372455669E+03 0.  0.
        -24    2    4    4    0    0  0.13314108954E+03 -0.24070600158E+03  0.80171010891E+03  0.85173406417E+03  0.83939790402E+02 0.  0.
         24    2    4    4    0    0 -0.23028824808E+03  0.88119071069E+02 -0.81063191908E+02  0.27250943629E+03  0.83021105125E+02 0.  0.
         11    1    3    3    0    0  0.98571995362E+02  0.15337394016E+03 -0.56043917816E+02  0.19073784237E+03  0.00000000000E+00 0. -1.
        -11    1    3    3    0    0 -0.14248368273E+01 -0.78700964807E+00 -0.25962548943E+02  0.26013525170E+02  0.00000000000E+00 0.  1.
          4    1    6    6  502    0  0.66297361548E+01  0.62470058264E+01 -0.15722352594E+00  0.91106093382E+01  0.00000000000E+00 0. -1.
          3    1    5    5  503    0  0.43519457865E+02 -0.30051206724E+02  0.22761677569E+03  0.23368015494E+03  0.00000000000E+00 0. -1.
         -4    1    5    5    0  503  0.89621631678E+02 -0.21065479485E+03  0.57409333322E+03  0.61805390923E+03  0.00000000000E+00 0.  1.
         -3    1    6    6    0  502 -0.23691798423E+03  0.81872065242E+02 -0.80905968382E+02  0.26339882695E+03  0.00000000000E+00 0.  1.
<mgrwt>
<rscale>  0 0.11791546E+04</rscale>
<asrwt>0</asrwt>
<pdfrwt beam="1">  1        2 0.54027263E-01 0.11791546E+04</pdfrwt>
<pdfrwt beam="2">  1       -2 0.15227964E+00 0.11791546E+04</pdfrwt>
<totfact> 0.26153216E+01</totfact>
</mgrwt>
</event>
<event>
12    1  0.1556559E-007  0.1461651E+04  0.7818608E-02  0.8910363E-01
         -2   -1    0    0    0  501 -0.00000000000E+00  0.00000000000E+00  0.54698558056E+03  0.54698558056E+03  0.00000000000E+00 0.  1.
          2   -1    0    0  501    0  0.00000000000E+00 -0.00000000000E+00 -0.97645338330E+03  0.97645338330E+03  0.00000000000E+00 0. -1.
         23    2    1    2    0    0  0.12694714784E+03  0.70220115850E+02  0.30874090091E+03  0.35354294795E+03  0.92872111701E+02 0.  0.
        254    2    1    2    0    0 -0.12694714784E+03 -0.70220115850E+02 -0.73820870366E+03  0.11698960159E+04  0.89591191246E+03 0.  0.
        -24    2    4    4    0    0  0.33232081334E+03 -0.30167820239E+02 -0.63737455478E+02  0.34907279419E+03  0.80262893388E+02 0.  0.
         24    2    4    4    0    0 -0.45926796118E+03 -0.40052295612E+02 -0.67447124818E+03  0.82082322173E+03  0.79423234315E+02 0.  0.
         13    1    3    3    0    0  0.95457184495E+02  0.80123466275E+02  0.16916030871E+03  0.21011200337E+03  0.00000000000E+00 0. -1.
        -13    1    3    3    0    0  0.31489963350E+02 -0.99033504247E+01  0.13958059220E+03  0.14343094457E+03  0.00000000000E+00 0.  1.
          4    1    6    6  502    0 -0.12162343688E+02  0.50797794801E+01 -0.41666010395E+01  0.13823434008E+02  0.00000000000E+00 0. -1.
          3    1    5    5  503    0  0.24339468700E+02 -0.24184068700E+02 -0.13935485871E+02  0.37033453551E+02  0.00000000000E+00 0. -1.
         -4    1    5    5    0  503  0.30798134464E+03 -0.59837515389E+01 -0.49801969607E+02  0.31203934064E+03  0.00000000000E+00 0.  1.
         -3    1    6    6    0  502 -0.44710561750E+03 -0.45132075092E+02 -0.67030464714E+03  0.80699978772E+03  0.00000000000E+00 0.  1.
<mgrwt>
<rscale>  0 0.14616510E+04</rscale>
<asrwt>0</asrwt>
<pdfrwt beam="1">  1        2 0.15022360E+00 0.14616510E+04</pdfrwt>
<pdfrwt beam="2">  1       -2 0.84151629E-01 0.14616510E+04</pdfrwt>
<totfact> 0.31169409E+01</totfact>
</mgrwt>
</event>
<event>
12    1  0.1556559E-007  0.2590059E+04  0.7818608E-02  0.8371586E-01
         -2   -1    0    0    0  501 -0.00000000000E+00  0.00000000000E+00  0.86093370781E+03  0.86093370781E+03  0.00000000000E+00 0. -1.
          2   -1    0    0  501    0  0.00000000000E+00 -0.00000000000E+00 -0.19480035794E+04  0.19480035794E+04  0.00000000000E+00 0.  1.
         23    2    1    2    0    0  0.48005857450E+03  0.25024867860E+02  0.63697612856E+03  0.80319557143E+03  0.91115633333E+02 0.  0.
        254    2    1    2    0    0 -0.48005857450E+03 -0.25024867860E+02 -0.17240460002E+04  0.20057417158E+04  0.90530809168E+03 0.  0.
        -24    2    4    4    0    0 -0.53270284333E+03  0.32173596309E+03 -0.13377625148E+04  0.14778013012E+04  0.83676702551E+02 0.  0.
         24    2    4    4    0    0  0.52644268829E+02 -0.34676083095E+03 -0.38628348538E+03  0.52794041463E+03  0.80570822263E+02 0.  0.
         11    1    3    3    0    0  0.43031386323E+03  0.29507682863E+02  0.51738317194E+03  0.67359191714E+03  0.00000000000E+00 0.  1.
        -11    1    3    3    0    0  0.49744711273E+02 -0.44828150035E+01  0.11959295662E+03  0.12960365428E+03  0.00000000000E+00 0. -1.
          4    1    6    6  502    0  0.11432014385E+01 -0.20785383479E+03 -0.26289615469E+03  0.33514013740E+03  0.00000000000E+00 0. -1.
          3    1    5    5  503    0 -0.50928107662E+03  0.30009520397E+03 -0.13018848962E+04  0.14298002061E+04  0.00000000000E+00 0. -1.
         -4    1    5    5    0  503 -0.23421766705E+02  0.21640759120E+02 -0.35877618546E+02  0.48001095023E+02  0.00000000000E+00 0.  1.
         -3    1    6    6    0  502  0.51501067390E+02 -0.13890699616E+03 -0.12338733069E+03  0.19280027723E+03  0.00000000000E+00 0.  1.
<mgrwt>
<rscale>  0 0.25900594E+04</rscale>
<asrwt>0</asrwt>
<pdfrwt beam="1">  1        2 0.29969285E+00 0.25900594E+04</pdfrwt>
<pdfrwt beam="2">  1       -2 0.13245134E+00 0.25900594E+04</pdfrwt>
<totfact> 0.26185872E+00</totfact>
</mgrwt>
</event>
<event>
12    1  0.1556559E-007  0.1346236E+04  0.7818608E-02  0.8993682E-01
         -2   -1    0    0    0  501 -0.00000000000E+00  0.00000000000E+00  0.26498203623E+03  0.26498203623E+03  0.00000000000E+00 0.  1.
          2   -1    0    0  501    0  0.00000000000E+00 -0.00000000000E+00 -0.17098808287E+04  0.17098808287E+04  0.00000000000E+00 0. -1.
         23    2    1    2    0    0 -0.15120638173E+03 -0.22636502999E+03 -0.36549439253E+02  0.29202945295E+03  0.99201024216E+02 0.  0.
        254    2    1    2    0    0  0.15120638173E+03  0.22636502999E+03 -0.14083493532E+04  0.16828334120E+04  0.87998630393E+03 0.  0.
        -24    2    4    4    0    0  0.44770192648E+02 -0.14737523732E+03  0.42872505370E+02  0.17848165743E+03  0.79333596897E+02 0.  0.
         24    2    4    4    0    0  0.10643618908E+03  0.37374026731E+03 -0.14512218586E+04  0.15043517546E+04  0.77581369093E+02 0.  0.
         13    1    3    3    0    0 -0.33949789104E+02 -0.11583655037E+02  0.19726177778E+02  0.40937651788E+02  0.00000000000E+00 0. -1.
        -13    1    3    3    0    0 -0.11725659262E+03 -0.21478137496E+03 -0.56275617031E+02  0.25109180117E+03  0.00000000000E+00 0.  1.
          2    1    6    6  502    0  0.22294341735E+02  0.11635840753E+03 -0.58165922640E+03  0.59360236887E+03  0.00000000000E+00 0. -1.
          3    1    5    5  503    0 -0.89973587172E+01 -0.17282594612E+02  0.31782455619E+02  0.37279552379E+02  0.00000000000E+00 0. -1.
         -4    1    5    5    0  503  0.53767551365E+02 -0.13009264271E+03  0.11090049750E+02  0.14120210505E+03  0.00000000000E+00 0.  1.
         -1    1    6    6    0  502  0.84141847343E+02  0.25738185979E+03 -0.86956263219E+03  0.91074938568E+03  0.00000000000E+00 0.  1.
<mgrwt>
<rscale>  0 0.13462358E+04</rscale>
<asrwt>0</asrwt>
<pdfrwt beam="1">  1        2 0.26305858E+00 0.13462358E+04</pdfrwt>
<pdfrwt beam="2">  1       -2 0.40766468E-01 0.13462358E+04</pdfrwt>
<totfact> 0.53901471E+01</totfact>
</mgrwt>
</event>
<event>
12    1  0.1556559E-007  0.1650497E+04  0.7818608E-02  0.8790112E-01
         -2   -1    0    0    0  501 -0.00000000000E+00  0.00000000000E+00  0.70952705069E+03  0.70952705069E+03  0.00000000000E+00 0.  1.
          2   -1    0    0  501    0  0.00000000000E+00 -0.00000000000E+00 -0.95984420139E+03  0.95984420139E+03  0.00000000000E+00 0. -1.
         23    2    1    2    0    0 -0.86756521157E+02  0.22283712584E+03  0.45892936822E+03  0.52496587808E+03  0.88260577356E+02 0.  0.
        254    2    1    2    0    0  0.86756521157E+02 -0.22283712584E+03 -0.70924651892E+03  0.11444053740E+04  0.86570777796E+03 0.  0.
        -24    2    4    4    0    0 -0.21045191080E+03 -0.26524430707E+02  0.10639847629E+03  0.25086116621E+03  0.81345785210E+02 0.  0.
         24    2    4    4    0    0  0.29720843196E+03 -0.19631269513E+03 -0.81564499521E+03  0.89354420779E+03  0.79202062926E+02 0.  0.
         13    1    3    3    0    0  0.19886421850E+01  0.50569060831E+01  0.71801438747E+02  0.72006760814E+02  0.00000000000E+00 0.  1.
        -13    1    3    3    0    0 -0.88745163342E+02  0.21778021975E+03  0.38712792948E+03  0.45295911726E+03  0.00000000000E+00 0. -1.
          2    1    6    6  502    0  0.82733714220E+02 -0.61560612929E+02 -0.15664697162E+03  0.18754426211E+03  0.00000000000E+00 0. -1.
          1    1    5    5  503    0 -0.42571507400E+02 -0.33315821871E+02  0.42410248197E+01  0.54224196820E+02  0.00000000000E+00 0. -1.
         -2    1    5    5    0  503 -0.16788040340E+03  0.67913911646E+01  0.10215745147E+03  0.19663696939E+03  0.00000000000E+00 0.  1.
         -1    1    6    6    0  502  0.21447471774E+03 -0.13475208220E+03 -0.65899802360E+03  0.70599994569E+03  0.00000000000E+00 0.  1.
<mgrwt>
<rscale>  0 0.16504974E+04</rscale>
<asrwt>0</asrwt>
<pdfrwt beam="1">  1        2 0.14766834E+00 0.16504974E+04</pdfrwt>
<pdfrwt beam="2">  1       -2 0.10915801E+00 0.16504974E+04</pdfrwt>
<totfact> 0.17104634E+01</totfact>
</mgrwt>
</event>
<event>
12    1  0.1556559E-007  0.1515429E+04  0.7818608E-02  0.8874257E-01
          1   -1    0    0  501    0  0.00000000000E+00  0.00000000000E+00  0.32048438251E+03  0.32048438251E+03  0.00000000000E+00 0. -1.
         -1   -1    0    0    0  501 -0.00000000000E+00 -0.00000000000E+00 -0.17914491811E+04  0.17914491811E+04  0.00000000000E+00 0.  1.
         23    2    1    2    0    0 -0.37409430968E+03 -0.26506768292E+03 -0.67556667002E+03  0.82156594514E+03  0.91503265014E+02 0.  0.
        254    2    1    2    0    0  0.37409430968E+03  0.26506768292E+03 -0.79539812855E+03  0.12903676184E+04  0.90674306105E+03 0.  0.
        -24    2    4    4    0    0  0.44871485538E+03 -0.22677635873E+03 -0.45033167615E+03  0.67951789705E+03  0.78571085945E+02 0.  0.
         24    2    4    4    0    0 -0.74620545705E+02  0.49184404165E+03 -0.34506645240E+03  0.61084972139E+03  0.81164884062E+02 0.  0.
         13    1    3    3    0    0 -0.33937329169E+03 -0.24245839894E+03 -0.55618997260E+03  0.69520327384E+03  0.00000000000E+00 0. -1.
        -13    1    3    3    0    0 -0.34721017982E+02 -0.22609283978E+02 -0.11937669741E+03  0.12636267130E+03  0.00000000000E+00 0.  1.
          2    1    6    6  502    0 -0.12772283591E+02  0.15529924227E+02 -0.31067711786E+02  0.37006924896E+02  0.00000000000E+00 0. -1.
          3    1    5    5  503    0  0.17243294304E+02  0.64312686445E+01 -0.16013918547E+02  0.24395450438E+02  0.00000000000E+00 0. -1.
         -4    1    5    5    0  503  0.43147156108E+03 -0.23320762738E+03 -0.43431775761E+03  0.65512244661E+03  0.00000000000E+00 0.  1.
         -1    1    6    6    0  502 -0.61848262114E+02  0.47631411743E+03 -0.31399874061E+03  0.57384279650E+03  0.00000000000E+00 0.  1.
<mgrwt>
<rscale>  0 0.15154293E+04</rscale>
<asrwt>0</asrwt>
<pdfrwt beam="1">  1        1 0.49305290E-01 0.15154293E+04</pdfrwt>
<pdfrwt beam="2">  1       -1 0.27560756E+00 0.15154293E+04</pdfrwt>
<totfact> 0.36971405E+00</totfact>
</mgrwt>
</event>
<event>
12    1  0.1556559E-007  0.2366046E+04  0.7818608E-02  0.8452326E-01
          2   -1    0    0  501    0  0.00000000000E+00  0.00000000000E+00  0.12176588565E+04  0.12176588565E+04  0.00000000000E+00 0. -1.
         -2   -1    0    0    0  501 -0.00000000000E+00 -0.00000000000E+00 -0.11493722771E+04  0.11493722771E+04  0.00000000000E+00 0.  1.
         23    2    1    2    0    0 -0.81371969035E+03  0.53699966384E+03  0.40141815326E+03  0.10578798759E+04  0.86399795816E+02 0.  0.
        254    2    1    2    0    0  0.81371969035E+03 -0.53699966384E+03 -0.33313157391E+03  0.13091512577E+04  0.80770786579E+03 0.  0.
        -24    2    4    4    0    0  0.43434638222E+03 -0.60292863659E+03 -0.48162205290E+03  0.88870685655E+03  0.75235327257E+02 0.  0.
         24    2    4    4    0    0  0.37937330814E+03  0.65928972750E+02  0.14849047899E+03  0.42044440111E+03  0.80332656492E+02 0.  0.
         11    1    3    3    0    0 -0.70917368981E+03  0.43910229735E+03  0.36239309974E+03  0.90943219021E+03  0.00000000000E+00 0. -1.
        -11    1    3    3    0    0 -0.10454600055E+03  0.97897366489E+02  0.39025053521E+02  0.14844768573E+03  0.00000000000E+00 0.  1.
          4    1    6    6  502    0  0.13015907235E+03 -0.46609689965E-01  0.17673711721E+02  0.13135351679E+03  0.00000000000E+00 0. -1.
          1    1    5    5  503    0  0.21153989152E+03 -0.26755576404E+03 -0.18029650347E+03  0.38580052066E+03  0.00000000000E+00 0. -1.
         -2    1    5    5    0  503  0.22280649070E+03 -0.33537287255E+03 -0.30132554943E+03  0.50290633589E+03  0.00000000000E+00 0.  1.
         -3    1    6    6    0  502  0.24921423579E+03  0.65975582440E+02  0.13081676727E+03  0.28909088432E+03  0.00000000000E+00 0.  1.
<mgrwt>
<rscale>  0 0.23660459E+04</rscale>
<asrwt>0</asrwt>
<pdfrwt beam="1">  1        2 0.18733213E+00 0.23660459E+04</pdfrwt>
<pdfrwt beam="2">  1       -2 0.17682650E+00 0.23660459E+04</pdfrwt>
<totfact> 0.31802609E+00</totfact>
</mgrwt>
</event>
<event>
12    1  0.1556559E-007  0.1472382E+04  0.7818608E-02  0.8903029E-01
         -2   -1    0    0    0  501 -0.00000000000E+00  0.00000000000E+00  0.75080242756E+03  0.75080242756E+03  0.00000000000E+00 0. -1.
          2   -1    0    0  501    0  0.00000000000E+00 -0.00000000000E+00 -0.72186364997E+03  0.72186364997E+03  0.00000000000E+00 0.  1.
         23    2    1    2    0    0  0.29621230531E+03 -0.17883583751E+03  0.30719085163E+03  0.47125448284E+03  0.89390053573E+02 0.  0.
        254    2    1    2    0    0 -0.29621230531E+03  0.17883583751E+03 -0.27825207404E+03  0.10014115947E+04  0.89759510842E+03 0.  0.
        -24    2    4    4    0    0  0.79789306324E+02 -0.75614522301E+02 -0.47975467076E+03  0.49853365278E+03  0.79292934445E+02 0.  0.
         24    2    4    4    0    0 -0.37600161163E+03  0.25445035981E+03  0.20150259672E+03  0.50287794190E+03  0.78490320420E+02 0.  0.
         11    1    3    3    0    0  0.18422953879E+03 -0.11069134179E+03  0.24577318537E+03  0.32649280966E+03  0.00000000000E+00 0.  1.
        -11    1    3    3    0    0  0.11198276652E+03 -0.68144495721E+02  0.61417666257E+02  0.14476167318E+03  0.00000000000E+00 0. -1.
          2    1    6    6  502    0 -0.24521527502E+03  0.17400871873E+03  0.92542067938E+02  0.31460069872E+03  0.00000000000E+00 0. -1.
          3    1    5    5  503    0 -0.10145046561E+02 -0.27713329545E+01 -0.92559938783E+01  0.14009842210E+02  0.00000000000E+00 0. -1.
         -4    1    5    5    0  503  0.89934352886E+02 -0.72843189347E+02 -0.47049867689E+03  0.48452381057E+03  0.00000000000E+00 0.  1.
         -1    1    6    6    0  502 -0.13078633661E+03  0.80441641086E+02  0.10896052878E+03  0.18827724317E+03  0.00000000000E+00 0.  1.
<mgrwt>
<rscale>  0 0.14723817E+04</rscale>
<asrwt>0</asrwt>
<pdfrwt beam="1">  1        2 0.11105595E+00 0.14723817E+04</pdfrwt>
<pdfrwt beam="2">  1       -2 0.11550807E+00 0.14723817E+04</pdfrwt>
<totfact> 0.22249417E+01</totfact>
</mgrwt>
</event>
<event>
12    1  0.1556559E-007  0.2072833E+04  0.7818608E-02  0.8573306E-01
          2   -1    0    0  501    0  0.00000000000E+00  0.00000000000E+00  0.26300469306E+04  0.26300469306E+04  0.00000000000E+00 0. -1.
         -2   -1    0    0    0  501 -0.00000000000E+00 -0.00000000000E+00 -0.40841843956E+03  0.40841843956E+03  0.00000000000E+00 0.  1.
         23    2    1    2    0    0 -0.32004157801E+03  0.59111454935E+03  0.17406618850E+03  0.70019888975E+03  0.90202134775E+02 0.  0.
        254    2    1    2    0    0  0.32004157801E+03 -0.59111454935E+03  0.20475623026E+04  0.23382664804E+04  0.90726827813E+03 0.  0.
        -24    2    4    4    0    0  0.12506333686E+03  0.16408379396E+03  0.10309063659E+04  0.10544622304E+04  0.80983520241E+02 0.  0.
         24    2    4    4    0    0  0.19497824115E+03 -0.75519834332E+03  0.10166559367E+04  0.12838042500E+04  0.78886034397E+02 0.  0.
         11    1    3    3    0    0 -0.26148367948E+03  0.43195326063E+03  0.16154593697E+03  0.53014566277E+03  0.00000000000E+00 0.  1.
        -11    1    3    3    0    0 -0.58557898535E+02  0.15916128872E+03  0.12520251530E+02  0.17005322698E+03  0.00000000000E+00 0. -1.
          4    1    6    6  502    0  0.54256264830E+02 -0.19707081471E+03  0.32548881581E+03  0.38434830233E+03  0.00000000000E+00 0. -1.
          3    1    5    5  503    0  0.81721431534E+02  0.88110624474E+02  0.40435387239E+03  0.42183400602E+03  0.00000000000E+00 0. -1.
         -4    1    5    5    0  503  0.43341905327E+02  0.75973169491E+02  0.62655249348E+03  0.63262822441E+03  0.00000000000E+00 0.  1.
         -3    1    6    6    0  502  0.14072197632E+03 -0.55812752860E+03  0.69116712089E+03  0.89945594768E+03  0.00000000000E+00 0.  1.
<mgrwt>
<rscale>  0 0.20728335E+04</rscale>
<asrwt>0</asrwt>
<pdfrwt beam="1">  1        2 0.40462259E+00 0.20728335E+04</pdfrwt>
<pdfrwt beam="2">  1       -2 0.62833608E-01 0.20728335E+04</pdfrwt>
<totfact> 0.63396922E+00</totfact>
</mgrwt>
</event>
<event>
12    1  0.1556559E-007  0.1857245E+04  0.7818608E-02  0.8676436E-01
         -2   -1    0    0    0  501 -0.00000000000E+00  0.00000000000E+00  0.25491362799E+03  0.25491362799E+03  0.00000000000E+00 0.  1.
          2   -1    0    0  501    0  0.00000000000E+00 -0.00000000000E+00 -0.33828695935E+04  0.33828695935E+04  0.00000000000E+00 0. -1.
         23    2    1    2    0    0  0.21841710125E+01 -0.60627439552E+03 -0.19121751465E+04  0.20080242358E+04  0.90410880784E+02 0.  0.
        254    2    1    2    0    0 -0.21841710125E+01  0.60627439552E+03 -0.12157808190E+04  0.16297589857E+04  0.90023215801E+03 0.  0.
        -24    2    4    4    0    0  0.23083065234E+02  0.74052968408E+03 -0.50188128826E+03  0.89850379641E+03  0.80667240954E+02 0.  0.
         24    2    4    4    0    0 -0.25267236247E+02 -0.13425528855E+03 -0.71389953077E+03  0.73125518929E+03  0.80116765469E+02 0.  0.
         13    1    3    3    0    0 -0.15227007771E+02 -0.56173754780E+03 -0.16978111696E+04  0.17883913727E+04  0.00000000000E+00 0. -1.
        -13    1    3    3    0    0  0.17411178784E+02 -0.44536847722E+02 -0.21436397691E+03  0.21963286309E+03  0.00000000000E+00 0.  1.
          2    1    6    6  502    0 -0.15420860730E+02 -0.87519758350E+02 -0.25832044370E+03  0.27317935991E+03  0.00000000000E+00 0. -1.
          1    1    5    5  503    0  0.51966314417E+02  0.44088205401E+03 -0.31149077351E+03  0.54231354894E+03  0.00000000000E+00 0. -1.
         -2    1    5    5    0  503 -0.28883249183E+02  0.29964763007E+03 -0.19039051475E+03  0.35619024748E+03  0.00000000000E+00 0.  1.
         -1    1    6    6    0  502 -0.98463755170E+01 -0.46735530204E+02 -0.45557908706E+03  0.45807582938E+03  0.00000000000E+00 0.  1.
<mgrwt>
<rscale>  0 0.18572448E+04</rscale>
<asrwt>0</asrwt>
<pdfrwt beam="1">  1        2 0.52044146E+00 0.18572448E+04</pdfrwt>
<pdfrwt beam="2">  1       -2 0.39217483E-01 0.18572448E+04</pdfrwt>
<totfact> 0.56938449E+00</totfact>
</mgrwt>
</event>
<event>
12    1  0.1556559E-007  0.1995003E+04  0.7818608E-02  0.8608960E-01
          2   -1    0    0  501    0  0.00000000000E+00  0.00000000000E+00  0.20823266811E+04  0.20823266811E+04  0.00000000000E+00 0. -1.
         -2   -1    0    0    0  501 -0.00000000000E+00 -0.00000000000E+00 -0.47783531791E+03  0.47783531791E+03  0.00000000000E+00 0.  1.
         23    2    1    2    0    0 -0.55852514181E+03  0.48651925353E+03  0.94807738390E+03  0.12064418422E+04  0.89442018343E+02 0.  0.
        254    2    1    2    0    0  0.55852514181E+03 -0.48651925353E+03  0.65641397932E+03  0.13537201568E+04  0.92359495056E+03 0.  0.
        -24    2    4    4    0    0  0.68657850294E+03 -0.65601846029E+03  0.57378541443E+03  0.11122908023E+04  0.78809048209E+02 0.  0.
         24    2    4    4    0    0 -0.12805336113E+03  0.16949920676E+03  0.82628564894E+02  0.24142935456E+03  0.79580205565E+02 0.  0.
         13    1    3    3    0    0 -0.38942245346E+03  0.30468414519E+03  0.57602432250E+03  0.75913522886E+03  0.00000000000E+00 0. -1.
        -13    1    3    3    0    0 -0.16910268834E+03  0.18183510834E+03  0.37205306140E+03  0.44730661333E+03  0.00000000000E+00 0.  1.
          2    1    6    6  502    0  0.42772271005E+01  0.40428377887E+02  0.50853019970E+01  0.40970827507E+02  0.00000000000E+00 0. -1.
          1    1    5    5  503    0  0.30186086646E+03 -0.33234932433E+03  0.29782189142E+03  0.53877076303E+03  0.00000000000E+00 0. -1.
         -2    1    5    5    0  503  0.38471763648E+03 -0.32366913596E+03  0.27596352301E+03  0.57352003925E+03  0.00000000000E+00 0.  1.
         -1    1    6    6    0  502 -0.13233058823E+03  0.12907082887E+03  0.77543262897E+02  0.20045852705E+03  0.00000000000E+00 0.  1.
<mgrwt>
<rscale>  0 0.19950030E+04</rscale>
<asrwt>0</asrwt>
<pdfrwt beam="1">  1        2 0.32035795E+00 0.19950030E+04</pdfrwt>
<pdfrwt beam="2">  1       -2 0.73513127E-01 0.19950030E+04</pdfrwt>
<totfact> 0.93251932E+00</totfact>
</mgrwt>
</event>
<event>
12    1  0.1556559E-007  0.1263284E+04  0.7818608E-02  0.9059199E-01
         -2   -1    0    0    0  501 -0.00000000000E+00  0.00000000000E+00  0.86050180827E+03  0.86050180827E+03  0.00000000000E+00 0. -1.
          2   -1    0    0  501    0  0.00000000000E+00 -0.00000000000E+00 -0.46364966398E+03  0.46364966398E+03  0.00000000000E+00 0.  1.
         23    2    1    2    0    0  0.43605862577E+02  0.19595698437E+03 -0.13676464889E+03  0.25894270998E+03  0.89700317108E+02 0.  0.
        254    2    1    2    0    0 -0.43605862577E+02 -0.19595698437E+03  0.53361679318E+03  0.10652087623E+04  0.89979009456E+03 0.  0.
        -24    2    4    4    0    0  0.41947716473E+02 -0.20033327321E+02  0.75386899616E+03  0.75969794161E+03  0.81618343533E+02 0.  0.
         24    2    4    4    0    0 -0.85553579051E+02 -0.17592365705E+03 -0.22025220298E+03  0.30551082065E+03  0.80977037616E+02 0.  0.
         13    1    3    3    0    0  0.67185572597E+02  0.10897928803E+03 -0.64080922711E+02  0.14316686432E+03  0.00000000000E+00 0.  1.
        -13    1    3    3    0    0 -0.23579710020E+02  0.86977696344E+02 -0.72683726180E+02  0.11577584566E+03  0.00000000000E+00 0. -1.
          2    1    6    6  502    0 -0.76025486176E+02 -0.11959617371E+03 -0.10335326106E+03  0.17539958919E+03  0.00000000000E+00 0. -1.
          3    1    5    5  503    0  0.56536315890E+02 -0.71834527791E+01  0.29717687294E+03  0.30259221871E+03  0.00000000000E+00 0. -1.
         -4    1    5    5    0  503 -0.14588599417E+02 -0.12849874542E+02  0.45669212321E+03  0.45710572290E+03  0.00000000000E+00 0.  1.
         -1    1    6    6    0  502 -0.95280928751E+01 -0.56327483342E+02 -0.11689894191E+03  0.13011123147E+03  0.00000000000E+00 0.  1.
<mgrwt>
<rscale>  0 0.12632836E+04</rscale>
<asrwt>0</asrwt>
<pdfrwt beam="1">  1        2 0.71330717E-01 0.12632836E+04</pdfrwt>
<pdfrwt beam="2">  1       -2 0.13238489E+00 0.12632836E+04</pdfrwt>
<totfact> 0.27367586E+01</totfact>
</mgrwt>
</event>
<event>
12    1  0.1556559E-007  0.1104183E+04  0.7818608E-02  0.9201124E-01
          2   -1    0    0  501    0  0.00000000000E+00  0.00000000000E+00  0.34866051708E+04  0.34866051708E+04  0.00000000000E+00 0. -1.
         -2   -1    0    0    0  501 -0.00000000000E+00 -0.00000000000E+00 -0.87421759955E+02  0.87421759955E+02  0.00000000000E+00 0.  1.
         23    2    1    2    0    0  0.56433090777E+02  0.15222385344E+03  0.87874305522E+03  0.89825941577E+03  0.91235002202E+02 0.  0.
        254    2    1    2    0    0 -0.56433090777E+02 -0.15222385344E+03  0.25204403556E+04  0.26757675149E+04  0.88360365136E+03 0.  0.
        -24    2    4    4    0    0 -0.40624449290E+03  0.11865027684E+03  0.15153206650E+04  0.15750978137E+04  0.74992859174E+02 0.  0.
         24    2    4    4    0    0  0.34981140212E+03 -0.27087413029E+03  0.10051196906E+04  0.11006697012E+04  0.73941782509E+02 0.  0.
         13    1    3    3    0    0  0.38212157410E+02  0.17098915943E+02  0.33837646456E+03  0.34095626357E+03  0.00000000000E+00 0. -1.
        -13    1    3    3    0    0  0.18220933367E+02  0.13512493750E+03  0.54036659067E+03  0.55730315220E+03  0.00000000000E+00 0.  1.
          4    1    6    6  502    0  0.27563135726E+02 -0.51847966649E+02  0.14326347951E+03  0.15483010902E+03  0.00000000000E+00 0. -1.
          3    1    5    5  503    0 -0.35738651096E+03  0.12750340011E+03  0.13670032929E+04  0.14186896200E+04  0.00000000000E+00 0. -1.
         -4    1    5    5    0  503 -0.48857981935E+02 -0.88531232702E+01  0.14831737211E+03  0.15640819371E+03  0.00000000000E+00 0.  1.
         -3    1    6    6    0  502  0.32224826640E+03 -0.21902616364E+03  0.86185621110E+03  0.94583959220E+03  0.00000000000E+00 0.  1.
<mgrwt>
<rscale>  0 0.11041832E+04</rscale>
<asrwt>0</asrwt>
<pdfrwt beam="1">  1        2 0.53640069E+00 0.11041832E+04</pdfrwt>
<pdfrwt beam="2">  1       -2 0.13449504E-01 0.11041832E+04</pdfrwt>
<totfact> 0.35897665E+01</totfact>
</mgrwt>
</event>
<event>
12    1  0.1556559E-007  0.1358508E+04  0.7818608E-02  0.8984412E-01
         -1   -1    0    0    0  501 -0.00000000000E+00  0.00000000000E+00  0.18929718109E+03  0.18929718109E+03  0.00000000000E+00 0.  1.
          1   -1    0    0  501    0  0.00000000000E+00 -0.00000000000E+00 -0.24373641110E+04  0.24373641110E+04  0.00000000000E+00 0. -1.
         23    2    1    2    0    0 -0.31037777282E+03 -0.68244665655E+02 -0.10159259144E+04  0.10684065519E+04  0.91626417965E+02 0.  0.
        254    2    1    2    0    0  0.31037777282E+03  0.68244665655E+02 -0.12321410155E+04  0.15582547401E+04  0.89944130258E+03 0.  0.
        -24    2    4    4    0    0  0.19121433817E+03  0.41670073271E+03 -0.30342586279E+03  0.55600463988E+03  0.82894400217E+02 0.  0.
         24    2    4    4    0    0  0.11916343464E+03 -0.34845606706E+03 -0.92871515273E+03  0.10022501003E+04  0.79824017318E+02 0.  0.
         11    1    3    3    0    0 -0.14012924728E+03 -0.31034663180E+02 -0.60994642025E+03  0.62660513231E+03  0.00000000000E+00 0. -1.
        -11    1    3    3    0    0 -0.17024852554E+03 -0.37210002475E+02 -0.40597949412E+03  0.44180141962E+03  0.00000000000E+00 0.  1.
          4    1    6    6  502    0 -0.43035350127E+01 -0.82623792296E+02 -0.23573771449E+03  0.24983490849E+03  0.00000000000E+00 0. -1.
          1    1    5    5  503    0  0.11599871835E+02  0.53204675464E+02 -0.68152786680E+02  0.87235869057E+02  0.00000000000E+00 0. -1.
         -2    1    5    5    0  503  0.17961446634E+03  0.36349605725E+03 -0.23527307611E+03  0.46876877082E+03  0.00000000000E+00 0.  1.
         -3    1    6    6    0  502  0.12346696966E+03 -0.26583227476E+03 -0.69297743823E+03  0.75241519177E+03  0.00000000000E+00 0.  1.
<mgrwt>
<rscale>  0 0.13585082E+04</rscale>
<asrwt>0</asrwt>
<pdfrwt beam="1">  1        1 0.37497908E+00 0.13585082E+04</pdfrwt>
<pdfrwt beam="2">  1       -1 0.29122645E-01 0.13585082E+04</pdfrwt>
<totfact> 0.15796766E+01</totfact>
</mgrwt>
</event>
<event>
12    1  0.1556559E-007  0.1492862E+04  0.7818608E-02  0.8889214E-01
         -2   -1    0    0    0  501 -0.00000000000E+00  0.00000000000E+00  0.53035479169E+03  0.53035479169E+03  0.00000000000E+00 0.  1.
          2   -1    0    0  501    0  0.00000000000E+00 -0.00000000000E+00 -0.10505404370E+04  0.10505404370E+04  0.00000000000E+00 0. -1.
         23    2    1    2    0    0  0.17886849398E+03  0.38767091785E+03 -0.35339626518E+03  0.56154508167E+03  0.90339801948E+02 0.  0.
        254    2    1    2    0    0 -0.17886849398E+03 -0.38767091785E+03 -0.16678938008E+03  0.10193501470E+04  0.91047973406E+03 0.  0.
        -24    2    4    4    0    0 -0.45726502729E+03 -0.16967726691E+03 -0.35764442589E+03  0.60986055378E+03  0.78349726242E+02 0.  0.
         24    2    4    4    0    0  0.27839653332E+03 -0.21799365094E+03  0.19085504580E+03  0.40948959319E+03  0.78931722441E+02 0.  0.
         13    1    3    3    0    0  0.41389693940E+02  0.16705468736E+03 -0.10276338470E+03  0.20045121244E+03  0.00000000000E+00 0. -1.
        -13    1    3    3    0    0  0.13747880004E+03  0.22061623049E+03 -0.25063288048E+03  0.36109386922E+03  0.00000000000E+00 0.  1.
          2    1    6    6  502    0  0.25977697372E+03 -0.18208239164E+03  0.14640504051E+03  0.34938876528E+03  0.00000000000E+00 0. -1.
          1    1    5    5  503    0 -0.38886126979E+03 -0.15942357164E+03 -0.33377881023E+03  0.53669102516E+03  0.00000000000E+00 0. -1.
         -4    1    5    5    0  503 -0.68403757506E+02 -0.10253695268E+02 -0.23865615660E+02  0.73169528620E+02  0.00000000000E+00 0.  1.
         -1    1    6    6    0  502  0.18619559600E+02 -0.35911259302E+02  0.44450005297E+02  0.60100827908E+02  0.00000000000E+00 0.  1.
<mgrwt>
<rscale>  0 0.14928619E+04</rscale>
<asrwt>0</asrwt>
<pdfrwt beam="1">  1        2 0.16162161E+00 0.14928619E+04</pdfrwt>
<pdfrwt beam="2">  1       -2 0.81593045E-01 0.14928619E+04</pdfrwt>
<totfact> 0.29902354E+01</totfact>
</mgrwt>
</event>
<event>
12    1  0.1556559E-007  0.1506956E+04  0.7818608E-02  0.8879840E-01
         -2   -1    0    0    0  501 -0.00000000000E+00  0.00000000000E+00  0.55994426583E+03  0.55994426583E+03  0.00000000000E+00 0.  1.
          2   -1    0    0  501    0  0.00000000000E+00 -0.00000000000E+00 -0.10139032596E+04  0.10139032596E+04  0.00000000000E+00 0. -1.
         23    2    1    2    0    0  0.37078273501E+03 -0.29658305382E+02 -0.44172768011E+03  0.58488046451E+03  0.92748923057E+02 0.  0.
        254    2    1    2    0    0 -0.37078273501E+03  0.29658305382E+02 -0.12231313697E+02  0.98896706097E+03  0.91626785984E+03 0.  0.
        -24    2    4    4    0    0 -0.13396687109E+03  0.45541448516E+03 -0.88934081265E+02  0.48939796198E+03  0.79067177375E+02 0.  0.
         24    2    4    4    0    0 -0.23681586392E+03 -0.42575617978E+03  0.76702767568E+02  0.49956909899E+03  0.79598317108E+02 0.  0.
         11    1    3    3    0    0  0.34817765997E+03 -0.34388513974E+02 -0.36867091940E+03  0.50826026759E+03  0.00000000000E+00 0. -1.
        -11    1    3    3    0    0  0.22605075039E+02  0.47302085919E+01 -0.73056760711E+02  0.76620196922E+02  0.00000000000E+00 0.  1.
          4    1    6    6  502    0 -0.70527808375E+02 -0.63015467385E+02  0.16771359688E+02  0.96054148217E+02  0.00000000000E+00 0. -1.
          1    1    5    5  503    0 -0.32879722768E+02  0.90668124335E+02 -0.50745733951E+02  0.10898125735E+03  0.00000000000E+00 0. -1.
         -2    1    5    5    0  503 -0.10108714832E+03  0.36474636082E+03 -0.38188347315E+02  0.38041670463E+03  0.00000000000E+00 0.  1.
         -3    1    6    6    0  502 -0.16628805555E+03 -0.36274071239E+03  0.59931407880E+02  0.40351495077E+03  0.00000000000E+00 0.  1.
<mgrwt>
<rscale>  0 0.15069563E+04</rscale>
<asrwt>0</asrwt>
<pdfrwt beam="1">  1        2 0.15598512E+00 0.15069563E+04</pdfrwt>
<pdfrwt beam="2">  1       -2 0.86145272E-01 0.15069563E+04</pdfrwt>
<totfact> 0.27855259E+01</totfact>
</mgrwt>
</event>
<event>
12    1  0.1556559E-007  0.2036819E+04  0.7818608E-02  0.8589598E-01
          1   -1    0    0  501    0  0.00000000000E+00  0.00000000000E+00  0.32140511747E+03  0.32140511747E+03  0.00000000000E+00 0. -1.
         -1   -1    0    0    0  501 -0.00000000000E+00 -0.00000000000E+00 -0.32269478610E+04  0.32269478610E+04  0.00000000000E+00 0.  1.
         23    2    1    2    0    0  0.36795920942E+03 -0.58672515159E+03 -0.19216959183E+04  0.20447508874E+04  0.91927176574E+02 0.  0.
        254    2    1    2    0    0 -0.36795920942E+03  0.58672515159E+03 -0.98384682518E+03  0.15036020910E+04  0.90178949284E+03 0.  0.
        -24    2    4    4    0    0 -0.52441699819E+03  0.52708293346E+03 -0.10651394844E+04  0.13013719670E+04  0.78849658193E+02 0.  0.
         24    2    4    4    0    0  0.15645778877E+03  0.59642218133E+02  0.81292659195E+02  0.20223012402E+03  0.79071440946E+02 0.  0.
         11    1    3    3    0    0  0.34735172137E+03 -0.49680315590E+03 -0.16512576684E+04  0.17590106542E+04  0.00000000000E+00 0.  1.
        -11    1    3    3    0    0  0.20607488050E+02 -0.89921995685E+02 -0.27043824992E+03  0.28574023324E+03  0.00000000000E+00 0. -1.
          2    1    6    6  502    0  0.39845911611E+02  0.39054249795E+02 -0.45411659820E+01  0.55978150092E+02  0.00000000000E+00 0. -1.
          3    1    5    5  503    0 -0.29289761659E+03  0.27185207885E+03 -0.50898648756E+03  0.64711653595E+03  0.00000000000E+00 0. -1.
         -4    1    5    5    0  503 -0.23151938160E+03  0.25523085460E+03 -0.55615299681E+03  0.65425543105E+03  0.00000000000E+00 0.  1.
         -1    1    6    6    0  502  0.11661187715E+03  0.20587968338E+02  0.85833825176E+02  0.14625197393E+03  0.00000000000E+00 0.  1.
<mgrwt>
<rscale>  0 0.20368187E+04</rscale>
<asrwt>0</asrwt>
<pdfrwt beam="1">  1        1 0.49446943E-01 0.20368187E+04</pdfrwt>
<pdfrwt beam="2">  1       -1 0.49645350E+00 0.20368187E+04</pdfrwt>
<totfact> 0.11596685E-01</totfact>
</mgrwt>
</event>
<event>
12    1  0.1556559E-007  0.3175474E+04  0.7818608E-02  0.8195325E-01
         -2   -1    0    0    0  501 -0.00000000000E+00  0.00000000000E+00  0.10032195382E+04  0.10032195382E+04  0.00000000000E+00 0.  1.
          2   -1    0    0  501    0  0.00000000000E+00 -0.00000000000E+00 -0.25128178977E+04  0.25128178977E+04  0.00000000000E+00 0. -1.
         23    2    1    2    0    0 -0.82112479014E+03  0.69741433033E+03 -0.17827838103E+04  0.20850242758E+04  0.91517470645E+02 0.  0.
        254    2    1    2    0    0  0.82112479014E+03 -0.69741433033E+03  0.27318545072E+03  0.14310131601E+04  0.90140762403E+03 0.  0.
        -24    2    4    4    0    0  0.27556809171E+03 -0.79231411953E+03  0.12486302483E+03  0.85191487759E+03  0.80428518004E+02 0.  0.
         24    2    4    4    0    0  0.54555669843E+03  0.94899789200E+02  0.14832242589E+03  0.57909828248E+03  0.81958511192E+02 0.  0.
         13    1    3    3    0    0 -0.22372543328E+02  0.30949397937E+01 -0.30879157850E+02  0.38257440281E+02  0.00000000000E+00 0.  1.
        -13    1    3    3    0    0 -0.79875224681E+03  0.69431939053E+03 -0.17519046524E+04  0.20467668356E+04  0.00000000000E+00 0. -1.
          2    1    6    6  502    0  0.30263379182E+03  0.91686213281E+02  0.97361280465E+02  0.33086672935E+03  0.00000000000E+00 0. -1.
          3    1    5    5  503    0  0.21297513715E+03 -0.56307982404E+03  0.12212200887E+03  0.61427280774E+03  0.00000000000E+00 0. -1.
         -4    1    5    5    0  503  0.62592954560E+02 -0.22923429549E+03  0.27410159544E+01  0.23764206984E+03  0.00000000000E+00 0.  1.
         -1    1    6    6    0  502  0.24292290661E+03  0.32135759198E+01  0.50961145428E+02  0.24823155313E+03  0.00000000000E+00 0.  1.
<mgrwt>
<rscale>  0 0.31754735E+04</rscale>
<asrwt>0</asrwt>
<pdfrwt beam="1">  1        2 0.38658736E+00 0.31754735E+04</pdfrwt>
<pdfrwt beam="2">  1       -2 0.15434147E+00 0.31754735E+04</pdfrwt>
<totfact> 0.80157670E-01</totfact>
</mgrwt>
</event>
<event>
12    1  0.1556559E-007  0.1461546E+04  0.7818608E-02  0.8910435E-01
          2   -1    0    0  501    0  0.00000000000E+00  0.00000000000E+00  0.33812310260E+03  0.33812310260E+03  0.00000000000E+00 0. -1.
         -2   -1    0    0    0  501 -0.00000000000E+00 -0.00000000000E+00 -0.15793924608E+04  0.15793924608E+04  0.00000000000E+00 0.  1.
         23    2    1    2    0    0 -0.15750721981E+03  0.41135425629E+03 -0.48051491940E+03  0.65812593946E+03  0.90632863609E+02 0.  0.
        254    2    1    2    0    0  0.15750721981E+03 -0.41135425629E+03 -0.76075443879E+03  0.12593896239E+04  0.90182817670E+03 0.  0.
        -24    2    4    4    0    0  0.46593414286E+03 -0.31504696300E+03 -0.19070542199E+03  0.59927367535E+03  0.80069754673E+02 0.  0.
         24    2    4    4    0    0 -0.30842692304E+03 -0.96307293286E+02 -0.57004901681E+03  0.66011594859E+03  0.79968258865E+02 0.  0.
         11    1    3    3    0    0 -0.13336726404E+03  0.37702618048E+03 -0.46515595289E+03  0.61343755053E+03  0.00000000000E+00 0.  1.
        -11    1    3    3    0    0 -0.24139955772E+02  0.34328075804E+02 -0.15358966507E+02  0.44688388931E+02  0.00000000000E+00 0. -1.
          2    1    6    6  502    0 -0.46233431641E+02 -0.46787331924E+02 -0.10267578504E+03  0.12193810505E+03  0.00000000000E+00 0. -1.
          1    1    5    5  503    0  0.23771365456E+03 -0.18037243999E+03 -0.13941842201E+03  0.32936225508E+03  0.00000000000E+00 0. -1.
         -2    1    5    5    0  503  0.22822048829E+03 -0.13467452301E+03 -0.51286999973E+02  0.26991142027E+03  0.00000000000E+00 0.  1.
         -1    1    6    6    0  502 -0.26219349140E+03 -0.49519961362E+02 -0.46737323176E+03  0.53817784354E+03  0.00000000000E+00 0.  1.
<mgrwt>
<rscale>  0 0.14615459E+04</rscale>
<asrwt>0</asrwt>
<pdfrwt beam="1">  1        2 0.52018939E-01 0.14615459E+04</pdfrwt>
<pdfrwt beam="2">  1       -2 0.24298345E+00 0.14615459E+04</pdfrwt>
<totfact> 0.66102362E+00</totfact>
</mgrwt>
</event>
<event>
12    1  0.1556559E-007  0.1291214E+04  0.7818608E-02  0.9036562E-01
          2   -1    0    0  501    0  0.00000000000E+00  0.00000000000E+00  0.32372853274E+04  0.32372853274E+04  0.00000000000E+00 0. -1.
         -2   -1    0    0    0  501 -0.00000000000E+00 -0.00000000000E+00 -0.12875236077E+03  0.12875236077E+03  0.00000000000E+00 0.  1.
         23    2    1    2    0    0  0.18495116066E+03  0.27060586576E+03  0.94147916802E+03  0.10009239230E+04  0.89617015001E+02 0.  0.
        254    2    1    2    0    0 -0.18495116066E+03 -0.27060586576E+03  0.21670537986E+04  0.23651137652E+04  0.88893559373E+03 0.  0.
        -24    2    4    4    0    0  0.25098627440E+02 -0.40965956977E+03  0.40210583592E+03  0.58045916223E+03  0.82418635845E+02 0.  0.
         24    2    4    4    0    0 -0.21004978810E+03  0.13905370401E+03  0.17649479627E+04  0.17846546030E+04  0.80584705576E+02 0.  0.
         11    1    3    3    0    0  0.77042687391E+02  0.16618655472E+03  0.41889231979E+03  0.45719177840E+03  0.00000000000E+00 0. -1.
        -11    1    3    3    0    0  0.10790847327E+03  0.10441931103E+03  0.52258684822E+03  0.54373214459E+03  0.00000000000E+00 0.  1.
          2    1    6    6  502    0 -0.13216777898E+03  0.11623996195E+03  0.99566079127E+03  0.10110986410E+04  0.00000000000E+00 0. -1.
          1    1    5    5  503    0  0.40587351052E+02 -0.26867915960E+03  0.30547448254E+03  0.40884041307E+03  0.00000000000E+00 0. -1.
         -2    1    5    5    0  503 -0.15488723612E+02 -0.14098041016E+03  0.96631353371E+02  0.17161874916E+03  0.00000000000E+00 0.  1.
         -1    1    6    6    0  502 -0.77882009121E+02  0.22813742055E+02  0.76928717141E+03  0.77355596195E+03  0.00000000000E+00 0.  1.
<mgrwt>
<rscale>  0 0.12912136E+04</rscale>
<asrwt>0</asrwt>
<pdfrwt beam="1">  1        2 0.49804384E+00 0.12912136E+04</pdfrwt>
<pdfrwt beam="2">  1       -2 0.19808058E-01 0.12912136E+04</pdfrwt>
<totfact> 0.26553850E+01</totfact>
</mgrwt>
</event>
<event>
12    1  0.1556559E-007  0.2376846E+04  0.7818608E-02  0.8448223E-01
          2   -1    0    0  501    0  0.00000000000E+00  0.00000000000E+00  0.17698194185E+04  0.17698194185E+04  0.00000000000E+00 0. -1.
         -2   -1    0    0    0  501 -0.00000000000E+00 -0.00000000000E+00 -0.79801900567E+03  0.79801900567E+03  0.00000000000E+00 0.  1.
         23    2    1    2    0    0 -0.16934261088E+03 -0.91653319114E+03  0.84914131025E+03  0.12641675144E+04  0.91479666503E+02 0.  0.
        254    2    1    2    0    0  0.16934261088E+03  0.91653319114E+03  0.12265910263E+03  0.13036709098E+04  0.90321790023E+03 0.  0.
        -24    2    4    4    0    0  0.37962937811E+03  0.94885008063E+03 -0.37446454838E+02  0.10260039134E+04  0.82745713838E+02 0.  0.
         24    2    4    4    0    0 -0.21028676723E+03 -0.32316889495E+02  0.16010555747E+03  0.27766699638E+03  0.78741764824E+02 0.  0.
         11    1    3    3    0    0 -0.64825134263E+02 -0.39318903715E+03  0.30336465511E+03  0.50082934312E+03  0.00000000000E+00 0.  1.
        -11    1    3    3    0    0 -0.10451747662E+03 -0.52334415399E+03  0.54577665514E+03  0.76333817128E+03  0.00000000000E+00 0. -1.
          4    1    6    6  502    0 -0.88556188454E+02 -0.28693626279E+02  0.26289156439E+02  0.96729739216E+02  0.00000000000E+00 0. -1.
          1    1    5    5  503    0  0.12960714151E+03  0.42585124669E+03 -0.47724553427E+00  0.44513764523E+03  0.00000000000E+00 0. -1.
         -2    1    5    5    0  503  0.25002223659E+03  0.52299883394E+03 -0.36969209304E+02  0.58086626820E+03  0.00000000000E+00 0.  1.
         -3    1    6    6    0  502 -0.12173057877E+03 -0.36232632161E+01  0.13381640103E+03  0.18093725716E+03  0.00000000000E+00 0.  1.
<mgrwt>
<rscale>  0 0.23768463E+04</rscale>
<asrwt>0</asrwt>
<pdfrwt beam="1">  1        2 0.27227991E+00 0.23768463E+04</pdfrwt>
<pdfrwt beam="2">  1       -2 0.12277215E+00 0.23768463E+04</pdfrwt>
<totfact> 0.40532087E+00</totfact>
</mgrwt>
</event>
<event>
12    1  0.1556559E-007  0.1700785E+04  0.7818608E-02  0.8760917E-01
         -1   -1    0    0    0  501 -0.00000000000E+00  0.00000000000E+00  0.33421968520E+03  0.33421968520E+03  0.00000000000E+00 0. -1.
          1   -1    0    0  501    0  0.00000000000E+00 -0.00000000000E+00 -0.21637494748E+04  0.21637494748E+04  0.00000000000E+00 0.  1.
         23    2    1    2    0    0  0.12110768800E+03  0.16887789620E+02 -0.15481605684E+04  0.15557422011E+04  0.92630346546E+02 0.  0.
        254    2    1    2    0    0 -0.12110768800E+03 -0.16887789620E+02 -0.28136922122E+03  0.94222695895E+03  0.89088199779E+03 0.  0.
        -24    2    4    4    0    0  0.32456017987E+02 -0.66461615497E+02 -0.58187074591E+03  0.59190456411E+03  0.79416047652E+02 0.  0.
         24    2    4    4    0    0 -0.15356370598E+03  0.49573825877E+02  0.30050152469E+03  0.35032239484E+03  0.79907684085E+02 0.  0.
         13    1    3    3    0    0  0.61232066928E+02 -0.14318801878E+02 -0.34470154176E+03  0.35039056351E+03  0.00000000000E+00 0.  1.
        -13    1    3    3    0    0  0.59875621069E+02  0.31206591498E+02 -0.12034590267E+04  0.12053516376E+04  0.00000000000E+00 0. -1.
          4    1    6    6  502    0 -0.57216779769E+02 -0.20585907717E+02  0.96754892913E+02  0.11427619519E+03  0.00000000000E+00 0. -1.
          1    1    5    5  503    0  0.54108088803E+02 -0.22543412245E+02 -0.35533824434E+03  0.36014047065E+03  0.00000000000E+00 0. -1.
         -2    1    5    5    0  503 -0.21652070815E+02 -0.43918203252E+02 -0.22653250157E+03  0.23176409345E+03  0.00000000000E+00 0.  1.
         -3    1    6    6    0  502 -0.96346926215E+02  0.70159733594E+02  0.20374663178E+03  0.23604619965E+03  0.00000000000E+00 0.  1.
<mgrwt>
<rscale>  0 0.17007853E+04</rscale>
<asrwt>0</asrwt>
<pdfrwt beam="1">  1        1 0.33288452E+00 0.17007853E+04</pdfrwt>
<pdfrwt beam="2">  1       -1 0.51418415E-01 0.17007853E+04</pdfrwt>
<totfact> 0.83540002E+00</totfact>
</mgrwt>
</event>
<event>
12    1  0.1556559E-007  0.2047719E+04  0.7818608E-02  0.8584630E-01
          1   -1    0    0  501    0  0.00000000000E+00  0.00000000000E+00  0.92884552002E+03  0.92884552002E+03  0.00000000000E+00 0. -1.
         -1   -1    0    0    0  501 -0.00000000000E+00 -0.00000000000E+00 -0.11285922075E+04  0.11285922075E+04  0.00000000000E+00 0.  1.
         23    2    1    2    0    0 -0.47559283673E+02  0.60731757358E+03  0.47591953491E+03  0.77837265298E+03  0.90928887367E+02 0.  0.
        254    2    1    2    0    0  0.47559283673E+02 -0.60731757358E+03 -0.67566622241E+03  0.12790650746E+04  0.89910294195E+03 0.  0.
        -24    2    4    4    0    0  0.15682857909E+03  0.19966415348E+03 -0.13343260114E+03  0.29751479294E+03  0.79055775027E+02 0.  0.
         24    2    4    4    0    0 -0.10926929542E+03 -0.80698172707E+03 -0.54223362126E+03  0.98155028162E+03  0.79147764223E+02 0.  0.
         13    1    3    3    0    0  0.18984802530E+02  0.90109624755E+02  0.97144561958E+02  0.13385526930E+03  0.00000000000E+00 0.  1.
        -13    1    3    3    0    0 -0.66544086203E+02  0.51720794883E+03  0.37877497295E+03  0.64451738369E+03  0.00000000000E+00 0. -1.
          4    1    6    6  502    0 -0.70173522360E+02 -0.60256944934E+03 -0.36344942885E+03  0.70718438321E+03  0.00000000000E+00 0. -1.
          3    1    5    5  503    0  0.16417636128E+03  0.18334459564E+03 -0.13269621370E+03  0.27960222368E+03  0.00000000000E+00 0. -1.
         -2    1    5    5    0  503 -0.73477821869E+01  0.16319557841E+02 -0.73638743926E+00  0.17912569265E+02  0.00000000000E+00 0.  1.
         -3    1    6    6    0  502 -0.39095773056E+02 -0.20441227772E+03 -0.17878419241E+03  0.27436589841E+03  0.00000000000E+00 0.  1.
<mgrwt>
<rscale>  0 0.20477186E+04</rscale>
<asrwt>0</asrwt>
<pdfrwt beam="1">  1        1 0.14289931E+00 0.20477186E+04</pdfrwt>
<pdfrwt beam="2">  1       -1 0.17362957E+00 0.20477186E+04</pdfrwt>
<totfact> 0.36858660E+00</totfact>
</mgrwt>
</event>
<event>
12    1  0.1556559E-007  0.1258256E+04  0.7818608E-02  0.9063340E-01
          2   -1    0    0  501    0  0.00000000000E+00  0.00000000000E+00  0.97640533144E+03  0.97640533144E+03  0.00000000000E+00 0. -1.
         -2   -1    0    0    0  501 -0.00000000000E+00 -0.00000000000E+00 -0.40536640454E+03  0.40536640454E+03  0.00000000000E+00 0.  1.
         23    2    1    2    0    0 -0.14012292890E+03 -0.21855476894E+03 -0.30635118390E+02  0.27726647492E+03  0.92398947003E+02 0.  0.
        254    2    1    2    0    0  0.14012292890E+03  0.21855476894E+03  0.60167404529E+03  0.11045052611E+04  0.88911168741E+03 0.  0.
        -24    2    4    4    0    0  0.33477263528E+03  0.28491414720E+03 -0.17300366873E+02  0.44734919934E+03  0.81075365241E+02 0.  0.
         24    2    4    4    0    0 -0.19464970638E+03 -0.66359378259E+02  0.61897441216E+03  0.65715606171E+03  0.80204060070E+02 0.  0.
         11    1    3    3    0    0 -0.14712552836E+03 -0.16450104355E+03 -0.18830635852E+02  0.22149742045E+03  0.00000000000E+00 0.  1.
        -11    1    3    3    0    0  0.70025994570E+01 -0.54053725394E+02 -0.11804482538E+02  0.55769054466E+02  0.00000000000E+00 0. -1.
          2    1    6    6  502    0 -0.88699419786E+02 -0.19507367442E+02  0.39132360909E+03  0.40172414850E+03  0.00000000000E+00 0. -1.
          1    1    5    5  503    0  0.23054458639E+03  0.15269605249E+03 -0.31884703662E+02  0.27835862675E+03  0.00000000000E+00 0. -1.
         -2    1    5    5    0  503  0.10422804890E+03  0.13221809471E+03  0.14584336789E+02  0.16899057259E+03  0.00000000000E+00 0.  1.
         -1    1    6    6    0  502 -0.10595028660E+03 -0.46852010817E+02  0.22765080308E+03  0.25543191322E+03  0.00000000000E+00 0.  1.
<mgrwt>
<rscale>  0 0.12582558E+04</rscale>
<asrwt>0</asrwt>
<pdfrwt beam="1">  1        2 0.15021620E+00 0.12582558E+04</pdfrwt>
<pdfrwt beam="2">  1       -2 0.62364062E-01 0.12582558E+04</pdfrwt>
<totfact> 0.61192908E+01</totfact>
</mgrwt>
</event>
<event>
12    1  0.1556559E-007  0.2398051E+04  0.7818608E-02  0.8440233E-01
          1   -1    0    0  501    0  0.00000000000E+00  0.00000000000E+00  0.18679417889E+04  0.18679417889E+04  0.00000000000E+00 0. -1.
         -1   -1    0    0    0  501 -0.00000000000E+00 -0.00000000000E+00 -0.76965058213E+03  0.76965058213E+03  0.00000000000E+00 0.  1.
         23    2    1    2    0    0  0.50194528136E+03  0.45465219052E+03 -0.37080476067E+03  0.77599734715E+03  0.77575978405E+02 0.  0.
        254    2    1    2    0    0 -0.50194528136E+03 -0.45465219052E+03  0.14690959674E+04  0.18615950238E+04  0.92121408563E+03 0.  0.
        -24    2    4    4    0    0 -0.72764862822E+03 -0.36541348946E+03  0.79593562851E+03  0.11413935262E+04  0.79158779559E+02 0.  0.
         24    2    4    4    0    0  0.22570334686E+03 -0.89238701056E+02  0.67316033888E+03  0.72020149769E+03  0.81485022405E+02 0.  0.
         13    1    3    3    0    0  0.61512617271E+02  0.25639279574E+02 -0.41717537868E+02  0.78622692057E+02  0.00000000000E+00 0. -1.
        -13    1    3    3    0    0  0.44043266409E+03  0.42901291095E+03 -0.32908722280E+03  0.69737465509E+03  0.00000000000E+00 0.  1.
          2    1    6    6  502    0  0.23963741134E+02 -0.35221486638E+02  0.70404216431E+02  0.82289535795E+02  0.00000000000E+00 0. -1.
          3    1    5    5  503    0 -0.28498809433E+03 -0.18025011525E+03  0.35718202108E+03  0.49121005094E+03  0.00000000000E+00 0. -1.
         -4    1    5    5    0  503 -0.44266053389E+03 -0.18516337421E+03  0.43875360743E+03  0.65018347522E+03  0.00000000000E+00 0.  1.
         -1    1    6    6    0  502  0.20173960573E+03 -0.54017214418E+02  0.60275612245E+03  0.63791196189E+03  0.00000000000E+00 0.  1.
<mgrwt>
<rscale>  0 0.23980513E+04</rscale>
<asrwt>0</asrwt>
<pdfrwt beam="1">  1        1 0.28737566E+00 0.23980513E+04</pdfrwt>
<pdfrwt beam="2">  1       -1 0.11840778E+00 0.23980513E+04</pdfrwt>
<totfact> 0.20998616E+00</totfact>
</mgrwt>
</event>
<event>
12    1  0.1556559E-007  0.1336879E+04  0.7818608E-02  0.9000820E-01
          1   -1    0    0  501    0  0.00000000000E+00  0.00000000000E+00  0.22029392758E+04  0.22029392758E+04  0.00000000000E+00 0. -1.
         -1   -1    0    0    0  501 -0.00000000000E+00 -0.00000000000E+00 -0.20282522267E+03  0.20282522267E+03  0.00000000000E+00 0.  1.
         23    2    1    2    0    0  0.20544211672E+03 -0.19606207392E+02  0.21592779416E+02  0.22580168597E+03  0.89046541606E+02 0.  0.
        254    2    1    2    0    0 -0.20544211672E+03  0.19606207392E+02  0.19785212737E+04  0.21799628125E+04  0.89168411820E+03 0.  0.
        -24    2    4    4    0    0  0.30811199567E+03 -0.68764351028E+02  0.39791592960E+03  0.51391744251E+03  0.78182560967E+02 0.  0.
         24    2    4    4    0    0 -0.51355411239E+03  0.88370558421E+02  0.15806053441E+04  0.16660453699E+04  0.76463972484E+02 0.  0.
         11    1    3    3    0    0  0.12472045403E+03 -0.58309656874E+01 -0.30783592249E+02  0.12859557289E+03  0.00000000000E+00 0. -1.
        -11    1    3    3    0    0  0.80721662693E+02 -0.13775241705E+02  0.52376371665E+02  0.97206113083E+02  0.00000000000E+00 0.  1.
          4    1    6    6  502    0 -0.32077507533E+03  0.88544233009E+02  0.10525275757E+04  0.11038799880E+04  0.00000000000E+00 0. -1.
          3    1    5    5  503    0  0.31065961884E+03 -0.64011728413E+02  0.39745550716E+03  0.50850543786E+03  0.00000000000E+00 0. -1.
         -4    1    5    5    0  503 -0.25476231762E+01 -0.47526226148E+01  0.46042243904E+00  0.54120046553E+01  0.00000000000E+00 0.  1.
         -1    1    6    6    0  502 -0.19277903706E+03 -0.17367458825E+00  0.52807776833E+03  0.56216538198E+03  0.00000000000E+00 0.  1.
<mgrwt>
<rscale>  0 0.13368794E+04</rscale>
<asrwt>0</asrwt>
<pdfrwt beam="1">  1        1 0.33891372E+00 0.13368794E+04</pdfrwt>
<pdfrwt beam="2">  1       -1 0.31203882E-01 0.13368794E+04</pdfrwt>
<totfact> 0.20271447E+01</totfact>
</mgrwt>
</event>
<event>
12    1  0.1556559E-007  0.1362468E+04  0.7818608E-02  0.8981443E-01
         -2   -1    0    0    0  501 -0.00000000000E+00  0.00000000000E+00  0.20260418518E+03  0.20260418518E+03  0.00000000000E+00 0.  1.
          2   -1    0    0  501    0  0.00000000000E+00 -0.00000000000E+00 -0.22905745054E+04  0.22905745054E+04  0.00000000000E+00 0. -1.
         23    2    1    2    0    0  0.29895641716E+03 -0.28013352570E+02 -0.15642414647E+03  0.35001301886E+03  0.88774503584E+02 0.  0.
        254    2    1    2    0    0 -0.29895641716E+03  0.28013352570E+02 -0.19315461738E+04  0.21431656717E+04  0.87870859098E+03 0.  0.
        -24    2    4    4    0    0 -0.47758142391E+03  0.69329859874E+02 -0.50579445301E+03  0.70351720199E+03  0.78852893904E+02 0.  0.
         24    2    4    4    0    0  0.17862500675E+03 -0.41316507303E+02 -0.14257517207E+04  0.14396484697E+04  0.78776902628E+02 0.  0.
         13    1    3    3    0    0  0.16121382146E+02 -0.20776118614E+02 -0.30659995100E+02  0.40392838059E+02  0.00000000000E+00 0. -1.
        -13    1    3    3    0    0  0.28283503502E+03 -0.72372339568E+01 -0.12576415137E+03  0.30962018080E+03  0.00000000000E+00 0.  1.
          2    1    6    6  502    0  0.47584579518E+02  0.10897433815E+02 -0.20299822910E+03  0.20878536177E+03  0.00000000000E+00 0. -1.
          3    1    5    5  503    0 -0.14666564380E+02  0.17334345119E+02 -0.30348784755E+02  0.37902986261E+02  0.00000000000E+00 0. -1.
         -4    1    5    5    0  503 -0.46291485953E+03  0.51995514755E+02 -0.47544566825E+03  0.66561421573E+03  0.00000000000E+00 0.  1.
         -1    1    6    6    0  502  0.13104042723E+03 -0.52213941118E+02 -0.12227534917E+04  0.12308631080E+04  0.00000000000E+00 0.  1.
<mgrwt>
<rscale>  0 0.13624683E+04</rscale>
<asrwt>0</asrwt>
<pdfrwt beam="1">  1        2 0.35239608E+00 0.13624683E+04</pdfrwt>
<pdfrwt beam="2">  1       -2 0.31169874E-01 0.13624683E+04</pdfrwt>
<totfact> 0.42855225E+01</totfact>
</mgrwt>
</event>
<event>
12    1  0.1556559E-007  0.1336843E+04  0.7818608E-02  0.9000848E-01
          2   -1    0    0  501    0  0.00000000000E+00  0.00000000000E+00  0.10046572855E+04  0.10046572855E+04  0.00000000000E+00 0. -1.
         -2   -1    0    0    0  501 -0.00000000000E+00 -0.00000000000E+00 -0.44471637306E+03  0.44471637306E+03  0.00000000000E+00 0.  1.
         23    2    1    2    0    0  0.27219040735E+03  0.13505771806E+02 -0.95228798438E+02  0.30810599921E+03  0.10766038719E+03 0.  0.
        254    2    1    2    0    0 -0.27219040735E+03 -0.13505771806E+02  0.65516971090E+03  0.11412676594E+04  0.89385373328E+03 0.  0.
        -24    2    4    4    0    0 -0.56955990202E+03 -0.13986344258E+03  0.49675408007E+03  0.77267546336E+03  0.79388229842E+02 0.  0.
         24    2    4    4    0    0  0.29736949467E+03  0.12635767078E+03  0.15841563082E+03  0.36859219600E+03  0.79811136706E+02 0.  0.
         13    1    3    3    0    0  0.18328904297E+03 -0.41250800918E+02 -0.50689045669E+02  0.19459157536E+03  0.00000000000E+00 0. -1.
        -13    1    3    3    0    0  0.88901364382E+02  0.54756572725E+02 -0.44539752769E+02  0.11351442385E+03  0.00000000000E+00 0.  1.
          2    1    6    6  502    0  0.13468093023E+03  0.44363149938E+02  0.27990391976E+02  0.14453547690E+03  0.00000000000E+00 0. -1.
          3    1    5    5  503    0 -0.54371515876E+03 -0.11859866388E+03  0.45286106335E+03  0.71747819454E+03  0.00000000000E+00 0. -1.
         -4    1    5    5    0  503 -0.25844743262E+02 -0.21264778707E+02  0.43893016722E+02  0.55197268815E+02  0.00000000000E+00 0.  1.
         -1    1    6    6    0  502  0.16268856444E+03  0.81994520838E+02  0.13042523885E+03  0.22405671910E+03  0.00000000000E+00 0.  1.
<mgrwt>
<rscale>  0 0.13368434E+04</rscale>
<asrwt>0</asrwt>
<pdfrwt beam="1">  1        2 0.15456266E+00 0.13368434E+04</pdfrwt>
<pdfrwt beam="2">  1       -2 0.68417904E-01 0.13368434E+04</pdfrwt>
<totfact> 0.47798765E+01</totfact>
</mgrwt>
</event>
<event>
12    1  0.1556559E-007  0.2696438E+04  0.7818608E-02  0.8336162E-01
         -2   -1    0    0    0  501 -0.00000000000E+00  0.00000000000E+00  0.10128052124E+04  0.10128052124E+04  0.00000000000E+00 0.  1.
          2   -1    0    0  501    0  0.00000000000E+00 -0.00000000000E+00 -0.17947129340E+04  0.17947129340E+04  0.00000000000E+00 0. -1.
         23    2    1    2    0    0  0.70241223818E+03  0.81525261700E+03  0.19920747099E+03  0.10981470793E+04  0.90684119236E+02 0.  0.
        254    2    1    2    0    0 -0.70241223818E+03 -0.81525261700E+03 -0.98111519254E+03  0.17093710671E+04  0.89517743607E+03 0.  0.
        -24    2    4    4    0    0 -0.80040027892E+03 -0.89980766808E+03 -0.98466144514E+03  0.15575979849E+04  0.79113051042E+02 0.  0.
         24    2    4    4    0    0  0.97988040736E+02  0.84555051081E+02  0.35462526007E+01  0.15177308222E+03  0.79191412340E+02 0.  0.
         13    1    3    3    0    0  0.20402635268E+03  0.25194622355E+03  0.19145681157E+02  0.32476177308E+03  0.00000000000E+00 0.  1.
        -13    1    3    3    0    0  0.49838588550E+03  0.56330639345E+03  0.18006178983E+03  0.77338530625E+03  0.00000000000E+00 0. -1.
          4    1    6    6  502    0 -0.56828599266E+01  0.23280528982E+02 -0.17300982934E+02  0.29556757892E+02  0.00000000000E+00 0. -1.
          3    1    5    5  503    0 -0.36712196983E+03 -0.37385516748E+03 -0.39008607029E+03  0.65323301296E+03  0.00000000000E+00 0. -1.
         -4    1    5    5    0  503 -0.43327830909E+03 -0.52595250059E+03 -0.59457537485E+03  0.90436497189E+03  0.00000000000E+00 0.  1.
         -3    1    6    6    0  502  0.10367090066E+03  0.61274522099E+02  0.20847235535E+02  0.12221632433E+03  0.00000000000E+00 0.  1.
<mgrwt>
<rscale>  0 0.26964381E+04</rscale>
<asrwt>0</asrwt>
<pdfrwt beam="1">  1        2 0.27610968E+00 0.26964381E+04</pdfrwt>
<pdfrwt beam="2">  1       -2 0.15581619E+00 0.26964381E+04</pdfrwt>
<totfact> 0.20637390E+00</totfact>
</mgrwt>
</event>
<event>
12    1  0.1556559E-007  0.2053426E+04  0.7818608E-02  0.8582042E-01
         -1   -1    0    0    0  501 -0.00000000000E+00  0.00000000000E+00  0.43052553660E+03  0.43052553660E+03  0.00000000000E+00 0.  1.
          1   -1    0    0  501    0  0.00000000000E+00 -0.00000000000E+00 -0.24484940660E+04  0.24484940660E+04  0.00000000000E+00 0. -1.
         23    2    1    2    0    0 -0.21098450958E+03 -0.77745015539E+03 -0.55313608945E+03  0.98107521759E+03  0.87211476959E+02 0.  0.
        254    2    1    2    0    0  0.21098450958E+03  0.77745015539E+03 -0.14648324399E+04  0.18979443850E+04  0.89861872008E+03 0.  0.
        -24    2    4    4    0    0 -0.15591484838E+03  0.79046368793E+03 -0.11581409784E+04  0.14130567301E+04  0.79350580484E+02 0.  0.
         24    2    4    4    0    0  0.36689935796E+03 -0.13013532542E+02 -0.30669146151E+03  0.48488765492E+03  0.79195292998E+02 0.  0.
         11    1    3    3    0    0 -0.21492682667E+03 -0.77074275156E+03 -0.53843688469E+03  0.96444398940E+03  0.00000000000E+00 0. -1.
        -11    1    3    3    0    0  0.39423170882E+01 -0.67074038278E+01 -0.14699204769E+02  0.16631228186E+02  0.00000000000E+00 0.  1.
          4    1    6    6  502    0  0.19261745611E+03 -0.20368971001E+02 -0.20902599029E+03  0.28497060198E+03  0.00000000000E+00 0. -1.
          3    1    5    5  503    0 -0.85040455291E+01  0.54587634543E+02 -0.11941249297E+03  0.13157306758E+03  0.00000000000E+00 0. -1.
         -4    1    5    5    0  503 -0.14741080285E+03  0.73587605339E+03 -0.10387284855E+04  0.12814836625E+04  0.00000000000E+00 0.  1.
         -3    1    6    6    0  502  0.17428190185E+03  0.73554384589E+01 -0.97665471219E+02  0.19991705294E+03  0.00000000000E+00 0.  1.
<mgrwt>
<rscale>  0 0.20534256E+04</rscale>
<asrwt>0</asrwt>
<pdfrwt beam="1">  1        1 0.37669140E+00 0.20534256E+04</pdfrwt>
<pdfrwt beam="2">  1       -1 0.66234697E-01 0.20534256E+04</pdfrwt>
<totfact> 0.31380717E+00</totfact>
</mgrwt>
</event>
<event>
12    1  0.1556559E-007  0.1207028E+04  0.7818608E-02  0.9106727E-01
          1   -1    0    0  501    0  0.00000000000E+00  0.00000000000E+00  0.12447165474E+04  0.12447165474E+04  0.00000000000E+00 0. -1.
         -1   -1    0    0    0  501 -0.00000000000E+00 -0.00000000000E+00 -0.29262019592E+03  0.29262019592E+03  0.00000000000E+00 0.  1.
         23    2    1    2    0    0  0.25165115493E+03 -0.89358348894E+02  0.17822776613E+03  0.33328339884E+03  0.89439750827E+02 0.  0.
        254    2    1    2    0    0 -0.25165115493E+03  0.89358348894E+02  0.77386858537E+03  0.12040533445E+04  0.88292618642E+03 0.  0.
        -24    2    4    4    0    0  0.15225571737E+03 -0.15209571359E+03 -0.65171549494E+02  0.23864488177E+03  0.79932090966E+02 0.  0.
         24    2    4    4    0    0 -0.40390687230E+03  0.24145406248E+03  0.83904013486E+03  0.96540846273E+03  0.81143861199E+02 0.  0.
         11    1    3    3    0    0  0.24011432957E+02 -0.41623153278E+02  0.20422267054E+02  0.52212113470E+02  0.00000000000E+00 0.  1.
        -11    1    3    3    0    0  0.22763972198E+03 -0.47735195616E+02  0.15780549908E+03  0.28107128537E+03  0.00000000000E+00 0. -1.
          2    1    6    6  502    0 -0.40648449824E+03  0.24000340923E+03  0.83871694750E+03  0.96243306353E+03  0.00000000000E+00 0. -1.
          1    1    5    5  503    0  0.93837142345E+02 -0.12217625019E+03 -0.12629726020E+02  0.15457022796E+03  0.00000000000E+00 0. -1.
         -2    1    5    5    0  503  0.58418575024E+02 -0.29919463401E+02 -0.52541823474E+02  0.84074653802E+02  0.00000000000E+00 0.  1.
         -1    1    6    6    0  502  0.25776259378E+01  0.14506532475E+01  0.32318736731E+00  0.29753991991E+01  0.00000000000E+00 0.  1.
<mgrwt>
<rscale>  0 0.12070281E+04</rscale>
<asrwt>0</asrwt>
<pdfrwt beam="1">  1        1 0.19149485E+00 0.12070281E+04</pdfrwt>
<pdfrwt beam="2">  1       -1 0.45018492E-01 0.12070281E+04</pdfrwt>
<totfact> 0.47973202E+01</totfact>
</mgrwt>
</event>
<event>
12    1  0.1556559E-007  0.2108166E+04  0.7818608E-02  0.8557655E-01
          1   -1    0    0  501    0  0.00000000000E+00  0.00000000000E+00  0.15132930102E+04  0.15132930102E+04  0.00000000000E+00 0. -1.
         -1   -1    0    0    0  501 -0.00000000000E+00 -0.00000000000E+00 -0.73422043815E+03  0.73422043815E+03  0.00000000000E+00 0.  1.
         23    2    1    2    0    0 -0.79948255298E+02  0.32996652032E+03  0.11597092521E+04  0.12118520309E+04  0.91597855745E+02 0.  0.
        254    2    1    2    0    0  0.79948255298E+02 -0.32996652032E+03 -0.38063668014E+03  0.10356614174E+04  0.90135490303E+03 0.  0.
        -24    2    4    4    0    0 -0.28120643153E+03  0.16227092833E+03 -0.47475701330E+02  0.33564767478E+03  0.70685982015E+02 0.  0.
         24    2    4    4    0    0  0.36115468683E+03 -0.49223744864E+03 -0.33316097881E+03  0.70001374265E+03  0.79325837090E+02 0.  0.
         13    1    3    3    0    0 -0.89570676041E+02  0.32637729749E+03  0.11445548113E+04  0.11935454588E+04  0.00000000000E+00 0. -1.
        -13    1    3    3    0    0  0.96224207424E+01  0.35892228288E+01  0.15154440875E+02  0.18306572035E+02  0.00000000000E+00 0.  1.
          4    1    6    6  502    0  0.48571110474E+02 -0.12070190104E+03 -0.71206861243E+02  0.14831897645E+03  0.00000000000E+00 0. -1.
          1    1    5    5  503    0 -0.63069158610E+02  0.48305392661E+01 -0.90570231872E+01  0.63899002702E+02  0.00000000000E+00 0. -1.
         -2    1    5    5    0  503 -0.21813727292E+03  0.15744038906E+03 -0.38418678143E+02  0.27174867208E+03  0.00000000000E+00 0.  1.
         -3    1    6    6    0  502  0.31258357635E+03 -0.37153554760E+03 -0.26195411756E+03  0.55169476619E+03  0.00000000000E+00 0.  1.
<mgrwt>
<rscale>  0 0.21081657E+04</rscale>
<asrwt>0</asrwt>
<pdfrwt beam="1">  1        1 0.23281431E+00 0.21081657E+04</pdfrwt>
<pdfrwt beam="2">  1       -1 0.11295699E+00 0.21081657E+04</pdfrwt>
<totfact> 0.42171386E+00</totfact>
</mgrwt>
</event>
<event>
12    1  0.1556559E-007  0.1585096E+04  0.7818608E-02  0.8829757E-01
          1   -1    0    0  501    0  0.00000000000E+00  0.00000000000E+00  0.12473167245E+04  0.12473167245E+04  0.00000000000E+00 0. -1.
         -1   -1    0    0    0  501 -0.00000000000E+00 -0.00000000000E+00 -0.50358673247E+03  0.50358673247E+03  0.00000000000E+00 0.  1.
         23    2    1    2    0    0 -0.40071947186E+02  0.38875365029E+03 -0.13476424957E+03  0.42289017909E+03  0.89104091033E+02 0.  0.
        254    2    1    2    0    0  0.40071947186E+02 -0.38875365029E+03  0.87849424158E+03  0.13280132779E+04  0.91604146857E+03 0.  0.
        -24    2    4    4    0    0  0.12246295938E+03 -0.28543350899E+03 -0.10096645808E+03  0.33629667721E+03  0.80198285359E+02 0.  0.
         24    2    4    4    0    0 -0.82391012197E+02 -0.10332014131E+03  0.97946069966E+03  0.99171660066E+03  0.81824344495E+02 0.  0.
         13    1    3    3    0    0 -0.63894952750E+02  0.34441313168E+03 -0.11315649020E+03  0.36811324553E+03  0.00000000000E+00 0.  1.
        -13    1    3    3    0    0  0.23823005564E+02  0.44340518615E+02 -0.21607759367E+02  0.54776933558E+02  0.00000000000E+00 0. -1.
          2    1    6    6  502    0 -0.85987530712E+02 -0.11208733481E+03  0.82843853341E+03  0.84039742367E+03  0.00000000000E+00 0. -1.
          1    1    5    5  503    0  0.13202427241E+03 -0.26774816601E+03 -0.10365675946E+03  0.31601299449E+03  0.00000000000E+00 0. -1.
         -2    1    5    5    0  503 -0.95613130307E+01 -0.17685342982E+02  0.26903013822E+01  0.20283682722E+02  0.00000000000E+00 0.  1.
         -1    1    6    6    0  502  0.35965185149E+01  0.87671935029E+01  0.15102216625E+03  0.15131917699E+03  0.00000000000E+00 0.  1.
<mgrwt>
<rscale>  0 0.15850958E+04</rscale>
<asrwt>0</asrwt>
<pdfrwt beam="1">  1        1 0.19189488E+00 0.15850958E+04</pdfrwt>
<pdfrwt beam="2">  1       -1 0.77474882E-01 0.15850958E+04</pdfrwt>
<totfact> 0.15835857E+01</totfact>
</mgrwt>
</event>
<event>
12    1  0.1556559E-007  0.1685931E+04  0.7818608E-02  0.8769429E-01
          2   -1    0    0  501    0  0.00000000000E+00  0.00000000000E+00  0.26736251733E+04  0.26736251733E+04  0.00000000000E+00 0. -1.
         -2   -1    0    0    0  501 -0.00000000000E+00 -0.00000000000E+00 -0.26577798251E+03  0.26577798251E+03  0.00000000000E+00 0.  1.
         23    2    1    2    0    0 -0.77146775330E+02 -0.38966201703E+01 -0.17086077453E+03  0.20810196240E+03  0.90256378669E+02 0.  0.
        254    2    1    2    0    0  0.77146775330E+02  0.38966201703E+01  0.25787079653E+04  0.27313011934E+04  0.89683032403E+03 0.  0.
        -24    2    4    4    0    0 -0.18279666472E+03  0.14319149837E+03  0.15799017929E+03  0.29152126321E+03  0.78136574760E+02 0.  0.
         24    2    4    4    0    0  0.25994344005E+03 -0.13929487820E+03  0.24207177860E+04  0.24397799302E+04  0.75351530002E+02 0.  0.
         11    1    3    3    0    0 -0.24492458737E+02 -0.39858830792E+02 -0.36354735034E+02  0.59247562705E+02  0.00000000000E+00 0. -1.
        -11    1    3    3    0    0 -0.52654316593E+02  0.35962210621E+02 -0.13450603950E+03  0.14885439970E+03  0.00000000000E+00 0.  1.
          4    1    6    6  502    0  0.25555507805E+03 -0.11779446380E+03  0.21856281200E+04  0.22036683536E+04  0.00000000000E+00 0. -1.
          1    1    5    5  503    0 -0.83917763609E+02  0.18738546197E+02  0.52355909215E+02  0.10067008191E+03  0.00000000000E+00 0. -1.
         -2    1    5    5    0  503 -0.98878901110E+02  0.12445295217E+03  0.10563427008E+03  0.19085118130E+03  0.00000000000E+00 0.  1.
         -3    1    6    6    0  502  0.43883620007E+01 -0.21500414401E+02  0.23508966600E+03  0.23611157659E+03  0.00000000000E+00 0.  1.
<mgrwt>
<rscale>  0 0.16859308E+04</rscale>
<asrwt>0</asrwt>
<pdfrwt beam="1">  1        2 0.41132693E+00 0.16859308E+04</pdfrwt>
<pdfrwt beam="2">  1       -2 0.40888922E-01 0.16859308E+04</pdfrwt>
<totfact> 0.14895262E+01</totfact>
</mgrwt>
</event>
<event>
12    1  0.1556559E-007  0.1228480E+04  0.7818608E-02  0.9088287E-01
         -4   -1    0    0    0  501 -0.00000000000E+00  0.00000000000E+00  0.48909922566E+03  0.48909922566E+03  0.00000000000E+00 0.  1.
          4   -1    0    0  501    0  0.00000000000E+00 -0.00000000000E+00 -0.77139890149E+03  0.77139890149E+03  0.00000000000E+00 0. -1.
         23    2    1    2    0    0  0.16159423367E+03 -0.22271054439E+03 -0.47943790669E+02  0.29411818240E+03  0.92164066851E+02 0.  0.
        254    2    1    2    0    0 -0.16159423367E+03  0.22271054439E+03 -0.23435588516E+03  0.96637994475E+03  0.89624485146E+03 0.  0.
        -24    2    4    4    0    0 -0.19451099756E+03  0.37079911168E+03 -0.49572734771E+03  0.65368116091E+03  0.78911009798E+02 0.  0.
         24    2    4    4    0    0  0.32916763892E+02 -0.14808856729E+03  0.26137146256E+03  0.31269878384E+03  0.80322791714E+02 0.  0.
         13    1    3    3    0    0  0.29608537664E+02 -0.10911657904E+03 -0.39544550780E+02  0.11977839881E+03  0.00000000000E+00 0. -1.
        -13    1    3    3    0    0  0.13198569600E+03 -0.11359396535E+03 -0.83992398886E+01  0.17433978360E+03  0.00000000000E+00 0.  1.
          4    1    6    6  502    0  0.40229982760E+01 -0.13796914054E+03  0.18827813236E+03  0.23345304321E+03  0.00000000000E+00 0. -1.
          1    1    5    5  503    0 -0.15855432061E+03  0.25928219724E+03 -0.40010317370E+03  0.50244331023E+03  0.00000000000E+00 0. -1.
         -2    1    5    5    0  503 -0.35956676951E+02  0.11151691444E+03 -0.95624174012E+02  0.15123785068E+03  0.00000000000E+00 0.  1.
         -3    1    6    6    0  502  0.28893765616E+02 -0.10119426745E+02  0.73093330195E+02  0.79245740631E+02  0.00000000000E+00 0.  1.
<mgrwt>
<rscale>  0 0.12284797E+04</rscale>
<asrwt>0</asrwt>
<pdfrwt beam="1">  1        4 0.11867675E+00 0.12284797E+04</pdfrwt>
<pdfrwt beam="2">  1       -4 0.75246035E-01 0.12284797E+04</pdfrwt>
<totfact> 0.17041810E+00</totfact>
</mgrwt>
</event>
<event>
12    1  0.1556559E-007  0.1585259E+04  0.7818608E-02  0.8829655E-01
         -1   -1    0    0    0  501 -0.00000000000E+00  0.00000000000E+00  0.80203885420E+03  0.80203885420E+03  0.00000000000E+00 0.  1.
          1   -1    0    0  501    0  0.00000000000E+00 -0.00000000000E+00 -0.78333101792E+03  0.78333101792E+03  0.00000000000E+00 0. -1.
         23    2    1    2    0    0  0.45215152867E+03  0.26130155616E+03 -0.91486233814E+02  0.53830325655E+03  0.93172726135E+02 0.  0.
        254    2    1    2    0    0 -0.45215152867E+03 -0.26130155616E+03  0.11019407010E+03  0.10470666156E+04  0.90082531948E+03 0.  0.
        -24    2    4    4    0    0 -0.59440106486E+03 -0.39596199169E+03  0.28368997971E+03  0.77309626780E+03  0.84257402807E+02 0.  0.
         24    2    4    4    0    0  0.14224953618E+03  0.13466043553E+03 -0.17349590962E+03  0.27397034776E+03  0.81182247802E+02 0.  0.
         13    1    3    3    0    0  0.37866240431E+03  0.18193538317E+03 -0.52700289050E+02  0.42339463926E+03  0.00000000000E+00 0. -1.
        -13    1    3    3    0    0  0.73489124361E+02  0.79366172996E+02 -0.38785944763E+02  0.11490861729E+03  0.00000000000E+00 0.  1.
          2    1    6    6  502    0  0.45938979622E+02  0.69108301929E+01 -0.67922430812E+02  0.82289768684E+02  0.00000000000E+00 0. -1.
          1    1    5    5  503    0 -0.18258185249E+03 -0.80369661692E+02  0.62214886678E+02  0.20896436898E+03  0.00000000000E+00 0. -1.
         -2    1    5    5    0  503 -0.41181921237E+03 -0.31559233000E+03  0.22147509304E+03  0.56413189882E+03  0.00000000000E+00 0.  1.
         -1    1    6    6    0  502  0.96310556562E+02  0.12774960534E+03 -0.10557347880E+03  0.19168057908E+03  0.00000000000E+00 0.  1.
<mgrwt>
<rscale>  0 0.15852595E+04</rscale>
<asrwt>0</asrwt>
<pdfrwt beam="1">  1        1 0.12051246E+00 0.15852595E+04</pdfrwt>
<pdfrwt beam="2">  1       -1 0.12339059E+00 0.15852595E+04</pdfrwt>
<totfact> 0.12700220E+01</totfact>
</mgrwt>
</event>
<event>
12    1  0.1556559E-007  0.2407368E+04  0.7818608E-02  0.8436750E-01
          2   -1    0    0  501    0  0.00000000000E+00  0.00000000000E+00  0.22759695038E+04  0.22759695038E+04  0.00000000000E+00 0. -1.
         -2   -1    0    0    0  501 -0.00000000000E+00 -0.00000000000E+00 -0.63658809776E+03  0.63658809776E+03  0.00000000000E+00 0.  1.
         23    2    1    2    0    0 -0.43016523739E+03  0.30348350628E+03  0.17753277273E+04  0.18539304599E+04  0.90140117087E+02 0.  0.
        254    2    1    2    0    0  0.43016523739E+03 -0.30348350628E+03 -0.13594632127E+03  0.10586271417E+04  0.90833124618E+03 0.  0.
        -24    2    4    4    0    0  0.22847620658E+02 -0.48909855368E+03  0.15302699075E+03  0.51881086426E+03  0.77511573325E+02 0.  0.
         24    2    4    4    0    0  0.40731761673E+03  0.18561504739E+03 -0.28897331202E+03  0.53981627741E+03  0.86806978877E+02 0.  0.
         11    1    3    3    0    0 -0.35111224807E+03  0.20092553711E+03  0.13310431812E+04  0.13911602468E+04  0.00000000000E+00 0. -1.
        -11    1    3    3    0    0 -0.79052989317E+02  0.10255796917E+03  0.44428454615E+03  0.46277021307E+03  0.00000000000E+00 0.  1.
          4    1    6    6  502    0  0.23575942776E+02  0.28459960106E+00  0.22141944299E+01  0.23681400543E+02  0.00000000000E+00 0. -1.
          1    1    5    5  503    0 -0.25733065370E+02 -0.25561544874E+03  0.69782665116E+02  0.26621620657E+03  0.00000000000E+00 0. -1.
         -2    1    5    5    0  503  0.48580686028E+02 -0.23348310494E+03  0.83244325632E+02  0.25259465770E+03  0.00000000000E+00 0.  1.
         -3    1    6    6    0  502  0.38374167395E+03  0.18533044779E+03 -0.29118750645E+03  0.51613487687E+03  0.00000000000E+00 0.  1.
<mgrwt>
<rscale>  0 0.24073679E+04</rscale>
<asrwt>0</asrwt>
<pdfrwt beam="1">  1        2 0.35014915E+00 0.24073679E+04</pdfrwt>
<pdfrwt beam="2">  1       -2 0.97936632E-01 0.24073679E+04</pdfrwt>
<totfact> 0.36475268E+00</totfact>
</mgrwt>
</event>
<event>
12    1  0.1556559E-007  0.2576419E+04  0.7818608E-02  0.8376255E-01
          2   -1    0    0  501    0  0.00000000000E+00  0.00000000000E+00  0.94909841417E+03  0.94909841417E+03  0.00000000000E+00 0. -1.
         -2   -1    0    0    0  501 -0.00000000000E+00 -0.00000000000E+00 -0.17484850154E+04  0.17484850154E+04  0.00000000000E+00 0.  1.
         23    2    1    2    0    0  0.73692126194E+03 -0.67382798803E+03 -0.90267940906E+03  0.13484887791E+04  0.80590123671E+02 0.  0.
        254    2    1    2    0    0 -0.73692126194E+03  0.67382798803E+03  0.10329280779E+03  0.13490946505E+04  0.90127125116E+03 0.  0.
        -24    2    4    4    0    0 -0.39046944003E+03  0.84925766603E+03  0.14792759531E+03  0.95008946437E+03  0.84157292874E+02 0.  0.
         24    2    4    4    0    0 -0.34645182191E+03 -0.17542967800E+03 -0.44634787516E+02  0.39900518615E+03  0.80052716939E+02 0.  0.
         13    1    3    3    0    0  0.66464257506E+03 -0.62620295544E+03 -0.84743504909E+03  0.12458033779E+04  0.00000000000E+00 0.  1.
        -13    1    3    3    0    0  0.72278686888E+02 -0.47625032593E+02 -0.55244359964E+02  0.10268540118E+03  0.00000000000E+00 0. -1.
          4    1    6    6  502    0 -0.18174622555E+02  0.86486825657E+01 -0.28258689619E+01  0.20324914527E+02  0.00000000000E+00 0. -1.
          3    1    5    5  503    0 -0.73937859774E+02  0.21770290689E+03  0.88123760379E+01  0.23008481208E+03  0.00000000000E+00 0. -1.
         -4    1    5    5    0  503 -0.31653158026E+03  0.63155475914E+03  0.13911521927E+03  0.72000465229E+03  0.00000000000E+00 0.  1.
         -3    1    6    6    0  502 -0.32827719935E+03 -0.18407836057E+03 -0.41808918554E+02  0.37868027162E+03  0.00000000000E+00 0.  1.
<mgrwt>
<rscale>  0 0.25764195E+04</rscale>
<asrwt>0</asrwt>
<pdfrwt beam="1">  1        2 0.14601514E+00 0.25764195E+04</pdfrwt>
<pdfrwt beam="2">  1       -2 0.26899769E+00 0.25764195E+04</pdfrwt>
<totfact> 0.11843621E+00</totfact>
</mgrwt>
</event>
<event>
12    1  0.1556559E-007  0.1988439E+04  0.7818608E-02  0.8612045E-01
          2   -1    0    0  501    0  0.00000000000E+00  0.00000000000E+00  0.10075250616E+04  0.10075250616E+04  0.00000000000E+00 0.  1.
         -2   -1    0    0    0  501 -0.00000000000E+00 -0.00000000000E+00 -0.98108928144E+03  0.98108928144E+03  0.00000000000E+00 0. -1.
         23    2    1    2    0    0  0.62844397544E+03 -0.12038512884E+03 -0.44761272901E+03  0.78618061354E+03  0.91040608660E+02 0.  0.
        254    2    1    2    0    0 -0.62844397544E+03  0.12038512884E+03  0.47404850917E+03  0.12024337295E+04  0.90093866344E+03 0.  0.
        -24    2    4    4    0    0 -0.14447016669E+03  0.83096305290E+02 -0.26020280808E+03  0.31868139767E+03  0.77946820808E+02 0.  0.
         24    2    4    4    0    0 -0.48397380875E+03  0.37288823547E+02  0.73425131725E+03  0.88375233183E+03  0.79196484919E+02 0.  0.
         11    1    3    3    0    0  0.36241423453E+03 -0.93832228668E+02 -0.21443487552E+03  0.43142888216E+03  0.00000000000E+00 0.  1.
        -11    1    3    3    0    0  0.26602974091E+03 -0.26552900169E+02 -0.23317785350E+03  0.35475173138E+03  0.00000000000E+00 0. -1.
          4    1    6    6  502    0 -0.38466771702E+02  0.25516696405E+02  0.69863065231E+02  0.83735549225E+02  0.00000000000E+00 0. -1.
          1    1    5    5  503    0  0.58597031670E+01  0.17963863905E+02 -0.16842966662E+02  0.25312488096E+02  0.00000000000E+00 0. -1.
         -2    1    5    5    0  503 -0.15032986985E+03  0.65132441385E+02 -0.24335984141E+03  0.29336890957E+03  0.00000000000E+00 0.  1.
         -3    1    6    6    0  502 -0.44550703705E+03  0.11772127142E+02  0.66438825202E+03  0.80001678261E+03  0.00000000000E+00 0.  1.
<mgrwt>
<rscale>  0 0.19884386E+04</rscale>
<asrwt>0</asrwt>
<pdfrwt beam="1">  1        2 0.15500386E+00 0.19884386E+04</pdfrwt>
<pdfrwt beam="2">  1       -2 0.15093681E+00 0.19884386E+04</pdfrwt>
<totfact> 0.68258515E+00</totfact>
</mgrwt>
</event>
<event>
12    1  0.1556559E-007  0.2344623E+04  0.7818608E-02  0.8460532E-01
         -2   -1    0    0    0  501 -0.00000000000E+00  0.00000000000E+00  0.12096281571E+04  0.12096281571E+04  0.00000000000E+00 0. -1.
          2   -1    0    0  501    0  0.00000000000E+00 -0.00000000000E+00 -0.11361461291E+04  0.11361461291E+04  0.00000000000E+00 0.  1.
         23    2    1    2    0    0  0.77415215102E+03  0.15908007832E+03 -0.57942370139E+03  0.98415053842E+03  0.90567280489E+02 0.  0.
        254    2    1    2    0    0 -0.77415215102E+03 -0.15908007832E+03  0.65290572944E+03  0.13616237478E+04  0.89616701277E+03 0.  0.
        -24    2    4    4    0    0 -0.96192285287E+03 -0.13325758805E+03  0.45188370336E+03  0.10739364148E+04  0.78021676829E+02 0.  0.
         24    2    4    4    0    0  0.18777070185E+03 -0.25822490268E+02  0.20102202607E+03  0.28768733297E+03  0.80184219827E+02 0.  0.
         11    1    3    3    0    0  0.77320910963E+03  0.16152282122E+03 -0.56925319316E+03  0.97364836923E+03  0.00000000000E+00 0.  1.
        -11    1    3    3    0    0  0.94304138996E+00 -0.24427428958E+01 -0.10170508239E+02  0.10502169193E+02  0.00000000000E+00 0. -1.
          4    1    6    6  502    0  0.70924372306E+01 -0.20176431823E+02  0.69928334869E+01  0.22500906363E+02  0.00000000000E+00 0. -1.
          3    1    5    5  503    0 -0.20598573191E+02 -0.14330556285E+02  0.72954224408E+01  0.26132149730E+02  0.00000000000E+00 0. -1.
         -4    1    5    5    0  503 -0.94132427968E+03 -0.11892703177E+03  0.44458828092E+03  0.10478042651E+04  0.00000000000E+00 0.  1.
         -3    1    6    6    0  502  0.18067826462E+03 -0.56460584448E+01  0.19402919259E+03  0.26518642661E+03  0.00000000000E+00 0.  1.
<mgrwt>
<rscale>  0 0.23446231E+04</rscale>
<asrwt>0</asrwt>
<pdfrwt beam="1">  1        2 0.17479171E+00 0.23446231E+04</pdfrwt>
<pdfrwt beam="2">  1       -2 0.18609664E+00 0.23446231E+04</pdfrwt>
<totfact> 0.30795409E+00</totfact>
</mgrwt>
</event>
<event>
12    1  0.1556559E-007  0.2956435E+04  0.7818608E-02  0.8256282E-01
         -1   -1    0    0    0  501 -0.00000000000E+00  0.00000000000E+00  0.85374926260E+03  0.85374926260E+03  0.00000000000E+00 0.  1.
          1   -1    0    0  501    0  0.00000000000E+00 -0.00000000000E+00 -0.25594476999E+04  0.25594476999E+04  0.00000000000E+00 0. -1.
         23    2    1    2    0    0 -0.22214706781E+03 -0.14531606787E+03 -0.22890271492E+04  0.23061143007E+04  0.89731815592E+02 0.  0.
        254    2    1    2    0    0  0.22214706781E+03  0.14531606787E+03  0.58332871184E+03  0.11070826619E+04  0.90271454784E+03 0.  0.
        -24    2    4    4    0    0  0.50193133936E+03  0.31492199294E+03  0.43930828329E+03  0.74131802460E+03  0.73822183385E+02 0.  0.
         24    2    4    4    0    0 -0.27978427155E+03 -0.16960592507E+03  0.14402042855E+03  0.36576463728E+03  0.77436926708E+02 0.  0.
         11    1    3    3    0    0 -0.18093562421E+03 -0.11403389290E+03 -0.20718313952E+04  0.20828410307E+04  0.00000000000E+00 0. -1.
        -11    1    3    3    0    0 -0.41211443595E+02 -0.31282174971E+02 -0.21719575396E+03  0.22327326999E+03  0.00000000000E+00 0.  1.
          4    1    6    6  502    0 -0.10481323957E+03 -0.54475067914E+02  0.92599581043E+02  0.15009340633E+03  0.00000000000E+00 0. -1.
          3    1    5    5  503    0 -0.19349561921E+00  0.58970995436E+01 -0.24390133522E+00  0.59053121376E+01  0.00000000000E+00 0. -1.
         -2    1    5    5    0  503  0.50212483498E+03  0.30902489340E+03  0.43955218462E+03  0.73541271246E+03  0.00000000000E+00 0.  1.
         -3    1    6    6    0  502 -0.17497103199E+03 -0.11513085716E+03  0.51420847507E+02  0.21567123096E+03  0.00000000000E+00 0.  1.
<mgrwt>
<rscale>  0 0.29564347E+04</rscale>
<asrwt>0</asrwt>
<pdfrwt beam="1">  1        1 0.39376119E+00 0.29564347E+04</pdfrwt>
<pdfrwt beam="2">  1       -1 0.13134604E+00 0.29564347E+04</pdfrwt>
<totfact> 0.51958222E-01</totfact>
</mgrwt>
</event>
<event>
12    1  0.1556559E-007  0.1291989E+04  0.7818608E-02  0.9035942E-01
          1   -1    0    0  501    0  0.00000000000E+00  0.00000000000E+00  0.10559810589E+04  0.10559810589E+04  0.00000000000E+00 0. -1.
         -1   -1    0    0    0  501 -0.00000000000E+00 -0.00000000000E+00 -0.39518577794E+03  0.39518577794E+03  0.00000000000E+00 0.  1.
         23    2    1    2    0    0  0.13910888623E+03 -0.39257037785E+01  0.49596343246E+03  0.52344385910E+03  0.92989536584E+02 0.  0.
        254    2    1    2    0    0 -0.13910888623E+03  0.39257037785E+01  0.16483184853E+03  0.92772297778E+03  0.90229357297E+03 0.  0.
        -24    2    4    4    0    0 -0.44973064581E+03  0.16462136227E+03  0.26798686717E+03  0.55424062963E+03  0.77510437115E+02 0.  0.
         24    2    4    4    0    0  0.31062175958E+03 -0.16069565849E+03 -0.10315501865E+03  0.37348234814E+03  0.80864914019E+02 0.  0.
         11    1    3    3    0    0  0.13399061091E+03  0.25640904174E+02  0.38332396693E+03  0.40687615241E+03  0.00000000000E+00 0. -1.
        -11    1    3    3    0    0  0.51182753264E+01 -0.29566607952E+02  0.11263946553E+03  0.11656770669E+03  0.00000000000E+00 0.  1.
          4    1    6    6  502    0  0.16434716862E+03 -0.12985909555E+03 -0.61149396161E+02  0.21820317409E+03  0.00000000000E+00 0. -1.
          1    1    5    5  503    0 -0.38827819081E+03  0.16913997431E+03  0.23290246264E+03  0.48333408888E+03  0.00000000000E+00 0. -1.
         -2    1    5    5    0  503 -0.61452455001E+02 -0.45186120388E+01  0.35084404532E+02  0.70906540754E+02  0.00000000000E+00 0.  1.
         -3    1    6    6    0  502  0.14627459096E+03 -0.30836562938E+02 -0.42005622486E+02  0.15527917405E+03  0.00000000000E+00 0.  1.
<mgrwt>
<rscale>  0 0.12919887E+04</rscale>
<asrwt>0</asrwt>
<pdfrwt beam="1">  1        1 0.16245862E+00 0.12919887E+04</pdfrwt>
<pdfrwt beam="2">  1       -1 0.60797813E-01 0.12919887E+04</pdfrwt>
<totfact> 0.36936371E+01</totfact>
</mgrwt>
</event>
<event>
12    1  0.1556559E-007  0.2282077E+04  0.7818608E-02  0.8485022E-01
         -1   -1    0    0    0  501 -0.00000000000E+00  0.00000000000E+00  0.14944416718E+04  0.14944416718E+04  0.00000000000E+00 0.  1.
          1   -1    0    0  501    0  0.00000000000E+00 -0.00000000000E+00 -0.87120734809E+03  0.87120734809E+03  0.00000000000E+00 0. -1.
         23    2    1    2    0    0  0.87931787789E+02 -0.90509511241E+03 -0.59087229717E+02  0.91582597031E+03  0.91196191652E+02 0.  0.
        254    2    1    2    0    0 -0.87931787789E+02  0.90509511241E+03  0.68232155344E+03  0.14498230496E+04  0.89971940684E+03 0.  0.
        -24    2    4    4    0    0 -0.58418789818E+02 -0.11500257856E+03  0.33718582574E+03  0.36957032330E+03  0.79054378127E+02 0.  0.
         24    2    4    4    0    0 -0.29512997971E+02  0.10200976910E+04  0.34513572770E+03  0.10802527263E+04  0.79730583737E+02 0.  0.
         13    1    3    3    0    0  0.41210464356E+02 -0.65747208751E+03 -0.85593101387E+01  0.65881796425E+03  0.00000000000E+00 0. -1.
        -13    1    3    3    0    0  0.46721323433E+02 -0.24762302490E+03 -0.50527919578E+02  0.25700800606E+03  0.00000000000E+00 0.  1.
          4    1    6    6  502    0  0.12795472912E+02  0.38734070577E+03  0.99040280857E+02  0.40000690458E+03  0.00000000000E+00 0. -1.
          3    1    5    5  503    0 -0.10250006825E+01  0.37003258483E+01  0.84200521930E+02  0.84288023651E+02  0.00000000000E+00 0. -1.
         -4    1    5    5    0  503 -0.57393789135E+02 -0.11870290440E+03  0.25298530381E+03  0.28528229965E+03  0.00000000000E+00 0.  1.
         -1    1    6    6    0  502 -0.42308470884E+02  0.63275698519E+03  0.24609544684E+03  0.68024582172E+03  0.00000000000E+00 0.  1.
<mgrwt>
<rscale>  0 0.22820767E+04</rscale>
<asrwt>0</asrwt>
<pdfrwt beam="1">  1        1 0.13403190E+00 0.22820767E+04</pdfrwt>
<pdfrwt beam="2">  1       -1 0.22991410E+00 0.22820767E+04</pdfrwt>
<totfact> 0.16446872E+00</totfact>
</mgrwt>
</event>
<event>
12    1  0.1556559E-007  0.2061089E+04  0.7818608E-02  0.8578580E-01
         -2   -1    0    0    0  501 -0.00000000000E+00  0.00000000000E+00  0.11965162925E+04  0.11965162925E+04  0.00000000000E+00 0.  1.
          2   -1    0    0  501    0  0.00000000000E+00 -0.00000000000E+00 -0.88759500533E+03  0.88759500533E+03  0.00000000000E+00 0. -1.
         23    2    1    2    0    0 -0.67419366076E+03 -0.12856226345E+03 -0.34893121674E+03  0.77522202179E+03  0.90282009658E+02 0.  0.
        254    2    1    2    0    0  0.67419366076E+03  0.12856226345E+03  0.65785250391E+03  0.13088892760E+04  0.89964208007E+03 0.  0.
        -24    2    4    4    0    0  0.18438922911E+03 -0.29405991240E+02  0.75246426156E+03  0.77957888811E+03  0.81710940063E+02 0.  0.
         24    2    4    4    0    0  0.48980443165E+03  0.15796825469E+03 -0.94611757647E+02  0.52931038793E+03  0.79722966198E+02 0.  0.
         11    1    3    3    0    0 -0.10428611782E+03 -0.18009777183E+01 -0.23883497607E+02  0.10700121190E+03  0.00000000000E+00 0. -1.
        -11    1    3    3    0    0 -0.56990754294E+03 -0.12676128573E+03 -0.32504771913E+03  0.66822080990E+03  0.00000000000E+00 0.  1.
          4    1    6    6  502    0  0.31516675447E+02 -0.76724693461E+01  0.20917386660E+01  0.32504507191E+02  0.00000000000E+00 0. -1.
          1    1    5    5  503    0  0.10216964027E+03  0.20153312627E+02  0.31734200739E+03  0.33399212724E+03  0.00000000000E+00 0. -1.
         -2    1    5    5    0  503  0.82219588845E+02 -0.49559303867E+02  0.43512225417E+03  0.44558676087E+03  0.00000000000E+00 0.  1.
         -3    1    6    6    0  502  0.45828775620E+03  0.16564072403E+03 -0.96703496313E+02  0.49680588074E+03  0.00000000000E+00 0.  1.
<mgrwt>
<rscale>  0 0.20610889E+04</rscale>
<asrwt>0</asrwt>
<pdfrwt beam="1">  1        2 0.13655308E+00 0.20610889E+04</pdfrwt>
<pdfrwt beam="2">  1       -2 0.18407943E+00 0.20610889E+04</pdfrwt>
<totfact> 0.46965990E+00</totfact>
</mgrwt>
</event>
<event>
12    1  0.1556559E-007  0.2413947E+04  0.7818608E-02  0.8434300E-01
          1   -1    0    0  501    0  0.00000000000E+00  0.00000000000E+00  0.15073805936E+04  0.15073805936E+04  0.00000000000E+00 0. -1.
         -1   -1    0    0    0  501 -0.00000000000E+00 -0.00000000000E+00 -0.96643473959E+03  0.96643473959E+03  0.00000000000E+00 0.  1.
         23    2    1    2    0    0 -0.56935279739E+03 -0.67156925384E+03  0.73540187559E+03  0.11507397711E+04  0.90654462594E+02 0.  0.
        254    2    1    2    0    0  0.56935279739E+03  0.67156925384E+03 -0.19445602158E+03  0.13230755621E+04  0.96827058618E+03 0.  0.
        -24    2    4    4    0    0  0.71791724825E+03  0.49625883058E+03  0.16184816525E+03  0.89191602205E+03  0.87414870146E+02 0.  0.
         24    2    4    4    0    0 -0.14856445086E+03  0.17531042326E+03 -0.35630418683E+03  0.43115954004E+03  0.78362841023E+02 0.  0.
         11    1    3    3    0    0 -0.57053197601E+03 -0.65994734493E+03  0.71836169076E+03  0.11300799761E+04  0.00000000000E+00 0. -1.
        -11    1    3    3    0    0  0.11791786184E+01 -0.11621908908E+02  0.17040184830E+02  0.20659794963E+02  0.00000000000E+00 0.  1.
          4    1    6    6  502    0  0.60518212421E+01  0.12046799064E+02 -0.56825548844E+01  0.14630151675E+02  0.00000000000E+00 0. -1.
          3    1    5    5  503    0  0.24207083365E+02  0.76126245461E-01  0.39445679926E+01  0.24526481543E+02  0.00000000000E+00 0. -1.
         -4    1    5    5    0  503  0.69371016489E+03  0.49618270433E+03  0.15790359726E+03  0.86738954050E+03  0.00000000000E+00 0.  1.
         -3    1    6    6    0  502 -0.15461627210E+03  0.16326362420E+03 -0.35062163195E+03  0.41652938837E+03  0.00000000000E+00 0.  1.
<mgrwt>
<rscale>  0 0.24139470E+04</rscale>
<asrwt>0</asrwt>
<pdfrwt beam="1">  1        1 0.23190471E+00 0.24139470E+04</pdfrwt>
<pdfrwt beam="2">  1       -1 0.14868227E+00 0.24139470E+04</pdfrwt>
<totfact> 0.20675443E+00</totfact>
</mgrwt>
</event>
<event>
12    1  0.1556559E-007  0.1586331E+04  0.7818608E-02  0.8828990E-01
          1   -1    0    0  501    0  0.00000000000E+00  0.00000000000E+00  0.40157077542E+03  0.40157077542E+03  0.00000000000E+00 0. -1.
         -1   -1    0    0    0  501 -0.00000000000E+00 -0.00000000000E+00 -0.15666265303E+04  0.15666265303E+04  0.00000000000E+00 0.  1.
         23    2    1    2    0    0 -0.19521418509E+03 -0.30108572308E+03 -0.87098235836E+03  0.94666434707E+03  0.93818584131E+02 0.  0.
        254    2    1    2    0    0  0.19521418509E+03  0.30108572308E+03 -0.29407339649E+03  0.10215329586E+04  0.91010396786E+03 0.  0.
        -24    2    4    4    0    0 -0.27484884499E+03  0.18405659523E+03  0.13926119182E+03  0.36679850049E+03  0.75688457346E+02 0.  0.
         24    2    4    4    0    0  0.47006303007E+03  0.11702912785E+03 -0.43333458830E+03  0.65473445813E+03  0.79014405216E+02 0.  0.
         13    1    3    3    0    0 -0.51081714598E+02 -0.12453105795E+03 -0.42521962498E+03  0.44601463589E+03  0.00000000000E+00 0. -1.
        -13    1    3    3    0    0 -0.14413247049E+03 -0.17655466514E+03 -0.44576273338E+03  0.50064971118E+03  0.00000000000E+00 0.  1.
          4    1    6    6  502    0  0.86662568617E+02  0.47372481491E+02 -0.62975427633E+02  0.11713435571E+03  0.00000000000E+00 0. -1.
          3    1    5    5  503    0 -0.69355570675E+02  0.16665950658E+02  0.50081484751E+02  0.87155632118E+02  0.00000000000E+00 0. -1.
         -4    1    5    5    0  503 -0.20549327431E+03  0.16739064457E+03  0.89179707065E+02  0.27964286837E+03  0.00000000000E+00 0.  1.
         -3    1    6    6    0  502  0.38340046146E+03  0.69656646362E+02 -0.37035916067E+03  0.53760010242E+03  0.00000000000E+00 0.  1.
<mgrwt>
<rscale>  0 0.15863309E+04</rscale>
<asrwt>0</asrwt>
<pdfrwt beam="1">  1        1 0.61780118E-01 0.15863309E+04</pdfrwt>
<pdfrwt beam="2">  1       -1 0.24101947E+00 0.15863309E+04</pdfrwt>
<totfact> 0.45780566E+00</totfact>
</mgrwt>
</event>
<event>
12    1  0.1556559E-007  0.1579134E+04  0.7818608E-02  0.8833471E-01
          2   -1    0    0  501    0  0.00000000000E+00  0.00000000000E+00  0.22035082413E+04  0.22035082413E+04  0.00000000000E+00 0. -1.
         -2   -1    0    0    0  501 -0.00000000000E+00 -0.00000000000E+00 -0.28291961526E+03  0.28291961526E+03  0.00000000000E+00 0.  1.
         23    2    1    2    0    0 -0.30409093912E+03 -0.43251501485E+03  0.59200536690E+03  0.79900339247E+03  0.91627121596E+02 0.  0.
        254    2    1    2    0    0  0.30409093912E+03  0.43251501485E+03  0.13285832591E+04  0.16874244640E+04  0.89595050543E+03 0.  0.
        -24    2    4    4    0    0  0.21060643607E+03 -0.24783808300E+03  0.56693931738E+03  0.65843016910E+03  0.79569539980E+02 0.  0.
         24    2    4    4    0    0  0.93484503056E+02  0.68035309784E+03  0.76164394172E+03  0.10289942949E+04  0.84309400538E+02 0.  0.
         11    1    3    3    0    0 -0.18127252156E+02 -0.47586355601E+02  0.25997868172E+02  0.57174711714E+02  0.00000000000E+00 0. -1.
        -11    1    3    3    0    0 -0.28596368697E+03 -0.38492865925E+03  0.56600749873E+03  0.74182868075E+03  0.00000000000E+00 0.  1.
          2    1    6    6  502    0  0.10491127667E+03  0.65590856194E+03  0.74006188548E+03  0.99444155783E+03  0.00000000000E+00 0. -1.
          1    1    5    5  503    0  0.17964066159E+03 -0.20831883315E+03  0.41059491890E+03  0.49422230926E+03  0.00000000000E+00 0. -1.
         -2    1    5    5    0  503  0.30965774473E+02 -0.39519249845E+02  0.15634439848E+03  0.16420785984E+03  0.00000000000E+00 0.  1.
         -1    1    6    6    0  502 -0.11426773614E+02  0.24444535908E+02  0.21582056240E+02  0.34552737120E+02  0.00000000000E+00 0.  1.
<mgrwt>
<rscale>  0 0.15791336E+04</rscale>
<asrwt>0</asrwt>
<pdfrwt beam="1">  1        2 0.33900126E+00 0.15791336E+04</pdfrwt>
<pdfrwt beam="2">  1       -2 0.43526096E-01 0.15791336E+04</pdfrwt>
<totfact> 0.24731920E+01</totfact>
</mgrwt>
</event>
<event>
12    1  0.1556559E-007  0.2451397E+04  0.7818608E-02  0.8420508E-01
         -1   -1    0    0    0  501 -0.00000000000E+00  0.00000000000E+00  0.74454932376E+03  0.74454932376E+03  0.00000000000E+00 0.  1.
          1   -1    0    0  501    0  0.00000000000E+00 -0.00000000000E+00 -0.20177799851E+04  0.20177799851E+04  0.00000000000E+00 0. -1.
         23    2    1    2    0    0  0.61858653150E+03 -0.27108484838E+03  0.36669483532E+03  0.77395590251E+03  0.91686121115E+02 0.  0.
        254    2    1    2    0    0 -0.61858653150E+03  0.27108484838E+03 -0.16399254967E+04  0.19883734064E+04  0.89896433551E+03 0.  0.
        -24    2    4    4    0    0 -0.28045889128E+03  0.18159126359E+03 -0.15890943160E+04  0.16258803344E+04  0.81446545080E+02 0.  0.
         24    2    4    4    0    0 -0.33812764023E+03  0.89493584789E+02 -0.50831180667E+02  0.36249307202E+03  0.80486120132E+02 0.  0.
         11    1    3    3    0    0  0.56276189962E+03 -0.27266971150E+03  0.34361947252E+03  0.71352930502E+03  0.00000000000E+00 0.  1.
        -11    1    3    3    0    0  0.55824631885E+02  0.15848631129E+01  0.23075362804E+02  0.60426597494E+02  0.00000000000E+00 0. -1.
          2    1    6    6  502    0 -0.34166648226E+03  0.86294173318E+02 -0.54353807196E+02  0.35656276559E+03  0.00000000000E+00 0. -1.
          3    1    5    5  503    0 -0.20026133960E+03  0.12340257925E+03 -0.12753579707E+04  0.12968695979E+04  0.00000000000E+00 0. -1.
         -4    1    5    5    0  503 -0.80197551679E+02  0.58188684347E+02 -0.31373634539E+03  0.32901073645E+03  0.00000000000E+00 0.  1.
         -1    1    6    6    0  502  0.35388420356E+01  0.31994114717E+01  0.35226265287E+01  0.59303064321E+01  0.00000000000E+00 0.  1.
<mgrwt>
<rscale>  0 0.24513969E+04</rscale>
<asrwt>0</asrwt>
<pdfrwt beam="1">  1        1 0.31042768E+00 0.24513969E+04</pdfrwt>
<pdfrwt beam="2">  1       -1 0.11454605E+00 0.24513969E+04</pdfrwt>
<totfact> 0.17914401E+00</totfact>
</mgrwt>
</event>
<event>
12    1  0.1556559E-007  0.2076438E+04  0.7818608E-02  0.8571694E-01
         -1   -1    0    0    0  501 -0.00000000000E+00  0.00000000000E+00  0.63282801483E+03  0.63282801483E+03  0.00000000000E+00 0.  1.
          1   -1    0    0  501    0  0.00000000000E+00 -0.00000000000E+00 -0.17033041954E+04  0.17033041954E+04  0.00000000000E+00 0. -1.
         23    2    1    2    0    0  0.22286384871E+03  0.14994164279E+03  0.45987084695E+03  0.54024914935E+03  0.90758780257E+02 0.  0.
        254    2    1    2    0    0 -0.22286384871E+03 -0.14994164279E+03 -0.15303470275E+04  0.17958830608E+04  0.90060155029E+03 0.  0.
        -24    2    4    4    0    0  0.12557671525E+03  0.24652739276E+03 -0.10086644221E+04  0.10489931881E+04  0.80234191449E+02 0.  0.
         24    2    4    4    0    0 -0.34844056396E+03 -0.39646903555E+03 -0.52168260535E+03  0.74688987271E+03  0.84221247137E+02 0.  0.
         13    1    3    3    0    0  0.15068083524E+03  0.14437001445E+03  0.37057399246E+03  0.42529107570E+03  0.00000000000E+00 0.  1.
        -13    1    3    3    0    0  0.72183013468E+02  0.55716283414E+01  0.89296854490E+02  0.11495807365E+03  0.00000000000E+00 0. -1.
          2    1    6    6  502    0 -0.36702827056E+02 -0.14164427049E+02 -0.23615658173E+02  0.45884941086E+02  0.00000000000E+00 0. -1.
          1    1    5    5  503    0  0.68820739699E+02  0.60902287698E+02 -0.26812242035E+03  0.28343432247E+03  0.00000000000E+00 0. -1.
         -2    1    5    5    0  503  0.56755975550E+02  0.18562510506E+03 -0.74054200179E+03  0.76555886567E+03  0.00000000000E+00 0.  1.
         -1    1    6    6    0  502 -0.31173773690E+03 -0.38230460850E+03 -0.49806694717E+03  0.70100493162E+03  0.00000000000E+00 0.  1.
<mgrwt>
<rscale>  0 0.20764379E+04</rscale>
<asrwt>0</asrwt>
<pdfrwt beam="1">  1        1 0.26204680E+00 0.20764379E+04</pdfrwt>
<pdfrwt beam="2">  1       -1 0.97358157E-01 0.20764379E+04</pdfrwt>
<totfact> 0.44260533E+00</totfact>
</mgrwt>
</event>
<event>
12    1  0.1556559E-007  0.3229558E+04  0.7818608E-02  0.8181054E-01
          2   -1    0    0  501    0  0.00000000000E+00  0.00000000000E+00  0.17909994672E+04  0.17909994672E+04  0.00000000000E+00 0. -1.
         -2   -1    0    0    0  501 -0.00000000000E+00 -0.00000000000E+00 -0.14558969593E+04  0.14558969593E+04  0.00000000000E+00 0.  1.
         23    2    1    2    0    0  0.13251462608E+04  0.34077516953E+03  0.74218142004E+03  0.15592510173E+04  0.91050238279E+02 0.  0.
        254    2    1    2    0    0 -0.13251462608E+04 -0.34077516953E+03 -0.40707891219E+03  0.16876454093E+04  0.90016301742E+03 0.  0.
        -24    2    4    4    0    0 -0.14172984543E+03 -0.71974798192E+02  0.24903850101E+03  0.30579629419E+03  0.78889022684E+02 0.  0.
         24    2    4    4    0    0 -0.11834164154E+04 -0.26880037133E+03 -0.65611741320E+03  0.13818491151E+04  0.79302364824E+02 0.  0.
         11    1    3    3    0    0  0.24445085345E+03  0.84804742598E+02  0.10833529778E+03  0.28050775544E+03  0.00000000000E+00 0.  1.
        -11    1    3    3    0    0  0.10806954074E+04  0.25597042693E+03  0.63384612226E+03  0.12787432618E+04  0.00000000000E+00 0. -1.
          2    1    6    6  502    0 -0.10384689951E+04 -0.24249963491E+03 -0.54691930949E+03  0.11984759730E+04  0.00000000000E+00 0. -1.
          3    1    5    5  503    0 -0.12057625252E+03 -0.67898763910E+02  0.24828141751E+03  0.28424028056E+03  0.00000000000E+00 0. -1.
         -4    1    5    5    0  503 -0.21153592910E+02 -0.40760342812E+01  0.75708349775E+00  0.21556013637E+02  0.00000000000E+00 0.  1.
         -1    1    6    6    0  502 -0.14494742026E+03 -0.26300736428E+02 -0.10919810371E+03  0.18337314207E+03  0.00000000000E+00 0.  1.
<mgrwt>
<rscale>  0 0.32295577E+04</rscale>
<asrwt>0</asrwt>
<pdfrwt beam="1">  1        2 0.27553838E+00 0.32295577E+04</pdfrwt>
<pdfrwt beam="2">  1       -2 0.22398415E+00 0.32295577E+04</pdfrwt>
<totfact> 0.68391146E-01</totfact>
</mgrwt>
</event>
<event>
12    1  0.1556559E-007  0.1176155E+04  0.7818608E-02  0.9133988E-01
          1   -1    0    0  501    0  0.00000000000E+00  0.00000000000E+00  0.84868452507E+03  0.84868452507E+03  0.00000000000E+00 0. -1.
         -1   -1    0    0    0  501 -0.00000000000E+00 -0.00000000000E+00 -0.40749555702E+03  0.40749555702E+03  0.00000000000E+00 0.  1.
         23    2    1    2    0    0  0.21717451942E+03 -0.73161691173E+02  0.49844389657E+02  0.25216121972E+03  0.92646708583E+02 0.  0.
        254    2    1    2    0    0 -0.21717451942E+03  0.73161691173E+02  0.39134457839E+03  0.10040188624E+04  0.89575995222E+03 0.  0.
        -24    2    4    4    0    0 -0.51793524206E+03 -0.76850475878E+02  0.73797975955E+02  0.53478591472E+03  0.79918225190E+02 0.  0.
         24    2    4    4    0    0  0.30076072264E+03  0.15001216705E+03  0.31754660243E+03  0.46923294764E+03  0.79894004100E+02 0.  0.
         13    1    3    3    0    0  0.82424032629E+02 -0.46965874483E+02 -0.21768421546E+02  0.97331283241E+02  0.00000000000E+00 0.  1.
        -13    1    3    3    0    0  0.13475048679E+03 -0.26195816690E+02  0.71612811203E+02  0.15482993648E+03  0.00000000000E+00 0. -1.
          4    1    6    6  502    0  0.24323554183E+03  0.12727142473E+03  0.29606406787E+03  0.40375175126E+03  0.00000000000E+00 0. -1.
          3    1    5    5  503    0 -0.50891472277E+03 -0.76677024362E+02  0.83666194519E+02  0.52141499137E+03  0.00000000000E+00 0. -1.
         -4    1    5    5    0  503 -0.90205192914E+01 -0.17345151617E+00 -0.98682185642E+01  0.13370923354E+02  0.00000000000E+00 0.  1.
         -3    1    6    6    0  502  0.57525180809E+02  0.22740742320E+02  0.21482534563E+02  0.65481196382E+02  0.00000000000E+00 0.  1.
<mgrwt>
<rscale>  0 0.11761550E+04</rscale>
<asrwt>0</asrwt>
<pdfrwt beam="1">  1        1 0.13056685E+00 0.11761550E+04</pdfrwt>
<pdfrwt beam="2">  1       -1 0.62691624E-01 0.11761550E+04</pdfrwt>
<totfact> 0.51378554E+01</totfact>
</mgrwt>
</event>
<event>
12    1  0.1556559E-007  0.1228690E+04  0.7818608E-02  0.9088108E-01
          1   -1    0    0  501    0  0.00000000000E+00  0.00000000000E+00  0.15002149703E+04  0.15002149703E+04  0.00000000000E+00 0. -1.
         -1   -1    0    0    0  501 -0.00000000000E+00 -0.00000000000E+00 -0.25157722084E+03  0.25157722084E+03  0.00000000000E+00 0.  1.
         23    2    1    2    0    0  0.16671561457E+03  0.10559883203E+03  0.57245003176E+03  0.61243054947E+03  0.91798309342E+02 0.  0.
        254    2    1    2    0    0 -0.16671561457E+03 -0.10559883203E+03  0.67618771772E+03  0.11393616417E+04  0.89552772794E+03 0.  0.
        -24    2    4    4    0    0 -0.34359043612E+03  0.24769869747E+03  0.11197907083E+03  0.44590100109E+03  0.82941894978E+02 0.  0.
         24    2    4    4    0    0  0.17687482156E+03 -0.35329752949E+03  0.56420864689E+03  0.69346064062E+03  0.80326932034E+02 0.  0.
         11    1    3    3    0    0  0.13889780146E+03  0.57790828488E+02  0.31466888522E+03  0.34878200417E+03  0.00000000000E+00 0. -1.
        -11    1    3    3    0    0  0.27817813110E+02  0.47808003539E+02  0.25778114654E+03  0.26364854530E+03  0.00000000000E+00 0.  1.
          2    1    6    6  502    0 -0.17423179956E+01 -0.10556839301E+00 -0.19871687655E+01  0.26449303178E+01  0.00000000000E+00 0. -1.
          1    1    5    5  503    0 -0.16331297979E+03  0.86726664086E+02  0.15122682273E+02  0.18552988748E+03  0.00000000000E+00 0. -1.
         -2    1    5    5    0  503 -0.18027745634E+03  0.16097203338E+03  0.96856388560E+02  0.26037111360E+03  0.00000000000E+00 0.  1.
         -1    1    6    6    0  502  0.17861713955E+03 -0.35319196110E+03  0.56619581566E+03  0.69081571030E+03  0.00000000000E+00 0.  1.
<mgrwt>
<rscale>  0 0.12286902E+04</rscale>
<asrwt>0</asrwt>
<pdfrwt beam="1">  1        1 0.23080230E+00 0.12286902E+04</pdfrwt>
<pdfrwt beam="2">  1       -1 0.38704189E-01 0.12286902E+04</pdfrwt>
<totfact> 0.41773069E+01</totfact>
</mgrwt>
</event>
<event>
12    1  0.1556559E-007  0.1354360E+04  0.7818608E-02  0.8987534E-01
          2   -1    0    0  501    0  0.00000000000E+00  0.00000000000E+00  0.10187898078E+04  0.10187898078E+04  0.00000000000E+00 0. -1.
         -2   -1    0    0    0  501 -0.00000000000E+00 -0.00000000000E+00 -0.45011547087E+03  0.45011547087E+03  0.00000000000E+00 0.  1.
         23    2    1    2    0    0  0.21008226622E+03  0.13886455492E+03  0.45737927963E+03  0.52901158777E+03  0.85085435693E+02 0.  0.
        254    2    1    2    0    0 -0.21008226622E+03 -0.13886455492E+03  0.11129505726E+03  0.93989369086E+03  0.89866325014E+03 0.  0.
        -24    2    4    4    0    0  0.23421161473E+03 -0.32965019182E+03 -0.71015488367E+02  0.41710787416E+03  0.73562556079E+02 0.  0.
         24    2    4    4    0    0 -0.44429388095E+03  0.19078563690E+03  0.18231054563E+03  0.52278581670E+03  0.79193833111E+02 0.  0.
         13    1    3    3    0    0  0.19563189747E+03  0.12860314213E+03  0.45422527875E+03  0.51100999142E+03  0.00000000000E+00 0. -1.
        -13    1    3    3    0    0  0.14450368756E+02  0.10261412790E+02  0.31540008747E+01  0.18001596350E+02  0.00000000000E+00 0.  1.
          2    1    6    6  502    0 -0.58334648448E+02  0.28976638188E+02 -0.27426951726E+01  0.65192784471E+02  0.00000000000E+00 0. -1.
          3    1    5    5  503    0  0.11550768798E+03 -0.16819711769E+03  0.13605775990E+01  0.20404447445E+03  0.00000000000E+00 0. -1.
         -4    1    5    5    0  503  0.11870392675E+03 -0.16145307413E+03 -0.72376065966E+02  0.21306339971E+03  0.00000000000E+00 0.  1.
         -1    1    6    6    0  502 -0.38595923250E+03  0.16180899871E+03  0.18505324080E+03  0.45759303223E+03  0.00000000000E+00 0.  1.
<mgrwt>
<rscale>  0 0.13543604E+04</rscale>
<asrwt>0</asrwt>
<pdfrwt beam="1">  1        2 0.15673689E+00 0.13543604E+04</pdfrwt>
<pdfrwt beam="2">  1       -2 0.69248534E-01 0.13543604E+04</pdfrwt>
<totfact> 0.45542115E+01</totfact>
</mgrwt>
</event>
<event>
12    1  0.1556559E-007  0.1899351E+04  0.7818608E-02  0.8655179E-01
         -2   -1    0    0    0  501 -0.00000000000E+00  0.00000000000E+00  0.34149635494E+03  0.34149635494E+03  0.00000000000E+00 0.  1.
          2   -1    0    0  501    0  0.00000000000E+00 -0.00000000000E+00 -0.26409757111E+04  0.26409757111E+04  0.00000000000E+00 0. -1.
         23    2    1    2    0    0 -0.23427795364E+03  0.66601319121E+03 -0.12142471306E+04  0.14073312979E+04  0.87895150866E+02 0.  0.
        254    2    1    2    0    0  0.23427795364E+03 -0.66601319121E+03 -0.10852322255E+04  0.15751407681E+04  0.89715089337E+03 0.  0.
        -24    2    4    4    0    0  0.36733188760E+03 -0.52489003245E+03 -0.11793144642E+04  0.13444826839E+04  0.80055106710E+02 0.  0.
         24    2    4    4    0    0 -0.13305393396E+03 -0.14112315876E+03  0.94082238640E+02  0.23065808416E+03  0.82052354514E+02 0.  0.
         11    1    3    3    0    0 -0.10155877114E+03  0.30582135549E+03 -0.64080887138E+03  0.71727044767E+03  0.00000000000E+00 0. -1.
        -11    1    3    3    0    0 -0.13271918250E+03  0.36019183572E+03 -0.57343825923E+03  0.69006085026E+03  0.00000000000E+00 0.  1.
          2    1    6    6  502    0 -0.49671488593E+02 -0.42290177546E+02  0.75892417653E+02  0.10007684524E+03  0.00000000000E+00 0. -1.
          3    1    5    5  503    0  0.34611373243E+03 -0.49741015642E+03 -0.10687084229E+04  0.12285557670E+04  0.00000000000E+00 0. -1.
         -4    1    5    5    0  503  0.21218155172E+02 -0.27479876026E+02 -0.11060604123E+03  0.11592691685E+03  0.00000000000E+00 0.  1.
         -1    1    6    6    0  502 -0.83382445371E+02 -0.98832981213E+02  0.18189820987E+02  0.13058123892E+03  0.00000000000E+00 0.  1.
<mgrwt>
<rscale>  0 0.18993510E+04</rscale>
<asrwt>0</asrwt>
<pdfrwt beam="1">  1        2 0.40630396E+00 0.18993510E+04</pdfrwt>
<pdfrwt beam="2">  1       -2 0.52537900E-01 0.18993510E+04</pdfrwt>
<totfact> 0.92289840E+00</totfact>
</mgrwt>
</event>
<event>
12    1  0.1556559E-007  0.1229163E+04  0.7818608E-02  0.9087707E-01
          1   -1    0    0  501    0  0.00000000000E+00  0.00000000000E+00  0.49673666151E+03  0.49673666151E+03  0.00000000000E+00 0. -1.
         -1   -1    0    0    0  501 -0.00000000000E+00 -0.00000000000E+00 -0.76038307759E+03  0.76038307759E+03  0.00000000000E+00 0.  1.
         23    2    1    2    0    0 -0.12063972818E+03  0.98518946379E+02  0.17058594678E+03  0.24940819056E+03  0.94047612784E+02 0.  0.
        254    2    1    2    0    0  0.12063972818E+03 -0.98518946379E+02 -0.43423236286E+03  0.10077115485E+04  0.89591567309E+03 0.  0.
        -24    2    4    4    0    0  0.33787174697E+03  0.29202263338E+03 -0.23119703134E+03  0.51045255839E+03  0.87608283060E+02 0.  0.
         24    2    4    4    0    0 -0.21723201879E+03 -0.39054157976E+03 -0.20303533152E+03  0.49725899015E+03  0.79565582621E+02 0.  0.
         11    1    3    3    0    0 -0.68654998837E+02  0.50178468622E+01  0.36634499033E+02  0.77979318872E+02  0.00000000000E+00 0.  1.
        -11    1    3    3    0    0 -0.51984729342E+02  0.93501099517E+02  0.13395144775E+03  0.17142887169E+03  0.00000000000E+00 0. -1.
          2    1    6    6  502    0 -0.12977489551E+03 -0.26586373618E+03 -0.17073460983E+03  0.34157774622E+03  0.00000000000E+00 0. -1.
          1    1    5    5  503    0  0.28278491298E+03  0.26802492736E+03 -0.17131433612E+03  0.42562104090E+03  0.00000000000E+00 0. -1.
         -2    1    5    5    0  503  0.55086833985E+02  0.23997706020E+02 -0.59882695220E+02  0.84831517489E+02  0.00000000000E+00 0.  1.
         -3    1    6    6    0  502 -0.87457123278E+02 -0.12467784358E+03 -0.32300721697E+02  0.15568124394E+03  0.00000000000E+00 0.  1.
<mgrwt>
<rscale>  0 0.12291626E+04</rscale>
<asrwt>0</asrwt>
<pdfrwt beam="1">  1        1 0.76421025E-01 0.12291626E+04</pdfrwt>
<pdfrwt beam="2">  1       -1 0.11698201E+00 0.12291626E+04</pdfrwt>
<totfact> 0.29109778E+01</totfact>
</mgrwt>
</event>
<event>
12    1  0.1556559E-007  0.1891768E+04  0.7818608E-02  0.8658965E-01
         -1   -1    0    0    0  501 -0.00000000000E+00  0.00000000000E+00  0.44891481760E+03  0.44891481760E+03  0.00000000000E+00 0.  1.
          1   -1    0    0  501    0  0.00000000000E+00 -0.00000000000E+00 -0.19930213235E+04  0.19930213235E+04  0.00000000000E+00 0. -1.
         23    2    1    2    0    0 -0.27991456124E+03  0.37670438619E+02  0.26144685177E+03  0.39515877061E+03  0.89581103744E+02 0.  0.
        254    2    1    2    0    0  0.27991456124E+03 -0.37670438619E+02 -0.18055533576E+04  0.20467773705E+04  0.92168511619E+03 0.  0.
        -24    2    4    4    0    0  0.52315913721E+03 -0.18774667231E+03 -0.67512666036E+03  0.87801481972E+03  0.78547567176E+02 0.  0.
         24    2    4    4    0    0 -0.24324457597E+03  0.15007623369E+03 -0.11304266973E+04  0.11687625507E+04  0.80315518050E+02 0.  0.
         13    1    3    3    0    0 -0.10573360515E+03  0.53222956039E+02  0.13384026581E+03  0.17867706920E+03  0.00000000000E+00 0. -1.
        -13    1    3    3    0    0 -0.17418095609E+03 -0.15552517420E+02  0.12760658597E+03  0.21648170140E+03  0.00000000000E+00 0.  1.
          4    1    6    6  502    0 -0.24396370516E+03  0.15583576602E+03 -0.10845554504E+04  0.11225255456E+04  0.00000000000E+00 0. -1.
          1    1    5    5  503    0  0.43090171140E+03 -0.13014548474E+03 -0.57453551460E+03  0.72986655604E+03  0.00000000000E+00 0. -1.
         -2    1    5    5    0  503  0.92257425810E+02 -0.57601187571E+02 -0.10059114575E+03  0.14814826368E+03  0.00000000000E+00 0.  1.
         -3    1    6    6    0  502  0.71912919530E+00 -0.57595323310E+01 -0.45871246841E+02  0.46237005161E+02  0.00000000000E+00 0.  1.
<mgrwt>
<rscale>  0 0.18917683E+04</rscale>
<asrwt>0</asrwt>
<pdfrwt beam="1">  1        1 0.30661866E+00 0.18917683E+04</pdfrwt>
<pdfrwt beam="2">  1       -1 0.69063820E-01 0.18917683E+04</pdfrwt>
<totfact> 0.59829624E+00</totfact>
</mgrwt>
</event>
<event>
12    1  0.1622506E-007  0.2321177E+04  0.7818608E-02  0.8469618E-01
          2   -1    0    0  501    0  0.00000000000E+00  0.00000000000E+00  0.11626776787E+04  0.11626776787E+04  0.00000000000E+00 0. -1.
         -2   -1    0    0    0  501 -0.00000000000E+00 -0.00000000000E+00 -0.11585034354E+04  0.11585034354E+04  0.00000000000E+00 0.  1.
         23    2    1    2    0    0 -0.37562958439E+03  0.10624614142E+03  0.90129282788E+03  0.98640942804E+03  0.91043785670E+02 0.  0.
        254    2    1    2    0    0  0.37562958439E+03 -0.10624614142E+03 -0.89711858464E+03  0.13347716861E+04  0.90796909189E+03 0.  0.
        -24    2    4    4    0    0  0.34622535090E+03 -0.28600621292E+03 -0.10085145793E+04  0.11068918658E+04  0.80227167603E+02 0.  0.
         24    2    4    4    0    0  0.29404233485E+02  0.17976007150E+03  0.11139599469E+03  0.22787982028E+03  0.79635749525E+02 0.  0.
         11    1    3    3    0    0 -0.20377756345E+03  0.66874244436E+02  0.38313009496E+03  0.43907417323E+03  0.00000000000E+00 0. -1.
        -11    1    3    3    0    0 -0.17185202094E+03  0.39371896986E+02  0.51816273292E+03  0.54733525481E+03  0.00000000000E+00 0.  1.
          2    1    6    6  502    0  0.18033299530E+02  0.18031574520E+02 -0.77807321159E+01  0.26662283546E+02  0.00000000000E+00 0. -1.
          1    1    5    5  503    0  0.28717477144E+02 -0.25265879947E+02 -0.42720365094E+02  0.57341850134E+02  0.00000000000E+00 0. -1.
         -2    1    5    5    0  503  0.31750787376E+03 -0.26074033297E+03 -0.96579421424E+03  0.10495500157E+04  0.00000000000E+00 0.  1.
         -1    1    6    6    0  502  0.11370933955E+02  0.16172849698E+03  0.11917672681E+03  0.20121753673E+03  0.00000000000E+00 0.  1.
<mgrwt>
<rscale>  0 0.23211774E+04</rscale>
<asrwt>0</asrwt>
<pdfrwt beam="1">  1        2 0.17887349E+00 0.23211774E+04</pdfrwt>
<pdfrwt beam="2">  1       -2 0.17823130E+00 0.23211774E+04</pdfrwt>
<totfact> 0.33670525E+00</totfact>
</mgrwt>
</event>
<event>
12    1  0.1556559E-007  0.2193977E+04  0.7818608E-02  0.8520939E-01
          1   -1    0    0  501    0  0.00000000000E+00  0.00000000000E+00  0.66891449600E+03  0.66891449600E+03  0.00000000000E+00 0. -1.
         -1   -1    0    0    0  501 -0.00000000000E+00 -0.00000000000E+00 -0.17990104630E+04  0.17990104630E+04  0.00000000000E+00 0.  1.
         23    2    1    2    0    0 -0.52750513335E+03 -0.48732565270E+03  0.15541001875E+03  0.74036197894E+03  0.90750363377E+02 0.  0.
        254    2    1    2    0    0  0.52750513335E+03  0.48732565270E+03 -0.12855059858E+04  0.17275629801E+04  0.90343801845E+03 0.  0.
        -24    2    4    4    0    0  0.12845683161E+03 -0.25810349534E+03 -0.26789547039E+03  0.40192225711E+03  0.81577851214E+02 0.  0.
         24    2    4    4    0    0  0.39904830174E+03  0.74542914804E+03 -0.10176105154E+04  0.13256407230E+04  0.82993996790E+02 0.  0.
         13    1    3    3    0    0 -0.22934169390E+03 -0.23556534278E+03  0.28472678667E+02  0.32999899501E+03  0.00000000000E+00 0. -1.
        -13    1    3    3    0    0 -0.29816343945E+03 -0.25176030992E+03  0.12693734008E+03  0.41036298393E+03  0.00000000000E+00 0.  1.
          4    1    6    6  502    0  0.18284747579E+03  0.25754505060E+03 -0.38767882063E+03  0.50005751715E+03  0.00000000000E+00 0. -1.
          3    1    5    5  503    0  0.27282134302E+02 -0.21661328243E+02 -0.67233203430E+02  0.75722068361E+02  0.00000000000E+00 0. -1.
         -4    1    5    5    0  503  0.10117469731E+03 -0.23644216710E+03 -0.20066226696E+03  0.32620018875E+03  0.00000000000E+00 0.  1.
         -3    1    6    6    0  502  0.21620082595E+03  0.48788409744E+03 -0.62993169473E+03  0.82558320580E+03  0.00000000000E+00 0.  1.
<mgrwt>
<rscale>  0 0.21939774E+04</rscale>
<asrwt>0</asrwt>
<pdfrwt beam="1">  1        1 0.10290992E+00 0.21939774E+04</pdfrwt>
<pdfrwt beam="2">  1       -1 0.27677084E+00 0.21939774E+04</pdfrwt>
<totfact> 0.12432990E+00</totfact>
</mgrwt>
</event>
<event>
12    1  0.1556559E-007  0.1482451E+04  0.7818608E-02  0.8896207E-01
         -2   -1    0    0    0  501 -0.00000000000E+00  0.00000000000E+00  0.62779092764E+03  0.62779092764E+03  0.00000000000E+00 0.  1.
          2   -1    0    0  501    0  0.00000000000E+00 -0.00000000000E+00 -0.87515655391E+03  0.87515655391E+03  0.00000000000E+00 0. -1.
         23    2    1    2    0    0  0.20281993162E+03  0.18816852176E+03  0.29374075938E+03  0.41394171482E+03  0.92308137813E+02 0.  0.
        254    2    1    2    0    0 -0.20281993162E+03 -0.18816852176E+03 -0.54110638565E+03  0.10890057667E+04  0.90365597553E+03 0.  0.
        -24    2    4    4    0    0 -0.53987369196E+03 -0.14005408652E+03 -0.46795912813E+03  0.73183599231E+03  0.74292823482E+02 0.  0.
         24    2    4    4    0    0  0.33705376034E+03 -0.48114435239E+02 -0.73147257525E+02  0.35716977441E+03  0.79369328019E+02 0.  0.
         11    1    3    3    0    0  0.57247218272E+02  0.76578697008E+01  0.40347913671E+02  0.70454532188E+02  0.00000000000E+00 0. -1.
        -11    1    3    3    0    0  0.14557271334E+03  0.18051065206E+03  0.25339284571E+03  0.34348718264E+03  0.00000000000E+00 0.  1.
          2    1    6    6  502    0  0.45936386865E+02  0.19439004833E+02 -0.17689091899E+01  0.49911477506E+02  0.00000000000E+00 0. -1.
          1    1    5    5  503    0 -0.17649357898E+03 -0.28624692448E+02 -0.19043524985E+03  0.26121818624E+03  0.00000000000E+00 0. -1.
         -2    1    5    5    0  503 -0.36338011298E+03 -0.11142939407E+03 -0.27752387828E+03  0.47061780606E+03  0.00000000000E+00 0.  1.
         -1    1    6    6    0  502  0.29111737348E+03 -0.67553440073E+02 -0.71378348335E+02  0.30725829690E+03  0.00000000000E+00 0.  1.
<mgrwt>
<rscale>  0 0.14824511E+04</rscale>
<asrwt>0</asrwt>
<pdfrwt beam="1">  1        2 0.13463947E+00 0.14824511E+04</pdfrwt>
<pdfrwt beam="2">  1       -2 0.96583220E-01 0.14824511E+04</pdfrwt>
<totfact> 0.26453366E+01</totfact>
</mgrwt>
</event>
<event>
12    1  0.1556559E-007  0.3065854E+04  0.7818608E-02  0.8225172E-01
          2   -1    0    0  501    0  0.00000000000E+00  0.00000000000E+00  0.12428853623E+04  0.12428853623E+04  0.00000000000E+00 0. -1.
         -2   -1    0    0    0  501 -0.00000000000E+00 -0.00000000000E+00 -0.18906536255E+04  0.18906536255E+04  0.00000000000E+00 0.  1.
         23    2    1    2    0    0 -0.70762179486E+03 -0.10392049087E+04  0.33139891824E+03  0.13031765616E+04  0.88138873197E+02 0.  0.
        254    2    1    2    0    0  0.70762179486E+03  0.10392049087E+04 -0.97916718138E+03  0.18303624262E+04  0.90043478124E+03 0.  0.
        -24    2    4    4    0    0  0.78627429932E+03  0.38864236718E+03 -0.63657213647E+03  0.10865263407E+04  0.77751146754E+02 0.  0.
         24    2    4    4    0    0 -0.78652504454E+02  0.65056254149E+03 -0.34259504492E+03  0.74383608545E+03  0.80640686790E+02 0.  0.
         11    1    3    3    0    0 -0.70634069991E+03 -0.10323357191E+04  0.33551164613E+03  0.12950684484E+04  0.00000000000E+00 0. -1.
        -11    1    3    3    0    0 -0.12810949517E+01 -0.68691895659E+01 -0.41127278956E+01  0.81081132399E+01  0.00000000000E+00 0.  1.
          4    1    6    6  502    0 -0.82760088240E+02  0.48907417079E+03 -0.22888968687E+03  0.54629045891E+03  0.00000000000E+00 0. -1.
          3    1    5    5  503    0  0.77522716450E+03  0.39039451829E+03 -0.63447021592E+03  0.10751453350E+04  0.00000000000E+00 0. -1.
         -4    1    5    5    0  503  0.11047134816E+02 -0.17521511087E+01 -0.21019205454E+01  0.11381005717E+02  0.00000000000E+00 0.  1.
         -3    1    6    6    0  502  0.41075837866E+01  0.16148837070E+03 -0.11370535805E+03  0.19754562654E+03  0.00000000000E+00 0.  1.
<mgrwt>
<rscale>  0 0.30658543E+04</rscale>
<asrwt>0</asrwt>
<pdfrwt beam="1">  1        2 0.19121313E+00 0.30658543E+04</pdfrwt>
<pdfrwt beam="2">  1       -2 0.29086979E+00 0.30658543E+04</pdfrwt>
<totfact> 0.54957890E-01</totfact>
</mgrwt>
</event>
<event>
12    1  0.1556559E-007  0.2286375E+04  0.7818608E-02  0.8483313E-01
          2   -1    0    0  501    0  0.00000000000E+00  0.00000000000E+00  0.12504931466E+04  0.12504931466E+04  0.00000000000E+00 0. -1.
         -2   -1    0    0    0  501 -0.00000000000E+00 -0.00000000000E+00 -0.10450897220E+04  0.10450897220E+04  0.00000000000E+00 0.  1.
         23    2    1    2    0    0 -0.34365358815E+03  0.68544664255E+03 -0.47974189291E+03  0.90952727981E+03  0.95669746884E+02 0.  0.
        254    2    1    2    0    0  0.34365358815E+03 -0.68544664255E+03  0.68514531750E+03  0.13860555888E+04  0.92940362632E+03 0.  0.
        -24    2    4    4    0    0  0.19810424511E+02 -0.37891982087E+03 -0.16643146531E+03  0.42171513765E+03  0.78559156772E+02 0.  0.
         24    2    4    4    0    0  0.32384316364E+03 -0.30652682168E+03  0.85157678281E+03  0.96434045111E+03  0.77048047260E+02 0.  0.
         13    1    3    3    0    0 -0.18487744009E+03  0.44584111831E+03 -0.33649115635E+03  0.58837086003E+03  0.00000000000E+00 0.  1.
        -13    1    3    3    0    0 -0.15877614806E+03  0.23960552424E+03 -0.14325073656E+03  0.32115641978E+03  0.00000000000E+00 0. -1.
          4    1    6    6  502    0  0.24998662889E+03 -0.25446398706E+03  0.61314946015E+03  0.70936414895E+03  0.00000000000E+00 0. -1.
          3    1    5    5  503    0  0.47134215769E+02 -0.30142405305E+03 -0.12517397051E+03  0.32976751954E+03  0.00000000000E+00 0. -1.
         -4    1    5    5    0  503 -0.27323791258E+02 -0.77495767825E+02 -0.41257494796E+02  0.91947618111E+02  0.00000000000E+00 0.  1.
         -3    1    6    6    0  502  0.73856534757E+02 -0.52062834620E+02  0.23842732266E+03  0.25497630216E+03  0.00000000000E+00 0.  1.
<mgrwt>
<rscale>  0 0.22863749E+04</rscale>
<asrwt>0</asrwt>
<pdfrwt beam="1">  1        2 0.19238356E+00 0.22863749E+04</pdfrwt>
<pdfrwt beam="2">  1       -2 0.16078303E+00 0.22863749E+04</pdfrwt>
<totfact> 0.39879585E+00</totfact>
</mgrwt>
</event>
<event>
12    1  0.1556559E-007  0.1863269E+04  0.7818608E-02  0.8673359E-01
         -2   -1    0    0    0  501 -0.00000000000E+00  0.00000000000E+00  0.77533823796E+03  0.77533823796E+03  0.00000000000E+00 0.  1.
          2   -1    0    0  501    0  0.00000000000E+00 -0.00000000000E+00 -0.11194376544E+04  0.11194376544E+04  0.00000000000E+00 0. -1.
         23    2    1    2    0    0 -0.62167268456E+03  0.22001162544E+03 -0.42543871838E+03  0.79013983763E+03  0.91873923663E+02 0.  0.
        254    2    1    2    0    0  0.62167268456E+03 -0.22001162544E+03  0.81339301929E+02  0.11046360548E+04  0.88245265560E+03 0.  0.
        -24    2    4    4    0    0 -0.13501104200E+02 -0.33609225528E+03 -0.19632987693E+03  0.39722339097E+03  0.78107092427E+02 0.  0.
         24    2    4    4    0    0  0.63517378876E+03  0.11608062984E+03  0.27766917886E+03  0.70741266378E+03  0.80075273611E+02 0.  0.
         11    1    3    3    0    0 -0.48134249351E+03  0.16156009976E+03 -0.37033984122E+03  0.62844559024E+03  0.00000000000E+00 0.  1.
        -11    1    3    3    0    0 -0.14033019105E+03  0.58451525688E+02 -0.55098877163E+02  0.16169424739E+03  0.00000000000E+00 0. -1.
          2    1    6    6  502    0  0.23015875565E+03  0.23607552002E+02  0.13657424557E+03  0.26866874375E+03  0.00000000000E+00 0. -1.
          3    1    5    5  503    0  0.15484804754E+02 -0.11153357951E+02 -0.10974782094E+02  0.22014141225E+02  0.00000000000E+00 0. -1.
         -4    1    5    5    0  503 -0.28985908955E+02 -0.32493889733E+03 -0.18535509483E+03  0.37520924975E+03  0.00000000000E+00 0.  1.
         -1    1    6    6    0  502  0.40501503311E+03  0.92473077835E+02  0.14109493328E+03  0.43874392004E+03  0.00000000000E+00 0.  1.
<mgrwt>
<rscale>  0 0.18632690E+04</rscale>
<asrwt>0</asrwt>
<pdfrwt beam="1">  1        2 0.17222118E+00 0.18632690E+04</pdfrwt>
<pdfrwt beam="2">  1       -2 0.11928281E+00 0.18632690E+04</pdfrwt>
<totfact> 0.10731164E+01</totfact>
</mgrwt>
</event>
<event>
12    1  0.1556559E-007  0.1840343E+04  0.7818608E-02  0.8685135E-01
          2   -1    0    0  501    0  0.00000000000E+00  0.00000000000E+00  0.40374276908E+03  0.40374276908E+03  0.00000000000E+00 0. -1.
         -2   -1    0    0    0  501 -0.00000000000E+00 -0.00000000000E+00 -0.20971664137E+04  0.20971664137E+04  0.00000000000E+00 0.  1.
         23    2    1    2    0    0  0.56447939421E+03 -0.21093488026E+03 -0.16766689031E+03  0.63151979333E+03  0.87031908294E+02 0.  0.
        254    2    1    2    0    0 -0.56447939421E+03  0.21093488026E+03 -0.15257567543E+04  0.18693893895E+04  0.89641090240E+03 0.  0.
        -24    2    4    4    0    0 -0.26252258476E+03  0.24190729767E+03 -0.60114309716E+02  0.37055360776E+03  0.79113828220E+02 0.  0.
         24    2    4    4    0    0 -0.30195680945E+03 -0.30972417411E+02 -0.14656424446E+04  0.14988357817E+04  0.79143664942E+02 0.  0.
         13    1    3    3    0    0  0.34263701710E+03 -0.16185281317E+03 -0.75828073260E+02  0.38645356165E+03  0.00000000000E+00 0. -1.
        -13    1    3    3    0    0  0.22184237711E+03 -0.49082067094E+02 -0.91838817055E+02  0.24506623168E+03  0.00000000000E+00 0.  1.
          4    1    6    6  502    0 -0.30128343547E+03 -0.40622896436E+02 -0.14188801148E+04  0.14510832879E+04  0.00000000000E+00 0. -1.
          1    1    5    5  503    0 -0.15608158603E+03  0.90392434810E+02 -0.25077813174E+02  0.18210203316E+03  0.00000000000E+00 0. -1.
         -2    1    5    5    0  503 -0.10644099873E+03  0.15151486286E+03 -0.35036496542E+02  0.18845157460E+03  0.00000000000E+00 0.  1.
         -3    1    6    6    0  502 -0.67337397752E+00  0.96504790250E+01 -0.46762329844E+02  0.47752493865E+02  0.00000000000E+00 0.  1.
<mgrwt>
<rscale>  0 0.18403432E+04</rscale>
<asrwt>0</asrwt>
<pdfrwt beam="1">  1        2 0.62114272E-01 0.18403432E+04</pdfrwt>
<pdfrwt beam="2">  1       -2 0.32264099E+00 0.18403432E+04</pdfrwt>
<totfact> 0.17116252E+00</totfact>
</mgrwt>
</event>
<event>
12    1  0.1556559E-007  0.1300342E+04  0.7818608E-02  0.9029294E-01
          1   -1    0    0  501    0  0.00000000000E+00  0.00000000000E+00  0.10728963909E+04  0.10728963909E+04  0.00000000000E+00 0. -1.
         -1   -1    0    0    0  501 -0.00000000000E+00 -0.00000000000E+00 -0.39400136413E+03  0.39400136413E+03  0.00000000000E+00 0.  1.
         23    2    1    2    0    0  0.23235482398E+03 -0.33573324361E+00  0.44002283747E+03  0.50572301659E+03  0.90259598213E+02 0.  0.
        254    2    1    2    0    0 -0.23235482398E+03  0.33573324361E+00  0.23887218927E+03  0.96117473842E+03  0.90155869361E+03 0.  0.
        -24    2    4    4    0    0  0.10549129241E+02  0.17477574432E+03 -0.29061811045E+03  0.34788236468E+03  0.76846656414E+02 0.  0.
         24    2    4    4    0    0 -0.24290395322E+03 -0.17444001108E+03  0.52949029973E+03  0.61329237374E+03  0.79598431037E+02 0.  0.
         13    1    3    3    0    0  0.20145320775E+03  0.53536876864E+01  0.29452562016E+03  0.35687168256E+03  0.00000000000E+00 0. -1.
        -13    1    3    3    0    0  0.30901616228E+02 -0.56894209300E+01  0.14549721731E+03  0.14885133403E+03  0.00000000000E+00 0.  1.
          4    1    6    6  502    0 -0.23083686599E+03 -0.18197542161E+03  0.49103952318E+03  0.57229409056E+03  0.00000000000E+00 0. -1.
          3    1    5    5  503    0  0.38846993836E+02  0.13794167133E+03 -0.23684241595E+03  0.27682363269E+03  0.00000000000E+00 0. -1.
         -4    1    5    5    0  503 -0.28297864594E+02  0.36834072987E+02 -0.53775694503E+02  0.71058731995E+02  0.00000000000E+00 0.  1.
         -3    1    6    6    0  502 -0.12067087230E+02  0.75354105290E+01  0.38450776549E+02  0.40998283175E+02  0.00000000000E+00 0.  1.
<mgrwt>
<rscale>  0 0.13003425E+04</rscale>
<asrwt>0</asrwt>
<pdfrwt beam="1">  1        1 0.16506098E+00 0.13003425E+04</pdfrwt>
<pdfrwt beam="2">  1       -1 0.60615595E-01 0.13003425E+04</pdfrwt>
<totfact> 0.36045965E+01</totfact>
</mgrwt>
</event>
<event>
12    1  0.1556559E-007  0.1782488E+04  0.7818608E-02  0.8715668E-01
         -2   -1    0    0    0  501 -0.00000000000E+00  0.00000000000E+00  0.83168489248E+03  0.83168489248E+03  0.00000000000E+00 0.  1.
          2   -1    0    0  501    0  0.00000000000E+00 -0.00000000000E+00 -0.95506853546E+03  0.95506853546E+03  0.00000000000E+00 0. -1.
         23    2    1    2    0    0  0.48124176994E+03 -0.42740087486E+03 -0.19276202332E+03  0.67801448780E+03  0.91001643166E+02 0.  0.
        254    2    1    2    0    0 -0.48124176994E+03  0.42740087486E+03  0.69378380338E+02  0.11087389401E+04  0.90012417408E+03 0.  0.
        -24    2    4    4    0    0 -0.20590142474E+01  0.24904954692E+03  0.41200605475E+03  0.48808034243E+03  0.80271508999E+02 0.  0.
         24    2    4    4    0    0 -0.47918275569E+03  0.17835132795E+03 -0.34262767441E+03  0.62065859771E+03  0.79987887234E+02 0.  0.
         13    1    3    3    0    0  0.13423290292E+03 -0.16709000868E+03 -0.39482175303E+02  0.21793665454E+03  0.00000000000E+00 0.  1.
        -13    1    3    3    0    0  0.34700886702E+03 -0.26031086619E+03 -0.15327984802E+03  0.46007783326E+03  0.00000000000E+00 0. -1.
          4    1    6    6  502    0 -0.73948791029E+02  0.16205422869E+02 -0.85011675994E+02  0.11383331885E+03  0.00000000000E+00 0. -1.
          3    1    5    5  503    0  0.21566822370E+01 -0.42405319186E+01  0.25596816651E+02  0.26035176433E+02  0.00000000000E+00 0. -1.
         -4    1    5    5    0  503 -0.42156964844E+01  0.25329007884E+03  0.38640923810E+03  0.46204516600E+03  0.00000000000E+00 0.  1.
         -3    1    6    6    0  502 -0.40523396467E+03  0.16214590508E+03 -0.25761599842E+03  0.50682527886E+03  0.00000000000E+00 0.  1.
<mgrwt>
<rscale>  0 0.17824882E+04</rscale>
<asrwt>0</asrwt>
<pdfrwt beam="1">  1        2 0.14693362E+00 0.17824882E+04</pdfrwt>
<pdfrwt beam="2">  1       -2 0.12795152E+00 0.17824882E+04</pdfrwt>
<totfact> 0.11515258E+01</totfact>
</mgrwt>
</event>
<event>
12    1  0.1556559E-007  0.1564026E+04  0.7818608E-02  0.8842958E-01
         -2   -1    0    0    0  501 -0.00000000000E+00  0.00000000000E+00  0.81068336344E+03  0.81068336344E+03  0.00000000000E+00 0.  1.
          2   -1    0    0  501    0  0.00000000000E+00 -0.00000000000E+00 -0.75435659888E+03  0.75435659888E+03  0.00000000000E+00 0. -1.
         23    2    1    2    0    0 -0.21987186782E+03  0.46083795128E+03 -0.41677985793E+02  0.52036078743E+03  0.91230691114E+02 0.  0.
        254    2    1    2    0    0  0.21987186782E+03 -0.46083795128E+03  0.98004750355E+02  0.10446791749E+04  0.90610948110E+03 0.  0.
        -24    2    4    4    0    0  0.51251897306E+03 -0.38014245680E+03  0.25675312890E+03  0.69232838545E+03  0.78819026149E+02 0.  0.
         24    2    4    4    0    0 -0.29264710523E+03 -0.80695494473E+02 -0.15874837855E+03  0.35235078944E+03  0.82437492039E+02 0.  0.
         11    1    3    3    0    0 -0.21863186976E+03  0.45718147549E+03 -0.29546357109E+02  0.50762957285E+03  0.00000000000E+00 0. -1.
        -11    1    3    3    0    0 -0.12399980611E+01  0.36564757849E+01 -0.12131628684E+02  0.12731214588E+02  0.00000000000E+00 0.  1.
          2    1    6    6  502    0 -0.22737690689E+03 -0.58987712102E+02 -0.15883799346E+03  0.28356536483E+03  0.00000000000E+00 0. -1.
          3    1    5    5  503    0  0.22427746925E+03 -0.20195526393E+03  0.15009656572E+03  0.33706867384E+03  0.00000000000E+00 0. -1.
         -4    1    5    5    0  503  0.28824150380E+03 -0.17818719288E+03  0.10665656318E+03  0.35525971161E+03  0.00000000000E+00 0.  1.
         -1    1    6    6    0  502 -0.65270198340E+02 -0.21707782371E+02  0.89614907691E-01  0.68785424602E+02  0.00000000000E+00 0.  1.
<mgrwt>
<rscale>  0 0.15640260E+04</rscale>
<asrwt>0</asrwt>
<pdfrwt beam="1">  1        2 0.11605486E+00 0.15640260E+04</pdfrwt>
<pdfrwt beam="2">  1       -2 0.12472052E+00 0.15640260E+04</pdfrwt>
<totfact> 0.17253502E+01</totfact>
</mgrwt>
</event>
<event>
12    1  0.1556559E-007  0.1427366E+04  0.7818608E-02  0.8934244E-01
         -3   -1    0    0    0  501 -0.00000000000E+00  0.00000000000E+00  0.19722878519E+03  0.19722878519E+03  0.00000000000E+00 0.  1.
          3   -1    0    0  501    0  0.00000000000E+00 -0.00000000000E+00 -0.25825007812E+04  0.25825007812E+04  0.00000000000E+00 0. -1.
         23    2    1    2    0    0 -0.37126681821E+03  0.10060760981E+02 -0.32900138176E+03  0.50410706366E+03  0.89116514873E+02 0.  0.
        254    2    1    2    0    0  0.37126681821E+03 -0.10060760981E+02 -0.20562706143E+04  0.22756225027E+04  0.90125948906E+03 0.  0.
        -24    2    4    4    0    0 -0.10607176539E+03  0.52930569619E+02  0.18750292685E+02  0.14398655226E+03  0.79546773309E+02 0.  0.
         24    2    4    4    0    0  0.47733858360E+03 -0.62991330600E+02 -0.20750209069E+04  0.21316359505E+04  0.79624304820E+02 0.  0.
         11    1    3    3    0    0 -0.35841100770E+03  0.28304861933E+02 -0.30699362137E+03  0.47276283611E+03  0.00000000000E+00 0. -1.
        -11    1    3    3    0    0 -0.12855810509E+02 -0.18244100952E+02 -0.22007760387E+02  0.31344227548E+02  0.00000000000E+00 0.  1.
          4    1    6    6  502    0  0.12231961335E+03 -0.47945386378E+02 -0.63167714341E+03  0.64519521185E+03  0.00000000000E+00 0. -1.
          1    1    5    5  503    0 -0.60302009406E+01  0.17151124933E+02 -0.23444233663E+02  0.29667431670E+02  0.00000000000E+00 0. -1.
         -2    1    5    5    0  503 -0.10004156445E+03  0.35779444686E+02  0.42194526348E+02  0.11431912059E+03  0.00000000000E+00 0.  1.
         -3    1    6    6    0  502  0.35501897025E+03 -0.15045944223E+02 -0.14433437635E+04  0.14864407386E+04  0.00000000000E+00 0.  1.
<mgrwt>
<rscale>  0 0.14273661E+04</rscale>
<asrwt>0</asrwt>
<pdfrwt beam="1">  1        3 0.39730780E+00 0.14273661E+04</pdfrwt>
<pdfrwt beam="2">  1       -3 0.30342891E-01 0.14273661E+04</pdfrwt>
<totfact> 0.31438343E-01</totfact>
</mgrwt>
</event>
<event>
12    1  0.1556559E-007  0.1665984E+04  0.7818608E-02  0.8781006E-01
         -2   -1    0    0    0  501 -0.00000000000E+00  0.00000000000E+00  0.51390482212E+03  0.51390482212E+03  0.00000000000E+00 0.  1.
          2   -1    0    0  501    0  0.00000000000E+00 -0.00000000000E+00 -0.13502026358E+04  0.13502026358E+04  0.00000000000E+00 0. -1.
         23    2    1    2    0    0 -0.56261333532E+03  0.13845302115E+03 -0.37169492727E+03  0.69454801835E+03  0.92394949467E+02 0.  0.
        254    2    1    2    0    0  0.56261333532E+03 -0.13845302115E+03 -0.46460288641E+03  0.11695594396E+04  0.90349899639E+03 0.  0.
        -24    2    4    4    0    0  0.16215726614E+03  0.29914873549E+03 -0.45202928173E+03  0.57146396544E+03  0.80347043204E+02 0.  0.
         24    2    4    4    0    0  0.40045606918E+03 -0.43760175663E+03 -0.12573604680E+02  0.59809547413E+03  0.75496621676E+02 0.  0.
         13    1    3    3    0    0 -0.39817424609E+03  0.76784978328E+02 -0.30196042148E+03  0.50558753870E+03  0.00000000000E+00 0.  1.
        -13    1    3    3    0    0 -0.16443908923E+03  0.61668042818E+02 -0.69734505795E+02  0.18896047965E+03  0.00000000000E+00 0. -1.
          2    1    6    6  502    0  0.12247568613E+03 -0.11743734883E+03  0.28688688027E+02  0.17208970165E+03  0.00000000000E+00 0. -1.
          3    1    5    5  503    0  0.29872941106E+02  0.58878092102E+02 -0.42321416660E+02  0.78422730430E+02  0.00000000000E+00 0. -1.
         -4    1    5    5    0  503  0.13228432504E+03  0.24027064339E+03 -0.40970786507E+03  0.49304123501E+03  0.00000000000E+00 0.  1.
         -1    1    6    6    0  502  0.27798038305E+03 -0.32016440780E+03 -0.41262292707E+02  0.42600577248E+03  0.00000000000E+00 0.  1.
<mgrwt>
<rscale>  0 0.16659840E+04</rscale>
<asrwt>0</asrwt>
<pdfrwt beam="1">  1        2 0.20772348E+00 0.16659840E+04</pdfrwt>
<pdfrwt beam="2">  1       -2 0.79062281E-01 0.16659840E+04</pdfrwt>
<totfact> 0.20934520E+01</totfact>
</mgrwt>
</event>
<event>
12    1  0.1556559E-007  0.1769165E+04  0.7818608E-02  0.8722871E-01
          2   -1    0    0  501    0  0.00000000000E+00  0.00000000000E+00  0.85252008158E+03  0.85252008158E+03  0.00000000000E+00 0. -1.
         -2   -1    0    0    0  501 -0.00000000000E+00 -0.00000000000E+00 -0.91785125518E+03  0.91785125518E+03  0.00000000000E+00 0.  1.
         23    2    1    2    0    0  0.40619139328E+03  0.48576183030E+03  0.13053059942E+03  0.65294790544E+03  0.91360418533E+02 0.  0.
        254    2    1    2    0    0 -0.40619139328E+03 -0.48576183030E+03 -0.19586177302E+03  0.11174234313E+04  0.89962063505E+03 0.  0.
        -24    2    4    4    0    0  0.49603734355E+02 -0.35737354504E+03 -0.44371661309E+03  0.57719084319E+03  0.78028556135E+02 0.  0.
         24    2    4    4    0    0 -0.45579512764E+03 -0.12838828526E+03  0.24785484007E+03  0.54023258814E+03  0.78654163085E+02 0.  0.
         13    1    3    3    0    0  0.36746429796E+03  0.46533758849E+03  0.10467702965E+03  0.60210162105E+03  0.00000000000E+00 0. -1.
        -13    1    3    3    0    0  0.38727095323E+02  0.20424241806E+02  0.25853569770E+02  0.50846284381E+02  0.00000000000E+00 0.  1.
          2    1    6    6  502    0 -0.30485701910E+03 -0.47426877686E+02  0.15159242955E+03  0.34375481890E+03  0.00000000000E+00 0. -1.
          3    1    5    5  503    0  0.37475540937E+02 -0.33206241138E+03 -0.37134166561E+03  0.49956430401E+03  0.00000000000E+00 0. -1.
         -4    1    5    5    0  503  0.12128193418E+02 -0.25311133662E+02 -0.72374947480E+02  0.77626539183E+02  0.00000000000E+00 0.  1.
         -1    1    6    6    0  502 -0.15093810854E+03 -0.80961407573E+02  0.96262410524E+02  0.19647776924E+03  0.00000000000E+00 0.  1.
<mgrwt>
<rscale>  0 0.17691655E+04</rscale>
<asrwt>0</asrwt>
<pdfrwt beam="1">  1        2 0.13115694E+00 0.17691655E+04</pdfrwt>
<pdfrwt beam="2">  1       -2 0.14120789E+00 0.17691655E+04</pdfrwt>
<totfact> 0.10504247E+01</totfact>
</mgrwt>
</event>
<event>
12    1  0.1556559E-007  0.1804285E+04  0.7818608E-02  0.8704024E-01
          1   -1    0    0  501    0  0.00000000000E+00  0.00000000000E+00  0.15667071449E+04  0.15667071449E+04  0.00000000000E+00 0. -1.
         -1   -1    0    0    0  501 -0.00000000000E+00 -0.00000000000E+00 -0.51947248051E+03  0.51947248051E+03  0.00000000000E+00 0.  1.
         23    2    1    2    0    0 -0.53400995156E+03  0.39149123704E+03  0.48112283244E+03  0.82328999487E+03  0.88855043230E+02 0.  0.
        254    2    1    2    0    0  0.53400995156E+03 -0.39149123704E+03  0.56611183199E+03  0.12628896306E+04  0.91431701049E+03 0.  0.
        -24    2    4    4    0    0 -0.73190874142E+02 -0.15358604658E+03 -0.18554778948E+03  0.26456506445E+03  0.81370224189E+02 0.  0.
         24    2    4    4    0    0  0.60720082571E+03 -0.23790519046E+03  0.75165962147E+03  0.99832456613E+03  0.79799939902E+02 0.  0.
         11    1    3    3    0    0 -0.42555243990E+03  0.34811887091E+03  0.41689761143E+03  0.68998930847E+03  0.00000000000E+00 0. -1.
        -11    1    3    3    0    0 -0.10845751166E+03  0.43372366121E+02  0.64225221012E+02  0.13330068639E+03  0.00000000000E+00 0.  1.
          2    1    6    6  502    0  0.48610109968E+03 -0.21933314826E+03  0.63391041653E+03  0.82839828901E+03  0.00000000000E+00 0. -1.
          1    1    5    5  503    0 -0.60407977089E+02 -0.89501252930E+02 -0.16283372971E+03  0.19538275641E+03  0.00000000000E+00 0. -1.
         -2    1    5    5    0  503 -0.12782897053E+02 -0.64084793649E+02 -0.22714059772E+02  0.69182308038E+02  0.00000000000E+00 0.  1.
         -1    1    6    6    0  502  0.12109972602E+03 -0.18572042192E+02  0.11774920494E+03  0.16992627712E+03  0.00000000000E+00 0.  1.
<mgrwt>
<rscale>  0 0.18042852E+04</rscale>
<asrwt>0</asrwt>
<pdfrwt beam="1">  1        1 0.24103187E+00 0.18042852E+04</pdfrwt>
<pdfrwt beam="2">  1       -1 0.79918844E-01 0.18042852E+04</pdfrwt>
<totfact> 0.86736297E+00</totfact>
</mgrwt>
</event>
<event>
12    1  0.1556559E-007  0.1266688E+04  0.7818608E-02  0.9056407E-01
         -2   -1    0    0    0  501 -0.00000000000E+00  0.00000000000E+00  0.24932855129E+03  0.24932855129E+03  0.00000000000E+00 0.  1.
          2   -1    0    0  501    0  0.00000000000E+00 -0.00000000000E+00 -0.16088189349E+04  0.16088189349E+04  0.00000000000E+00 0. -1.
         23    2    1    2    0    0 -0.29088174990E+03  0.98421972940E+02 -0.49548590131E+03  0.58997057138E+03  0.90884099357E+02 0.  0.
        254    2    1    2    0    0  0.29088174990E+03 -0.98421972940E+02 -0.86400448231E+03  0.12681769148E+04  0.87605357407E+03 0.  0.
        -24    2    4    4    0    0  0.30732369754E+03 -0.32082464607E+03 -0.92529438065E+02  0.46092960539E+03  0.80734723762E+02 0.  0.
         24    2    4    4    0    0 -0.16441947644E+02  0.22240267313E+03 -0.77147504424E+03  0.80724730942E+03  0.82104738150E+02 0.  0.
         13    1    3    3    0    0 -0.21768420813E+03  0.11230257584E+03 -0.36161724162E+03  0.43676688570E+03  0.00000000000E+00 0. -1.
        -13    1    3    3    0    0 -0.73197541774E+02 -0.13880602901E+02 -0.13386865970E+03  0.15320368568E+03  0.00000000000E+00 0.  1.
          4    1    6    6  502    0  0.50295914311E+01  0.19288545125E+03 -0.71001286023E+03  0.73576379075E+03  0.00000000000E+00 0. -1.
          1    1    5    5  503    0  0.23905258352E+03 -0.23025508643E+03 -0.34983894942E+02  0.33374753245E+03  0.00000000000E+00 0. -1.
         -2    1    5    5    0  503  0.68271114025E+02 -0.90569559643E+02 -0.57545543123E+02  0.12718207294E+03  0.00000000000E+00 0.  1.
         -3    1    6    6    0  502 -0.21471539075E+02  0.29517221883E+02 -0.61462184011E+02  0.71483518670E+02  0.00000000000E+00 0.  1.
<mgrwt>
<rscale>  0 0.12666878E+04</rscale>
<asrwt>0</asrwt>
<pdfrwt beam="1">  1        2 0.24751060E+00 0.12666878E+04</pdfrwt>
<pdfrwt beam="2">  1       -2 0.38358239E-01 0.12666878E+04</pdfrwt>
<totfact> 0.69502651E+01</totfact>
</mgrwt>
</event>
<event>
12    1  0.1556559E-007  0.1029993E+04  0.7818608E-02  0.9276248E-01
          2   -1    0    0  501    0  0.00000000000E+00  0.00000000000E+00  0.42663429936E+03  0.42663429936E+03  0.00000000000E+00 0. -1.
         -2   -1    0    0    0  501 -0.00000000000E+00 -0.00000000000E+00 -0.62165942807E+03  0.62165942807E+03  0.00000000000E+00 0.  1.
         23    2    1    2    0    0 -0.36582553044E+02  0.14887183492E+02 -0.77023765637E+02  0.13230357004E+03  0.10005829677E+03 0.  0.
        254    2    1    2    0    0  0.36582553044E+02 -0.14887183492E+02 -0.11800136308E+03  0.91599015739E+03  0.90749861450E+03 0.  0.
        -24    2    4    4    0    0 -0.93176971849E+02 -0.41788188258E+03  0.78152424416E+02  0.44257554703E+03  0.80362289179E+02 0.  0.
         24    2    4    4    0    0  0.12975952489E+03  0.40299469908E+03 -0.19615378750E+03  0.47341461035E+03  0.80017642776E+02 0.  0.
         13    1    3    3    0    0 -0.35149683525E+02  0.53561088253E+02 -0.28185912193E+02  0.69990971367E+02  0.00000000000E+00 0. -1.
        -13    1    3    3    0    0 -0.14328695196E+01 -0.38673904762E+02 -0.48837853444E+02  0.62312598675E+02  0.00000000000E+00 0.  1.
          4    1    6    6  502    0  0.41528609288E+02  0.67271688863E+02 -0.10468576608E+02  0.79747705973E+02  0.00000000000E+00 0. -1.
          1    1    5    5  503    0 -0.10526058450E+03 -0.34436726882E+03  0.53182694431E+02  0.36400138114E+03  0.00000000000E+00 0. -1.
         -2    1    5    5    0  503  0.12083612654E+02 -0.73514613756E+02  0.24969729986E+02  0.78574165895E+02  0.00000000000E+00 0.  1.
         -3    1    6    6    0  502  0.88230915606E+02  0.33572301022E+03 -0.18568521089E+03  0.39366690438E+03  0.00000000000E+00 0.  1.
<mgrwt>
<rscale>  0 0.10299927E+04</rscale>
<asrwt>0</asrwt>
<pdfrwt beam="1">  1        2 0.65636046E-01 0.10299927E+04</pdfrwt>
<pdfrwt beam="2">  1       -2 0.95639912E-01 0.10299927E+04</pdfrwt>
<totfact> 0.67623373E+01</totfact>
</mgrwt>
</event>
<event>
12    1  0.1556559E-007  0.1664614E+04  0.7818608E-02  0.8781808E-01
         -2   -1    0    0    0  501 -0.00000000000E+00  0.00000000000E+00  0.59371217669E+03  0.59371217669E+03  0.00000000000E+00 0.  1.
          2   -1    0    0  501    0  0.00000000000E+00 -0.00000000000E+00 -0.11667855555E+04  0.11667855555E+04  0.00000000000E+00 0. -1.
         23    2    1    2    0    0  0.24262972269E+03  0.50856977436E+02  0.35038158501E+03  0.43873880885E+03  0.90933342545E+02 0.  0.
        254    2    1    2    0    0 -0.24262972269E+03 -0.50856977436E+02 -0.92345496386E+03  0.13217589234E+04  0.91259079921E+03 0.  0.
        -24    2    4    4    0    0 -0.20363051460E+03  0.37989697575E+03 -0.21632683240E+03  0.48890229294E+03  0.80256183348E+02 0.  0.
         24    2    4    4    0    0 -0.38999208087E+02 -0.43075395319E+03 -0.70712813146E+03  0.83285663045E+03  0.80932479049E+02 0.  0.
         11    1    3    3    0    0  0.46676972508E+02  0.35256267693E+02  0.13506306233E+03  0.14718619154E+03  0.00000000000E+00 0.  1.
        -11    1    3    3    0    0  0.19595275018E+03  0.15600709743E+02  0.21531852268E+03  0.29155261730E+03  0.00000000000E+00 0. -1.
          2    1    6    6  502    0 -0.46014876688E+02 -0.42882212969E+03 -0.68405971503E+03  0.80866772009E+03  0.00000000000E+00 0. -1.
          3    1    5    5  503    0 -0.74406019050E+02  0.19035729122E+03 -0.66583775764E+02  0.21495477010E+03  0.00000000000E+00 0. -1.
         -4    1    5    5    0  503 -0.12922449555E+03  0.18953968453E+03 -0.14974305664E+03  0.27394752285E+03  0.00000000000E+00 0.  1.
         -1    1    6    6    0  502  0.70156686008E+01 -0.19318235009E+01 -0.23068416424E+02  0.24188910357E+02  0.00000000000E+00 0.  1.
<mgrwt>
<rscale>  0 0.16646138E+04</rscale>
<asrwt>0</asrwt>
<pdfrwt beam="1">  1        2 0.17950547E+00 0.16646138E+04</pdfrwt>
<pdfrwt beam="2">  1       -2 0.91340335E-01 0.16646138E+04</pdfrwt>
<totfact> 0.19329574E+01</totfact>
</mgrwt>
</event>
<event>
12    1  0.1556559E-007  0.1620978E+04  0.7818608E-02  0.8807763E-01
         -2   -1    0    0    0  501 -0.00000000000E+00  0.00000000000E+00  0.99456850913E+03  0.99456850913E+03  0.00000000000E+00 0.  1.
          2   -1    0    0  501    0  0.00000000000E+00 -0.00000000000E+00 -0.66047981582E+03  0.66047981582E+03  0.00000000000E+00 0. -1.
         23    2    1    2    0    0  0.34704775648E+03 -0.18352236227E+03  0.51206926789E+03  0.65198978246E+03  0.93558209638E+02 0.  0.
        254    2    1    2    0    0 -0.34704775648E+03  0.18352236227E+03 -0.17798057458E+03  0.10030585425E+04  0.90571891445E+03 0.  0.
        -24    2    4    4    0    0  0.25797778205E+03 -0.90938495703E+02  0.62381135503E+02  0.29203730409E+03  0.81068087945E+02 0.  0.
         24    2    4    4    0    0 -0.60502553853E+03  0.27446085797E+03 -0.24036171008E+03  0.71102123840E+03  0.79954893208E+02 0.  0.
         11    1    3    3    0    0  0.59213179457E+02 -0.41082144370E+02  0.15981119765E+03  0.17530990303E+03  0.00000000000E+00 0.  1.
        -11    1    3    3    0    0  0.28783457702E+03 -0.14244021790E+03  0.35225807024E+03  0.47667987943E+03  0.00000000000E+00 0. -1.
          4    1    6    6  502    0 -0.85221072181E+02  0.36929385223E+02 -0.51955999145E+01  0.93023679217E+02  0.00000000000E+00 0. -1.
          1    1    5    5  503    0  0.71675236064E+01  0.11044621791E+02  0.93307428354E+01  0.16137528529E+02  0.00000000000E+00 0. -1.
         -2    1    5    5    0  503  0.25081025844E+03 -0.10198311749E+03  0.53050392667E+02  0.27589977556E+03  0.00000000000E+00 0.  1.
         -3    1    6    6    0  502 -0.51980446634E+03  0.23753147275E+03 -0.23516611017E+03  0.61799755918E+03  0.00000000000E+00 0.  1.
<mgrwt>
<rscale>  0 0.16209780E+04</rscale>
<asrwt>0</asrwt>
<pdfrwt beam="1">  1        2 0.10161228E+00 0.16209780E+04</pdfrwt>
<pdfrwt beam="2">  1       -2 0.15301054E+00 0.16209780E+04</pdfrwt>
<totfact> 0.11984450E+01</totfact>
</mgrwt>
</event>
<event>
12    1  0.1556559E-007  0.1251035E+04  0.7818608E-02  0.9069322E-01
         -1   -1    0    0    0  501 -0.00000000000E+00  0.00000000000E+00  0.97801354872E+03  0.97801354872E+03  0.00000000000E+00 0.  1.
          1   -1    0    0  501    0  0.00000000000E+00 -0.00000000000E+00 -0.40006833687E+03  0.40006833687E+03  0.00000000000E+00 0. -1.
         23    2    1    2    0    0 -0.12870526730E+03  0.26221990314E+03  0.13437422542E+03  0.33816789172E+03  0.10477006779E+03 0.  0.
        254    2    1    2    0    0  0.12870526730E+03 -0.26221990314E+03  0.44357098644E+03  0.10399139939E+04  0.89405904234E+03 0.  0.
        -24    2    4    4    0    0 -0.15914922910E+03 -0.42141579052E+03 -0.30431809984E+02  0.45844620859E+03  0.79542978864E+02 0.  0.
         24    2    4    4    0    0  0.28785449640E+03  0.15919588738E+03  0.47400279642E+03  0.58146778528E+03  0.72267507506E+02 0.  0.
         13    1    3    3    0    0 -0.90638376406E+02  0.13218956985E+03  0.21287140886E+02  0.16168654867E+03  0.00000000000E+00 0. -1.
        -13    1    3    3    0    0 -0.38066890892E+02  0.13003033328E+03  0.11308708453E+03  0.17648134305E+03  0.00000000000E+00 0.  1.
          2    1    6    6  502    0  0.51850495808E+02  0.16548648652E+02  0.12745078713E+03  0.13858583920E+03  0.00000000000E+00 0. -1.
          1    1    5    5  503    0  0.33423587847E+01 -0.25896717707E+02 -0.15964010397E+02  0.30604917549E+02  0.00000000000E+00 0. -1.
         -2    1    5    5    0  503 -0.16249158789E+03 -0.39551907281E+03 -0.14467799587E+02  0.42784129104E+03  0.00000000000E+00 0.  1.
         -1    1    6    6    0  502  0.23600400059E+03  0.14264723873E+03  0.34655200929E+03  0.44288194607E+03  0.00000000000E+00 0.  1.
<mgrwt>
<rscale>  0 0.12510352E+04</rscale>
<asrwt>0</asrwt>
<pdfrwt beam="1">  1        1 0.61548975E-01 0.12510352E+04</pdfrwt>
<pdfrwt beam="2">  1       -1 0.15046362E+00 0.12510352E+04</pdfrwt>
<totfact> 0.20466814E+01</totfact>
</mgrwt>
</event>
<event>
12    1  0.1556559E-007  0.3266127E+04  0.7818608E-02  0.8171568E-01
         -2   -1    0    0    0  501 -0.00000000000E+00  0.00000000000E+00  0.97452237801E+03  0.97452237801E+03  0.00000000000E+00 0. -1.
          2   -1    0    0  501    0  0.00000000000E+00 -0.00000000000E+00 -0.27366194686E+04  0.27366194686E+04  0.00000000000E+00 0.  1.
         23    2    1    2    0    0  0.50680065984E+03  0.89083416824E+03 -0.20675837559E+04  0.23094913870E+04  0.91735788492E+02 0.  0.
        254    2    1    2    0    0 -0.50680065984E+03 -0.89083416824E+03  0.30548666530E+03  0.14016504596E+04  0.90601847891E+03 0.  0.
        -24    2    4    4    0    0  0.22698410240E+03 -0.52359989276E+02  0.89896777601E+01  0.24586801659E+03  0.78146759712E+02 0.  0.
         24    2    4    4    0    0 -0.73378476225E+03 -0.83847417896E+03  0.29649698754E+03  0.11557824430E+04  0.80271825011E+02 0.  0.
         11    1    3    3    0    0  0.42840702894E+03  0.76835482736E+03 -0.16986647460E+04  0.19129463250E+04  0.00000000000E+00 0. -1.
        -11    1    3    3    0    0  0.78393630902E+02  0.12247934088E+03 -0.36891900990E+03  0.39654506198E+03  0.00000000000E+00 0.  1.
          4    1    6    6  502    0 -0.20183834343E+03 -0.28647685244E+03  0.87014347333E+02  0.36108060111E+03  0.00000000000E+00 0. -1.
          3    1    5    5  503    0  0.74026091217E+01 -0.22973004241E+02  0.19922831631E+01  0.24218314101E+02  0.00000000000E+00 0. -1.
         -4    1    5    5    0  503  0.21958149328E+03 -0.29386985034E+02  0.69973945970E+01  0.22164970249E+03  0.00000000000E+00 0.  1.
         -3    1    6    6    0  502 -0.53194641882E+03 -0.55199732653E+03  0.20948264020E+03  0.79470184191E+03  0.00000000000E+00 0.  1.
<mgrwt>
<rscale>  0 0.32661273E+04</rscale>
<asrwt>0</asrwt>
<pdfrwt beam="1">  1        2 0.42101838E+00 0.32661273E+04</pdfrwt>
<pdfrwt beam="2">  1       -2 0.14992652E+00 0.32661273E+04</pdfrwt>
<totfact> 0.63416260E-01</totfact>
</mgrwt>
</event>
<event>
12    1  0.1556559E-007  0.2856153E+04  0.7818608E-02  0.8286044E-01
         -2   -1    0    0    0  501 -0.00000000000E+00  0.00000000000E+00  0.11726817020E+04  0.11726817020E+04  0.00000000000E+00 0. -1.
          2   -1    0    0  501    0  0.00000000000E+00 -0.00000000000E+00 -0.17390926792E+04  0.17390926792E+04  0.00000000000E+00 0.  1.
         23    2    1    2    0    0 -0.11453159065E+04  0.19143563278E+03 -0.78307074802E+03  0.14033381092E+04  0.88101788749E+02 0.  0.
        254    2    1    2    0    0  0.11453159065E+04 -0.19143563278E+03  0.21665977084E+03  0.15084362719E+04  0.93810575258E+03 0.  0.
        -24    2    4    4    0    0  0.26918573823E+03  0.32564054415E+03 -0.95215287434E+02  0.44138875213E+03  0.85178365111E+02 0.  0.
         24    2    4    4    0    0  0.87613016827E+03 -0.51707617693E+03  0.31187505828E+03  0.10670475198E+04  0.79702653981E+02 0.  0.
         13    1    3    3    0    0 -0.22872533735E+03  0.27422381084E+02 -0.11613770100E+03  0.25798300821E+03  0.00000000000E+00 0. -1.
        -13    1    3    3    0    0 -0.91659056915E+03  0.16401325169E+03 -0.66693304702E+03  0.11453551010E+04  0.00000000000E+00 0.  1.
          4    1    6    6  502    0  0.19949811431E+03 -0.80800984942E+02  0.72619838724E+02  0.22716059904E+03  0.00000000000E+00 0. -1.
          1    1    5    5  503    0  0.95719139927E+02  0.60209600177E+02 -0.37163527244E+02  0.11903141375E+03  0.00000000000E+00 0. -1.
         -2    1    5    5    0  503  0.17346659830E+03  0.26543094398E+03 -0.58051760190E+02  0.32235733838E+03  0.00000000000E+00 0.  1.
         -3    1    6    6    0  502  0.67663205396E+03 -0.43627519199E+03  0.23925521955E+03  0.83988692077E+03  0.00000000000E+00 0.  1.
<mgrwt>
<rscale>  0 0.28561528E+04</rscale>
<asrwt>0</asrwt>
<pdfrwt beam="1">  1        2 0.26755272E+00 0.28561528E+04</pdfrwt>
<pdfrwt beam="2">  1       -2 0.18041257E+00 0.28561528E+04</pdfrwt>
<totfact> 0.14556650E+00</totfact>
</mgrwt>
</event>
<event>
12    1  0.1556559E-007  0.2040442E+04  0.7818608E-02  0.8587943E-01
         -2   -1    0    0    0  501 -0.00000000000E+00  0.00000000000E+00  0.22638448468E+04  0.22638448468E+04  0.00000000000E+00 0.  1.
          2   -1    0    0  501    0  0.00000000000E+00 -0.00000000000E+00 -0.45977112124E+03  0.45977112124E+03  0.00000000000E+00 0. -1.
         23    2    1    2    0    0 -0.47168294146E+03 -0.64804094482E+03  0.47808418437E+03  0.93783769065E+03  0.92375230637E+02 0.  0.
        254    2    1    2    0    0  0.47168294146E+03  0.64804094482E+03  0.13259895412E+04  0.17857782774E+04  0.88787044619E+03 0.  0.
        -24    2    4    4    0    0  0.59305002927E+03  0.73703228328E+03  0.82736669887E+03  0.12592794590E+04  0.79524698719E+02 0.  0.
         24    2    4    4    0    0 -0.12136708781E+03 -0.88991338457E+02  0.49862284230E+03  0.52649881835E+03  0.76985963227E+02 0.  0.
         11    1    3    3    0    0 -0.24435221236E+03 -0.34144039616E+03  0.19679715544E+03  0.46370105478E+03  0.00000000000E+00 0. -1.
        -11    1    3    3    0    0 -0.22733072910E+03 -0.30660054866E+03  0.28128702893E+03  0.47413663587E+03  0.00000000000E+00 0.  1.
          2    1    6    6  502    0 -0.18871166879E+02  0.72257056978E+01  0.13750870982E+03  0.13898552816E+03  0.00000000000E+00 0. -1.
          1    1    5    5  503    0  0.87172358506E+02  0.12591755580E+03  0.17164092601E+03  0.23003229866E+03  0.00000000000E+00 0. -1.
         -2    1    5    5    0  503  0.50587767076E+03  0.61111472748E+03  0.65572577286E+03  0.10292471604E+04  0.00000000000E+00 0.  1.
         -1    1    6    6    0  502 -0.10249592093E+03 -0.96217044155E+02  0.36111413248E+03  0.38751329019E+03  0.00000000000E+00 0.  1.
<mgrwt>
<rscale>  0 0.20404416E+04</rscale>
<asrwt>0</asrwt>
<pdfrwt beam="1">  1        2 0.70734020E-01 0.20404416E+04</pdfrwt>
<pdfrwt beam="2">  1       -2 0.34828382E+00 0.20404416E+04</pdfrwt>
<totfact> 0.10043985E+00</totfact>
</mgrwt>
</event>
<event>
12    1  0.1556559E-007  0.1326681E+04  0.7818608E-02  0.9008671E-01
          1   -1    0    0  501    0  0.00000000000E+00  0.00000000000E+00  0.16985045168E+03  0.16985045168E+03  0.00000000000E+00 0. -1.
         -1   -1    0    0    0  501 -0.00000000000E+00 -0.00000000000E+00 -0.25906348934E+04  0.25906348934E+04  0.00000000000E+00 0.  1.
         23    2    1    2    0    0  0.30076029820E+03 -0.60915632066E+02 -0.99109810802E+03  0.10433145967E+04  0.10982903386E+03 0.  0.
        254    2    1    2    0    0 -0.30076029820E+03  0.60915632066E+02 -0.14296863337E+04  0.17171707484E+04  0.90028045366E+03 0.  0.
        -24    2    4    4    0    0 -0.69038225771E+02  0.20039785167E+03  0.32236943987E+02  0.22822821224E+03  0.78251650046E+02 0.  0.
         24    2    4    4    0    0 -0.23172207243E+03 -0.13948221960E+03 -0.14619232776E+04  0.14889425361E+04  0.81115952531E+02 0.  0.
         13    1    3    3    0    0  0.15310158174E+01  0.16691839246E+02 -0.47567755998E+02  0.50434640056E+02  0.00000000000E+00 0. -1.
        -13    1    3    3    0    0  0.29922928238E+03 -0.77607471311E+02 -0.94353035202E+03  0.99287995660E+03  0.00000000000E+00 0.  1.
          4    1    6    6  502    0 -0.74001799229E+01 -0.27563354944E+01 -0.71923909072E+01  0.10681317110E+02  0.00000000000E+00 0. -1.
          1    1    5    5  503    0 -0.28704310412E+02  0.80503123669E+02 -0.25481367394E+02  0.89185146975E+02  0.00000000000E+00 0. -1.
         -2    1    5    5    0  503 -0.40333915359E+02  0.11989472800E+03  0.57718311382E+02  0.13904306527E+03  0.00000000000E+00 0.  1.
         -3    1    6    6    0  502 -0.22432189250E+03 -0.13672588411E+03 -0.14547308867E+04  0.14782612190E+04  0.00000000000E+00 0.  1.
<mgrwt>
<rscale>  0 0.13266808E+04</rscale>
<asrwt>0</asrwt>
<pdfrwt beam="1">  1        1 0.26130838E-01 0.13266808E+04</pdfrwt>
<pdfrwt beam="2">  1       -1 0.39855923E+00 0.13266808E+04</pdfrwt>
<totfact> 0.13368158E+00</totfact>
</mgrwt>
</event>
<event>
12    1  0.1556559E-007  0.1670677E+04  0.7818608E-02  0.8778267E-01
          4   -1    0    0  501    0  0.00000000000E+00  0.00000000000E+00  0.15744733561E+04  0.15744733561E+04  0.00000000000E+00 0. -1.
         -4   -1    0    0    0  501 -0.00000000000E+00 -0.00000000000E+00 -0.44318962677E+03  0.44318962677E+03  0.00000000000E+00 0.  1.
         23    2    1    2    0    0  0.47265958412E+03  0.36012465286E+03  0.40060057634E+03  0.72224749731E+03  0.89798538678E+02 0.  0.
        254    2    1    2    0    0 -0.47265958412E+03 -0.36012465286E+03  0.73068315303E+03  0.12954154856E+04  0.88944171376E+03 0.  0.
        -24    2    4    4    0    0  0.22059698975E+03 -0.27331030570E+03  0.18307157844E+03  0.40395967487E+03  0.79414488607E+02 0.  0.
         24    2    4    4    0    0 -0.69325657387E+03 -0.86814347164E+02  0.54761157459E+03  0.89145581073E+03  0.81692213737E+02 0.  0.
         13    1    3    3    0    0  0.37383631269E+01  0.12319438626E+02 -0.20474577200E+01  0.13035950676E+02  0.00000000000E+00 0. -1.
        -13    1    3    3    0    0  0.46892122099E+03  0.34780521424E+03  0.40264803406E+03  0.70921154663E+03  0.00000000000E+00 0.  1.
          2    1    6    6  502    0 -0.37120932351E+03 -0.10486686261E+02  0.31443112256E+03  0.48659352984E+03  0.00000000000E+00 0. -1.
          3    1    5    5  503    0  0.22360024781E+02 -0.79972449510E+02  0.37390363617E+02  0.91069219170E+02  0.00000000000E+00 0. -1.
         -4    1    5    5    0  503  0.19823696497E+03 -0.19333785619E+03  0.14568121483E+03  0.31289045570E+03  0.00000000000E+00 0.  1.
         -1    1    6    6    0  502 -0.32204725035E+03 -0.76327660904E+02  0.23318045203E+03  0.40486228089E+03  0.00000000000E+00 0.  1.
<mgrwt>
<rscale>  0 0.16706768E+04</rscale>
<asrwt>0</asrwt>
<pdfrwt beam="1">  1        4 0.24222667E+00 0.16706768E+04</pdfrwt>
<pdfrwt beam="2">  1       -4 0.68183020E-01 0.16706768E+04</pdfrwt>
<totfact> 0.26765237E-01</totfact>
</mgrwt>
</event>
<event>
12    1  0.1556559E-007  0.1212760E+04  0.7818608E-02  0.9101760E-01
          1   -1    0    0  501    0  0.00000000000E+00  0.00000000000E+00  0.27930677817E+04  0.27930677817E+04  0.00000000000E+00 0. -1.
         -1   -1    0    0    0  501 -0.00000000000E+00 -0.00000000000E+00 -0.13164627420E+03  0.13164627420E+03  0.00000000000E+00 0.  1.
         23    2    1    2    0    0  0.24781896266E+03  0.98641746685E+02  0.66660922320E+03  0.72375396767E+03  0.91145580354E+02 0.  0.
        254    2    1    2    0    0 -0.24781896266E+03 -0.98641746685E+02  0.19948122843E+04  0.22009600882E+04  0.89095725372E+03 0.  0.
        -24    2    4    4    0    0 -0.95566668847E+02 -0.36941198043E+03  0.17641610055E+04  0.18066990683E+04  0.79367942174E+02 0.  0.
         24    2    4    4    0    0 -0.15225229382E+03  0.27077023374E+03  0.23065127873E+03  0.39426101997E+03  0.75792209561E+02 0.  0.
         11    1    3    3    0    0  0.52156672375E+02  0.46413879584E+02  0.99343807514E+02  0.12142388061E+03  0.00000000000E+00 0.  1.
        -11    1    3    3    0    0  0.19566229029E+03  0.52227867100E+02  0.56726541569E+03  0.60233008706E+03  0.00000000000E+00 0. -1.
          4    1    6    6  502    0 -0.13260368145E+03  0.24501351550E+03  0.17244577989E+03  0.32764753335E+03  0.00000000000E+00 0. -1.
          3    1    5    5  503    0 -0.43636428866E+02 -0.26606734927E+03  0.13517382393E+04  0.13783657859E+04  0.00000000000E+00 0. -1.
         -4    1    5    5    0  503 -0.51930239981E+02 -0.10334463116E+03  0.41242276627E+03  0.42833328233E+03  0.00000000000E+00 0.  1.
         -3    1    6    6    0  502 -0.19648612363E+02  0.25756718240E+02  0.58205498848E+02  0.66613486611E+02  0.00000000000E+00 0.  1.
<mgrwt>
<rscale>  0 0.12127604E+04</rscale>
<asrwt>0</asrwt>
<pdfrwt beam="1">  1        1 0.42970269E+00 0.12127604E+04</pdfrwt>
<pdfrwt beam="2">  1       -1 0.20253275E-01 0.12127604E+04</pdfrwt>
<totfact> 0.16855582E+01</totfact>
</mgrwt>
</event>
<event>
12    1  0.1556559E-007  0.2234290E+04  0.7818608E-02  0.8504290E-01
         -2   -1    0    0    0  501 -0.00000000000E+00  0.00000000000E+00  0.11655039421E+04  0.11655039421E+04  0.00000000000E+00 0.  1.
          2   -1    0    0  501    0  0.00000000000E+00 -0.00000000000E+00 -0.10707928714E+04  0.10707928714E+04  0.00000000000E+00 0. -1.
         23    2    1    2    0    0 -0.23162913341E+03 -0.12396475782E+03 -0.85580888750E+03  0.90008987099E+03  0.93453771010E+02 0.  0.
        254    2    1    2    0    0  0.23162913341E+03  0.12396475782E+03  0.95051995816E+03  0.13362069425E+04  0.90163267782E+03 0.  0.
        -24    2    4    4    0    0 -0.18930853326E+03  0.90100927400E+02  0.87027967768E+03  0.89914293450E+03  0.84352838694E+02 0.  0.
         24    2    4    4    0    0  0.42093766667E+03  0.33863830422E+02  0.80240280489E+02  0.43706400802E+03  0.79064317221E+02 0.  0.
         11    1    3    3    0    0 -0.69896420149E+02 -0.16459238061E+02 -0.12747076567E+03  0.14630520213E+03  0.00000000000E+00 0.  1.
        -11    1    3    3    0    0 -0.16173271326E+03 -0.10750551976E+03 -0.72833812183E+03  0.75378466887E+03  0.00000000000E+00 0. -1.
          2    1    6    6  502    0  0.31210880584E+03 -0.58859973563E+01  0.75195111506E+02  0.32109322080E+03  0.00000000000E+00 0. -1.
          1    1    5    5  503    0 -0.18874153648E+03  0.96909163012E+02  0.77193664984E+03  0.80056289250E+03  0.00000000000E+00 0. -1.
         -2    1    5    5    0  503 -0.56699677484E+00 -0.68082356123E+01  0.98343027832E+02  0.98580042000E+02  0.00000000000E+00 0.  1.
         -1    1    6    6    0  502  0.10882886083E+03  0.39749827778E+02  0.50451689828E+01  0.11597078722E+03  0.00000000000E+00 0.  1.
<mgrwt>
<rscale>  0 0.22342903E+04</rscale>
<asrwt>0</asrwt>
<pdfrwt beam="1">  1        2 0.16473736E+00 0.22342903E+04</pdfrwt>
<pdfrwt beam="2">  1       -2 0.17930830E+00 0.22342903E+04</pdfrwt>
<totfact> 0.37955611E+00</totfact>
</mgrwt>
</event>
<event>
12    1  0.1556559E-007  0.3732157E+04  0.7818608E-02  0.8060872E-01
          2   -1    0    0  501    0  0.00000000000E+00  0.00000000000E+00  0.18940951274E+04  0.18940951274E+04  0.00000000000E+00 0. -1.
         -2   -1    0    0    0  501 -0.00000000000E+00 -0.00000000000E+00 -0.18384767175E+04  0.18384767175E+04  0.00000000000E+00 0.  1.
         23    2    1    2    0    0  0.15636496032E+04  0.52427153146E+03 -0.57831167301E+03  0.17500235814E+04  0.90980349353E+02 0.  0.
        254    2    1    2    0    0 -0.15636496032E+04 -0.52427153146E+03  0.63393008289E+03  0.19825482635E+04  0.89931615524E+03 0.  0.
        -24    2    4    4    0    0 -0.83169598517E+03  0.18346877256E+03  0.25146292575E+03  0.89126095514E+03  0.75719778631E+02 0.  0.
         24    2    4    4    0    0 -0.73195361800E+03 -0.70774030402E+03  0.38246715714E+03  0.10912873084E+04  0.89299643635E+02 0.  0.
         13    1    3    3    0    0  0.29794916759E+03  0.13510790459E+03 -0.12959694342E+03  0.35188523711E+03  0.00000000000E+00 0. -1.
        -13    1    3    3    0    0  0.12657004356E+04  0.38916362687E+03 -0.44871472959E+03  0.13981383442E+04  0.00000000000E+00 0.  1.
          2    1    6    6  502    0 -0.17659772168E+03 -0.15993454952E+03  0.12978730001E+03  0.27131265852E+03  0.00000000000E+00 0. -1.
          1    1    5    5  503    0 -0.25333753595E+03  0.25923521569E+02  0.55787575765E+02  0.26069942406E+03  0.00000000000E+00 0. -1.
         -2    1    5    5    0  503 -0.57835844921E+03  0.15754525099E+03  0.19567534998E+03  0.63056153108E+03  0.00000000000E+00 0.  1.
         -1    1    6    6    0  502 -0.55535589632E+03 -0.54780575450E+03  0.25267985713E+03  0.81997464988E+03  0.00000000000E+00 0.  1.
<mgrwt>
<rscale>  0 0.37321574E+04</rscale>
<asrwt>0</asrwt>
<pdfrwt beam="1">  1        2 0.29139925E+00 0.37321574E+04</pdfrwt>
<pdfrwt beam="2">  1       -2 0.28284257E+00 0.37321574E+04</pdfrwt>
<totfact> 0.24962323E-01</totfact>
</mgrwt>
</event>
<event>
12    1  0.1556559E-007  0.3942843E+04  0.7818608E-02  0.8016177E-01
         -1   -1    0    0    0  501 -0.00000000000E+00  0.00000000000E+00  0.19364686659E+04  0.19364686659E+04  0.00000000000E+00 0.  1.
          1   -1    0    0  501    0  0.00000000000E+00 -0.00000000000E+00 -0.20070047854E+04  0.20070047854E+04  0.00000000000E+00 0. -1.
         23    2    1    2    0    0 -0.14655553803E+03  0.17270992269E+04 -0.74031869574E+03  0.18869245991E+04  0.89790900913E+02 0.  0.
        254    2    1    2    0    0  0.14655553803E+03 -0.17270992269E+04  0.66978257622E+03  0.20565488522E+04  0.88115504684E+03 0.  0.
        -24    2    4    4    0    0  0.49055597257E+03 -0.98292009279E+03  0.24011855334E+03  0.11273534486E+04  0.80571753267E+02 0.  0.
         24    2    4    4    0    0 -0.34400043454E+03 -0.74417913416E+03  0.42966402288E+03  0.92919540356E+03  0.81572316179E+02 0.  0.
         11    1    3    3    0    0 -0.13106440199E+03  0.16809546199E+04 -0.70911681991E+03  0.18291071526E+04  0.00000000000E+00 0. -1.
        -11    1    3    3    0    0 -0.15491136039E+02  0.46144607095E+02 -0.31201875836E+02  0.57817446463E+02  0.00000000000E+00 0.  1.
          2    1    6    6  502    0 -0.11786277610E+03 -0.33885061389E+03  0.16490214037E+03  0.39484691770E+03  0.00000000000E+00 0. -1.
          3    1    5    5  503    0  0.25996695632E+02 -0.48073957190E+02  0.30555170398E+02  0.62614311318E+02  0.00000000000E+00 0. -1.
         -4    1    5    5    0  503  0.46455927694E+03 -0.93484613560E+03  0.20956338295E+03  0.10647391373E+04  0.00000000000E+00 0.  1.
         -1    1    6    6    0  502 -0.22613765845E+03 -0.40532852027E+03  0.26476188251E+03  0.53434848586E+03  0.00000000000E+00 0.  1.
<mgrwt>
<rscale>  0 0.39428426E+04</rscale>
<asrwt>0</asrwt>
<pdfrwt beam="1">  1        1 0.30876997E+00 0.39428426E+04</pdfrwt>
<pdfrwt beam="2">  1       -1 0.29791826E+00 0.39428426E+04</pdfrwt>
<totfact> 0.78956313E-02</totfact>
</mgrwt>
</event>
<event>
12    1  0.1556559E-007  0.2160618E+04  0.7818608E-02  0.8535001E-01
          2   -1    0    0  501    0  0.00000000000E+00  0.00000000000E+00  0.11489284267E+04  0.11489284267E+04  0.00000000000E+00 0. -1.
         -2   -1    0    0    0  501 -0.00000000000E+00 -0.00000000000E+00 -0.10157874515E+04  0.10157874515E+04  0.00000000000E+00 0.  1.
         23    2    1    2    0    0 -0.42857599663E+03  0.26066038739E+03  0.79071116856E+03  0.94092818956E+03  0.92198065965E+02 0.  0.
        254    2    1    2    0    0  0.42857599663E+03 -0.26066038739E+03 -0.65757019338E+03  0.12237876887E+04  0.90201802939E+03 0.  0.
        -24    2    4    4    0    0 -0.16689483661E+03  0.16606031989E+03 -0.33922362137E+03  0.42070377441E+03  0.80554851984E+02 0.  0.
         24    2    4    4    0    0  0.59547083324E+03 -0.42672070728E+03 -0.31834657201E+03  0.80308391429E+03  0.83205517928E+02 0.  0.
         13    1    3    3    0    0 -0.23405825095E+03  0.12994893652E+03  0.50339094496E+03  0.57015123819E+03  0.00000000000E+00 0. -1.
        -13    1    3    3    0    0 -0.19451774568E+03  0.13071145088E+03  0.28732022360E+03  0.37077695137E+03  0.00000000000E+00 0.  1.
          2    1    6    6  502    0  0.35950802070E+03 -0.22928229529E+03 -0.22170991719E+03  0.48059512613E+03  0.00000000000E+00 0. -1.
          1    1    5    5  503    0 -0.29452748708E+01  0.44804733589E+02 -0.59379001187E+02  0.74444641030E+02  0.00000000000E+00 0. -1.
         -4    1    5    5    0  503 -0.16394956174E+03  0.12125558630E+03 -0.27984462018E+03  0.34625913338E+03  0.00000000000E+00 0.  1.
         -1    1    6    6    0  502  0.23596281254E+03 -0.19743841199E+03 -0.96636654822E+02  0.32248878816E+03  0.00000000000E+00 0.  1.
<mgrwt>
<rscale>  0 0.21606176E+04</rscale>
<asrwt>0</asrwt>
<pdfrwt beam="1">  1        2 0.17675822E+00 0.21606176E+04</pdfrwt>
<pdfrwt beam="2">  1       -2 0.15627499E+00 0.21606176E+04</pdfrwt>
<totfact> 0.50067919E+00</totfact>
</mgrwt>
</event>
<event>
12    1  0.1556559E-007  0.1077243E+04  0.7818608E-02  0.9227661E-01
         -1   -1    0    0    0  501 -0.00000000000E+00  0.00000000000E+00  0.86259477117E+03  0.86259477117E+03  0.00000000000E+00 0.  1.
          1   -1    0    0  501    0  0.00000000000E+00 -0.00000000000E+00 -0.33632611516E+03  0.33632611516E+03  0.00000000000E+00 0. -1.
         23    2    1    2    0    0 -0.52215598336E+02  0.51266632961E+02 -0.45404867734E+02  0.12388188828E+03  0.89052702741E+02 0.  0.
        254    2    1    2    0    0  0.52215598336E+02 -0.51266632961E+02  0.57167352374E+03  0.10750389981E+04  0.90749297145E+03 0.  0.
        -24    2    4    4    0    0  0.30915680815E+03  0.16397263894E+03 -0.52102711255E+02  0.36239473833E+03  0.78423819763E+02 0.  0.
         24    2    4    4    0    0 -0.25694120981E+03 -0.21523927190E+03  0.62377623499E+03  0.71264425972E+03  0.80114418810E+02 0.  0.
         13    1    3    3    0    0 -0.29383104179E+02  0.33021223592E+02 -0.71921629157E+02  0.84418533269E+02  0.00000000000E+00 0. -1.
        -13    1    3    3    0    0 -0.22832494157E+02  0.18245409369E+02  0.26516761423E+02  0.39463355012E+02  0.00000000000E+00 0.  1.
          4    1    6    6  502    0 -0.36462120172E+02 -0.60014915244E+02  0.85771803540E+02  0.11085160595E+03  0.00000000000E+00 0. -1.
          1    1    5    5  503    0  0.45612709468E+02  0.43203666183E+02 -0.35176926668E+02  0.72003418019E+02  0.00000000000E+00 0. -1.
         -2    1    5    5    0  503  0.26354409868E+03  0.12076897276E+03 -0.16925784588E+02  0.29039132031E+03  0.00000000000E+00 0.  1.
         -3    1    6    6    0  502 -0.22047908964E+03 -0.15522435666E+03  0.53800443145E+03  0.60179265377E+03  0.00000000000E+00 0.  1.
<mgrwt>
<rscale>  0 0.10772431E+04</rscale>
<asrwt>0</asrwt>
<pdfrwt beam="1">  1        1 0.51742480E-01 0.10772431E+04</pdfrwt>
<pdfrwt beam="2">  1       -1 0.13270689E+00 0.10772431E+04</pdfrwt>
<totfact> 0.36259943E+01</totfact>
</mgrwt>
</event>
<event>
12    1  0.1556559E-007  0.1419222E+04  0.7818608E-02  0.8940021E-01
          1   -1    0    0  501    0  0.00000000000E+00  0.00000000000E+00  0.31756142170E+03  0.31756142170E+03  0.00000000000E+00 0. -1.
         -1   -1    0    0    0  501 -0.00000000000E+00 -0.00000000000E+00 -0.15856709682E+04  0.15856709682E+04  0.00000000000E+00 0.  1.
         23    2    1    2    0    0 -0.12805365500E+03 -0.13685085082E+03  0.11863823569E+03  0.24001563169E+03  0.91687395850E+02 0.  0.
        254    2    1    2    0    0  0.12805365500E+03  0.13685085082E+03 -0.13867477822E+04  0.16632167582E+04  0.89894086536E+03 0.  0.
        -24    2    4    4    0    0  0.26720913455E+03  0.39670608216E+02 -0.14404604732E+04  0.14677662485E+04  0.80230336043E+02 0.  0.
         24    2    4    4    0    0 -0.13915547955E+03  0.97180242600E+02  0.53712691021E+02  0.19545050963E+03  0.80669706202E+02 0.  0.
         13    1    3    3    0    0 -0.94172852993E+02 -0.13066149736E+03  0.59735656529E+02  0.17178271681E+03  0.00000000000E+00 0. -1.
        -13    1    3    3    0    0 -0.33880802011E+02 -0.61893534592E+01  0.58902579166E+02  0.68232914884E+02  0.00000000000E+00 0.  1.
          2    1    6    6  502    0 -0.51423359957E+02  0.65905154759E+02  0.58751529288E+02  0.10217432929E+03  0.00000000000E+00 0. -1.
          1    1    5    5  503    0  0.38323824464E+02  0.81556835042E+01 -0.40246526116E+03  0.40436804663E+03  0.00000000000E+00 0. -1.
         -2    1    5    5    0  503  0.22888531008E+03  0.31514924712E+02 -0.10379952120E+04  0.10633982019E+04  0.00000000000E+00 0.  1.
         -1    1    6    6    0  502 -0.87732119588E+02  0.31275087840E+02 -0.50388382670E+01  0.93276180336E+02  0.00000000000E+00 0.  1.
<mgrwt>
<rscale>  0 0.14192222E+04</rscale>
<asrwt>0</asrwt>
<pdfrwt beam="1">  1        1 0.48855603E-01 0.14192222E+04</pdfrwt>
<pdfrwt beam="2">  1       -1 0.24394938E+00 0.14192222E+04</pdfrwt>
<totfact> 0.60561164E+00</totfact>
</mgrwt>
</event>
<event>
12    1  0.1556559E-007  0.3064330E+04  0.7818608E-02  0.8225596E-01
         -1   -1    0    0    0  501 -0.00000000000E+00  0.00000000000E+00  0.23647851137E+04  0.23647851137E+04  0.00000000000E+00 0. -1.
          1   -1    0    0  501    0  0.00000000000E+00 -0.00000000000E+00 -0.99270300559E+03  0.99270300559E+03  0.00000000000E+00 0.  1.
         23    2    1    2    0    0  0.14959579054E+03 -0.19056955893E+03  0.21351459278E+04  0.21499006612E+04  0.67298311523E+02 0.  0.
        254    2    1    2    0    0 -0.14959579054E+03  0.19056955893E+03 -0.76306381970E+03  0.12075874581E+04  0.90404945584E+03 0.  0.
        -24    2    4    4    0    0 -0.14860661667E+03  0.54571663830E+03 -0.44044050575E+03  0.72120670158E+03  0.79124531368E+02 0.  0.
         24    2    4    4    0    0 -0.98917387239E+00 -0.35514707936E+03 -0.32262331395E+03  0.48638075648E+03  0.79686957087E+02 0.  0.
         11    1    3    3    0    0  0.76249658225E+01 -0.22136664449E+02  0.42217448472E+03  0.42282321077E+03  0.00000000000E+00 0.  1.
        -11    1    3    3    0    0  0.14197082472E+03 -0.16843289449E+03  0.17129714431E+04  0.17270774505E+04  0.00000000000E+00 0. -1.
          2    1    6    6  502    0  0.12943518383E+02 -0.89063611185E+02 -0.41683630017E+02  0.99183600040E+02  0.00000000000E+00 0. -1.
          3    1    5    5  503    0 -0.30769840818E+02  0.39495001023E+02 -0.53205548304E+02  0.73057980947E+02  0.00000000000E+00 0. -1.
         -4    1    5    5    0  503 -0.11783677585E+03  0.50622163728E+03 -0.38723495745E+03  0.64814872063E+03  0.00000000000E+00 0.  1.
         -1    1    6    6    0  502 -0.13932692255E+02 -0.26608346818E+03 -0.28093968393E+03  0.38719715645E+03  0.00000000000E+00 0.  1.
<mgrwt>
<rscale>  0 0.30643298E+04</rscale>
<asrwt>0</asrwt>
<pdfrwt beam="1">  1        1 0.15272354E+00 0.30643298E+04</pdfrwt>
<pdfrwt beam="2">  1       -1 0.36381309E+00 0.30643298E+04</pdfrwt>
<totfact> 0.16306191E-01</totfact>
</mgrwt>
</event>
<event>
12    1  0.1556559E-007  0.1050413E+04  0.7818608E-02  0.9254918E-01
          1   -1    0    0  501    0  0.00000000000E+00  0.00000000000E+00  0.40059628184E+03  0.40059628184E+03  0.00000000000E+00 0. -1.
         -1   -1    0    0    0  501 -0.00000000000E+00 -0.00000000000E+00 -0.68857849540E+03  0.68857849540E+03  0.00000000000E+00 0.  1.
         23    2    1    2    0    0 -0.27731296372E+02 -0.99528535291E+02 -0.15794633999E+02  0.13835539772E+03  0.90652035157E+02 0.  0.
        254    2    1    2    0    0  0.27731296372E+02  0.99528535291E+02 -0.27218757956E+03  0.95081937952E+03  0.90514996540E+03 0.  0.
        -24    2    4    4    0    0 -0.27082319029E+03 -0.27554661345E+02 -0.47959208937E+03  0.55663543895E+03  0.75696631071E+02 0.  0.
         24    2    4    4    0    0  0.29855448666E+03  0.12708319664E+03  0.20740450980E+03  0.39418394057E+03  0.84139336465E+02 0.  0.
         13    1    3    3    0    0 -0.57190435980E+01 -0.87077149239E+02 -0.46254330824E+02  0.98765381077E+02  0.00000000000E+00 0.  1.
        -13    1    3    3    0    0 -0.22012252774E+02 -0.12451386052E+02  0.30459696825E+02  0.39590016639E+02  0.00000000000E+00 0. -1.
          4    1    6    6  502    0  0.30565913645E+01  0.73994894891E+00 -0.71224853348E+01  0.77858893237E+01  0.00000000000E+00 0. -1.
          3    1    5    5  503    0 -0.85550899645E+01 -0.42827653797E+01 -0.53416700108E-01  0.95673662490E+01  0.00000000000E+00 0. -1.
         -4    1    5    5    0  503 -0.26226810032E+03 -0.23271895966E+02 -0.47953867267E+03  0.54706807270E+03  0.00000000000E+00 0.  1.
         -3    1    6    6    0  502  0.29549789529E+03  0.12634324769E+03  0.21452699514E+03  0.38639805124E+03  0.00000000000E+00 0.  1.
<mgrwt>
<rscale>  0 0.10504132E+04</rscale>
<asrwt>0</asrwt>
<pdfrwt beam="1">  1        1 0.61630198E-01 0.10504132E+04</pdfrwt>
<pdfrwt beam="2">  1       -1 0.10593515E+00 0.10504132E+04</pdfrwt>
<totfact> 0.49939652E+01</totfact>
</mgrwt>
</event>
<event>
12    1  0.1556559E-007  0.1454941E+04  0.7818608E-02  0.8914982E-01
         -1   -1    0    0    0  501 -0.00000000000E+00  0.00000000000E+00  0.53459672519E+03  0.53459672519E+03  0.00000000000E+00 0.  1.
          1   -1    0    0  501    0  0.00000000000E+00 -0.00000000000E+00 -0.98993034214E+03  0.98993034214E+03  0.00000000000E+00 0. -1.
         23    2    1    2    0    0  0.15616361041E+03 -0.10129322243E+03 -0.55127774341E+03  0.58923951755E+03  0.92998217882E+02 0.  0.
        254    2    1    2    0    0 -0.15616361041E+03  0.10129322243E+03  0.95944126470E+02  0.93528754978E+03  0.91154272266E+03 0.  0.
        -24    2    4    4    0    0 -0.27525173975E+03 -0.29618833722E+02 -0.34744231650E+03  0.45106693297E+03  0.78130782472E+02 0.  0.
         24    2    4    4    0    0  0.11908812934E+03  0.13091205615E+03  0.44338644297E+03  0.48422061681E+03  0.80982213698E+02 0.  0.
         13    1    3    3    0    0  0.12171946600E+03 -0.11694783056E+03 -0.42098108345E+03  0.45356090671E+03  0.00000000000E+00 0. -1.
        -13    1    3    3    0    0  0.34444144416E+02  0.15654608132E+02 -0.13029665996E+03  0.13567861083E+03  0.00000000000E+00 0.  1.
          4    1    6    6  502    0  0.51596260277E+02  0.59419910590E+02  0.30149022593E+03  0.31159148926E+03  0.00000000000E+00 0. -1.
          3    1    5    5  503    0 -0.21293614269E+03 -0.27587865332E+01 -0.30148675863E+03  0.36911201199E+03  0.00000000000E+00 0. -1.
         -4    1    5    5    0  503 -0.62315597065E+02 -0.26860047189E+02 -0.45955557870E+02  0.81954920973E+02  0.00000000000E+00 0.  1.
         -3    1    6    6    0  502  0.67491869065E+02  0.71492145565E+02  0.14189621705E+03  0.17262912755E+03  0.00000000000E+00 0.  1.
<mgrwt>
<rscale>  0 0.14549413E+04</rscale>
<asrwt>0</asrwt>
<pdfrwt beam="1">  1        1 0.15229697E+00 0.14549413E+04</pdfrwt>
<pdfrwt beam="2">  1       -1 0.82245651E-01 0.14549413E+04</pdfrwt>
<totfact> 0.21997648E+01</totfact>
</mgrwt>
</event>
<event>
12    1  0.1556559E-007  0.2284381E+04  0.7818608E-02  0.8484105E-01
         -2   -1    0    0    0  501 -0.00000000000E+00  0.00000000000E+00  0.11434252255E+04  0.11434252255E+04  0.00000000000E+00 0.  1.
          2   -1    0    0  501    0  0.00000000000E+00 -0.00000000000E+00 -0.11409570479E+04  0.11409570479E+04  0.00000000000E+00 0. -1.
         23    2    1    2    0    0 -0.83220080427E+03 -0.48566965084E+03 -0.32026025910E+02  0.96861868658E+03  0.93612527335E+02 0.  0.
        254    2    1    2    0    0  0.83220080427E+03  0.48566965084E+03  0.34494203519E+02  0.13157635868E+04  0.89532719036E+03 0.  0.
        -24    2    4    4    0    0  0.28638903506E+02  0.40232330483E+03  0.24174917223E+03  0.47758628801E+03  0.83437232815E+02 0.  0.
         24    2    4    4    0    0  0.80356190077E+03  0.83346346010E+02 -0.20725496871E+03  0.83817729875E+03  0.83235931716E+02 0.  0.
         11    1    3    3    0    0 -0.66583195063E+03 -0.41268954471E+03  0.42200773940E+01  0.78336623354E+03  0.00000000000E+00 0.  1.
        -11    1    3    3    0    0 -0.16636885364E+03 -0.72980106131E+02 -0.36246103304E+02  0.18525245304E+03  0.00000000000E+00 0. -1.
          2    1    6    6  502    0  0.73757261745E+03  0.56899396787E+02 -0.17539250097E+03  0.76027194921E+03  0.00000000000E+00 0. -1.
          3    1    5    5  503    0 -0.36224358304E+01  0.33136137746E+03  0.21569690778E+03  0.39539681402E+03  0.00000000000E+00 0. -1.
         -4    1    5    5    0  503  0.32261339336E+02  0.70961927369E+02  0.26052264455E+02  0.82189473991E+02  0.00000000000E+00 0.  1.
         -1    1    6    6    0  502  0.65989283323E+02  0.26446949223E+02 -0.31862467741E+02  0.77905349542E+02  0.00000000000E+00 0.  1.
<mgrwt>
<rscale>  0 0.22843809E+04</rscale>
<asrwt>0</asrwt>
<pdfrwt beam="1">  1        2 0.17553185E+00 0.22843809E+04</pdfrwt>
<pdfrwt beam="2">  1       -2 0.17591157E+00 0.22843809E+04</pdfrwt>
<totfact> 0.36135018E+00</totfact>
</mgrwt>
</event>
<event>
12    1  0.1556559E-007  0.1388714E+04  0.7818608E-02  0.8962029E-01
         -2   -1    0    0    0  501 -0.00000000000E+00  0.00000000000E+00  0.75213561082E+03  0.75213561082E+03  0.00000000000E+00 0.  1.
          2   -1    0    0  501    0  0.00000000000E+00 -0.00000000000E+00 -0.64101699743E+03  0.64101699743E+03  0.00000000000E+00 0. -1.
         23    2    1    2    0    0  0.87149366601E+02 -0.38092010696E+03  0.15023330305E+02  0.40143854351E+03  0.90730721215E+02 0.  0.
        254    2    1    2    0    0 -0.87149366601E+02  0.38092010696E+03  0.96095283086E+02  0.99171406473E+03  0.90640352094E+03 0.  0.
        -24    2    4    4    0    0  0.25728078678E+03  0.33513663351E+03  0.34958887476E+03  0.55400393995E+03  0.78727490490E+02 0.  0.
         24    2    4    4    0    0 -0.34443015338E+03  0.45783473455E+02 -0.25349359167E+03  0.43771012479E+03  0.81258201559E+02 0.  0.
         13    1    3    3    0    0  0.16361597432E+02 -0.11830456707E+02 -0.13896842858E+02  0.24510891821E+02  0.00000000000E+00 0.  1.
        -13    1    3    3    0    0  0.70787769169E+02 -0.36908965026E+03  0.28920173163E+02  0.37692765169E+03  0.00000000000E+00 0. -1.
          2    1    6    6  502    0 -0.16595320191E+02  0.20367122900E+02 -0.83490735027E+01  0.27566852846E+02  0.00000000000E+00 0. -1.
          3    1    5    5  503    0  0.15878565250E+03  0.19258459881E+03  0.15667681041E+03  0.29470211071E+03  0.00000000000E+00 0. -1.
         -4    1    5    5    0  503  0.98495134283E+02  0.14255203469E+03  0.19291206435E+03  0.25930182924E+03  0.00000000000E+00 0.  1.
         -1    1    6    6    0  502 -0.32783483319E+03  0.25416350555E+02 -0.24514451817E+03  0.41014327194E+03  0.00000000000E+00 0.  1.
<mgrwt>
<rscale>  0 0.13887141E+04</rscale>
<asrwt>0</asrwt>
<pdfrwt beam="1">  1        2 0.98617999E-01 0.13887141E+04</pdfrwt>
<pdfrwt beam="2">  1       -2 0.11571317E+00 0.13887141E+04</pdfrwt>
<totfact> 0.25877263E+01</totfact>
</mgrwt>
</event>
<event>
12    1  0.1556559E-007  0.1406961E+04  0.7818608E-02  0.8948795E-01
          2   -1    0    0  501    0  0.00000000000E+00  0.00000000000E+00  0.14957057353E+04  0.14957057353E+04  0.00000000000E+00 0. -1.
         -2   -1    0    0    0  501 -0.00000000000E+00 -0.00000000000E+00 -0.33087064793E+03  0.33087064793E+03  0.00000000000E+00 0.  1.
         23    2    1    2    0    0 -0.22089162666E+03  0.34109816612E+03  0.34066749714E+03  0.53785157329E+03  0.89938321223E+02 0.  0.
        254    2    1    2    0    0  0.22089162666E+03 -0.34109816612E+03  0.82416759020E+03  0.12887248099E+04  0.90355871379E+03 0.  0.
        -24    2    4    4    0    0 -0.30467454866E+03 -0.72887383601E+02  0.53870259665E+03  0.62851872772E+03  0.81830019906E+02 0.  0.
         24    2    4    4    0    0  0.52556617532E+03 -0.26821078252E+03  0.28546499354E+03  0.66020608219E+03  0.78898541898E+02 0.  0.
         13    1    3    3    0    0 -0.12443345728E+03  0.22931057089E+03  0.26525245722E+03  0.37205629853E+03  0.00000000000E+00 0.  1.
        -13    1    3    3    0    0 -0.96458169380E+02  0.11178759523E+03  0.75415039919E+02  0.16579527476E+03  0.00000000000E+00 0. -1.
          2    1    6    6  502    0  0.32875290944E+03 -0.18987282019E+03  0.21855151136E+03  0.43805813134E+03  0.00000000000E+00 0. -1.
          1    1    5    5  503    0 -0.24992609800E+03 -0.87067877500E+02  0.47136754797E+03  0.54058416091E+03  0.00000000000E+00 0. -1.
         -2    1    5    5    0  503 -0.54748450666E+02  0.14180493898E+02  0.67335048687E+02  0.87934566805E+02  0.00000000000E+00 0.  1.
         -1    1    6    6    0  502  0.19681326588E+03 -0.78337962333E+02  0.66913482186E+02  0.22214795085E+03  0.00000000000E+00 0.  1.
<mgrwt>
<rscale>  0 0.14069614E+04</rscale>
<asrwt>0</asrwt>
<pdfrwt beam="1">  1        2 0.23010857E+00 0.14069614E+04</pdfrwt>
<pdfrwt beam="2">  1       -2 0.50903177E-01 0.14069614E+04</pdfrwt>
<totfact> 0.45292306E+01</totfact>
</mgrwt>
</event>
<event>
12    1  0.1556559E-007  0.1901131E+04  0.7818608E-02  0.8654294E-01
          2   -1    0    0  501    0  0.00000000000E+00  0.00000000000E+00  0.92744874604E+03  0.92744874604E+03  0.00000000000E+00 0. -1.
         -2   -1    0    0    0  501 -0.00000000000E+00 -0.00000000000E+00 -0.97425851911E+03  0.97425851911E+03  0.00000000000E+00 0.  1.
         23    2    1    2    0    0  0.68499673564E+03 -0.25571445941E+03  0.42250780177E+02  0.73802524600E+03  0.91025945272E+02 0.  0.
        254    2    1    2    0    0 -0.68499673564E+03  0.25571445941E+03 -0.89060553250E+02  0.11636820191E+04  0.90089602449E+03 0.  0.
        -24    2    4    4    0    0 -0.28396409979E+03  0.48733170178E+03 -0.30546929522E+03  0.64648505182E+03  0.80645113785E+02 0.  0.
         24    2    4    4    0    0 -0.40103263586E+03 -0.23161724237E+03  0.21640874197E+03  0.51719696733E+03  0.78652637754E+02 0.  0.
         11    1    3    3    0    0  0.41722143057E+03 -0.11471886796E+03  0.18234869314E+01  0.43270944743E+03  0.00000000000E+00 0.  1.
        -11    1    3    3    0    0  0.26777530508E+03 -0.14099559145E+03  0.40427293246E+02  0.30531579857E+03  0.00000000000E+00 0. -1.
          4    1    6    6  502    0 -0.25519087424E+03 -0.10910832273E+03  0.15002975549E+03  0.31549316303E+03  0.00000000000E+00 0. -1.
          1    1    5    5  503    0 -0.25547975812E+03  0.40616232243E+03 -0.28490129922E+03  0.55803807152E+03  0.00000000000E+00 0. -1.
         -2    1    5    5    0  503 -0.28484341672E+02  0.81169379353E+02 -0.20567995995E+02  0.88446980301E+02  0.00000000000E+00 0.  1.
         -3    1    6    6    0  502 -0.14584176161E+03 -0.12250891964E+03  0.66378986481E+02  0.20170380430E+03  0.00000000000E+00 0.  1.
<mgrwt>
<rscale>  0 0.19011311E+04</rscale>
<asrwt>0</asrwt>
<pdfrwt beam="1">  1        2 0.14268442E+00 0.19011311E+04</pdfrwt>
<pdfrwt beam="2">  1       -2 0.14988592E+00 0.19011311E+04</pdfrwt>
<totfact> 0.78992426E+00</totfact>
</mgrwt>
</event>
<event>
12    1  0.1556559E-007  0.1602317E+04  0.7818608E-02  0.8819126E-01
          2   -1    0    0  501    0  0.00000000000E+00  0.00000000000E+00  0.10347025381E+04  0.10347025381E+04  0.00000000000E+00 0.  1.
         -2   -1    0    0    0  501 -0.00000000000E+00 -0.00000000000E+00 -0.62032771252E+03  0.62032771252E+03  0.00000000000E+00 0. -1.
         23    2    1    2    0    0 -0.16778909591E+03 -0.14869410843E+03  0.65180045492E+03  0.69506658898E+03  0.89502019434E+02 0.  0.
        254    2    1    2    0    0  0.16778909591E+03  0.14869410843E+03 -0.23742562932E+03  0.95996366167E+03  0.90271600389E+03 0.  0.
        -24    2    4    4    0    0 -0.32572788719E+03  0.16552008878E+03 -0.26585606319E+03  0.45910005055E+03  0.81227173995E+02 0.  0.
         24    2    4    4    0    0  0.49351698311E+03 -0.16825980353E+02  0.28430433870E+02  0.50086361112E+03  0.78828555393E+02 0.  0.
         11    1    3    3    0    0 -0.17586012547E+03 -0.12936301241E+03  0.61655746259E+03  0.65406779265E+03  0.00000000000E+00 0.  1.
        -11    1    3    3    0    0  0.80710295517E+01 -0.19331096025E+02  0.35242992338E+02  0.40998796330E+02  0.00000000000E+00 0. -1.
          4    1    6    6  502    0  0.14369378998E+03  0.30036357701E+02  0.16371885030E+02  0.14770960253E+03  0.00000000000E+00 0. -1.
          3    1    5    5  503    0 -0.98307097993E+01 -0.67782891998E+01 -0.39895061509E+00  0.11947686857E+02  0.00000000000E+00 0. -1.
         -4    1    5    5    0  503 -0.31589717739E+03  0.17229837798E+03 -0.26545711258E+03  0.44715236370E+03  0.00000000000E+00 0.  1.
         -3    1    6    6    0  502  0.34982319313E+03 -0.46862338054E+02  0.12058548840E+02  0.35315400858E+03  0.00000000000E+00 0.  1.
<mgrwt>
<rscale>  0 0.16023166E+04</rscale>
<asrwt>0</asrwt>
<pdfrwt beam="1">  1        2 0.15918501E+00 0.16023166E+04</pdfrwt>
<pdfrwt beam="2">  1       -2 0.95435033E-01 0.16023166E+04</pdfrwt>
<totfact> 0.21164749E+01</totfact>
</mgrwt>
</event>
<event>
12    1  0.1556559E-007  0.1319755E+04  0.7818608E-02  0.9014044E-01
         -1   -1    0    0    0  501 -0.00000000000E+00  0.00000000000E+00  0.79990247679E+03  0.79990247679E+03  0.00000000000E+00 0.  1.
          1   -1    0    0  501    0  0.00000000000E+00 -0.00000000000E+00 -0.54436429723E+03  0.54436429723E+03  0.00000000000E+00 0. -1.
         23    2    1    2    0    0 -0.13000660001E+03 -0.19365190879E+03  0.33974828467E+03  0.42149449966E+03  0.88464334516E+02 0.  0.
        254    2    1    2    0    0  0.13000660001E+03  0.19365190879E+03 -0.84210105113E+02  0.92277227436E+03  0.88882762711E+03 0.  0.
        -24    2    4    4    0    0 -0.54671522395E+02 -0.31857519549E+03 -0.15697786053E+03  0.36826550922E+03  0.80612071290E+02 0.  0.
         24    2    4    4    0    0  0.18467812241E+03  0.51222710428E+03  0.72767755421E+02  0.55450676515E+03  0.75498285458E+02 0.  0.
         11    1    3    3    0    0 -0.13594681728E+03 -0.17610725854E+03  0.33538357637E+03  0.40246421821E+03  0.00000000000E+00 0.  1.
        -11    1    3    3    0    0  0.59402172717E+01 -0.17544650245E+02  0.43647083019E+01  0.19030281448E+02  0.00000000000E+00 0. -1.
          2    1    6    6  502    0 -0.40366556446E+01  0.18027157994E+02  0.11984919732E+02  0.22020701966E+02  0.00000000000E+00 0. -1.
          3    1    5    5  503    0 -0.32477032952E+02 -0.67853592881E+02 -0.76812830706E+01  0.75616597688E+02  0.00000000000E+00 0. -1.
         -4    1    5    5    0  503 -0.22194489443E+02 -0.25072160261E+03 -0.14929657746E+03  0.29264891153E+03  0.00000000000E+00 0.  1.
         -1    1    6    6    0  502  0.18871477805E+03  0.49419994629E+03  0.60782835689E+02  0.53248606318E+03  0.00000000000E+00 0.  1.
<mgrwt>
<rscale>  0 0.13197551E+04</rscale>
<asrwt>0</asrwt>
<pdfrwt beam="1">  1        1 0.83748353E-01 0.13197551E+04</pdfrwt>
<pdfrwt beam="2">  1       -1 0.12306192E+00 0.13197551E+04</pdfrwt>
<totfact> 0.22473559E+01</totfact>
</mgrwt>
</event>
<event>
12    1  0.1556559E-007  0.1198822E+04  0.7818608E-02  0.9113889E-01
         -2   -1    0    0    0  501 -0.00000000000E+00  0.00000000000E+00  0.22929392133E+03  0.22929392133E+03  0.00000000000E+00 0.  1.
          2   -1    0    0  501    0  0.00000000000E+00 -0.00000000000E+00 -0.15669553764E+04  0.15669553764E+04  0.00000000000E+00 0. -1.
         23    2    1    2    0    0  0.46468280575E+02  0.77481697320E+02 -0.66918361439E+03  0.68097856066E+03  0.88104346091E+02 0.  0.
        254    2    1    2    0    0 -0.46468280575E+02 -0.77481697320E+02 -0.66847784070E+03  0.11152707371E+04  0.88814609100E+03 0.  0.
        -24    2    4    4    0    0  0.36196135851E+03 -0.18053865961E+03 -0.14164587003E+03  0.43592247440E+03  0.79715861198E+02 0.  0.
         24    2    4    4    0    0 -0.40842963908E+03  0.10305696229E+03 -0.52683197067E+03  0.67934826268E+03  0.80787555492E+02 0.  0.
         11    1    3    3    0    0  0.33144119334E+02  0.80831262408E+02 -0.65647741910E+03  0.66226492238E+03  0.00000000000E+00 0. -1.
        -11    1    3    3    0    0  0.13324161241E+02 -0.33495650877E+01 -0.12706195285E+02  0.18713638280E+02  0.00000000000E+00 0.  1.
          4    1    6    6  502    0 -0.37761135030E+03  0.71097394050E+02 -0.47927448347E+03  0.61428755630E+03  0.00000000000E+00 0. -1.
          1    1    5    5  503    0  0.34763926001E+03 -0.15841375565E+03 -0.14643557554E+03  0.40913488102E+03  0.00000000000E+00 0. -1.
         -2    1    5    5    0  503  0.14322098496E+02 -0.22124903957E+02  0.47897055128E+01  0.26787593384E+02  0.00000000000E+00 0.  1.
         -3    1    6    6    0  502 -0.30818288781E+02  0.31959568242E+02 -0.47557487209E+02  0.65060706385E+02  0.00000000000E+00 0.  1.
<mgrwt>
<rscale>  0 0.11988217E+04</rscale>
<asrwt>0</asrwt>
<pdfrwt beam="1">  1        2 0.24107005E+00 0.11988217E+04</pdfrwt>
<pdfrwt beam="2">  1       -2 0.35275989E-01 0.11988217E+04</pdfrwt>
<totfact> 0.86624677E+01</totfact>
</mgrwt>
</event>
<event>
12    1  0.1556559E-007  0.1393772E+04  0.7818608E-02  0.8958339E-01
         -2   -1    0    0    0  501 -0.00000000000E+00  0.00000000000E+00  0.80102331554E+03  0.80102331554E+03  0.00000000000E+00 0.  1.
          2   -1    0    0  501    0  0.00000000000E+00 -0.00000000000E+00 -0.60628683560E+03  0.60628683560E+03  0.00000000000E+00 0. -1.
         23    2    1    2    0    0 -0.33374940073E+03 -0.52259248647E+02  0.25209735026E+03  0.43100575252E+03  0.89962176182E+02 0.  0.
        254    2    1    2    0    0  0.33374940073E+03  0.52259248647E+02 -0.57360870327E+02  0.97630439862E+03  0.91419927683E+03 0.  0.
        -24    2    4    4    0    0  0.25185283239E+03  0.46295747040E+03  0.52570593084E+02  0.53571942026E+03  0.80449744571E+02 0.  0.
         24    2    4    4    0    0  0.81896568343E+02 -0.41069822176E+03 -0.10993146341E+03  0.44058497836E+03  0.81548263309E+02 0.  0.
         11    1    3    3    0    0 -0.30996773314E+03 -0.21532985682E+02  0.22552710706E+03  0.38393507404E+03  0.00000000000E+00 0.  1.
        -11    1    3    3    0    0 -0.23781667593E+02 -0.30726262964E+02  0.26570243204E+02  0.47070678486E+02  0.00000000000E+00 0. -1.
          4    1    6    6  502    0  0.44599943876E+02 -0.67277043156E+02 -0.12608676074E+02  0.81696598717E+02  0.00000000000E+00 0. -1.
          1    1    5    5  503    0  0.23752912476E+02  0.68157685114E+02  0.32943143127E+02  0.79340541782E+02  0.00000000000E+00 0. -1.
         -2    1    5    5    0  503  0.22809991991E+03  0.39479978529E+03  0.19627449957E+02  0.45637887848E+03  0.00000000000E+00 0.  1.
         -3    1    6    6    0  502  0.37296624467E+02 -0.34342117860E+03 -0.97322787336E+02  0.35888837964E+03  0.00000000000E+00 0.  1.
<mgrwt>
<rscale>  0 0.13937717E+04</rscale>
<asrwt>0</asrwt>
<pdfrwt beam="1">  1        2 0.93274898E-01 0.13937717E+04</pdfrwt>
<pdfrwt beam="2">  1       -2 0.12323436E+00 0.13937717E+04</pdfrwt>
<totfact> 0.23689065E+01</totfact>
</mgrwt>
</event>
<event>
12    1  0.1556559E-007  0.1846418E+04  0.7818608E-02  0.8681997E-01
         -1   -1    0    0    0  501 -0.00000000000E+00  0.00000000000E+00  0.78516596801E+03  0.78516596801E+03  0.00000000000E+00 0.  1.
          1   -1    0    0  501    0  0.00000000000E+00 -0.00000000000E+00 -0.10855215090E+04  0.10855215090E+04  0.00000000000E+00 0. -1.
         23    2    1    2    0    0 -0.19172598458E+03 -0.64103930332E+03 -0.30740890096E+03  0.74180457828E+03  0.89908611439E+02 0.  0.
        254    2    1    2    0    0  0.19172598458E+03  0.64103930332E+03  0.70533599614E+01  0.11288828987E+04  0.90919558271E+03 0.  0.
        -24    2    4    4    0    0  0.43882716816E+03  0.53166692275E+03  0.26788927184E+03  0.74388980727E+03  0.79802149924E+02 0.  0.
         24    2    4    4    0    0 -0.24710118359E+03  0.10937238057E+03 -0.26083591188E+03  0.38499309147E+03  0.84634478752E+02 0.  0.
         11    1    3    3    0    0 -0.14332413964E+03 -0.51871397930E+03 -0.20813721333E+03  0.57699835432E+03  0.00000000000E+00 0. -1.
        -11    1    3    3    0    0 -0.48401844938E+02 -0.12232532402E+03 -0.99271687627E+02  0.16480622396E+03  0.00000000000E+00 0.  1.
          4    1    6    6  502    0 -0.21374364136E+03  0.58929695295E+02 -0.19130409817E+03  0.29284178525E+03  0.00000000000E+00 0. -1.
          1    1    5    5  503    0  0.32314346073E+03  0.38258858897E+03  0.15608107161E+03  0.52455412069E+03  0.00000000000E+00 0. -1.
         -2    1    5    5    0  503  0.11568370743E+03  0.14907833378E+03  0.11180820023E+03  0.21933568657E+03  0.00000000000E+00 0.  1.
         -3    1    6    6    0  502 -0.33357542221E+02  0.50442685275E+02 -0.69531813705E+02  0.92151306219E+02  0.00000000000E+00 0.  1.
<mgrwt>
<rscale>  0 0.18464177E+04</rscale>
<asrwt>0</asrwt>
<pdfrwt beam="1">  1        1 0.16700331E+00 0.18464177E+04</pdfrwt>
<pdfrwt beam="2">  1       -1 0.12079477E+00 0.18464177E+04</pdfrwt>
<totfact> 0.74448986E+00</totfact>
</mgrwt>
</event>
<event>
12    1  0.1556559E-007  0.1649719E+04  0.7818608E-02  0.8790573E-01
          2   -1    0    0  501    0  0.00000000000E+00  0.00000000000E+00  0.20803603379E+04  0.20803603379E+04  0.00000000000E+00 0. -1.
         -2   -1    0    0    0  501 -0.00000000000E+00 -0.00000000000E+00 -0.32705529024E+03  0.32705529024E+03  0.00000000000E+00 0.  1.
         23    2    1    2    0    0 -0.15907632709E+03  0.19029011878E+03 -0.13527803123E+03  0.29996403699E+03  0.10081007196E+03 0.  0.
        254    2    1    2    0    0  0.15907632709E+03 -0.19029011878E+03  0.18885830789E+04  0.21074515912E+04  0.90171534090E+03 0.  0.
        -24    2    4    4    0    0  0.28769150736E+03  0.11814971153E+03  0.18718015607E+03  0.37174456446E+03  0.80198831903E+02 0.  0.
         24    2    4    4    0    0 -0.12861518026E+03 -0.30843983031E+03  0.17014029228E+04  0.17357070267E+04  0.78930242621E+02 0.  0.
         11    1    3    3    0    0 -0.15100608941E+03  0.19036807086E+03 -0.98303743159E+02  0.26211918541E+03  0.00000000000E+00 0. -1.
        -11    1    3    3    0    0 -0.80702376845E+01 -0.77952080230E-01 -0.36974288070E+02  0.37844851580E+02  0.00000000000E+00 0.  1.
          4    1    6    6  502    0 -0.11073706335E+03 -0.21464871727E+03  0.13563674131E+04  0.13777043689E+04  0.00000000000E+00 0. -1.
          1    1    5    5  503    0  0.28138313716E+03  0.12818101324E+03  0.18218578199E+03  0.35888508076E+03  0.00000000000E+00 0. -1.
         -2    1    5    5    0  503  0.63083701942E+01 -0.10031301710E+02  0.49943740822E+01  0.12859483698E+02  0.00000000000E+00 0.  1.
         -3    1    6    6    0  502 -0.17878116917E+02 -0.93791113045E+02  0.34503550979E+03  0.35800265777E+03  0.00000000000E+00 0.  1.
<mgrwt>
<rscale>  0 0.16497186E+04</rscale>
<asrwt>0</asrwt>
<pdfrwt beam="1">  1        2 0.32005543E+00 0.16497186E+04</pdfrwt>
<pdfrwt beam="2">  1       -2 0.50316200E-01 0.16497186E+04</pdfrwt>
<totfact> 0.21513008E+01</totfact>
</mgrwt>
</event>
<event>
12    1  0.1556559E-007  0.2339648E+04  0.7818608E-02  0.8462450E-01
          1   -1    0    0  501    0  0.00000000000E+00  0.00000000000E+00  0.94101212081E+03  0.94101212081E+03  0.00000000000E+00 0. -1.
         -1   -1    0    0    0  501 -0.00000000000E+00 -0.00000000000E+00 -0.14542726810E+04  0.14542726810E+04  0.00000000000E+00 0.  1.
         23    2    1    2    0    0  0.41744775284E+03 -0.14884659976E+03 -0.11377209240E+04  0.12241754125E+04  0.88196389108E+02 0.  0.
        254    2    1    2    0    0 -0.41744775284E+03  0.14884659976E+03  0.62446036388E+03  0.11711093892E+04  0.88607478178E+03 0.  0.
        -24    2    4    4    0    0 -0.59898707514E+03  0.33966000899E+03  0.32922788650E+03  0.76747726494E+03  0.80473057985E+02 0.  0.
         24    2    4    4    0    0  0.18153932230E+03 -0.19081340923E+03  0.29523247738E+03  0.40363212430E+03  0.79939936123E+02 0.  0.
         13    1    3    3    0    0  0.35388811101E+03 -0.10353285840E+03 -0.86042198311E+03  0.93609926658E+03  0.00000000000E+00 0.  1.
        -13    1    3    3    0    0  0.63559641829E+02 -0.45313741364E+02 -0.27729894093E+03  0.28807614596E+03  0.00000000000E+00 0. -1.
          4    1    6    6  502    0  0.12821029040E+03 -0.11444340221E+03  0.24050560531E+03  0.29559789759E+03  0.00000000000E+00 0. -1.
          3    1    5    5  503    0 -0.53986815791E+03  0.28236120879E+03  0.30685155849E+03  0.68216080150E+03  0.00000000000E+00 0. -1.
         -4    1    5    5    0  503 -0.59118917222E+02  0.57298800201E+02  0.22376328005E+02  0.85316463435E+02  0.00000000000E+00 0.  1.
         -3    1    6    6    0  502  0.53329031896E+02 -0.76370007017E+02  0.54726872071E+02  0.10803422671E+03  0.00000000000E+00 0.  1.
<mgrwt>
<rscale>  0 0.23396480E+04</rscale>
<asrwt>0</asrwt>
<pdfrwt beam="1">  1        1 0.14477110E+00 0.23396480E+04</pdfrwt>
<pdfrwt beam="2">  1       -1 0.22373426E+00 0.23396480E+04</pdfrwt>
<totfact> 0.15771637E+00</totfact>
</mgrwt>
</event>
<event>
12    1  0.1556559E-007  0.1319223E+04  0.7818608E-02  0.9014458E-01
          2   -1    0    0  501    0  0.00000000000E+00  0.00000000000E+00  0.34053565822E+04  0.34053565822E+04  0.00000000000E+00 0. -1.
         -2   -1    0    0    0  501 -0.00000000000E+00 -0.00000000000E+00 -0.12776566182E+03  0.12776566182E+03  0.00000000000E+00 0.  1.
         23    2    1    2    0    0 -0.20574843827E+03 -0.44785209902E+02  0.16600123416E+04  0.16757340997E+04  0.90031458739E+02 0.  0.
        254    2    1    2    0    0  0.20574843827E+03  0.44785209902E+02  0.16175785787E+04  0.18573881443E+04  0.88825228703E+03 0.  0.
        -24    2    4    4    0    0 -0.20576287672E+03  0.29014556841E+03  0.37363651245E+03  0.52195358362E+03  0.79425988917E+02 0.  0.
         24    2    4    4    0    0  0.41151131500E+03 -0.24536035851E+03  0.12439420663E+04  0.13354345607E+04  0.80313969776E+02 0.  0.
         11    1    3    3    0    0 -0.48164557159E+02 -0.46674784494E+02  0.65726962209E+03  0.66068276517E+03  0.00000000000E+00 0. -1.
        -11    1    3    3    0    0 -0.15758388111E+03  0.18895745916E+01  0.10027427196E+04  0.10150513345E+04  0.00000000000E+00 0.  1.
          2    1    6    6  502    0  0.28257716510E+03 -0.21008327119E+03  0.90402241935E+03  0.97017594783E+03  0.00000000000E+00 0. -1.
          3    1    5    5  503    0 -0.17897496713E+03  0.27497438767E+03  0.36320285937E+03  0.48944792347E+03  0.00000000000E+00 0. -1.
         -4    1    5    5    0  503 -0.26787909590E+02  0.15171180735E+02  0.10433653078E+02  0.32505660148E+02  0.00000000000E+00 0.  1.
         -1    1    6    6    0  502  0.12893414990E+03 -0.35277087314E+02  0.33991964693E+03  0.36525861286E+03  0.00000000000E+00 0.  1.
<mgrwt>
<rscale>  0 0.13192235E+04</rscale>
<asrwt>0</asrwt>
<pdfrwt beam="1">  1        2 0.52390094E+00 0.13192235E+04</pdfrwt>
<pdfrwt beam="2">  1       -2 0.19656258E-01 0.13192235E+04</pdfrwt>
<totfact> 0.20766782E+01</totfact>
</mgrwt>
</event>
<event>
12    1  0.1556559E-007  0.1814863E+04  0.7818608E-02  0.8698435E-01
         -2   -1    0    0    0  501 -0.00000000000E+00  0.00000000000E+00  0.50332823876E+03  0.50332823876E+03  0.00000000000E+00 0. -1.
          2   -1    0    0  501    0  0.00000000000E+00 -0.00000000000E+00 -0.16359732146E+04  0.16359732146E+04  0.00000000000E+00 0.  1.
         23    2    1    2    0    0 -0.66683592194E+02 -0.59762051607E+03 -0.60208235506E+02  0.61127464733E+03  0.91840514721E+02 0.  0.
        254    2    1    2    0    0  0.66683592194E+02  0.59762051607E+03 -0.10724367403E+04  0.15280268060E+04  0.90727524778E+03 0.  0.
        -24    2    4    4    0    0  0.56336442447E+02  0.30656058853E+02 -0.93323285287E+03  0.93876017048E+03  0.78952589035E+02 0.  0.
         24    2    4    4    0    0  0.10347149747E+02  0.56696445722E+03 -0.13920388745E+03  0.58926663555E+03  0.79383160832E+02 0.  0.
         13    1    3    3    0    0  0.12487386867E+02 -0.12713814433E+02 -0.46983569571E+01  0.18429608414E+02  0.00000000000E+00 0. -1.
        -13    1    3    3    0    0 -0.79170979061E+02 -0.58490670164E+03 -0.55509878549E+02  0.59284503892E+03  0.00000000000E+00 0.  1.
          4    1    6    6  502    0  0.42880626213E+02  0.40453175051E+03 -0.10463561854E+03  0.42003963854E+03  0.00000000000E+00 0. -1.
          1    1    5    5  503    0  0.63801444585E+02  0.41622626061E+02 -0.89603727628E+03  0.89926963020E+03  0.00000000000E+00 0. -1.
         -2    1    5    5    0  503 -0.74650021382E+01 -0.10966567209E+02 -0.37195576594E+02  0.39490540278E+02  0.00000000000E+00 0.  1.
         -3    1    6    6    0  502 -0.32533476466E+02  0.16243270671E+03 -0.34568268917E+02  0.16922699701E+03  0.00000000000E+00 0.  1.
<mgrwt>
<rscale>  0 0.18148625E+04</rscale>
<asrwt>0</asrwt>
<pdfrwt beam="1">  1        2 0.25168819E+00 0.18148625E+04</pdfrwt>
<pdfrwt beam="2">  1       -2 0.77435114E-01 0.18148625E+04</pdfrwt>
<totfact> 0.14929212E+01</totfact>
</mgrwt>
</event>
<event>
12    1  0.1556559E-007  0.1794013E+04  0.7818608E-02  0.8709490E-01
          2   -1    0    0  501    0  0.00000000000E+00  0.00000000000E+00  0.11875827299E+04  0.11875827299E+04  0.00000000000E+00 0. -1.
         -2   -1    0    0    0  501 -0.00000000000E+00 -0.00000000000E+00 -0.67752821973E+03  0.67752821973E+03  0.00000000000E+00 0.  1.
         23    2    1    2    0    0 -0.10144830321E+03 -0.64877139070E+03  0.27146075336E+03  0.71629452164E+03  0.90503179547E+02 0.  0.
        254    2    1    2    0    0  0.10144830321E+03  0.64877139070E+03  0.23859375679E+03  0.11488164280E+04  0.91195182372E+03 0.  0.
        -24    2    4    4    0    0  0.45845390776E+02  0.63274354998E+03 -0.22220121394E+03  0.67709717370E+03  0.81369547459E+02 0.  0.
         24    2    4    4    0    0  0.55602912430E+02  0.16027840713E+02  0.46079497072E+03  0.47171925427E+03  0.82695067939E+02 0.  0.
         11    1    3    3    0    0 -0.78940004916E+02 -0.24515791597E+03  0.85921055353E+02  0.27150756139E+03  0.00000000000E+00 0. -1.
        -11    1    3    3    0    0 -0.22508298290E+02 -0.40361347473E+03  0.18553969801E+03  0.44478696025E+03  0.00000000000E+00 0.  1.
          4    1    6    6  502    0 -0.79908735972E+01 -0.12332597973E+02  0.23435256336E+03  0.23481284247E+03  0.00000000000E+00 0. -1.
          3    1    5    5  503    0  0.51779651658E+02  0.21254427727E+03 -0.90020444676E+02  0.23655841263E+03  0.00000000000E+00 0. -1.
         -4    1    5    5    0  503 -0.59342608828E+01  0.42019927272E+03 -0.13218076926E+03  0.44053876107E+03  0.00000000000E+00 0.  1.
         -3    1    6    6    0  502  0.63593786028E+02  0.28360438686E+02  0.22644240736E+03  0.23690641181E+03  0.00000000000E+00 0.  1.
<mgrwt>
<rscale>  0 0.17940132E+04</rscale>
<asrwt>0</asrwt>
<pdfrwt beam="1">  1        2 0.18270504E+00 0.17940132E+04</pdfrwt>
<pdfrwt beam="2">  1       -2 0.10423511E+00 0.17940132E+04</pdfrwt>
<totfact> 0.13617350E+01</totfact>
</mgrwt>
</event>
<event>
12    1  0.1556559E-007  0.1470329E+04  0.7818608E-02  0.8904427E-01
         -2   -1    0    0    0  501 -0.00000000000E+00  0.00000000000E+00  0.20856689872E+04  0.20856689872E+04  0.00000000000E+00 0.  1.
          2   -1    0    0  501    0  0.00000000000E+00 -0.00000000000E+00 -0.25913362818E+03  0.25913362818E+03  0.00000000000E+00 0. -1.
         23    2    1    2    0    0 -0.96842091879E-01 -0.27980055864E+03  0.12116425819E+04  0.12468214692E+04  0.90540973534E+02 0.  0.
        254    2    1    2    0    0  0.96842091879E-01  0.27980055864E+03  0.61489277712E+03  0.10979811461E+04  0.86555248711E+03 0.  0.
        -24    2    4    4    0    0 -0.11075200558E+03  0.43095233718E+03  0.73389488182E+03  0.86241269809E+03  0.84664281811E+02 0.  0.
         24    2    4    4    0    0  0.11084884767E+03 -0.15115177854E+03 -0.11900210469E+03  0.23556844805E+03  0.78718902511E+02 0.  0.
         13    1    3    3    0    0 -0.10991561868E+01 -0.28540035511E+03  0.12035689222E+04  0.12369449144E+04  0.00000000000E+00 0.  1.
        -13    1    3    3    0    0  0.10023140949E+01  0.55997964694E+01  0.80736597126E+01  0.98765548244E+01  0.00000000000E+00 0. -1.
          4    1    6    6  502    0  0.22105956590E+02  0.28470060500E+01 -0.28303934802E+02  0.36026261053E+02  0.00000000000E+00 0. -1.
          3    1    5    5  503    0 -0.20559184046E+02  0.92715963042E+02  0.97575056744E+02  0.13616101333E+03  0.00000000000E+00 0. -1.
         -2    1    5    5    0  503 -0.90192821533E+02  0.33823637414E+03  0.63631982507E+03  0.72625168477E+03  0.00000000000E+00 0.  1.
         -3    1    6    6    0  502  0.88742891081E+02 -0.15399878459E+03 -0.90698169891E+02  0.19954218700E+03  0.00000000000E+00 0.  1.
<mgrwt>
<rscale>  0 0.14703292E+04</rscale>
<asrwt>0</asrwt>
<pdfrwt beam="1">  1        2 0.39866713E-01 0.14703292E+04</pdfrwt>
<pdfrwt beam="2">  1       -2 0.32087214E+00 0.14703292E+04</pdfrwt>
<totfact> 0.29773552E+00</totfact>
</mgrwt>
</event>
<event>
12    1  0.1556559E-007  0.1273965E+04  0.7818608E-02  0.9050470E-01
         -2   -1    0    0    0  501 -0.00000000000E+00  0.00000000000E+00  0.15460801473E+03  0.15460801473E+03  0.00000000000E+00 0. -1.
          2   -1    0    0  501    0  0.00000000000E+00 -0.00000000000E+00 -0.26243556431E+04  0.26243556431E+04  0.00000000000E+00 0.  1.
         23    2    1    2    0    0 -0.19859832563E+03  0.15698315077E+03 -0.10191709872E+04  0.10542001442E+04  0.92430721392E+02 0.  0.
        254    2    1    2    0    0  0.19859832563E+03 -0.15698315077E+03 -0.14505766412E+04  0.17247635137E+04  0.89808216861E+03 0.  0.
        -24    2    4    4    0    0 -0.13880270556E+03 -0.37945542121E+03 -0.11292545299E+04  0.12020903274E+04  0.80949083178E+02 0.  0.
         24    2    4    4    0    0  0.33740103120E+03  0.22247227044E+03 -0.32132211126E+03  0.52267318630E+03  0.81277263266E+02 0.  0.
         11    1    3    3    0    0 -0.16142993507E+03  0.10174492237E+03 -0.59538017893E+03  0.62521133277E+03  0.00000000000E+00 0.  1.
        -11    1    3    3    0    0 -0.37168390564E+02  0.55238228405E+02 -0.42379080827E+03  0.42898881140E+03  0.00000000000E+00 0. -1.
          4    1    6    6  502    0  0.16499875650E+03  0.10681943069E+03 -0.20790612882E+03  0.28611175931E+03  0.00000000000E+00 0. -1.
          3    1    5    5  503    0 -0.51990290233E+02 -0.77901746758E+02 -0.19052489179E+03  0.21230027512E+03  0.00000000000E+00 0. -1.
         -4    1    5    5    0  503 -0.86812415330E+02 -0.30155367445E+03 -0.93872963811E+03  0.98979005223E+03  0.00000000000E+00 0.  1.
         -3    1    6    6    0  502  0.17240227470E+03  0.11565283974E+03 -0.11341598244E+03  0.23656142698E+03  0.00000000000E+00 0.  1.
<mgrwt>
<rscale>  0 0.12739645E+04</rscale>
<asrwt>0</asrwt>
<pdfrwt beam="1">  1        2 0.40374699E+00 0.12739645E+04</pdfrwt>
<pdfrwt beam="2">  1       -2 0.23785850E-01 0.12739645E+04</pdfrwt>
<totfact> 0.45686597E+01</totfact>
</mgrwt>
</event>
<event>
12    1  0.1556559E-007  0.1271480E+04  0.7818608E-02  0.9052493E-01
         -2   -1    0    0    0  501 -0.00000000000E+00  0.00000000000E+00  0.22377781010E+03  0.22377781010E+03  0.00000000000E+00 0.  1.
          2   -1    0    0  501    0  0.00000000000E+00 -0.00000000000E+00 -0.18061009683E+04  0.18061009683E+04  0.00000000000E+00 0. -1.
         23    2    1    2    0    0 -0.24504783187E+03  0.11637828890E+03 -0.18129961560E+03  0.33859644135E+03  0.90474601100E+02 0.  0.
        254    2    1    2    0    0  0.24504783187E+03 -0.11637828890E+03 -0.14010235426E+04  0.16912823371E+04  0.90773158517E+03 0.  0.
        -24    2    4    4    0    0 -0.33725782463E+03 -0.58410957889E+01 -0.46350793508E+03  0.57877025637E+03  0.79739858924E+02 0.  0.
         24    2    4    4    0    0  0.58230565651E+03 -0.11053719311E+03 -0.93751560756E+03  0.11125120807E+04  0.86309134435E+02 0.  0.
         13    1    3    3    0    0 -0.18732483852E+02 -0.15236610537E+02 -0.16384468256E+02  0.29180662295E+02  0.00000000000E+00 0. -1.
        -13    1    3    3    0    0 -0.22631534802E+03  0.13161489944E+03 -0.16491514734E+03  0.30941577905E+03  0.00000000000E+00 0.  1.
          4    1    6    6  502    0  0.43336530203E+03 -0.47917532273E+02 -0.71659241537E+03  0.83881241328E+03  0.00000000000E+00 0. -1.
          1    1    5    5  503    0 -0.25485829984E+03  0.30200950590E+02 -0.34005511225E+03  0.42603090238E+03  0.00000000000E+00 0. -1.
         -2    1    5    5    0  503 -0.82399524790E+02 -0.36042046379E+02 -0.12345282283E+03  0.15273935399E+03  0.00000000000E+00 0.  1.
         -3    1    6    6    0  502  0.14894035448E+03 -0.62619660838E+02 -0.22092319219E+03  0.27369966745E+03  0.00000000000E+00 0.  1.
<mgrwt>
<rscale>  0 0.12714800E+04</rscale>
<asrwt>0</asrwt>
<pdfrwt beam="1">  1        2 0.27786168E+00 0.12714800E+04</pdfrwt>
<pdfrwt beam="2">  1       -2 0.34427356E-01 0.12714800E+04</pdfrwt>
<totfact> 0.66488538E+01</totfact>
</mgrwt>
</event>
<event>
12    1  0.1556559E-007  0.1630482E+04  0.7818608E-02  0.8802037E-01
          1   -1    0    0  501    0  0.00000000000E+00  0.00000000000E+00  0.69006147512E+03  0.69006147512E+03  0.00000000000E+00 0. -1.
         -1   -1    0    0    0  501 -0.00000000000E+00 -0.00000000000E+00 -0.96312898952E+03  0.96312898952E+03  0.00000000000E+00 0.  1.
         23    2    1    2    0    0  0.24958089939E+03 -0.83543271026E+02  0.40846155542E+03  0.49416415295E+03  0.89929218448E+02 0.  0.
        254    2    1    2    0    0 -0.24958089939E+03  0.83543271026E+02 -0.68152906981E+03  0.11590263117E+04  0.89977220157E+03 0.  0.
        -24    2    4    4    0    0  0.19322630830E+03  0.27999940830E+03 -0.37995739549E+02  0.34943483504E+03  0.70178008312E+02 0.  0.
         24    2    4    4    0    0 -0.44280720769E+03 -0.19645613728E+03 -0.64353333026E+03  0.80959147665E+03  0.81424657505E+02 0.  0.
         13    1    3    3    0    0  0.35049215026E+02  0.12515667564E+01  0.15169342967E+02  0.38211554003E+02  0.00000000000E+00 0.  1.
        -13    1    3    3    0    0  0.21453168436E+03 -0.84794837782E+02  0.39329221245E+03  0.45595259894E+03  0.00000000000E+00 0. -1.
          4    1    6    6  502    0 -0.42140206611E+03 -0.17764767729E+03 -0.62879833733E+03  0.77751253854E+03  0.00000000000E+00 0. -1.
          3    1    5    5  503    0  0.15543725660E+03  0.20642126529E+03  0.25488264035E-01  0.25839984550E+03  0.00000000000E+00 0. -1.
         -4    1    5    5    0  503  0.37789051695E+02  0.73578143013E+02 -0.38021227813E+02  0.91034989546E+02  0.00000000000E+00 0.  1.
         -3    1    6    6    0  502 -0.21405141579E+02 -0.18808459989E+02 -0.14734992935E+02  0.32078938106E+02  0.00000000000E+00 0.  1.
<mgrwt>
<rscale>  0 0.16304824E+04</rscale>
<asrwt>0</asrwt>
<pdfrwt beam="1">  1        1 0.10616330E+00 0.16304824E+04</pdfrwt>
<pdfrwt beam="2">  1       -1 0.14817369E+00 0.16304824E+04</pdfrwt>
<totfact> 0.96104870E+00</totfact>
</mgrwt>
</event>
<event>
12    1  0.1556559E-007  0.1760282E+04  0.7818608E-02  0.8727711E-01
          2   -1    0    0  501    0  0.00000000000E+00  0.00000000000E+00  0.17204655560E+04  0.17204655560E+04  0.00000000000E+00 0. -1.
         -2   -1    0    0    0  501 -0.00000000000E+00 -0.00000000000E+00 -0.45025517765E+03  0.45025517765E+03  0.00000000000E+00 0.  1.
         23    2    1    2    0    0 -0.92425404870E+02 -0.59392080046E+03  0.16785424630E+03  0.63107043929E+03  0.93757552563E+02 0.  0.
        254    2    1    2    0    0  0.92425404870E+02  0.59392080046E+03  0.11023561320E+04  0.15396502943E+04  0.89109461581E+03 0.  0.
        -24    2    4    4    0    0 -0.14223365117E+03  0.15011537976E+03  0.99562052394E+03  0.10200670714E+04  0.80694260229E+02 0.  0.
         24    2    4    4    0    0  0.23465905604E+03  0.44380542071E+03  0.10673560809E+03  0.51958322296E+03  0.80908043623E+02 0.  0.
         13    1    3    3    0    0 -0.77276007675E+02 -0.56068224787E+03  0.13481535509E+03  0.58181727751E+03  0.00000000000E+00 0.  1.
        -13    1    3    3    0    0 -0.15149397195E+02 -0.33238552595E+02  0.33038891205E+02  0.49253161788E+02  0.00000000000E+00 0. -1.
          2    1    6    6  502    0  0.16389895206E+03  0.37213131271E+03  0.99396276738E+02  0.41859789801E+03  0.00000000000E+00 0. -1.
          1    1    5    5  503    0 -0.13707717650E+02  0.37655224662E+02  0.34827895323E+03  0.35057673444E+03  0.00000000000E+00 0. -1.
         -2    1    5    5    0  503 -0.12852593352E+03  0.11246015510E+03  0.64734157071E+03  0.66949033693E+03  0.00000000000E+00 0.  1.
         -1    1    6    6    0  502  0.70760103980E+02  0.71674107994E+02  0.73393313519E+01  0.10098532496E+03  0.00000000000E+00 0.  1.
<mgrwt>
<rscale>  0 0.17602824E+04</rscale>
<asrwt>0</asrwt>
<pdfrwt beam="1">  1        2 0.26468701E+00 0.17602824E+04</pdfrwt>
<pdfrwt beam="2">  1       -2 0.69270028E-01 0.17602824E+04</pdfrwt>
<totfact> 0.17205780E+01</totfact>
</mgrwt>
</event>
<event>
12    1  0.1556559E-007  0.2550628E+04  0.7818608E-02  0.8385168E-01
         -2   -1    0    0    0  501 -0.00000000000E+00  0.00000000000E+00  0.33731347747E+03  0.33731347747E+03  0.00000000000E+00 0.  1.
          2   -1    0    0  501    0  0.00000000000E+00 -0.00000000000E+00 -0.48217029934E+04  0.48217029934E+04  0.00000000000E+00 0. -1.
         23    2    1    2    0    0 -0.91818605545E+03 -0.21971423861E+03 -0.77057069135E+03  0.12222294571E+04  0.93411329219E+02 0.  0.
        254    2    1    2    0    0  0.91818605545E+03  0.21971423861E+03 -0.37138188245E+04  0.39367870137E+04  0.90249750734E+03 0.  0.
        -24    2    4    4    0    0  0.27071719049E+03  0.36041274674E+03 -0.61331256522E+03  0.76522218252E+03  0.78914768735E+02 0.  0.
         24    2    4    4    0    0  0.64746886496E+03 -0.14069850813E+03 -0.31005062593E+04  0.31715648312E+04  0.81684840009E+02 0.  0.
         13    1    3    3    0    0 -0.43443711263E+03 -0.11266932805E+03 -0.30733440111E+03  0.54395258655E+03  0.00000000000E+00 0. -1.
        -13    1    3    3    0    0 -0.48374894282E+03 -0.10704491057E+03 -0.46323629025E+03  0.67827687058E+03  0.00000000000E+00 0.  1.
          2    1    6    6  502    0  0.25734605730E+03 -0.55856245373E+02 -0.10470685974E+04  0.10796756740E+04  0.00000000000E+00 0. -1.
          1    1    5    5  503    0  0.16448381467E+03  0.27380175738E+03 -0.40377400120E+03  0.51483567444E+03  0.00000000000E+00 0. -1.
         -2    1    5    5    0  503  0.10623337582E+03  0.86610989361E+02 -0.20953856403E+03  0.25038650808E+03  0.00000000000E+00 0.  1.
         -3    1    6    6    0  502  0.39012280766E+03 -0.84842262755E+02 -0.20534376619E+04  0.20918891572E+04  0.00000000000E+00 0.  1.
<mgrwt>
<rscale>  0 0.25506277E+04</rscale>
<asrwt>0</asrwt>
<pdfrwt beam="1">  1        2 0.74180043E+00 0.25506277E+04</pdfrwt>
<pdfrwt beam="2">  1       -2 0.51894384E-01 0.25506277E+04</pdfrwt>
<totfact> 0.17637496E-01</totfact>
</mgrwt>
</event>
<event>
12    1  0.1556559E-007  0.1045423E+04  0.7818608E-02  0.9260082E-01
         -1   -1    0    0    0  501 -0.00000000000E+00  0.00000000000E+00  0.80529207868E+02  0.80529207868E+02  0.00000000000E+00 0.  1.
          1   -1    0    0  501    0  0.00000000000E+00 -0.00000000000E+00 -0.33928990713E+04  0.33928990713E+04  0.00000000000E+00 0. -1.
         23    2    1    2    0    0  0.28303077556E+02  0.93370847009E+02 -0.27160561437E+03  0.30196671413E+03  0.88854416974E+02 0.  0.
        254    2    1    2    0    0 -0.28303077556E+02 -0.93370847009E+02 -0.30407642491E+04  0.31714615650E+04  0.89576897739E+03 0.  0.
        -24    2    4    4    0    0 -0.14709423468E+03 -0.19315814663E+03 -0.19894869881E+03  0.32430543924E+03  0.81526987420E+02 0.  0.
         24    2    4    4    0    0  0.11879115713E+03  0.99787299619E+02 -0.28418155502E+04  0.28471561258E+04  0.79457780159E+02 0.  0.
         11    1    3    3    0    0  0.20614644396E+02 -0.59264018411E+01 -0.11049696063E+03  0.11255960248E+03  0.00000000000E+00 0. -1.
        -11    1    3    3    0    0  0.76884331608E+01  0.99297248850E+02 -0.16110865374E+03  0.18940711165E+03  0.00000000000E+00 0.  1.
          4    1    6    6  502    0  0.72092071004E+02  0.66738672800E+02 -0.23450843953E+04  0.23471412693E+04  0.00000000000E+00 0. -1.
          3    1    5    5  503    0 -0.14573120791E+03 -0.16183643858E+03 -0.14413132775E+03  0.26115600213E+03  0.00000000000E+00 0. -1.
         -4    1    5    5    0  503 -0.13630267718E+01 -0.31321708051E+02 -0.54817371064E+02  0.63149437112E+02  0.00000000000E+00 0.  1.
         -3    1    6    6    0  502  0.46699086122E+02  0.33048626819E+02 -0.49673115497E+03  0.50001485648E+03  0.00000000000E+00 0.  1.
<mgrwt>
<rscale>  0 0.10454233E+04</rscale>
<asrwt>0</asrwt>
<pdfrwt beam="1">  1        1 0.52198446E+00 0.10454233E+04</pdfrwt>
<pdfrwt beam="2">  1       -1 0.12389109E-01 0.10454233E+04</pdfrwt>
<totfact> 0.13986575E+01</totfact>
</mgrwt>
</event>
<event>
12    1  0.1556559E-007  0.2257843E+04  0.7818608E-02  0.8494731E-01
          2   -1    0    0  501    0  0.00000000000E+00  0.00000000000E+00  0.63737572121E+03  0.63737572121E+03  0.00000000000E+00 0. -1.
         -2   -1    0    0    0  501 -0.00000000000E+00 -0.00000000000E+00 -0.19995478359E+04  0.19995478359E+04  0.00000000000E+00 0.  1.
         23    2    1    2    0    0 -0.36783535467E+02  0.63991388039E+03  0.24166821644E+03  0.69154634107E+03  0.94815674979E+02 0.  0.
        254    2    1    2    0    0  0.36783535467E+02 -0.63991388039E+03 -0.16038403312E+04  0.19453772161E+04  0.89517925696E+03 0.  0.
        -24    2    4    4    0    0  0.18963498515E+03 -0.79083913168E+03 -0.14642126362E+04  0.16768398991E+04  0.80532250764E+02 0.  0.
         24    2    4    4    0    0 -0.15285144968E+03  0.15092525130E+03 -0.13962769495E+03  0.26853731695E+03  0.80463657914E+02 0.  0.
         13    1    3    3    0    0 -0.21207177696E+02  0.52081659652E+02  0.43222970677E+02  0.70925798213E+02  0.00000000000E+00 0.  1.
        -13    1    3    3    0    0 -0.15576357771E+02  0.58783222073E+03  0.19844524577E+03  0.62062054286E+03  0.00000000000E+00 0. -1.
          2    1    6    6  502    0 -0.14598710920E+03  0.97704398870E+02 -0.10943600069E+03  0.20696527210E+03  0.00000000000E+00 0. -1.
          3    1    5    5  503    0  0.18925629702E+03 -0.67539119026E+03 -0.12389606227E+04  0.14237256163E+04  0.00000000000E+00 0. -1.
         -4    1    5    5    0  503  0.37868812861E+00 -0.11544794143E+03 -0.22525201348E+03  0.25311428281E+03  0.00000000000E+00 0.  1.
         -1    1    6    6    0  502 -0.68643404865E+01  0.53220852428E+02 -0.30191694262E+02  0.61572044841E+02  0.00000000000E+00 0.  1.
<mgrwt>
<rscale>  0 0.22578425E+04</rscale>
<asrwt>0</asrwt>
<pdfrwt beam="1">  1        2 0.98057804E-01 0.22578425E+04</pdfrwt>
<pdfrwt beam="2">  1       -2 0.30762274E+00 0.22578425E+04</pdfrwt>
<totfact> 0.11967115E+00</totfact>
</mgrwt>
</event>
<event>
12    1  0.1556559E-007  0.1915726E+04  0.7818608E-02  0.8647068E-01
          1   -1    0    0  501    0  0.00000000000E+00  0.00000000000E+00  0.20450565994E+04  0.20450565994E+04  0.00000000000E+00 0. -1.
         -1   -1    0    0    0  501 -0.00000000000E+00 -0.00000000000E+00 -0.44864380874E+03  0.44864380874E+03  0.00000000000E+00 0.  1.
         23    2    1    2    0    0 -0.69435381557E+02  0.72425095108E+03  0.80860048486E+03  0.10917419080E+04  0.93300253151E+02 0.  0.
        254    2    1    2    0    0  0.69435381557E+02 -0.72425095108E+03  0.78781230576E+03  0.14019585001E+04  0.90303858973E+03 0.  0.
        -24    2    4    4    0    0  0.22722832044E+03  0.10925373166E+03  0.36474321078E+03  0.45065084584E+03  0.80495264183E+02 0.  0.
         24    2    4    4    0    0 -0.15779293888E+03 -0.83350468274E+03  0.42306909498E+03  0.95130765426E+03  0.79813070400E+02 0.  0.
         11    1    3    3    0    0  0.21159451424E+02  0.23425664973E+03  0.25550602516E+03  0.34728551542E+03  0.00000000000E+00 0.  1.
        -11    1    3    3    0    0 -0.90594832981E+02  0.48999430135E+03  0.55309445970E+03  0.74445639260E+03  0.00000000000E+00 0. -1.
          2    1    6    6  502    0 -0.40892204072E+02 -0.40880690022E+03  0.18470043671E+03  0.45045477614E+03  0.00000000000E+00 0. -1.
          3    1    5    5  503    0  0.78890093313E+02  0.32147850435E+00  0.86742711250E+02  0.11725207088E+03  0.00000000000E+00 0. -1.
         -4    1    5    5    0  503  0.14833822713E+03  0.10893225316E+03  0.27800049953E+03  0.33339877496E+03  0.00000000000E+00 0.  1.
         -1    1    6    6    0  502 -0.11690073481E+03 -0.42469778252E+03  0.23836865827E+03  0.50085287812E+03  0.00000000000E+00 0.  1.
<mgrwt>
<rscale>  0 0.19157265E+04</rscale>
<asrwt>0</asrwt>
<pdfrwt beam="1">  1        1 0.31462409E+00 0.19157265E+04</pdfrwt>
<pdfrwt beam="2">  1       -1 0.69022126E-01 0.19157265E+04</pdfrwt>
<totfact> 0.55111553E+00</totfact>
</mgrwt>
</event>
<event>
12    1  0.1556559E-007  0.1277483E+04  0.7818608E-02  0.9047615E-01
          2   -1    0    0  501    0  0.00000000000E+00  0.00000000000E+00  0.12932713889E+04  0.12932713889E+04  0.00000000000E+00 0. -1.
         -2   -1    0    0    0  501 -0.00000000000E+00 -0.00000000000E+00 -0.31547168959E+03  0.31547168959E+03  0.00000000000E+00 0.  1.
         23    2    1    2    0    0 -0.16978676894E+03  0.21933833417E+03  0.72842691711E+02  0.30088794406E+03  0.91052981273E+02 0.  0.
        254    2    1    2    0    0  0.16978676894E+03 -0.21933833417E+03  0.90495700758E+03  0.13078551344E+04  0.90255250003E+03 0.  0.
        -24    2    4    4    0    0 -0.12679061394E+03  0.29902866861E+03  0.24682941330E+03  0.41558304667E+03  0.79312703750E+02 0.  0.
         24    2    4    4    0    0  0.29657738288E+03 -0.51836700279E+03  0.65812759428E+03  0.89227208774E+03  0.79718596330E+02 0.  0.
         13    1    3    3    0    0 -0.12211507840E+02  0.35256729056E+02 -0.18853651694E+02  0.41804521880E+02  0.00000000000E+00 0. -1.
        -13    1    3    3    0    0 -0.15757526110E+03  0.18408160512E+03  0.91696343405E+02  0.25908342218E+03  0.00000000000E+00 0.  1.
          2    1    6    6  502    0  0.18622751504E+03 -0.24565315938E+03  0.33085734742E+03  0.45220874208E+03  0.00000000000E+00 0. -1.
          1    1    5    5  503    0 -0.12492838792E+03  0.25348071953E+03  0.23729611864E+03  0.36901087410E+03  0.00000000000E+00 0. -1.
         -2    1    5    5    0  503 -0.18622260209E+01  0.45547949078E+02  0.95332946618E+01  0.46572172572E+02  0.00000000000E+00 0.  1.
         -1    1    6    6    0  502  0.11034986784E+03 -0.27271384341E+03  0.32727024686E+03  0.44006334566E+03  0.00000000000E+00 0.  1.
<mgrwt>
<rscale>  0 0.12774827E+04</rscale>
<asrwt>0</asrwt>
<pdfrwt beam="1">  1        2 0.19896483E+00 0.12774827E+04</pdfrwt>
<pdfrwt beam="2">  1       -2 0.48534107E-01 0.12774827E+04</pdfrwt>
<totfact> 0.65823804E+01</totfact>
</mgrwt>
</event>
<event>
12    1  0.1919559E-007  0.2071111E+04  0.7818608E-02  0.8574077E-01
          1   -1    0    0  501    0  0.00000000000E+00  0.00000000000E+00  0.19477402393E+04  0.19477402393E+04  0.00000000000E+00 0. -1.
         -1   -1    0    0    0  501 -0.00000000000E+00 -0.00000000000E+00 -0.55057421939E+03  0.55057421939E+03  0.00000000000E+00 0.  1.
         23    2    1    2    0    0 -0.74632145247E+03 -0.37634826132E+03  0.46911327811E+03  0.96239090705E+03  0.86575204664E+02 0.  0.
        254    2    1    2    0    0  0.74632145247E+03  0.37634826132E+03  0.92805274182E+03  0.15359235517E+04  0.89394940614E+03 0.  0.
        -24    2    4    4    0    0  0.74961716983E+03  0.54336856349E+03  0.97345814771E+03  0.13457637873E+04  0.79272370162E+02 0.  0.
         24    2    4    4    0    0 -0.32957173585E+01 -0.16702030217E+03 -0.45405405890E+02  0.19015976440E+03  0.78692070897E+02 0.  0.
         13    1    3    3    0    0 -0.11057976877E+03 -0.39016827148E+02  0.37105700648E+02  0.12299199601E+03  0.00000000000E+00 0. -1.
        -13    1    3    3    0    0 -0.63574168370E+03 -0.33733143417E+03  0.43200757746E+03  0.83939891104E+03  0.00000000000E+00 0.  1.
          2    1    6    6  502    0 -0.61725578376E+01 -0.17451923676E+03 -0.48981606701E+02  0.18136775420E+03  0.00000000000E+00 0. -1.
          3    1    5    5  503    0  0.53223854467E+03  0.42008258423E+03  0.67943626865E+03  0.95988587299E+03  0.00000000000E+00 0. -1.
         -4    1    5    5    0  503  0.21737862515E+03  0.12328597926E+03  0.29402187906E+03  0.38587791427E+03  0.00000000000E+00 0.  1.
         -1    1    6    6    0  502  0.28768404791E+01  0.74989345871E+01  0.35762008106E+01  0.87920101980E+01  0.00000000000E+00 0.  1.
<mgrwt>
<rscale>  0 0.20711114E+04</rscale>
<asrwt>0</asrwt>
<pdfrwt beam="1">  1        1 0.29965234E+00 0.20711114E+04</pdfrwt>
<pdfrwt beam="2">  1       -1 0.84703727E-01 0.20711114E+04</pdfrwt>
<totfact> 0.41122536E+00</totfact>
</mgrwt>
</event>
<event>
12    1  0.1556559E-007  0.1098959E+04  0.7818608E-02  0.9206207E-01
         -1   -1    0    0    0  501 -0.00000000000E+00  0.00000000000E+00  0.23318693839E+03  0.23318693839E+03  0.00000000000E+00 0.  1.
          1   -1    0    0  501    0  0.00000000000E+00 -0.00000000000E+00 -0.12947892415E+04  0.12947892415E+04  0.00000000000E+00 0. -1.
         23    2    1    2    0    0 -0.69119466955E+01  0.12820295719E+03 -0.27761011899E+03  0.32704269859E+03  0.11578331183E+03 0.  0.
        254    2    1    2    0    0  0.69119466955E+01 -0.12820295719E+03 -0.78399218412E+03  0.12009334813E+04  0.90061851441E+03 0.  0.
        -24    2    4    4    0    0 -0.16439400131E+03 -0.28287952355E+03  0.43243247224E+02  0.33849992874E+03  0.75272908934E+02 0.  0.
         24    2    4    4    0    0  0.17130594800E+03  0.15467656636E+03 -0.82723543134E+03  0.86243355255E+03  0.78756623213E+02 0.  0.
         11    1    3    3    0    0 -0.32777496771E+02  0.26117050787E+02 -0.17521392251E+03  0.18015655214E+03  0.00000000000E+00 0.  1.
        -11    1    3    3    0    0  0.25865550075E+02  0.10208590640E+03 -0.10239619647E+03  0.14688614645E+03  0.00000000000E+00 0. -1.
          4    1    6    6  502    0  0.80336605671E+02  0.30684824976E+02 -0.37612569326E+03  0.38583165477E+03  0.00000000000E+00 0. -1.
          1    1    5    5  503    0  0.18182849388E-01 -0.76038007185E+01  0.14755993253E+02  0.16599923279E+02  0.00000000000E+00 0. -1.
         -2    1    5    5    0  503 -0.16441218416E+03 -0.27527572283E+03  0.28487253971E+02  0.32190000546E+03  0.00000000000E+00 0.  1.
         -3    1    6    6    0  502  0.90969342333E+02  0.12399174138E+03 -0.45110973809E+03  0.47660189778E+03  0.00000000000E+00 0.  1.
<mgrwt>
<rscale>  0 0.10989594E+04</rscale>
<asrwt>0</asrwt>
<pdfrwt beam="1">  1        1 0.19919834E+00 0.10989594E+04</pdfrwt>
<pdfrwt beam="2">  1       -1 0.35874914E-01 0.10989594E+04</pdfrwt>
<totfact> 0.67442773E+01</totfact>
</mgrwt>
</event>
<event>
12    1  0.1556559E-007  0.1640556E+04  0.7818608E-02  0.8796013E-01
          1   -1    0    0  501    0  0.00000000000E+00  0.00000000000E+00  0.12849575926E+04  0.12849575926E+04  0.00000000000E+00 0. -1.
         -1   -1    0    0    0  501 -0.00000000000E+00 -0.00000000000E+00 -0.52364058161E+03  0.52364058161E+03  0.00000000000E+00 0.  1.
         23    2    1    2    0    0  0.21443497000E+01  0.55439221896E+03  0.22115027440E+03  0.60358736451E+03  0.89749273263E+02 0.  0.
        254    2    1    2    0    0 -0.21443497000E+01 -0.55439221896E+03  0.54016673656E+03  0.12050108097E+04  0.92353430768E+03 0.  0.
        -24    2    4    4    0    0 -0.74493581629E+02 -0.33220063452E+03  0.78416275857E+03  0.85781730742E+03  0.70941847343E+02 0.  0.
         24    2    4    4    0    0  0.72349231929E+02 -0.22219158445E+03 -0.24399602201E+03  0.34719350225E+03  0.80035977478E+02 0.  0.
         11    1    3    3    0    0 -0.17807741097E+02  0.16790303345E+03  0.28317954522E+02  0.17120295217E+03  0.00000000000E+00 0.  1.
        -11    1    3    3    0    0  0.19952090797E+02  0.38648918552E+03  0.19283231987E+03  0.43238441234E+03  0.00000000000E+00 0. -1.
          2    1    6    6  502    0  0.83227079199E+02 -0.20160645477E+03 -0.19343231250E+03  0.29152696074E+03  0.00000000000E+00 0. -1.
          3    1    5    5  503    0 -0.32147640568E+02 -0.23877899015E+03  0.60756214590E+03  0.65359057372E+03  0.00000000000E+00 0. -1.
         -4    1    5    5    0  503 -0.42345941061E+02 -0.93421644371E+02  0.17660061268E+03  0.20422673370E+03  0.00000000000E+00 0.  1.
         -1    1    6    6    0  502 -0.10877847271E+02 -0.20585129673E+02 -0.50563709506E+02  0.55666541512E+02  0.00000000000E+00 0.  1.
<mgrwt>
<rscale>  0 0.16405559E+04</rscale>
<asrwt>0</asrwt>
<pdfrwt beam="1">  1        1 0.19768578E+00 0.16405559E+04</pdfrwt>
<pdfrwt beam="2">  1       -1 0.80560090E-01 0.16405559E+04</pdfrwt>
<totfact> 0.13629410E+01</totfact>
</mgrwt>
</event>
<event>
12    1  0.1556559E-007  0.1614298E+04  0.7818608E-02  0.8811812E-01
          2   -1    0    0  501    0  0.00000000000E+00  0.00000000000E+00  0.63685378073E+03  0.63685378073E+03  0.00000000000E+00 0. -1.
         -2   -1    0    0    0  501 -0.00000000000E+00 -0.00000000000E+00 -0.10229813281E+04  0.10229813281E+04  0.00000000000E+00 0.  1.
         23    2    1    2    0    0 -0.50950569817E+03 -0.14654658538E+03  0.33557044504E+02  0.53908874230E+03  0.91753139872E+02 0.  0.
        254    2    1    2    0    0  0.50950569817E+03  0.14654658538E+03 -0.41968459191E+03  0.11207463666E+04  0.89379265120E+03 0.  0.
        -24    2    4    4    0    0  0.56308961162E+03 -0.21157878255E+03 -0.69753422338E+02  0.61071566883E+03  0.79199723996E+02 0.  0.
         24    2    4    4    0    0 -0.53583913448E+02  0.35812536793E+03 -0.34993116957E+03  0.51003069774E+03  0.80959707679E+02 0.  0.
         13    1    3    3    0    0 -0.11799533414E+03 -0.73955217766E+02  0.19905199484E+02  0.14067156813E+03  0.00000000000E+00 0. -1.
        -13    1    3    3    0    0 -0.39151036403E+03 -0.72591367614E+02  0.13651845020E+02  0.39841717417E+03  0.00000000000E+00 0.  1.
          4    1    6    6  502    0  0.18228313133E+02  0.48752775957E+02 -0.65708128562E+02  0.83825191454E+02  0.00000000000E+00 0. -1.
          3    1    5    5  503    0  0.39343311310E+03 -0.17600256710E+03 -0.25238074681E+02  0.43174469137E+03  0.00000000000E+00 0. -1.
         -4    1    5    5    0  503  0.16965649852E+03 -0.35576215453E+02 -0.44515347657E+02  0.17897097746E+03  0.00000000000E+00 0.  1.
         -3    1    6    6    0  502 -0.71812226581E+02  0.30937259197E+03 -0.28422304101E+03  0.42620550629E+03  0.00000000000E+00 0.  1.
<mgrwt>
<rscale>  0 0.16142980E+04</rscale>
<asrwt>0</asrwt>
<pdfrwt beam="1">  1        2 0.97977506E-01 0.16142980E+04</pdfrwt>
<pdfrwt beam="2">  1       -2 0.15738174E+00 0.16142980E+04</pdfrwt>
<totfact> 0.11627711E+01</totfact>
</mgrwt>
</event>
<event>
12    1  0.1556559E-007  0.1256136E+04  0.7818608E-02  0.9065092E-01
         -4   -1    0    0    0  501 -0.00000000000E+00  0.00000000000E+00  0.54382566847E+03  0.54382566847E+03  0.00000000000E+00 0.  1.
          4   -1    0    0  501    0  0.00000000000E+00 -0.00000000000E+00 -0.72535981117E+03  0.72535981117E+03  0.00000000000E+00 0. -1.
         23    2    1    2    0    0 -0.11869150999E+03  0.94565847515E+02  0.19870320482E+03  0.26718542583E+03  0.94205701033E+02 0.  0.
        254    2    1    2    0    0  0.11869150999E+03 -0.94565847515E+02 -0.38023734752E+03  0.10020000538E+04  0.91454540256E+03 0.  0.
        -24    2    4    4    0    0  0.73366591817E+02 -0.33871503901E+03  0.16929556581E+03  0.39382637003E+03  0.79546757847E+02 0.  0.
         24    2    4    4    0    0  0.45324918174E+02  0.24414919149E+03 -0.54953291333E+03  0.60817368379E+03  0.78902667263E+02 0.  0.
         13    1    3    3    0    0 -0.51730696069E+02  0.21575027168E+02  0.14271788916E+02  0.57837969121E+02  0.00000000000E+00 0. -1.
        -13    1    3    3    0    0 -0.66960813922E+02  0.72990820347E+02  0.18443141591E+03  0.20934745670E+03  0.00000000000E+00 0.  1.
          4    1    6    6  502    0  0.62204033169E+02  0.18893745899E+03 -0.37732161337E+03  0.42654226645E+03  0.00000000000E+00 0. -1.
          1    1    5    5  503    0  0.46162977713E+02 -0.31468810296E+03  0.16147441346E+03  0.35669820417E+03  0.00000000000E+00 0. -1.
         -2    1    5    5    0  503  0.27203614104E+02 -0.24026936048E+02  0.78211523528E+01  0.37128165862E+02  0.00000000000E+00 0.  1.
         -3    1    6    6    0  502 -0.16879114995E+02  0.55211732500E+02 -0.17221129996E+03  0.18163141734E+03  0.00000000000E+00 0.  1.
<mgrwt>
<rscale>  0 0.12561358E+04</rscale>
<asrwt>0</asrwt>
<pdfrwt beam="1">  1        4 0.11159382E+00 0.12561358E+04</pdfrwt>
<pdfrwt beam="2">  1       -4 0.83665488E-01 0.12561358E+04</pdfrwt>
<totfact> 0.15560991E+00</totfact>
</mgrwt>
</event>
<event>
12    1  0.1556559E-007  0.1752235E+04  0.7818608E-02  0.8732121E-01
          1   -1    0    0  501    0  0.00000000000E+00  0.00000000000E+00  0.31498874795E+04  0.31498874795E+04  0.00000000000E+00 0. -1.
         -1   -1    0    0    0  501 -0.00000000000E+00 -0.00000000000E+00 -0.24368543579E+03  0.24368543579E+03  0.00000000000E+00 0.  1.
         23    2    1    2    0    0 -0.55408931447E+03 -0.33483341169E+03  0.87646980806E+03  0.10935413094E+04  0.92221954066E+02 0.  0.
        254    2    1    2    0    0  0.55408931447E+03  0.33483341169E+03  0.20297322357E+04  0.23000316060E+04  0.86672028818E+03 0.  0.
        -24    2    4    4    0    0  0.66693739007E+03  0.11517481047E+03  0.84394188849E+03  0.10855014980E+04  0.89469948781E+02 0.  0.
         24    2    4    4    0    0 -0.11284807560E+03  0.21965860122E+03  0.11857903472E+04  0.12145301080E+04  0.89442978934E+02 0.  0.
         11    1    3    3    0    0 -0.42232290623E+03 -0.27485927185E+03  0.61903594400E+03  0.79819155371E+03  0.00000000000E+00 0.  1.
        -11    1    3    3    0    0 -0.13176640824E+03 -0.59974139844E+02  0.25743386406E+03  0.29534975564E+03  0.00000000000E+00 0. -1.
          2    1    6    6  502    0 -0.21813966168E+02  0.11152849560E+03  0.38740550649E+03  0.40372946500E+03  0.00000000000E+00 0. -1.
          3    1    5    5  503    0  0.11049622600E+03 -0.14225210299E+02  0.13746054567E+03  0.17693833440E+03  0.00000000000E+00 0. -1.
         -4    1    5    5    0  503  0.55644116408E+03  0.12940002077E+03  0.70648134282E+03  0.90856316358E+03  0.00000000000E+00 0.  1.
         -1    1    6    6    0  502 -0.91034109433E+02  0.10813010562E+03  0.79838484069E+03  0.81080064298E+03  0.00000000000E+00 0.  1.
<mgrwt>
<rscale>  0 0.17522348E+04</rscale>
<asrwt>0</asrwt>
<pdfrwt beam="1">  1        1 0.48459805E+00 0.17522348E+04</pdfrwt>
<pdfrwt beam="2">  1       -1 0.37490069E-01 0.17522348E+04</pdfrwt>
<totfact> 0.30230477E+00</totfact>
</mgrwt>
</event>
<event>
12    1  0.1556559E-007  0.1203669E+04  0.7818608E-02  0.9109651E-01
         -1   -1    0    0    0  501 -0.00000000000E+00  0.00000000000E+00  0.61528375313E+03  0.61528375313E+03  0.00000000000E+00 0.  1.
          1   -1    0    0  501    0  0.00000000000E+00 -0.00000000000E+00 -0.58867893070E+03  0.58867893070E+03  0.00000000000E+00 0. -1.
         23    2    1    2    0    0  0.80601248640E+02  0.20842072479E+03  0.12833923545E+03  0.27520369289E+03  0.96593754542E+02 0.  0.
        254    2    1    2    0    0 -0.80601248640E+02 -0.20842072479E+03 -0.10173441302E+03  0.92875899095E+03  0.89571625678E+03 0.  0.
        -24    2    4    4    0    0  0.38011451317E+01 -0.26068001956E+03  0.35894582515E+03  0.45071180537E+03  0.79564469477E+02 0.  0.
         24    2    4    4    0    0 -0.84402393772E+02  0.52259294766E+02 -0.46068023818E+03  0.47804718558E+03  0.80299637775E+02 0.  0.
         11    1    3    3    0    0  0.89103889864E+02  0.17233225605E+03  0.70333079441E+02  0.20636048974E+03  0.00000000000E+00 0. -1.
        -11    1    3    3    0    0 -0.85026412235E+01  0.36088468749E+02  0.58006156010E+02  0.68843203146E+02  0.00000000000E+00 0.  1.
          4    1    6    6  502    0 -0.16847072650E+02  0.51846179875E+01 -0.10753134419E+02  0.20647857525E+02  0.00000000000E+00 0. -1.
          3    1    5    5  503    0  0.29875393019E+02 -0.41506061023E+02  0.80918831592E+02  0.95724341292E+02  0.00000000000E+00 0. -1.
         -4    1    5    5    0  503 -0.26074247887E+02 -0.21917395854E+03  0.27802699356E+03  0.35498746408E+03  0.00000000000E+00 0.  1.
         -3    1    6    6    0  502 -0.67555321122E+02  0.47074676778E+02 -0.44992710376E+03  0.45739932805E+03  0.00000000000E+00 0.  1.
<mgrwt>
<rscale>  0 0.12036687E+04</rscale>
<asrwt>0</asrwt>
<pdfrwt beam="1">  1        1 0.90565990E-01 0.12036687E+04</pdfrwt>
<pdfrwt beam="2">  1       -1 0.94659039E-01 0.12036687E+04</pdfrwt>
<totfact> 0.37621678E+01</totfact>
</mgrwt>
</event>
<event>
12    1  0.1556559E-007  0.1500804E+04  0.7818608E-02  0.8883919E-01
          1   -1    0    0  501    0  0.00000000000E+00  0.00000000000E+00  0.11289503947E+04  0.11289503947E+04  0.00000000000E+00 0. -1.
         -1   -1    0    0    0  501 -0.00000000000E+00 -0.00000000000E+00 -0.49878462480E+03  0.49878462480E+03  0.00000000000E+00 0.  1.
         23    2    1    2    0    0  0.14300428116E+03 -0.37642642494E+03  0.48151317957E+03  0.63421854883E+03  0.90725673066E+02 0.  0.
        254    2    1    2    0    0 -0.14300428116E+03  0.37642642494E+03  0.14865259034E+03  0.99351647067E+03  0.89600798382E+03 0.  0.
        -24    2    4    4    0    0  0.15112757331E+03  0.53728536049E+03  0.27383937399E+03  0.62672313772E+03  0.79238794764E+02 0.  0.
         24    2    4    4    0    0 -0.29413185447E+03 -0.16085893555E+03 -0.12518678365E+03  0.36679333295E+03  0.80476539048E+02 0.  0.
         11    1    3    3    0    0  0.12925041825E+03 -0.24659189529E+03  0.36626125420E+03  0.46006579939E+03  0.00000000000E+00 0. -1.
        -11    1    3    3    0    0  0.13753862904E+02 -0.12983452965E+03  0.11525192537E+03  0.17415274943E+03  0.00000000000E+00 0.  1.
          4    1    6    6  502    0 -0.64154498556E+02 -0.44498679637E+00 -0.18299632502E+02  0.66714872764E+02  0.00000000000E+00 0. -1.
          3    1    5    5  503    0 -0.81834908838E+01  0.54980565934E+02  0.32208508455E+02  0.64243444571E+02  0.00000000000E+00 0. -1.
         -4    1    5    5    0  503  0.15931106419E+03  0.48230479456E+03  0.24163086554E+03  0.56247969315E+03  0.00000000000E+00 0.  1.
         -3    1    6    6    0  502 -0.22997735591E+03 -0.16041394876E+03 -0.10688715115E+03  0.30007846019E+03  0.00000000000E+00 0.  1.
<mgrwt>
<rscale>  0 0.15008039E+04</rscale>
<asrwt>0</asrwt>
<pdfrwt beam="1">  1        1 0.17368468E+00 0.15008039E+04</pdfrwt>
<pdfrwt beam="2">  1       -1 0.76736096E-01 0.15008039E+04</pdfrwt>
<totfact> 0.19879850E+01</totfact>
</mgrwt>
</event>
<event>
12    1  0.1556559E-007  0.1878371E+04  0.7818608E-02  0.8665698E-01
          1   -1    0    0  501    0  0.00000000000E+00  0.00000000000E+00  0.92143709693E+03  0.92143709693E+03  0.00000000000E+00 0. -1.
         -1   -1    0    0    0  501 -0.00000000000E+00 -0.00000000000E+00 -0.95727610620E+03  0.95727610620E+03  0.00000000000E+00 0.  1.
         23    2    1    2    0    0 -0.42848255976E+03 -0.43680567485E+03  0.35340940033E+03  0.71231502700E+03  0.89988842894E+02 0.  0.
        254    2    1    2    0    0  0.42848255976E+03  0.43680567485E+03 -0.38924840960E+03  0.11663981761E+04  0.91355015150E+03 0.  0.
        -24    2    4    4    0    0  0.45217803006E+03  0.53813363604E+03 -0.59305048902E+03  0.92263849221E+03  0.74162818654E+02 0.  0.
         24    2    4    4    0    0 -0.23695470301E+02 -0.10132796119E+03  0.20380207942E+03  0.24375968392E+03  0.83992052592E+02 0.  0.
         13    1    3    3    0    0 -0.43254020063E+03 -0.43617146503E+03  0.35193714431E+03  0.70795220574E+03  0.00000000000E+00 0. -1.
        -13    1    3    3    0    0  0.40576408712E+01 -0.63420982339E+00  0.14722560144E+01  0.43628212560E+01  0.00000000000E+00 0.  1.
          2    1    6    6  502    0 -0.39490469481E+02 -0.24425493793E+02  0.36882758932E+02  0.59299577008E+02  0.00000000000E+00 0. -1.
          3    1    5    5  503    0  0.30846394441E+02  0.56473282195E+02 -0.33372481218E+02  0.72487613801E+02  0.00000000000E+00 0. -1.
         -4    1    5    5    0  503  0.42133163562E+03  0.48166035384E+03 -0.55967800780E+03  0.85015087840E+03  0.00000000000E+00 0.  1.
         -1    1    6    6    0  502  0.15794999181E+02 -0.76902467394E+02  0.16691932049E+03  0.18446010691E+03  0.00000000000E+00 0.  1.
<mgrwt>
<rscale>  0 0.18783713E+04</rscale>
<asrwt>0</asrwt>
<pdfrwt beam="1">  1        1 0.14175955E+00 0.18783713E+04</pdfrwt>
<pdfrwt beam="2">  1       -1 0.14727325E+00 0.18783713E+04</pdfrwt>
<totfact> 0.60054151E+00</totfact>
</mgrwt>
</event>
<event>
12    1  0.1556559E-007  0.1626364E+04  0.7818608E-02  0.8804514E-01
          2   -1    0    0  501    0  0.00000000000E+00  0.00000000000E+00  0.32643423473E+04  0.32643423473E+04  0.00000000000E+00 0. -1.
         -2   -1    0    0    0  501 -0.00000000000E+00 -0.00000000000E+00 -0.20257206869E+03  0.20257206869E+03  0.00000000000E+00 0.  1.
         23    2    1    2    0    0 -0.60348826020E+02  0.29868227091E+03  0.69726810479E+02  0.32533973924E+03  0.90172268861E+02 0.  0.
        254    2    1    2    0    0  0.60348826020E+02 -0.29868227091E+03  0.29920434681E+04  0.31415746768E+04  0.90791753736E+03 0.  0.
        -24    2    4    4    0    0  0.32864356215E+02 -0.35749462101E+02  0.28084649571E+04  0.28098699705E+04  0.74402591944E+02 0.  0.
         24    2    4    4    0    0  0.27484469805E+02 -0.26293280881E+03  0.18357851103E+03  0.33170470629E+03  0.80236428355E+02 0.  0.
         13    1    3    3    0    0  0.21698393528E+02  0.77754272380E+02  0.31177097390E+02  0.86536457963E+02  0.00000000000E+00 0. -1.
        -13    1    3    3    0    0 -0.82047219548E+02  0.22092799853E+03  0.38549713089E+02  0.23880328128E+03  0.00000000000E+00 0.  1.
          2    1    6    6  502    0  0.23185112264E+02 -0.26774628352E+03  0.18317845905E+03  0.32523832743E+03  0.00000000000E+00 0. -1.
          1    1    5    5  503    0  0.49754983940E+02 -0.45920852787E+02  0.19397983900E+04  0.19409796694E+04  0.00000000000E+00 0. -1.
         -2    1    5    5    0  503 -0.16890627725E+02  0.10171390686E+02  0.86866656706E+03  0.86889030103E+03  0.00000000000E+00 0.  1.
         -1    1    6    6    0  502  0.42993575408E+01  0.48134747090E+01  0.40005198380E+00  0.64663788652E+01  0.00000000000E+00 0.  1.
<mgrwt>
<rscale>  0 0.16263635E+04</rscale>
<asrwt>0</asrwt>
<pdfrwt beam="1">  1        2 0.50220648E+00 0.16263635E+04</pdfrwt>
<pdfrwt beam="2">  1       -2 0.31164936E-01 0.16263635E+04</pdfrwt>
<totfact> 0.10839512E+01</totfact>
</mgrwt>
</event>
<event>
12    1  0.1556559E-007  0.1743574E+04  0.7818608E-02  0.8736895E-01
          1   -1    0    0  501    0  0.00000000000E+00  0.00000000000E+00  0.74229339408E+03  0.74229339408E+03  0.00000000000E+00 0. -1.
         -1   -1    0    0    0  501 -0.00000000000E+00 -0.00000000000E+00 -0.10238709151E+04  0.10238709151E+04  0.00000000000E+00 0.  1.
         23    2    1    2    0    0  0.14868865097E+03 -0.13054343534E+03 -0.71498662194E+03  0.74741899635E+03  0.90991115580E+02 0.  0.
        254    2    1    2    0    0 -0.14868865097E+03  0.13054343534E+03  0.43340910096E+03  0.10187453128E+04  0.90047135439E+03 0.  0.
        -24    2    4    4    0    0 -0.47700135105E+02  0.22265802599E+03 -0.23122800029E+03  0.33554575394E+03  0.85279924009E+02 0.  0.
         24    2    4    4    0    0 -0.10098851587E+03 -0.92114590648E+02  0.66463710125E+03  0.68319955885E+03  0.79595117304E+02 0.  0.
         11    1    3    3    0    0  0.34193606515E+01 -0.43440216625E+02 -0.91690738750E+02  0.10151815611E+03  0.00000000000E+00 0. -1.
        -11    1    3    3    0    0  0.14526929032E+03 -0.87103218720E+02 -0.62329588319E+03  0.64590084024E+03  0.00000000000E+00 0.  1.
          2    1    6    6  502    0 -0.79049740406E+02 -0.21320921657E+02  0.40490742777E+03  0.41310224911E+03  0.00000000000E+00 0. -1.
          3    1    5    5  503    0  0.10671177285E+02  0.19616387953E+02 -0.58632807831E+02  0.62741396662E+02  0.00000000000E+00 0. -1.
         -4    1    5    5    0  503 -0.58371312390E+02  0.20304163804E+03 -0.17259519246E+03  0.27280435727E+03  0.00000000000E+00 0.  1.
         -1    1    6    6    0  502 -0.21938775464E+02 -0.70793668991E+02  0.25972967348E+03  0.27009730973E+03  0.00000000000E+00 0.  1.
<mgrwt>
<rscale>  0 0.17435740E+04</rscale>
<asrwt>0</asrwt>
<pdfrwt beam="1">  1        1 0.11419898E+00 0.17435740E+04</pdfrwt>
<pdfrwt beam="2">  1       -1 0.15751860E+00 0.17435740E+04</pdfrwt>
<totfact> 0.72036108E+00</totfact>
</mgrwt>
</event>
<event>
12    1  0.1556559E-007  0.1414492E+04  0.7818608E-02  0.8943395E-01
          1   -1    0    0  501    0  0.00000000000E+00  0.00000000000E+00  0.81568786364E+03  0.81568786364E+03  0.00000000000E+00 0. -1.
         -1   -1    0    0    0  501 -0.00000000000E+00 -0.00000000000E+00 -0.61322063201E+03  0.61322063201E+03  0.00000000000E+00 0.  1.
         23    2    1    2    0    0 -0.61622919515E+02  0.22242925620E+03 -0.27041927142E+03  0.36713324730E+03  0.91586465683E+02 0.  0.
        254    2    1    2    0    0  0.61622919515E+02 -0.22242925620E+03  0.47288650305E+03  0.10617752483E+04  0.92221086255E+03 0.  0.
        -24    2    4    4    0    0  0.86136925887E+02 -0.55664879867E+03  0.43301052754E+03  0.71499288470E+03  0.80244957170E+02 0.  0.
         24    2    4    4    0    0 -0.24514006372E+02  0.33421954247E+03  0.39875975506E+02  0.34678236364E+03  0.79776407744E+02 0.  0.
         11    1    3    3    0    0 -0.30139411969E+02  0.13647624608E+03 -0.94165598013E+02  0.16852688138E+03  0.00000000000E+00 0.  1.
        -11    1    3    3    0    0 -0.31483507546E+02  0.85953010117E+02 -0.17625367341E+03  0.19860636592E+03  0.00000000000E+00 0. -1.
          4    1    6    6  502    0 -0.31999997618E+02  0.52177113878E+02 -0.35836671344E+01  0.61313079602E+02  0.00000000000E+00 0. -1.
          3    1    5    5  503    0  0.30802160950E+01 -0.25831515354E+01  0.16213203554E+02  0.16704142376E+02  0.00000000000E+00 0. -1.
         -4    1    5    5    0  503  0.83056709792E+02 -0.55406564713E+03  0.41679732399E+03  0.69828874233E+03  0.00000000000E+00 0.  1.
         -3    1    6    6    0  502  0.74859912459E+01  0.28204242859E+03  0.43459642640E+02  0.28546928404E+03  0.00000000000E+00 0.  1.
<mgrwt>
<rscale>  0 0.14144916E+04</rscale>
<asrwt>0</asrwt>
<pdfrwt beam="1">  1        1 0.12549044E+00 0.14144916E+04</pdfrwt>
<pdfrwt beam="2">  1       -1 0.94341636E-01 0.14144916E+04</pdfrwt>
<totfact> 0.22705992E+01</totfact>
</mgrwt>
</event>
<event>
12    1  0.1556559E-007  0.2915728E+04  0.7818608E-02  0.8268213E-01
         -2   -1    0    0    0  501 -0.00000000000E+00  0.00000000000E+00  0.48615756840E+03  0.48615756840E+03  0.00000000000E+00 0.  1.
          2   -1    0    0  501    0  0.00000000000E+00 -0.00000000000E+00 -0.43717679078E+04  0.43717679078E+04  0.00000000000E+00 0. -1.
         23    2    1    2    0    0  0.88776008886E+03  0.97281417300E+03 -0.16155231528E+04  0.20861805361E+04  0.88027161348E+02 0.  0.
        254    2    1    2    0    0 -0.88776008886E+03 -0.97281417300E+03 -0.22700871866E+04  0.27717449401E+04  0.89150927535E+03 0.  0.
        -24    2    4    4    0    0  0.70623186431E+02 -0.80607379326E+02 -0.75929892386E+03  0.77086871678E+03  0.78857711599E+02 0.  0.
         24    2    4    4    0    0 -0.95838327529E+03 -0.89220679368E+03 -0.15107882627E+04  0.20008762234E+04  0.80579286687E+02 0.  0.
         13    1    3    3    0    0  0.72177303455E+03  0.79229507415E+03 -0.13666686607E+04  0.17367990748E+04  0.00000000000E+00 0. -1.
        -13    1    3    3    0    0  0.16598705431E+03  0.18051909885E+03 -0.24885449210E+03  0.34938146128E+03  0.00000000000E+00 0.  1.
          2    1    6    6  502    0 -0.28785005255E+03 -0.27431349918E+03 -0.51595581221E+03  0.65139538588E+03  0.00000000000E+00 0. -1.
          3    1    5    5  503    0  0.50606714582E+02 -0.15406799643E+02 -0.18130991818E+03  0.18886951969E+03  0.00000000000E+00 0. -1.
         -4    1    5    5    0  503  0.20016471849E+02 -0.65200579684E+02 -0.57798900567E+03  0.58199919709E+03  0.00000000000E+00 0.  1.
         -1    1    6    6    0  502 -0.67053322275E+03 -0.61789329449E+03 -0.99483245049E+03  0.13494808375E+04  0.00000000000E+00 0.  1.
<mgrwt>
<rscale>  0 0.29157284E+04</rscale>
<asrwt>0</asrwt>
<pdfrwt beam="1">  1        2 0.67257967E+00 0.29157284E+04</pdfrwt>
<pdfrwt beam="2">  1       -2 0.74793473E-01 0.29157284E+04</pdfrwt>
<totfact> 0.22585348E-01</totfact>
</mgrwt>
</event>
<event>
12    1  0.1556559E-007  0.1763499E+04  0.7818608E-02  0.8725955E-01
         -1   -1    0    0    0  501 -0.00000000000E+00  0.00000000000E+00  0.40207301312E+03  0.40207301312E+03  0.00000000000E+00 0.  1.
          1   -1    0    0  501    0  0.00000000000E+00 -0.00000000000E+00 -0.19336834831E+04  0.19336834831E+04  0.00000000000E+00 0. -1.
         23    2    1    2    0    0  0.13380785804E+03  0.26240295305E+03 -0.13545141276E+04  0.13892438768E+04  0.92358945087E+02 0.  0.
        254    2    1    2    0    0 -0.13380785804E+03 -0.26240295305E+03 -0.17709634237E+03  0.94651261940E+03  0.88190882270E+03 0.  0.
        -24    2    4    4    0    0 -0.25336051051E+03  0.21724223726E+03 -0.26928092883E+03  0.43731865233E+03  0.85730082874E+02 0.  0.
         24    2    4    4    0    0  0.11955265247E+03 -0.47964519031E+03  0.92184586458E+02  0.50919396707E+03  0.80175762062E+02 0.  0.
         11    1    3    3    0    0  0.89861092877E+02  0.22630056320E+03 -0.94798530687E+03  0.97875589549E+03  0.00000000000E+00 0. -1.
        -11    1    3    3    0    0  0.43946765167E+02  0.36102389850E+02 -0.40652882073E+03  0.41048798132E+03  0.00000000000E+00 0.  1.
          2    1    6    6  502    0  0.26914265122E+02 -0.20900745068E+03  0.70937135027E+02  0.22235235378E+03  0.00000000000E+00 0. -1.
          1    1    5    5  503    0 -0.15737507805E+03  0.11549749404E+03 -0.20598157145E+03  0.28378688148E+03  0.00000000000E+00 0. -1.
         -2    1    5    5    0  503 -0.95985432457E+02  0.10174474322E+03 -0.63299357381E+02  0.15353177085E+03  0.00000000000E+00 0.  1.
         -1    1    6    6    0  502  0.92638387345E+02 -0.27063773963E+03  0.21247451431E+02  0.28684161329E+03  0.00000000000E+00 0.  1.
<mgrwt>
<rscale>  0 0.17634987E+04</rscale>
<asrwt>0</asrwt>
<pdfrwt beam="1">  1        1 0.29748977E+00 0.17634987E+04</pdfrwt>
<pdfrwt beam="2">  1       -1 0.61857386E-01 0.17634987E+04</pdfrwt>
<totfact> 0.82942896E+00</totfact>
</mgrwt>
</event>
<event>
12    1  0.1556559E-007  0.1655066E+04  0.7818608E-02  0.8787415E-01
          4   -1    0    0  501    0  0.00000000000E+00  0.00000000000E+00  0.69784418871E+03  0.69784418871E+03  0.00000000000E+00 0. -1.
         -4   -1    0    0    0  501 -0.00000000000E+00 -0.00000000000E+00 -0.98132362673E+03  0.98132362673E+03  0.00000000000E+00 0.  1.
         23    2    1    2    0    0 -0.17431686329E+03 -0.48226324581E+03 -0.37404831763E+03  0.64015014806E+03  0.83161656153E+02 0.  0.
        254    2    1    2    0    0  0.17431686329E+03  0.48226324581E+03  0.90568879611E+02  0.10390176674E+04  0.89910554669E+03 0.  0.
        -24    2    4    4    0    0 -0.59379701507E+02 -0.23608681361E+03  0.11104540198E+03  0.27936431746E+03  0.80314432445E+02 0.  0.
         24    2    4    4    0    0  0.23369656479E+03  0.71835005941E+03 -0.20476522370E+02  0.75965334992E+03  0.77543741348E+02 0.  0.
         11    1    3    3    0    0 -0.38138605904E+02 -0.64759606038E+02 -0.25083186819E+02  0.79230840558E+02  0.00000000000E+00 0. -1.
        -11    1    3    3    0    0 -0.13617825738E+03 -0.41750363977E+03 -0.34896513081E+03  0.56091930750E+03  0.00000000000E+00 0.  1.
          2    1    6    6  502    0  0.17332650708E+03  0.61272061982E+03 -0.32249809043E+01  0.63677235847E+03  0.00000000000E+00 0. -1.
          3    1    5    5  503    0 -0.48141656811E+02 -0.21832488335E+03  0.12301294614E+03  0.25517750435E+03  0.00000000000E+00 0. -1.
         -4    1    5    5    0  503 -0.11238044696E+02 -0.17761930257E+02 -0.11967544159E+02  0.24186813107E+02  0.00000000000E+00 0.  1.
         -1    1    6    6    0  502  0.60370057713E+02  0.10562943959E+03 -0.17251541465E+02  0.12288099145E+03  0.00000000000E+00 0.  1.
<mgrwt>
<rscale>  0 0.16550661E+04</rscale>
<asrwt>0</asrwt>
<pdfrwt beam="1">  1        4 0.10736065E+00 0.16550661E+04</pdfrwt>
<pdfrwt beam="2">  1       -4 0.15097286E+00 0.16550661E+04</pdfrwt>
<totfact> 0.38908925E-01</totfact>
</mgrwt>
</event>
<event>
12    1  0.1556559E-007  0.1459396E+04  0.7818608E-02  0.8911912E-01
         -1   -1    0    0    0  501 -0.00000000000E+00  0.00000000000E+00  0.62288157865E+03  0.62288157865E+03  0.00000000000E+00 0.  1.
          1   -1    0    0  501    0  0.00000000000E+00 -0.00000000000E+00 -0.85483265300E+03  0.85483265300E+03  0.00000000000E+00 0. -1.
         23    2    1    2    0    0 -0.29054756256E+03  0.30014654082E+02  0.26665597832E+03  0.40645765425E+03  0.93721120120E+02 0.  0.
        254    2    1    2    0    0  0.29054756256E+03 -0.30014654082E+02 -0.49860705267E+03  0.10712565774E+04  0.90203264691E+03 0.  0.
        -24    2    4    4    0    0 -0.22921484561E+03 -0.20996380358E+03  0.55539852634E+01  0.32082698607E+03  0.79214039031E+02 0.  0.
         24    2    4    4    0    0  0.51976240816E+03  0.17994914950E+03 -0.50416103793E+03  0.75042959133E+03  0.80197020084E+02 0.  0.
         13    1    3    3    0    0 -0.30663855796E+02 -0.64357198159E+01  0.75641248515E+02  0.81873616133E+02  0.00000000000E+00 0. -1.
        -13    1    3    3    0    0 -0.25988370676E+03  0.36450373898E+02  0.19101472981E+03  0.32458403812E+03  0.00000000000E+00 0.  1.
          4    1    6    6  502    0  0.45709006441E+03  0.13434647610E+03 -0.45404060516E+03  0.65812853894E+03  0.00000000000E+00 0. -1.
          1    1    5    5  503    0 -0.17020958320E+02  0.26882127079E+01  0.10859919310E+02  0.20368538414E+02  0.00000000000E+00 0. -1.
         -2    1    5    5    0  503 -0.21219388729E+03 -0.21265201629E+03 -0.53059340469E+01  0.30045844766E+03  0.00000000000E+00 0.  1.
         -3    1    6    6    0  502  0.62672343753E+02  0.45602673394E+02 -0.50120432767E+02  0.92301052393E+02  0.00000000000E+00 0.  1.
<mgrwt>
<rscale>  0 0.14593965E+04</rscale>
<asrwt>0</asrwt>
<pdfrwt beam="1">  1        1 0.13151272E+00 0.14593965E+04</pdfrwt>
<pdfrwt beam="2">  1       -1 0.95827935E-01 0.14593965E+04</pdfrwt>
<totfact> 0.20226140E+01</totfact>
</mgrwt>
</event>
<event>
12    1  0.1556559E-007  0.1057181E+04  0.7818608E-02  0.9247961E-01
          2   -1    0    0  501    0  0.00000000000E+00  0.00000000000E+00  0.22113289835E+04  0.22113289835E+04  0.00000000000E+00 0. -1.
         -2   -1    0    0    0  501 -0.00000000000E+00 -0.00000000000E+00 -0.12635293393E+03  0.12635293393E+03  0.00000000000E+00 0.  1.
         23    2    1    2    0    0  0.87407835314E+02 -0.18490387644E+03  0.27187480297E+03  0.35186326634E+03  0.89790180492E+02 0.  0.
        254    2    1    2    0    0 -0.87407835314E+02  0.18490387644E+03  0.18131012466E+04  0.19858186511E+04  0.78377931295E+03 0.  0.
        -24    2    4    4    0    0 -0.39490212703E+03  0.22062665045E+03  0.79136420873E+03  0.91492762369E+03  0.78812669656E+02 0.  0.
         24    2    4    4    0    0  0.30749429172E+03 -0.35722774017E+02  0.10217370379E+04  0.10708910274E+04  0.83857987100E+02 0.  0.
         11    1    3    3    0    0  0.89021157248E+02 -0.15193847342E+03  0.16996051395E+03  0.24473790561E+03  0.00000000000E+00 0.  1.
        -11    1    3    3    0    0 -0.16133219332E+01 -0.32965403020E+02  0.10191428902E+03  0.10712536073E+03  0.00000000000E+00 0. -1.
          4    1    6    6  502    0  0.26173317780E+03 -0.55589949858E+02  0.91001436181E+03  0.94853604970E+03  0.00000000000E+00 0. -1.
          3    1    5    5  503    0 -0.30739999227E+03  0.13251453912E+03  0.59027057025E+03  0.67858249641E+03  0.00000000000E+00 0. -1.
         -4    1    5    5    0  503 -0.87502134763E+02  0.88112111330E+02  0.20109363848E+03  0.23634512727E+03  0.00000000000E+00 0.  1.
         -3    1    6    6    0  502  0.45761113916E+02  0.19867175841E+02  0.11172267609E+03  0.12235497773E+03  0.00000000000E+00 0.  1.
<mgrwt>
<rscale>  0 0.10571810E+04</rscale>
<asrwt>0</asrwt>
<pdfrwt beam="1">  1        2 0.34020443E+00 0.10571810E+04</pdfrwt>
<pdfrwt beam="2">  1       -2 0.19438915E-01 0.10571810E+04</pdfrwt>
<totfact> 0.11441648E+02</totfact>
</mgrwt>
</event>
<event>
12    1  0.1556559E-007  0.1609962E+04  0.7818608E-02  0.8814451E-01
         -2   -1    0    0    0  501 -0.00000000000E+00  0.00000000000E+00  0.19291145684E+03  0.19291145684E+03  0.00000000000E+00 0.  1.
          2   -1    0    0  501    0  0.00000000000E+00 -0.00000000000E+00 -0.33590245033E+04  0.33590245033E+04  0.00000000000E+00 0. -1.
         23    2    1    2    0    0  0.32825532584E+03  0.27591806667E+03 -0.18374349395E+04  0.18888813959E+04  0.88450170156E+02 0.  0.
        254    2    1    2    0    0 -0.32825532584E+03 -0.27591806667E+03 -0.13286781070E+04  0.16630545642E+04  0.90359428569E+03 0.  0.
        -24    2    4    4    0    0 -0.27678075022E+03  0.29945842214E+03 -0.59582401960E+03  0.72653005894E+03  0.80973661966E+02 0.  0.
         24    2    4    4    0    0 -0.51474575626E+02 -0.57537648882E+03 -0.73285408738E+03  0.93652450527E+03  0.79342925141E+02 0.  0.
         13    1    3    3    0    0  0.31645526347E+03  0.27054154152E+03 -0.18207829773E+04  0.18677760332E+04  0.00000000000E+00 0. -1.
        -13    1    3    3    0    0  0.11800062372E+02  0.53765251516E+01 -0.16651962158E+02  0.21105362788E+02  0.00000000000E+00 0.  1.
          4    1    6    6  502    0 -0.30051374603E+02 -0.48412707046E+03 -0.65264856008E+03  0.81316188329E+03  0.00000000000E+00 0. -1.
          1    1    5    5  503    0 -0.15903777631E+03  0.21404953116E+03 -0.42974617167E+03  0.50575882410E+03  0.00000000000E+00 0. -1.
         -2    1    5    5    0  503 -0.11774297391E+03  0.85408890981E+02 -0.16607784792E+03  0.22077123484E+03  0.00000000000E+00 0.  1.
         -3    1    6    6    0  502 -0.21423201023E+02 -0.91249418355E+02 -0.80205527304E+02  0.12336262198E+03  0.00000000000E+00 0.  1.
<mgrwt>
<rscale>  0 0.16099619E+04</rscale>
<asrwt>0</asrwt>
<pdfrwt beam="1">  1        2 0.51677298E+00 0.16099619E+04</pdfrwt>
<pdfrwt beam="2">  1       -2 0.29678687E-01 0.16099619E+04</pdfrwt>
<totfact> 0.10292215E+01</totfact>
</mgrwt>
</event>
<event>
12    1  0.1556559E-007  0.1052229E+04  0.7818608E-02  0.9253045E-01
         -1   -1    0    0    0  501 -0.00000000000E+00  0.00000000000E+00  0.33746861700E+03  0.33746861700E+03  0.00000000000E+00 0.  1.
          1   -1    0    0  501    0  0.00000000000E+00 -0.00000000000E+00 -0.82021468870E+03  0.82021468870E+03  0.00000000000E+00 0. -1.
         23    2    1    2    0    0  0.12163509309E+02  0.97855866040E+02 -0.79263581432E+01  0.13542101582E+03  0.92478661832E+02 0.  0.
        254    2    1    2    0    0 -0.12163509309E+02 -0.97855866040E+02 -0.47481971356E+03  0.10222622899E+04  0.89991261101E+03 0.  0.
        -24    2    4    4    0    0 -0.62341759425E+02 -0.49068075830E+03 -0.27123584770E+03  0.56976469205E+03  0.80055091583E+02 0.  0.
         24    2    4    4    0    0  0.50178250117E+02  0.39282489226E+03 -0.20358386586E+03  0.45249759784E+03  0.80488712510E+02 0.  0.
         11    1    3    3    0    0 -0.37170633829E+02  0.21550015574E+02 -0.11525560002E+02  0.44484803291E+02  0.00000000000E+00 0. -1.
        -11    1    3    3    0    0  0.49334143138E+02  0.76305850466E+02  0.35992018588E+01  0.90936212525E+02  0.00000000000E+00 0.  1.
          2    1    6    6  502    0 -0.19338399037E+02  0.85439416044E+02 -0.29316018999E+02  0.92375843493E+02  0.00000000000E+00 0. -1.
          1    1    5    5  503    0  0.17667112233E+02 -0.10749028246E+03 -0.71462958729E+02  0.13028139602E+03  0.00000000000E+00 0. -1.
         -2    1    5    5    0  503 -0.80008871658E+02 -0.38319047584E+03 -0.19977288897E+03  0.43948329603E+03  0.00000000000E+00 0.  1.
         -1    1    6    6    0  502  0.69516649153E+02  0.30738547622E+03 -0.17426784687E+03  0.36012175434E+03  0.00000000000E+00 0.  1.
<mgrwt>
<rscale>  0 0.10522295E+04</rscale>
<asrwt>0</asrwt>
<pdfrwt beam="1">  1        1 0.12618687E+00 0.10522295E+04</pdfrwt>
<pdfrwt beam="2">  1       -1 0.51918249E-01 0.10522295E+04</pdfrwt>
<totfact> 0.79248376E+01</totfact>
</mgrwt>
</event>
<event>
12    1  0.2142855E-007  0.4007051E+04  0.7818608E-02  0.8003126E-01
         -2   -1    0    0    0  501 -0.00000000000E+00  0.00000000000E+00  0.21996846154E+04  0.21996846154E+04  0.00000000000E+00 0.  1.
          2   -1    0    0  501    0  0.00000000000E+00 -0.00000000000E+00 -0.18248595108E+04  0.18248595108E+04  0.00000000000E+00 0. -1.
         23    2    1    2    0    0  0.15067565726E+04 -0.76423373822E+03 -0.69228457770E+03  0.18280457779E+04  0.90137971661E+02 0.  0.
        254    2    1    2    0    0 -0.15067565726E+04  0.76423373822E+03  0.10671096823E+04  0.21964983483E+04  0.91187353519E+03 0.  0.
        -24    2    4    4    0    0 -0.43389944640E+03 -0.16573849803E+03  0.43150390309E+03  0.63889553855E+03  0.79081675967E+02 0.  0.
         24    2    4    4    0    0 -0.10728571262E+04  0.92997223625E+03  0.63560577924E+03  0.15576028098E+04  0.79126688645E+02 0.  0.
         11    1    3    3    0    0  0.10991249608E+04 -0.57489847504E+03 -0.46812745989E+03  0.13257930663E+04  0.00000000000E+00 0. -1.
        -11    1    3    3    0    0  0.40763161186E+03 -0.18933526318E+03 -0.22415711780E+03  0.50225271162E+03  0.00000000000E+00 0.  1.
          4    1    6    6  502    0 -0.88114065419E+03  0.74111992311E+03  0.54309190218E+03  0.12730343307E+04  0.00000000000E+00 0. -1.
          3    1    5    5  503    0 -0.38818062451E+03 -0.16714323354E+03  0.36651062557E+03  0.55942032178E+03  0.00000000000E+00 0. -1.
         -4    1    5    5    0  503 -0.45718821890E+02  0.14047355109E+01  0.64993277526E+02  0.79475216769E+02  0.00000000000E+00 0.  1.
         -3    1    6    6    0  502 -0.19171647205E+03  0.18885231314E+03  0.92513877057E+02  0.28456847907E+03  0.00000000000E+00 0.  1.
<mgrwt>
<rscale>  0 0.40070515E+04</rscale>
<asrwt>0</asrwt>
<pdfrwt beam="1">  1        2 0.28074762E+00 0.40070515E+04</pdfrwt>
<pdfrwt beam="2">  1       -2 0.33841302E+00 0.40070515E+04</pdfrwt>
<totfact> 0.12122241E-01</totfact>
</mgrwt>
</event>
<event>
12    1  0.1556559E-007  0.2382411E+04  0.7818608E-02  0.8446118E-01
          3   -1    0    0  501    0  0.00000000000E+00  0.00000000000E+00  0.66281755926E+03  0.66281755926E+03  0.00000000000E+00 0. -1.
         -3   -1    0    0    0  501 -0.00000000000E+00 -0.00000000000E+00 -0.21408156324E+04  0.21408156324E+04  0.00000000000E+00 0.  1.
         23    2    1    2    0    0  0.39157910014E+03 -0.31110648503E+03 -0.16763625675E+04  0.17517466006E+04  0.91122217741E+02 0.  0.
        254    2    1    2    0    0 -0.39157910014E+03  0.31110648503E+03  0.19836449432E+03  0.10518865910E+04  0.90387802887E+03 0.  0.
        -24    2    4    4    0    0 -0.28804205492E+03 -0.21923958797E+03  0.32315122544E+03  0.49127997996E+03  0.76779436488E+02 0.  0.
         24    2    4    4    0    0 -0.10353704522E+03  0.53034607300E+03 -0.12478673112E+03  0.56060661107E+03  0.81982725157E+02 0.  0.
         11    1    3    3    0    0  0.12047142019E+03 -0.46464258464E+02 -0.39746558659E+03  0.41791288915E+03  0.00000000000E+00 0. -1.
        -11    1    3    3    0    0  0.27110767995E+03 -0.26464222657E+03 -0.12788969809E+04  0.13338337115E+04  0.00000000000E+00 0.  1.
          4    1    6    6  502    0 -0.95809745507E+02  0.43800527114E+03 -0.13275140748E+03  0.46760139122E+03  0.00000000000E+00 0. -1.
          1    1    5    5  503    0 -0.21920931419E+03 -0.20159426787E+03  0.27568226092E+03  0.40582469276E+03  0.00000000000E+00 0. -1.
         -2    1    5    5    0  503 -0.68832740732E+02 -0.17645320105E+02  0.47468964517E+02  0.85455287201E+02  0.00000000000E+00 0.  1.
         -3    1    6    6    0  502 -0.77272997164E+01  0.92340801861E+02  0.79646763610E+01  0.93005219847E+02  0.00000000000E+00 0.  1.
<mgrwt>
<rscale>  0 0.23824107E+04</rscale>
<asrwt>0</asrwt>
<pdfrwt beam="1">  1        3 0.10197193E+00 0.23824107E+04</pdfrwt>
<pdfrwt beam="2">  1       -3 0.32935625E+00 0.23824107E+04</pdfrwt>
<totfact> 0.51145810E-02</totfact>
</mgrwt>
</event>
<event>
12    1  0.1556559E-007  0.2667013E+04  0.7818608E-02  0.8345788E-01
         -2   -1    0    0    0  501 -0.00000000000E+00  0.00000000000E+00  0.42454722577E+04  0.42454722577E+04  0.00000000000E+00 0. -1.
          2   -1    0    0  501    0  0.00000000000E+00 -0.00000000000E+00 -0.41885561683E+03  0.41885561683E+03  0.00000000000E+00 0.  1.
         23    2    1    2    0    0  0.69440911137E+03 -0.39110790404E+03  0.32229256922E+04  0.33212306864E+04  0.90298661968E+02 0.  0.
        254    2    1    2    0    0 -0.69440911137E+03  0.39110790404E+03  0.60369094866E+03  0.13430971881E+04  0.89682656553E+03 0.  0.
        -24    2    4    4    0    0 -0.41813515237E+03  0.18411241316E+03 -0.16848042942E+03  0.49350964878E+03  0.80198079889E+02 0.  0.
         24    2    4    4    0    0 -0.27627395900E+03  0.20699549088E+03  0.77217137808E+03  0.84958753932E+03  0.79849334205E+02 0.  0.
         13    1    3    3    0    0  0.68437877413E+03 -0.37322906339E+03  0.31708224693E+04  0.32652395581E+04  0.00000000000E+00 0. -1.
        -13    1    3    3    0    0  0.10030337244E+02 -0.17878840647E+02  0.52103222880E+02  0.55991128249E+02  0.00000000000E+00 0.  1.
          4    1    6    6  502    0 -0.25604907724E+03  0.16261218435E+03  0.69483552153E+03  0.75815582464E+03  0.00000000000E+00 0. -1.
          1    1    5    5  503    0 -0.28232997374E+03  0.13498934883E+03 -0.15277382427E+03  0.34824155374E+03  0.00000000000E+00 0. -1.
         -2    1    5    5    0  503 -0.13580517863E+03  0.49123064331E+02 -0.15706605149E+02  0.14526809504E+03  0.00000000000E+00 0.  1.
         -3    1    6    6    0  502 -0.20224881763E+02  0.44383306533E+02  0.77335856548E+02  0.91431714678E+02  0.00000000000E+00 0.  1.
<mgrwt>
<rscale>  0 0.26670132E+04</rscale>
<asrwt>0</asrwt>
<pdfrwt beam="1">  1        2 0.64439328E-01 0.26670132E+04</pdfrwt>
<pdfrwt beam="2">  1       -2 0.65314955E+00 0.26670132E+04</pdfrwt>
<totfact> 0.21455154E-02</totfact>
</mgrwt>
</event>
<event>
12    1  0.1556559E-007  0.2600178E+04  0.7818608E-02  0.8368141E-01
         -1   -1    0    0    0  501 -0.00000000000E+00  0.00000000000E+00  0.99949808940E+03  0.99949808940E+03  0.00000000000E+00 0.  1.
          1   -1    0    0  501    0  0.00000000000E+00 -0.00000000000E+00 -0.16910798344E+04  0.16910798344E+04  0.00000000000E+00 0. -1.
         23    2    1    2    0    0 -0.31299095153E+03 -0.73525732898E+03  0.54090094207E+03  0.96947678073E+03  0.93513227367E+02 0.  0.
        254    2    1    2    0    0  0.31299095153E+03  0.73525732898E+03 -0.12324826871E+04  0.17211011431E+04  0.89699994159E+03 0.  0.
        -24    2    4    4    0    0  0.17501667237E+03  0.53592472586E+02  0.94465055087E+02  0.22074669701E+03  0.79388090324E+02 0.  0.
         24    2    4    4    0    0  0.13797427916E+03  0.68166485640E+03 -0.13269477422E+04  0.15003544461E+04  0.81051065566E+02 0.  0.
         11    1    3    3    0    0 -0.16747187905E+03 -0.37392092953E+03  0.22162038357E+03  0.46581035436E+03  0.00000000000E+00 0. -1.
        -11    1    3    3    0    0 -0.14551907248E+03 -0.36133639945E+03  0.31928055850E+03  0.50366642638E+03  0.00000000000E+00 0.  1.
          2    1    6    6  502    0  0.72483344260E+01  0.24299429634E+02 -0.89871246356E+02  0.93380091851E+02  0.00000000000E+00 0. -1.
          3    1    5    5  503    0  0.38839403573E+02  0.21041874342E+02 -0.10922097279E+02  0.45503318062E+02  0.00000000000E+00 0. -1.
         -4    1    5    5    0  503  0.13617726880E+03  0.32550598244E+02  0.10538715237E+03  0.17524337895E+03  0.00000000000E+00 0.  1.
         -1    1    6    6    0  502  0.13072594474E+03  0.65736542676E+03 -0.12370764958E+04  0.14069743542E+04  0.00000000000E+00 0.  1.
<mgrwt>
<rscale>  0 0.26001777E+04</rscale>
<asrwt>0</asrwt>
<pdfrwt beam="1">  1        1 0.26016613E+00 0.26001777E+04</pdfrwt>
<pdfrwt beam="2">  1       -1 0.15376894E+00 0.26001777E+04</pdfrwt>
<totfact> 0.13884394E+00</totfact>
</mgrwt>
</event>
<event>
12    1  0.1556559E-007  0.1364028E+04  0.7818608E-02  0.8980277E-01
         -2   -1    0    0    0  501 -0.00000000000E+00  0.00000000000E+00  0.11714070180E+04  0.11714070180E+04  0.00000000000E+00 0.  1.
          2   -1    0    0  501    0  0.00000000000E+00 -0.00000000000E+00 -0.39708054159E+03  0.39708054159E+03  0.00000000000E+00 0. -1.
         23    2    1    2    0    0 -0.70359469972E+02 -0.35011776238E+03  0.69082315486E+02  0.37495776489E+03  0.91038764226E+02 0.  0.
        254    2    1    2    0    0  0.70359469972E+02  0.35011776238E+03  0.70524416093E+03  0.11935297947E+04  0.89420978623E+03 0.  0.
        -24    2    4    4    0    0  0.20475515545E+03 -0.25196850227E+03  0.31324301562E+03  0.45824384762E+03  0.80333288392E+02 0.  0.
         24    2    4    4    0    0 -0.13439568548E+03  0.60208626465E+03  0.39200114530E+03  0.73528594709E+03  0.80065321569E+02 0.  0.
         13    1    3    3    0    0 -0.54243020450E+02 -0.34808776401E+03  0.66488525686E+02  0.35850818787E+03  0.00000000000E+00 0. -1.
        -13    1    3    3    0    0 -0.16116449522E+02 -0.20299983637E+01  0.25937897999E+01  0.16449577018E+02  0.00000000000E+00 0.  1.
          4    1    6    6  502    0 -0.13707192993E+02  0.32551529031E+02  0.46182382724E+02  0.58140361678E+02  0.00000000000E+00 0. -1.
          3    1    5    5  503    0  0.66435438881E+02 -0.37400773007E+02  0.99104657916E+02  0.12503686889E+03  0.00000000000E+00 0. -1.
         -4    1    5    5    0  503  0.13831971657E+03 -0.21456772926E+03  0.21413835771E+03  0.33320697873E+03  0.00000000000E+00 0.  1.
         -3    1    6    6    0  502 -0.12068849249E+03  0.56953473562E+03  0.34581876258E+03  0.67714558541E+03  0.00000000000E+00 0.  1.
<mgrwt>
<rscale>  0 0.13640278E+04</rscale>
<asrwt>0</asrwt>
<pdfrwt beam="1">  1        2 0.61089315E-01 0.13640278E+04</pdfrwt>
<pdfrwt beam="2">  1       -2 0.18021646E+00 0.13640278E+04</pdfrwt>
<totfact> 0.14121681E+01</totfact>
</mgrwt>
</event>
<event>
12    1  0.1556559E-007  0.1389517E+04  0.7818608E-02  0.8961442E-01
          1   -1    0    0  501    0  0.00000000000E+00  0.00000000000E+00  0.77448674234E+03  0.77448674234E+03  0.00000000000E+00 0. -1.
         -1   -1    0    0    0  501 -0.00000000000E+00 -0.00000000000E+00 -0.62323750137E+03  0.62323750137E+03  0.00000000000E+00 0.  1.
         23    2    1    2    0    0  0.32989654495E+03 -0.18903802496E+03 -0.82550762471E+02  0.39996851967E+03  0.92698883999E+02 0.  0.
        254    2    1    2    0    0 -0.32989654495E+03  0.18903802496E+03  0.23380000344E+03  0.99775572403E+03  0.89234911217E+03 0.  0.
        -24    2    4    4    0    0 -0.52017415681E+03 -0.15302013417E+03  0.29493034937E+02  0.54901369458E+03  0.80931346561E+02 0.  0.
         24    2    4    4    0    0  0.19027761186E+03  0.34205815913E+03  0.20430696850E+03  0.44874202945E+03  0.80116900946E+02 0.  0.
         13    1    3    3    0    0  0.21785837204E+03 -0.76366616248E+02 -0.66631408685E+02  0.24027874431E+03  0.00000000000E+00 0.  1.
        -13    1    3    3    0    0  0.11203817291E+03 -0.11267140871E+03 -0.15919353787E+02  0.15968977536E+03  0.00000000000E+00 0. -1.
          4    1    6    6  502    0  0.60429082243E+02  0.45122688241E+02  0.36341648714E+02  0.83716464367E+02  0.00000000000E+00 0. -1.
          1    1    5    5  503    0 -0.15071916491E+03 -0.10107303674E+02 -0.68828262324E+01  0.15121440922E+03  0.00000000000E+00 0. -1.
         -2    1    5    5    0  503 -0.36945499190E+03 -0.14291283050E+03  0.36375861169E+02  0.39779928537E+03  0.00000000000E+00 0.  1.
         -3    1    6    6    0  502  0.12984852962E+03  0.29693547089E+03  0.16796531978E+03  0.36502556509E+03  0.00000000000E+00 0.  1.
<mgrwt>
<rscale>  0 0.13895167E+04</rscale>
<asrwt>0</asrwt>
<pdfrwt beam="1">  1        1 0.11915181E+00 0.13895167E+04</pdfrwt>
<pdfrwt beam="2">  1       -1 0.95882693E-01 0.13895167E+04</pdfrwt>
<totfact> 0.23838631E+01</totfact>
</mgrwt>
</event>
<event>
12    1  0.1556559E-007  0.1574314E+04  0.7818608E-02  0.8836485E-01
          2   -1    0    0  501    0  0.00000000000E+00  0.00000000000E+00  0.21337656193E+04  0.21337656193E+04  0.00000000000E+00 0.  1.
         -2   -1    0    0    0  501 -0.00000000000E+00 -0.00000000000E+00 -0.29038612677E+03  0.29038612677E+03  0.00000000000E+00 0. -1.
         23    2    1    2    0    0  0.17293813714E+03 -0.13468421310E+03  0.13642779727E+04  0.13848047470E+04  0.91555251445E+02 0.  0.
        254    2    1    2    0    0 -0.17293813714E+03  0.13468421310E+03  0.47910151983E+03  0.10393469990E+04  0.89591097860E+03 0.  0.
        -24    2    4    4    0    0  0.11030475341E+03  0.31026308687E+03  0.58909066107E+03  0.67952261347E+03  0.79327508272E+02 0.  0.
         24    2    4    4    0    0 -0.28324289055E+03 -0.17557887376E+03 -0.10998914123E+03  0.35982438557E+03  0.79507869445E+02 0.  0.
         11    1    3    3    0    0  0.11849853926E+03 -0.12733905160E+03  0.11718415965E+04  0.11846813349E+04  0.00000000000E+00 0.  1.
        -11    1    3    3    0    0  0.54439597885E+02 -0.73451614991E+01  0.19243637620E+03  0.20012341217E+03  0.00000000000E+00 0. -1.
          4    1    6    6  502    0 -0.47724520700E+02 -0.49788869009E+02 -0.52559017146E+02  0.86712234642E+02  0.00000000000E+00 0. -1.
          3    1    5    5  503    0  0.33708110195E+02  0.15195572134E+03  0.34687000900E+03  0.38019150580E+03  0.00000000000E+00 0. -1.
         -4    1    5    5    0  503  0.76596643212E+02  0.15830736553E+03  0.24222065207E+03  0.29933110767E+03  0.00000000000E+00 0.  1.
         -3    1    6    6    0  502 -0.23551836985E+03 -0.12579000476E+03 -0.57430124087E+02  0.27311215093E+03  0.00000000000E+00 0.  1.
<mgrwt>
<rscale>  0 0.15743137E+04</rscale>
<asrwt>0</asrwt>
<pdfrwt beam="1">  1        2 0.32827162E+00 0.15743137E+04</pdfrwt>
<pdfrwt beam="2">  1       -2 0.44674790E-01 0.15743137E+04</pdfrwt>
<totfact> 0.25699244E+01</totfact>
</mgrwt>
</event>
<event>
12    1  0.1556559E-007  0.2300821E+04  0.7818608E-02  0.8477597E-01
         -1   -1    0    0    0  501 -0.00000000000E+00  0.00000000000E+00  0.10909943938E+04  0.10909943938E+04  0.00000000000E+00 0.  1.
          1   -1    0    0  501    0  0.00000000000E+00 -0.00000000000E+00 -0.12130624218E+04  0.12130624218E+04  0.00000000000E+00 0. -1.
         23    2    1    2    0    0 -0.11204677251E+02 -0.52154354819E+03  0.77327918108E+03  0.93708553302E+03  0.89640319420E+02 0.  0.
        254    2    1    2    0    0  0.11204677251E+02  0.52154354819E+03 -0.89534720914E+03  0.13669712826E+04  0.89153275042E+03 0.  0.
        -24    2    4    4    0    0  0.74658755762E+01  0.75488297502E+03 -0.52863079885E+03  0.92504196410E+03  0.79674767616E+02 0.  0.
         24    2    4    4    0    0  0.37388016751E+01 -0.23333942683E+03 -0.36671641029E+03  0.44192931849E+03  0.79745408709E+02 0.  0.
         11    1    3    3    0    0 -0.10840158439E+02 -0.51748693827E+03  0.73711940238E+03  0.90069709319E+03  0.00000000000E+00 0.  1.
        -11    1    3    3    0    0 -0.36451881177E+00 -0.40566099150E+01  0.36159778699E+02  0.36388439834E+02  0.00000000000E+00 0. -1.
          4    1    6    6  502    0 -0.96344061694E+00 -0.22971713692E+03 -0.36972201218E+03  0.43527607045E+03  0.00000000000E+00 0. -1.
          3    1    5    5  503    0 -0.13460920630E+02  0.66998347725E+03 -0.48573887316E+03  0.82764805870E+03  0.00000000000E+00 0. -1.
         -4    1    5    5    0  503  0.20926796207E+02  0.84899497769E+02 -0.42891925689E+02  0.97393905406E+02  0.00000000000E+00 0.  1.
         -3    1    6    6    0  502  0.47022422920E+01 -0.36222899100E+01  0.30056018896E+01  0.66532480402E+01  0.00000000000E+00 0.  1.
<mgrwt>
<rscale>  0 0.23008210E+04</rscale>
<asrwt>0</asrwt>
<pdfrwt beam="1">  1        1 0.18662499E+00 0.23008210E+04</pdfrwt>
<pdfrwt beam="2">  1       -1 0.16784529E+00 0.23008210E+04</pdfrwt>
<totfact> 0.24116689E+00</totfact>
</mgrwt>
</event>
<event>
12    1  0.1556559E-007  0.2318263E+04  0.7818608E-02  0.8470755E-01
         -2   -1    0    0    0  501 -0.00000000000E+00  0.00000000000E+00  0.14391178080E+04  0.14391178080E+04  0.00000000000E+00 0.  1.
          2   -1    0    0  501    0  0.00000000000E+00 -0.00000000000E+00 -0.93361769086E+03  0.93361769086E+03  0.00000000000E+00 0. -1.
         23    2    1    2    0    0  0.47845157112E+03  0.19181972824E+03 -0.63782162196E+03  0.82524268805E+03  0.92186542825E+02 0.  0.
        254    2    1    2    0    0 -0.47845157112E+03 -0.19181972824E+03  0.11433217391E+04  0.15474928108E+04  0.90655319001E+03 0.  0.
        -24    2    4    4    0    0 -0.27649012202E+03  0.16279044608E+03 -0.56388464111E+00  0.33038697813E+03  0.78789088361E+02 0.  0.
         24    2    4    4    0    0 -0.20196144910E+03 -0.35461017433E+03  0.11438856237E+04  0.12171058326E+04  0.79595760380E+02 0.  0.
         11    1    3    3    0    0  0.24019294821E+03  0.11816583953E+03 -0.39508565683E+03  0.47723002236E+03  0.00000000000E+00 0.  1.
        -11    1    3    3    0    0  0.23825862291E+03  0.73653888709E+02 -0.24273596513E+03  0.34801266569E+03  0.00000000000E+00 0. -1.
          2    1    6    6  502    0 -0.14988985510E+03 -0.31548636278E+03  0.99749983785E+03  0.10568843552E+04  0.00000000000E+00 0. -1.
          3    1    5    5  503    0 -0.21033609516E+03  0.11724138119E+03 -0.34367886351E+02  0.24324466285E+03  0.00000000000E+00 0. -1.
         -4    1    5    5    0  503 -0.66154026859E+02  0.45549064893E+02  0.33804001710E+02  0.87142315288E+02  0.00000000000E+00 0.  1.
         -1    1    6    6    0  502 -0.52071594006E+02 -0.39123811552E+02  0.14638578584E+03  0.16022147743E+03  0.00000000000E+00 0.  1.
<mgrwt>
<rscale>  0 0.23182630E+04</rscale>
<asrwt>0</asrwt>
<pdfrwt beam="1">  1        2 0.14363349E+00 0.23182630E+04</pdfrwt>
<pdfrwt beam="2">  1       -2 0.22140274E+00 0.23182630E+04</pdfrwt>
<totfact> 0.24395388E+00</totfact>
</mgrwt>
</event>
<event>
12    1  0.1556559E-007  0.2005062E+04  0.7818608E-02  0.8604258E-01
         -1   -1    0    0    0  501 -0.00000000000E+00  0.00000000000E+00  0.57509678807E+03  0.57509678807E+03  0.00000000000E+00 0.  1.
          1   -1    0    0  501    0  0.00000000000E+00 -0.00000000000E+00 -0.17476509338E+04  0.17476509338E+04  0.00000000000E+00 0. -1.
         23    2    1    2    0    0  0.58855382405E+03  0.20620174682E+02 -0.10949093918E+04  0.12463532450E+04  0.88028630056E+02 0.  0.
        254    2    1    2    0    0 -0.58855382405E+03 -0.20620174682E+02 -0.77644753927E+02  0.10763944768E+04  0.89765002454E+03 0.  0.
        -24    2    4    4    0    0  0.88809485960E+02 -0.30659031595E+03 -0.71857885805E+02  0.33682916123E+03  0.80034876585E+02 0.  0.
         24    2    4    4    0    0 -0.67736331001E+03  0.28597014127E+03 -0.57868681219E+01  0.73956531562E+03  0.79519763474E+02 0.  0.
         11    1    3    3    0    0  0.49108130822E+03  0.41459991278E+02 -0.95368159198E+03  0.10734935310E+04  0.00000000000E+00 0. -1.
        -11    1    3    3    0    0  0.97472515831E+02 -0.20839816595E+02 -0.14122779982E+03  0.17285971405E+03  0.00000000000E+00 0.  1.
          2    1    6    6  502    0 -0.44766248799E+03  0.22731047336E+03  0.74599181136E+01  0.50212289813E+03  0.00000000000E+00 0. -1.
          1    1    5    5  503    0  0.10417464528E+03 -0.26593735960E+03 -0.62740236058E+02  0.29242327741E+03  0.00000000000E+00 0. -1.
         -4    1    5    5    0  503 -0.15365159317E+02 -0.40652956349E+02 -0.91176497462E+01  0.44405883818E+02  0.00000000000E+00 0.  1.
         -1    1    6    6    0  502 -0.22970082202E+03  0.58659667901E+02 -0.13246786235E+02  0.23744241749E+03  0.00000000000E+00 0.  1.
<mgrwt>
<rscale>  0 0.20050620E+04</rscale>
<asrwt>0</asrwt>
<pdfrwt beam="1">  1        1 0.26886937E+00 0.20050620E+04</pdfrwt>
<pdfrwt beam="2">  1       -1 0.88476429E-01 0.20050620E+04</pdfrwt>
<totfact> 0.51427413E+00</totfact>
</mgrwt>
</event>
<event>
12    1  0.1556559E-007  0.4448148E+04  0.7818608E-02  0.7919778E-01
          1   -1    0    0  501    0  0.00000000000E+00  0.00000000000E+00  0.28636042941E+04  0.28636042941E+04  0.00000000000E+00 0. -1.
         -1   -1    0    0    0  501 -0.00000000000E+00 -0.00000000000E+00 -0.17273701303E+04  0.17273701303E+04  0.00000000000E+00 0.  1.
         23    2    1    2    0    0 -0.15986107156E+04 -0.72851690177E+03  0.17943439037E+04  0.25134062306E+04  0.10605535871E+03 0.  0.
        254    2    1    2    0    0  0.15986107156E+04  0.72851690177E+03 -0.65810973987E+03  0.20775681939E+04  0.89268587678E+03 0.  0.
        -24    2    4    4    0    0  0.88873335270E+03  0.25060320540E+02 -0.59548082434E+03  0.10730189807E+04  0.79355711233E+02 0.  0.
         24    2    4    4    0    0  0.70987736287E+03  0.70345658123E+03 -0.62628915525E+02  0.10045492132E+04  0.80123085019E+02 0.  0.
         11    1    3    3    0    0 -0.83841230757E+03 -0.43265938411E+03  0.92504687108E+03  0.13213027866E+04  0.00000000000E+00 0. -1.
        -11    1    3    3    0    0 -0.76019840799E+03 -0.29585751766E+03  0.86929703258E+03  0.11921034440E+04  0.00000000000E+00 0.  1.
          2    1    6    6  502    0  0.56213703054E+03  0.57578915254E+03 -0.79236565249E+02  0.80858495074E+03  0.00000000000E+00 0. -1.
          3    1    5    5  503    0  0.33903459247E+03 -0.28928292051E+02 -0.22442772831E+03  0.40761391808E+03  0.00000000000E+00 0. -1.
         -4    1    5    5    0  503  0.54969876022E+03  0.53988612592E+02 -0.37105309603E+03  0.66540506262E+03  0.00000000000E+00 0.  1.
         -1    1    6    6    0  502  0.14774033232E+03  0.12766742868E+03  0.16607649724E+02  0.19596426249E+03  0.00000000000E+00 0.  1.
<mgrwt>
<rscale>  0 0.44481477E+04</rscale>
<asrwt>0</asrwt>
<pdfrwt beam="1">  1        1 0.44055451E+00 0.44481477E+04</pdfrwt>
<pdfrwt beam="2">  1       -1 0.26574925E+00 0.44481477E+04</pdfrwt>
<totfact> 0.31174329E-02</totfact>
</mgrwt>
</event>
<event>
12    1  0.1556559E-007  0.1478179E+04  0.7818608E-02  0.8899095E-01
         -1   -1    0    0    0  501 -0.00000000000E+00  0.00000000000E+00  0.84005380437E+03  0.84005380437E+03  0.00000000000E+00 0.  1.
          1   -1    0    0  501    0  0.00000000000E+00 -0.00000000000E+00 -0.65025953957E+03  0.65025953957E+03  0.00000000000E+00 0. -1.
         23    2    1    2    0    0 -0.22048005285E+03 -0.21035816008E+03  0.42415954005E+03  0.52955669309E+03  0.87504094605E+02 0.  0.
        254    2    1    2    0    0  0.22048005285E+03  0.21035816008E+03 -0.23436527524E+03  0.96075665084E+03  0.88049091459E+03 0.  0.
        -24    2    4    4    0    0  0.16307721718E+03  0.11172326831E+03 -0.56403313755E+03  0.60291881682E+03  0.79381685402E+02 0.  0.
         24    2    4    4    0    0  0.57402835665E+02  0.98634891772E+02  0.32966786230E+03  0.35783783402E+03  0.79643509493E+02 0.  0.
         11    1    3    3    0    0 -0.15543701280E+03 -0.99612310652E+02  0.20794047471E+03  0.27806926908E+03  0.00000000000E+00 0. -1.
        -11    1    3    3    0    0 -0.65043040043E+02 -0.11074584943E+03  0.21621906534E+03  0.25148742402E+03  0.00000000000E+00 0.  1.
          2    1    6    6  502    0  0.13751635395E+01  0.32650891652E+02  0.19520390262E+03  0.19792052799E+03  0.00000000000E+00 0. -1.
          3    1    5    5  503    0  0.61971822505E+02  0.40429603671E+01 -0.21813567594E+03  0.22680393610E+03  0.00000000000E+00 0. -1.
         -4    1    5    5    0  503  0.10110539468E+03  0.10768030794E+03 -0.34589746161E+03  0.37611488072E+03  0.00000000000E+00 0.  1.
         -1    1    6    6    0  502  0.56027672125E+02  0.65984000120E+02  0.13446395968E+03  0.15991730603E+03  0.00000000000E+00 0.  1.
<mgrwt>
<rscale>  0 0.14781786E+04</rscale>
<asrwt>0</asrwt>
<pdfrwt beam="1">  1        1 0.10003993E+00 0.14781786E+04</pdfrwt>
<pdfrwt beam="2">  1       -1 0.12923905E+00 0.14781786E+04</pdfrwt>
<totfact> 0.15186495E+01</totfact>
</mgrwt>
</event>
<event>
12    1  0.1556559E-007  0.1391823E+04  0.7818608E-02  0.8959759E-01
          3   -1    0    0  501    0  0.00000000000E+00  0.00000000000E+00  0.46148728801E+03  0.46148728801E+03  0.00000000000E+00 0. -1.
         -3   -1    0    0    0  501 -0.00000000000E+00 -0.00000000000E+00 -0.10494179582E+04  0.10494179582E+04  0.00000000000E+00 0.  1.
         23    2    1    2    0    0 -0.21783902629E+03  0.26224956175E+03  0.10093308848E+02  0.35361254447E+03  0.93334252612E+02 0.  0.
        254    2    1    2    0    0  0.21783902629E+03 -0.26224956175E+03 -0.59802397901E+03  0.11572927017E+04  0.93030373747E+03 0.  0.
        -24    2    4    4    0    0 -0.32920872832E+03 -0.20909435388E+03 -0.95317586163E+02  0.40836810003E+03  0.74700918742E+02 0.  0.
         24    2    4    4    0    0  0.54704775461E+03 -0.53155207872E+02 -0.50270639285E+03  0.74892460168E+03  0.78023199457E+02 0.  0.
         11    1    3    3    0    0 -0.17488152058E+03  0.20142872760E+03 -0.31027288334E+02  0.26855124495E+03  0.00000000000E+00 0. -1.
        -11    1    3    3    0    0 -0.42957505707E+02  0.60820834147E+02  0.41120597182E+02  0.85061299517E+02  0.00000000000E+00 0.  1.
          4    1    6    6  502    0  0.29439276455E+03  0.10376126925E+02 -0.27118830345E+03  0.40039712756E+03  0.00000000000E+00 0. -1.
          3    1    5    5  503    0 -0.87935934124E+02 -0.82679132245E+02 -0.56364413418E+02  0.13321229117E+03  0.00000000000E+00 0. -1.
         -4    1    5    5    0  503 -0.24127279420E+03 -0.12641522163E+03 -0.38953172745E+02  0.27515580885E+03  0.00000000000E+00 0.  1.
         -3    1    6    6    0  502  0.25265499005E+03 -0.63531334797E+02 -0.23151808940E+03  0.34852747412E+03  0.00000000000E+00 0.  1.
<mgrwt>
<rscale>  0 0.13918233E+04</rscale>
<asrwt>0</asrwt>
<pdfrwt beam="1">  1        3 0.70998045E-01 0.13918233E+04</pdfrwt>
<pdfrwt beam="2">  1       -3 0.16144891E+00 0.13918233E+04</pdfrwt>
<totfact> 0.12834176E+00</totfact>
</mgrwt>
</event>
<event>
12    1  0.1556559E-007  0.1136427E+04  0.7818608E-02  0.9170397E-01
          2   -1    0    0  501    0  0.00000000000E+00  0.00000000000E+00  0.17766545688E+04  0.17766545688E+04  0.00000000000E+00 0. -1.
         -2   -1    0    0    0  501 -0.00000000000E+00 -0.00000000000E+00 -0.18172738348E+03  0.18172738348E+03  0.00000000000E+00 0.  1.
         23    2    1    2    0    0 -0.12545444953E+03 -0.23260105131E+02  0.58461567271E+03  0.60517931422E+03  0.90480197762E+02 0.  0.
        254    2    1    2    0    0  0.12545444953E+03  0.23260105131E+02  0.10103115126E+04  0.13532026381E+04  0.89114991766E+03 0.  0.
        -24    2    4    4    0    0  0.32493557973E+03  0.29089778524E+03  0.22757986664E+03  0.49852644943E+03  0.80816908188E+02 0.  0.
         24    2    4    4    0    0 -0.19948113020E+03 -0.26763768011E+03  0.78273164600E+03  0.85467618866E+03  0.79874330611E+02 0.  0.
         13    1    3    3    0    0 -0.88905070955E+02 -0.23968229741E+02  0.21669551661E+03  0.23544751984E+03  0.00000000000E+00 0.  1.
        -13    1    3    3    0    0 -0.36549378571E+02  0.70812461021E+00  0.36792015610E+03  0.36973179438E+03  0.00000000000E+00 0. -1.
          2    1    6    6  502    0 -0.19662791124E+03 -0.26859460015E+03  0.73517117131E+03  0.80702059815E+03  0.00000000000E+00 0. -1.
          3    1    5    5  503    0  0.31541548631E+03  0.28082951907E+03  0.19919005013E+03  0.46693556714E+03  0.00000000000E+00 0. -1.
         -4    1    5    5    0  503  0.95200934138E+01  0.10068266168E+02  0.28389816513E+02  0.31590882290E+02  0.00000000000E+00 0.  1.
         -1    1    6    6    0  502 -0.28532189590E+01  0.95692003857E+00  0.47560474685E+02  0.47655590508E+02  0.00000000000E+00 0.  1.
<mgrwt>
<rscale>  0 0.11364274E+04</rscale>
<asrwt>0</asrwt>
<pdfrwt beam="1">  1        2 0.27333146E+00 0.11364274E+04</pdfrwt>
<pdfrwt beam="2">  1       -2 0.27958060E-01 0.11364274E+04</pdfrwt>
<totfact> 0.10298352E+02</totfact>
</mgrwt>
</event>
<event>
12    1  0.1556559E-007  0.1665137E+04  0.7818608E-02  0.8781502E-01
         -2   -1    0    0    0  501 -0.00000000000E+00  0.00000000000E+00  0.62993465063E+03  0.62993465063E+03  0.00000000000E+00 0.  1.
          2   -1    0    0  501    0  0.00000000000E+00 -0.00000000000E+00 -0.11003845560E+04  0.11003845560E+04  0.00000000000E+00 0. -1.
         23    2    1    2    0    0 -0.26892765918E+03 -0.18672306929E+03 -0.67867633897E+03  0.75833250442E+03  0.85317194703E+02 0.  0.
        254    2    1    2    0    0  0.26892765918E+03  0.18672306929E+03  0.20822643363E+03  0.97198670217E+03  0.89118590152E+03 0.  0.
        -24    2    4    4    0    0 -0.11518976243E+03  0.16594271023E+03  0.45769714670E+03  0.50680287717E+03  0.80974154909E+02 0.  0.
         24    2    4    4    0    0  0.38411742161E+03  0.20780359062E+02 -0.24947071307E+03  0.46518382500E+03  0.78627841482E+02 0.  0.
         11    1    3    3    0    0 -0.25826090162E+03 -0.17568733790E+03 -0.67302786110E+03  0.74197792138E+03  0.00000000000E+00 0. -1.
        -11    1    3    3    0    0 -0.10666757558E+02 -0.11035731392E+02 -0.56484778686E+01  0.16354583039E+02  0.00000000000E+00 0.  1.
          2    1    6    6  502    0  0.15497630555E+03 -0.29460330432E+02 -0.91478650680E+02  0.18235654603E+03  0.00000000000E+00 0. -1.
          1    1    5    5  503    0 -0.59204877742E+02  0.75098840852E+02  0.31119988389E+03  0.32556170103E+03  0.00000000000E+00 0. -1.
         -2    1    5    5    0  503 -0.55984884691E+02  0.90843869375E+02  0.14649726281E+03  0.18124117614E+03  0.00000000000E+00 0.  1.
         -1    1    6    6    0  502  0.22914111606E+03  0.50240689494E+02 -0.15799206239E+03  0.28282727897E+03  0.00000000000E+00 0.  1.
<mgrwt>
<rscale>  0 0.16651371E+04</rscale>
<asrwt>0</asrwt>
<pdfrwt beam="1">  1        2 0.16928993E+00 0.16651371E+04</pdfrwt>
<pdfrwt beam="2">  1       -2 0.96913023E-01 0.16651371E+04</pdfrwt>
<totfact> 0.18482164E+01</totfact>
</mgrwt>
</event>
<event>
12    1  0.1556559E-007  0.3842875E+04  0.7818608E-02  0.8037016E-01
          2   -1    0    0  501    0  0.00000000000E+00  0.00000000000E+00  0.20127370072E+04  0.20127370072E+04  0.00000000000E+00 0. -1.
         -2   -1    0    0    0  501 -0.00000000000E+00 -0.00000000000E+00 -0.18342796213E+04  0.18342796213E+04  0.00000000000E+00 0.  1.
         23    2    1    2    0    0  0.12740528197E+04 -0.94946435277E+03  0.96449031498E+03  0.18607755362E+04  0.86895821880E+02 0.  0.
        254    2    1    2    0    0 -0.12740528197E+04  0.94946435277E+03 -0.78603292901E+03  0.19862410923E+04  0.89588658143E+03 0.  0.
        -24    2    4    4    0    0  0.12473889986E+03  0.10521466425E+03 -0.30196136666E+02  0.18453419428E+03  0.80691656801E+02 0.  0.
         24    2    4    4    0    0 -0.13987917195E+04  0.84424968851E+03 -0.75583679234E+03  0.18017068980E+04  0.74045111621E+02 0.  0.
         13    1    3    3    0    0  0.43478400473E+03 -0.30151520200E+03  0.36445514835E+03  0.64247653884E+03  0.00000000000E+00 0.  1.
        -13    1    3    3    0    0  0.83926881493E+03 -0.64794915077E+03  0.60003516664E+03  0.12182989973E+04  0.00000000000E+00 0. -1.
          2    1    6    6  502    0 -0.13974456531E+03  0.73997978492E+02 -0.51575785918E+02  0.16632590311E+03  0.00000000000E+00 0. -1.
          1    1    5    5  503    0  0.13942117040E+02  0.25218978888E+01 -0.30318278444E+02  0.33465513657E+02  0.00000000000E+00 0. -1.
         -2    1    5    5    0  503  0.11079678282E+03  0.10269276637E+03  0.12214177776E+00  0.15106868062E+03  0.00000000000E+00 0.  1.
         -1    1    6    6    0  502 -0.12590471542E+04  0.77025171002E+03 -0.70426100643E+03  0.16353809949E+04  0.00000000000E+00 0.  1.
<mgrwt>
<rscale>  0 0.38428752E+04</rscale>
<asrwt>0</asrwt>
<pdfrwt beam="1">  1        2 0.30965185E+00 0.38428752E+04</pdfrwt>
<pdfrwt beam="2">  1       -2 0.28219686E+00 0.38428752E+04</pdfrwt>
<totfact> 0.21445999E-01</totfact>
</mgrwt>
</event>
<event>
12    1  0.1556559E-007  0.1302695E+04  0.7818608E-02  0.9027431E-01
         -2   -1    0    0    0  501 -0.00000000000E+00  0.00000000000E+00  0.52851149537E+03  0.52851149537E+03  0.00000000000E+00 0.  1.
          2   -1    0    0  501    0  0.00000000000E+00 -0.00000000000E+00 -0.80273234545E+03  0.80273234545E+03  0.00000000000E+00 0. -1.
         23    2    1    2    0    0 -0.22538567370E+03  0.23032823321E+03 -0.16574699576E+03  0.37377382246E+03  0.91569682917E+02 0.  0.
        254    2    1    2    0    0  0.22538567370E+03 -0.23032823321E+03 -0.10847385432E+03  0.95747001836E+03  0.89506003266E+03 0.  0.
        -24    2    4    4    0    0  0.10342075085E+03  0.15177140674E+03  0.31240370354E+03  0.37072560634E+03  0.78172818833E+02 0.  0.
         24    2    4    4    0    0  0.12196492285E+03 -0.38209963996E+03 -0.42087755786E+03  0.58674441202E+03  0.79091776209E+02 0.  0.
         11    1    3    3    0    0 -0.85353733753E+02  0.59164078823E+02 -0.97205801129E+02  0.14224843008E+03  0.00000000000E+00 0. -1.
        -11    1    3    3    0    0 -0.14003193995E+03  0.17116415439E+03 -0.68541194630E+02  0.23152539238E+03  0.00000000000E+00 0.  1.
          2    1    6    6  502    0  0.73005452396E+02 -0.32708189939E+03 -0.34812484748E+03  0.48322176526E+03  0.00000000000E+00 0. -1.
          1    1    5    5  503    0  0.84178789281E+02  0.89674398484E+02  0.25852356928E+03  0.28629006651E+03  0.00000000000E+00 0. -1.
         -2    1    5    5    0  503  0.19241961568E+02  0.62097008260E+02  0.53880134259E+02  0.84435539838E+02  0.00000000000E+00 0.  1.
         -1    1    6    6    0  502  0.48959470453E+02 -0.55017740565E+02 -0.72752710376E+02  0.10352264675E+03  0.00000000000E+00 0.  1.
<mgrwt>
<rscale>  0 0.13026945E+04</rscale>
<asrwt>0</asrwt>
<pdfrwt beam="1">  1        2 0.12349728E+00 0.13026945E+04</pdfrwt>
<pdfrwt beam="2">  1       -2 0.81309461E-01 0.13026945E+04</pdfrwt>
<totfact> 0.44798853E+01</totfact>
</mgrwt>
</event>
<event>
12    1  0.1556559E-007  0.1868862E+04  0.7818608E-02  0.8670513E-01
         -2   -1    0    0    0  501 -0.00000000000E+00  0.00000000000E+00  0.43275225199E+03  0.43275225199E+03  0.00000000000E+00 0. -1.
          2   -1    0    0  501    0  0.00000000000E+00 -0.00000000000E+00 -0.20176929225E+04  0.20176929225E+04  0.00000000000E+00 0.  1.
         23    2    1    2    0    0  0.52743757988E+03  0.14684705659E+03 -0.74273699283E+01  0.55453667099E+03  0.87757022191E+02 0.  0.
        254    2    1    2    0    0 -0.52743757988E+03 -0.14684705659E+03 -0.15775133006E+04  0.18959085035E+04  0.89786768595E+03 0.  0.
        -24    2    4    4    0    0 -0.62186728780E+03  0.20828606087E+03 -0.11482850648E+04  0.13247235691E+04  0.78942623101E+02 0.  0.
         24    2    4    4    0    0  0.94429707919E+02 -0.35513311746E+03 -0.42922823578E+03  0.57118493439E+03  0.83539511813E+02 0.  0.
         11    1    3    3    0    0  0.28790590426E+03  0.71772363933E+02  0.38964375131E+02  0.29926460610E+03  0.00000000000E+00 0. -1.
        -11    1    3    3    0    0  0.23953167562E+03  0.75074692659E+02 -0.46391745059E+02  0.25527206489E+03  0.00000000000E+00 0.  1.
          2    1    6    6  502    0  0.47787746157E+02 -0.13429745419E+03 -0.10918112064E+03  0.17955498319E+03  0.00000000000E+00 0. -1.
          3    1    5    5  503    0 -0.37934253547E+03  0.10176552922E+03 -0.74576126427E+03  0.84286229328E+03  0.00000000000E+00 0. -1.
         -4    1    5    5    0  503 -0.24252475234E+03  0.10652053164E+03 -0.40252380057E+03  0.48186127587E+03  0.00000000000E+00 0.  1.
         -1    1    6    6    0  502  0.46641961763E+02 -0.22083566326E+03 -0.32004711514E+03  0.39162995120E+03  0.00000000000E+00 0.  1.
<mgrwt>
<rscale>  0 0.18688619E+04</rscale>
<asrwt>0</asrwt>
<pdfrwt beam="1">  1        2 0.31041430E+00 0.18688619E+04</pdfrwt>
<pdfrwt beam="2">  1       -2 0.66577269E-01 0.18688619E+04</pdfrwt>
<totfact> 0.12712130E+01</totfact>
</mgrwt>
</event>
<event>
12    1  0.1556559E-007  0.2492696E+04  0.7818608E-02  0.8405592E-01
         -2   -1    0    0    0  501 -0.00000000000E+00  0.00000000000E+00  0.87758921096E+03  0.87758921096E+03  0.00000000000E+00 0.  1.
          2   -1    0    0  501    0  0.00000000000E+00 -0.00000000000E+00 -0.17700578184E+04  0.17700578184E+04  0.00000000000E+00 0. -1.
         23    2    1    2    0    0  0.22172434296E+03  0.59320577995E+03 -0.13207346705E+04  0.14674497698E+04  0.89520810503E+02 0.  0.
        254    2    1    2    0    0 -0.22172434296E+03 -0.59320577995E+03  0.42826606309E+03  0.11801972595E+04  0.89911009831E+03 0.  0.
        -24    2    4    4    0    0 -0.71695379627E+02 -0.18217027307E+03  0.64980487514E+03  0.68331673950E+03  0.79681584233E+02 0.  0.
         24    2    4    4    0    0 -0.15002896333E+03 -0.41103550688E+03 -0.22153881205E+03  0.49688051999E+03  0.79698984616E+02 0.  0.
         11    1    3    3    0    0  0.19284245417E+03  0.57004064483E+03 -0.12598076869E+04  0.13961554200E+04  0.00000000000E+00 0. -1.
        -11    1    3    3    0    0  0.28881888784E+02  0.23165135121E+02 -0.60926983589E+02  0.71294349806E+02  0.00000000000E+00 0.  1.
          4    1    6    6  502    0 -0.74142028574E+02 -0.11998434120E+03 -0.97837326555E+02  0.17165495915E+03  0.00000000000E+00 0. -1.
          1    1    5    5  503    0 -0.50021390861E+00 -0.37174859207E+02  0.51034452908E+02  0.63140603059E+02  0.00000000000E+00 0. -1.
         -2    1    5    5    0  503 -0.71195165718E+02 -0.14499541386E+03  0.59877042223E+03  0.62017613644E+03  0.00000000000E+00 0.  1.
         -3    1    6    6    0  502 -0.75886934758E+02 -0.29105116567E+03 -0.12370148550E+03  0.32522556084E+03  0.00000000000E+00 0.  1.
<mgrwt>
<rscale>  0 0.24926962E+04</rscale>
<asrwt>0</asrwt>
<pdfrwt beam="1">  1        2 0.27231659E+00 0.24926962E+04</pdfrwt>
<pdfrwt beam="2">  1       -2 0.13501373E+00 0.24926962E+04</pdfrwt>
<totfact> 0.31560921E+00</totfact>
</mgrwt>
</event>
<event>
12    1  0.3037919E-007  0.1733899E+04  0.7818608E-02  0.8742263E-01
         -2   -1    0    0    0  501 -0.00000000000E+00  0.00000000000E+00  0.51305312298E+03  0.51305312298E+03  0.00000000000E+00 0.  1.
          2   -1    0    0  501    0  0.00000000000E+00 -0.00000000000E+00 -0.14649575334E+04  0.14649575334E+04  0.00000000000E+00 0. -1.
         23    2    1    2    0    0  0.32660625733E+03 -0.44023270081E+03 -0.68616030105E+03  0.88313536695E+03  0.92928141227E+02 0.  0.
        254    2    1    2    0    0 -0.32660625733E+03  0.44023270081E+03 -0.26574410934E+03  0.10948752894E+04  0.90975573068E+03 0.  0.
        -24    2    4    4    0    0 -0.27333539092E+03 -0.23686613968E+03 -0.15731838499E+03  0.40237645547E+03  0.79623700009E+02 0.  0.
         24    2    4    4    0    0 -0.53270866404E+02  0.67709884049E+03 -0.10842572435E+03  0.69249883393E+03  0.80609380942E+02 0.  0.
         11    1    3    3    0    0  0.30202028428E+03 -0.42035040174E+03 -0.67266332940E+03  0.84875595260E+03  0.00000000000E+00 0. -1.
        -11    1    3    3    0    0  0.24585973051E+02 -0.19882299075E+02 -0.13496971651E+02  0.34379414351E+02  0.00000000000E+00 0.  1.
          4    1    6    6  502    0 -0.25138889576E+02  0.61792446673E+03 -0.98428123293E+02  0.62621937514E+03  0.00000000000E+00 0. -1.
          3    1    5    5  503    0 -0.27310986863E+03 -0.24043177918E+03 -0.16040894779E+03  0.39765245041E+03  0.00000000000E+00 0. -1.
         -4    1    5    5    0  503 -0.22552229575E+00  0.35656395033E+01  0.30905628055E+01  0.47240050622E+01  0.00000000000E+00 0.  1.
         -3    1    6    6    0  502 -0.28131976829E+02  0.59174373764E+02 -0.99976010539E+01  0.66279458790E+02  0.00000000000E+00 0.  1.
<mgrwt>
<rscale>  0 0.17338985E+04</rscale>
<asrwt>0</asrwt>
<pdfrwt beam="1">  1        2 0.22537808E+00 0.17338985E+04</pdfrwt>
<pdfrwt beam="2">  1       -2 0.78931249E-01 0.17338985E+04</pdfrwt>
<totfact> 0.17965914E+01</totfact>
</mgrwt>
</event>
<event>
12    1  0.1556559E-007  0.2174447E+04  0.7818608E-02  0.8529140E-01
          2   -1    0    0  501    0  0.00000000000E+00  0.00000000000E+00  0.12016605069E+04  0.12016605069E+04  0.00000000000E+00 0. -1.
         -2   -1    0    0    0  501 -0.00000000000E+00 -0.00000000000E+00 -0.98368440647E+03  0.98368440647E+03  0.00000000000E+00 0.  1.
         23    2    1    2    0    0 -0.86675835294E+03  0.12849419922E+03  0.28308973281E+03  0.92508210341E+03  0.88635769324E+02 0.  0.
        254    2    1    2    0    0  0.86675835294E+03 -0.12849419922E+03 -0.65113632365E+02  0.12602628100E+04  0.90346099168E+03 0.  0.
        -24    2    4    4    0    0  0.33167444421E+03 -0.32027738440E+03  0.32166197243E+03  0.56801251962E+03  0.81155764032E+02 0.  0.
         24    2    4    4    0    0  0.53508390873E+03  0.19178318519E+03 -0.38677560479E+03  0.69225029037E+03  0.80743523240E+02 0.  0.
         13    1    3    3    0    0 -0.80697724282E+03  0.97805826897E+02  0.25205697035E+03  0.85106460772E+03  0.00000000000E+00 0. -1.
        -13    1    3    3    0    0 -0.59781110116E+02  0.30688372322E+02  0.31032762459E+02  0.74017495691E+02  0.00000000000E+00 0.  1.
          4    1    6    6  502    0  0.45171892800E+02  0.39992173884E+02 -0.53118880650E+02  0.80383389781E+02  0.00000000000E+00 0. -1.
          3    1    5    5  503    0  0.13169867385E+03 -0.12980993977E+03  0.81723596500E+02  0.20217296402E+03  0.00000000000E+00 0. -1.
         -4    1    5    5    0  503  0.19997577036E+03 -0.19046744464E+03  0.23993837593E+03  0.36583955560E+03  0.00000000000E+00 0.  1.
         -3    1    6    6    0  502  0.48991201593E+03  0.15179101130E+03 -0.33365672414E+03  0.61186690058E+03  0.00000000000E+00 0.  1.
<mgrwt>
<rscale>  0 0.21744468E+04</rscale>
<asrwt>0</asrwt>
<pdfrwt beam="1">  1        2 0.18487085E+00 0.21744468E+04</pdfrwt>
<pdfrwt beam="2">  1       -2 0.15133606E+00 0.21744468E+04</pdfrwt>
<totfact> 0.50658196E+00</totfact>
</mgrwt>
</event>
<event>
12    1  0.1556559E-007  0.2259404E+04  0.7818608E-02  0.8494102E-01
         -1   -1    0    0    0  501 -0.00000000000E+00  0.00000000000E+00  0.80479256697E+03  0.80479256697E+03  0.00000000000E+00 0.  1.
          1   -1    0    0  501    0  0.00000000000E+00 -0.00000000000E+00 -0.15857838321E+04  0.15857838321E+04  0.00000000000E+00 0. -1.
         23    2    1    2    0    0  0.76862196251E+03 -0.93364882029E+02 -0.91376135886E+03  0.12011912913E+04  0.91673196761E+02 0.  0.
        254    2    1    2    0    0 -0.76862196251E+03  0.93364882029E+02  0.13277009369E+03  0.11893851078E+04  0.89303544967E+03 0.  0.
        -24    2    4    4    0    0 -0.57598741343E+03  0.54231587809E+02  0.49761030470E+03  0.76735066528E+03  0.80675043306E+02 0.  0.
         24    2    4    4    0    0 -0.19263454908E+03  0.39133294221E+02 -0.36484021101E+03  0.42203444250E+03  0.79782246566E+02 0.  0.
         13    1    3    3    0    0  0.20342917712E+03 -0.43670399646E+02 -0.30300735915E+03  0.36756495155E+03  0.00000000000E+00 0.  1.
        -13    1    3    3    0    0  0.56519278539E+03 -0.49694482383E+02 -0.61075399971E+03  0.83362633979E+03  0.00000000000E+00 0. -1.
          4    1    6    6  502    0 -0.18711035954E+03  0.22680321224E+02 -0.29500710090E+03  0.35007695325E+03  0.00000000000E+00 0. -1.
          3    1    5    5  503    0 -0.41523466573E+03  0.87216464108E+01  0.32747845482E+03  0.52890266884E+03  0.00000000000E+00 0. -1.
         -2    1    5    5    0  503 -0.16075274770E+03  0.45509941398E+02  0.17013184988E+03  0.23844799643E+03  0.00000000000E+00 0.  1.
         -1    1    6    6    0  502 -0.55241895431E+01  0.16452972996E+02 -0.69833110115E+02  0.71957489248E+02  0.00000000000E+00 0.  1.
<mgrwt>
<rscale>  0 0.22594044E+04</rscale>
<asrwt>0</asrwt>
<pdfrwt beam="1">  1        1 0.24396674E+00 0.22594044E+04</pdfrwt>
<pdfrwt beam="2">  1       -1 0.12381424E+00 0.22594044E+04</pdfrwt>
<totfact> 0.29664676E+00</totfact>
</mgrwt>
</event>
<event>
12    1  0.1556559E-007  0.1142527E+04  0.7818608E-02  0.9164705E-01
          2   -1    0    0  501    0  0.00000000000E+00  0.00000000000E+00  0.17771444554E+04  0.17771444554E+04  0.00000000000E+00 0.  1.
         -2   -1    0    0    0  501 -0.00000000000E+00 -0.00000000000E+00 -0.18363292111E+03  0.18363292111E+03  0.00000000000E+00 0. -1.
         23    2    1    2    0    0 -0.19491435886E+03  0.27653981636E+02  0.36382568216E+03  0.42264069793E+03  0.86600707603E+02 0.  0.
        254    2    1    2    0    0  0.19491435886E+03 -0.27653981636E+02  0.12296858521E+04  0.15381366786E+04  0.90276286868E+03 0.  0.
        -24    2    4    4    0    0  0.42236849698E+03 -0.29564565797E+02  0.19014177413E+03  0.47085690459E+03  0.79266131095E+02 0.  0.
         24    2    4    4    0    0 -0.22745413813E+03  0.19105841611E+01  0.10395440780E+04  0.10672797740E+04  0.81824144229E+02 0.  0.
         13    1    3    3    0    0 -0.56015226450E+02 -0.30451094854E+02  0.12490319962E+03  0.14023474622E+03  0.00000000000E+00 0.  1.
        -13    1    3    3    0    0 -0.13889913240E+03  0.58105076490E+02  0.23892248254E+03  0.28240595170E+03  0.00000000000E+00 0. -1.
          2    1    6    6  502    0 -0.24316274183E+02  0.21361150618E+02  0.80457935816E+02  0.86724041544E+02  0.00000000000E+00 0. -1.
          3    1    5    5  503    0  0.12195683363E+02 -0.12430890911E+02  0.19855779563E+02  0.26410485107E+02  0.00000000000E+00 0. -1.
         -4    1    5    5    0  503  0.41017281362E+03 -0.17133674886E+02  0.17028599457E+03  0.44444641948E+03  0.00000000000E+00 0.  1.
         -1    1    6    6    0  502 -0.20313786394E+03 -0.19450566457E+02  0.95908614216E+03  0.98055573242E+03  0.00000000000E+00 0.  1.
<mgrwt>
<rscale>  0 0.11425274E+04</rscale>
<asrwt>0</asrwt>
<pdfrwt beam="1">  1        2 0.27340683E+00 0.11425274E+04</pdfrwt>
<pdfrwt beam="2">  1       -2 0.28251220E-01 0.11425274E+04</pdfrwt>
<totfact> 0.10091353E+02</totfact>
</mgrwt>
</event>
<event>
12    1  0.1556559E-007  0.2191086E+04  0.7818608E-02  0.8522148E-01
         -2   -1    0    0    0  501 -0.00000000000E+00  0.00000000000E+00  0.46142889878E+03  0.46142889878E+03  0.00000000000E+00 0.  1.
          2   -1    0    0  501    0  0.00000000000E+00 -0.00000000000E+00 -0.26010818795E+04  0.26010818795E+04  0.00000000000E+00 0. -1.
         23    2    1    2    0    0 -0.16530879328E+03  0.82427964146E+03 -0.42190268187E+03  0.94802902421E+03  0.11829299770E+03 0.  0.
        254    2    1    2    0    0  0.16530879328E+03 -0.82427964146E+03 -0.17177502988E+04  0.21144817541E+04  0.90199948707E+03 0.  0.
        -24    2    4    4    0    0 -0.34547882318E+03 -0.16362527553E+03 -0.47548815494E+03  0.61549774612E+03  0.81361181986E+02 0.  0.
         24    2    4    4    0    0  0.51078761646E+03 -0.66065436594E+03 -0.12422621439E+04  0.14989840079E+04  0.79810034231E+02 0.  0.
         13    1    3    3    0    0 -0.15199206161E+03  0.65677338010E+03 -0.28759501105E+03  0.73291455844E+03  0.00000000000E+00 0.  1.
        -13    1    3    3    0    0 -0.13316731665E+02  0.16750626136E+03 -0.13430767083E+03  0.21511446576E+03  0.00000000000E+00 0. -1.
          2    1    6    6  502    0  0.39099524020E+03 -0.54933859196E+03 -0.96857668201E+03  0.11801656474E+04  0.00000000000E+00 0. -1.
          1    1    5    5  503    0 -0.33700421558E+03 -0.16700178146E+03 -0.43994756556E+03  0.57880505939E+03  0.00000000000E+00 0. -1.
         -2    1    5    5    0  503 -0.84746076047E+01  0.33765059392E+01 -0.35540589375E+02  0.36692686731E+02  0.00000000000E+00 0.  1.
         -1    1    6    6    0  502  0.11979237626E+03 -0.11131577398E+03 -0.27368546188E+03  0.31881836050E+03  0.00000000000E+00 0.  1.
<mgrwt>
<rscale>  0 0.21910859E+04</rscale>
<asrwt>0</asrwt>
<pdfrwt beam="1">  1        2 0.40016645E+00 0.21910859E+04</pdfrwt>
<pdfrwt beam="2">  1       -2 0.70989060E-01 0.21910859E+04</pdfrwt>
<totfact> 0.50120611E+00</totfact>
</mgrwt>
</event>
<event>
12    1  0.1556559E-007  0.1143608E+04  0.7818608E-02  0.9163701E-01
          1   -1    0    0  501    0  0.00000000000E+00  0.00000000000E+00  0.24871844190E+03  0.24871844190E+03  0.00000000000E+00 0. -1.
         -1   -1    0    0    0  501 -0.00000000000E+00 -0.00000000000E+00 -0.13145786507E+04  0.13145786507E+04  0.00000000000E+00 0.  1.
         23    2    1    2    0    0 -0.55120276566E+02  0.18989067192E+03 -0.28140415417E+03  0.35613821209E+03  0.92463051820E+02 0.  0.
        254    2    1    2    0    0  0.55120276566E+02 -0.18989067192E+03 -0.78445605458E+03  0.12071588805E+04  0.89597128801E+03 0.  0.
        -24    2    4    4    0    0  0.26167224522E+03 -0.36042417515E+03 -0.93793308197E+02  0.46205481034E+03  0.79495365562E+02 0.  0.
         24    2    4    4    0    0 -0.20655196866E+03  0.17053350323E+03 -0.69066274639E+03  0.74510407012E+03  0.80122746982E+02 0.  0.
         13    1    3    3    0    0 -0.72808467725E+02  0.15194578618E+03 -0.25809001446E+03  0.30821915981E+03  0.00000000000E+00 0.  1.
        -13    1    3    3    0    0  0.17688191159E+02  0.37944885740E+02 -0.23314139706E+02  0.47919052271E+02  0.00000000000E+00 0. -1.
          4    1    6    6  502    0 -0.14089314331E+02  0.21029864085E+00 -0.93025840520E+01  0.16884640176E+02  0.00000000000E+00 0. -1.
          1    1    5    5  503    0  0.28914580422E+02 -0.22641853269E+02  0.11614417676E+02  0.38517543774E+02  0.00000000000E+00 0. -1.
         -2    1    5    5    0  503  0.23275766480E+03 -0.33778232188E+03 -0.10540772587E+03  0.42353726657E+03  0.00000000000E+00 0.  1.
         -3    1    6    6    0  502 -0.19246265433E+03  0.17032320459E+03 -0.68136016233E+03  0.72821942994E+03  0.00000000000E+00 0.  1.
<mgrwt>
<rscale>  0 0.11436082E+04</rscale>
<asrwt>0</asrwt>
<pdfrwt beam="1">  1        1 0.38264376E-01 0.11436082E+04</pdfrwt>
<pdfrwt beam="2">  1       -1 0.20224287E+00 0.11436082E+04</pdfrwt>
<totfact> 0.16167343E+01</totfact>
</mgrwt>
</event>
<event>
12    1  0.1556559E-007  0.2442315E+04  0.7818608E-02  0.8423829E-01
          1   -1    0    0  501    0  0.00000000000E+00  0.00000000000E+00  0.20687390612E+04  0.20687390612E+04  0.00000000000E+00 0. -1.
         -1   -1    0    0    0  501 -0.00000000000E+00 -0.00000000000E+00 -0.72083796906E+03  0.72083796906E+03  0.00000000000E+00 0.  1.
         23    2    1    2    0    0  0.59303404193E+03 -0.52091585610E+03  0.13915185990E+04  0.16022181358E+04  0.87955894938E+02 0.  0.
        254    2    1    2    0    0 -0.59303404193E+03  0.52091585610E+03 -0.43617506786E+02  0.11873588945E+04  0.88593225102E+03 0.  0.
        -24    2    4    4    0    0 -0.42393911802E+03  0.59228947741E+03 -0.35740092308E+03  0.81529674922E+03  0.80263121243E+02 0.  0.
         24    2    4    4    0    0 -0.16909492391E+03 -0.71373621305E+02  0.31378341630E+03  0.37206214527E+03  0.79264875499E+02 0.  0.
         11    1    3    3    0    0  0.59088209380E+03 -0.52418130429E+03  0.13876978329E+04  0.15967507520E+04  0.00000000000E+00 0. -1.
        -11    1    3    3    0    0  0.21519481285E+01  0.32654481927E+01  0.38207660906E+01  0.54673838502E+01  0.00000000000E+00 0.  1.
          2    1    6    6  502    0 -0.15171527389E+03 -0.81904645724E+02  0.30404665724E+03  0.34952863274E+03  0.00000000000E+00 0. -1.
          3    1    5    5  503    0 -0.36578948786E+03  0.45705263666E+03 -0.29259421559E+03  0.65445430483E+03  0.00000000000E+00 0. -1.
         -4    1    5    5    0  503 -0.58149630164E+02  0.13523684074E+03 -0.64806707492E+02  0.16084244439E+03  0.00000000000E+00 0.  1.
         -1    1    6    6    0  502 -0.17379650017E+02  0.10531024419E+02  0.97367590550E+01  0.22533512530E+02  0.00000000000E+00 0.  1.
<mgrwt>
<rscale>  0 0.24423150E+04</rscale>
<asrwt>0</asrwt>
<pdfrwt beam="1">  1        1 0.31826755E+00 0.24423150E+04</pdfrwt>
<pdfrwt beam="2">  1       -1 0.11089815E+00 0.24423150E+04</pdfrwt>
<totfact> 0.17884052E+00</totfact>
</mgrwt>
</event>
<event>
12    1  0.1556559E-007  0.1764609E+04  0.7818608E-02  0.8725350E-01
         -2   -1    0    0    0  501 -0.00000000000E+00  0.00000000000E+00  0.48716527511E+03  0.48716527511E+03  0.00000000000E+00 0.  1.
          2   -1    0    0  501    0  0.00000000000E+00 -0.00000000000E+00 -0.15979414259E+04  0.15979414259E+04  0.00000000000E+00 0. -1.
         23    2    1    2    0    0  0.17265768872E+03  0.51124284731E+03 -0.82576969360E+03  0.99072929412E+03  0.92027283737E+02 0.  0.
        254    2    1    2    0    0 -0.17265768872E+03 -0.51124284731E+03 -0.28500645721E+03  0.10943774069E+04  0.90843453352E+03 0.  0.
        -24    2    4    4    0    0 -0.17522861456E+03 -0.45083886249E+03  0.24974706668E+03  0.55030588604E+03  0.80636366453E+02 0.  0.
         24    2    4    4    0    0  0.25709258393E+01 -0.60403984822E+02 -0.53475352389E+03  0.54407152087E+03  0.79982732289E+02 0.  0.
         11    1    3    3    0    0  0.10454750765E+03  0.29054283390E+03 -0.55244682545E+03  0.63288451919E+03  0.00000000000E+00 0.  1.
        -11    1    3    3    0    0  0.68110181074E+02  0.22070001342E+03 -0.27332286815E+03  0.35784477493E+03  0.00000000000E+00 0. -1.
          2    1    6    6  502    0 -0.13791720134E+02 -0.13870516524E+02 -0.40158549946E+03  0.40206158253E+03  0.00000000000E+00 0. -1.
          1    1    5    5  503    0 -0.16943725241E+03 -0.36350613987E+03  0.22248340213E+03  0.45863336169E+03  0.00000000000E+00 0. -1.
         -2    1    5    5    0  503 -0.57913621583E+01 -0.87332722621E+02  0.27263664548E+02  0.91672524350E+02  0.00000000000E+00 0.  1.
         -1    1    6    6    0  502  0.16362645974E+02 -0.46533468298E+02 -0.13316802443E+03  0.14200993834E+03  0.00000000000E+00 0.  1.
<mgrwt>
<rscale>  0 0.17646094E+04</rscale>
<asrwt>0</asrwt>
<pdfrwt beam="1">  1        2 0.24583715E+00 0.17646094E+04</pdfrwt>
<pdfrwt beam="2">  1       -2 0.74948502E-01 0.17646094E+04</pdfrwt>
<totfact> 0.16928204E+01</totfact>
</mgrwt>
</event>
<event>
12    1  0.1556559E-007  0.2086222E+04  0.7818608E-02  0.8567337E-01
         -2   -1    0    0    0  501 -0.00000000000E+00  0.00000000000E+00  0.27245866705E+03  0.27245866705E+03  0.00000000000E+00 0. -1.
          2   -1    0    0  501    0  0.00000000000E+00 -0.00000000000E+00 -0.39935619444E+04  0.39935619444E+04  0.00000000000E+00 0.  1.
         23    2    1    2    0    0  0.82897520614E+03 -0.30609048506E+02 -0.18486038867E+04  0.20282310629E+04  0.90819095327E+02 0.  0.
        254    2    1    2    0    0 -0.82897520614E+03  0.30609048506E+02 -0.18724993906E+04  0.22377895486E+04  0.90183772912E+03 0.  0.
        -24    2    4    4    0    0 -0.37862961199E+03  0.37989653456E+03 -0.13710516058E+04  0.14744242950E+04  0.80391143735E+02 0.  0.
         24    2    4    4    0    0 -0.45034559415E+03 -0.34928748605E+03 -0.50144778481E+03  0.76336525354E+03  0.80397309321E+02 0.  0.
         11    1    3    3    0    0  0.64060879784E+03 -0.59608327951E+02 -0.13949959635E+04  0.15362117441E+04  0.00000000000E+00 0.  1.
        -11    1    3    3    0    0  0.18836640830E+03  0.28999279444E+02 -0.45360792327E+03  0.49201931876E+03  0.00000000000E+00 0. -1.
          4    1    6    6  502    0 -0.84208031397E+02 -0.95287290022E+02 -0.81422197461E+02  0.15099746498E+03  0.00000000000E+00 0. -1.
          3    1    5    5  503    0 -0.21352032442E+02  0.81511918693E+00 -0.49554652092E+02  0.53965148501E+02  0.00000000000E+00 0. -1.
         -4    1    5    5    0  503 -0.35727757955E+03  0.37908141537E+03 -0.13214969537E+04  0.14204591465E+04  0.00000000000E+00 0.  1.
         -3    1    6    6    0  502 -0.36613756275E+03 -0.25400019603E+03 -0.42002558735E+03  0.61236778856E+03  0.00000000000E+00 0.  1.
<mgrwt>
<rscale>  0 0.20862220E+04</rscale>
<asrwt>0</asrwt>
<pdfrwt beam="1">  1        2 0.61439416E+00 0.20862220E+04</pdfrwt>
<pdfrwt beam="2">  1       -2 0.41916717E-01 0.20862220E+04</pdfrwt>
<totfact> 0.17385031E+00</totfact>
</mgrwt>
</event>
<event>
12    1  0.1556559E-007  0.1386025E+04  0.7818608E-02  0.8963997E-01
          2   -1    0    0  501    0  0.00000000000E+00  0.00000000000E+00  0.17170116835E+04  0.17170116835E+04  0.00000000000E+00 0. -1.
         -2   -1    0    0    0  501 -0.00000000000E+00 -0.00000000000E+00 -0.27971055475E+03  0.27971055475E+03  0.00000000000E+00 0.  1.
         23    2    1    2    0    0 -0.15383422202E+03 -0.14335936145E+03  0.89044182580E+03  0.91945722276E+03  0.91093715275E+02 0.  0.
        254    2    1    2    0    0  0.15383422202E+03  0.14335936145E+03  0.54685930298E+03  0.10772650155E+04  0.90400660509E+03 0.  0.
        -24    2    4    4    0    0  0.51248380948E+03 -0.22453527562E+02  0.24591504621E+03  0.57432080975E+03  0.78907329690E+02 0.  0.
         24    2    4    4    0    0 -0.35864958746E+03  0.16581288902E+03  0.30094425677E+03  0.50294420578E+03  0.79132722028E+02 0.  0.
         13    1    3    3    0    0 -0.74368556109E+02 -0.11964651625E+03  0.45955677659E+03  0.48066454196E+03  0.00000000000E+00 0. -1.
        -13    1    3    3    0    0 -0.79465665913E+02 -0.23712845204E+02  0.43088504922E+03  0.43879268080E+03  0.00000000000E+00 0.  1.
          2    1    6    6  502    0 -0.31580322560E+03  0.11581323939E+03  0.26269994575E+03  0.42679696018E+03  0.00000000000E+00 0. -1.
          3    1    5    5  503    0  0.35724686461E+03  0.20812813199E+02  0.17040154848E+03  0.39635234727E+03  0.00000000000E+00 0. -1.
         -4    1    5    5    0  503  0.15523694487E+03 -0.43266340761E+02  0.75513497737E+02  0.17796846248E+03  0.00000000000E+00 0.  1.
         -1    1    6    6    0  502 -0.42846361853E+02  0.49999649630E+02  0.38244311015E+02  0.76147245598E+02  0.00000000000E+00 0.  1.
<mgrwt>
<rscale>  0 0.13860250E+04</rscale>
<asrwt>0</asrwt>
<pdfrwt beam="1">  1        2 0.26415564E+00 0.13860250E+04</pdfrwt>
<pdfrwt beam="2">  1       -2 0.43032394E-01 0.13860250E+04</pdfrwt>
<totfact> 0.47860329E+01</totfact>
</mgrwt>
</event>
<event>
12    1  0.1556559E-007  0.2202701E+04  0.7818608E-02  0.8517305E-01
          1   -1    0    0  501    0  0.00000000000E+00  0.00000000000E+00  0.23096163031E+04  0.23096163031E+04  0.00000000000E+00 0. -1.
         -1   -1    0    0    0  501 -0.00000000000E+00 -0.00000000000E+00 -0.52518375565E+03  0.52518375565E+03  0.00000000000E+00 0.  1.
         23    2    1    2    0    0  0.78310433724E+03 -0.38390397437E+03  0.39584917428E+03  0.96222639582E+03  0.92457576775E+02 0.  0.
        254    2    1    2    0    0 -0.78310433724E+03  0.38390397437E+03  0.13885833731E+04  0.18725736629E+04  0.90428627895E+03 0.  0.
        -24    2    4    4    0    0 -0.62314682886E+03  0.23536908517E+03  0.25942816885E+03  0.71986042165E+03  0.84767182946E+02 0.  0.
         24    2    4    4    0    0 -0.15995750838E+03  0.14853488920E+03  0.11291552043E+04  0.11527132412E+04  0.78149365772E+02 0.  0.
         11    1    3    3    0    0  0.57021060345E+03 -0.24973500171E+03  0.31667636383E+03  0.69842080637E+03  0.00000000000E+00 0.  1.
        -11    1    3    3    0    0  0.21289373378E+03 -0.13416897266E+03  0.79172810451E+02  0.26380558945E+03  0.00000000000E+00 0. -1.
          2    1    6    6  502    0 -0.92218766456E+02  0.43415148791E+02  0.62639156453E+03  0.63463026098E+03  0.00000000000E+00 0. -1.
          1    1    5    5  503    0 -0.51101090716E+03  0.22546526005E+03  0.20681527610E+03  0.59559994052E+03  0.00000000000E+00 0. -1.
         -2    1    5    5    0  503 -0.11213592170E+03  0.99038251184E+01  0.52612892752E+02  0.12426048113E+03  0.00000000000E+00 0.  1.
         -1    1    6    6    0  502 -0.67738741924E+02  0.10511974041E+03  0.50276363975E+03  0.51808298026E+03  0.00000000000E+00 0.  1.
<mgrwt>
<rscale>  0 0.22027010E+04</rscale>
<asrwt>0</asrwt>
<pdfrwt beam="1">  1        1 0.35532558E+00 0.22027010E+04</pdfrwt>
<pdfrwt beam="2">  1       -1 0.80797502E-01 0.22027010E+04</pdfrwt>
<totfact> 0.25514926E+00</totfact>
</mgrwt>
</event>
<event>
12    1  0.1556559E-007  0.1385379E+04  0.7818608E-02  0.8964471E-01
         -2   -1    0    0    0  501 -0.00000000000E+00  0.00000000000E+00  0.67302016213E+03  0.67302016213E+03  0.00000000000E+00 0.  1.
          2   -1    0    0  501    0  0.00000000000E+00 -0.00000000000E+00 -0.71293346453E+03  0.71293346453E+03  0.00000000000E+00 0. -1.
         23    2    1    2    0    0 -0.25801559912E+03 -0.66916302087E+02  0.27464519105E+03  0.39342899904E+03  0.91140306400E+02 0.  0.
        254    2    1    2    0    0  0.25801559912E+03  0.66916302087E+02 -0.31455849345E+03  0.99252462761E+03  0.90283345626E+03 0.  0.
        -24    2    4    4    0    0  0.40551344089E+03  0.30266745060E+03  0.65387323663E+02  0.51500131546E+03  0.70015115715E+02 0.  0.
         24    2    4    4    0    0 -0.14749784178E+03 -0.23575114851E+03 -0.37994581711E+03  0.47752331216E+03  0.79595680549E+02 0.  0.
         13    1    3    3    0    0 -0.16227301376E+03 -0.83271228257E+02  0.15527413059E+03  0.23953430669E+03  0.00000000000E+00 0.  1.
        -13    1    3    3    0    0 -0.95742585362E+02  0.16354926170E+02  0.11937106045E+03  0.15389469236E+03  0.00000000000E+00 0. -1.
          2    1    6    6  502    0 -0.39521583552E+02 -0.12922629159E+02 -0.58244470643E+02  0.71563735728E+02  0.00000000000E+00 0. -1.
          3    1    5    5  503    0  0.83514720332E+02  0.31607666999E+02  0.21282820382E+02  0.91797121789E+02  0.00000000000E+00 0. -1.
         -4    1    5    5    0  503  0.32199872056E+03  0.27105978360E+03  0.44104503280E+02  0.42320419367E+03  0.00000000000E+00 0.  1.
         -1    1    6    6    0  502 -0.10797625822E+03 -0.22282851935E+03 -0.32170134647E+03  0.40595957643E+03  0.00000000000E+00 0.  1.
<mgrwt>
<rscale>  0 0.13853788E+04</rscale>
<asrwt>0</asrwt>
<pdfrwt beam="1">  1        2 0.10968207E+00 0.13853788E+04</pdfrwt>
<pdfrwt beam="2">  1       -2 0.10354156E+00 0.13853788E+04</pdfrwt>
<totfact> 0.29653362E+01</totfact>
</mgrwt>
</event>
<event>
12    1  0.1556559E-007  0.1453077E+04  0.7818608E-02  0.8916270E-01
          1   -1    0    0  501    0  0.00000000000E+00  0.00000000000E+00  0.51167687795E+03  0.51167687795E+03  0.00000000000E+00 0. -1.
         -1   -1    0    0    0  501 -0.00000000000E+00 -0.00000000000E+00 -0.10316234797E+04  0.10316234797E+04  0.00000000000E+00 0.  1.
         23    2    1    2    0    0 -0.33906035578E+03 -0.20887633233E+02 -0.46962277348E+03  0.58733467130E+03  0.94964459957E+02 0.  0.
        254    2    1    2    0    0  0.33906035578E+03  0.20887633233E+02 -0.50323828255E+02  0.95596568634E+03  0.89215452007E+03 0.  0.
        -24    2    4    4    0    0  0.29651035681E+03 -0.22710596448E+03  0.32221444480E+03  0.49955264567E+03  0.78963197539E+02 0.  0.
         24    2    4    4    0    0  0.42549998968E+02  0.24799359771E+03 -0.37253827305E+03  0.45641304066E+03  0.78846508360E+02 0.  0.
         13    1    3    3    0    0 -0.24279453644E+03  0.22437399122E+02 -0.28893633468E+03  0.37806987357E+03  0.00000000000E+00 0. -1.
        -13    1    3    3    0    0 -0.96265819344E+02 -0.43325032355E+02 -0.18068643880E+03  0.20926479773E+03  0.00000000000E+00 0.  1.
          2    1    6    6  502    0  0.30783856524E+02  0.21877962838E+03 -0.36025919245E+03  0.42260958030E+03  0.00000000000E+00 0. -1.
          1    1    5    5  503    0  0.12463026602E+03 -0.49175458856E+02  0.12386671708E+03  0.18246614086E+03  0.00000000000E+00 0. -1.
         -2    1    5    5    0  503  0.17188009079E+03 -0.17793050562E+03  0.19834772772E+03  0.31708650481E+03  0.00000000000E+00 0.  1.
         -1    1    6    6    0  502  0.11766142444E+02  0.29213969326E+02 -0.12279080600E+02  0.33803460358E+02  0.00000000000E+00 0.  1.
<mgrwt>
<rscale>  0 0.14530766E+04</rscale>
<asrwt>0</asrwt>
<pdfrwt beam="1">  1        1 0.78719520E-01 0.14530766E+04</pdfrwt>
<pdfrwt beam="2">  1       -1 0.15871130E+00 0.14530766E+04</pdfrwt>
<totfact> 0.12458436E+01</totfact>
</mgrwt>
</event>
<event>
12    1  0.1556559E-007  0.2925562E+04  0.7818608E-02  0.8265312E-01
          1   -1    0    0  501    0  0.00000000000E+00  0.00000000000E+00  0.22798150013E+04  0.22798150013E+04  0.00000000000E+00 0. -1.
         -1   -1    0    0    0  501 -0.00000000000E+00 -0.00000000000E+00 -0.93855358033E+03  0.93855358033E+03  0.00000000000E+00 0.  1.
         23    2    1    2    0    0  0.40090891981E+03  0.12165365317E+04  0.96354166054E+03  0.16056478148E+04  0.94885608012E+02 0.  0.
        254    2    1    2    0    0 -0.40090891981E+03 -0.12165365317E+04  0.37771976046E+03  0.16127207668E+04  0.90416091452E+03 0.  0.
        -24    2    4    4    0    0 -0.29624833203E+03 -0.12627627282E+04  0.53276998047E+03  0.14043805927E+04  0.78155071042E+02 0.  0.
         24    2    4    4    0    0 -0.10466058778E+03  0.46226196418E+02 -0.15505022001E+03  0.20834017418E+03  0.79210842591E+02 0.  0.
         11    1    3    3    0    0  0.14599923326E+01  0.59587207889E+02  0.33106878149E+02  0.68182345973E+02  0.00000000000E+00 0.  1.
        -11    1    3    3    0    0  0.39944892748E+03  0.11569493238E+04  0.93043478239E+03  0.15374654688E+04  0.00000000000E+00 0. -1.
          2    1    6    6  502    0 -0.79411288122E+02  0.65261321383E+02 -0.13900875485E+03  0.17288327471E+03  0.00000000000E+00 0. -1.
          3    1    5    5  503    0 -0.28778973792E+03 -0.11398610090E+04  0.49432489491E+03  0.12753286458E+04  0.00000000000E+00 0. -1.
         -4    1    5    5    0  503 -0.84585941084E+01 -0.12290171911E+03  0.38445085556E+02  0.12905194682E+03  0.00000000000E+00 0.  1.
         -1    1    6    6    0  502 -0.25249299662E+02 -0.19035124965E+02 -0.16041465157E+02  0.35456899472E+02  0.00000000000E+00 0.  1.
<mgrwt>
<rscale>  0 0.29255622E+04</rscale>
<asrwt>0</asrwt>
<pdfrwt beam="1">  1        1 0.35074077E+00 0.29255622E+04</pdfrwt>
<pdfrwt beam="2">  1       -1 0.14439286E+00 0.29255622E+04</pdfrwt>
<totfact> 0.63565929E-01</totfact>
</mgrwt>
</event>
<event>
12    1  0.1556559E-007  0.2603102E+04  0.7818608E-02  0.8367148E-01
          1   -1    0    0  501    0  0.00000000000E+00  0.00000000000E+00  0.10130606035E+04  0.10130606035E+04  0.00000000000E+00 0. -1.
         -1   -1    0    0    0  501 -0.00000000000E+00 -0.00000000000E+00 -0.16721956769E+04  0.16721956769E+04  0.00000000000E+00 0.  1.
         23    2    1    2    0    0 -0.17450363605E+03 -0.77126638798E+03  0.56133776279E+03  0.97421302278E+03  0.93207132770E+02 0.  0.
        254    2    1    2    0    0  0.17450363605E+03  0.77126638798E+03 -0.12204728362E+04  0.17110432577E+04  0.90156071654E+03 0.  0.
        -24    2    4    4    0    0  0.38659313705E+03  0.35041865120E+03 -0.16661357317E+03  0.55379431431E+03  0.81734784949E+02 0.  0.
         24    2    4    4    0    0 -0.21208950100E+03  0.42084773678E+03 -0.10538592630E+04  0.11572489434E+04  0.80690747624E+02 0.  0.
         11    1    3    3    0    0 -0.89152169827E+02 -0.53191732237E+03  0.34284083503E+03  0.63908057816E+03  0.00000000000E+00 0. -1.
        -11    1    3    3    0    0 -0.85351466226E+02 -0.23934906561E+03  0.21849692775E+03  0.33513244462E+03  0.00000000000E+00 0.  1.
          2    1    6    6  502    0 -0.18111593947E+03  0.36510573251E+03 -0.96799306062E+03  0.10502931709E+04  0.00000000000E+00 0. -1.
          3    1    5    5  503    0  0.13538807849E+03  0.12477856363E+03 -0.18407716762E+02  0.18503639041E+03  0.00000000000E+00 0. -1.
         -4    1    5    5    0  503  0.25120505856E+03  0.22564008757E+03 -0.14820585640E+03  0.36875792390E+03  0.00000000000E+00 0.  1.
         -1    1    6    6    0  502 -0.30973561525E+02  0.55742004267E+02 -0.85866202359E+02  0.10695577245E+03  0.00000000000E+00 0.  1.
<mgrwt>
<rscale>  0 0.26031024E+04</rscale>
<asrwt>0</asrwt>
<pdfrwt beam="1">  1        1 0.15585548E+00 0.26031024E+04</pdfrwt>
<pdfrwt beam="2">  1       -1 0.25726087E+00 0.26031024E+04</pdfrwt>
<totfact> 0.81351288E-01</totfact>
</mgrwt>
</event>
<event>
12    1  0.1556559E-007  0.2709179E+04  0.7818608E-02  0.8332033E-01
         -1   -1    0    0    0  501 -0.00000000000E+00  0.00000000000E+00  0.85649824230E+03  0.85649824230E+03  0.00000000000E+00 0. -1.
          1   -1    0    0  501    0  0.00000000000E+00 -0.00000000000E+00 -0.21423427035E+04  0.21423427035E+04  0.00000000000E+00 0.  1.
         23    2    1    2    0    0 -0.84640244553E+03 -0.84541543212E+02  0.37604223462E+03  0.93394675748E+03  0.85465848533E+02 0.  0.
        254    2    1    2    0    0  0.84640244553E+03  0.84541543212E+02 -0.16618866959E+04  0.20648941884E+04  0.88225633853E+03 0.  0.
        -24    2    4    4    0    0  0.65762788793E+03 -0.25623427023E+03 -0.14489430919E+04  0.16138683967E+04  0.83693955835E+02 0.  0.
         24    2    4    4    0    0  0.18877455760E+03  0.34077581345E+03 -0.21294360399E+03  0.45102579162E+03  0.79468846744E+02 0.  0.
         11    1    3    3    0    0 -0.55240607759E+03 -0.91027246984E+02  0.22523752751E+03  0.60346530807E+03  0.00000000000E+00 0. -1.
        -11    1    3    3    0    0 -0.29399636795E+03  0.64857037723E+01  0.15080470711E+03  0.33048144941E+03  0.00000000000E+00 0.  1.
          4    1    6    6  502    0  0.23918393877E+02  0.86201251336E+02 -0.20324706728E+02  0.91737882040E+02  0.00000000000E+00 0. -1.
          1    1    5    5  503    0  0.29509272398E+03 -0.72119564036E+02 -0.64450320236E+03  0.71250636847E+03  0.00000000000E+00 0. -1.
         -2    1    5    5    0  503  0.36253516394E+03 -0.18411470620E+03 -0.80443988953E+03  0.90136202826E+03  0.00000000000E+00 0.  1.
         -3    1    6    6    0  502  0.16485616373E+03  0.25457456211E+03 -0.19261889726E+03  0.35928790958E+03  0.00000000000E+00 0.  1.
<mgrwt>
<rscale>  0 0.27091790E+04</rscale>
<asrwt>0</asrwt>
<pdfrwt beam="1">  1        1 0.32959118E+00 0.27091790E+04</pdfrwt>
<pdfrwt beam="2">  1       -1 0.13176896E+00 0.27091790E+04</pdfrwt>
<totfact> 0.10194402E+00</totfact>
</mgrwt>
</event>
<event>
12    1  0.1556559E-007  0.1260401E+04  0.7818608E-02  0.9061570E-01
          1   -1    0    0  501    0  0.00000000000E+00  0.00000000000E+00  0.88406747946E+03  0.88406747946E+03  0.00000000000E+00 0.  1.
         -1   -1    0    0    0  501 -0.00000000000E+00 -0.00000000000E+00 -0.44923373173E+03  0.44923373173E+03  0.00000000000E+00 0. -1.
         23    2    1    2    0    0 -0.20557196948E+03  0.12844899222E+02 -0.12325840038E+03  0.25702990127E+03  0.91907077051E+02 0.  0.
        254    2    1    2    0    0  0.20557196948E+03 -0.12844899222E+02  0.55809214811E+03  0.10762713099E+04  0.89692154658E+03 0.  0.
        -24    2    4    4    0    0  0.49964596150E+03 -0.21292738923E+03  0.39931544136E+03  0.67851329416E+03  0.77092857727E+02 0.  0.
         24    2    4    4    0    0 -0.29407399203E+03  0.20008249001E+03  0.15877670675E+03  0.39775801577E+03  0.80553590271E+02 0.  0.
         11    1    3    3    0    0 -0.30020666679E+01  0.10841135387E+02 -0.33715939118E+02  0.35543032670E+02  0.00000000000E+00 0. -1.
        -11    1    3    3    0    0 -0.20256990281E+03  0.20037638347E+01 -0.89542461261E+02  0.22148686860E+03  0.00000000000E+00 0.  1.
          4    1    6    6  502    0 -0.23177061442E+03  0.13417239916E+03  0.14918678835E+03  0.30655594632E+03  0.00000000000E+00 0. -1.
          3    1    5    5  503    0  0.46515708560E+03 -0.17620235687E+03  0.37258611657E+03  0.62148113335E+03  0.00000000000E+00 0. -1.
         -4    1    5    5    0  503  0.34488875899E+02 -0.36725032357E+02  0.26729324793E+02  0.57032160807E+02  0.00000000000E+00 0.  1.
         -3    1    6    6    0  502 -0.62303377608E+02  0.65910090846E+02  0.95899183997E+01  0.91202069448E+02  0.00000000000E+00 0.  1.
<mgrwt>
<rscale>  0 0.12604014E+04</rscale>
<asrwt>0</asrwt>
<pdfrwt beam="1">  1        1 0.13601038E+00 0.12604014E+04</pdfrwt>
<pdfrwt beam="2">  1       -1 0.69112882E-01 0.12604014E+04</pdfrwt>
<totfact> 0.39154026E+01</totfact>
</mgrwt>
</event>
<event>
12    1  0.1556559E-007  0.1203474E+04  0.7818608E-02  0.9109821E-01
          2   -1    0    0  501    0  0.00000000000E+00  0.00000000000E+00  0.27224978497E+04  0.27224978497E+04  0.00000000000E+00 0. -1.
         -2   -1    0    0    0  501 -0.00000000000E+00 -0.00000000000E+00 -0.13299820587E+03  0.13299820587E+03  0.00000000000E+00 0.  1.
         23    2    1    2    0    0  0.19163510532E+03 -0.84042518058E+02  0.23863410407E+03  0.33017166177E+03  0.90994132664E+02 0.  0.
        254    2    1    2    0    0 -0.19163510532E+03  0.84042518058E+02  0.23508655397E+04  0.25253243938E+04  0.89828021768E+03 0.  0.
        -24    2    4    4    0    0  0.63342588815E+02  0.34800949700E+03  0.40521832413E+03  0.54375450362E+03  0.79650338590E+02 0.  0.
         24    2    4    4    0    0 -0.25497769413E+03 -0.26396697895E+03  0.19456472156E+04  0.19815698902E+04  0.79899633929E+02 0.  0.
         11    1    3    3    0    0  0.14590173194E+03 -0.87336805642E+02  0.13592976144E+03  0.21769688342E+03  0.00000000000E+00 0.  1.
        -11    1    3    3    0    0  0.45733373374E+02  0.32942875841E+01  0.10270434263E+03  0.11247477835E+03  0.00000000000E+00 0. -1.
          2    1    6    6  502    0 -0.17938546970E+03 -0.14069007723E+03  0.10647975153E+04  0.10889291038E+04  0.00000000000E+00 0. -1.
          3    1    5    5  503    0 -0.41476423130E+01  0.39829589697E+02  0.86401319308E+02  0.95230179724E+02  0.00000000000E+00 0. -1.
         -4    1    5    5    0  503  0.67490231128E+02  0.30817990731E+03  0.31881700482E+03  0.44852432390E+03  0.00000000000E+00 0.  1.
         -1    1    6    6    0  502 -0.75592224429E+02 -0.12327690171E+03  0.88084970033E+03  0.89264078635E+03  0.00000000000E+00 0.  1.
<mgrwt>
<rscale>  0 0.12034739E+04</rscale>
<asrwt>0</asrwt>
<pdfrwt beam="1">  1        2 0.41884578E+00 0.12034739E+04</pdfrwt>
<pdfrwt beam="2">  1       -2 0.20461264E-01 0.12034739E+04</pdfrwt>
<totfact> 0.52654063E+01</totfact>
</mgrwt>
</event>
<event>
12    1  0.1556559E-007  0.1318623E+04  0.7818608E-02  0.9014926E-01
         -2   -1    0    0    0  501 -0.00000000000E+00  0.00000000000E+00  0.82606722393E+03  0.82606722393E+03  0.00000000000E+00 0.  1.
          2   -1    0    0  501    0  0.00000000000E+00 -0.00000000000E+00 -0.52621828179E+03  0.52621828179E+03  0.00000000000E+00 0. -1.
         23    2    1    2    0    0  0.17111934066E+03 -0.64759983893E+02 -0.44432039041E+02  0.20812399328E+03  0.88688816793E+02 0.  0.
        254    2    1    2    0    0 -0.17111934066E+03  0.64759983893E+02  0.34428098118E+03  0.11441615124E+04  0.10756860547E+04 0.  0.
        -24    2    4    4    0    0 -0.31262361278E+03 -0.35021965459E+03  0.48190130821E+03  0.67730655243E+03  0.78281321999E+02 0.  0.
         24    2    4    4    0    0  0.14150427213E+03  0.41497963849E+03 -0.13762032703E+03  0.46685496001E+03  0.82356784062E+02 0.  0.
         13    1    3    3    0    0  0.17483459157E+03 -0.41474763765E+02 -0.40879722670E+02  0.18427816519E+03  0.00000000000E+00 0. -1.
        -13    1    3    3    0    0 -0.37152509138E+01 -0.23285220129E+02 -0.35523163708E+01  0.23845828092E+02  0.00000000000E+00 0.  1.
          2    1    6    6  502    0  0.10629846709E+03  0.25916931864E+03 -0.49625488250E+02  0.28448337195E+03  0.00000000000E+00 0. -1.
          1    1    5    5  503    0 -0.31036920718E+03 -0.32150849287E+03  0.45786326615E+03  0.63979334651E+03  0.00000000000E+00 0. -1.
         -2    1    5    5    0  503 -0.22544056063E+01 -0.28711161718E+02  0.24038042066E+02  0.37513205918E+02  0.00000000000E+00 0.  1.
         -1    1    6    6    0  502  0.35205805039E+02  0.15581031985E+03 -0.87994838784E+02  0.18237158806E+03  0.00000000000E+00 0.  1.
<mgrwt>
<rscale>  0 0.13186230E+04</rscale>
<asrwt>0</asrwt>
<pdfrwt beam="1">  1        2 0.80956658E-01 0.13186230E+04</pdfrwt>
<pdfrwt beam="2">  1       -2 0.12708727E+00 0.13186230E+04</pdfrwt>
<totfact> 0.26102646E+01</totfact>
</mgrwt>
</event>
<event>
12    1  0.1556559E-007  0.1113907E+04  0.7818608E-02  0.9191742E-01
         -4   -1    0    0    0  501 -0.00000000000E+00  0.00000000000E+00  0.14929408481E+03  0.14929408481E+03  0.00000000000E+00 0.  1.
          4   -1    0    0  501    0  0.00000000000E+00 -0.00000000000E+00 -0.20777606669E+04  0.20777606669E+04  0.00000000000E+00 0. -1.
         23    2    1    2    0    0 -0.63179794676E+02 -0.15220524566E+03 -0.22790433142E+03  0.29634106952E+03  0.93378380487E+02 0.  0.
        254    2    1    2    0    0  0.63179794676E+02  0.15220524566E+03 -0.17005622506E+04  0.19307136822E+04  0.89921367367E+03 0.  0.
        -24    2    4    4    0    0 -0.13078204488E+03  0.13851054226E+03 -0.17084883272E+04  0.17209473604E+04  0.80239264187E+02 0.  0.
         24    2    4    4    0    0  0.19396183956E+03  0.13694703398E+02  0.79260765475E+01  0.20976632177E+03  0.78296532193E+02 0.  0.
         11    1    3    3    0    0  0.21243303503E+02 -0.90184083565E+01 -0.31249597585E+02  0.38847741018E+02  0.00000000000E+00 0. -1.
        -11    1    3    3    0    0 -0.84423098178E+02 -0.14318683730E+03 -0.19665473383E+03  0.25749332850E+03  0.00000000000E+00 0.  1.
          4    1    6    6  502    0  0.15496698773E+02 -0.11210112184E+02 -0.19710465870E+02  0.27464827559E+02  0.00000000000E+00 0. -1.
          3    1    5    5  503    0 -0.61740563302E+02  0.11812817498E+03 -0.10093685940E+04  0.10181311907E+04  0.00000000000E+00 0. -1.
         -4    1    5    5    0  503 -0.69041481579E+02  0.20382367281E+02 -0.69911973318E+03  0.70281616970E+03  0.00000000000E+00 0.  1.
         -3    1    6    6    0  502  0.17846514078E+03  0.24904815582E+02  0.27636542418E+02  0.18230149421E+03  0.00000000000E+00 0.  1.
<mgrwt>
<rscale>  0 0.11139073E+04</rscale>
<asrwt>0</asrwt>
<pdfrwt beam="1">  1        4 0.31965547E+00 0.11139073E+04</pdfrwt>
<pdfrwt beam="2">  1       -4 0.22968322E-01 0.11139073E+04</pdfrwt>
<totfact> 0.83763178E-01</totfact>
</mgrwt>
</event>
<event>
12    1  0.1556559E-007  0.1787688E+04  0.7818608E-02  0.8712874E-01
          1   -1    0    0  501    0  0.00000000000E+00  0.00000000000E+00  0.97556191220E+03  0.97556191220E+03  0.00000000000E+00 0. -1.
         -1   -1    0    0    0  501 -0.00000000000E+00 -0.00000000000E+00 -0.81897123296E+03  0.81897123296E+03  0.00000000000E+00 0.  1.
         23    2    1    2    0    0 -0.16840879788E+03 -0.58297348445E+03  0.33099249307E+03  0.69725712778E+03  0.91607123072E+02 0.  0.
        254    2    1    2    0    0  0.16840879788E+03  0.58297348445E+03 -0.17440181383E+03  0.10972760174E+04  0.89742913864E+03 0.  0.
        -24    2    4    4    0    0  0.21718560482E+02  0.80434115276E+02  0.33915613212E+03  0.35963187501E+03  0.85830418860E+02 0.  0.
         24    2    4    4    0    0  0.14669023739E+03  0.50253936917E+03 -0.51355794594E+03  0.73764414237E+03  0.79456111281E+02 0.  0.
         11    1    3    3    0    0 -0.34279981685E+02 -0.70203245023E+02  0.13111673714E+02  0.79218234919E+02  0.00000000000E+00 0.  1.
        -11    1    3    3    0    0 -0.13412881619E+03 -0.51277023942E+03  0.31788081935E+03  0.61803889286E+03  0.00000000000E+00 0. -1.
          4    1    6    6  502    0  0.15106898071E+03  0.47148631358E+03 -0.49944627573E+03  0.70325511955E+03  0.00000000000E+00 0. -1.
          1    1    5    5  503    0  0.12938230358E+02  0.68614895860E+02  0.11188969123E+03  0.13188898643E+03  0.00000000000E+00 0. -1.
         -2    1    5    5    0  503  0.87803301239E+01  0.11819219415E+02  0.22726644088E+03  0.22774288857E+03  0.00000000000E+00 0.  1.
         -3    1    6    6    0  502 -0.43787433214E+01  0.31053055593E+02 -0.14111670213E+02  0.34389022826E+02  0.00000000000E+00 0.  1.
<mgrwt>
<rscale>  0 0.17876881E+04</rscale>
<asrwt>0</asrwt>
<pdfrwt beam="1">  1        1 0.15008645E+00 0.17876881E+04</pdfrwt>
<pdfrwt beam="2">  1       -1 0.12599557E+00 0.17876881E+04</pdfrwt>
<totfact> 0.81982592E+00</totfact>
</mgrwt>
</event>
<event>
12    1  0.1556559E-007  0.2444059E+04  0.7818608E-02  0.8423190E-01
         -1   -1    0    0    0  501 -0.00000000000E+00  0.00000000000E+00  0.39958226001E+03  0.39958226001E+03  0.00000000000E+00 0.  1.
          1   -1    0    0  501    0  0.00000000000E+00 -0.00000000000E+00 -0.37372918372E+04  0.37372918372E+04  0.00000000000E+00 0. -1.
         23    2    1    2    0    0  0.71400205368E+03  0.69610254360E+03 -0.86884950480E+03  0.13257991772E+04  0.92121183164E+02 0.  0.
        254    2    1    2    0    0 -0.71400205368E+03 -0.69610254360E+03 -0.24688600724E+04  0.28110749200E+04  0.90139584262E+03 0.  0.
        -24    2    4    4    0    0  0.12258421314E+03 -0.19319387619E+03 -0.12797935365E+03  0.27356918941E+03  0.78170476027E+02 0.  0.
         24    2    4    4    0    0 -0.83658626681E+03 -0.50290866741E+03 -0.23408807188E+04  0.25375057306E+04  0.80119186118E+02 0.  0.
         13    1    3    3    0    0  0.88364799224E+02  0.52749480338E+02 -0.71156232538E+02  0.12511616541E+03  0.00000000000E+00 0. -1.
        -13    1    3    3    0    0  0.62563725445E+03  0.64335306326E+03 -0.79769327227E+03  0.12006830118E+04  0.00000000000E+00 0.  1.
          4    1    6    6  502    0 -0.71561066508E+03 -0.40464339531E+03 -0.19149425529E+04  0.20839481477E+04  0.00000000000E+00 0. -1.
          1    1    5    5  503    0  0.10174065607E+03 -0.16246991925E+03 -0.13668314307E+03  0.23543559068E+03  0.00000000000E+00 0. -1.
         -2    1    5    5    0  503  0.20843557066E+02 -0.30723956946E+02  0.87037894218E+01  0.38133598728E+02  0.00000000000E+00 0.  1.
         -3    1    6    6    0  502 -0.12097560174E+03 -0.98265272094E+02 -0.42593816590E+03  0.45355758299E+03  0.00000000000E+00 0.  1.
<mgrwt>
<rscale>  0 0.24440585E+04</rscale>
<asrwt>0</asrwt>
<pdfrwt beam="1">  1        1 0.57496798E+00 0.24440585E+04</pdfrwt>
<pdfrwt beam="2">  1       -1 0.61474194E-01 0.24440585E+04</pdfrwt>
<totfact> 0.38590382E-01</totfact>
</mgrwt>
</event>
<event>
12    1  0.1556559E-007  0.1820740E+04  0.7818608E-02  0.8695347E-01
         -2   -1    0    0    0  501 -0.00000000000E+00  0.00000000000E+00  0.29509648687E+03  0.29509648687E+03  0.00000000000E+00 0.  1.
          2   -1    0    0  501    0  0.00000000000E+00 -0.00000000000E+00 -0.28084839178E+04  0.28084839178E+04  0.00000000000E+00 0. -1.
         23    2    1    2    0    0 -0.32234292818E+03 -0.13303287009E+03  0.50369242461E+02  0.36382777662E+03  0.90724211682E+02 0.  0.
        254    2    1    2    0    0  0.32234292818E+03  0.13303287009E+03 -0.25637566734E+04  0.27397526280E+04  0.90099582385E+03 0.  0.
        -24    2    4    4    0    0  0.32495969661E+03 -0.16736112671E+03 -0.37670174274E+03  0.53068554110E+03  0.78194561145E+02 0.  0.
         24    2    4    4    0    0 -0.26167684330E+01  0.30039399680E+03 -0.21870549306E+04  0.22090670869E+04  0.80775764428E+02 0.  0.
         13    1    3    3    0    0 -0.14503208429E+03 -0.10854327794E+03  0.19610280953E+02  0.18221007595E+03  0.00000000000E+00 0.  1.
        -13    1    3    3    0    0 -0.17731084389E+03 -0.24489592154E+02  0.30758961507E+02  0.18161770068E+03  0.00000000000E+00 0. -1.
          4    1    6    6  502    0  0.73059363905E+01  0.15302455509E+03 -0.83208864667E+03  0.84607411441E+03  0.00000000000E+00 0. -1.
          1    1    5    5  503    0  0.99246924773E+02 -0.92167113038E+02 -0.14921809008E+03  0.20152113341E+03  0.00000000000E+00 0. -1.
         -2    1    5    5    0  503  0.22571277184E+03 -0.75194013668E+02 -0.22748365266E+03  0.32916440769E+03  0.00000000000E+00 0.  1.
         -3    1    6    6    0  502 -0.99227048235E+01  0.14736944171E+03 -0.13549662840E+04  0.13629929725E+04  0.00000000000E+00 0.  1.
<mgrwt>
<rscale>  0 0.18207402E+04</rscale>
<asrwt>0</asrwt>
<pdfrwt beam="1">  1        2 0.43207444E+00 0.18207402E+04</pdfrwt>
<pdfrwt beam="2">  1       -2 0.45399460E-01 0.18207402E+04</pdfrwt>
<totfact> 0.99344161E+00</totfact>
</mgrwt>
</event>
<event>
12    1  0.1556559E-007  0.1598985E+04  0.7818608E-02  0.8821172E-01
         -2   -1    0    0    0  501 -0.00000000000E+00  0.00000000000E+00  0.45011195119E+03  0.45011195119E+03  0.00000000000E+00 0.  1.
          2   -1    0    0  501    0  0.00000000000E+00 -0.00000000000E+00 -0.14200649897E+04  0.14200649897E+04  0.00000000000E+00 0. -1.
         23    2    1    2    0    0  0.14150829601E+03  0.20399262604E+03  0.24098353851E+03  0.35258429825E+03  0.67860387709E+02 0.  0.
        254    2    1    2    0    0 -0.14150829601E+03 -0.20399262604E+03 -0.12109365771E+04  0.15175926427E+04  0.88038766810E+03 0.  0.
        -24    2    4    4    0    0  0.17462808828E+03  0.10016898792E+03  0.11220481353E+02  0.21665624436E+03  0.79279465567E+02 0.  0.
         24    2    4    4    0    0 -0.31613638429E+03 -0.30416161396E+03 -0.12221570584E+04  0.13009363983E+04  0.79442659658E+02 0.  0.
         13    1    3    3    0    0  0.14389561086E+03  0.20749097893E+03  0.23316471058E+03  0.34369206482E+03  0.00000000000E+00 0.  1.
        -13    1    3    3    0    0 -0.23873148479E+01 -0.34983528890E+01  0.78188279319E+01  0.88922334285E+01  0.00000000000E+00 0. -1.
          4    1    6    6  502    0 -0.88830900682E+02 -0.40711804049E+02 -0.25372225097E+03  0.27188850756E+03  0.00000000000E+00 0. -1.
          1    1    5    5  503    0  0.93077335307E+02  0.81922511576E+01  0.55453252217E+01  0.93601570279E+02  0.00000000000E+00 0. -1.
         -2    1    5    5    0  503  0.81550752976E+02  0.91976736761E+02  0.56751561313E+01  0.12305467408E+03  0.00000000000E+00 0.  1.
         -3    1    6    6    0  502 -0.22730548361E+03 -0.26344980991E+03 -0.96843480745E+03  0.10290478908E+04  0.00000000000E+00 0.  1.
<mgrwt>
<rscale>  0 0.15989850E+04</rscale>
<asrwt>0</asrwt>
<pdfrwt beam="1">  1        2 0.21847154E+00 0.15989850E+04</pdfrwt>
<pdfrwt beam="2">  1       -2 0.69247992E-01 0.15989850E+04</pdfrwt>
<totfact> 0.25722677E+01</totfact>
</mgrwt>
</event>
<event>
12    1  0.1556559E-007  0.2126507E+04  0.7818608E-02  0.8549656E-01
          1   -1    0    0  501    0  0.00000000000E+00  0.00000000000E+00  0.19811652976E+04  0.19811652976E+04  0.00000000000E+00 0. -1.
         -1   -1    0    0    0  501 -0.00000000000E+00 -0.00000000000E+00 -0.57062769067E+03  0.57062769067E+03  0.00000000000E+00 0.  1.
         23    2    1    2    0    0  0.89116605258E+02  0.36177431514E+03 -0.36164370190E+03  0.52641922934E+03  0.86652255996E+02 0.  0.
        254    2    1    2    0    0 -0.89116605258E+02 -0.36177431514E+03  0.17721813089E+04  0.20253737590E+04  0.90702251772E+03 0.  0.
        -24    2    4    4    0    0  0.11967724081E+02 -0.12974300838E+03  0.17540949847E+04  0.17606767529E+04  0.78466158829E+02 0.  0.
         24    2    4    4    0    0 -0.10108432934E+03 -0.23203130677E+03  0.18086324181E+02  0.26469700613E+03  0.75371221138E+02 0.  0.
         11    1    3    3    0    0  0.25899747444E+02  0.11395545765E+03 -0.17234684983E+03  0.20823083320E+03  0.00000000000E+00 0. -1.
        -11    1    3    3    0    0  0.63216857814E+02  0.24781885749E+03 -0.18929685206E+03  0.31818839614E+03  0.00000000000E+00 0.  1.
          2    1    6    6  502    0  0.95044347021E+01 -0.42334861721E+02  0.12070527088E+02  0.45036345545E+02  0.00000000000E+00 0. -1.
          3    1    5    5  503    0 -0.16672886156E+02 -0.78360185861E+02  0.13438190076E+04  0.13462049729E+04  0.00000000000E+00 0. -1.
         -4    1    5    5    0  503  0.28640610238E+02 -0.51382822515E+02  0.41027597709E+03  0.41447177995E+03  0.00000000000E+00 0.  1.
         -1    1    6    6    0  502 -0.11058876404E+03 -0.18969644504E+03  0.60157970926E+01  0.21966066059E+03  0.00000000000E+00 0.  1.
<mgrwt>
<rscale>  0 0.21265068E+04</rscale>
<asrwt>0</asrwt>
<pdfrwt beam="1">  1        1 0.30479466E+00 0.21265068E+04</pdfrwt>
<pdfrwt beam="2">  1       -1 0.87788876E-01 0.21265068E+04</pdfrwt>
<totfact> 0.35926064E+00</totfact>
</mgrwt>
</event>
<event>
12    1  0.1556559E-007  0.2007335E+04  0.7818608E-02  0.8603199E-01
          2   -1    0    0  501    0  0.00000000000E+00  0.00000000000E+00  0.90019979219E+03  0.90019979219E+03  0.00000000000E+00 0.  1.
         -2   -1    0    0    0  501 -0.00000000000E+00 -0.00000000000E+00 -0.11190272248E+04  0.11190272248E+04  0.00000000000E+00 0. -1.
         23    2    1    2    0    0  0.34344677044E+03  0.53784826796E+02  0.63477475073E+03  0.72962582377E+03  0.92554669441E+02 0.  0.
        254    2    1    2    0    0 -0.34344677044E+03 -0.53784826796E+02 -0.85360218333E+03  0.12896011932E+04  0.90199005450E+03 0.  0.
        -24    2    4    4    0    0 -0.49066295459E+03  0.25685123652E+03 -0.30598551487E+03  0.63765519696E+03  0.79084272687E+02 0.  0.
         24    2    4    4    0    0  0.14721618415E+03 -0.31063606332E+03 -0.54761666846E+03  0.65194599625E+03  0.83559546086E+02 0.  0.
         11    1    3    3    0    0  0.25900599049E+03  0.34553191987E+02  0.54758502544E+03  0.60673502147E+03  0.00000000000E+00 0.  1.
        -11    1    3    3    0    0  0.84440779951E+02  0.19231634808E+02  0.87189725289E+02  0.12289080231E+03  0.00000000000E+00 0. -1.
          2    1    6    6  502    0  0.84975386294E+02 -0.92406569214E+02 -0.16892071399E+03  0.21046139295E+03  0.00000000000E+00 0. -1.
          1    1    5    5  503    0 -0.73736957765E+02  0.29542085108E+02 -0.76360907125E+02  0.11018557923E+03  0.00000000000E+00 0. -1.
         -2    1    5    5    0  503 -0.41692599682E+03  0.22730915141E+03 -0.22962460775E+03  0.52746961773E+03  0.00000000000E+00 0.  1.
         -1    1    6    6    0  502  0.62240797856E+02 -0.21822949410E+03 -0.37869595447E+03  0.44148460330E+03  0.00000000000E+00 0.  1.
<mgrwt>
<rscale>  0 0.20073346E+04</rscale>
<asrwt>0</asrwt>
<pdfrwt beam="1">  1        2 0.13849228E+00 0.20073346E+04</pdfrwt>
<pdfrwt beam="2">  1       -2 0.17215803E+00 0.20073346E+04</pdfrwt>
<totfact> 0.55980302E+00</totfact>
</mgrwt>
</event>
<event>
12    1  0.1556559E-007  0.1956536E+04  0.7818608E-02  0.8627216E-01
         -2   -1    0    0    0  501 -0.00000000000E+00  0.00000000000E+00  0.39454565709E+03  0.39454565709E+03  0.00000000000E+00 0.  1.
          2   -1    0    0  501    0  0.00000000000E+00 -0.00000000000E+00 -0.24255952640E+04  0.24255952640E+04  0.00000000000E+00 0. -1.
         23    2    1    2    0    0 -0.27865874684E+03  0.41376027527E+02 -0.18248281650E+04  0.18486273972E+04  0.89792810495E+02 0.  0.
        254    2    1    2    0    0  0.27865874684E+03 -0.41376027527E+02 -0.20622144189E+03  0.97151352394E+03  0.90661379388E+03 0.  0.
        -24    2    4    4    0    0 -0.20456364118E+03  0.26140608263E+03  0.40964799958E+02  0.34430961270E+03  0.81802024633E+02 0.  0.
         24    2    4    4    0    0  0.48322238803E+03 -0.30278211016E+03 -0.24718624185E+03  0.62720391124E+03  0.84278262886E+02 0.  0.
         11    1    3    3    0    0 -0.16673469462E+03  0.54346779543E+02 -0.89691718342E+03  0.91390068648E+03  0.00000000000E+00 0.  1.
        -11    1    3    3    0    0 -0.11192405223E+03 -0.12970752016E+02 -0.92791098160E+03  0.93472671067E+03  0.00000000000E+00 0. -1.
          4    1    6    6  502    0  0.60201807232E+02 -0.28679747374E+02 -0.21011423879E+01  0.66717316363E+02  0.00000000000E+00 0. -1.
          1    1    5    5  503    0 -0.41236814183E+02  0.11540667445E+03  0.20912652115E+02  0.12432423083E+03  0.00000000000E+00 0. -1.
         -2    1    5    5    0  503 -0.16332682700E+03  0.14599940818E+03  0.20052147843E+02  0.21998538188E+03  0.00000000000E+00 0.  1.
         -3    1    6    6    0  502  0.42302058079E+03 -0.27410236278E+03 -0.24508509946E+03  0.56048659488E+03  0.00000000000E+00 0.  1.
<mgrwt>
<rscale>  0 0.19565358E+04</rscale>
<asrwt>0</asrwt>
<pdfrwt beam="1">  1        2 0.37316851E+00 0.19565358E+04</pdfrwt>
<pdfrwt beam="2">  1       -2 0.60699331E-01 0.19565358E+04</pdfrwt>
<totfact> 0.90591868E+00</totfact>
</mgrwt>
</event>
<event>
12    1  0.1556559E-007  0.1742747E+04  0.7818608E-02  0.8737353E-01
         -2   -1    0    0    0  501 -0.00000000000E+00  0.00000000000E+00  0.16035733671E+04  0.16035733671E+04  0.00000000000E+00 0.  1.
          2   -1    0    0  501    0  0.00000000000E+00 -0.00000000000E+00 -0.47349975033E+03  0.47349975033E+03  0.00000000000E+00 0. -1.
         23    2    1    2    0    0 -0.16651461539E+03  0.72543861892E+02  0.11617409507E+04  0.11797471724E+04  0.95768601940E+02 0.  0.
        254    2    1    2    0    0  0.16651461539E+03 -0.72543861892E+02 -0.31667333996E+02  0.89732594501E+03  0.87818067760E+03 0.  0.
        -24    2    4    4    0    0 -0.22900146881E+03 -0.19016923391E+03 -0.27370741123E+03  0.41231085505E+03  0.80489030263E+02 0.  0.
         24    2    4    4    0    0  0.39551608421E+03  0.11762537201E+03  0.24204007723E+03  0.48501508996E+03  0.79922071375E+02 0.  0.
         13    1    3    3    0    0 -0.17066034452E+03  0.83473104967E+02  0.10212334167E+04  0.10387542557E+04  0.00000000000E+00 0.  1.
        -13    1    3    3    0    0  0.41457291292E+01 -0.10929243075E+02  0.14050753401E+03  0.14099291663E+03  0.00000000000E+00 0. -1.
          4    1    6    6  502    0  0.22980356545E+03  0.37740988792E+02  0.16583360829E+03  0.28589306842E+03  0.00000000000E+00 0. -1.
          1    1    5    5  503    0 -0.19038879114E+03 -0.11696673199E+03 -0.17724452120E+03  0.28520997262E+03  0.00000000000E+00 0. -1.
         -2    1    5    5    0  503 -0.38612677669E+02 -0.73202501918E+02 -0.96462890029E+02  0.12710088244E+03  0.00000000000E+00 0.  1.
         -1    1    6    6    0  502  0.16571251875E+03  0.79884383222E+02  0.76206468942E+02  0.19912202154E+03  0.00000000000E+00 0.  1.
<mgrwt>
<rscale>  0 0.17427468E+04</rscale>
<asrwt>0</asrwt>
<pdfrwt beam="1">  1        2 0.72846116E-01 0.17427468E+04</pdfrwt>
<pdfrwt beam="2">  1       -2 0.24670359E+00 0.17427468E+04</pdfrwt>
<totfact> 0.41885081E+00</totfact>
</mgrwt>
</event>
<event>
12    1  0.1556559E-007  0.1852595E+04  0.7818608E-02  0.8678819E-01
          1   -1    0    0  501    0  0.00000000000E+00  0.00000000000E+00  0.12746268829E+04  0.12746268829E+04  0.00000000000E+00 0. -1.
         -1   -1    0    0    0  501 -0.00000000000E+00 -0.00000000000E+00 -0.67315961412E+03  0.67315961412E+03  0.00000000000E+00 0.  1.
         23    2    1    2    0    0  0.68248703583E+03 -0.27833859825E+03  0.48248343950E+03  0.88560516729E+03  0.90803709112E+02 0.  0.
        254    2    1    2    0    0 -0.68248703583E+03  0.27833859825E+03  0.11898382925E+03  0.10621813297E+04  0.75552041415E+03 0.  0.
        -24    2    4    4    0    0 -0.44467948688E+03 -0.16960993713E+03  0.23374762488E+03  0.53583633791E+03  0.77299754634E+02 0.  0.
         24    2    4    4    0    0 -0.23780754895E+03  0.44794853538E+03 -0.11476379563E+03  0.52634499179E+03  0.81596574138E+02 0.  0.
         13    1    3    3    0    0  0.59881636211E+03 -0.27030351817E+03  0.40858319446E+03  0.77368291584E+03  0.00000000000E+00 0. -1.
        -13    1    3    3    0    0  0.83670673721E+02 -0.80350800769E+01  0.73900245050E+02  0.11192225146E+03  0.00000000000E+00 0.  1.
          2    1    6    6  502    0 -0.10329929611E+03  0.26045561120E+03 -0.35867891071E+02  0.28247898257E+03  0.00000000000E+00 0. -1.
          1    1    5    5  503    0 -0.28179415202E+03 -0.12835272869E+03  0.11602633485E+03  0.33067276491E+03  0.00000000000E+00 0. -1.
         -2    1    5    5    0  503 -0.16288533486E+03 -0.41257208437E+02  0.11772129003E+03  0.20516357300E+03  0.00000000000E+00 0.  1.
         -1    1    6    6    0  502 -0.13450825284E+03  0.18749292418E+03 -0.78895904559E+02  0.24386600923E+03  0.00000000000E+00 0.  1.
<mgrwt>
<rscale>  0 0.18525953E+04</rscale>
<asrwt>0</asrwt>
<pdfrwt beam="1">  1        1 0.19609644E+00 0.18525953E+04</pdfrwt>
<pdfrwt beam="2">  1       -1 0.10356302E+00 0.18525953E+04</pdfrwt>
<totfact> 0.77904748E+00</totfact>
</mgrwt>
</event>
<event>
12    1  0.1556559E-007  0.2412042E+04  0.7818608E-02  0.8435009E-01
          2   -1    0    0  501    0  0.00000000000E+00  0.00000000000E+00  0.10836446170E+04  0.10836446170E+04  0.00000000000E+00 0. -1.
         -2   -1    0    0    0  501 -0.00000000000E+00 -0.00000000000E+00 -0.13422176466E+04  0.13422176466E+04  0.00000000000E+00 0.  1.
         23    2    1    2    0    0  0.43636877291E+03 -0.12687953492E+03 -0.10613851789E+04  0.11582725032E+04  0.92415211439E+02 0.  0.
        254    2    1    2    0    0 -0.43636877291E+03  0.12687953492E+03  0.80281214938E+03  0.12675897604E+04  0.86934477115E+03 0.  0.
        -24    2    4    4    0    0 -0.41316846814E+02  0.29733911580E+03 -0.44728719665E+02  0.31381357614E+03  0.79753812386E+02 0.  0.
         24    2    4    4    0    0 -0.39505192610E+03 -0.17045958088E+03  0.84754086904E+03  0.95377618426E+03  0.78999948940E+02 0.  0.
         13    1    3    3    0    0  0.30892710498E+02 -0.18078228004E+02 -0.15944709397E+03  0.16341529202E+03  0.00000000000E+00 0. -1.
        -13    1    3    3    0    0  0.40547606241E+03 -0.10880130691E+03 -0.90193808497E+03  0.99485721121E+03  0.00000000000E+00 0.  1.
          2    1    6    6  502    0 -0.11494982684E+02  0.43848557656E+01  0.52256509247E+02  0.53685233964E+02  0.00000000000E+00 0. -1.
          3    1    5    5  503    0  0.46888327672E+01  0.83710764183E+02 -0.45278261052E+02  0.95286925214E+02  0.00000000000E+00 0. -1.
         -4    1    5    5    0  503 -0.46005679581E+02  0.21362835162E+03  0.54954138662E+00  0.21852665092E+03  0.00000000000E+00 0.  1.
         -1    1    6    6    0  502 -0.38355694341E+03 -0.17484443665E+03  0.79528435980E+03  0.90009095030E+03  0.00000000000E+00 0.  1.
<mgrwt>
<rscale>  0 0.24120422E+04</rscale>
<asrwt>0</asrwt>
<pdfrwt beam="1">  1        2 0.16671456E+00 0.24120422E+04</pdfrwt>
<pdfrwt beam="2">  1       -2 0.20649502E+00 0.24120422E+04</pdfrwt>
<totfact> 0.24164311E+00</totfact>
</mgrwt>
</event>
<event>
12    1  0.1556559E-007  0.1097376E+04  0.7818608E-02  0.9207753E-01
          2   -1    0    0  501    0  0.00000000000E+00  0.00000000000E+00  0.68749630456E+03  0.68749630456E+03  0.00000000000E+00 0. -1.
         -2   -1    0    0    0  501 -0.00000000000E+00 -0.00000000000E+00 -0.43790573373E+03  0.43790573373E+03  0.00000000000E+00 0.  1.
         23    2    1    2    0    0  0.45344724060E+01  0.14726675020E+03  0.83937476017E+02  0.19333789593E+03  0.92876180830E+02 0.  0.
        254    2    1    2    0    0 -0.45344724060E+01 -0.14726675020E+03  0.16565309482E+03  0.93206414237E+03  0.90531461963E+03 0.  0.
        -24    2    4    4    0    0 -0.30272013963E+03  0.20364027661E+03 -0.10977767327E+03  0.38941889344E+03  0.80542484603E+02 0.  0.
         24    2    4    4    0    0  0.29818566722E+03 -0.35090702681E+03  0.27543076808E+03  0.54264524893E+03  0.80940253131E+02 0.  0.
         13    1    3    3    0    0  0.35385898554E+02  0.10540820139E+03  0.87099629761E+02  0.14124233162E+03  0.00000000000E+00 0. -1.
        -13    1    3    3    0    0 -0.30851426148E+02  0.41858548814E+02 -0.31621537443E+01  0.52095564307E+02  0.00000000000E+00 0.  1.
          2    1    6    6  502    0  0.48148123779E+01 -0.39180750843E+02  0.22371724842E+02  0.45374086517E+02  0.00000000000E+00 0. -1.
          1    1    5    5  503    0 -0.99679551211E+02  0.52181083670E+02  0.20348784742E+01  0.11253008110E+03  0.00000000000E+00 0. -1.
         -2    1    5    5    0  503 -0.20304058842E+03  0.15145919294E+03 -0.11181255174E+03  0.27688881234E+03  0.00000000000E+00 0.  1.
         -1    1    6    6    0  502  0.29337085484E+03 -0.31172627597E+03  0.25305904324E+03  0.49727116241E+03  0.00000000000E+00 0.  1.
<mgrwt>
<rscale>  0 0.10973761E+04</rscale>
<asrwt>0</asrwt>
<pdfrwt beam="1">  1        2 0.10576866E+00 0.10973761E+04</pdfrwt>
<pdfrwt beam="2">  1       -2 0.67370112E-01 0.10973761E+04</pdfrwt>
<totfact> 0.84156299E+01</totfact>
</mgrwt>
</event>
<event>
12    1  0.1556559E-007  0.1980514E+04  0.7818608E-02  0.8615785E-01
         -2   -1    0    0    0  501 -0.00000000000E+00  0.00000000000E+00  0.11685123016E+04  0.11685123016E+04  0.00000000000E+00 0.  1.
          2   -1    0    0  501    0  0.00000000000E+00 -0.00000000000E+00 -0.83919471918E+03  0.83919471918E+03  0.00000000000E+00 0. -1.
         23    2    1    2    0    0  0.71618751981E+03 -0.16630180327E+03  0.40390590779E+03  0.84393669316E+03  0.92240481461E+02 0.  0.
        254    2    1    2    0    0 -0.71618751981E+03  0.16630180327E+03 -0.74588325380E+02  0.11637703276E+04  0.89900895650E+03 0.  0.
        -24    2    4    4    0    0  0.16301823427E+03  0.70403726284E+02  0.15241510267E+03  0.24711899029E+03  0.79409082984E+02 0.  0.
         24    2    4    4    0    0 -0.87920575407E+03  0.95898076983E+02 -0.22700342805E+03  0.91665133733E+03  0.80746013640E+02 0.  0.
         13    1    3    3    0    0  0.72541693675E+02  0.10346502136E+02  0.33107842472E+02  0.80408187772E+02  0.00000000000E+00 0. -1.
        -13    1    3    3    0    0  0.64364582613E+03 -0.17664830540E+03  0.37079806532E+03  0.76352850539E+03  0.00000000000E+00 0.  1.
          4    1    6    6  502    0 -0.61796501554E+03  0.50384037865E+02 -0.12473499931E+03  0.63243824343E+03  0.00000000000E+00 0. -1.
          1    1    5    5  503    0  0.16705761898E+03  0.72647306800E+02  0.15708878636E+03  0.24054680635E+03  0.00000000000E+00 0. -1.
         -2    1    5    5    0  503 -0.40393847160E+01 -0.22435805157E+01 -0.46736836924E+01  0.65721839346E+01  0.00000000000E+00 0.  1.
         -3    1    6    6    0  502 -0.26124073854E+03  0.45514039118E+02 -0.10226842874E+03  0.28421309390E+03  0.00000000000E+00 0.  1.
<mgrwt>
<rscale>  0 0.19805144E+04</rscale>
<asrwt>0</asrwt>
<pdfrwt beam="1">  1        2 0.12910688E+00 0.19805144E+04</pdfrwt>
<pdfrwt beam="2">  1       -2 0.17977112E+00 0.19805144E+04</pdfrwt>
<totfact> 0.54669784E+00</totfact>
</mgrwt>
</event>
<event>
12    1  0.1556559E-007  0.1995225E+04  0.7818608E-02  0.8608856E-01
         -1   -1    0    0    0  501 -0.00000000000E+00  0.00000000000E+00  0.60968707391E+03  0.60968707391E+03  0.00000000000E+00 0.  1.
          1   -1    0    0  501    0  0.00000000000E+00 -0.00000000000E+00 -0.16323639093E+04  0.16323639093E+04  0.00000000000E+00 0. -1.
         23    2    1    2    0    0 -0.55274195948E+02  0.32758199341E+03  0.39895817221E+03  0.52608237658E+03  0.85028493038E+02 0.  0.
        254    2    1    2    0    0  0.55274195948E+02 -0.32758199341E+03 -0.14216350076E+04  0.17159686066E+04  0.90174107421E+03 0.  0.
        -24    2    4    4    0    0 -0.13907222182E+03 -0.21794688270E+03 -0.14525377091E+04  0.14774737656E+04  0.78873349199E+02 0.  0.
         24    2    4    4    0    0  0.19434641777E+03 -0.10963511071E+03  0.30902701439E+02  0.23849484104E+03  0.78322567937E+02 0.  0.
         11    1    3    3    0    0 -0.25103688469E+02  0.59485127609E+02  0.36271512868E+02  0.74056047877E+02  0.00000000000E+00 0. -1.
        -11    1    3    3    0    0 -0.30170507478E+02  0.26809686581E+03  0.36268665935E+03  0.45202632871E+03  0.00000000000E+00 0.  1.
          2    1    6    6  502    0  0.11424003052E+03 -0.34758146384E+02  0.45683311581E+02  0.12785100027E+03  0.00000000000E+00 0. -1.
          3    1    5    5  503    0 -0.33606948681E+02 -0.44806047180E+02 -0.16939982426E+03  0.17841891526E+03  0.00000000000E+00 0. -1.
         -4    1    5    5    0  503 -0.10546527314E+03 -0.17314083552E+03 -0.12831378848E+04  0.12990548503E+04  0.00000000000E+00 0.  1.
         -1    1    6    6    0  502  0.80106387246E+02 -0.74876964326E+02 -0.14780610142E+02  0.11064384077E+03  0.00000000000E+00 0.  1.
<mgrwt>
<rscale>  0 0.19952255E+04</rscale>
<asrwt>0</asrwt>
<pdfrwt beam="1">  1        1 0.25113290E+00 0.19952255E+04</pdfrwt>
<pdfrwt beam="2">  1       -1 0.93798014E-01 0.19952255E+04</pdfrwt>
<totfact> 0.54207224E+00</totfact>
</mgrwt>
</event>
<event>
12    1  0.1556559E-007  0.2219027E+04  0.7818608E-02  0.8510550E-01
         -2   -1    0    0    0  501 -0.00000000000E+00  0.00000000000E+00  0.99720433924E+03  0.99720433924E+03  0.00000000000E+00 0. -1.
          2   -1    0    0  501    0  0.00000000000E+00 -0.00000000000E+00 -0.12344716237E+04  0.12344716237E+04  0.00000000000E+00 0.  1.
         23    2    1    2    0    0  0.83671474744E+02 -0.46743165700E+03 -0.89701669201E+03  0.10189640188E+04  0.90307564883E+02 0.  0.
        254    2    1    2    0    0 -0.83671474744E+02  0.46743165700E+03  0.65974940751E+03  0.12127119441E+04  0.89994872582E+03 0.  0.
        -24    2    4    4    0    0  0.11875296513E+03  0.63919844384E+03  0.66754989605E+03  0.93530572534E+03  0.80604086782E+02 0.  0.
         24    2    4    4    0    0 -0.20242443987E+03 -0.17176678684E+03 -0.78004885418E+01  0.27740621880E+03  0.80086701098E+02 0.  0.
         13    1    3    3    0    0  0.57312740603E+02 -0.10261760796E+03 -0.22562767874E+03  0.25440710114E+03  0.00000000000E+00 0. -1.
        -13    1    3    3    0    0  0.26358734141E+02 -0.36481404904E+03 -0.67138901328E+03  0.76455691769E+03  0.00000000000E+00 0.  1.
          2    1    6    6  502    0 -0.16001902061E+03 -0.10672067533E+03  0.23327251286E+02  0.19375125845E+03  0.00000000000E+00 0. -1.
          1    1    5    5  503    0  0.28072186526E+02  0.35078914079E+03  0.33492452696E+03  0.48581427286E+03  0.00000000000E+00 0. -1.
         -2    1    5    5    0  503  0.90680778602E+02  0.28840930304E+03  0.33262536909E+03  0.44949145248E+03  0.00000000000E+00 0.  1.
         -3    1    6    6    0  502 -0.42405419264E+02 -0.65046111503E+02 -0.31127739828E+02  0.83654960352E+02  0.00000000000E+00 0.  1.
<mgrwt>
<rscale>  0 0.22190272E+04</rscale>
<asrwt>0</asrwt>
<pdfrwt beam="1">  1        2 0.18991871E+00 0.22190272E+04</pdfrwt>
<pdfrwt beam="2">  1       -2 0.15341605E+00 0.22190272E+04</pdfrwt>
<totfact> 0.46528015E+00</totfact>
</mgrwt>
</event>
<event>
12    1  0.1556559E-007  0.1375654E+04  0.7818608E-02  0.8971633E-01
          1   -1    0    0  501    0  0.00000000000E+00  0.00000000000E+00  0.30578612534E+04  0.30578612534E+04  0.00000000000E+00 0. -1.
         -1   -1    0    0    0  501 -0.00000000000E+00 -0.00000000000E+00 -0.15471784845E+03  0.15471784845E+03  0.00000000000E+00 0.  1.
         23    2    1    2    0    0 -0.18947163212E+03  0.14143061317E+03  0.37404992849E+03  0.45180451736E+03  0.91169376344E+02 0.  0.
        254    2    1    2    0    0  0.18947163212E+03 -0.14143061317E+03  0.25290934765E+04  0.27607745845E+04  0.10815083800E+04 0.  0.
        -24    2    4    4    0    0 -0.17391970222E+03 -0.50771818521E+03  0.16629760340E+04  0.17493882670E+04  0.82729684589E+02 0.  0.
         24    2    4    4    0    0  0.36339133434E+03  0.36628757203E+03  0.86611744246E+03  0.10113863175E+04  0.80765164241E+02 0.  0.
         11    1    3    3    0    0 -0.13532031205E+03  0.13645798431E+03  0.32975343474E+03  0.38166699629E+03  0.00000000000E+00 0. -1.
        -11    1    3    3    0    0 -0.54151320071E+02  0.49726288684E+01  0.44296493747E+02  0.70137521068E+02  0.00000000000E+00 0.  1.
          4    1    6    6  502    0  0.61914917428E+02  0.10531035167E+03  0.23501718653E+03  0.26487129919E+03  0.00000000000E+00 0. -1.
          1    1    5    5  503    0  0.59384488115E+01 -0.49690071019E+02  0.12652149864E+03  0.13605902377E+03  0.00000000000E+00 0. -1.
         -2    1    5    5    0  503 -0.17985815103E+03 -0.45802811419E+03  0.15364545354E+04  0.16133292433E+04  0.00000000000E+00 0.  1.
         -3    1    6    6    0  502  0.30147641691E+03  0.26097722036E+03  0.63110025594E+03  0.74651501830E+03  0.00000000000E+00 0.  1.
<mgrwt>
<rscale>  0 0.13756536E+04</rscale>
<asrwt>0</asrwt>
<pdfrwt beam="1">  1        1 0.47044015E+00 0.13756536E+04</pdfrwt>
<pdfrwt beam="2">  1       -1 0.23802748E-01 0.13756536E+04</pdfrwt>
<totfact> 0.81424834E+00</totfact>
</mgrwt>
</event>
<event>
12    1  0.1556559E-007  0.1407144E+04  0.7818608E-02  0.8948664E-01
         -2   -1    0    0    0  501 -0.00000000000E+00  0.00000000000E+00  0.18721371119E+03  0.18721371119E+03  0.00000000000E+00 0.  1.
          2   -1    0    0  501    0  0.00000000000E+00 -0.00000000000E+00 -0.26441084005E+04  0.26441084005E+04  0.00000000000E+00 0. -1.
         23    2    1    2    0    0  0.57950450331E+02 -0.22617917123E+03 -0.67716199979E+02  0.25940643992E+03  0.90503840485E+02 0.  0.
        254    2    1    2    0    0 -0.57950450331E+02  0.22617917123E+03 -0.23891784894E+04  0.25719156718E+04  0.92307155552E+03 0.  0.
        -24    2    4    4    0    0  0.11203551950E+03 -0.13808490531E+03 -0.55298877615E+02  0.20232594574E+03  0.79110200033E+02 0.  0.
         24    2    4    4    0    0 -0.16998596983E+03  0.36426407654E+03 -0.23338796118E+04  0.23695897261E+04  0.79861632236E+02 0.  0.
         13    1    3    3    0    0  0.17158439583E+02 -0.34384553123E+01 -0.22477960097E+02  0.28486728734E+02  0.00000000000E+00 0. -1.
        -13    1    3    3    0    0  0.40792010748E+02 -0.22274071592E+03 -0.45238239881E+02  0.23091971119E+03  0.00000000000E+00 0.  1.
          2    1    6    6  502    0 -0.16294546749E+03  0.32839392316E+03 -0.19650884437E+04  0.19989913421E+04  0.00000000000E+00 0. -1.
          3    1    5    5  503    0  0.56817596175E+02 -0.45082479832E+02 -0.59901823470E+02  0.94068579653E+02  0.00000000000E+00 0. -1.
         -4    1    5    5    0  503  0.55217923329E+02 -0.93002425477E+02  0.46029458555E+01  0.10825736609E+03  0.00000000000E+00 0.  1.
         -1    1    6    6    0  502 -0.70405023423E+01  0.35870153379E+02 -0.36879116803E+03  0.37059838396E+03  0.00000000000E+00 0.  1.
<mgrwt>
<rscale>  0 0.14071437E+04</rscale>
<asrwt>0</asrwt>
<pdfrwt beam="1">  1        2 0.40678591E+00 0.14071437E+04</pdfrwt>
<pdfrwt beam="2">  1       -2 0.28802109E-01 0.14071437E+04</pdfrwt>
<totfact> 0.31000177E+01</totfact>
</mgrwt>
</event>
<event>
12    1  0.1556559E-007  0.1493879E+04  0.7818608E-02  0.8888534E-01
         -2   -1    0    0    0  501 -0.00000000000E+00  0.00000000000E+00  0.35546242021E+03  0.35546242021E+03  0.00000000000E+00 0.  1.
          2   -1    0    0  501    0  0.00000000000E+00 -0.00000000000E+00 -0.15695568410E+04  0.15695568410E+04  0.00000000000E+00 0. -1.
         23    2    1    2    0    0 -0.42504459606E+03  0.18709308140E+03 -0.44902289352E+03  0.65238698991E+03  0.91216752595E+02 0.  0.
        254    2    1    2    0    0  0.42504459606E+03 -0.18709308140E+03 -0.76507152726E+03  0.12726322713E+04  0.90476059063E+03 0.  0.
        -24    2    4    4    0    0 -0.23786192538E+03 -0.10193025451E+03 -0.22941117804E+02  0.27082411763E+03  0.76494022484E+02 0.  0.
         24    2    4    4    0    0  0.66290652143E+03 -0.85162826897E+02 -0.74213040945E+03  0.10018081537E+04  0.78512857904E+02 0.  0.
         13    1    3    3    0    0 -0.20449267447E+03  0.45030353047E+02 -0.22556545356E+03  0.30777387876E+03  0.00000000000E+00 0. -1.
        -13    1    3    3    0    0 -0.22055192159E+03  0.14206272836E+03 -0.22345743996E+03  0.34461311115E+03  0.00000000000E+00 0.  1.
          2    1    6    6  502    0  0.28485298709E+02  0.12119440719E+02 -0.29759820615E+02  0.42941122585E+02  0.00000000000E+00 0. -1.
          3    1    5    5  503    0 -0.41713314832E+02 -0.49877296767E+02  0.81081713087E+01  0.65524711438E+02  0.00000000000E+00 0. -1.
         -4    1    5    5    0  503 -0.19614861054E+03 -0.52052957738E+02 -0.31049289112E+02  0.20529940619E+03  0.00000000000E+00 0.  1.
         -1    1    6    6    0  502  0.63442122272E+03 -0.97282267616E+02 -0.71237058884E+03  0.95886703107E+03  0.00000000000E+00 0.  1.
<mgrwt>
<rscale>  0 0.14938788E+04</rscale>
<asrwt>0</asrwt>
<pdfrwt beam="1">  1        2 0.24147028E+00 0.14938788E+04</pdfrwt>
<pdfrwt beam="2">  1       -2 0.54686526E-01 0.14938788E+04</pdfrwt>
<totfact> 0.35268657E+01</totfact>
</mgrwt>
</event>
<event>
12    1  0.1556559E-007  0.1843300E+04  0.7818608E-02  0.8683606E-01
         -2   -1    0    0    0  501 -0.00000000000E+00  0.00000000000E+00  0.22532553602E+03  0.22532553602E+03  0.00000000000E+00 0.  1.
          2   -1    0    0  501    0  0.00000000000E+00 -0.00000000000E+00 -0.37698295158E+04  0.37698295158E+04  0.00000000000E+00 0. -1.
         23    2    1    2    0    0  0.28612143161E+03  0.49959039377E+03 -0.20727068126E+04  0.21528321393E+04  0.84360261503E+02 0.  0.
        254    2    1    2    0    0 -0.28612143161E+03 -0.49959039377E+03 -0.14717971671E+04  0.18423229125E+04  0.94684253052E+03 0.  0.
        -24    2    4    4    0    0 -0.62026796126E+03 -0.28849531989E+03 -0.77158792150E+03  0.10342653535E+04  0.79968791287E+02 0.  0.
         24    2    4    4    0    0  0.33414652964E+03 -0.21109507388E+03 -0.70020924565E+03  0.80805755897E+03  0.80305650077E+02 0.  0.
         13    1    3    3    0    0  0.76707123371E+02  0.91778337810E+02 -0.33673992491E+03  0.35735279920E+03  0.00000000000E+00 0.  1.
        -13    1    3    3    0    0  0.20941430824E+03  0.40781205596E+03 -0.17359668877E+04  0.17954793401E+04  0.00000000000E+00 0. -1.
          4    1    6    6  502    0  0.33763624370E+03 -0.20718994860E+03 -0.67805420452E+03  0.78529192796E+03  0.00000000000E+00 0. -1.
          3    1    5    5  503    0 -0.53708093319E+03 -0.26973097398E+03 -0.70253923293E+03  0.92453885852E+03  0.00000000000E+00 0. -1.
         -4    1    5    5    0  503 -0.83187028071E+02 -0.18764345917E+02 -0.69048688576E+02  0.10972649503E+03  0.00000000000E+00 0.  1.
         -3    1    6    6    0  502 -0.34897140609E+01 -0.39051252749E+01 -0.22155041132E+02  0.22765631008E+02  0.00000000000E+00 0.  1.
<mgrwt>
<rscale>  0 0.18433001E+04</rscale>
<asrwt>0</asrwt>
<pdfrwt beam="1">  1        2 0.57997375E+00 0.18433001E+04</pdfrwt>
<pdfrwt beam="2">  1       -2 0.34665468E-01 0.18433001E+04</pdfrwt>
<totfact> 0.38406196E+00</totfact>
</mgrwt>
</event>
<event>
12    1  0.1556559E-007  0.1209780E+04  0.7818608E-02  0.9104339E-01
          2   -1    0    0  501    0  0.00000000000E+00  0.00000000000E+00  0.15224051060E+04  0.15224051060E+04  0.00000000000E+00 0. -1.
         -2   -1    0    0    0  501 -0.00000000000E+00 -0.00000000000E+00 -0.24033791613E+03  0.24033791613E+03  0.00000000000E+00 0.  1.
         23    2    1    2    0    0 -0.71865425171E+02 -0.22330251558E+03  0.43747100736E+03  0.50499188820E+03  0.92775385033E+02 0.  0.
        254    2    1    2    0    0  0.71865425171E+02  0.22330251558E+03  0.84459618255E+03  0.12577511340E+04  0.90197924069E+03 0.  0.
        -24    2    4    4    0    0  0.18919661802E+03  0.28478467063E+03 -0.45875200139E+02  0.35399323677E+03  0.79429269161E+02 0.  0.
         24    2    4    4    0    0 -0.11733119285E+03 -0.61482155042E+02  0.89047138268E+03  0.90375789720E+03  0.79324581057E+02 0.  0.
         13    1    3    3    0    0 -0.54702645337E+02 -0.20352600736E+03  0.30996355578E+03  0.37482345310E+03  0.00000000000E+00 0. -1.
        -13    1    3    3    0    0 -0.17162779834E+02 -0.19776508220E+02  0.12750745158E+03  0.13016843511E+03  0.00000000000E+00 0.  1.
          2    1    6    6  502    0 -0.20654516789E+02 -0.32128935106E+02  0.10341497354E+03  0.11024306911E+03  0.00000000000E+00 0. -1.
          1    1    5    5  503    0  0.14925305561E+03  0.23154995824E+03 -0.42951475401E+01  0.27551824996E+03  0.00000000000E+00 0. -1.
         -2    1    5    5    0  503  0.39943562408E+02  0.53234712386E+02 -0.41580052599E+02  0.78474986810E+02  0.00000000000E+00 0.  1.
         -1    1    6    6    0  502 -0.96676676061E+02 -0.29353219936E+02  0.78705640914E+03  0.79351482808E+03  0.00000000000E+00 0.  1.
<mgrwt>
<rscale>  0 0.12097796E+04</rscale>
<asrwt>0</asrwt>
<pdfrwt beam="1">  1        2 0.23421616E+00 0.12097796E+04</pdfrwt>
<pdfrwt beam="2">  1       -2 0.36975065E-01 0.12097796E+04</pdfrwt>
<totfact> 0.83759362E+01</totfact>
</mgrwt>
</event>
<event>
12    1  0.1556559E-007  0.1609402E+04  0.7818608E-02  0.8814793E-01
         -1   -1    0    0    0  501 -0.00000000000E+00  0.00000000000E+00  0.34111153884E+03  0.34111153884E+03  0.00000000000E+00 0.  1.
          1   -1    0    0  501    0  0.00000000000E+00 -0.00000000000E+00 -0.18983334124E+04  0.18983334124E+04  0.00000000000E+00 0. -1.
         23    2    1    2    0    0  0.74584161050E+01 -0.24842657581E+03 -0.12071580076E+04  0.12357920179E+04  0.90443710993E+02 0.  0.
        254    2    1    2    0    0 -0.74584161050E+01  0.24842657581E+03 -0.35006386598E+03  0.10036529333E+04  0.90719518774E+03 0.  0.
        -24    2    4    4    0    0 -0.14823350180E+03  0.48882692699E+02  0.27587628195E+03  0.32688184319E+03  0.79883213267E+02 0.  0.
         24    2    4    4    0    0  0.14077508570E+03  0.19954388311E+03 -0.62594014794E+03  0.67677109008E+03  0.81133553678E+02 0.  0.
         13    1    3    3    0    0  0.33687443788E+02 -0.83829877576E+02 -0.57386728385E+03  0.58093541097E+03  0.00000000000E+00 0.  1.
        -13    1    3    3    0    0 -0.26229027683E+02 -0.16459669823E+03 -0.63329072371E+03  0.65485660698E+03  0.00000000000E+00 0. -1.
          2    1    6    6  502    0  0.96800043652E+01  0.49396963513E+02 -0.20401897855E+03  0.21013687467E+03  0.00000000000E+00 0. -1.
          3    1    5    5  503    0 -0.38084434232E+02  0.51049431320E+02  0.12210656883E+03  0.13771885390E+03  0.00000000000E+00 0. -1.
         -4    1    5    5    0  503 -0.11014906757E+03 -0.21667386209E+01  0.15376971313E+03  0.18916298929E+03  0.00000000000E+00 0.  1.
         -1    1    6    6    0  502  0.13109508133E+03  0.15014691960E+03 -0.42192116939E+03  0.46663421541E+03  0.00000000000E+00 0.  1.
<mgrwt>
<rscale>  0 0.16094017E+04</rscale>
<asrwt>0</asrwt>
<pdfrwt beam="1">  1        1 0.29205129E+00 0.16094017E+04</pdfrwt>
<pdfrwt beam="2">  1       -1 0.52478699E-01 0.16094017E+04</pdfrwt>
<totfact> 0.12256174E+01</totfact>
</mgrwt>
</event>
<event>
12    1  0.1556559E-007  0.1880779E+04  0.7818608E-02  0.8664484E-01
         -2   -1    0    0    0  501 -0.00000000000E+00  0.00000000000E+00  0.96671877293E+03  0.96671877293E+03  0.00000000000E+00 0.  1.
          2   -1    0    0  501    0  0.00000000000E+00 -0.00000000000E+00 -0.91477708083E+03  0.91477708083E+03  0.00000000000E+00 0. -1.
         23    2    1    2    0    0  0.10466305075E+03 -0.65913354584E+03 -0.26620813872E+03  0.72425657809E+03  0.90936419228E+02 0.  0.
        254    2    1    2    0    0 -0.10466305075E+03  0.65913354584E+03  0.31814983082E+03  0.11572392757E+04  0.89026515199E+03 0.  0.
        -24    2    4    4    0    0 -0.21264575222E+03  0.44685208649E+03  0.59854177660E+03  0.78079511980E+03  0.80583854612E+02 0.  0.
         24    2    4    4    0    0  0.10798270147E+03  0.21228145935E+03 -0.28039194579E+03  0.37644415587E+03  0.79792715357E+02 0.  0.
         11    1    3    3    0    0  0.31964414084E+01 -0.21715244651E+02  0.74732941274E+01  0.23186617111E+02  0.00000000000E+00 0. -1.
        -11    1    3    3    0    0  0.10146660934E+03 -0.63741830119E+03 -0.27368143285E+03  0.70106996098E+03  0.00000000000E+00 0.  1.
          4    1    6    6  502    0  0.15190967357E+02  0.81175676916E+02 -0.53304442548E+02  0.98293537973E+02  0.00000000000E+00 0. -1.
          1    1    5    5  503    0 -0.16289220710E+03  0.28746242908E+03  0.44260230747E+03  0.55232718731E+03  0.00000000000E+00 0. -1.
         -2    1    5    5    0  503 -0.49753545114E+02  0.15938965741E+03  0.15593946914E+03  0.22846793249E+03  0.00000000000E+00 0.  1.
         -3    1    6    6    0  502  0.92791734110E+02  0.13110578243E+03 -0.22708750324E+03  0.27815061789E+03  0.00000000000E+00 0.  1.
<mgrwt>
<rscale>  0 0.18807788E+04</rscale>
<asrwt>0</asrwt>
<pdfrwt beam="1">  1        2 0.14073494E+00 0.18807788E+04</pdfrwt>
<pdfrwt beam="2">  1       -2 0.14872596E+00 0.18807788E+04</pdfrwt>
<totfact> 0.82359885E+00</totfact>
</mgrwt>
</event>
<event>
12    1  0.1556559E-007  0.2474322E+04  0.7818608E-02  0.8412191E-01
          2   -1    0    0  501    0  0.00000000000E+00  0.00000000000E+00  0.12964426348E+04  0.12964426348E+04  0.00000000000E+00 0.  1.
         -2   -1    0    0    0  501 -0.00000000000E+00 -0.00000000000E+00 -0.11805900785E+04  0.11805900785E+04  0.00000000000E+00 0. -1.
         23    2    1    2    0    0 -0.54407223636E+03 -0.93064253787E+03  0.45688505257E+02  0.10827305453E+04  0.90043670704E+02 0.  0.
        254    2    1    2    0    0  0.54407223636E+03  0.93064253787E+03  0.70164051087E+02  0.13943021680E+04  0.88150179232E+03 0.  0.
        -24    2    4    4    0    0  0.37255268024E+03  0.98938928408E+03  0.28909616174E+03  0.10990197374E+04  0.81124210244E+02 0.  0.
         24    2    4    4    0    0  0.17151955612E+03 -0.58746746208E+02 -0.21893211065E+03  0.29528243055E+03  0.79939392033E+02 0.  0.
         11    1    3    3    0    0 -0.51337594118E+03 -0.83162356954E+03  0.53395479142E+02  0.97877663212E+03  0.00000000000E+00 0. -1.
        -11    1    3    3    0    0 -0.30696295175E+02 -0.99018968332E+02 -0.77069738854E+01  0.10395391322E+03  0.00000000000E+00 0.  1.
          2    1    6    6  502    0 -0.83619195857E+01 -0.55481432479E+01 -0.68726591364E+01  0.12162936992E+02  0.00000000000E+00 0. -1.
          3    1    5    5  503    0  0.15132271275E+03  0.29738537873E+03  0.82804853105E+02  0.34379248185E+03  0.00000000000E+00 0. -1.
         -4    1    5    5    0  503  0.22122996749E+03  0.69200390535E+03  0.20629130863E+03  0.75522725557E+03  0.00000000000E+00 0.  1.
         -1    1    6    6    0  502  0.17988147570E+03 -0.53198602960E+02 -0.21205945152E+03  0.28311949356E+03  0.00000000000E+00 0.  1.
<mgrwt>
<rscale>  0 0.24743220E+04</rscale>
<asrwt>0</asrwt>
<pdfrwt beam="1">  1        2 0.19945271E+00 0.24743220E+04</pdfrwt>
<pdfrwt beam="2">  1       -2 0.18162924E+00 0.24743220E+04</pdfrwt>
<totfact> 0.26233910E+00</totfact>
</mgrwt>
</event>
<event>
12    1  0.1556559E-007  0.1976210E+04  0.7818608E-02  0.8617825E-01
          1   -1    0    0  501    0  0.00000000000E+00  0.00000000000E+00  0.15119649791E+04  0.15119649791E+04  0.00000000000E+00 0. -1.
         -1   -1    0    0    0  501 -0.00000000000E+00 -0.00000000000E+00 -0.64575000232E+03  0.64575000232E+03  0.00000000000E+00 0.  1.
         23    2    1    2    0    0 -0.47346232641E+03  0.20159416871E+03  0.98872277781E+03  0.11183223347E+04  0.90913857594E+02 0.  0.
        254    2    1    2    0    0  0.47346232641E+03 -0.20159416871E+03 -0.12250780100E+03  0.10393926468E+04  0.89471902263E+03 0.  0.
        -24    2    4    4    0    0  0.15368397276E+03 -0.26784155408E+03 -0.46230939435E+03  0.56145046703E+03  0.78350426003E+02 0.  0.
         24    2    4    4    0    0  0.31977835365E+03  0.66247385370E+02  0.33980159335E+03  0.47794217974E+03  0.79477624496E+02 0.  0.
         11    1    3    3    0    0 -0.39753217007E+03  0.19946470759E+03  0.87521375238E+03  0.98174187452E+03  0.00000000000E+00 0. -1.
        -11    1    3    3    0    0 -0.75930156340E+02  0.21294611204E+01  0.11350902543E+03  0.13658046017E+03  0.00000000000E+00 0.  1.
          2    1    6    6  502    0  0.13097520434E+03  0.66950476983E+02  0.14062205556E+03  0.20349799270E+03  0.00000000000E+00 0. -1.
          1    1    5    5  503    0  0.59628863647E+01 -0.86521209923E+01  0.83287069414E+00  0.10540819942E+02  0.00000000000E+00 0. -1.
         -4    1    5    5    0  503  0.14772108639E+03 -0.25918943309E+03 -0.46314226504E+03  0.55090964709E+03  0.00000000000E+00 0.  1.
         -1    1    6    6    0  502  0.18880314931E+03 -0.70309161275E+00  0.19917953778E+03  0.27444418704E+03  0.00000000000E+00 0.  1.
<mgrwt>
<rscale>  0 0.19762099E+04</rscale>
<asrwt>0</asrwt>
<pdfrwt beam="1">  1        1 0.23261000E+00 0.19762099E+04</pdfrwt>
<pdfrwt beam="2">  1       -1 0.99346155E-01 0.19762099E+04</pdfrwt>
<totfact> 0.57717684E+00</totfact>
</mgrwt>
</event>
<event>
12    1  0.1556559E-007  0.1381248E+04  0.7818608E-02  0.8967505E-01
         -2   -1    0    0    0  501 -0.00000000000E+00  0.00000000000E+00  0.29738034134E+03  0.29738034134E+03  0.00000000000E+00 0.  1.
          2   -1    0    0  501    0  0.00000000000E+00 -0.00000000000E+00 -0.16038779194E+04  0.16038779194E+04  0.00000000000E+00 0. -1.
         23    2    1    2    0    0  0.24949813723E+02 -0.24624551369E+03 -0.69763370954E+03  0.74636906809E+03  0.95470659923E+02 0.  0.
        254    2    1    2    0    0 -0.24949813723E+02  0.24624551369E+03 -0.60886386855E+03  0.11548891927E+04  0.94962860673E+03 0.  0.
        -24    2    4    4    0    0 -0.82736822260E+02  0.60112244413E+03 -0.34264992113E+03  0.70048376323E+03  0.71238749973E+02 0.  0.
         24    2    4    4    0    0  0.57787008537E+02 -0.35487693045E+03 -0.26621394743E+03  0.45440542945E+03  0.79608130193E+02 0.  0.
         13    1    3    3    0    0  0.44708157031E+01 -0.21711440898E+03 -0.65885677634E+03  0.69372249964E+03  0.00000000000E+00 0. -1.
        -13    1    3    3    0    0  0.20478998020E+02 -0.29131104708E+02 -0.38776933195E+02  0.52646568449E+02  0.00000000000E+00 0.  1.
          4    1    6    6  502    0  0.45872838857E+02 -0.79530962562E+02 -0.80140024144E+02  0.12186843242E+03  0.00000000000E+00 0. -1.
          1    1    5    5  503    0 -0.30253102672E+02  0.81723669367E+02 -0.68433169970E+02  0.11080210787E+03  0.00000000000E+00 0. -1.
         -2    1    5    5    0  503 -0.52483719589E+02  0.51939877477E+03 -0.27421675116E+03  0.58968165536E+03  0.00000000000E+00 0.  1.
         -3    1    6    6    0  502  0.11914169680E+02 -0.27534596789E+03 -0.18607392328E+03  0.33253699703E+03  0.00000000000E+00 0.  1.
<mgrwt>
<rscale>  0 0.13812484E+04</rscale>
<asrwt>0</asrwt>
<pdfrwt beam="1">  1        2 0.24675045E+00 0.13812484E+04</pdfrwt>
<pdfrwt beam="2">  1       -2 0.45750822E-01 0.13812484E+04</pdfrwt>
<totfact> 0.48982309E+01</totfact>
</mgrwt>
</event>
<event>
12    1  0.1556559E-007  0.1015900E+04  0.7818608E-02  0.9291276E-01
          2   -1    0    0  501    0  0.00000000000E+00  0.00000000000E+00  0.23718072959E+04  0.23718072959E+04  0.00000000000E+00 0.  1.
         -2   -1    0    0    0  501 -0.00000000000E+00 -0.00000000000E+00 -0.10878339581E+03  0.10878339581E+03  0.00000000000E+00 0. -1.
         23    2    1    2    0    0 -0.19639447344E+02 -0.75092423299E+02  0.32868294286E+03  0.34991782465E+03  0.91571977979E+02 0.  0.
        254    2    1    2    0    0  0.19639447344E+02  0.75092423299E+02  0.19343409572E+04  0.21306728670E+04  0.88998165582E+03 0.  0.
        -24    2    4    4    0    0  0.35584881513E+03 -0.74906564946E+02  0.15447435938E+04  0.15889305026E+04  0.78917671857E+02 0.  0.
         24    2    4    4    0    0 -0.33620936779E+03  0.14999898825E+03  0.38959736340E+03  0.54174236440E+03  0.78499989512E+02 0.  0.
         13    1    3    3    0    0  0.16682582333E+02 -0.49247598774E+02  0.68795853224E+02  0.86235166603E+02  0.00000000000E+00 0. -1.
        -13    1    3    3    0    0 -0.36322029677E+02 -0.25844824526E+02  0.25988708964E+03  0.26368265805E+03  0.00000000000E+00 0.  1.
          4    1    6    6  502    0 -0.27390715442E+03  0.15350162634E+03  0.32795899471E+03  0.45403191600E+03  0.00000000000E+00 0. -1.
          3    1    5    5  503    0  0.31838258200E+03 -0.88973628667E+02  0.13283403426E+04  0.13688578601E+04  0.00000000000E+00 0. -1.
         -4    1    5    5    0  503  0.37466233133E+02  0.14067063721E+02  0.21640325114E+03  0.22007264257E+03  0.00000000000E+00 0.  1.
         -3    1    6    6    0  502 -0.62302213363E+02 -0.35026380985E+01  0.61638368688E+02  0.87710448397E+02  0.00000000000E+00 0.  1.
<mgrwt>
<rscale>  0 0.10159001E+04</rscale>
<asrwt>0</asrwt>
<pdfrwt beam="1">  1        2 0.36489339E+00 0.10159001E+04</pdfrwt>
<pdfrwt beam="2">  1       -2 0.16735909E-01 0.10159001E+04</pdfrwt>
<totfact> 0.12101473E+02</totfact>
</mgrwt>
</event>
<event>
12    1  0.1556559E-007  0.1763067E+04  0.7818608E-02  0.8726190E-01
         -1   -1    0    0    0  501 -0.00000000000E+00  0.00000000000E+00  0.78911722513E+03  0.78911722513E+03  0.00000000000E+00 0. -1.
          1   -1    0    0  501    0  0.00000000000E+00 -0.00000000000E+00 -0.98477268723E+03  0.98477268723E+03  0.00000000000E+00 0.  1.
         23    2    1    2    0    0  0.37986352040E+03  0.17617790609E+03 -0.56569459252E+03  0.71005767777E+03  0.94003111763E+02 0.  0.
        254    2    1    2    0    0 -0.37986352040E+03 -0.17617790609E+03  0.37003913043E+03  0.10638322346E+04  0.90524864904E+03 0.  0.
        -24    2    4    4    0    0 -0.38387388636E+03 -0.50034084040E+03  0.35859184539E+03  0.72997794485E+03  0.81114555926E+02 0.  0.
         24    2    4    4    0    0  0.40103659551E+01  0.32416293431E+03  0.11447285037E+02  0.33385428974E+03  0.78930066697E+02 0.  0.
         13    1    3    3    0    0  0.10184839560E+03  0.22250448285E+02 -0.88587207769E+02  0.13680596301E+03  0.00000000000E+00 0.  1.
        -13    1    3    3    0    0  0.27801512480E+03  0.15392745780E+03 -0.47710738475E+03  0.57325171476E+03  0.00000000000E+00 0. -1.
          2    1    6    6  502    0 -0.13372944098E+02  0.35685662061E+02  0.23198889448E+02  0.44614914347E+02  0.00000000000E+00 0. -1.
          1    1    5    5  503    0 -0.24097996924E+03 -0.25654859282E+03  0.22173213167E+03  0.41599719262E+03  0.00000000000E+00 0. -1.
         -2    1    5    5    0  503 -0.14289391712E+03 -0.24379224758E+03  0.13685971372E+03  0.31398075223E+03  0.00000000000E+00 0.  1.
         -1    1    6    6    0  502  0.17383310053E+02  0.28847727225E+03 -0.11751604410E+02  0.28923937540E+03  0.00000000000E+00 0.  1.
<mgrwt>
<rscale>  0 0.17630667E+04</rscale>
<asrwt>0</asrwt>
<pdfrwt beam="1">  1        1 0.15150349E+00 0.17630667E+04</pdfrwt>
<pdfrwt beam="2">  1       -1 0.12140265E+00 0.17630667E+04</pdfrwt>
<totfact> 0.88592058E+00</totfact>
</mgrwt>
</event>
<event>
12    1  0.1556559E-007  0.1194791E+04  0.7818608E-02  0.9117429E-01
         -1   -1    0    0    0  501 -0.00000000000E+00  0.00000000000E+00  0.32050558202E+03  0.32050558202E+03  0.00000000000E+00 0.  1.
          1   -1    0    0  501    0  0.00000000000E+00 -0.00000000000E+00 -0.11134944164E+04  0.11134944164E+04  0.00000000000E+00 0. -1.
         23    2    1    2    0    0 -0.13052116896E+03 -0.18528699746E+03 -0.26547214884E+03  0.36034514145E+03  0.89476880718E+02 0.  0.
        254    2    1    2    0    0  0.13052116896E+03  0.18528699746E+03 -0.52751668550E+03  0.10736548569E+04  0.90724519913E+03 0.  0.
        -24    2    4    4    0    0 -0.15790136838E+03 -0.15451334570E+03  0.13548597114E+03  0.27080500997E+03  0.78560097463E+02 0.  0.
         24    2    4    4    0    0  0.28842253734E+03  0.33980034316E+03 -0.66300265665E+03  0.80284984696E+03  0.79646222651E+02 0.  0.
         13    1    3    3    0    0 -0.44569085421E+02 -0.10878906088E+03 -0.80426946677E+02  0.14244281973E+03  0.00000000000E+00 0. -1.
        -13    1    3    3    0    0 -0.85952083538E+02 -0.76497936583E+02 -0.18504520216E+03  0.21790232172E+03  0.00000000000E+00 0.  1.
          2    1    6    6  502    0  0.67593055113E+02  0.11673210172E+03 -0.25042633581E+03  0.28444429039E+03  0.00000000000E+00 0. -1.
          3    1    5    5  503    0 -0.17537909526E+02 -0.28349283790E+02  0.57773018451E+02  0.66700688324E+02  0.00000000000E+00 0. -1.
         -4    1    5    5    0  503 -0.14036345886E+03 -0.12616406191E+03  0.77712952692E+02  0.20410432165E+03  0.00000000000E+00 0.  1.
         -1    1    6    6    0  502  0.22082948223E+03  0.22306824143E+03 -0.41257632084E+03  0.51840555656E+03  0.00000000000E+00 0.  1.
<mgrwt>
<rscale>  0 0.11947907E+04</rscale>
<asrwt>0</asrwt>
<pdfrwt beam="1">  1        1 0.17130683E+00 0.11947907E+04</pdfrwt>
<pdfrwt beam="2">  1       -1 0.49308551E-01 0.11947907E+04</pdfrwt>
<totfact> 0.50528799E+01</totfact>
</mgrwt>
</event>
<event>
12    1  0.1556559E-007  0.1127359E+04  0.7818608E-02  0.9178928E-01
          2   -1    0    0  501    0  0.00000000000E+00  0.00000000000E+00  0.19492120638E+04  0.19492120638E+04  0.00000000000E+00 0.  1.
         -2   -1    0    0    0  501 -0.00000000000E+00 -0.00000000000E+00 -0.16300674682E+03  0.16300674682E+03  0.00000000000E+00 0. -1.
         23    2    1    2    0    0  0.10225274245E+03 -0.13739959482E+03  0.22296844470E+03  0.29516619318E+03  0.89854784335E+02 0.  0.
        254    2    1    2    0    0 -0.10225274245E+03  0.13739959482E+03  0.15632368723E+04  0.18170526174E+04  0.91029469058E+03 0.  0.
        -24    2    4    4    0    0  0.12325715783E+03 -0.35185588254E+03  0.62907993405E+03  0.73568260612E+03  0.80575706514E+02 0.  0.
         24    2    4    4    0    0 -0.22550990028E+03  0.48925547736E+03  0.93415693820E+03  0.10813700113E+04  0.80537437905E+02 0.  0.
         13    1    3    3    0    0  0.38500273119E+02 -0.30032730362E+02  0.12433579769E+02  0.50386802133E+02  0.00000000000E+00 0.  1.
        -13    1    3    3    0    0  0.63752469333E+02 -0.10736686446E+03  0.21053486493E+03  0.24477939105E+03  0.00000000000E+00 0. -1.
          2    1    6    6  502    0 -0.17263472018E+02  0.10916443037E+03  0.16715436732E+03  0.20038833009E+03  0.00000000000E+00 0. -1.
          1    1    5    5  503    0 -0.82370130018E+01 -0.55933346655E+02  0.75109427783E+02  0.94009647341E+02  0.00000000000E+00 0. -1.
         -2    1    5    5    0  503  0.13149417083E+03 -0.29592253589E+03  0.55397050627E+03  0.64167295878E+03  0.00000000000E+00 0.  1.
         -1    1    6    6    0  502 -0.20824642826E+03  0.38009104700E+03  0.76700257089E+03  0.88098168122E+03  0.00000000000E+00 0.  1.
<mgrwt>
<rscale>  0 0.11273592E+04</rscale>
<asrwt>0</asrwt>
<pdfrwt beam="1">  1        2 0.29987876E+00 0.11273592E+04</pdfrwt>
<pdfrwt beam="2">  1       -2 0.25077962E-01 0.11273592E+04</pdfrwt>
<totfact> 0.10097309E+02</totfact>
</mgrwt>
</event>
<event>
12    1  0.1556559E-007  0.1277165E+04  0.7818608E-02  0.9047872E-01
         -1   -1    0    0    0  501 -0.00000000000E+00  0.00000000000E+00  0.56831780584E+03  0.56831780584E+03  0.00000000000E+00 0.  1.
          1   -1    0    0  501    0  0.00000000000E+00 -0.00000000000E+00 -0.71753482638E+03  0.71753482638E+03  0.00000000000E+00 0. -1.
         23    2    1    2    0    0 -0.12265113089E+03  0.20140658255E+03  0.17692378337E+03  0.30671830271E+03  0.84653296987E+02 0.  0.
        254    2    1    2    0    0  0.12265113089E+03 -0.20140658255E+03 -0.32614080392E+03  0.97913432951E+03  0.89259638126E+03 0.  0.
        -24    2    4    4    0    0 -0.77585631767E+02  0.19505120626E+03  0.18969662021E+03  0.29380141032E+03  0.79183064277E+02 0.  0.
         24    2    4    4    0    0  0.20023676266E+03 -0.39645778881E+03 -0.51583742413E+03  0.68533291919E+03  0.79494795826E+02 0.  0.
         11    1    3    3    0    0  0.63594963599E+01  0.12435229914E+02  0.34457565818E+02  0.37180666738E+02  0.00000000000E+00 0. -1.
        -11    1    3    3    0    0 -0.12901062725E+03  0.18897135263E+03  0.14246621755E+03  0.26953763597E+03  0.00000000000E+00 0.  1.
          4    1    6    6  502    0  0.77793785421E+01 -0.30868034600E+02 -0.12631558893E+02  0.34247781981E+02  0.00000000000E+00 0. -1.
          1    1    5    5  503    0  0.36587031709E+00  0.35938104127E+02  0.73786212117E+02  0.82073663789E+02  0.00000000000E+00 0. -1.
         -2    1    5    5    0  503 -0.77951502084E+02  0.15911310214E+03  0.11591040809E+03  0.21172774653E+03  0.00000000000E+00 0.  1.
         -3    1    6    6    0  502  0.19245738412E+03 -0.36558975421E+03 -0.50320586523E+03  0.65108513721E+03  0.00000000000E+00 0.  1.
<mgrwt>
<rscale>  0 0.12771653E+04</rscale>
<asrwt>0</asrwt>
<pdfrwt beam="1">  1        1 0.11038997E+00 0.12771653E+04</pdfrwt>
<pdfrwt beam="2">  1       -1 0.87433510E-01 0.12771653E+04</pdfrwt>
<totfact> 0.33251991E+01</totfact>
</mgrwt>
</event>
<event>
12    1  0.1556559E-007  0.1880313E+04  0.7818608E-02  0.8664718E-01
          1   -1    0    0  501    0  0.00000000000E+00  0.00000000000E+00  0.91790613785E+03  0.91790613785E+03  0.00000000000E+00 0. -1.
         -1   -1    0    0    0  501 -0.00000000000E+00 -0.00000000000E+00 -0.96294644840E+03  0.96294644840E+03  0.00000000000E+00 0.  1.
         23    2    1    2    0    0  0.25606312576E+03  0.63118554810E+03 -0.25390753694E+03  0.73397757376E+03  0.10144220503E+03 0.  0.
        254    2    1    2    0    0 -0.25606312576E+03 -0.63118554810E+03  0.20886722639E+03  0.11468750125E+04  0.89873981524E+03 0.  0.
        -24    2    4    4    0    0 -0.38228121642E+03 -0.50019671877E+03  0.49060977435E+03  0.80215800645E+03  0.80148803659E+02 0.  0.
         24    2    4    4    0    0  0.12621809066E+03 -0.13098882933E+03 -0.28174254796E+03  0.34471700604E+03  0.79761338378E+02 0.  0.
         11    1    3    3    0    0  0.20328661509E+03  0.47672759961E+03 -0.23699420399E+03  0.56987797363E+03  0.00000000000E+00 0. -1.
        -11    1    3    3    0    0  0.52776510672E+02  0.15445794849E+03 -0.16913332946E+02  0.16409960013E+03  0.00000000000E+00 0.  1.
          4    1    6    6  502    0  0.22319126979E+02 -0.75263952386E+02 -0.13842804390E+03  0.15913871086E+03  0.00000000000E+00 0. -1.
          1    1    5    5  503    0 -0.38347211547E+03 -0.50243986289E+03  0.48916141868E+03  0.79923436656E+03  0.00000000000E+00 0. -1.
         -2    1    5    5    0  503  0.11908990505E+01  0.22431441165E+01  0.14483556703E+01  0.29236398929E+01  0.00000000000E+00 0.  1.
         -3    1    6    6    0  502  0.10389896368E+03 -0.55724876940E+02 -0.14331450406E+03  0.18557829517E+03  0.00000000000E+00 0.  1.
<mgrwt>
<rscale>  0 0.18803132E+04</rscale>
<asrwt>0</asrwt>
<pdfrwt beam="1">  1        1 0.14121633E+00 0.18803132E+04</pdfrwt>
<pdfrwt beam="2">  1       -1 0.14814561E+00 0.18803132E+04</pdfrwt>
<totfact> 0.59492579E+00</totfact>
</mgrwt>
</event>
<event>
12    1  0.1556559E-007  0.1864934E+04  0.7818608E-02  0.8672511E-01
          2   -1    0    0  501    0  0.00000000000E+00  0.00000000000E+00  0.52993131699E+03  0.52993131699E+03  0.00000000000E+00 0. -1.
         -2   -1    0    0    0  501 -0.00000000000E+00 -0.00000000000E+00 -0.16407678617E+04  0.16407678617E+04  0.00000000000E+00 0.  1.
         23    2    1    2    0    0 -0.12013633502E+03 -0.59050825089E+02 -0.12403493238E+04  0.12508158472E+04  0.90300053131E+02 0.  0.
        254    2    1    2    0    0  0.12013633502E+03  0.59050825089E+02  0.12951277917E+03  0.91988333142E+03  0.90082853225E+03 0.  0.
        -24    2    4    4    0    0  0.23254777141E+03  0.13750048705E+03 -0.32973499948E+03  0.43359608612E+03  0.79344477384E+02 0.  0.
         24    2    4    4    0    0 -0.11241143638E+03 -0.78449661963E+02  0.45924777865E+03  0.48628724529E+03  0.82316962118E+02 0.  0.
         13    1    3    3    0    0 -0.78786841009E+01  0.77074896053E+00 -0.46760925535E+03  0.46767625919E+03  0.00000000000E+00 0.  1.
        -13    1    3    3    0    0 -0.11225765092E+03 -0.59821574050E+02 -0.77274006849E+03  0.78313958804E+03  0.00000000000E+00 0. -1.
          4    1    6    6  502    0  0.18653632249E+01  0.28985663282E+01  0.10814769822E+03  0.10820261502E+03  0.00000000000E+00 0. -1.
          3    1    5    5  503    0  0.38625967500E+02  0.23287897415E+01 -0.84732731332E+02  0.93150546891E+02  0.00000000000E+00 0. -1.
         -2    1    5    5    0  503  0.19392180391E+03  0.13517169731E+03 -0.24500226815E+03  0.34044553923E+03  0.00000000000E+00 0.  1.
         -3    1    6    6    0  502 -0.11427679961E+03 -0.81348228291E+02  0.35110008043E+03  0.37808463028E+03  0.00000000000E+00 0.  1.
<mgrwt>
<rscale>  0 0.18649335E+04</rscale>
<asrwt>0</asrwt>
<pdfrwt beam="1">  1        2 0.81527896E-01 0.18649335E+04</pdfrwt>
<pdfrwt beam="2">  1       -2 0.25242582E+00 0.18649335E+04</pdfrwt>
<totfact> 0.33544024E+00</totfact>
</mgrwt>
</event>
<event>
12    1  0.1556559E-007  0.1198727E+04  0.7818608E-02  0.9113971E-01
         -2   -1    0    0    0  501 -0.00000000000E+00  0.00000000000E+00  0.10551267796E+04  0.10551267796E+04  0.00000000000E+00 0. -1.
          2   -1    0    0  501    0  0.00000000000E+00 -0.00000000000E+00 -0.34046794185E+03  0.34046794185E+03  0.00000000000E+00 0.  1.
         23    2    1    2    0    0  0.51349220263E+02  0.21328833461E+03  0.29147671579E+03  0.37585442721E+03  0.90439031952E+02 0.  0.
        254    2    1    2    0    0 -0.51349220263E+02 -0.21328833461E+03  0.42318212200E+03  0.10197402943E+04  0.90147573639E+03 0.  0.
        -24    2    4    4    0    0 -0.54843715821E+01  0.28987857609E+02  0.66200323559E+03  0.66765350776E+03  0.81501829892E+02 0.  0.
         24    2    4    4    0    0 -0.45864848681E+02 -0.24227619222E+03 -0.23882111359E+03  0.35208678652E+03  0.78283097071E+02 0.  0.
         11    1    3    3    0    0  0.56866379439E+02  0.21956599854E+03  0.28850296583E+03  0.36698361560E+03  0.00000000000E+00 0. -1.
        -11    1    3    3    0    0 -0.55171591756E+01 -0.62776639274E+01  0.29737499575E+01  0.88708116068E+01  0.00000000000E+00 0.  1.
          4    1    6    6  502    0 -0.32925443188E+02 -0.19267963286E+03 -0.13893646915E+03  0.23981840669E+03  0.00000000000E+00 0. -1.
          3    1    5    5  503    0 -0.30637916012E+02  0.46679923641E+02  0.41226824334E+03  0.41603221226E+03  0.00000000000E+00 0. -1.
         -4    1    5    5    0  503  0.25153544430E+02 -0.17692066032E+02  0.24973499225E+03  0.25162129551E+03  0.00000000000E+00 0.  1.
         -3    1    6    6    0  502 -0.12939405493E+02 -0.49596559356E+02 -0.99884644442E+02  0.11226837983E+03  0.00000000000E+00 0.  1.
<mgrwt>
<rscale>  0 0.11987274E+04</rscale>
<asrwt>0</asrwt>
<pdfrwt beam="1">  1        2 0.52379684E-01 0.11987274E+04</pdfrwt>
<pdfrwt beam="2">  1       -2 0.16232720E+00 0.11987274E+04</pdfrwt>
<totfact> 0.22748381E+01</totfact>
</mgrwt>
</event>
<event>
12    1  0.1556559E-007  0.2594393E+04  0.7818608E-02  0.8370108E-01
         -2   -1    0    0    0  501 -0.00000000000E+00  0.00000000000E+00  0.37021952116E+03  0.37021952116E+03  0.00000000000E+00 0.  1.
          2   -1    0    0  501    0  0.00000000000E+00 -0.00000000000E+00 -0.45451910337E+04  0.45451910337E+04  0.00000000000E+00 0. -1.
         23    2    1    2    0    0 -0.95328071988E+03  0.39406516040E+03 -0.92568352877E+03  0.13890672653E+04  0.92662778826E+02 0.  0.
        254    2    1    2    0    0  0.95328071988E+03 -0.39406516040E+03 -0.32492879838E+04  0.35263432896E+04  0.90177220667E+03 0.  0.
        -24    2    4    4    0    0  0.24744667629E+03 -0.57798216619E+03 -0.14312802005E+04  0.15658509274E+04  0.89626293082E+02 0.  0.
         24    2    4    4    0    0  0.70583404359E+03  0.18391700579E+03 -0.18180077833E+04  0.19604923622E+04  0.79692157349E+02 0.  0.
         11    1    3    3    0    0 -0.15333667835E+03  0.52137633526E+02 -0.10444457632E+03  0.19271517656E+03  0.00000000000E+00 0. -1.
        -11    1    3    3    0    0 -0.79994404153E+03  0.34192752688E+03 -0.82123895245E+03  0.11963520887E+04  0.00000000000E+00 0.  1.
          4    1    6    6  502    0  0.57054069552E+03  0.12877342246E+03 -0.13826091342E+04  0.15012352572E+04  0.00000000000E+00 0. -1.
          1    1    5    5  503    0  0.17846884318E+03 -0.48817416310E+03 -0.11237876283E+04  0.12381695259E+04  0.00000000000E+00 0. -1.
         -2    1    5    5    0  503  0.68977833108E+02 -0.89808003088E+02 -0.30749257222E+03  0.32768140144E+03  0.00000000000E+00 0.  1.
         -3    1    6    6    0  502  0.13529334807E+03  0.55143583332E+02 -0.43539864912E+03  0.45925710498E+03  0.00000000000E+00 0.  1.
<mgrwt>
<rscale>  0 0.25943928E+04</rscale>
<asrwt>0</asrwt>
<pdfrwt beam="1">  1        2 0.69926020E+00 0.25943928E+04</pdfrwt>
<pdfrwt beam="2">  1       -2 0.56956846E-01 0.25943928E+04</pdfrwt>
<totfact> 0.28528596E-01</totfact>
</mgrwt>
</event>
<event>
12    1  0.1556559E-007  0.1881624E+04  0.7818608E-02  0.8664058E-01
          4   -1    0    0  501    0  0.00000000000E+00  0.00000000000E+00  0.83446309332E+03  0.83446309332E+03  0.00000000000E+00 0. -1.
         -4   -1    0    0    0  501 -0.00000000000E+00 -0.00000000000E+00 -0.10607143917E+04  0.10607143917E+04  0.00000000000E+00 0.  1.
         23    2    1    2    0    0  0.40761685660E+03  0.57585879520E+03 -0.24508484398E+03  0.75219987472E+03  0.89292872007E+02 0.  0.
        254    2    1    2    0    0 -0.40761685660E+03 -0.57585879520E+03  0.18833545594E+02  0.11429776103E+04  0.89904296972E+03 0.  0.
        -24    2    4    4    0    0 -0.13484563837E+03 -0.64562457347E+03  0.30787354152E+03  0.73202626386E+03  0.77858187487E+02 0.  0.
         24    2    4    4    0    0 -0.27277121823E+03  0.69765778269E+02 -0.28903999592E+03  0.41095134644E+03  0.77881246679E+02 0.  0.
         11    1    3    3    0    0  0.18396373920E+03  0.31860232659E+03 -0.96528090197E+02  0.38035216845E+03  0.00000000000E+00 0. -1.
        -11    1    3    3    0    0  0.22365311740E+03  0.25725646861E+03 -0.14855675378E+03  0.37184770627E+03  0.00000000000E+00 0.  1.
          4    1    6    6  502    0 -0.97961562399E+02  0.64633859397E+01 -0.56662974044E+02  0.11335314593E+03  0.00000000000E+00 0. -1.
          1    1    5    5  503    0  0.45027637909E+01 -0.57013791338E+01 -0.19458559923E+01  0.75211010714E+01  0.00000000000E+00 0. -1.
         -2    1    5    5    0  503 -0.13934840216E+03 -0.63992319434E+03  0.30981939751E+03  0.72450516279E+03  0.00000000000E+00 0.  1.
         -3    1    6    6    0  502 -0.17480965583E+03  0.63302392330E+02 -0.23237702188E+03  0.29759820050E+03  0.00000000000E+00 0.  1.
<mgrwt>
<rscale>  0 0.18816238E+04</rscale>
<asrwt>0</asrwt>
<pdfrwt beam="1">  1        4 0.12837894E+00 0.18816238E+04</pdfrwt>
<pdfrwt beam="2">  1       -4 0.16318683E+00 0.18816238E+04</pdfrwt>
<totfact> 0.19861910E-01</totfact>
</mgrwt>
</event>
<event>
12    1  0.1556559E-007  0.1493009E+04  0.7818608E-02  0.8889115E-01
          1   -1    0    0  501    0  0.00000000000E+00  0.00000000000E+00  0.25375134992E+04  0.25375134992E+04  0.00000000000E+00 0. -1.
         -1   -1    0    0    0  501 -0.00000000000E+00 -0.00000000000E+00 -0.21961225613E+03  0.21961225613E+03  0.00000000000E+00 0.  1.
         23    2    1    2    0    0 -0.18578423311E+03 -0.39847903095E+03  0.10332558594E+04  0.11265610012E+04  0.90668070519E+02 0.  0.
        254    2    1    2    0    0  0.18578423311E+03  0.39847903095E+03  0.12846453836E+04  0.16305647541E+04  0.90284347274E+03 0.  0.
        -24    2    4    4    0    0  0.54441697637E+03  0.27160047789E+03  0.81734278427E+03  0.10219650745E+04  0.78782756292E+02 0.  0.
         24    2    4    4    0    0 -0.35863274325E+03  0.12687855306E+03  0.46730259935E+03  0.60859967963E+03  0.85476540209E+02 0.  0.
         11    1    3    3    0    0 -0.35711905024E+02 -0.47940342639E+02  0.79989613523E+02  0.99859675967E+02  0.00000000000E+00 0. -1.
        -11    1    3    3    0    0 -0.15007232809E+03 -0.35053868831E+03  0.95326624591E+03  0.10267013252E+04  0.00000000000E+00 0.  1.
          2    1    6    6  502    0 -0.23117858057E+03  0.12164154585E+03  0.33507739152E+03  0.42487299290E+03  0.00000000000E+00 0. -1.
          3    1    5    5  503    0  0.51485316758E+03  0.27440458108E+03  0.76961990282E+03  0.96575693272E+03  0.00000000000E+00 0. -1.
         -4    1    5    5    0  503  0.29563808787E+02 -0.28041031908E+01  0.47722881443E+02  0.56208141741E+02  0.00000000000E+00 0.  1.
         -1    1    6    6    0  502 -0.12745416268E+03  0.52370072153E+01  0.13222520783E+03  0.18372668672E+03  0.00000000000E+00 0.  1.
<mgrwt>
<rscale>  0 0.14930091E+04</rscale>
<asrwt>0</asrwt>
<pdfrwt beam="1">  1        1 0.39038667E+00 0.14930091E+04</pdfrwt>
<pdfrwt beam="2">  1       -1 0.33786503E-01 0.14930091E+04</pdfrwt>
<totfact> 0.10236719E+01</totfact>
</mgrwt>
</event>
<event>
12    1  0.1556559E-007  0.1469079E+04  0.7818608E-02  0.8905280E-01
         -1   -1    0    0    0  501 -0.00000000000E+00  0.00000000000E+00  0.56122333056E+03  0.56122333056E+03  0.00000000000E+00 0.  1.
          1   -1    0    0  501    0  0.00000000000E+00 -0.00000000000E+00 -0.96137840826E+03  0.96137840826E+03  0.00000000000E+00 0. -1.
         23    2    1    2    0    0  0.21530640085E+02 -0.38333240639E+03 -0.37221059990E+03  0.54195039364E+03  0.88103327050E+02 0.  0.
        254    2    1    2    0    0 -0.21530640085E+02  0.38333240639E+03 -0.27944477804E+02  0.98065134518E+03  0.90193617552E+03 0.  0.
        -24    2    4    4    0    0 -0.39452966726E+03  0.37067973129E+03 -0.17077692874E+03  0.57333300147E+03  0.80553396297E+02 0.  0.
         24    2    4    4    0    0  0.37299902717E+03  0.12652675099E+02  0.14283245094E+03  0.40731834371E+03  0.78859112481E+02 0.  0.
         11    1    3    3    0    0  0.14405018386E+02 -0.21071276689E+03 -0.26402059630E+03  0.33810390409E+03  0.00000000000E+00 0. -1.
        -11    1    3    3    0    0  0.71256216997E+01 -0.17261963950E+03 -0.10819000360E+03  0.20384648955E+03  0.00000000000E+00 0.  1.
          2    1    6    6  502    0  0.35454653937E+03  0.96981115169E+00  0.14906026467E+03  0.38460778933E+03  0.00000000000E+00 0. -1.
          1    1    5    5  503    0 -0.18206296558E+03  0.21554264817E+03 -0.11334226966E+03  0.30405924868E+03  0.00000000000E+00 0. -1.
         -2    1    5    5    0  503 -0.21246670168E+03  0.15513708312E+03 -0.57434659080E+02  0.26927375279E+03  0.00000000000E+00 0.  1.
         -1    1    6    6    0  502  0.18452487801E+02  0.11682863947E+02 -0.62278137312E+01  0.22710554373E+02  0.00000000000E+00 0.  1.
<mgrwt>
<rscale>  0 0.14690786E+04</rscale>
<asrwt>0</asrwt>
<pdfrwt beam="1">  1        1 0.14790437E+00 0.14690786E+04</pdfrwt>
<pdfrwt beam="2">  1       -1 0.86342051E-01 0.14690786E+04</pdfrwt>
<totfact> 0.20833659E+01</totfact>
</mgrwt>
</event>
<event>
12    1  0.2335411E-007  0.2054114E+04  0.7818608E-02  0.8581730E-01
          1   -1    0    0  501    0  0.00000000000E+00  0.00000000000E+00  0.12748302996E+04  0.12748302996E+04  0.00000000000E+00 0. -1.
         -1   -1    0    0    0  501 -0.00000000000E+00 -0.00000000000E+00 -0.82744078066E+03  0.82744078066E+03  0.00000000000E+00 0.  1.
         23    2    1    2    0    0  0.57743661207E+03  0.12653960145E+03  0.75989511208E+03  0.96705317554E+03  0.91136991770E+02 0.  0.
        254    2    1    2    0    0 -0.57743661207E+03 -0.12653960145E+03 -0.31250559313E+03  0.11352179047E+04  0.91739557105E+03 0.  0.
        -24    2    4    4    0    0  0.35988145037E+02 -0.37605925691E+03 -0.25846621172E+03  0.46588284634E+03  0.86754438621E+02 0.  0.
         24    2    4    4    0    0 -0.61342475710E+03  0.24951965546E+03 -0.54039381409E+02  0.66933505839E+03  0.80865162820E+02 0.  0.
         11    1    3    3    0    0  0.55683948323E+03  0.10218554190E+03  0.72301838064E+03  0.91829607088E+03  0.00000000000E+00 0. -1.
        -11    1    3    3    0    0  0.20597128837E+02  0.24354059547E+02  0.36876731443E+02  0.48757104658E+02  0.00000000000E+00 0.  1.
          2    1    6    6  502    0 -0.51428399464E+03  0.18674862463E+03 -0.67223248773E+02  0.55125496925E+03  0.00000000000E+00 0. -1.
          3    1    5    5  503    0  0.53863306271E+02 -0.35362693120E+03 -0.22881659397E+03  0.42462959848E+03  0.00000000000E+00 0. -1.
         -4    1    5    5    0  503 -0.17875161234E+02 -0.22432325711E+02 -0.29649617747E+02  0.41253247854E+02  0.00000000000E+00 0.  1.
         -1    1    6    6    0  502 -0.99140762462E+02  0.62771030826E+02  0.13183867365E+02  0.11808008914E+03  0.00000000000E+00 0.  1.
<mgrwt>
<rscale>  0 0.20541145E+04</rscale>
<asrwt>0</asrwt>
<pdfrwt beam="1">  1        1 0.19612774E+00 0.20541145E+04</pdfrwt>
<pdfrwt beam="2">  1       -1 0.12729858E+00 0.20541145E+04</pdfrwt>
<totfact> 0.46558579E+00</totfact>
</mgrwt>
</event>
<event>
12    1  0.1556559E-007  0.1662137E+04  0.7818608E-02  0.8783258E-01
         -2   -1    0    0    0  501 -0.00000000000E+00  0.00000000000E+00  0.96693384760E+03  0.96693384760E+03  0.00000000000E+00 0.  1.
          2   -1    0    0  501    0  0.00000000000E+00 -0.00000000000E+00 -0.71429409040E+03  0.71429409040E+03  0.00000000000E+00 0. -1.
         23    2    1    2    0    0 -0.35100801773E+03 -0.50612915153E+02 -0.38761922131E+03  0.53300554510E+03  0.89877442615E+02 0.  0.
        254    2    1    2    0    0  0.35100801773E+03  0.50612915153E+02  0.64025897852E+03  0.11482223929E+04  0.88471170914E+03 0.  0.
        -24    2    4    4    0    0  0.43634812609E+03 -0.33109721398E+03  0.38977657757E+03  0.67704514716E+03  0.80245240475E+02 0.  0.
         24    2    4    4    0    0 -0.85340108366E+02  0.38171012914E+03  0.25048240095E+03  0.47117724574E+03  0.79252803959E+02 0.  0.
         13    1    3    3    0    0 -0.12155147324E+03  0.25227119556E+02 -0.13543800048E+03  0.18372430482E+03  0.00000000000E+00 0. -1.
        -13    1    3    3    0    0 -0.22945654449E+03 -0.75840034709E+02 -0.25218122083E+03  0.34928124028E+03  0.00000000000E+00 0.  1.
          4    1    6    6  502    0  0.97869316899E+01  0.33263990815E+02  0.40741387507E+02  0.53498951138E+02  0.00000000000E+00 0. -1.
          1    1    5    5  503    0  0.29859975686E+02 -0.19951836337E+02  0.41612120078E+01  0.36152587826E+02  0.00000000000E+00 0. -1.
         -2    1    5    5    0  503  0.40648815041E+03 -0.31114537765E+03  0.38561536556E+03  0.64089255933E+03  0.00000000000E+00 0.  1.
         -3    1    6    6    0  502 -0.95127040056E+02  0.34844613832E+03  0.20974101344E+03  0.41767829460E+03  0.00000000000E+00 0.  1.
<mgrwt>
<rscale>  0 0.16621373E+04</rscale>
<asrwt>0</asrwt>
<pdfrwt beam="1">  1        2 0.10989140E+00 0.16621373E+04</pdfrwt>
<pdfrwt beam="2">  1       -2 0.14875905E+00 0.16621373E+04</pdfrwt>
<totfact> 0.11666447E+01</totfact>
</mgrwt>
</event>
<event>
12    1  0.1556559E-007  0.1541640E+04  0.7818608E-02  0.8857226E-01
          2   -1    0    0  501    0  0.00000000000E+00  0.00000000000E+00  0.24775425272E+04  0.24775425272E+04  0.00000000000E+00 0. -1.
         -2   -1    0    0    0  501 -0.00000000000E+00 -0.00000000000E+00 -0.23981957888E+03  0.23981957888E+03  0.00000000000E+00 0.  1.
         23    2    1    2    0    0 -0.36554566927E+03  0.10606671175E+01  0.13366994591E+04  0.13911013846E+04  0.12154364226E+03 0.  0.
        254    2    1    2    0    0  0.36554566927E+03 -0.10606671175E+01  0.90102348922E+03  0.13262607215E+04  0.90194202246E+03 0.  0.
        -24    2    4    4    0    0 -0.22115465844E+03  0.52214424300E+02 -0.68977677059E+01  0.24114073861E+03  0.80408628675E+02 0.  0.
         24    2    4    4    0    0  0.58670032770E+03 -0.53275091418E+02  0.90792125693E+03  0.10851199829E+04  0.78159187215E+02 0.  0.
         13    1    3    3    0    0 -0.42630691126E+02 -0.40718341775E+02  0.17702030442E+03  0.18657852867E+03  0.00000000000E+00 0.  1.
        -13    1    3    3    0    0 -0.32291497814E+03  0.41779008892E+02  0.11596791547E+04  0.12045228559E+04  0.00000000000E+00 0. -1.
          2    1    6    6  502    0  0.57467782583E+03 -0.51519364064E+02  0.85955176482E+03  0.10352478374E+04  0.00000000000E+00 0. -1.
          1    1    5    5  503    0 -0.13780121246E+03  0.30310357481E+02  0.34913130921E+02  0.14535067470E+03  0.00000000000E+00 0. -1.
         -2    1    5    5    0  503 -0.83353445977E+02  0.21904066819E+02 -0.41810898627E+02  0.95790063907E+02  0.00000000000E+00 0.  1.
         -1    1    6    6    0  502  0.12022501874E+02 -0.17557273536E+01  0.48369492110E+02  0.49872145501E+02  0.00000000000E+00 0.  1.
<mgrwt>
<rscale>  0 0.15416397E+04</rscale>
<asrwt>0</asrwt>
<pdfrwt beam="1">  1        2 0.38116037E+00 0.15416397E+04</pdfrwt>
<pdfrwt beam="2">  1       -2 0.36895322E-01 0.15416397E+04</pdfrwt>
<totfact> 0.23969614E+01</totfact>
</mgrwt>
</event>
<event>
12    1  0.1556559E-007  0.1697253E+04  0.7818608E-02  0.8762932E-01
          2   -1    0    0  501    0  0.00000000000E+00  0.00000000000E+00  0.14416322955E+04  0.14416322955E+04  0.00000000000E+00 0. -1.
         -2   -1    0    0    0  501 -0.00000000000E+00 -0.00000000000E+00 -0.49954990021E+03  0.49954990021E+03  0.00000000000E+00 0.  1.
         23    2    1    2    0    0 -0.10648566795E+03 -0.60595348773E+03  0.34331614301E+03  0.71030947476E+03  0.90303649505E+02 0.  0.
        254    2    1    2    0    0  0.10648566795E+03  0.60595348773E+03  0.59876625226E+03  0.12308727209E+04  0.88204750638E+03 0.  0.
        -24    2    4    4    0    0  0.11213976556E+03  0.25751797662E+02 -0.19695372716E+03  0.24280327952E+03  0.83211656641E+02 0.  0.
         24    2    4    4    0    0 -0.56540976081E+01  0.58020169007E+03  0.79571997942E+03  0.98806944141E+03  0.80280541963E+02 0.  0.
         13    1    3    3    0    0 -0.20770440882E+02 -0.19896406509E+02  0.23788088199E+02  0.37324942687E+02  0.00000000000E+00 0. -1.
        -13    1    3    3    0    0 -0.85715227066E+02 -0.58605708122E+03  0.31952805481E+03  0.67298453207E+03  0.00000000000E+00 0.  1.
          2    1    6    6  502    0 -0.22379613588E+02  0.53955143912E+03  0.71327480465E+03  0.89463822270E+03  0.00000000000E+00 0. -1.
          1    1    5    5  503    0  0.12073948211E+03  0.16601337798E+02 -0.14530588074E+03  0.18965079999E+03  0.00000000000E+00 0. -1.
         -2    1    5    5    0  503 -0.85997165573E+01  0.91504598633E+01 -0.51647846422E+02  0.53152479534E+02  0.00000000000E+00 0.  1.
         -1    1    6    6    0  502  0.16725515980E+02  0.40650250943E+02  0.82445174767E+02  0.93431218706E+02  0.00000000000E+00 0.  1.
<mgrwt>
<rscale>  0 0.16972534E+04</rscale>
<asrwt>0</asrwt>
<pdfrwt beam="1">  1        2 0.22178958E+00 0.16972534E+04</pdfrwt>
<pdfrwt beam="2">  1       -2 0.76853832E-01 0.16972534E+04</pdfrwt>
<totfact> 0.19718858E+01</totfact>
</mgrwt>
</event>
<event>
12    1  0.1556559E-007  0.1915669E+04  0.7818608E-02  0.8647096E-01
          2   -1    0    0  501    0  0.00000000000E+00  0.00000000000E+00  0.30208194888E+04  0.30208194888E+04  0.00000000000E+00 0. -1.
         -2   -1    0    0    0  501 -0.00000000000E+00 -0.00000000000E+00 -0.30370789832E+03  0.30370789832E+03  0.00000000000E+00 0.  1.
         23    2    1    2    0    0  0.53424458588E+03 -0.15861040814E+03  0.13933972766E+03  0.58160756634E+03  0.90979461462E+02 0.  0.
        254    2    1    2    0    0 -0.53424458588E+03  0.15861040814E+03  0.25777718628E+04  0.27429198208E+04  0.75374188378E+03 0.  0.
        -24    2    4    4    0    0 -0.50086206601E+03  0.40716803096E+03  0.20866672260E+04  0.21856447660E+04  0.78830935507E+02 0.  0.
         24    2    4    4    0    0 -0.33382519879E+02 -0.24855762283E+03  0.49110463679E+03  0.55727505477E+03  0.80476318849E+02 0.  0.
         11    1    3    3    0    0  0.40090033482E+03 -0.97374420272E+02  0.13748812267E+03  0.43486301298E+03  0.00000000000E+00 0.  1.
        -11    1    3    3    0    0  0.13334425106E+03 -0.61235987863E+02  0.18516049962E+01  0.14674455337E+03  0.00000000000E+00 0. -1.
          2    1    6    6  502    0 -0.50822093807E-01 -0.21350441507E+03  0.37541255377E+03  0.43187813485E+03  0.00000000000E+00 0. -1.
          1    1    5    5  503    0 -0.29300375153E+03  0.28292570847E+03  0.13608279372E+04  0.14204755646E+04  0.00000000000E+00 0. -1.
         -2    1    5    5    0  503 -0.20785831448E+03  0.12424232249E+03  0.72583928879E+03  0.76516920139E+03  0.00000000000E+00 0.  1.
         -1    1    6    6    0  502 -0.33331697785E+02 -0.35053207757E+02  0.11569208302E+03  0.12539691992E+03  0.00000000000E+00 0.  1.
<mgrwt>
<rscale>  0 0.19156688E+04</rscale>
<asrwt>0</asrwt>
<pdfrwt beam="1">  1        2 0.46474144E+00 0.19156688E+04</pdfrwt>
<pdfrwt beam="2">  1       -2 0.46724294E-01 0.19156688E+04</pdfrwt>
<totfact> 0.68833058E+00</totfact>
</mgrwt>
</event>
<event>
12    1  0.1556559E-007  0.2091046E+04  0.7818608E-02  0.8565198E-01
          1   -1    0    0  501    0  0.00000000000E+00  0.00000000000E+00  0.93588911186E+03  0.93588911186E+03  0.00000000000E+00 0. -1.
         -1   -1    0    0    0  501 -0.00000000000E+00 -0.00000000000E+00 -0.11680002402E+04  0.11680002402E+04  0.00000000000E+00 0.  1.
         23    2    1    2    0    0 -0.57449815293E+03  0.57016916904E+03 -0.32885881470E+03  0.87852845232E+03  0.92320704590E+02 0.  0.
        254    2    1    2    0    0  0.57449815293E+03 -0.57016916904E+03  0.96747686363E+02  0.12253608997E+04  0.91488152826E+03 0.  0.
        -24    2    4    4    0    0  0.49836680907E+03 -0.37880973138E+03 -0.35395733510E+03  0.72328368190E+03  0.77377002196E+02 0.  0.
         24    2    4    4    0    0  0.76131343861E+02 -0.19135943765E+03  0.45070502146E+03  0.50207721783E+03  0.80821410521E+02 0.  0.
         13    1    3    3    0    0 -0.15865841175E+03  0.21669180745E+03 -0.96998463714E+02  0.28554602606E+03  0.00000000000E+00 0. -1.
        -13    1    3    3    0    0 -0.41583974118E+03  0.35347736159E+03 -0.23186035099E+03  0.59298242627E+03  0.00000000000E+00 0.  1.
          2    1    6    6  502    0 -0.13661245126E+02 -0.59897490619E+01  0.23939073717E+02  0.28206133422E+02  0.00000000000E+00 0. -1.
          1    1    5    5  503    0  0.17495432948E+03 -0.88275118051E+02 -0.11398502523E+03  0.22670266837E+03  0.00000000000E+00 0. -1.
         -2    1    5    5    0  503  0.32341247959E+03 -0.29053461333E+03 -0.23997230987E+03  0.49658101354E+03  0.00000000000E+00 0.  1.
         -1    1    6    6    0  502  0.89792588987E+02 -0.18536968859E+03  0.42676594775E+03  0.47387108441E+03  0.00000000000E+00 0.  1.
<mgrwt>
<rscale>  0 0.20910463E+04</rscale>
<asrwt>0</asrwt>
<pdfrwt beam="1">  1        1 0.14398294E+00 0.20910463E+04</pdfrwt>
<pdfrwt beam="2">  1       -1 0.17969235E+00 0.20910463E+04</pdfrwt>
<totfact> 0.32753721E+00</totfact>
</mgrwt>
</event>
<event>
12    1  0.1556559E-007  0.4236426E+04  0.7818608E-02  0.7958479E-01
          2   -1    0    0  501    0  0.00000000000E+00  0.00000000000E+00  0.34240012348E+04  0.34240012348E+04  0.00000000000E+00 0. -1.
         -2   -1    0    0    0  501 -0.00000000000E+00 -0.00000000000E+00 -0.13104043475E+04  0.13104043475E+04  0.00000000000E+00 0.  1.
         23    2    1    2    0    0 -0.13129819022E+04 -0.63084073532E+03  0.25763482384E+04  0.29609756382E+04  0.89022330290E+02 0.  0.
        254    2    1    2    0    0  0.13129819022E+04  0.63084073532E+03 -0.46275135114E+03  0.17734299441E+04  0.89946286455E+03 0.  0.
        -24    2    4    4    0    0  0.86106439163E+03  0.75399834392E+02  0.79489662592E+02  0.87180605771E+03  0.81302978083E+02 0.  0.
         24    2    4    4    0    0  0.45191751058E+03  0.55544090093E+03 -0.54224101374E+03  0.90162388637E+03  0.78461995265E+02 0.  0.
         11    1    3    3    0    0 -0.11732228226E+04 -0.54868382756E+03  0.23367052079E+04  0.26716468634E+04  0.00000000000E+00 0. -1.
        -11    1    3    3    0    0 -0.13975907965E+03 -0.82156907755E+02  0.23964303056E+03  0.28932877481E+03  0.00000000000E+00 0.  1.
          4    1    6    6  502    0  0.38282109682E+03  0.42748148860E+03 -0.45199824306E+03  0.73047575387E+03  0.00000000000E+00 0. -1.
          1    1    5    5  503    0  0.15014312096E+03  0.33705441814E+02  0.37740890137E+02  0.15844048841E+03  0.00000000000E+00 0. -1.
         -2    1    5    5    0  503  0.71092127067E+03  0.41694392578E+02  0.41748772456E+02  0.71336556930E+03  0.00000000000E+00 0.  1.
         -3    1    6    6    0  502  0.69096413762E+02  0.12795941233E+03 -0.90242770675E+02  0.17114813250E+03  0.00000000000E+00 0.  1.
<mgrwt>
<rscale>  0 0.42364259E+04</rscale>
<asrwt>0</asrwt>
<pdfrwt beam="1">  1        2 0.52676942E+00 0.42364259E+04</pdfrwt>
<pdfrwt beam="2">  1       -2 0.20160067E+00 0.42364259E+04</pdfrwt>
<totfact> 0.92088839E-02</totfact>
</mgrwt>
</event>
<event>
12    1  0.1556559E-007  0.4143181E+04  0.7818608E-02  0.7976269E-01
         -2   -1    0    0    0  501 -0.00000000000E+00  0.00000000000E+00  0.16823263355E+04  0.16823263355E+04  0.00000000000E+00 0.  1.
          2   -1    0    0  501    0  0.00000000000E+00 -0.00000000000E+00 -0.25509244775E+04  0.25509244775E+04  0.00000000000E+00 0. -1.
         23    2    1    2    0    0 -0.18610033194E+04 -0.22332517389E+03 -0.10435119790E+04  0.21471009483E+04  0.88981705914E+02 0.  0.
        254    2    1    2    0    0  0.18610033194E+04  0.22332517389E+03  0.17491383694E+03  0.20861498647E+04  0.89900996630E+03 0.  0.
        -24    2    4    4    0    0  0.15214457664E+04  0.81495292296E+02 -0.21853574194E+03  0.15412686832E+04  0.79451749680E+02 0.  0.
         24    2    4    4    0    0  0.33955755296E+03  0.14182988160E+03  0.39344957888E+03  0.54488118146E+03  0.81718319272E+02 0.  0.
         11    1    3    3    0    0 -0.57193799325E+03 -0.61608636670E+02 -0.27440410227E+03  0.63734315999E+03  0.00000000000E+00 0.  1.
        -11    1    3    3    0    0 -0.12890653262E+04 -0.16171653722E+03 -0.76910787671E+03  0.15097577884E+04  0.00000000000E+00 0. -1.
          2    1    6    6  502    0  0.61451686442E+02  0.55133893792E+02  0.11764852663E+03  0.14372623918E+03  0.00000000000E+00 0. -1.
          1    1    5    5  503    0  0.51250899388E+01  0.34476187236E+01 -0.51046247391E+01  0.80131027369E+01  0.00000000000E+00 0. -1.
         -2    1    5    5    0  503  0.15163206765E+04  0.78047673573E+02 -0.21343111720E+03  0.15332555805E+04  0.00000000000E+00 0.  1.
         -1    1    6    6    0  502  0.27810586652E+03  0.86695987804E+02  0.27580105225E+03  0.40115494228E+03  0.00000000000E+00 0.  1.
<mgrwt>
<rscale>  0 0.41431811E+04</rscale>
<asrwt>0</asrwt>
<pdfrwt beam="1">  1        2 0.39244992E+00 0.41431811E+04</pdfrwt>
<pdfrwt beam="2">  1       -2 0.25881944E+00 0.41431811E+04</pdfrwt>
<totfact> 0.14384020E-01</totfact>
</mgrwt>
</event>
<event>
12    1  0.1556559E-007  0.2972060E+04  0.7818608E-02  0.8251755E-01
          1   -1    0    0  501    0  0.00000000000E+00  0.00000000000E+00  0.21504521993E+04  0.21504521993E+04  0.00000000000E+00 0. -1.
         -1   -1    0    0    0  501 -0.00000000000E+00 -0.00000000000E+00 -0.10268932825E+04  0.10268932825E+04  0.00000000000E+00 0.  1.
         23    2    1    2    0    0 -0.76731925135E+03  0.90303910661E+03  0.12064681068E+04  0.16936361037E+04  0.92625576971E+02 0.  0.
        254    2    1    2    0    0  0.76731925135E+03 -0.90303910661E+03 -0.82909189993E+02  0.14837093781E+04  0.88896632298E+03 0.  0.
        -24    2    4    4    0    0  0.21022427801E+03 -0.44846874056E+03  0.37586786850E+03  0.62699851666E+03  0.80820956438E+02 0.  0.
         24    2    4    4    0    0  0.55709497334E+03 -0.45457036605E+03 -0.45877705849E+03  0.85671086147E+03  0.80548642105E+02 0.  0.
         13    1    3    3    0    0 -0.13739435860E+03  0.20891121388E+03  0.22324202547E+03  0.33519860828E+03  0.00000000000E+00 0.  1.
        -13    1    3    3    0    0 -0.62992489275E+03  0.69412789272E+03  0.98322608132E+03  0.13584374954E+04  0.00000000000E+00 0. -1.
          4    1    6    6  502    0  0.20952583402E+03 -0.12736671177E+03 -0.13495950496E+03  0.27988823192E+03  0.00000000000E+00 0. -1.
          3    1    5    5  503    0  0.66059981303E+02 -0.23194433768E+03  0.16615669634E+03  0.29286540364E+03  0.00000000000E+00 0. -1.
         -4    1    5    5    0  503  0.14416429671E+03 -0.21652440288E+03  0.20971117216E+03  0.33413311302E+03  0.00000000000E+00 0.  1.
         -3    1    6    6    0  502  0.34756913933E+03 -0.32720365428E+03 -0.32381755353E+03  0.57682262955E+03  0.00000000000E+00 0.  1.
<mgrwt>
<rscale>  0 0.29720598E+04</rscale>
<asrwt>0</asrwt>
<pdfrwt beam="1">  1        1 0.33083880E+00 0.29720598E+04</pdfrwt>
<pdfrwt beam="2">  1       -1 0.15798358E+00 0.29720598E+04</pdfrwt>
<totfact> 0.60808503E-01</totfact>
</mgrwt>
</event>
<event>
12    1  0.1556559E-007  0.1738352E+04  0.7818608E-02  0.8739788E-01
         -2   -1    0    0    0  501 -0.00000000000E+00  0.00000000000E+00  0.20648144292E+03  0.20648144292E+03  0.00000000000E+00 0.  1.
          2   -1    0    0  501    0  0.00000000000E+00 -0.00000000000E+00 -0.36587631517E+04  0.36587631517E+04  0.00000000000E+00 0. -1.
         23    2    1    2    0    0 -0.57471449790E+03  0.21762475621E+03 -0.94256396340E+03  0.11285667762E+04  0.87056617331E+02 0.  0.
        254    2    1    2    0    0  0.57471449790E+03 -0.21762475621E+03 -0.25097177454E+04  0.27366778185E+04  0.90170118761E+03 0.  0.
        -24    2    4    4    0    0 -0.68136947155E+01  0.12170337150E+03 -0.10360395791E+02  0.14709513162E+03  0.81679268320E+02 0.  0.
         24    2    4    4    0    0  0.58152819262E+03 -0.33932812771E+03 -0.24993573496E+04  0.25895826868E+04  0.76372205456E+02 0.  0.
         13    1    3    3    0    0 -0.43634258510E+03  0.18301752048E+03 -0.78000162045E+03  0.91230082335E+03  0.00000000000E+00 0. -1.
        -13    1    3    3    0    0 -0.13837191280E+03  0.34607235724E+02 -0.16256234296E+03  0.21626595285E+03  0.00000000000E+00 0.  1.
          4    1    6    6  502    0  0.44874336824E+03 -0.24655359178E+03 -0.17775336586E+04  0.18498067985E+04  0.00000000000E+00 0. -1.
          1    1    5    5  503    0 -0.33190619417E+02  0.16677244358E+02  0.58434595010E+01  0.37601778091E+02  0.00000000000E+00 0. -1.
         -2    1    5    5    0  503  0.26376924702E+02  0.10502612715E+03 -0.16203855292E+02  0.10949335353E+03  0.00000000000E+00 0.  1.
         -3    1    6    6    0  502  0.13278482438E+03 -0.92774535933E+02 -0.72182369099E+03  0.73977588835E+03  0.00000000000E+00 0.  1.
<mgrwt>
<rscale>  0 0.17383517E+04</rscale>
<asrwt>0</asrwt>
<pdfrwt beam="1">  1        2 0.56288661E+00 0.17383517E+04</pdfrwt>
<pdfrwt beam="2">  1       -2 0.31766377E-01 0.17383517E+04</pdfrwt>
<totfact> 0.55307930E+00</totfact>
</mgrwt>
</event>
<event>
12    1  0.1556559E-007  0.1384976E+04  0.7818608E-02  0.8964766E-01
         -2   -1    0    0    0  501 -0.00000000000E+00  0.00000000000E+00  0.47824760179E+03  0.47824760179E+03  0.00000000000E+00 0.  1.
          2   -1    0    0  501    0  0.00000000000E+00 -0.00000000000E+00 -0.10027017416E+04  0.10027017416E+04  0.00000000000E+00 0. -1.
         23    2    1    2    0    0  0.68870574227E+02 -0.27002378383E+03 -0.45319082221E+03  0.53980069755E+03  0.91361216673E+02 0.  0.
        254    2    1    2    0    0 -0.68870574227E+02  0.27002378383E+03 -0.71263317622E+02  0.94114864586E+03  0.89611735467E+03 0.  0.
        -24    2    4    4    0    0 -0.43572207764E+03  0.33746427138E+03 -0.33383715277E+02  0.55783901823E+03  0.79586647198E+02 0.  0.
         24    2    4    4    0    0  0.36685150341E+03 -0.67440487556E+02 -0.37879602345E+02  0.38330962763E+03  0.79769426721E+02 0.  0.
         11    1    3    3    0    0 -0.21273059624E+02 -0.35887582535E+02 -0.77961783858E+02  0.88422290110E+02  0.00000000000E+00 0.  1.
        -11    1    3    3    0    0  0.90143633851E+02 -0.23413620129E+03 -0.37522903835E+03  0.45137840744E+03  0.00000000000E+00 0. -1.
          2    1    6    6  502    0  0.33443157104E+03 -0.44472181686E+02 -0.15551018040E+02  0.33773374840E+03  0.00000000000E+00 0. -1.
          1    1    5    5  503    0 -0.42908423298E+03  0.33108108781E+03 -0.20956754928E+02  0.54237178325E+03  0.00000000000E+00 0. -1.
         -2    1    5    5    0  503 -0.66378446660E+01  0.63831835751E+01 -0.12426960349E+02  0.15467234979E+02  0.00000000000E+00 0.  1.
         -1    1    6    6    0  502  0.32419932379E+02 -0.22968305870E+02 -0.22328584304E+02  0.45575879224E+02  0.00000000000E+00 0.  1.
<mgrwt>
<rscale>  0 0.13849761E+04</rscale>
<asrwt>0</asrwt>
<pdfrwt beam="1">  1        2 0.15426181E+00 0.13849761E+04</pdfrwt>
<pdfrwt beam="2">  1       -2 0.73576554E-01 0.13849761E+04</pdfrwt>
<totfact> 0.40735608E+01</totfact>
</mgrwt>
</event>
<event>
12    1  0.1556559E-007  0.1660709E+04  0.7818608E-02  0.8784096E-01
          1   -1    0    0  501    0  0.00000000000E+00  0.00000000000E+00  0.78311354067E+03  0.78311354067E+03  0.00000000000E+00 0. -1.
         -1   -1    0    0    0  501 -0.00000000000E+00 -0.00000000000E+00 -0.88044532601E+03  0.88044532601E+03  0.00000000000E+00 0.  1.
         23    2    1    2    0    0  0.26612371109E+03 -0.19577044455E+03 -0.50956880590E+03  0.61418322691E+03  0.91721162810E+02 0.  0.
        254    2    1    2    0    0 -0.26612371109E+03  0.19577044455E+03  0.41223702056E+03  0.10493756398E+04  0.90669839289E+03 0.  0.
        -24    2    4    4    0    0  0.52406946702E+02  0.32029617244E+03  0.57281433224E+03  0.66325541258E+03  0.80345236027E+02 0.  0.
         24    2    4    4    0    0 -0.31853065780E+03 -0.12452572789E+03 -0.16057731168E+03  0.38612022720E+03  0.79594723199E+02 0.  0.
         13    1    3    3    0    0  0.11516367673E+02 -0.21726132031E+01  0.93365972683E+00  0.11756644632E+02  0.00000000000E+00 0. -1.
        -13    1    3    3    0    0  0.25460734342E+03 -0.19359783135E+03 -0.51050246563E+03  0.60242658228E+03  0.00000000000E+00 0.  1.
          4    1    6    6  502    0 -0.24595633810E+03 -0.13029050445E+03 -0.12839343274E+03  0.30652081393E+03  0.00000000000E+00 0. -1.
          1    1    5    5  503    0  0.51867487872E+02  0.13805428665E+03  0.31175883674E+03  0.34488084123E+03  0.00000000000E+00 0. -1.
         -4    1    5    5    0  503  0.53945882961E+00  0.18224188579E+03  0.26105549550E+03  0.31837457135E+03  0.00000000000E+00 0.  1.
         -3    1    6    6    0  502 -0.72574319695E+02  0.57647765686E+01 -0.32183878945E+02  0.79599413265E+02  0.00000000000E+00 0.  1.
<mgrwt>
<rscale>  0 0.16607091E+04</rscale>
<asrwt>0</asrwt>
<pdfrwt beam="1">  1        1 0.12047901E+00 0.16607091E+04</pdfrwt>
<pdfrwt beam="2">  1       -1 0.13545313E+00 0.16607091E+04</pdfrwt>
<totfact> 0.99769399E+00</totfact>
</mgrwt>
</event>
<event>
12    1  0.1556559E-007  0.1636147E+04  0.7818608E-02  0.8798644E-01
          1   -1    0    0  501    0  0.00000000000E+00  0.00000000000E+00  0.70146561907E+03  0.70146561907E+03  0.00000000000E+00 0. -1.
         -1   -1    0    0    0  501 -0.00000000000E+00 -0.00000000000E+00 -0.95406609768E+03  0.95406609768E+03  0.00000000000E+00 0.  1.
         23    2    1    2    0    0 -0.73133140898E+02 -0.56111808062E+03 -0.18084404693E+02  0.57363543938E+03  0.92350500379E+02 0.  0.
        254    2    1    2    0    0  0.73133140898E+02  0.56111808062E+03 -0.23451607391E+03  0.10818962774E+04  0.89179583390E+03 0.  0.
        -24    2    4    4    0    0  0.32148940969E+03  0.90648964852E+02 -0.39207499389E+03  0.52131778170E+03  0.80478278543E+02 0.  0.
         24    2    4    4    0    0 -0.24835626879E+03  0.47046911577E+03  0.15755891997E+03  0.56057849567E+03  0.80008820806E+02 0.  0.
         13    1    3    3    0    0  0.65737612923E+01 -0.35211574258E+02  0.18784830405E+02  0.40446744648E+02  0.00000000000E+00 0.  1.
        -13    1    3    3    0    0 -0.79706902190E+02 -0.52590650636E+03 -0.36869235098E+02  0.53318869473E+03  0.00000000000E+00 0. -1.
          4    1    6    6  502    0 -0.13230992913E+03  0.21751884523E+03  0.11374299928E+03  0.27885091942E+03  0.00000000000E+00 0. -1.
          1    1    5    5  503    0  0.36205447665E+01  0.36960722593E+01 -0.35126209496E+02  0.35505209310E+02  0.00000000000E+00 0. -1.
         -2    1    5    5    0  503  0.31786886492E+03  0.86952892592E+02 -0.35694878439E+03  0.48581257239E+03  0.00000000000E+00 0.  1.
         -3    1    6    6    0  502 -0.11604633966E+03  0.25295027054E+03  0.43815920693E+02  0.28172757625E+03  0.00000000000E+00 0.  1.
<mgrwt>
<rscale>  0 0.16361474E+04</rscale>
<asrwt>0</asrwt>
<pdfrwt beam="1">  1        1 0.10791779E+00 0.16361474E+04</pdfrwt>
<pdfrwt beam="2">  1       -1 0.14677940E+00 0.16361474E+04</pdfrwt>
<totfact> 0.96100906E+00</totfact>
</mgrwt>
</event>
<event>
12    1  0.1556559E-007  0.1227214E+04  0.7818608E-02  0.9089364E-01
          1   -1    0    0  501    0  0.00000000000E+00  0.00000000000E+00  0.16008875002E+03  0.16008875002E+03  0.00000000000E+00 0. -1.
         -1   -1    0    0    0  501 -0.00000000000E+00 -0.00000000000E+00 -0.23519034938E+04  0.23519034938E+04  0.00000000000E+00 0.  1.
         23    2    1    2    0    0 -0.10036569043E+02  0.18473574567E+03 -0.24063703465E+03  0.31791489637E+03  0.94528675238E+02 0.  0.
        254    2    1    2    0    0  0.10036569043E+02 -0.18473574567E+03 -0.19511777091E+04  0.21940773475E+04  0.98623167944E+03 0.  0.
        -24    2    4    4    0    0  0.47494432911E+03 -0.15624901475E+03 -0.12489637736E+04  0.13476724712E+04  0.79528053737E+02 0.  0.
         24    2    4    4    0    0 -0.46490776007E+03 -0.28486730918E+02 -0.70221393551E+03  0.84640487629E+03  0.79662313392E+02 0.  0.
         13    1    3    3    0    0 -0.35163693769E+01 -0.42098166796E+01  0.53544865442E+01  0.76653725429E+01  0.00000000000E+00 0.  1.
        -13    1    3    3    0    0 -0.65201996664E+01  0.18894556235E+03 -0.24599152120E+03  0.31024952383E+03  0.00000000000E+00 0. -1.
          2    1    6    6  502    0 -0.16839561680E+03  0.25830255445E+02 -0.23124603406E+03  0.28722641613E+03  0.00000000000E+00 0. -1.
          1    1    5    5  503    0  0.16721146284E+03 -0.49009510123E+02 -0.33986615323E+03  0.38193010813E+03  0.00000000000E+00 0. -1.
         -2    1    5    5    0  503  0.30773286627E+03 -0.10723950463E+03 -0.90909762040E+03  0.96574236303E+03  0.00000000000E+00 0.  1.
         -1    1    6    6    0  502 -0.29651214327E+03 -0.54316986363E+02 -0.47096790146E+03  0.55917846017E+03  0.00000000000E+00 0.  1.
<mgrwt>
<rscale>  0 0.12272136E+04</rscale>
<asrwt>0</asrwt>
<pdfrwt beam="1">  1        1 0.24629038E-01 0.12272136E+04</pdfrwt>
<pdfrwt beam="2">  1       -1 0.36183131E+00 0.12272136E+04</pdfrwt>
<totfact> 0.25800743E+00</totfact>
</mgrwt>
</event>
<event>
12    1  0.1556559E-007  0.1173886E+04  0.7818608E-02  0.9136027E-01
         -2   -1    0    0    0  501 -0.00000000000E+00  0.00000000000E+00  0.76763267176E+03  0.76763267176E+03  0.00000000000E+00 0.  1.
          2   -1    0    0  501    0  0.00000000000E+00 -0.00000000000E+00 -0.44878477301E+03  0.44878477301E+03  0.00000000000E+00 0. -1.
         23    2    1    2    0    0  0.62505525408E+02 -0.45186380614E+02 -0.15754566242E+03  0.19859440233E+03  0.93114720571E+02 0.  0.
        254    2    1    2    0    0 -0.62505525408E+02  0.45186380614E+02  0.47639356118E+03  0.10178230424E+04  0.89613847752E+03 0.  0.
        -24    2    4    4    0    0  0.20802683139E+03  0.38898164934E+03  0.17563536475E+03  0.48097364120E+03  0.76850348636E+02 0.  0.
         24    2    4    4    0    0 -0.27053235680E+03 -0.34379526872E+03  0.30075819643E+03  0.53684940124E+03  0.79805037589E+02 0.  0.
         13    1    3    3    0    0  0.57536639476E+02 -0.55294390194E+02 -0.16621682035E+03  0.18437994966E+03  0.00000000000E+00 0. -1.
        -13    1    3    3    0    0  0.49688859313E+01  0.10108009580E+02  0.86711579205E+01  0.14214452671E+02  0.00000000000E+00 0.  1.
          2    1    6    6  502    0 -0.23859858709E+03 -0.27772235829E+03  0.21751677702E+03  0.42587855350E+03  0.00000000000E+00 0. -1.
          3    1    5    5  503    0  0.89591339217E+02  0.11521730548E+03  0.86488101450E+02  0.16965207702E+03  0.00000000000E+00 0. -1.
         -4    1    5    5    0  503  0.11843549217E+03  0.27376434385E+03  0.89147263296E+02  0.31132156418E+03  0.00000000000E+00 0.  1.
         -3    1    6    6    0  502 -0.31933769709E+02 -0.66072910436E+02  0.83241419416E+02  0.11097084774E+03  0.00000000000E+00 0.  1.
<mgrwt>
<rscale>  0 0.11738856E+04</rscale>
<asrwt>0</asrwt>
<pdfrwt beam="1">  1        2 0.69043811E-01 0.11738856E+04</pdfrwt>
<pdfrwt beam="2">  1       -2 0.11809733E+00 0.11738856E+04</pdfrwt>
<totfact> 0.38083735E+01</totfact>
</mgrwt>
</event>
<event>
12    1  0.1556559E-007  0.2327903E+04  0.7818608E-02  0.8467000E-01
         -1   -1    0    0    0  501 -0.00000000000E+00  0.00000000000E+00  0.33274204550E+03  0.33274204550E+03  0.00000000000E+00 0.  1.
          1   -1    0    0  501    0  0.00000000000E+00 -0.00000000000E+00 -0.40715719716E+04  0.40715719716E+04  0.00000000000E+00 0. -1.
         23    2    1    2    0    0 -0.63833898852E+03 -0.64287455588E+03 -0.84667800905E+03  0.12433680388E+04  0.91302081267E+02 0.  0.
        254    2    1    2    0    0  0.63833898852E+03  0.64287455588E+03 -0.28921519170E+04  0.31609459783E+04  0.89792672729E+03 0.  0.
        -24    2    4    4    0    0  0.19246935364E+03  0.61568623300E+03 -0.24212762576E+04  0.25070509828E+04  0.81313744959E+02 0.  0.
         24    2    4    4    0    0  0.44586963488E+03  0.27188322886E+02 -0.47087565942E+03  0.65389499548E+03  0.79472273593E+02 0.  0.
         11    1    3    3    0    0 -0.55491088244E+03 -0.51049369585E+03 -0.69558185889E+03  0.10258479533E+04  0.00000000000E+00 0.  1.
        -11    1    3    3    0    0 -0.83428106074E+02 -0.13238086003E+03 -0.15109615016E+03  0.21752008546E+03  0.00000000000E+00 0. -1.
          4    1    6    6  502    0  0.62833589789E+02 -0.18100125233E+02 -0.45335371868E+02  0.79567395845E+02  0.00000000000E+00 0. -1.
          1    1    5    5  503    0  0.14213097083E+03  0.32504882701E+03 -0.13680649452E+04  0.14133151266E+04  0.00000000000E+00 0. -1.
         -2    1    5    5    0  503  0.50338382807E+02  0.29063740599E+03 -0.10532113124E+04  0.10937358562E+04  0.00000000000E+00 0.  1.
         -3    1    6    6    0  502  0.38303604509E+03  0.45288448119E+02 -0.42554028755E+03  0.57432759963E+03  0.00000000000E+00 0.  1.
<mgrwt>
<rscale>  0 0.23279031E+04</rscale>
<asrwt>0</asrwt>
<pdfrwt beam="1">  1        1 0.62639567E+00 0.23279031E+04</pdfrwt>
<pdfrwt beam="2">  1       -1 0.51191085E-01 0.23279031E+04</pdfrwt>
<totfact> 0.28808175E-01</totfact>
</mgrwt>
</event>
<event>
12    1  0.1556559E-007  0.1754312E+04  0.7818608E-02  0.8730980E-01
         -2   -1    0    0    0  501 -0.00000000000E+00  0.00000000000E+00  0.17927839559E+04  0.17927839559E+04  0.00000000000E+00 0.  1.
          2   -1    0    0  501    0  0.00000000000E+00 -0.00000000000E+00 -0.42916642938E+03  0.42916642938E+03  0.00000000000E+00 0. -1.
         23    2    1    2    0    0  0.26152588871E+03  0.55601861354E+03  0.71605041984E+03  0.94813087315E+03  0.93120673283E+02 0.  0.
        254    2    1    2    0    0 -0.26152588871E+03 -0.55601861354E+03  0.64756710672E+03  0.12738195122E+04  0.90869164341E+03 0.  0.
        -24    2    4    4    0    0  0.28147489588E+03  0.26335940348E+02  0.13374614394E+03  0.32277360399E+03  0.79831507872E+02 0.  0.
         24    2    4    4    0    0 -0.54300078459E+03 -0.58235455388E+03  0.51382096278E+03  0.95104590817E+03  0.80558420811E+02 0.  0.
         13    1    3    3    0    0  0.22647547090E+03  0.48409067895E+03  0.66529538746E+03  0.85337733562E+03  0.00000000000E+00 0.  1.
        -13    1    3    3    0    0  0.35050417805E+02  0.71927934587E+02  0.50755032378E+02  0.94753537527E+02  0.00000000000E+00 0. -1.
          2    1    6    6  502    0 -0.25180172933E+03 -0.28147950919E+03  0.29069615454E+03  0.47659110278E+03  0.00000000000E+00 0. -1.
          1    1    5    5  503    0  0.10233580490E+03  0.37269974869E+02  0.21269909912E+02  0.11096881120E+03  0.00000000000E+00 0. -1.
         -4    1    5    5    0  503  0.17913909098E+03 -0.10934034521E+02  0.11247623403E+03  0.21180479280E+03  0.00000000000E+00 0.  1.
         -1    1    6    6    0  502 -0.29119905527E+03 -0.30087504470E+03  0.22312480824E+03  0.47445480539E+03  0.00000000000E+00 0.  1.
<mgrwt>
<rscale>  0 0.17543120E+04</rscale>
<asrwt>0</asrwt>
<pdfrwt beam="1">  1        2 0.66025605E-01 0.17543120E+04</pdfrwt>
<pdfrwt beam="2">  1       -2 0.27581291E+00 0.17543120E+04</pdfrwt>
<totfact> 0.31097603E+00</totfact>
</mgrwt>
</event>
<event>
12    1  0.1938819E-007  0.1805467E+04  0.7818608E-02  0.8703398E-01
          2   -1    0    0  501    0  0.00000000000E+00  0.00000000000E+00  0.17400478973E+04  0.17400478973E+04  0.00000000000E+00 0. -1.
         -2   -1    0    0    0  501 -0.00000000000E+00 -0.00000000000E+00 -0.46833646242E+03  0.46833646242E+03  0.00000000000E+00 0.  1.
         23    2    1    2    0    0  0.33342063602E+03 -0.68924834629E+01 -0.23731591142E+03  0.41901574787E+03  0.89657840143E+02 0.  0.
        254    2    1    2    0    0 -0.33342063602E+03  0.68924834629E+01  0.15090273463E+04  0.17893686119E+04  0.90191999110E+03 0.  0.
        -24    2    4    4    0    0 -0.62449817079E+03  0.11537300676E+03  0.95960562853E+03  0.11531576533E+04  0.74971428741E+02 0.  0.
         24    2    4    4    0    0  0.29107753477E+03 -0.10848052330E+03  0.54942171780E+03  0.63621095854E+03  0.80037519958E+02 0.  0.
         11    1    3    3    0    0  0.70311019609E+02 -0.73293506032E+01 -0.10167700164E+02  0.71419472032E+02  0.00000000000E+00 0. -1.
        -11    1    3    3    0    0  0.26310961641E+03  0.43686714029E+00 -0.22714821126E+03  0.34759627584E+03  0.00000000000E+00 0.  1.
          4    1    6    6  502    0  0.38526515489E+02  0.39883099010E+01  0.34984446796E+02  0.52193012264E+02  0.00000000000E+00 0. -1.
          1    1    5    5  503    0 -0.58599777633E+02 -0.88403883096E+01  0.10729489923E+03  0.12257357710E+03  0.00000000000E+00 0. -1.
         -2    1    5    5    0  503 -0.56589839316E+03  0.12421339507E+03  0.85231072930E+03  0.10305840762E+04  0.00000000000E+00 0.  1.
         -3    1    6    6    0  502  0.25255101928E+03 -0.11246883320E+03  0.51443727100E+03  0.58401794628E+03  0.00000000000E+00 0.  1.
<mgrwt>
<rscale>  0 0.18054671E+04</rscale>
<asrwt>0</asrwt>
<pdfrwt beam="1">  1        2 0.26769967E+00 0.18054671E+04</pdfrwt>
<pdfrwt beam="2">  1       -2 0.72051764E-01 0.18054671E+04</pdfrwt>
<totfact> 0.15337833E+01</totfact>
</mgrwt>
</event>
<event>
12    1  0.1556559E-007  0.2771628E+04  0.7818608E-02  0.8312131E-01
         -2   -1    0    0    0  501 -0.00000000000E+00  0.00000000000E+00  0.16901800686E+04  0.16901800686E+04  0.00000000000E+00 0.  1.
          2   -1    0    0  501    0  0.00000000000E+00 -0.00000000000E+00 -0.11362582124E+04  0.11362582124E+04  0.00000000000E+00 0. -1.
         23    2    1    2    0    0 -0.11539636255E+04  0.44770702777E+03  0.21312979345E+03  0.12596172619E+04  0.95591348270E+02 0.  0.
        254    2    1    2    0    0  0.11539636255E+04 -0.44770702777E+03  0.34079206274E+03  0.15668210192E+04  0.89817328205E+03 0.  0.
        -24    2    4    4    0    0 -0.12606982007E+03  0.71131602369E+01 -0.39329033242E+02  0.15392466470E+03  0.78751717234E+02 0.  0.
         24    2    4    4    0    0  0.12800334456E+04 -0.45482018801E+03  0.38012109599E+03  0.14128963545E+04  0.80231140050E+02 0.  0.
         11    1    3    3    0    0 -0.10192671198E+04  0.39395407257E+03  0.15638334406E+03  0.11038845153E+04  0.00000000000E+00 0.  1.
        -11    1    3    3    0    0 -0.13469650572E+03  0.53752955198E+02  0.56746449387E+02  0.15573274660E+03  0.00000000000E+00 0. -1.
          4    1    6    6  502    0  0.11914601595E+04 -0.42232169478E+03  0.33189465446E+03  0.13069380196E+04  0.00000000000E+00 0. -1.
          1    1    5    5  503    0 -0.12511772051E+03  0.66177477612E+01 -0.11218722803E+02  0.12579387232E+03  0.00000000000E+00 0. -1.
         -2    1    5    5    0  503 -0.95209955503E+00  0.49541247570E+00 -0.28110310439E+02  0.28130792382E+02  0.00000000000E+00 0.  1.
         -3    1    6    6    0  502  0.88573286067E+02 -0.32498493223E+02  0.48226441529E+02  0.10595833487E+03  0.00000000000E+00 0.  1.
<mgrwt>
<rscale>  0 0.27716284E+04</rscale>
<asrwt>0</asrwt>
<pdfrwt beam="1">  1        2 0.17480895E+00 0.27716284E+04</pdfrwt>
<pdfrwt beam="2">  1       -2 0.26002771E+00 0.27716284E+04</pdfrwt>
<totfact> 0.10067340E+00</totfact>
</mgrwt>
</event>
<event>
12    1  0.1556559E-007  0.1584136E+04  0.7818608E-02  0.8830354E-01
          2   -1    0    0  501    0  0.00000000000E+00  0.00000000000E+00  0.15953501080E+04  0.15953501080E+04  0.00000000000E+00 0.  1.
         -2   -1    0    0    0  501 -0.00000000000E+00 -0.00000000000E+00 -0.39324998165E+03  0.39324998165E+03  0.00000000000E+00 0. -1.
         23    2    1    2    0    0  0.27469998795E+03  0.26699800004E+03 -0.52985257082E+02  0.39706731430E+03  0.90038876108E+02 0.  0.
        254    2    1    2    0    0 -0.27469998795E+03 -0.26699800004E+03  0.12550853834E+04  0.15915327753E+04  0.90054941003E+03 0.  0.
        -24    2    4    4    0    0  0.45781223332E+02 -0.53516786868E+03  0.81473426172E+03  0.97911893920E+03  0.79883739319E+02 0.  0.
         24    2    4    4    0    0 -0.32048121129E+03  0.26816986864E+03  0.44035112168E+03  0.61241383613E+03  0.80736058100E+02 0.  0.
         11    1    3    3    0    0  0.26708871980E+03  0.25748877332E+03 -0.68579786101E+02  0.37727978967E+03  0.00000000000E+00 0. -1.
        -11    1    3    3    0    0  0.76112681503E+01  0.95092267192E+01  0.15594529019E+02  0.19787524630E+02  0.00000000000E+00 0.  1.
          2    1    6    6  502    0 -0.19789154031E+03  0.20382813099E+03  0.26048657376E+03  0.38543510973E+03  0.00000000000E+00 0. -1.
          3    1    5    5  503    0  0.26360135972E+02 -0.45534108687E+03  0.63847245126E+03  0.78465115381E+03  0.00000000000E+00 0. -1.
         -4    1    5    5    0  503  0.19421087361E+02 -0.79826781815E+02  0.17626181046E+03  0.19446778539E+03  0.00000000000E+00 0.  1.
         -1    1    6    6    0  502 -0.12258967098E+03  0.64341737653E+02  0.17986454792E+03  0.22697872639E+03  0.00000000000E+00 0.  1.
<mgrwt>
<rscale>  0 0.15841356E+04</rscale>
<asrwt>0</asrwt>
<pdfrwt beam="1">  1        2 0.24543848E+00 0.15841356E+04</pdfrwt>
<pdfrwt beam="2">  1       -2 0.60499998E-01 0.15841356E+04</pdfrwt>
<totfact> 0.27407056E+01</totfact>
</mgrwt>
</event>
<event>
12    1  0.1556559E-007  0.2929924E+04  0.7818608E-02  0.8264029E-01
          1   -1    0    0  501    0  0.00000000000E+00  0.00000000000E+00  0.87674248396E+03  0.87674248396E+03  0.00000000000E+00 0. -1.
         -1   -1    0    0    0  501 -0.00000000000E+00 -0.00000000000E+00 -0.24478271095E+04  0.24478271095E+04  0.00000000000E+00 0.  1.
         23    2    1    2    0    0  0.88410438077E+02 -0.13180687707E+04 -0.81315645879E+03  0.15539877881E+04  0.92373855760E+02 0.  0.
        254    2    1    2    0    0 -0.88410438077E+02  0.13180687707E+04 -0.75792816673E+03  0.17705818054E+04  0.90298567749E+03 0.  0.
        -24    2    4    4    0    0  0.34486878461E+03  0.91982608422E+03 -0.60830683705E+03  0.11581621809E+04  0.79296440241E+02 0.  0.
         24    2    4    4    0    0 -0.43327922269E+03  0.39824268647E+03 -0.14962132967E+03  0.61241962447E+03  0.79643781985E+02 0.  0.
         13    1    3    3    0    0  0.56550948242E+02 -0.10753852420E+04 -0.62355114830E+03  0.12443743259E+04  0.00000000000E+00 0.  1.
        -13    1    3    3    0    0  0.31859489835E+02 -0.24268352867E+03 -0.18960531049E+03  0.30961346215E+03  0.00000000000E+00 0. -1.
          2    1    6    6  502    0 -0.90644802384E+02  0.43815266467E+02 -0.31590879159E+02  0.10551891499E+03  0.00000000000E+00 0. -1.
          3    1    5    5  503    0  0.23216637045E+03  0.63219067363E+03 -0.37334227351E+03  0.77003293734E+03  0.00000000000E+00 0. -1.
         -4    1    5    5    0  503  0.11270241416E+03  0.28763541058E+03 -0.23496456354E+03  0.38812924355E+03  0.00000000000E+00 0.  1.
         -1    1    6    6    0  502 -0.34263442030E+03  0.35442742000E+03 -0.11803045052E+03  0.50690070948E+03  0.00000000000E+00 0.  1.
<mgrwt>
<rscale>  0 0.29299242E+04</rscale>
<asrwt>0</asrwt>
<pdfrwt beam="1">  1        1 0.13488346E+00 0.29299242E+04</pdfrwt>
<pdfrwt beam="2">  1       -1 0.37658879E+00 0.29299242E+04</pdfrwt>
<totfact> 0.16794118E-01</totfact>
</mgrwt>
</event>
<event>
12    1  0.1556559E-007  0.1854714E+04  0.7818608E-02  0.8677733E-01
         -2   -1    0    0    0  501 -0.00000000000E+00  0.00000000000E+00  0.30582830972E+03  0.30582830972E+03  0.00000000000E+00 0.  1.
          2   -1    0    0  501    0  0.00000000000E+00 -0.00000000000E+00 -0.28120049147E+04  0.28120049147E+04  0.00000000000E+00 0. -1.
         23    2    1    2    0    0 -0.17795497010E+03  0.69789751256E+03 -0.10296344352E+04  0.12597948441E+04  0.90592878971E+02 0.  0.
        254    2    1    2    0    0  0.17795497010E+03 -0.69789751256E+03 -0.14765421698E+04  0.18580383803E+04  0.86798671309E+03 0.  0.
        -24    2    4    4    0    0  0.10378292689E+03 -0.62941499890E+03 -0.36583051207E+03  0.73968555207E+03  0.79803606594E+02 0.  0.
         24    2    4    4    0    0  0.74172043207E+02 -0.68482513662E+02 -0.11107116577E+04  0.11183528283E+04  0.82712243064E+02 0.  0.
         11    1    3    3    0    0 -0.79365950247E+01  0.10929886219E+03 -0.11431677941E+03  0.15835894946E+03  0.00000000000E+00 0. -1.
        -11    1    3    3    0    0 -0.17001837507E+03  0.58859865036E+03 -0.91531765578E+03  0.11014358947E+04  0.00000000000E+00 0.  1.
          4    1    6    6  502    0 -0.12740976349E+02 -0.31475530066E+02 -0.39029372351E+03  0.39176808457E+03  0.00000000000E+00 0. -1.
          3    1    5    5  503    0  0.10764260258E+03 -0.46831900618E+03 -0.25390485449E+03  0.54348624323E+03  0.00000000000E+00 0. -1.
         -4    1    5    5    0  503 -0.38596756931E+01 -0.16109599272E+03 -0.11192565758E+03  0.19619930884E+03  0.00000000000E+00 0.  1.
         -3    1    6    6    0  502  0.86913019556E+02 -0.37006983596E+02 -0.72041793423E+03  0.72658474369E+03  0.00000000000E+00 0.  1.
<mgrwt>
<rscale>  0 0.18547137E+04</rscale>
<asrwt>0</asrwt>
<pdfrwt beam="1">  1        2 0.43261613E+00 0.18547137E+04</pdfrwt>
<pdfrwt beam="2">  1       -2 0.47050510E-01 0.18547137E+04</pdfrwt>
<totfact> 0.91730602E+00</totfact>
</mgrwt>
</event>
<event>
12    1  0.1556559E-007  0.2726945E+04  0.7818608E-02  0.8326315E-01
          1   -1    0    0  501    0  0.00000000000E+00  0.00000000000E+00  0.16230934226E+04  0.16230934226E+04  0.00000000000E+00 0. -1.
         -1   -1    0    0    0  501 -0.00000000000E+00 -0.00000000000E+00 -0.11453794998E+04  0.11453794998E+04  0.00000000000E+00 0.  1.
         23    2    1    2    0    0 -0.38657035179E+03  0.10320024785E+04  0.73015960058E+03  0.13250626104E+04  0.90510367048E+02 0.  0.
        254    2    1    2    0    0  0.38657035179E+03 -0.10320024785E+04 -0.25244567781E+03  0.14434103121E+04  0.89735096600E+03 0.  0.
        -24    2    4    4    0    0  0.17958682726E+03 -0.92079403446E+02  0.26915126719E+03  0.34566892199E+03  0.79464167609E+02 0.  0.
         24    2    4    4    0    0  0.20698352453E+03 -0.93992307509E+03 -0.52159694500E+03  0.10977413901E+04  0.81702019348E+02 0.  0.
         13    1    3    3    0    0 -0.13721766919E+03  0.26965685500E+03  0.17410552116E+03  0.34907913241E+03  0.00000000000E+00 0.  1.
        -13    1    3    3    0    0 -0.24935268259E+03  0.76234562354E+03  0.55605407942E+03  0.97598347797E+03  0.00000000000E+00 0. -1.
          2    1    6    6  502    0  0.12049542005E+03 -0.40014954534E+03 -0.25481479182E+03  0.48945825463E+03  0.00000000000E+00 0. -1.
          1    1    5    5  503    0  0.12353642470E+03 -0.62213354772E+02  0.23717889843E+03  0.27456434510E+03  0.00000000000E+00 0. -1.
         -2    1    5    5    0  503  0.56050402560E+02 -0.29866048674E+02  0.31972368765E+02  0.71104576892E+02  0.00000000000E+00 0.  1.
         -1    1    6    6    0  502  0.86488104474E+02 -0.53977352975E+03 -0.26678215319E+03  0.60828313546E+03  0.00000000000E+00 0.  1.
<mgrwt>
<rscale>  0 0.27269455E+04</rscale>
<asrwt>0</asrwt>
<pdfrwt beam="1">  1        1 0.24970668E+00 0.27269455E+04</pdfrwt>
<pdfrwt beam="2">  1       -1 0.17621223E+00 0.27269455E+04</pdfrwt>
<totfact> 0.10388513E+00</totfact>
</mgrwt>
</event>
<event>
12    1  0.1556559E-007  0.1950386E+04  0.7818608E-02  0.8630175E-01
         -2   -1    0    0    0  501 -0.00000000000E+00  0.00000000000E+00  0.46931337594E+03  0.46931337594E+03  0.00000000000E+00 0.  1.
          2   -1    0    0  501    0  0.00000000000E+00 -0.00000000000E+00 -0.20263669989E+04  0.20263669989E+04  0.00000000000E+00 0. -1.
         23    2    1    2    0    0 -0.39828067012E+03 -0.54551241551E+03 -0.10701239326E+04  0.12685110494E+04  0.87998656445E+02 0.  0.
        254    2    1    2    0    0  0.39828067012E+03  0.54551241551E+03 -0.48692969032E+03  0.12271693255E+04  0.90146144807E+03 0.  0.
        -24    2    4    4    0    0  0.41468061610E+03  0.27272872109E+03 -0.70691672895E+03  0.86733699999E+03  0.78747959978E+02 0.  0.
         24    2    4    4    0    0 -0.16399945980E+02  0.27278369441E+03  0.21998703863E+03  0.35983232547E+03  0.80031888160E+02 0.  0.
         13    1    3    3    0    0 -0.42905215479E+01 -0.37006787014E+02 -0.47183315190E+02  0.60118018036E+02  0.00000000000E+00 0.  1.
        -13    1    3    3    0    0 -0.39399014857E+03 -0.50850562849E+03 -0.10229406175E+04  0.12083930314E+04  0.00000000000E+00 0. -1.
          2    1    6    6  502    0 -0.47919098587E+02  0.15517247327E+03  0.11420437219E+03  0.19853809483E+03  0.00000000000E+00 0. -1.
          3    1    5    5  503    0  0.40798137018E+03  0.26230829665E+03 -0.66153269398E+03  0.82029259786E+03  0.00000000000E+00 0. -1.
         -4    1    5    5    0  503  0.66992459271E+01  0.10420424446E+02 -0.45384034961E+02  0.47044402122E+02  0.00000000000E+00 0.  1.
         -1    1    6    6    0  502  0.31519152607E+02  0.11761122114E+03  0.10578266644E+03  0.16129423064E+03  0.00000000000E+00 0.  1.
<mgrwt>
<rscale>  0 0.19503857E+04</rscale>
<asrwt>0</asrwt>
<pdfrwt beam="1">  1        2 0.31174877E+00 0.19503857E+04</pdfrwt>
<pdfrwt beam="2">  1       -2 0.72202058E-01 0.19503857E+04</pdfrwt>
<totfact> 0.10463452E+01</totfact>
</mgrwt>
</event>
<event>
12    1  0.1556559E-007  0.1321043E+04  0.7818608E-02  0.9013042E-01
          2   -1    0    0  501    0  0.00000000000E+00  0.00000000000E+00  0.94026326522E+03  0.94026326522E+03  0.00000000000E+00 0. -1.
         -2   -1    0    0    0  501 -0.00000000000E+00 -0.00000000000E+00 -0.46400693797E+03  0.46400693797E+03  0.00000000000E+00 0.  1.
         23    2    1    2    0    0  0.22291829709E+03 -0.55442282119E+02  0.40766051500E+03  0.47676938953E+03  0.91408651039E+02 0.  0.
        254    2    1    2    0    0 -0.22291829709E+03  0.55442282119E+02  0.68595812254E+02  0.92750081365E+03  0.89598323647E+03 0.  0.
        -24    2    4    4    0    0 -0.19793749023E+03  0.35423673040E+03 -0.24981793399E+03  0.48322455593E+03  0.80212593167E+02 0.  0.
         24    2    4    4    0    0 -0.24980806863E+02 -0.29879444829E+03  0.31841374624E+03  0.44427625772E+03  0.78050729272E+02 0.  0.
         13    1    3    3    0    0  0.18009984276E+03 -0.88336648534E+01  0.33470720536E+03  0.38018798024E+03  0.00000000000E+00 0. -1.
        -13    1    3    3    0    0  0.42818454327E+02 -0.46608617266E+02  0.72953309633E+02  0.96581409292E+02  0.00000000000E+00 0.  1.
          4    1    6    6  502    0  0.11605808758E+02 -0.30988787358E+02  0.68851900839E+02  0.76390994155E+02  0.00000000000E+00 0. -1.
          3    1    5    5  503    0 -0.30666864137E+02  0.29632318999E+02 -0.35841705514E+01  0.42794592694E+02  0.00000000000E+00 0. -1.
         -4    1    5    5    0  503 -0.16727062609E+03  0.32460441141E+03 -0.24623376344E+03  0.44042996323E+03  0.00000000000E+00 0.  1.
         -3    1    6    6    0  502 -0.36586615620E+02 -0.26780566093E+03  0.24956184540E+03  0.36788526357E+03  0.00000000000E+00 0.  1.
<mgrwt>
<rscale>  0 0.13210430E+04</rscale>
<asrwt>0</asrwt>
<pdfrwt beam="1">  1        2 0.14465589E+00 0.13210430E+04</pdfrwt>
<pdfrwt beam="2">  1       -2 0.71385683E-01 0.13210430E+04</pdfrwt>
<totfact> 0.48041391E+01</totfact>
</mgrwt>
</event>
<event>
12    1  0.1556559E-007  0.1515559E+04  0.7818608E-02  0.8874172E-01
          2   -1    0    0  501    0  0.00000000000E+00  0.00000000000E+00  0.16293789488E+04  0.16293789488E+04  0.00000000000E+00 0. -1.
         -2   -1    0    0    0  501 -0.00000000000E+00 -0.00000000000E+00 -0.35242254771E+03  0.35242254771E+03  0.00000000000E+00 0.  1.
         23    2    1    2    0    0 -0.49959155194E+02  0.16887250160E+03  0.95729427046E+03  0.97765721269E+03  0.91583111421E+02 0.  0.
        254    2    1    2    0    0  0.49959155194E+02 -0.16887250160E+03  0.31966213062E+03  0.10041442838E+04  0.93547208722E+03 0.  0.
        -24    2    4    4    0    0  0.18620851640E+02  0.98702523079E+02  0.59624452635E+03  0.60989695631E+03  0.79861366968E+02 0.  0.
         24    2    4    4    0    0  0.31338303553E+02 -0.26757502468E+03 -0.27658239573E+03  0.39424732749E+03  0.79716061785E+02 0.  0.
         13    1    3    3    0    0 -0.66143628172E+02  0.16937263313E+03  0.85846280089E+03  0.87750809051E+03  0.00000000000E+00 0. -1.
        -13    1    3    3    0    0  0.16184472978E+02 -0.50013152906E+00  0.98831469569E+02  0.10014912218E+03  0.00000000000E+00 0.  1.
          4    1    6    6  502    0  0.25714274357E+02 -0.14290508829E+03 -0.20230441111E+03  0.24901839876E+03  0.00000000000E+00 0. -1.
          1    1    5    5  503    0  0.49306644373E+02  0.72710995779E+02  0.42646585059E+03  0.43542066534E+03  0.00000000000E+00 0. -1.
         -2    1    5    5    0  503 -0.30685792732E+02  0.25991527300E+02  0.16977867576E+03  0.17447629097E+03  0.00000000000E+00 0.  1.
         -3    1    6    6    0  502  0.56240291960E+01 -0.12466993638E+03 -0.74277984626E+02  0.14522892874E+03  0.00000000000E+00 0.  1.
<mgrwt>
<rscale>  0 0.15155591E+04</rscale>
<asrwt>0</asrwt>
<pdfrwt beam="1">  1        2 0.25067368E+00 0.15155591E+04</pdfrwt>
<pdfrwt beam="2">  1       -2 0.54218855E-01 0.15155591E+04</pdfrwt>
<totfact> 0.33184623E+01</totfact>
</mgrwt>
</event>
<event>
12    1  0.1556559E-007  0.1664132E+04  0.7818608E-02  0.8782089E-01
          1   -1    0    0  501    0  0.00000000000E+00  0.00000000000E+00  0.15781059485E+04  0.15781059485E+04  0.00000000000E+00 0. -1.
         -1   -1    0    0    0  501 -0.00000000000E+00 -0.00000000000E+00 -0.43871213699E+03  0.43871213699E+03  0.00000000000E+00 0.  1.
         23    2    1    2    0    0 -0.50856540310E+03 -0.28722291598E+03  0.50668446048E+03  0.77861775753E+03  0.91546147634E+02 0.  0.
        254    2    1    2    0    0  0.50856540310E+03  0.28722291598E+03  0.63270935103E+03  0.12382003280E+04  0.88976578750E+03 0.  0.
        -24    2    4    4    0    0  0.66272787403E+03 -0.30566244831E+01  0.21653183382E+03  0.70177972440E+03  0.79944784382E+02 0.  0.
         24    2    4    4    0    0 -0.15416247093E+03  0.29027954047E+03  0.41617751722E+03  0.53642060357E+03  0.80715915663E+02 0.  0.
         11    1    3    3    0    0 -0.46681025608E+03 -0.23310437247E+03  0.46231255981E+03  0.69712435520E+03  0.00000000000E+00 0. -1.
        -11    1    3    3    0    0 -0.41755147019E+02 -0.54118543512E+02  0.44371900669E+02  0.81493402330E+02  0.00000000000E+00 0.  1.
          4    1    6    6  502    0  0.94815324757E+01  0.24417103822E+02  0.29582531327E+02  0.39512283873E+02  0.00000000000E+00 0. -1.
          3    1    5    5  503    0  0.22148999916E+03 -0.38715964241E+02  0.70745190547E+02  0.23571514079E+03  0.00000000000E+00 0. -1.
         -4    1    5    5    0  503  0.44123787487E+03  0.35659339758E+02  0.14578664327E+03  0.46606458360E+03  0.00000000000E+00 0.  1.
         -3    1    6    6    0  502 -0.16364400341E+03  0.26586243664E+03  0.38659498589E+03  0.49690831970E+03  0.00000000000E+00 0.  1.
<mgrwt>
<rscale>  0 0.16641325E+04</rscale>
<asrwt>0</asrwt>
<pdfrwt beam="1">  1        1 0.24278553E+00 0.16641325E+04</pdfrwt>
<pdfrwt beam="2">  1       -1 0.67494176E-01 0.16641325E+04</pdfrwt>
<totfact> 0.12257912E+01</totfact>
</mgrwt>
</event>
<event>
12    1  0.1556559E-007  0.2615999E+04  0.7818608E-02  0.8362787E-01
         -2   -1    0    0    0  501 -0.00000000000E+00  0.00000000000E+00  0.14153114382E+04  0.14153114382E+04  0.00000000000E+00 0. -1.
          2   -1    0    0  501    0  0.00000000000E+00 -0.00000000000E+00 -0.12088246189E+04  0.12088246189E+04  0.00000000000E+00 0.  1.
         23    2    1    2    0    0 -0.11648863948E+03 -0.52402343188E+03 -0.96064084543E+03  0.11048385992E+04  0.98322611950E+02 0.  0.
        254    2    1    2    0    0  0.11648863948E+03  0.52402343188E+03  0.11671276647E+04  0.15192974579E+04  0.81111504696E+03 0.  0.
        -24    2    4    4    0    0  0.32608637665E+03  0.22709983612E+02  0.77398558544E+03  0.84403707627E+03  0.80602923318E+02 0.  0.
         24    2    4    4    0    0 -0.20959773718E+03  0.50131344826E+03  0.39314207929E+03  0.67526038159E+03  0.78546187702E+02 0.  0.
         13    1    3    3    0    0 -0.10525894334E+03 -0.24820313961E+03 -0.48500328642E+03  0.55489857768E+03  0.00000000000E+00 0. -1.
        -13    1    3    3    0    0 -0.11229696138E+02 -0.27582029227E+03 -0.47563755900E+03  0.54994002149E+03  0.00000000000E+00 0.  1.
          4    1    6    6  502    0 -0.58605973273E+02  0.23828061882E+03  0.18769332671E+03  0.30893542740E+03  0.00000000000E+00 0. -1.
          3    1    5    5  503    0  0.16767516556E+03  0.16682388269E+02  0.29791889560E+03  0.34227026102E+03  0.00000000000E+00 0. -1.
         -4    1    5    5    0  503  0.15841121110E+03  0.60275953427E+01  0.47606668984E+03  0.50176681525E+03  0.00000000000E+00 0.  1.
         -3    1    6    6    0  502 -0.15099176390E+03  0.26303282944E+03  0.20544875258E+03  0.36632495420E+03  0.00000000000E+00 0.  1.
<mgrwt>
<rscale>  0 0.26159995E+04</rscale>
<asrwt>0</asrwt>
<pdfrwt beam="1">  1        2 0.18597302E+00 0.26159995E+04</pdfrwt>
<pdfrwt beam="2">  1       -2 0.21774022E+00 0.26159995E+04</pdfrwt>
<totfact> 0.16886162E+00</totfact>
</mgrwt>
</event>
<event>
12    1  0.1556559E-007  0.1564193E+04  0.7818608E-02  0.8842853E-01
          1   -1    0    0  501    0  0.00000000000E+00  0.00000000000E+00  0.17769997003E+04  0.17769997003E+04  0.00000000000E+00 0. -1.
         -1   -1    0    0    0  501 -0.00000000000E+00 -0.00000000000E+00 -0.34421766370E+03  0.34421766370E+03  0.00000000000E+00 0.  1.
         23    2    1    2    0    0 -0.43764329955E+03 -0.17573449285E+03  0.72353489037E+03  0.86843611880E+03  0.90908114253E+02 0.  0.
        254    2    1    2    0    0  0.43764329955E+03  0.17573449285E+03  0.70924714621E+03  0.12527812452E+04  0.91870292491E+03 0.  0.
        -24    2    4    4    0    0 -0.25233660889E+02  0.20651762698E+03  0.74783170920E+03  0.78016341696E+03  0.78207569865E+02 0.  0.
         24    2    4    4    0    0  0.46287696044E+03 -0.30783134124E+02 -0.38584562986E+02  0.47261782822E+03  0.81707779291E+02 0.  0.
         13    1    3    3    0    0 -0.46644045308E+02 -0.47458107568E+02  0.73977976260E+02  0.99502160319E+02  0.00000000000E+00 0.  1.
        -13    1    3    3    0    0 -0.39099925424E+03 -0.12827638529E+03  0.64955691411E+03  0.76893395848E+03  0.00000000000E+00 0. -1.
          4    1    6    6  502    0  0.18737176788E+03 -0.52283706041E+02 -0.97334772118E+01  0.19477295987E+03  0.00000000000E+00 0. -1.
          3    1    5    5  503    0 -0.29180671289E+01  0.17746174072E+03  0.68312218696E+03  0.70580245597E+03  0.00000000000E+00 0. -1.
         -4    1    5    5    0  503 -0.22315593760E+02  0.29055886258E+02  0.64709522244E+02  0.74360960995E+02  0.00000000000E+00 0.  1.
         -3    1    6    6    0  502  0.27550519256E+03  0.21500571917E+02 -0.28851085774E+02  0.27784486835E+03  0.00000000000E+00 0.  1.
<mgrwt>
<rscale>  0 0.15641927E+04</rscale>
<asrwt>0</asrwt>
<pdfrwt beam="1">  1        1 0.27338456E+00 0.15641927E+04</pdfrwt>
<pdfrwt beam="2">  1       -1 0.52956565E-01 0.15641927E+04</pdfrwt>
<totfact> 0.14613960E+01</totfact>
</mgrwt>
</event>
<event>
12    1  0.1556559E-007  0.2218993E+04  0.7818608E-02  0.8510564E-01
         -1   -1    0    0    0  501 -0.00000000000E+00  0.00000000000E+00  0.48185701694E+03  0.48185701694E+03  0.00000000000E+00 0.  1.
          1   -1    0    0  501    0  0.00000000000E+00 -0.00000000000E+00 -0.25546641259E+04  0.25546641259E+04  0.00000000000E+00 0. -1.
         23    2    1    2    0    0 -0.65516101090E+03  0.14077425558E+02  0.25169577948E+02  0.66169764100E+03  0.88182403762E+02 0.  0.
        254    2    1    2    0    0  0.65516101090E+03 -0.14077425558E+02 -0.20979766869E+04  0.23748235018E+04  0.89935886159E+03 0.  0.
        -24    2    4    4    0    0  0.41107266404E+03 -0.44303951196E+03 -0.12395109422E+04  0.13813406556E+04  0.80311186986E+02 0.  0.
         24    2    4    4    0    0  0.24408834686E+03  0.42896208640E+03 -0.85846574471E+03  0.99348284621E+03  0.80356320490E+02 0.  0.
         13    1    3    3    0    0 -0.18314921960E+03  0.58886605027E+01 -0.32506008872E+02  0.18610468445E+03  0.00000000000E+00 0. -1.
        -13    1    3    3    0    0 -0.47201179130E+03  0.81887650555E+01  0.57675586820E+02  0.47559295654E+03  0.00000000000E+00 0.  1.
          2    1    6    6  502    0  0.22891999207E+03  0.37278618653E+03 -0.79475881396E+03  0.90720200397E+03  0.00000000000E+00 0. -1.
          3    1    5    5  503    0  0.35253693345E+03 -0.39072975814E+03 -0.11306625226E+04  0.12471366298E+04  0.00000000000E+00 0. -1.
         -4    1    5    5    0  503  0.58535730595E+02 -0.52309753819E+02 -0.10884841961E+03  0.13420402584E+03  0.00000000000E+00 0.  1.
         -1    1    6    6    0  502  0.15168354794E+02  0.56175899873E+02 -0.63706930749E+02  0.86280842249E+02  0.00000000000E+00 0.  1.
<mgrwt>
<rscale>  0 0.22189933E+04</rscale>
<asrwt>0</asrwt>
<pdfrwt beam="1">  1        1 0.39302525E+00 0.22189933E+04</pdfrwt>
<pdfrwt beam="2">  1       -1 0.74131849E-01 0.22189933E+04</pdfrwt>
<totfact> 0.20696968E+00</totfact>
</mgrwt>
</event>
<event>
12    1  0.1556559E-007  0.9984928E+03  0.7818608E-02  0.9310199E-01
         -1   -1    0    0    0  501 -0.00000000000E+00  0.00000000000E+00  0.14821300636E+04  0.14821300636E+04  0.00000000000E+00 0.  1.
          1   -1    0    0  501    0  0.00000000000E+00 -0.00000000000E+00 -0.16816806760E+03  0.16816806760E+03  0.00000000000E+00 0. -1.
         23    2    1    2    0    0  0.15966364837E+01 -0.19603575592E+02  0.23220434800E+03  0.25058779595E+03  0.92133244963E+02 0.  0.
        254    2    1    2    0    0 -0.15966364837E+01  0.19603575592E+02  0.10817576480E+04  0.13997103353E+04  0.88803297470E+03 0.  0.
        -24    2    4    4    0    0 -0.24609075450E+03  0.23002829886E+03  0.96004777712E+02  0.35951339720E+03  0.80989429527E+02 0.  0.
         24    2    4    4    0    0  0.24449411802E+03 -0.21042472327E+03  0.98575287030E+03  0.10401969381E+04  0.79025380194E+02 0.  0.
         13    1    3    3    0    0 -0.11895279503E+02 -0.48427483683E+02  0.19663251599E+03  0.20285725325E+03  0.00000000000E+00 0.  1.
        -13    1    3    3    0    0  0.13491915986E+02  0.28823908091E+02  0.35571832007E+02  0.47730542705E+02  0.00000000000E+00 0. -1.
          4    1    6    6  502    0  0.70475552118E+01 -0.37043949356E+02  0.12914950141E+03  0.13454187427E+03  0.00000000000E+00 0. -1.
          1    1    5    5  503    0 -0.94613368106E+02  0.94720049337E+02  0.79568606078E+02  0.15573933429E+03  0.00000000000E+00 0. -1.
         -4    1    5    5    0  503 -0.15147738640E+03  0.13530824953E+03  0.16436171634E+02  0.20377406292E+03  0.00000000000E+00 0.  1.
         -3    1    6    6    0  502  0.23744656281E+03 -0.17338077392E+03  0.85660336889E+03  0.90565506378E+03  0.00000000000E+00 0.  1.
<mgrwt>
<rscale>  0 0.99849276E+03</rscale>
<asrwt>0</asrwt>
<pdfrwt beam="1">  1        1 0.25872011E-01 0.99849276E+03</pdfrwt>
<pdfrwt beam="2">  1       -1 0.22802000E+00 0.99849276E+03</pdfrwt>
<totfact> 0.18288694E+01</totfact>
</mgrwt>
</event>
<event>
12    1  0.1964446E-007  0.2112452E+04  0.7818608E-02  0.8555778E-01
         -1   -1    0    0    0  501 -0.00000000000E+00  0.00000000000E+00  0.88304833763E+03  0.88304833763E+03  0.00000000000E+00 0.  1.
          1   -1    0    0  501    0  0.00000000000E+00 -0.00000000000E+00 -0.12633660011E+04  0.12633660011E+04  0.00000000000E+00 0. -1.
         23    2    1    2    0    0  0.29902683070E+03 -0.39238565747E+03 -0.87363415577E+03  0.10075464047E+04  0.92355669926E+02 0.  0.
        254    2    1    2    0    0 -0.29902683070E+03  0.39238565747E+03  0.49331649228E+03  0.11388679341E+04  0.90015302036E+03 0.  0.
        -24    2    4    4    0    0  0.26351246366E+03 -0.77248672196E+02  0.18337065469E+03  0.33932215934E+03  0.78157245056E+02 0.  0.
         24    2    4    4    0    0 -0.56253929436E+03  0.46963432967E+03  0.30994583758E+03  0.79954577475E+03  0.78741109869E+02 0.  0.
         11    1    3    3    0    0  0.17739109478E+03 -0.23268499888E+03 -0.42425187048E+03  0.51536352104E+03  0.00000000000E+00 0.  1.
        -11    1    3    3    0    0  0.12163573592E+03 -0.15970065859E+03 -0.44938228530E+03  0.49218288364E+03  0.00000000000E+00 0. -1.
          2    1    6    6  502    0 -0.53535695399E+03  0.42960320194E+03  0.30425601699E+03  0.75082468205E+03  0.00000000000E+00 0. -1.
          1    1    5    5  503    0  0.23211732763E+03 -0.86866043984E+02  0.13910674628E+03  0.28420916637E+03  0.00000000000E+00 0. -1.
         -2    1    5    5    0  503  0.31395136023E+02  0.96173717878E+01  0.44263908416E+02  0.55112992971E+02  0.00000000000E+00 0.  1.
         -1    1    6    6    0  502 -0.27182340364E+02  0.40031127729E+02  0.56898205899E+01  0.48721092693E+02  0.00000000000E+00 0.  1.
<mgrwt>
<rscale>  0 0.21124519E+04</rscale>
<asrwt>0</asrwt>
<pdfrwt beam="1">  1        1 0.19436400E+00 0.21124519E+04</pdfrwt>
<pdfrwt beam="2">  1       -1 0.13585359E+00 0.21124519E+04</pdfrwt>
<totfact> 0.40020790E+00</totfact>
</mgrwt>
</event>
<event>
12    1  0.1556559E-007  0.1420706E+04  0.7818608E-02  0.8938966E-01
         -2   -1    0    0    0  501 -0.00000000000E+00  0.00000000000E+00  0.17189536264E+04  0.17189536264E+04  0.00000000000E+00 0.  1.
          2   -1    0    0  501    0  0.00000000000E+00 -0.00000000000E+00 -0.29355133223E+03  0.29355133223E+03  0.00000000000E+00 0. -1.
         23    2    1    2    0    0 -0.39816437643E+03 -0.91344702815E+02  0.28214018432E+03  0.50696045261E+03  0.10260161552E+03 0.  0.
        254    2    1    2    0    0  0.39816437643E+03  0.91344702815E+02  0.11432621098E+04  0.15055445060E+04  0.89035795185E+03 0.  0.
        -24    2    4    4    0    0  0.15780648668E+03 -0.39031756777E+03  0.59668794787E+03  0.73416144192E+03  0.75536909704E+02 0.  0.
         24    2    4    4    0    0  0.24035788975E+03  0.48166227059E+03  0.54657416195E+03  0.77138306407E+03  0.80734496723E+02 0.  0.
         11    1    3    3    0    0 -0.38320676048E+03 -0.10568324232E+03  0.27979366206E+03  0.48610787107E+03  0.00000000000E+00 0.  1.
        -11    1    3    3    0    0 -0.14957615948E+02  0.14338539506E+02  0.23465222634E+01  0.20852581537E+02  0.00000000000E+00 0. -1.
          4    1    6    6  502    0  0.20421813674E+03  0.33976332306E+03  0.37319889385E+03  0.54444611987E+03  0.00000000000E+00 0. -1.
          3    1    5    5  503    0  0.15634612240E+03 -0.35336216062E+03  0.50948897894E+03  0.63944346600E+03  0.00000000000E+00 0. -1.
         -4    1    5    5    0  503  0.14603642868E+01 -0.36955407152E+02  0.87198968925E+02  0.94717975924E+02  0.00000000000E+00 0.  1.
         -3    1    6    6    0  502  0.36139753005E+02  0.14189894752E+03  0.17337526810E+03  0.22693694420E+03  0.00000000000E+00 0.  1.
<mgrwt>
<rscale>  0 0.14207056E+04</rscale>
<asrwt>0</asrwt>
<pdfrwt beam="1">  1        2 0.45161744E-01 0.14207056E+04</pdfrwt>
<pdfrwt beam="2">  1       -2 0.26445440E+00 0.14207056E+04</pdfrwt>
<totfact> 0.57394789E+00</totfact>
</mgrwt>
</event>
<event>
12    1  0.1556559E-007  0.1702325E+04  0.7818608E-02  0.8760040E-01
          1   -1    0    0  501    0  0.00000000000E+00  0.00000000000E+00  0.76271212347E+03  0.76271212347E+03  0.00000000000E+00 0. -1.
         -1   -1    0    0    0  501 -0.00000000000E+00 -0.00000000000E+00 -0.94987013388E+03  0.94987013388E+03  0.00000000000E+00 0.  1.
         23    2    1    2    0    0 -0.39072994368E+03 -0.43916763552E+03  0.11584609716E+03  0.60598358534E+03  0.90871813523E+02 0.  0.
        254    2    1    2    0    0  0.39072994368E+03  0.43916763552E+03 -0.30300410756E+03  0.11065986720E+04  0.88724913678E+03 0.  0.
        -24    2    4    4    0    0 -0.91262837012E+02 -0.16415614114E+03  0.10578103046E+03  0.22947120139E+03  0.78684571380E+02 0.  0.
         24    2    4    4    0    0  0.48199278070E+03  0.60332377665E+03 -0.40878513801E+03  0.87712747062E+03  0.77010976699E+02 0.  0.
         11    1    3    3    0    0 -0.25544832239E+03 -0.33864492259E+03  0.10559144645E+03  0.43713131044E+03  0.00000000000E+00 0. -1.
        -11    1    3    3    0    0 -0.13528162130E+03 -0.10052271293E+03  0.10254650701E+02  0.16885227489E+03  0.00000000000E+00 0.  1.
          2    1    6    6  502    0  0.48153594846E+03  0.59384009862E+03 -0.41002821526E+03  0.86755176773E+03  0.00000000000E+00 0. -1.
          1    1    5    5  503    0 -0.86649519560E+02 -0.12236715815E+03  0.46866156997E+02  0.15709327581E+03  0.00000000000E+00 0. -1.
         -2    1    5    5    0  503 -0.46133174516E+01 -0.41788982983E+02  0.58914873459E+02  0.72377925581E+02  0.00000000000E+00 0.  1.
         -1    1    6    6    0  502  0.45683223677E+00  0.94836780312E+01  0.12430772431E+01  0.95757028841E+01  0.00000000000E+00 0.  1.
<mgrwt>
<rscale>  0 0.17023248E+04</rscale>
<asrwt>0</asrwt>
<pdfrwt beam="1">  1        1 0.11734033E+00 0.17023248E+04</pdfrwt>
<pdfrwt beam="2">  1       -1 0.14613387E+00 0.17023248E+04</pdfrwt>
<totfact> 0.84946138E+00</totfact>
</mgrwt>
</event>
<event>
12    1  0.2245540E-007  0.1703552E+04  0.7818608E-02  0.8759341E-01
         -2   -1    0    0    0  501 -0.00000000000E+00  0.00000000000E+00  0.36580975792E+03  0.36580975792E+03  0.00000000000E+00 0.  1.
          2   -1    0    0  501    0  0.00000000000E+00 -0.00000000000E+00 -0.19833333981E+04  0.19833333981E+04  0.00000000000E+00 0. -1.
         23    2    1    2    0    0  0.60957244571E+02 -0.55737256159E+02  0.24469394238E+03  0.27824207106E+03  0.10354273166E+03 0.  0.
        254    2    1    2    0    0 -0.60957244571E+02  0.55737256159E+02 -0.18622175826E+04  0.20709010850E+04  0.90219429807E+03 0.  0.
        -24    2    4    4    0    0 -0.22387342531E+03 -0.12367836510E+02 -0.18617696209E+04  0.18769162470E+04  0.79725798522E+02 0.  0.
         24    2    4    4    0    0  0.16291618074E+03  0.68105092670E+02 -0.44796164233E+00  0.19398483795E+03  0.80311462999E+02 0.  0.
         13    1    3    3    0    0 -0.72523592713E+01  0.90322135036E+01  0.12723896281E+03  0.12776514099E+03  0.00000000000E+00 0. -1.
        -13    1    3    3    0    0  0.68209603842E+02 -0.64769469663E+02  0.11745497958E+03  0.15047693007E+03  0.00000000000E+00 0.  1.
          2    1    6    6  502    0 -0.67252538346E+01  0.14221613338E+02  0.27106627356E+01  0.15963427500E+02  0.00000000000E+00 0. -1.
          3    1    5    5  503    0  0.59906942471E+01  0.42034607989E+01 -0.45711313185E+02  0.46293429915E+02  0.00000000000E+00 0. -1.
         -4    1    5    5    0  503 -0.22986411956E+03 -0.16571297309E+02 -0.18160583077E+04  0.18306228171E+04  0.00000000000E+00 0.  1.
         -1    1    6    6    0  502  0.16964143458E+03  0.53883479332E+02 -0.31586243780E+01  0.17802141045E+03  0.00000000000E+00 0.  1.
<mgrwt>
<rscale>  0 0.17035524E+04</rscale>
<asrwt>0</asrwt>
<pdfrwt beam="1">  1        2 0.30512821E+00 0.17035524E+04</pdfrwt>
<pdfrwt beam="2">  1       -2 0.56278425E-01 0.17035524E+04</pdfrwt>
<totfact> 0.19242900E+01</totfact>
</mgrwt>
</event>
<event>
12    1  0.1556559E-007  0.1734321E+04  0.7818608E-02  0.8742028E-01
          1   -1    0    0  501    0  0.00000000000E+00  0.00000000000E+00  0.86993638812E+03  0.86993638812E+03  0.00000000000E+00 0. -1.
         -1   -1    0    0    0  501 -0.00000000000E+00 -0.00000000000E+00 -0.86439365561E+03  0.86439365561E+03  0.00000000000E+00 0.  1.
         23    2    1    2    0    0 -0.24827517176E+03  0.31298334683E+03  0.47568874905E+03  0.62838613188E+03  0.94816709845E+02 0.  0.
        254    2    1    2    0    0  0.24827517176E+03 -0.31298334683E+03 -0.47014601654E+03  0.11059439118E+04  0.91786465395E+03 0.  0.
        -24    2    4    4    0    0  0.43432329933E+03 -0.37131313419E+03 -0.62030396587E+03  0.84715163781E+03  0.79866860447E+02 0.  0.
         24    2    4    4    0    0 -0.18604812758E+03  0.58329787360E+02  0.15015794933E+03  0.25879227404E+03  0.80060986048E+02 0.  0.
         11    1    3    3    0    0 -0.63508023789E+01  0.60807106589E+02  0.70249790491E+02  0.93128244731E+02  0.00000000000E+00 0.  1.
        -11    1    3    3    0    0 -0.24192436938E+03  0.25217624024E+03  0.40543895856E+03  0.53525788715E+03  0.00000000000E+00 0. -1.
          4    1    6    6  502    0 -0.14862106198E+03  0.70700044596E+02  0.14441537233E+03  0.21895779533E+03  0.00000000000E+00 0. -1.
          3    1    5    5  503    0  0.35367324253E+03 -0.32167116120E+03 -0.47668369123E+03  0.67511809331E+03  0.00000000000E+00 0. -1.
         -4    1    5    5    0  503  0.80650056804E+02 -0.49641972996E+02 -0.14362027464E+03  0.17203354450E+03  0.00000000000E+00 0.  1.
         -3    1    6    6    0  502 -0.37427065599E+02 -0.12370257236E+02  0.57425769942E+01  0.39834478708E+02  0.00000000000E+00 0.  1.
<mgrwt>
<rscale>  0 0.17343212E+04</rscale>
<asrwt>0</asrwt>
<pdfrwt beam="1">  1        1 0.13383637E+00 0.17343212E+04</pdfrwt>
<pdfrwt beam="2">  1       -1 0.13298364E+00 0.17343212E+04</pdfrwt>
<totfact> 0.87550656E+00</totfact>
</mgrwt>
</event>
<event>
12    1  0.1556559E-007  0.1805037E+04  0.7818608E-02  0.8703626E-01
         -1   -1    0    0    0  501 -0.00000000000E+00  0.00000000000E+00  0.15139348986E+04  0.15139348986E+04  0.00000000000E+00 0.  1.
          1   -1    0    0  501    0  0.00000000000E+00 -0.00000000000E+00 -0.53802795190E+03  0.53802795190E+03  0.00000000000E+00 0. -1.
         23    2    1    2    0    0  0.74167152976E+01 -0.45943070831E+01 -0.40034810267E+03  0.41152884723E+03  0.94875041335E+02 0.  0.
        254    2    1    2    0    0 -0.74167152976E+01  0.45943070831E+01  0.13762550494E+04  0.16404340033E+04  0.89267555294E+03 0.  0.
        -24    2    4    4    0    0  0.28161635667E+03  0.30358245812E+03  0.95351385560E+03  0.10426814872E+04  0.80783226157E+02 0.  0.
         24    2    4    4    0    0 -0.28903307196E+03 -0.29898815104E+03  0.42274119380E+03  0.59775251612E+03  0.75259035624E+02 0.  0.
         13    1    3    3    0    0  0.88044891038E+01  0.38039520769E+02 -0.87891985015E+02  0.96174451902E+02  0.00000000000E+00 0. -1.
        -13    1    3    3    0    0 -0.13877738062E+01 -0.42633827852E+02 -0.31245611766E+03  0.31535439533E+03  0.00000000000E+00 0.  1.
          4    1    6    6  502    0 -0.21343695307E+03 -0.16946053915E+03  0.27903758998E+03  0.39004382303E+03  0.00000000000E+00 0. -1.
          3    1    5    5  503    0 -0.36474706626E+01  0.10938336071E+01  0.25490311296E+02  0.25773173731E+02  0.00000000000E+00 0. -1.
         -4    1    5    5    0  503  0.28526382733E+03  0.30248862452E+03  0.92802354431E+03  0.10169083134E+04  0.00000000000E+00 0.  1.
         -3    1    6    6    0  502 -0.75596118896E+02 -0.12952761189E+03  0.14370360382E+03  0.20770869309E+03  0.00000000000E+00 0.  1.
<mgrwt>
<rscale>  0 0.18050366E+04</rscale>
<asrwt>0</asrwt>
<pdfrwt beam="1">  1        1 0.82773532E-01 0.18050366E+04</pdfrwt>
<pdfrwt beam="2">  1       -1 0.23291306E+00 0.18050366E+04</pdfrwt>
<totfact> 0.34073887E+00</totfact>
</mgrwt>
</event>
<event>
12    1  0.1556559E-007  0.1718913E+04  0.7818608E-02  0.8750651E-01
          2   -1    0    0  501    0  0.00000000000E+00  0.00000000000E+00  0.82688523273E+03  0.82688523273E+03  0.00000000000E+00 0. -1.
         -2   -1    0    0    0  501 -0.00000000000E+00 -0.00000000000E+00 -0.89331055533E+03  0.89331055533E+03  0.00000000000E+00 0.  1.
         23    2    1    2    0    0  0.65188730943E+02 -0.29519901196E+03 -0.56751985870E+03  0.64952305672E+03  0.91702692960E+02 0.  0.
        254    2    1    2    0    0 -0.65188730943E+02  0.29519901196E+03  0.50109453609E+03  0.10706727313E+04  0.89657812611E+03 0.  0.
        -24    2    4    4    0    0 -0.15530787216E+03 -0.19062074350E+03 -0.10964797956E+03  0.28107128294E+03  0.80756322740E+02 0.  0.
         24    2    4    4    0    0  0.90119141218E+02  0.48581975546E+03  0.61074251566E+03  0.78960144840E+03  0.79509323212E+02 0.  0.
         11    1    3    3    0    0  0.58316627498E+02 -0.86314986261E+02 -0.15009999211E+03  0.18270499043E+03  0.00000000000E+00 0. -1.
        -11    1    3    3    0    0  0.68721034442E+01 -0.20888402570E+03 -0.41741986659E+03  0.46681806630E+03  0.00000000000E+00 0.  1.
          4    1    6    6  502    0  0.94988892074E+02  0.30221741363E+03  0.38524271584E+03  0.49876868870E+03  0.00000000000E+00 0. -1.
          1    1    5    5  503    0 -0.41377605720E+01 -0.54429467207E+02 -0.14663730548E+02  0.56521791874E+02  0.00000000000E+00 0. -1.
         -2    1    5    5    0  503 -0.15117011159E+03 -0.13619127629E+03 -0.94984249017E+02  0.22454949106E+03  0.00000000000E+00 0.  1.
         -3    1    6    6    0  502 -0.48697508553E+01  0.18360234182E+03  0.22549979982E+03  0.29083275970E+03  0.00000000000E+00 0.  1.
<mgrwt>
<rscale>  0 0.17189128E+04</rscale>
<asrwt>0</asrwt>
<pdfrwt beam="1">  1        2 0.12721311E+00 0.17189128E+04</pdfrwt>
<pdfrwt beam="2">  1       -2 0.13743239E+00 0.17189128E+04</pdfrwt>
<totfact> 0.11794950E+01</totfact>
</mgrwt>
</event>
<event>
12    1  0.1556559E-007  0.1456323E+04  0.7818608E-02  0.8914028E-01
         -2   -1    0    0    0  501 -0.00000000000E+00  0.00000000000E+00  0.42158026628E+03  0.42158026628E+03  0.00000000000E+00 0.  1.
          2   -1    0    0  501    0  0.00000000000E+00 -0.00000000000E+00 -0.12576947697E+04  0.12576947697E+04  0.00000000000E+00 0. -1.
         23    2    1    2    0    0 -0.30962436568E+03 -0.29039824347E+03 -0.14915669552E+03  0.46025260500E+03  0.96883192353E+02 0.  0.
        254    2    1    2    0    0  0.30962436568E+03  0.29039824347E+03 -0.68695780795E+03  0.12190224310E+04  0.91318468548E+03 0.  0.
        -24    2    4    4    0    0  0.10474991933E+03 -0.10410264727E+03 -0.74492717335E+03  0.76350313203E+03  0.78807564731E+02 0.  0.
         24    2    4    4    0    0  0.20487444634E+03  0.39450089074E+03  0.57969365397E+02  0.45551929899E+03  0.80826312993E+02 0.  0.
         11    1    3    3    0    0 -0.10066740259E+03 -0.12060253424E+03 -0.10615179870E+02  0.15745341931E+03  0.00000000000E+00 0.  1.
        -11    1    3    3    0    0 -0.20895696308E+03 -0.16979570923E+03 -0.13854151565E+03  0.30279918569E+03  0.00000000000E+00 0. -1.
          4    1    6    6  502    0  0.86023857434E+01  0.57537380278E+02 -0.11820475031E+02  0.59365602833E+02  0.00000000000E+00 0. -1.
          1    1    5    5  503    0  0.39038616337E+02  0.53912785341E+01 -0.15740420393E+03  0.16226263546E+03  0.00000000000E+00 0. -1.
         -2    1    5    5    0  503  0.65711302998E+02 -0.10949392580E+03 -0.58752296942E+03  0.60124049657E+03  0.00000000000E+00 0.  1.
         -3    1    6    6    0  502  0.19627206060E+03  0.33696351046E+03  0.69789840428E+02  0.39615369616E+03  0.00000000000E+00 0.  1.
<mgrwt>
<rscale>  0 0.14563232E+04</rscale>
<asrwt>0</asrwt>
<pdfrwt beam="1">  1        2 0.19349150E+00 0.14563232E+04</pdfrwt>
<pdfrwt beam="2">  1       -2 0.64858503E-01 0.14563232E+04</pdfrwt>
<totfact> 0.37215619E+01</totfact>
</mgrwt>
</event>
<event>
12    1  0.1556559E-007  0.1495187E+04  0.7818608E-02  0.8887660E-01
         -2   -1    0    0    0  501 -0.00000000000E+00  0.00000000000E+00  0.42378945349E+03  0.42378945349E+03  0.00000000000E+00 0.  1.
          2   -1    0    0  501    0  0.00000000000E+00 -0.00000000000E+00 -0.13188058219E+04  0.13188058219E+04  0.00000000000E+00 0. -1.
         23    2    1    2    0    0  0.11011336950E+02  0.16500582421E+03 -0.79419687449E+03  0.81677497893E+03  0.94997469379E+02 0.  0.
        254    2    1    2    0    0 -0.11011336950E+02 -0.16500582421E+03 -0.10081949395E+03  0.92582029648E+03  0.90533445724E+03 0.  0.
        -24    2    4    4    0    0 -0.35751062341E+03  0.17902747327E+03  0.42672005997E+02  0.40978410255E+03  0.78977392764E+02 0.  0.
         24    2    4    4    0    0  0.34649928646E+03 -0.34403329748E+03 -0.14349149995E+03  0.51603619394E+03  0.85339777385E+02 0.  0.
         13    1    3    3    0    0 -0.47438075824E+01  0.14802849042E+03 -0.76646543414E+03  0.78064345218E+03  0.00000000000E+00 0. -1.
        -13    1    3    3    0    0  0.15755144533E+02  0.16977333786E+02 -0.27731440343E+02  0.36131526749E+02  0.00000000000E+00 0.  1.
          4    1    6    6  502    0  0.43918850827E+02 -0.38346951868E+02  0.10390340504E+02  0.59222574677E+02  0.00000000000E+00 0. -1.
          3    1    5    5  503    0 -0.54747449528E+00 -0.28945617517E+01  0.69485889731E+01  0.75472580964E+01  0.00000000000E+00 0. -1.
         -4    1    5    5    0  503 -0.35696314892E+03  0.18192203502E+03  0.35723417024E+02  0.40223684445E+03  0.00000000000E+00 0.  1.
         -3    1    6    6    0  502  0.30258043563E+03 -0.30568634561E+03 -0.15388184045E+03  0.45681361926E+03  0.00000000000E+00 0.  1.
<mgrwt>
<rscale>  0 0.14951869E+04</rscale>
<asrwt>0</asrwt>
<pdfrwt beam="1">  1        2 0.20289320E+00 0.14951869E+04</pdfrwt>
<pdfrwt beam="2">  1       -2 0.65198378E-01 0.14951869E+04</pdfrwt>
<totfact> 0.33790495E+01</totfact>
</mgrwt>
</event>
<event>
12    1  0.1902692E-007  0.1573749E+04  0.7818608E-02  0.8836839E-01
          2   -1    0    0  501    0  0.00000000000E+00  0.00000000000E+00  0.90639495548E+03  0.90639495548E+03  0.00000000000E+00 0. -1.
         -2   -1    0    0    0  501 -0.00000000000E+00 -0.00000000000E+00 -0.68311432232E+03  0.68311432232E+03  0.00000000000E+00 0.  1.
         23    2    1    2    0    0  0.19295149996E+03  0.23064304162E+03  0.50751212682E+03  0.59708845748E+03  0.92301534172E+02 0.  0.
        254    2    1    2    0    0 -0.19295149996E+03 -0.23064304162E+03 -0.28423149366E+03  0.99242082032E+03  0.90204492606E+03 0.  0.
        -24    2    4    4    0    0 -0.47364220385E+03  0.42227494297E+02  0.31048177220E+02  0.48347040511E+03  0.81606033859E+02 0.  0.
         24    2    4    4    0    0  0.28069070389E+03 -0.27287053591E+03 -0.31527967088E+03  0.50895041521E+03  0.79897770011E+02 0.  0.
         11    1    3    3    0    0  0.20276722075E+03  0.21727843697E+03  0.47006866622E+03  0.55613758724E+03  0.00000000000E+00 0. -1.
        -11    1    3    3    0    0 -0.98157207884E+01  0.13364604641E+02  0.37443460599E+02  0.40950870240E+02  0.00000000000E+00 0.  1.
          4    1    6    6  502    0  0.27241685483E+03 -0.27512135664E+03 -0.29443167114E+03  0.48640796935E+03  0.00000000000E+00 0. -1.
          1    1    5    5  503    0 -0.44206601279E+03  0.18973447090E+02  0.20912831404E+02  0.44296692639E+03  0.00000000000E+00 0. -1.
         -2    1    5    5    0  503 -0.31576191066E+02  0.23254047207E+02  0.10135345816E+02  0.40503478722E+02  0.00000000000E+00 0.  1.
         -1    1    6    6    0  502  0.82738490625E+01  0.22508207308E+01 -0.20847999739E+02  0.22542445861E+02  0.00000000000E+00 0.  1.
<mgrwt>
<rscale>  0 0.15737489E+04</rscale>
<asrwt>0</asrwt>
<pdfrwt beam="1">  1        2 0.13944538E+00 0.15737489E+04</pdfrwt>
<pdfrwt beam="2">  1       -2 0.10509451E+00 0.15737489E+04</pdfrwt>
<totfact> 0.20463692E+01</totfact>
</mgrwt>
</event>
<event>
12    1  0.1556559E-007  0.1963362E+04  0.7818608E-02  0.8623944E-01
          2   -1    0    0  501    0  0.00000000000E+00  0.00000000000E+00  0.96062450936E+03  0.96062450936E+03  0.00000000000E+00 0.  1.
         -2   -1    0    0    0  501 -0.00000000000E+00 -0.00000000000E+00 -0.10031987612E+04  0.10031987612E+04  0.00000000000E+00 0. -1.
         23    2    1    2    0    0 -0.47026710146E+03  0.55331586293E+03  0.24978571555E+03  0.77389214921E+03  0.95950841741E+02 0.  0.
        254    2    1    2    0    0  0.47026710146E+03 -0.55331586293E+03 -0.29235996740E+03  0.11899311214E+04  0.89618755411E+03 0.  0.
        -24    2    4    4    0    0  0.62407517713E+03 -0.18835008597E+03  0.51480821289E+02  0.65868468834E+03  0.79181197884E+02 0.  0.
         24    2    4    4    0    0 -0.15380807567E+03 -0.36496577696E+03 -0.34384078869E+03  0.53124643301E+03  0.84494627802E+02 0.  0.
         11    1    3    3    0    0 -0.20552208009E+03  0.19525975926E+03  0.59649232386E+02  0.28969592664E+03  0.00000000000E+00 0.  1.
        -11    1    3    3    0    0 -0.26474502137E+03  0.35805610367E+03  0.19013648316E+03  0.48419622257E+03  0.00000000000E+00 0. -1.
          2    1    6    6  502    0 -0.88047173900E+02 -0.26107601551E+03 -0.27952017146E+03  0.39248505316E+03  0.00000000000E+00 0. -1.
          1    1    5    5  503    0  0.49388717812E+03 -0.14693262103E+03  0.72855428770E+02  0.52040527796E+03  0.00000000000E+00 0. -1.
         -2    1    5    5    0  503  0.13018799901E+03 -0.41417464940E+02 -0.21374607482E+02  0.13827941038E+03  0.00000000000E+00 0.  1.
         -1    1    6    6    0  502 -0.65760901770E+02 -0.10388976145E+03 -0.64320617233E+02  0.13876137985E+03  0.00000000000E+00 0.  1.
<mgrwt>
<rscale>  0 0.19633617E+04</rscale>
<asrwt>0</asrwt>
<pdfrwt beam="1">  1        2 0.14778839E+00 0.19633617E+04</pdfrwt>
<pdfrwt beam="2">  1       -2 0.15433827E+00 0.19633617E+04</pdfrwt>
<totfact> 0.69118136E+00</totfact>
</mgrwt>
</event>
<event>
12    1  0.1556559E-007  0.1932110E+04  0.7818608E-02  0.8639036E-01
          2   -1    0    0  501    0  0.00000000000E+00  0.00000000000E+00  0.14644018817E+04  0.14644018817E+04  0.00000000000E+00 0. -1.
         -2   -1    0    0    0  501 -0.00000000000E+00 -0.00000000000E+00 -0.63729902115E+03  0.63729902115E+03  0.00000000000E+00 0.  1.
         23    2    1    2    0    0  0.71024349128E+03 -0.25528517656E+03  0.31208657961E+03  0.82171362421E+03  0.90547825816E+02 0.  0.
        254    2    1    2    0    0 -0.71024349128E+03  0.25528517656E+03  0.51501628096E+03  0.12799872787E+04  0.89638681694E+03 0.  0.
        -24    2    4    4    0    0 -0.80909601014E+03  0.44180577968E+03  0.50578612377E+03  0.10544747745E+04  0.79175416340E+02 0.  0.
         24    2    4    4    0    0  0.98852518855E+02 -0.18652060312E+03  0.92301571882E+01  0.22551250411E+03  0.78796813626E+02 0.  0.
         11    1    3    3    0    0  0.15082307916E+03 -0.18883945892E+02  0.47383263118E+02  0.15921488073E+03  0.00000000000E+00 0. -1.
        -11    1    3    3    0    0  0.55942041212E+03 -0.23640123067E+03  0.26470331649E+03  0.66249874348E+03  0.00000000000E+00 0.  1.
          2    1    6    6  502    0  0.18085289894E+02 -0.28963448006E+02  0.32251771840E+02  0.46969520093E+02  0.00000000000E+00 0. -1.
          3    1    5    5  503    0 -0.50359775208E+03  0.23760648179E+03  0.28111380297E+03  0.62377280023E+03  0.00000000000E+00 0. -1.
         -4    1    5    5    0  503 -0.30549825806E+03  0.20419929789E+03  0.22467232080E+03  0.43070197430E+03  0.00000000000E+00 0.  1.
         -1    1    6    6    0  502  0.80767228961E+02 -0.15755715512E+03 -0.23021614652E+02  0.17854298402E+03  0.00000000000E+00 0.  1.
<mgrwt>
<rscale>  0 0.19321096E+04</rscale>
<asrwt>0</asrwt>
<pdfrwt beam="1">  1        2 0.22529260E+00 0.19321096E+04</pdfrwt>
<pdfrwt beam="2">  1       -2 0.98046004E-01 0.19321096E+04</pdfrwt>
<totfact> 0.10751327E+01</totfact>
</mgrwt>
</event>
<event>
12    1  0.1556559E-007  0.1892892E+04  0.7818608E-02  0.8658403E-01
         -2   -1    0    0    0  501 -0.00000000000E+00  0.00000000000E+00  0.46708431473E+03  0.46708431473E+03  0.00000000000E+00 0.  1.
          2   -1    0    0  501    0  0.00000000000E+00 -0.00000000000E+00 -0.19177693188E+04  0.19177693188E+04  0.00000000000E+00 0. -1.
         23    2    1    2    0    0  0.51995226995E+02  0.27898379752E+03  0.28474037867E+03  0.40872572134E+03  0.73784613103E+02 0.  0.
        254    2    1    2    0    0 -0.51995226995E+02 -0.27898379752E+03 -0.17354253827E+04  0.19761279121E+04  0.90157906106E+03 0.  0.
        -24    2    4    4    0    0  0.17091530644E+01 -0.63822068663E+02  0.89711118673E+02  0.13580392546E+03  0.79488638841E+02 0.  0.
         24    2    4    4    0    0 -0.53704380060E+02 -0.21516172885E+03 -0.18251365014E+04  0.18403239867E+04  0.80563002171E+02 0.  0.
         11    1    3    3    0    0  0.52474596866E+02  0.27230441727E+03  0.25006940117E+03  0.37341395847E+03  0.00000000000E+00 0.  1.
        -11    1    3    3    0    0 -0.47936987119E+00  0.66793802498E+01  0.34670977498E+02  0.35311762866E+02  0.00000000000E+00 0. -1.
          2    1    6    6  502    0 -0.71229673231E+02 -0.19805809387E+03 -0.16804353726E+04  0.16935653859E+04  0.00000000000E+00 0. -1.
          3    1    5    5  503    0 -0.71891775134E+01 -0.31295773231E+02  0.96240487111E+02  0.10145610408E+03  0.00000000000E+00 0. -1.
         -4    1    5    5    0  503  0.88983305778E+01 -0.32526295432E+02 -0.65293684382E+01  0.34347821384E+02  0.00000000000E+00 0.  1.
         -1    1    6    6    0  502  0.17525293171E+02 -0.17103634982E+02 -0.14470112876E+03  0.14675860075E+03  0.00000000000E+00 0.  1.
<mgrwt>
<rscale>  0 0.18928919E+04</rscale>
<asrwt>0</asrwt>
<pdfrwt beam="1">  1        2 0.29504144E+00 0.18928919E+04</pdfrwt>
<pdfrwt beam="2">  1       -2 0.71859125E-01 0.18928919E+04</pdfrwt>
<totfact> 0.12207156E+01</totfact>
</mgrwt>
</event>
<event>
12    1  0.1556559E-007  0.1614704E+04  0.7818608E-02  0.8811566E-01
          2   -1    0    0  501    0  0.00000000000E+00  0.00000000000E+00  0.31836883288E+04  0.31836883288E+04  0.00000000000E+00 0. -1.
         -2   -1    0    0    0  501 -0.00000000000E+00 -0.00000000000E+00 -0.20473640893E+03  0.20473640893E+03  0.00000000000E+00 0.  1.
         23    2    1    2    0    0 -0.41058986036E+03  0.20507503656E+03  0.17165944769E+04  0.17792163130E+04  0.90963102959E+02 0.  0.
        254    2    1    2    0    0  0.41058986036E+03 -0.20507503656E+03  0.12623574429E+04  0.16092084247E+04  0.88620857392E+03 0.  0.
        -24    2    4    4    0    0  0.55943212805E+02 -0.30891996009E+03  0.35968218008E+02  0.32589183320E+03  0.79690585650E+02 0.  0.
         24    2    4    4    0    0  0.35464664755E+03  0.10384492353E+03  0.12263892249E+04  0.12833165915E+04  0.79453951139E+02 0.  0.
         11    1    3    3    0    0 -0.86714985826E+02  0.11603928812E+02  0.24958954697E+03  0.26447888741E+03  0.00000000000E+00 0.  1.
        -11    1    3    3    0    0 -0.32387487453E+03  0.19347110774E+03  0.14670049300E+04  0.15147374256E+04  0.00000000000E+00 0. -1.
          4    1    6    6  502    0  0.17671948170E+03  0.11122592831E+02  0.55052688593E+03  0.57830211777E+03  0.00000000000E+00 0. -1.
          3    1    5    5  503    0  0.24425758236E+02 -0.12625204907E+03 -0.24510594181E+02  0.13090823805E+03  0.00000000000E+00 0. -1.
         -4    1    5    5    0  503  0.31517454568E+02 -0.18266791101E+03  0.60478812188E+02  0.19498359516E+03  0.00000000000E+00 0.  1.
         -3    1    6    6    0  502  0.17792716585E+03  0.92722330701E+02  0.67586233898E+03  0.70501447376E+03  0.00000000000E+00 0.  1.
<mgrwt>
<rscale>  0 0.16147036E+04</rscale>
<asrwt>0</asrwt>
<pdfrwt beam="1">  1        2 0.48979817E+00 0.16147036E+04</pdfrwt>
<pdfrwt beam="2">  1       -2 0.31497911E-01 0.16147036E+04</pdfrwt>
<totfact> 0.12004776E+01</totfact>
</mgrwt>
</event>
<event>
12    1  0.1556559E-007  0.1755593E+04  0.7818608E-02  0.8730278E-01
         -2   -1    0    0    0  501 -0.00000000000E+00  0.00000000000E+00  0.30952669613E+03  0.30952669613E+03  0.00000000000E+00 0.  1.
          2   -1    0    0  501    0  0.00000000000E+00 -0.00000000000E+00 -0.24893699002E+04  0.24893699002E+04  0.00000000000E+00 0. -1.
         23    2    1    2    0    0  0.30325323101E+03 -0.54140970678E+03 -0.10512484367E+04  0.12242461876E+04  0.92565973565E+02 0.  0.
        254    2    1    2    0    0 -0.30325323101E+03  0.54140970678E+03 -0.11285947674E+04  0.15746504087E+04  0.90593088484E+03 0.  0.
        -24    2    4    4    0    0 -0.28268687666E+02 -0.21138601657E+02  0.13580139299E+03  0.16139230036E+03  0.79746455057E+02 0.  0.
         24    2    4    4    0    0 -0.27498454334E+03  0.56254830844E+03 -0.12643961604E+04  0.14132581084E+04  0.80769624141E+02 0.  0.
         13    1    3    3    0    0  0.25681416428E+03 -0.41647364391E+03 -0.88406989442E+03  0.10104372268E+04  0.00000000000E+00 0. -1.
        -13    1    3    3    0    0  0.46439066727E+02 -0.12493606286E+03 -0.16717854224E+03  0.21380896078E+03  0.00000000000E+00 0.  1.
          4    1    6    6  502    0 -0.21816594349E+03  0.38963127571E+03 -0.83574498276E+03  0.94756455512E+03  0.00000000000E+00 0. -1.
          1    1    5    5  503    0  0.21333353082E+02 -0.15694044317E+02  0.89441817068E+02  0.93280510404E+02  0.00000000000E+00 0. -1.
         -2    1    5    5    0  503 -0.49602040748E+02 -0.54445573403E+01  0.46359575920E+02  0.68111789952E+02  0.00000000000E+00 0.  1.
         -3    1    6    6    0  502 -0.56818599851E+02  0.17291703273E+03 -0.42865117760E+03  0.46569355327E+03  0.00000000000E+00 0.  1.
<mgrwt>
<rscale>  0 0.17555927E+04</rscale>
<asrwt>0</asrwt>
<pdfrwt beam="1">  1        2 0.38297998E+00 0.17555927E+04</pdfrwt>
<pdfrwt beam="2">  1       -2 0.47619492E-01 0.17555927E+04</pdfrwt>
<totfact> 0.13997726E+01</totfact>
</mgrwt>
</event>
<event>
12    1  0.1556559E-007  0.1898366E+04  0.7818608E-02  0.8655670E-01
          1   -1    0    0  501    0  0.00000000000E+00  0.00000000000E+00  0.14473266296E+04  0.14473266296E+04  0.00000000000E+00 0. -1.
         -1   -1    0    0    0  501 -0.00000000000E+00 -0.00000000000E+00 -0.62249133991E+03  0.62249133991E+03  0.00000000000E+00 0.  1.
         23    2    1    2    0    0  0.21569646741E+03  0.27360890426E+03  0.10183915679E+04  0.10803012155E+04  0.92425819578E+02 0.  0.
        254    2    1    2    0    0 -0.21569646741E+03 -0.27360890426E+03 -0.19355627818E+03  0.98951675402E+03  0.90570004699E+03 0.  0.
        -24    2    4    4    0    0  0.25120835750E+03  0.16188391932E+03 -0.15124692878E+03  0.34460797528E+03  0.81036911036E+02 0.  0.
         24    2    4    4    0    0 -0.46690482491E+03 -0.43549282358E+03 -0.42309349408E+02  0.64490877874E+03  0.80393637344E+02 0.  0.
         13    1    3    3    0    0  0.20536502628E+03  0.21255378236E+03  0.78375398435E+03  0.83763011670E+03  0.00000000000E+00 0. -1.
        -13    1    3    3    0    0  0.10331441130E+02  0.61055121904E+02  0.23463758353E+03  0.24267109879E+03  0.00000000000E+00 0.  1.
          2    1    6    6  502    0 -0.14714457207E+03 -0.18349758432E+03 -0.34397230971E+02  0.23771002932E+03  0.00000000000E+00 0. -1.
          3    1    5    5  503    0  0.18021836728E+03  0.15451935231E+03 -0.12701602600E+03  0.26923588358E+03  0.00000000000E+00 0. -1.
         -4    1    5    5    0  503  0.70989990223E+02  0.73645670124E+01 -0.24230902771E+02  0.75372091707E+02  0.00000000000E+00 0.  1.
         -1    1    6    6    0  502 -0.31976025284E+03 -0.25199523927E+03 -0.79121184362E+01  0.40719874942E+03  0.00000000000E+00 0.  1.
<mgrwt>
<rscale>  0 0.18983659E+04</rscale>
<asrwt>0</asrwt>
<pdfrwt beam="1">  1        1 0.22266563E+00 0.18983659E+04</pdfrwt>
<pdfrwt beam="2">  1       -1 0.95767899E-01 0.18983659E+04</pdfrwt>
<totfact> 0.70036502E+00</totfact>
</mgrwt>
</event>
<event>
12    1  0.1556559E-007  0.2290059E+04  0.7818608E-02  0.8481851E-01
         -2   -1    0    0    0  501 -0.00000000000E+00  0.00000000000E+00  0.73416435171E+03  0.73416435171E+03  0.00000000000E+00 0.  1.
          2   -1    0    0  501    0  0.00000000000E+00 -0.00000000000E+00 -0.17858301774E+04  0.17858301774E+04  0.00000000000E+00 0. -1.
         23    2    1    2    0    0 -0.34456612620E+03  0.27629768216E+03  0.49851894043E+03  0.67221145034E+03  0.90999315970E+02 0.  0.
        254    2    1    2    0    0  0.34456612620E+03 -0.27629768216E+03 -0.15501847661E+04  0.18477830788E+04  0.90341755162E+03 0.  0.
        -24    2    4    4    0    0 -0.67882396904E+02  0.14196000133E+03 -0.10709126522E+04  0.10853868607E+04  0.80312308736E+02 0.  0.
         24    2    4    4    0    0  0.41244852311E+03 -0.41825768349E+03 -0.47927211389E+03  0.76239621805E+03  0.80578906264E+02 0.  0.
         13    1    3    3    0    0 -0.16233936805E+02  0.62943391628E+01  0.47195188411E+00  0.17417868648E+02  0.00000000000E+00 0. -1.
        -13    1    3    3    0    0 -0.32833218940E+03  0.27000334300E+03  0.49804698854E+03  0.65479358169E+03  0.00000000000E+00 0.  1.
          4    1    6    6  502    0  0.16005468419E+03 -0.17688174903E+03 -0.24445094902E+03  0.34155661544E+03  0.00000000000E+00 0. -1.
          1    1    5    5  503    0 -0.37315070398E+02  0.40607158537E+02 -0.18142203837E+03  0.18961885932E+03  0.00000000000E+00 0. -1.
         -2    1    5    5    0  503 -0.30567326506E+02  0.10135284279E+03 -0.88949061384E+03  0.89576800138E+03  0.00000000000E+00 0.  1.
         -3    1    6    6    0  502  0.25239383891E+03 -0.24137593445E+03 -0.23482116488E+03  0.42083960261E+03  0.00000000000E+00 0.  1.
<mgrwt>
<rscale>  0 0.22900593E+04</rscale>
<asrwt>0</asrwt>
<pdfrwt beam="1">  1        2 0.27474310E+00 0.22900593E+04</pdfrwt>
<pdfrwt beam="2">  1       -2 0.11294836E+00 0.22900593E+04</pdfrwt>
<totfact> 0.49123036E+00</totfact>
</mgrwt>
</event>
<event>
12    1  0.1556559E-007  0.1515032E+04  0.7818608E-02  0.8874518E-01
          2   -1    0    0  501    0  0.00000000000E+00  0.00000000000E+00  0.18384211330E+04  0.18384211330E+04  0.00000000000E+00 0. -1.
         -2   -1    0    0    0  501 -0.00000000000E+00 -0.00000000000E+00 -0.31213237203E+03  0.31213237203E+03  0.00000000000E+00 0.  1.
         23    2    1    2    0    0 -0.37768682447E+03  0.49349703160E+02  0.93572496404E+03  0.10150506722E+04  0.98305281145E+02 0.  0.
        254    2    1    2    0    0  0.37768682447E+03 -0.49349703160E+02  0.59056379696E+03  0.11355028328E+04  0.89191835641E+03 0.  0.
        -24    2    4    4    0    0 -0.35589724458E+02 -0.35925970074E+03  0.47179574995E+03  0.59937100781E+03  0.79499775297E+02 0.  0.
         24    2    4    4    0    0  0.41327654892E+03  0.30990999758E+03  0.11876804701E+03  0.53613182502E+03  0.80559123122E+02 0.  0.
         13    1    3    3    0    0 -0.77785484096E+02 -0.29235302354E+02  0.21303598740E+03  0.22866922917E+03  0.00000000000E+00 0.  1.
        -13    1    3    3    0    0 -0.29990134037E+03  0.78585005514E+02  0.72268897664E+03  0.78638144307E+03  0.00000000000E+00 0. -1.
          4    1    6    6  502    0  0.33888468456E+03  0.23182946178E+03  0.65283446315E+02  0.41575191779E+03  0.00000000000E+00 0. -1.
          3    1    5    5  503    0 -0.10235594073E+02 -0.30872043827E+03  0.42814059729E+03  0.52793697298E+03  0.00000000000E+00 0. -1.
         -4    1    5    5    0  503 -0.25354130384E+02 -0.50539262470E+02  0.43655152657E+02  0.71434034830E+02  0.00000000000E+00 0.  1.
         -3    1    6    6    0  502  0.74391864362E+02  0.78080535794E+02  0.53484600699E+02  0.12037990723E+03  0.00000000000E+00 0.  1.
<mgrwt>
<rscale>  0 0.15150323E+04</rscale>
<asrwt>0</asrwt>
<pdfrwt beam="1">  1        2 0.28283401E+00 0.15150323E+04</pdfrwt>
<pdfrwt beam="2">  1       -2 0.48020366E-01 0.15150323E+04</pdfrwt>
<totfact> 0.32575539E+01</totfact>
</mgrwt>
</event>
<event>
12    1  0.1556559E-007  0.1854403E+04  0.7818608E-02  0.8677892E-01
          2   -1    0    0  501    0  0.00000000000E+00  0.00000000000E+00  0.37198046323E+04  0.37198046323E+04  0.00000000000E+00 0. -1.
         -2   -1    0    0    0  501 -0.00000000000E+00 -0.00000000000E+00 -0.23111510716E+03  0.23111510716E+03  0.00000000000E+00 0.  1.
         23    2    1    2    0    0 -0.40322359594E+02  0.40839862903E+03  0.25574032135E+04  0.25917025493E+04  0.90529414025E+02 0.  0.
        254    2    1    2    0    0  0.40322359594E+02 -0.40839862903E+03  0.93128631164E+03  0.13592171902E+04  0.90097826993E+03 0.  0.
        -24    2    4    4    0    0 -0.80447158143E+02  0.21959798933E+03  0.26090073865E+02  0.24807050113E+03  0.78506429091E+02 0.  0.
         24    2    4    4    0    0  0.12076951774E+03 -0.62799661836E+03  0.90519623777E+03  0.11111466890E+04  0.79383288930E+02 0.  0.
         11    1    3    3    0    0 -0.43700874383E+02  0.28352586975E+03  0.20002686322E+04  0.20207353331E+04  0.00000000000E+00 0. -1.
        -11    1    3    3    0    0  0.33785147892E+01  0.12487275928E+03  0.55713458125E+03  0.57096721622E+03  0.00000000000E+00 0.  1.
          2    1    6    6  502    0  0.89501204483E+02 -0.52597658371E+03  0.79771895329E+03  0.95969649403E+03  0.00000000000E+00 0. -1.
          3    1    5    5  503    0 -0.30468982024E+01  0.95507009608E+02 -0.13627156199E+02  0.96522390454E+02  0.00000000000E+00 0. -1.
         -4    1    5    5    0  503 -0.77400259941E+02  0.12409097972E+03  0.39717230064E+02  0.15154811068E+03  0.00000000000E+00 0.  1.
         -1    1    6    6    0  502  0.31268313254E+02 -0.10202003465E+03  0.10747728449E+03  0.15145019500E+03  0.00000000000E+00 0.  1.
<mgrwt>
<rscale>  0 0.18544035E+04</rscale>
<asrwt>0</asrwt>
<pdfrwt beam="1">  1        2 0.57227759E+00 0.18544035E+04</pdfrwt>
<pdfrwt beam="2">  1       -2 0.35556173E-01 0.18544035E+04</pdfrwt>
<totfact> 0.39812503E+00</totfact>
</mgrwt>
</event>
<event>
12    1  0.1556559E-007  0.2842883E+04  0.7818608E-02  0.8290077E-01
          2   -1    0    0  501    0  0.00000000000E+00  0.00000000000E+00  0.82313987819E+03  0.82313987819E+03  0.00000000000E+00 0. -1.
         -2   -1    0    0    0  501 -0.00000000000E+00 -0.00000000000E+00 -0.24546209797E+04  0.24546209797E+04  0.00000000000E+00 0.  1.
         23    2    1    2    0    0 -0.69498433058E+02  0.70961285761E+03 -0.19577842192E+04  0.20855716415E+04  0.91156914088E+02 0.  0.
        254    2    1    2    0    0  0.69498433058E+02 -0.70961285761E+03  0.32630311771E+03  0.11921892164E+04  0.89803171612E+03 0.  0.
        -24    2    4    4    0    0  0.44420201163E+03 -0.58706719106E+03  0.26077604237E+03  0.78498498630E+03  0.78955496881E+02 0.  0.
         24    2    4    4    0    0 -0.37470357857E+03 -0.12254566654E+03  0.65527075343E+02  0.40720423008E+03  0.78110660023E+02 0.  0.
         11    1    3    3    0    0 -0.35690615877E+02  0.10862623379E+03 -0.25291799280E+03  0.27756258720E+03  0.00000000000E+00 0. -1.
        -11    1    3    3    0    0 -0.33807817181E+02  0.60098662381E+03 -0.17048662264E+04  0.18080090543E+04  0.00000000000E+00 0.  1.
          2    1    6    6  502    0 -0.34362484705E+02  0.54932899219E+01  0.21536395988E+02  0.40923989803E+02  0.00000000000E+00 0. -1.
          1    1    5    5  503    0  0.89482163632E+02 -0.73749238535E+02  0.30597722616E+02  0.11992592890E+03  0.00000000000E+00 0. -1.
         -2    1    5    5    0  503  0.35471984800E+03 -0.51331795253E+03  0.23017831975E+03  0.66505905740E+03  0.00000000000E+00 0.  1.
         -1    1    6    6    0  502 -0.34034109387E+03 -0.12803895647E+03  0.43990679355E+02  0.36628024028E+03  0.00000000000E+00 0.  1.
<mgrwt>
<rscale>  0 0.28428833E+04</rscale>
<asrwt>0</asrwt>
<pdfrwt beam="1">  1        2 0.12663691E+00 0.28428833E+04</pdfrwt>
<pdfrwt beam="2">  1       -2 0.37763399E+00 0.28428833E+04</pdfrwt>
<totfact> 0.29804557E-01</totfact>
</mgrwt>
</event>
<event>
12    1  0.1556559E-007  0.1406070E+04  0.7818608E-02  0.8949437E-01
          1   -1    0    0  501    0  0.00000000000E+00  0.00000000000E+00  0.57700937983E+03  0.57700937983E+03  0.00000000000E+00 0. -1.
         -1   -1    0    0    0  501 -0.00000000000E+00 -0.00000000000E+00 -0.85658566692E+03  0.85658566692E+03  0.00000000000E+00 0.  1.
         23    2    1    2    0    0  0.12321615405E+03 -0.37310612061E+03 -0.20364809866E+03  0.45209316338E+03  0.92332456022E+02 0.  0.
        254    2    1    2    0    0 -0.12321615405E+03  0.37310612061E+03 -0.75928188430E+02  0.98150188337E+03  0.89620893736E+03 0.  0.
        -24    2    4    4    0    0  0.32561165619E+03  0.38340733647E+03 -0.11925553642E+03  0.52308688582E+03  0.79836525757E+02 0.  0.
         24    2    4    4    0    0 -0.44882781023E+03 -0.10301215864E+02  0.43327347986E+02  0.45841499755E+03  0.81942251664E+02 0.  0.
         13    1    3    3    0    0  0.40193915595E+02 -0.10433030577E+03 -0.13652326426E+02  0.11263547208E+03  0.00000000000E+00 0. -1.
        -13    1    3    3    0    0  0.83022238453E+02 -0.26877581484E+03 -0.18999577223E+03  0.33945769130E+03  0.00000000000E+00 0.  1.
          2    1    6    6  502    0 -0.24340541894E+03 -0.86219165964E+01  0.64342407747E+02  0.25191363768E+03  0.00000000000E+00 0. -1.
          3    1    5    5  503    0  0.96203101809E+02  0.12002348789E+03 -0.74613545239E+02  0.17096156169E+03  0.00000000000E+00 0. -1.
         -4    1    5    5    0  503  0.22940855438E+03  0.26338384858E+03 -0.44641991177E+02  0.35212532413E+03  0.00000000000E+00 0.  1.
         -1    1    6    6    0  502 -0.20542239129E+03 -0.16792992674E+01 -0.21015059761E+02  0.20650135987E+03  0.00000000000E+00 0.  1.
<mgrwt>
<rscale>  0 0.14060696E+04</rscale>
<asrwt>0</asrwt>
<pdfrwt beam="1">  1        1 0.88770674E-01 0.14060696E+04</pdfrwt>
<pdfrwt beam="2">  1       -1 0.13178241E+00 0.14060696E+04</pdfrwt>
<totfact> 0.17304212E+01</totfact>
</mgrwt>
</event>
<event>
12    1  0.1556559E-007  0.3984726E+04  0.7818608E-02  0.8007635E-01
         -1   -1    0    0    0  501 -0.00000000000E+00  0.00000000000E+00  0.22336156881E+04  0.22336156881E+04  0.00000000000E+00 0.  1.
          1   -1    0    0  501    0  0.00000000000E+00 -0.00000000000E+00 -0.17771677956E+04  0.17771677956E+04  0.00000000000E+00 0. -1.
         23    2    1    2    0    0 -0.27295303282E+03 -0.14348378222E+04  0.14229458989E+04  0.20411183203E+04  0.90144506669E+02 0.  0.
        254    2    1    2    0    0  0.27295303282E+03  0.14348378222E+04 -0.96649800639E+03  0.19696651634E+04  0.90122112998E+03 0.  0.
        -24    2    4    4    0    0 -0.62392482707E+02  0.13039989601E+04 -0.91873213077E+03  0.15982897661E+04  0.78455964944E+02 0.  0.
         24    2    4    4    0    0  0.33534551552E+03  0.13083886216E+03 -0.47765875620E+02  0.37137539728E+03  0.77863240372E+02 0.  0.
         13    1    3    3    0    0 -0.45498102811E+02 -0.42524705935E+03  0.44668945078E+03  0.61841458932E+03  0.00000000000E+00 0. -1.
        -13    1    3    3    0    0 -0.22745493000E+03 -0.10095907629E+04  0.97625644808E+03  0.14227037310E+04  0.00000000000E+00 0.  1.
          2    1    6    6  502    0  0.12544276197E+01  0.43089352660E+01 -0.11434885220E+02  0.12284018552E+02  0.00000000000E+00 0. -1.
          3    1    5    5  503    0 -0.18318615393E+02  0.45987746370E+03 -0.36996379003E+03  0.59050491888E+03  0.00000000000E+00 0. -1.
         -4    1    5    5    0  503 -0.44073867314E+02  0.84412149638E+03 -0.54876834074E+03  0.10077848472E+04  0.00000000000E+00 0.  1.
         -1    1    6    6    0  502  0.33409108790E+03  0.12652992690E+03 -0.36330990400E+02  0.35909137873E+03  0.00000000000E+00 0.  1.
<mgrwt>
<rscale>  0 0.39847258E+04</rscale>
<asrwt>0</asrwt>
<pdfrwt beam="1">  1        1 0.27341043E+00 0.39847258E+04</pdfrwt>
<pdfrwt beam="2">  1       -1 0.34363319E+00 0.39847258E+04</pdfrwt>
<totfact> 0.56632767E-02</totfact>
</mgrwt>
</event>
<event>
12    1  0.1556559E-007  0.1974478E+04  0.7818608E-02  0.8618647E-01
          2   -1    0    0  501    0  0.00000000000E+00  0.00000000000E+00  0.17113250958E+04  0.17113250958E+04  0.00000000000E+00 0. -1.
         -2   -1    0    0    0  501 -0.00000000000E+00 -0.00000000000E+00 -0.56952411236E+03  0.56952411236E+03  0.00000000000E+00 0.  1.
         23    2    1    2    0    0 -0.37694042730E+03 -0.53073027405E+03  0.95191475939E+03  0.11565610120E+04  0.87937226126E+02 0.  0.
        254    2    1    2    0    0  0.37694042730E+03  0.53073027405E+03  0.18988622407E+03  0.11242881962E+04  0.89677670603E+03 0.  0.
        -24    2    4    4    0    0 -0.12609047282E+03  0.10725256078E+02 -0.23733848747E+03  0.28025082236E+03  0.78721835247E+02 0.  0.
         24    2    4    4    0    0  0.50303090012E+03  0.52000501798E+03  0.42722471154E+03  0.84403737383E+03  0.80204919305E+02 0.  0.
         11    1    3    3    0    0 -0.19302566914E+02 -0.25119976049E+02  0.19464154664E+02  0.37181387857E+02  0.00000000000E+00 0.  1.
        -11    1    3    3    0    0 -0.35763786038E+03 -0.50561029800E+03  0.93245060472E+03  0.11193796241E+04  0.00000000000E+00 0. -1.
          4    1    6    6  502    0  0.28426529091E+03  0.23663463960E+03  0.22287934007E+03  0.43183087952E+03  0.00000000000E+00 0. -1.
          3    1    5    5  503    0 -0.70886509580E+01  0.12137214542E+02  0.74935829212E+00  0.14075598995E+02  0.00000000000E+00 0. -1.
         -4    1    5    5    0  503 -0.11900182187E+03 -0.14119584631E+01 -0.23808784576E+03  0.26617522337E+03  0.00000000000E+00 0.  1.
         -3    1    6    6    0  502  0.21876560921E+03  0.28337037838E+03  0.20434537147E+03  0.41220649431E+03  0.00000000000E+00 0.  1.
<mgrwt>
<rscale>  0 0.19744781E+04</rscale>
<asrwt>0</asrwt>
<pdfrwt beam="1">  1        2 0.26328078E+00 0.19744781E+04</pdfrwt>
<pdfrwt beam="2">  1       -2 0.87619095E-01 0.19744781E+04</pdfrwt>
<totfact> 0.10114946E+01</totfact>
</mgrwt>
</event>
<event>
12    1  0.1556559E-007  0.3128477E+04  0.7818608E-02  0.8207966E-01
         -2   -1    0    0    0  501 -0.00000000000E+00  0.00000000000E+00  0.68304105894E+03  0.68304105894E+03  0.00000000000E+00 0.  1.
          2   -1    0    0  501    0  0.00000000000E+00 -0.00000000000E+00 -0.35822770622E+04  0.35822770622E+04  0.00000000000E+00 0. -1.
         23    2    1    2    0    0  0.25715848298E+03 -0.13400858475E+04 -0.74419053367E+03  0.15569966611E+04  0.91970041063E+02 0.  0.
        254    2    1    2    0    0 -0.25715848298E+03  0.13400858475E+04 -0.21550454696E+04  0.27083214600E+04  0.91039749055E+03 0.  0.
        -24    2    4    4    0    0 -0.56905941592E+02  0.58028142297E+03 -0.23727750168E+03  0.63429850271E+03  0.77904824618E+02 0.  0.
         24    2    4    4    0    0 -0.20025254138E+03  0.75980442448E+03 -0.19177679679E+04  0.20740229573E+04  0.79582691922E+02 0.  0.
         11    1    3    3    0    0  0.16056138334E+02 -0.18937471056E+03 -0.13258729748E+03  0.23173254418E+03  0.00000000000E+00 0. -1.
        -11    1    3    3    0    0  0.24110234464E+03 -0.11507111369E+04 -0.61160323619E+03  0.13252641169E+04  0.00000000000E+00 0.  1.
          4    1    6    6  502    0 -0.19732006599E+03  0.63720677669E+03 -0.16304264519E+04  0.17616066814E+04  0.00000000000E+00 0. -1.
          3    1    5    5  503    0 -0.55913488928E+02  0.55699171659E+03 -0.20872331933E+03  0.59743745667E+03  0.00000000000E+00 0. -1.
         -4    1    5    5    0  503 -0.99245266369E+00  0.23289706381E+02 -0.28554182350E+02  0.36861046042E+02  0.00000000000E+00 0.  1.
         -1    1    6    6    0  502 -0.29324753951E+01  0.12259764779E+03 -0.28734151596E+03  0.31241627591E+03  0.00000000000E+00 0.  1.
<mgrwt>
<rscale>  0 0.31284771E+04</rscale>
<asrwt>0</asrwt>
<pdfrwt beam="1">  1        2 0.55111955E+00 0.31284771E+04</pdfrwt>
<pdfrwt beam="2">  1       -2 0.10508324E+00 0.31284771E+04</pdfrwt>
<totfact> 0.44127842E-01</totfact>
</mgrwt>
</event>
<event>
12    1  0.1556559E-007  0.2533448E+04  0.7818608E-02  0.8391166E-01
         -1   -1    0    0    0  501 -0.00000000000E+00  0.00000000000E+00  0.73438933759E+03  0.73438933759E+03  0.00000000000E+00 0.  1.
          1   -1    0    0  501    0  0.00000000000E+00 -0.00000000000E+00 -0.21849296955E+04  0.21849296955E+04  0.00000000000E+00 0. -1.
         23    2    1    2    0    0  0.39346979885E+03 -0.12898182469E+02 -0.18187563995E+04  0.18631439216E+04  0.91899871121E+02 0.  0.
        254    2    1    2    0    0 -0.39346979885E+03  0.12898182469E+02  0.36821604164E+03  0.10561751114E+04  0.90826095750E+03 0.  0.
        -24    2    4    4    0    0 -0.24165176946E+03  0.43273797561E+03  0.33232963652E+03  0.60208239509E+03  0.80015560618E+02 0.  0.
         24    2    4    4    0    0 -0.15181802938E+03 -0.41983979314E+03  0.35886405117E+02  0.45409271632E+03  0.74821086539E+02 0.  0.
         11    1    3    3    0    0  0.37821990155E+03 -0.19909690692E+02 -0.17917834207E+04  0.18313750343E+04  0.00000000000E+00 0. -1.
        -11    1    3    3    0    0  0.15249897300E+02  0.70115082231E+01 -0.26972978826E+02  0.31768887327E+02  0.00000000000E+00 0.  1.
          2    1    6    6  502    0 -0.51683373915E+02 -0.68392238038E+02  0.21479361828E+02  0.88374387396E+02  0.00000000000E+00 0. -1.
          1    1    5    5  503    0 -0.42813160751E+02  0.11959424429E+03  0.11961465543E+03  0.17448041665E+03  0.00000000000E+00 0. -1.
         -2    1    5    5    0  503 -0.19883860871E+03  0.31314373132E+03  0.21271498108E+03  0.42760197843E+03  0.00000000000E+00 0.  1.
         -1    1    6    6    0  502 -0.10013465547E+03 -0.35144755511E+03  0.14407043289E+02  0.36571832893E+03  0.00000000000E+00 0.  1.
<mgrwt>
<rscale>  0 0.25334475E+04</rscale>
<asrwt>0</asrwt>
<pdfrwt beam="1">  1        1 0.33614302E+00 0.25334475E+04</pdfrwt>
<pdfrwt beam="2">  1       -1 0.11298298E+00 0.25334475E+04</pdfrwt>
<totfact> 0.14147250E+00</totfact>
</mgrwt>
</event>
<event>
12    1  0.1556559E-007  0.1310233E+04  0.7818608E-02  0.9021490E-01
         -1   -1    0    0    0  501 -0.00000000000E+00  0.00000000000E+00  0.80581735259E+03  0.80581735259E+03  0.00000000000E+00 0.  1.
          1   -1    0    0  501    0  0.00000000000E+00 -0.00000000000E+00 -0.53259907476E+03  0.53259907476E+03  0.00000000000E+00 0. -1.
         23    2    1    2    0    0 -0.21739289407E+03  0.24532462694E+03  0.15059179719E+03  0.37267664007E+03  0.93627697293E+02 0.  0.
        254    2    1    2    0    0  0.21739289407E+03 -0.24532462694E+03  0.12262648065E+03  0.96573978728E+03  0.90009568381E+03 0.  0.
        -24    2    4    4    0    0  0.66656547804E+02 -0.56341137536E+03  0.17856129692E+03  0.60033537587E+03  0.81504315885E+02 0.  0.
         24    2    4    4    0    0  0.15073634627E+03  0.31808674843E+03 -0.55934816271E+02  0.36540441141E+03  0.80567081336E+02 0.  0.
         11    1    3    3    0    0 -0.22509225295E+03  0.22231871729E+03  0.13599941820E+03  0.34436604964E+03  0.00000000000E+00 0.  1.
        -11    1    3    3    0    0  0.76993588807E+01  0.23005909646E+02  0.14592378988E+02  0.28310590428E+02  0.00000000000E+00 0. -1.
          2    1    6    6  502    0 -0.87963337868E+01  0.24314439691E+02 -0.11016017761E+02  0.28105517481E+02  0.00000000000E+00 0. -1.
          1    1    5    5  503    0  0.70788697121E+02 -0.26756758182E+03  0.99076309444E+02  0.29397204897E+03  0.00000000000E+00 0. -1.
         -2    1    5    5    0  503 -0.41321493168E+01 -0.29584379354E+03  0.79484987474E+02  0.30636332690E+03  0.00000000000E+00 0.  1.
         -1    1    6    6    0  502  0.15953268005E+03  0.29377230874E+03 -0.44918798511E+02  0.33729889393E+03  0.00000000000E+00 0.  1.
<mgrwt>
<rscale>  0 0.13102329E+04</rscale>
<asrwt>0</asrwt>
<pdfrwt beam="1">  1        1 0.81938319E-01 0.13102329E+04</pdfrwt>
<pdfrwt beam="2">  1       -1 0.12397190E+00 0.13102329E+04</pdfrwt>
<totfact> 0.22771669E+01</totfact>
</mgrwt>
</event>
<event>
12    1  0.1556559E-007  0.1820206E+04  0.7818608E-02  0.8695627E-01
         -1   -1    0    0    0  501 -0.00000000000E+00  0.00000000000E+00  0.60834505310E+03  0.60834505310E+03  0.00000000000E+00 0.  1.
          1   -1    0    0  501    0  0.00000000000E+00 -0.00000000000E+00 -0.13615422183E+04  0.13615422183E+04  0.00000000000E+00 0. -1.
         23    2    1    2    0    0 -0.40643448664E+03 -0.22576072419E+03 -0.83035977059E+03  0.95625881773E+03  0.93683943899E+02 0.  0.
        254    2    1    2    0    0  0.40643448664E+03  0.22576072419E+03  0.77162605438E+02  0.10136284536E+04  0.89740274003E+03 0.  0.
        -24    2    4    4    0    0  0.67474926681E+03  0.25607580335E+03  0.23039774940E+02  0.72646602376E+03  0.79753760585E+02 0.  0.
         24    2    4    4    0    0 -0.26831478016E+03 -0.30315079157E+02  0.54122830498E+02  0.28716242987E+03  0.81370480339E+02 0.  0.
         13    1    3    3    0    0 -0.24256251784E+03 -0.13005639677E+03 -0.39599482775E+03  0.48224801193E+03  0.00000000000E+00 0. -1.
        -13    1    3    3    0    0 -0.16387196880E+03 -0.95704327416E+02 -0.43436494284E+03  0.47401080580E+03  0.00000000000E+00 0.  1.
          2    1    6    6  502    0 -0.15233135089E+02 -0.13335291677E+02 -0.13889435854E+02  0.24551880521E+02  0.00000000000E+00 0. -1.
          1    1    5    5  503    0  0.99011160551E+02  0.15446002979E+02  0.21374432366E+02  0.10246294589E+03  0.00000000000E+00 0. -1.
         -2    1    5    5    0  503  0.57573810626E+03  0.24062980037E+03  0.16653425740E+01  0.62400307787E+03  0.00000000000E+00 0.  1.
         -1    1    6    6    0  502 -0.25308164507E+03 -0.16979787480E+02  0.68012266352E+02  0.26261054935E+03  0.00000000000E+00 0.  1.
<mgrwt>
<rscale>  0 0.18202060E+04</rscale>
<asrwt>0</asrwt>
<pdfrwt beam="1">  1        1 0.20946803E+00 0.18202060E+04</pdfrwt>
<pdfrwt beam="2">  1       -1 0.93591548E-01 0.18202060E+04</pdfrwt>
<totfact> 0.85299901E+00</totfact>
</mgrwt>
</event>
<event>
12    1  0.1556559E-007  0.1570878E+04  0.7818608E-02  0.8838641E-01
          2   -1    0    0  501    0  0.00000000000E+00  0.00000000000E+00  0.27594267806E+04  0.27594267806E+04  0.00000000000E+00 0. -1.
         -2   -1    0    0    0  501 -0.00000000000E+00 -0.00000000000E+00 -0.22356609825E+03  0.22356609825E+03  0.00000000000E+00 0.  1.
         23    2    1    2    0    0 -0.32454566099E+02 -0.51574314386E+03  0.10017442966E+04  0.11308893217E+04  0.91513566964E+02 0.  0.
        254    2    1    2    0    0  0.32454566099E+02  0.51574314386E+03  0.15341163858E+04  0.18521035571E+04  0.89985010528E+03 0.  0.
        -24    2    4    4    0    0  0.65215427712E+02  0.76386755142E+03  0.12162609198E+04  0.14399581174E+04  0.80262486115E+02 0.  0.
         24    2    4    4    0    0 -0.32760861612E+02 -0.24812440756E+03  0.31785546591E+03  0.41214543970E+03  0.78694158464E+02 0.  0.
         11    1    3    3    0    0 -0.16137506043E+01 -0.41758662107E+03  0.74076381743E+03  0.85036005521E+03  0.00000000000E+00 0. -1.
        -11    1    3    3    0    0 -0.30840815495E+02 -0.98156522791E+02  0.26098047916E+03  0.28052926651E+03  0.00000000000E+00 0.  1.
          2    1    6    6  502    0 -0.18868095004E+02 -0.19403766283E+02  0.11094475501E+02  0.29250616091E+02  0.00000000000E+00 0. -1.
          3    1    5    5  503    0  0.99610592527E+01  0.55088357502E+02  0.55792574439E+02  0.79036454857E+02  0.00000000000E+00 0. -1.
         -4    1    5    5    0  503  0.55254368459E+02  0.70877919392E+03  0.11604683454E+04  0.13609216626E+04  0.00000000000E+00 0.  1.
         -1    1    6    6    0  502 -0.13892766608E+02 -0.22872064127E+03  0.30676099041E+03  0.38289482361E+03  0.00000000000E+00 0.  1.
<mgrwt>
<rscale>  0 0.15708778E+04</rscale>
<asrwt>0</asrwt>
<pdfrwt beam="1">  1        2 0.42452717E+00 0.15708778E+04</pdfrwt>
<pdfrwt beam="2">  1       -2 0.34394786E-01 0.15708778E+04</pdfrwt>
<totfact> 0.18701450E+01</totfact>
</mgrwt>
</event>
<event>
12    1  0.1556559E-007  0.3526278E+04  0.7818608E-02  0.8107591E-01
         -1   -1    0    0    0  501 -0.00000000000E+00  0.00000000000E+00  0.11397446033E+04  0.11397446033E+04  0.00000000000E+00 0.  1.
          1   -1    0    0  501    0  0.00000000000E+00 -0.00000000000E+00 -0.27275045788E+04  0.27275045788E+04  0.00000000000E+00 0. -1.
         23    2    1    2    0    0  0.12931460735E+04 -0.85420826348E+03 -0.13589431483E+04  0.20633990849E+04  0.94819713484E+02 0.  0.
        254    2    1    2    0    0 -0.12931460735E+04  0.85420826348E+03 -0.22881682720E+03  0.18038500972E+04  0.89421446420E+03 0.  0.
        -24    2    4    4    0    0 -0.10521129011E+04  0.68163149429E+03  0.20482481385E+03  0.12727009710E+04  0.79066469818E+02 0.  0.
         24    2    4    4    0    0 -0.24103317246E+03  0.17257676919E+03 -0.43364164105E+03  0.53114912621E+03  0.78705717301E+02 0.  0.
         11    1    3    3    0    0  0.64358709816E+03 -0.40498526286E+03 -0.72554299343E+03  0.10510138207E+04  0.00000000000E+00 0.  1.
        -11    1    3    3    0    0  0.64955897537E+03 -0.44922300062E+03 -0.63340015491E+03  0.10123852641E+04  0.00000000000E+00 0. -1.
          2    1    6    6  502    0 -0.17251252418E+03  0.14976465757E+03 -0.27993430589E+03  0.36132151786E+03  0.00000000000E+00 0. -1.
          3    1    5    5  503    0 -0.88710841753E+03  0.57248065346E+03  0.20141778754E+03  0.10748323442E+04  0.00000000000E+00 0. -1.
         -4    1    5    5    0  503 -0.16500448354E+03  0.10915084083E+03  0.34070263027E+01  0.19786862680E+03  0.00000000000E+00 0.  1.
         -1    1    6    6    0  502 -0.68520648283E+02  0.22812111622E+02 -0.15370733515E+03  0.16982760835E+03  0.00000000000E+00 0.  1.
<mgrwt>
<rscale>  0 0.35262777E+04</rscale>
<asrwt>0</asrwt>
<pdfrwt beam="1">  1        1 0.41961608E+00 0.35262777E+04</pdfrwt>
<pdfrwt beam="2">  1       -1 0.17534533E+00 0.35262777E+04</pdfrwt>
<totfact> 0.17172107E-01</totfact>
</mgrwt>
</event>
<event>
12    1  0.1556559E-007  0.1986057E+04  0.7818608E-02  0.8613167E-01
          2   -1    0    0  501    0  0.00000000000E+00  0.00000000000E+00  0.39070329090E+04  0.39070329090E+04  0.00000000000E+00 0. -1.
         -2   -1    0    0    0  501 -0.00000000000E+00 -0.00000000000E+00 -0.25239241925E+03  0.25239241925E+03  0.00000000000E+00 0.  1.
         23    2    1    2    0    0  0.61157383886E+03 -0.28863487509E+02  0.24462258365E+04  0.25233333452E+04  0.91294394401E+02 0.  0.
        254    2    1    2    0    0 -0.61157383886E+03  0.28863487509E+02  0.12084146532E+04  0.16360919830E+04  0.91742865748E+03 0.  0.
        -24    2    4    4    0    0 -0.33773267344E+03 -0.31202091879E+02 -0.42877684685E+02  0.35124073177E+03  0.80589245930E+02 0.  0.
         24    2    4    4    0    0 -0.27384116541E+03  0.60065579388E+02  0.12512923379E+04  0.12848512513E+04  0.80705422943E+02 0.  0.
         11    1    3    3    0    0  0.55960146960E+03 -0.11510281062E+02  0.23014678394E+04  0.23685524075E+04  0.00000000000E+00 0. -1.
        -11    1    3    3    0    0  0.51972369258E+02 -0.17353206448E+02  0.14475799711E+03  0.15478093767E+03  0.00000000000E+00 0.  1.
          2    1    6    6  502    0 -0.91657698748E+02 -0.17015726555E+02  0.36053218544E+03  0.37238974936E+03  0.00000000000E+00 0. -1.
          3    1    5    5  503    0 -0.23286120575E+03  0.16236629533E+02 -0.32366574549E+02  0.23565984899E+03  0.00000000000E+00 0. -1.
         -4    1    5    5    0  503 -0.10487146770E+03 -0.47438721412E+02 -0.10511110136E+02  0.11558088277E+03  0.00000000000E+00 0.  1.
         -1    1    6    6    0  502 -0.18218346667E+03  0.77081305944E+02  0.89076015247E+03  0.91246150191E+03  0.00000000000E+00 0.  1.
<mgrwt>
<rscale>  0 0.19860569E+04</rscale>
<asrwt>0</asrwt>
<pdfrwt beam="1">  1        2 0.60108194E+00 0.19860569E+04</pdfrwt>
<pdfrwt beam="2">  1       -2 0.38829606E-01 0.19860569E+04</pdfrwt>
<totfact> 0.23893462E+00</totfact>
</mgrwt>
</event>
<event>
12    1  0.1556559E-007  0.2186792E+04  0.7818608E-02  0.8523946E-01
          2   -1    0    0  501    0  0.00000000000E+00  0.00000000000E+00  0.98114477146E+03  0.98114477146E+03  0.00000000000E+00 0. -1.
         -2   -1    0    0    0  501 -0.00000000000E+00 -0.00000000000E+00 -0.12184894955E+04  0.12184894955E+04  0.00000000000E+00 0.  1.
         23    2    1    2    0    0  0.11524274962E+03  0.13108184329E+03  0.79296140659E+03  0.81713700479E+03  0.91987777878E+02 0.  0.
        254    2    1    2    0    0 -0.11524274962E+03 -0.13108184329E+03 -0.10303061306E+04  0.13824972622E+04  0.90515447086E+03 0.  0.
        -24    2    4    4    0    0  0.57594004403E+01 -0.23508687950E+03  0.77640247970E+02  0.26027155527E+03  0.80089092695E+02 0.  0.
         24    2    4    4    0    0 -0.12100215006E+03  0.10400503621E+03 -0.11079463786E+04  0.11222257069E+04  0.79917404256E+02 0.  0.
         11    1    3    3    0    0  0.70212340745E+02  0.54174983724E+02  0.21862145950E+03  0.23592381018E+03  0.00000000000E+00 0.  1.
        -11    1    3    3    0    0  0.45030408875E+02  0.76906859570E+02  0.57433994709E+03  0.58121319461E+03  0.00000000000E+00 0. -1.
          4    1    6    6  502    0  0.92765488793E+01  0.13347457347E+02 -0.53935243378E+02  0.56331336350E+02  0.00000000000E+00 0. -1.
          1    1    5    5  503    0 -0.29818358703E+02 -0.94839914365E+02  0.81223474395E+01  0.99748265150E+02  0.00000000000E+00 0. -1.
         -2    1    5    5    0  503  0.35577759143E+02 -0.14024696514E+03  0.69517900531E+02  0.16052329012E+03  0.00000000000E+00 0.  1.
         -3    1    6    6    0  502 -0.13027869894E+03  0.90657578862E+02 -0.10540111352E+04  0.10658943706E+04  0.00000000000E+00 0.  1.
<mgrwt>
<rscale>  0 0.21867918E+04</rscale>
<asrwt>0</asrwt>
<pdfrwt beam="1">  1        2 0.15094535E+00 0.21867918E+04</pdfrwt>
<pdfrwt beam="2">  1       -2 0.18745992E+00 0.21867918E+04</pdfrwt>
<totfact> 0.38209725E+00</totfact>
</mgrwt>
</event>
<event>
12    1  0.1556559E-007  0.2337744E+04  0.7818608E-02  0.8463186E-01
         -2   -1    0    0    0  501 -0.00000000000E+00  0.00000000000E+00  0.17642407206E+04  0.17642407206E+04  0.00000000000E+00 0.  1.
          2   -1    0    0  501    0  0.00000000000E+00 -0.00000000000E+00 -0.77441883565E+03  0.77441883565E+03  0.00000000000E+00 0. -1.
         23    2    1    2    0    0  0.83068250394E+03 -0.32186163134E+03  0.85485791293E+03  0.12380962125E+04  0.92042643038E+02 0.  0.
        254    2    1    2    0    0 -0.83068250394E+03  0.32186163134E+03  0.13496397206E+03  0.13005633437E+04  0.93788133857E+03 0.  0.
        -24    2    4    4    0    0 -0.83959373091E+03  0.45843550172E+03 -0.15306030335E+03  0.97204230599E+03  0.79737356023E+02 0.  0.
         24    2    4    4    0    0  0.89112269727E+01 -0.13657387038E+03  0.28802427541E+03  0.32852103775E+03  0.78969975189E+02 0.  0.
         13    1    3    3    0    0  0.67041552430E+03 -0.27109829177E+03  0.73877179159E+03  0.10337964108E+04  0.00000000000E+00 0.  1.
        -13    1    3    3    0    0  0.16026697964E+03 -0.50763339569E+02  0.11608612134E+03  0.20429980170E+03  0.00000000000E+00 0. -1.
          4    1    6    6  502    0 -0.29588004224E+02 -0.97198164031E+02  0.20647462574E+03  0.23011889135E+03  0.00000000000E+00 0. -1.
          3    1    5    5  503    0 -0.10104295252E+03  0.64420300194E+02 -0.45055191310E+02  0.12802196528E+03  0.00000000000E+00 0. -1.
         -4    1    5    5    0  503 -0.73855077839E+03  0.39401520153E+03 -0.10800511204E+03  0.84402034071E+03  0.00000000000E+00 0.  1.
         -3    1    6    6    0  502  0.38499231197E+02 -0.39375706352E+02  0.81549649673E+02  0.98402146395E+02  0.00000000000E+00 0.  1.
<mgrwt>
<rscale>  0 0.23377436E+04</rscale>
<asrwt>0</asrwt>
<pdfrwt beam="1">  1        2 0.11914136E+00 0.23377436E+04</pdfrwt>
<pdfrwt beam="2">  1       -2 0.27142165E+00 0.23377436E+04</pdfrwt>
<totfact> 0.15441347E+00</totfact>
</mgrwt>
</event>
<event>
12    1  0.1556559E-007  0.1606219E+04  0.7818608E-02  0.8816737E-01
          1   -1    0    0  501    0  0.00000000000E+00  0.00000000000E+00  0.21656151151E+04  0.21656151151E+04  0.00000000000E+00 0. -1.
         -1   -1    0    0    0  501 -0.00000000000E+00 -0.00000000000E+00 -0.29782975806E+03  0.29782975806E+03  0.00000000000E+00 0.  1.
         23    2    1    2    0    0 -0.34985696663E+03  0.90520669547E+01  0.12871953583E+04  0.13370499423E+04  0.91371881684E+02 0.  0.
        254    2    1    2    0    0  0.34985696663E+03 -0.90520669547E+01  0.58058999870E+03  0.11263949308E+04  0.89955486580E+03 0.  0.
        -24    2    4    4    0    0 -0.93907466145E+01 -0.29639488452E+03 -0.79899488540E+02  0.31727582030E+03  0.79636073402E+02 0.  0.
         24    2    4    4    0    0  0.35924771325E+03  0.28734281757E+03  0.66048948724E+03  0.80911911053E+03  0.82477621076E+02 0.  0.
         13    1    3    3    0    0 -0.33074345134E+03  0.48158486635E+01  0.12646389773E+04  0.13071825297E+04  0.00000000000E+00 0. -1.
        -13    1    3    3    0    0 -0.19113515290E+02  0.42362182912E+01  0.22556380960E+02  0.29867412579E+02  0.00000000000E+00 0.  1.
          4    1    6    6  502    0  0.33604071225E+03  0.27245545139E+03  0.64729254492E+03  0.77855184284E+03  0.00000000000E+00 0. -1.
          3    1    5    5  503    0 -0.42079298992E+02 -0.19704272086E+03 -0.64492198336E+02  0.21155553620E+03  0.00000000000E+00 0. -1.
         -4    1    5    5    0  503  0.32688552377E+02 -0.99352163659E+02 -0.15407290204E+02  0.10572028411E+03  0.00000000000E+00 0.  1.
         -3    1    6    6    0  502  0.23207001001E+02  0.14887366176E+02  0.13196942323E+02  0.30567267686E+02  0.00000000000E+00 0.  1.
<mgrwt>
<rscale>  0 0.16062187E+04</rscale>
<asrwt>0</asrwt>
<pdfrwt beam="1">  1        1 0.33317155E+00 0.16062187E+04</pdfrwt>
<pdfrwt beam="2">  1       -1 0.45819964E-01 0.16062187E+04</pdfrwt>
<totfact> 0.10449049E+01</totfact>
</mgrwt>
</event>
<event>
12    1  0.1556559E-007  0.1428557E+04  0.7818608E-02  0.8933403E-01
          1   -1    0    0  501    0  0.00000000000E+00  0.00000000000E+00  0.15168580006E+04  0.15168580006E+04  0.00000000000E+00 0. -1.
         -1   -1    0    0    0  501 -0.00000000000E+00 -0.00000000000E+00 -0.33634898075E+03  0.33634898075E+03  0.00000000000E+00 0.  1.
         23    2    1    2    0    0  0.87318038418E+02  0.68759906964E+02  0.88767622754E+03  0.89909289267E+03  0.89702731628E+02 0.  0.
        254    2    1    2    0    0 -0.87318038418E+02 -0.68759906964E+02  0.29283279228E+03  0.95411408866E+03  0.90123819566E+03 0.  0.
        -24    2    4    4    0    0  0.14030999697E+03  0.34903720270E+03 -0.88881723877E+01  0.38491780148E+03  0.81048443354E+02 0.  0.
         24    2    4    4    0    0 -0.22762803539E+03 -0.41779710966E+03  0.30172096467E+03  0.56919628718E+03  0.81116739847E+02 0.  0.
         11    1    3    3    0    0  0.37487988350E+02  0.66422542607E+02  0.72339570366E+03  0.72740542169E+03  0.00000000000E+00 0. -1.
        -11    1    3    3    0    0  0.49830050068E+02  0.23373643574E+01  0.16428052388E+03  0.17168747097E+03  0.00000000000E+00 0.  1.
          4    1    6    6  502    0 -0.46192770240E+02 -0.11376100585E+03  0.11807865719E+03  0.17034643454E+03  0.00000000000E+00 0. -1.
          3    1    5    5  503    0  0.62689575033E+02  0.64849723508E+02 -0.37964536676E+01  0.90276699747E+02  0.00000000000E+00 0. -1.
         -4    1    5    5    0  503  0.77620421938E+02  0.28418747919E+03 -0.50917187201E+01  0.29464110173E+03  0.00000000000E+00 0.  1.
         -3    1    6    6    0  502 -0.18143526515E+03 -0.30403610381E+03  0.18364230748E+03  0.39884985264E+03  0.00000000000E+00 0.  1.
<mgrwt>
<rscale>  0 0.14285568E+04</rscale>
<asrwt>0</asrwt>
<pdfrwt beam="1">  1        1 0.23336276E+00 0.14285568E+04</pdfrwt>
<pdfrwt beam="2">  1       -1 0.51745998E-01 0.14285568E+04</pdfrwt>
<totfact> 0.23285061E+01</totfact>
</mgrwt>
</event>
<event>
12    1  0.1556559E-007  0.2004863E+04  0.7818608E-02  0.8604350E-01
          2   -1    0    0  501    0  0.00000000000E+00  0.00000000000E+00  0.14826794894E+04  0.14826794894E+04  0.00000000000E+00 0.  1.
         -2   -1    0    0    0  501 -0.00000000000E+00 -0.00000000000E+00 -0.67773865551E+03  0.67773865551E+03  0.00000000000E+00 0. -1.
         23    2    1    2    0    0 -0.71579666113E+03 -0.34096245742E+02  0.68820754649E+03  0.99836058592E+03  0.97810114121E+02 0.  0.
        254    2    1    2    0    0  0.71579666113E+03  0.34096245742E+02  0.11673328743E+03  0.11620575590E+04  0.90731675616E+03 0.  0.
        -24    2    4    4    0    0  0.35138437920E+03  0.45583914944E+03  0.14163636328E+03  0.59822343021E+03  0.80932693850E+02 0.  0.
         24    2    4    4    0    0  0.36441228193E+03 -0.42174290370E+03 -0.24903075844E+02  0.56383412881E+03  0.81396397858E+02 0.  0.
         13    1    3    3    0    0 -0.26491291713E+03 -0.44057970457E+02  0.30659208342E+03  0.40757657445E+03  0.00000000000E+00 0.  1.
        -13    1    3    3    0    0 -0.45088374400E+03  0.99617247158E+01  0.38161546307E+03  0.59078401147E+03  0.00000000000E+00 0. -1.
          2    1    6    6  502    0  0.16251402857E+02 -0.44566044253E+02  0.12849543079E+02  0.49146222159E+02  0.00000000000E+00 0. -1.
          3    1    5    5  503    0  0.15693907152E+02  0.60879275143E+02  0.15185487318E+02  0.64677537744E+02  0.00000000000E+00 0. -1.
         -4    1    5    5    0  503  0.33569047205E+03  0.39495987430E+03  0.12645087596E+03  0.53354589246E+03  0.00000000000E+00 0.  1.
         -1    1    6    6    0  502  0.34816087907E+03 -0.37717685945E+03 -0.37752618923E+02  0.51468790665E+03  0.00000000000E+00 0.  1.
<mgrwt>
<rscale>  0 0.20048633E+04</rscale>
<asrwt>0</asrwt>
<pdfrwt beam="1">  1        2 0.22810454E+00 0.20048633E+04</pdfrwt>
<pdfrwt beam="2">  1       -2 0.10426749E+00 0.20048633E+04</pdfrwt>
<totfact> 0.90148629E+00</totfact>
</mgrwt>
</event>
<event>
12    1  0.1556559E-007  0.2278151E+04  0.7818608E-02  0.8486586E-01
          2   -1    0    0  501    0  0.00000000000E+00  0.00000000000E+00  0.20676646847E+04  0.20676646847E+04  0.00000000000E+00 0. -1.
         -2   -1    0    0    0  501 -0.00000000000E+00 -0.00000000000E+00 -0.62751630274E+03  0.62751630274E+03  0.00000000000E+00 0.  1.
         23    2    1    2    0    0 -0.51148680527E+03 -0.46734492318E+03 -0.17371400663E+03  0.72017642109E+03  0.91910240006E+02 0.  0.
        254    2    1    2    0    0  0.51148680527E+03  0.46734492318E+03  0.16138623886E+04  0.19750045664E+04  0.90336105664E+03 0.  0.
        -24    2    4    4    0    0  0.11726838257E+03 -0.19067774998E+03  0.67069731002E+02  0.24654032527E+03  0.78574202357E+02 0.  0.
         24    2    4    4    0    0  0.39421842270E+03  0.65802267316E+03  0.15467926576E+04  0.17284642411E+04  0.81357875902E+02 0.  0.
         13    1    3    3    0    0 -0.32987281624E+03 -0.29484518496E+03 -0.15576541283E+03  0.46905503070E+03  0.00000000000E+00 0. -1.
        -13    1    3    3    0    0 -0.18161398902E+03 -0.17249973821E+03 -0.17948593799E+02  0.25112139039E+03  0.00000000000E+00 0.  1.
          4    1    6    6  502    0  0.27883965449E+03  0.50439592557E+03  0.12221741601E+04  0.13512499695E+04  0.00000000000E+00 0. -1.
          1    1    5    5  503    0  0.10926976381E+03 -0.18580949460E+03  0.80559476024E+02  0.23011927069E+03  0.00000000000E+00 0. -1.
         -2    1    5    5    0  503  0.79986187590E+01 -0.48682553829E+01 -0.13489745022E+02  0.16421054573E+02  0.00000000000E+00 0.  1.
         -3    1    6    6    0  502  0.11537876820E+03  0.15362674759E+03  0.32461849754E+03  0.37721427156E+03  0.00000000000E+00 0.  1.
<mgrwt>
<rscale>  0 0.22781513E+04</rscale>
<asrwt>0</asrwt>
<pdfrwt beam="1">  1        2 0.31810225E+00 0.22781513E+04</pdfrwt>
<pdfrwt beam="2">  1       -2 0.96540971E-01 0.22781513E+04</pdfrwt>
<totfact> 0.49926908E+00</totfact>
</mgrwt>
</event>
<event>
12    1  0.1556559E-007  0.1346972E+04  0.7818608E-02  0.8993124E-01
          1   -1    0    0  501    0  0.00000000000E+00  0.00000000000E+00  0.77586479105E+03  0.77586479105E+03  0.00000000000E+00 0. -1.
         -1   -1    0    0    0  501 -0.00000000000E+00 -0.00000000000E+00 -0.58461634653E+03  0.58461634653E+03  0.00000000000E+00 0.  1.
         23    2    1    2    0    0  0.12187813658E+02  0.29242266762E+03 -0.17051909014E+03  0.35030031590E+03  0.89297210927E+02 0.  0.
        254    2    1    2    0    0 -0.12187813658E+02 -0.29242266762E+03  0.36176753466E+03  0.10101808217E+04  0.89662142737E+03 0.  0.
        -24    2    4    4    0    0 -0.28161783402E+03 -0.36131168919E+03  0.50614967897E+03  0.68729284252E+03  0.79556348980E+02 0.  0.
         24    2    4    4    0    0  0.26943002036E+03  0.68889021575E+02 -0.14438214432E+03  0.32288797916E+03  0.77924388494E+02 0.  0.
         13    1    3    3    0    0  0.34173368795E+02  0.39983066114E+02 -0.28668529838E+02  0.59902832268E+02  0.00000000000E+00 0. -1.
        -13    1    3    3    0    0 -0.21985555137E+02  0.25243960150E+03 -0.14185056030E+03  0.29039748363E+03  0.00000000000E+00 0.  1.
          4    1    6    6  502    0  0.22215764177E+03  0.80591580053E+02 -0.13828159871E+03  0.27380800045E+03  0.00000000000E+00 0. -1.
          1    1    5    5  503    0 -0.21582415482E+03 -0.22093849785E+03  0.35859699298E+03  0.47327126367E+03  0.00000000000E+00 0. -1.
         -2    1    5    5    0  503 -0.65793679203E+02 -0.14037319134E+03  0.14755268599E+03  0.21402157885E+03  0.00000000000E+00 0.  1.
         -3    1    6    6    0  502  0.47272378597E+02 -0.11702558478E+02 -0.61005456070E+01  0.49079978706E+02  0.00000000000E+00 0.  1.
<mgrwt>
<rscale>  0 0.13469718E+04</rscale>
<asrwt>0</asrwt>
<pdfrwt beam="1">  1        1 0.11936381E+00 0.13469718E+04</pdfrwt>
<pdfrwt beam="2">  1       -1 0.89940976E-01 0.13469718E+04</pdfrwt>
<totfact> 0.27511589E+01</totfact>
</mgrwt>
</event>
<event>
12    1  0.1556559E-007  0.2202629E+04  0.7818608E-02  0.8517335E-01
          2   -1    0    0  501    0  0.00000000000E+00  0.00000000000E+00  0.10047418023E+04  0.10047418023E+04  0.00000000000E+00 0. -1.
         -2   -1    0    0    0  501 -0.00000000000E+00 -0.00000000000E+00 -0.12071697360E+04  0.12071697360E+04  0.00000000000E+00 0.  1.
         23    2    1    2    0    0  0.77409398011E+03  0.36856059974E+03  0.26366428757E+03  0.90166489109E+03  0.91773163606E+02 0.  0.
        254    2    1    2    0    0 -0.77409398011E+03 -0.36856059974E+03 -0.46609222127E+03  0.13102466471E+04  0.87432597575E+03 0.  0.
        -24    2    4    4    0    0 -0.45487958741E+03  0.18062599242E+03 -0.45039054201E+03  0.66975467249E+03  0.78603389275E+02 0.  0.
         24    2    4    4    0    0 -0.31921439269E+03 -0.54918659216E+03 -0.15701679259E+02  0.64049197464E+03  0.80496492728E+02 0.  0.
         11    1    3    3    0    0  0.47943626505E+03  0.19543102203E+03  0.19393468926E+03  0.55286804964E+03  0.00000000000E+00 0.  1.
        -11    1    3    3    0    0  0.29465771506E+03  0.17312957771E+03  0.69729598316E+02  0.34879684145E+03  0.00000000000E+00 0. -1.
          2    1    6    6  502    0 -0.28204953602E+03 -0.52450841947E+03 -0.18173432181E+02  0.59581146053E+03  0.00000000000E+00 0. -1.
          1    1    5    5  503    0 -0.45738359301E+03  0.18203061942E+03 -0.44476400385E+03  0.66343795240E+03  0.00000000000E+00 0. -1.
         -2    1    5    5    0  503  0.25040055938E+01 -0.14046270059E+01 -0.56265381625E+01  0.63167200930E+01  0.00000000000E+00 0.  1.
         -1    1    6    6    0  502 -0.37164856672E+02 -0.24678172689E+02  0.24717529214E+01  0.44680514111E+02  0.00000000000E+00 0.  1.
<mgrwt>
<rscale>  0 0.22026292E+04</rscale>
<asrwt>0</asrwt>
<pdfrwt beam="1">  1        2 0.15457566E+00 0.22026292E+04</pdfrwt>
<pdfrwt beam="2">  1       -2 0.18571842E+00 0.22026292E+04</pdfrwt>
<totfact> 0.37861220E+00</totfact>
</mgrwt>
</event>
<event>
12    1  0.1556559E-007  0.1548008E+04  0.7818608E-02  0.8853141E-01
          1   -1    0    0  501    0  0.00000000000E+00  0.00000000000E+00  0.11474036980E+04  0.11474036980E+04  0.00000000000E+00 0. -1.
         -1   -1    0    0    0  501 -0.00000000000E+00 -0.00000000000E+00 -0.52211949308E+03  0.52211949308E+03  0.00000000000E+00 0.  1.
         23    2    1    2    0    0  0.35868198990E+03  0.48094329131E+02 -0.17848725927E+03  0.41374583631E+03  0.91444414656E+02 0.  0.
        254    2    1    2    0    0 -0.35868198990E+03 -0.48094329131E+02  0.80377146420E+03  0.12557773548E+04  0.89440615144E+03 0.  0.
        -24    2    4    4    0    0 -0.60805400128E+03  0.37682335951E+02  0.30385265435E+03  0.68498661017E+03  0.75700684573E+02 0.  0.
         24    2    4    4    0    0  0.24937201138E+03 -0.85776665082E+02  0.49991880985E+03  0.57079074461E+03  0.79619227296E+02 0.  0.
         13    1    3    3    0    0  0.18421160915E+03  0.26804168420E+02 -0.41043288826E+02  0.19062248542E+03  0.00000000000E+00 0. -1.
        -13    1    3    3    0    0  0.17447038075E+03  0.21290160711E+02 -0.13744397044E+03  0.22312335089E+03  0.00000000000E+00 0.  1.
          4    1    6    6  502    0  0.83131601461E+02 -0.25571042017E+02  0.94154220102E+02  0.12817861957E+03  0.00000000000E+00 0. -1.
          3    1    5    5  503    0 -0.50110580360E+03  0.30812081125E+02  0.28123973227E+03  0.57545825023E+03  0.00000000000E+00 0. -1.
         -4    1    5    5    0  503 -0.10694819767E+03  0.68702548260E+01  0.22612922087E+02  0.10952835994E+03  0.00000000000E+00 0.  1.
         -3    1    6    6    0  502  0.16624040992E+03 -0.60205623066E+02  0.40576458975E+03  0.44261212504E+03  0.00000000000E+00 0.  1.
<mgrwt>
<rscale>  0 0.15480075E+04</rscale>
<asrwt>0</asrwt>
<pdfrwt beam="1">  1        1 0.17652365E+00 0.15480075E+04</pdfrwt>
<pdfrwt beam="2">  1       -1 0.80326076E-01 0.15480075E+04</pdfrwt>
<totfact> 0.17412966E+01</totfact>
</mgrwt>
</event>
<event>
12    1  0.1556559E-007  0.1537107E+04  0.7818608E-02  0.8860145E-01
         -2   -1    0    0    0  501 -0.00000000000E+00  0.00000000000E+00  0.24223391008E+03  0.24223391008E+03  0.00000000000E+00 0.  1.
          2   -1    0    0  501    0  0.00000000000E+00 -0.00000000000E+00 -0.24384481808E+04  0.24384481808E+04  0.00000000000E+00 0. -1.
         23    2    1    2    0    0 -0.23302682905E+03  0.87633378831E+02 -0.14791287029E+04  0.15029312661E+04  0.94866004532E+02 0.  0.
        254    2    1    2    0    0  0.23302682905E+03 -0.87633378831E+02 -0.71708556785E+03  0.11777508248E+04  0.90050218296E+03 0.  0.
        -24    2    4    4    0    0 -0.26327024059E+02  0.23854432291E+03 -0.70871548702E+03  0.75316788692E+03  0.85951836246E+02 0.  0.
         24    2    4    4    0    0  0.25935385311E+03 -0.32617770174E+03 -0.83700808299E+01  0.42458293786E+03  0.80896839486E+02 0.  0.
         11    1    3    3    0    0 -0.10589430502E+03  0.36026339157E+02 -0.40816573089E+03  0.42321479750E+03  0.00000000000E+00 0.  1.
        -11    1    3    3    0    0 -0.12713252403E+03  0.51607039674E+02 -0.10709629720E+04  0.10797164686E+04  0.00000000000E+00 0. -1.
          2    1    6    6  502    0  0.17185166907E+03 -0.23355369677E+03  0.29993086903E+02  0.29151313984E+03  0.00000000000E+00 0. -1.
          3    1    5    5  503    0 -0.41110202653E+02  0.22648335276E+03 -0.59707451579E+03  0.63990838036E+03  0.00000000000E+00 0. -1.
         -4    1    5    5    0  503  0.14783178594E+02  0.12060970150E+02 -0.11164097123E+03  0.11325950657E+03  0.00000000000E+00 0.  1.
         -1    1    6    6    0  502  0.87502184040E+02 -0.92624004972E+02 -0.38363167733E+02  0.13306979803E+03  0.00000000000E+00 0.  1.
<mgrwt>
<rscale>  0 0.15371075E+04</rscale>
<asrwt>0</asrwt>
<pdfrwt beam="1">  1        2 0.37514586E+00 0.15371075E+04</pdfrwt>
<pdfrwt beam="2">  1       -2 0.37266757E-01 0.15371075E+04</pdfrwt>
<totfact> 0.24766583E+01</totfact>
</mgrwt>
</event>
<event>
12    1  0.1556559E-007  0.1581490E+04  0.7818608E-02  0.8832001E-01
         -2   -1    0    0    0  501 -0.00000000000E+00  0.00000000000E+00  0.44344481558E+03  0.44344481558E+03  0.00000000000E+00 0. -1.
          2   -1    0    0  501    0  0.00000000000E+00 -0.00000000000E+00 -0.14100454954E+04  0.14100454954E+04  0.00000000000E+00 0.  1.
         23    2    1    2    0    0 -0.16500899295E+03 -0.53506391819E+02 -0.92951954575E+03  0.94973045257E+03  0.88828176112E+02 0.  0.
        254    2    1    2    0    0  0.16500899295E+03  0.53506391819E+02 -0.37081134098E+02  0.90375985845E+03  0.88618055131E+03 0.  0.
        -24    2    4    4    0    0 -0.55124179468E+02 -0.38942633383E+03 -0.29389582549E+02  0.40257445464E+03  0.80690143889E+02 0.  0.
         24    2    4    4    0    0  0.22013317242E+03  0.44293272565E+03 -0.76915515485E+01  0.50118540381E+03  0.80496186113E+02 0.  0.
         13    1    3    3    0    0 -0.96941723844E+02  0.79165118728E+01 -0.36136646142E+03  0.37422732186E+03  0.00000000000E+00 0.  1.
        -13    1    3    3    0    0 -0.68067269105E+02 -0.61422903691E+02 -0.56815308433E+03  0.57550313071E+03  0.00000000000E+00 0. -1.
          2    1    6    6  502    0  0.19316215480E+03  0.38436432724E+03 -0.34069140574E+02  0.43151855168E+03  0.00000000000E+00 0. -1.
          1    1    5    5  503    0 -0.14607879631E+02 -0.28037207855E+03  0.64978377138E+01  0.28082755291E+03  0.00000000000E+00 0. -1.
         -2    1    5    5    0  503 -0.40516299837E+02 -0.10905425528E+03 -0.35887420263E+02  0.12174690173E+03  0.00000000000E+00 0.  1.
         -1    1    6    6    0  502  0.26971017614E+02  0.58568398409E+02  0.26377589025E+02  0.69666852133E+02  0.00000000000E+00 0.  1.
<mgrwt>
<rscale>  0 0.15814896E+04</rscale>
<asrwt>0</asrwt>
<pdfrwt beam="1">  1        2 0.21693008E+00 0.15814896E+04</pdfrwt>
<pdfrwt beam="2">  1       -2 0.68222279E-01 0.15814896E+04</pdfrwt>
<totfact> 0.26961118E+01</totfact>
</mgrwt>
</event>
<event>
12    1  0.1556559E-007  0.1222649E+04  0.7818608E-02  0.9093259E-01
          1   -1    0    0  501    0  0.00000000000E+00  0.00000000000E+00  0.71374183504E+03  0.71374183504E+03  0.00000000000E+00 0. -1.
         -1   -1    0    0    0  501 -0.00000000000E+00 -0.00000000000E+00 -0.52360369896E+03  0.52360369896E+03  0.00000000000E+00 0.  1.
         23    2    1    2    0    0 -0.44035865309E+02 -0.16235050608E+03  0.31634055172E+03  0.36852571751E+03  0.86272913133E+02 0.  0.
        254    2    1    2    0    0  0.44035865309E+02  0.16235050608E+03 -0.12620241565E+03  0.86881981649E+03  0.84298515975E+03 0.  0.
        -24    2    4    4    0    0 -0.36560193576E+02 -0.31988674185E+03 -0.16812548725E+03  0.37140761277E+03  0.77545212570E+02 0.  0.
         24    2    4    4    0    0  0.80596058886E+02  0.48223724793E+03  0.41923071606E+02  0.49741220372E+03  0.81319545491E+02 0.  0.
         13    1    3    3    0    0 -0.42755242197E+02 -0.12009145619E+03  0.29457376320E+03  0.32097300595E+03  0.00000000000E+00 0. -1.
        -13    1    3    3    0    0 -0.12806231124E+01 -0.42259049894E+02  0.21766788524E+02  0.47552711554E+02  0.00000000000E+00 0.  1.
          2    1    6    6  502    0  0.11116623077E+02  0.29676082366E+03  0.37231847310E+02  0.29929379583E+03  0.00000000000E+00 0. -1.
          1    1    5    5  503    0  0.18612544472E+02 -0.16231073978E+03 -0.69894342318E+02  0.17769755808E+03  0.00000000000E+00 0. -1.
         -2    1    5    5    0  503 -0.55172738049E+02 -0.15757600208E+03 -0.98231144936E+02  0.19371005469E+03  0.00000000000E+00 0.  1.
         -1    1    6    6    0  502  0.69479435808E+02  0.18547642428E+03  0.46912242966E+01  0.19811840790E+03  0.00000000000E+00 0.  1.
<mgrwt>
<rscale>  0 0.12226494E+04</rscale>
<asrwt>0</asrwt>
<pdfrwt beam="1">  1        1 0.10980644E+00 0.12226494E+04</pdfrwt>
<pdfrwt beam="2">  1       -1 0.80554415E-01 0.12226494E+04</pdfrwt>
<totfact> 0.40185959E+01</totfact>
</mgrwt>
</event>
<event>
12    1  0.1556559E-007  0.1581917E+04  0.7818608E-02  0.8831735E-01
          2   -1    0    0  501    0  0.00000000000E+00  0.00000000000E+00  0.28396192493E+04  0.28396192493E+04  0.00000000000E+00 0.  1.
         -2   -1    0    0    0  501 -0.00000000000E+00 -0.00000000000E+00 -0.22031651044E+03  0.22031651044E+03  0.00000000000E+00 0. -1.
         23    2    1    2    0    0  0.34129405959E+03 -0.80506031570E+02  0.12187184684E+03  0.38226811499E+03  0.91177346166E+02 0.  0.
        254    2    1    2    0    0 -0.34129405959E+03  0.80506031570E+02  0.24974308920E+04  0.26776676448E+04  0.89987782452E+03 0.  0.
        -24    2    4    4    0    0 -0.47395247651E+03  0.20709945346E+03  0.23971174767E+04  0.24535884986E+04  0.80019931749E+02 0.  0.
         24    2    4    4    0    0  0.13265841692E+03 -0.12659342189E+03  0.10031341531E+03  0.22407914619E+03  0.80774577805E+02 0.  0.
         13    1    3    3    0    0  0.33289834644E+03 -0.64059074657E+02  0.99594767473E+02  0.35333269282E+03  0.00000000000E+00 0. -1.
        -13    1    3    3    0    0  0.83957131499E+01 -0.16446956913E+02  0.22277079362E+02  0.28935422165E+02  0.00000000000E+00 0.  1.
          4    1    6    6  502    0  0.59821439974E+02 -0.14175245974E+02  0.55517464441E+02  0.82835566859E+02  0.00000000000E+00 0. -1.
          1    1    5    5  503    0 -0.34206224676E+02 -0.58376935109E+01  0.17052608715E+03  0.17402094951E+03  0.00000000000E+00 0. -1.
         -2    1    5    5    0  503 -0.43974625183E+03  0.21293714697E+03  0.22265913896E+04  0.22795675491E+04  0.00000000000E+00 0.  1.
         -3    1    6    6    0  502  0.72836976944E+02 -0.11241817592E+03  0.44795950867E+02  0.14124357933E+03  0.00000000000E+00 0.  1.
<mgrwt>
<rscale>  0 0.15819166E+04</rscale>
<asrwt>0</asrwt>
<pdfrwt beam="1">  1        2 0.43686447E+00 0.15819166E+04</pdfrwt>
<pdfrwt beam="2">  1       -2 0.33894850E-01 0.15819166E+04</pdfrwt>
<totfact> 0.17191888E+01</totfact>
</mgrwt>
</event>
<event>
12    1  0.1556559E-007  0.2706452E+04  0.7818608E-02  0.8332915E-01
          2   -1    0    0  501    0  0.00000000000E+00  0.00000000000E+00  0.31258780751E+04  0.31258780751E+04  0.00000000000E+00 0. -1.
         -2   -1    0    0    0  501 -0.00000000000E+00 -0.00000000000E+00 -0.58582578840E+03  0.58582578840E+03  0.00000000000E+00 0.  1.
         23    2    1    2    0    0 -0.11630569493E+04 -0.33661851416E+03  0.13950087417E+04  0.18494524408E+04  0.91713957670E+02 0.  0.
        254    2    1    2    0    0  0.11630569493E+04  0.33661851416E+03  0.11450435450E+04  0.18622514227E+04  0.83116914644E+03 0.  0.
        -24    2    4    4    0    0  0.11112715246E+03 -0.23056400943E+03  0.16087918741E+03  0.31203928395E+03  0.77313616712E+02 0.  0.
         24    2    4    4    0    0  0.10519297968E+04  0.56718252359E+03  0.98416435756E+03  0.15502121387E+04  0.79535399834E+02 0.  0.
         13    1    3    3    0    0 -0.95030053424E+03 -0.28302474341E+03  0.10872221151E+04  0.14714707059E+04  0.00000000000E+00 0. -1.
        -13    1    3    3    0    0 -0.21275641505E+03 -0.53593770745E+02  0.30778662667E+03  0.37798173496E+03  0.00000000000E+00 0.  1.
          4    1    6    6  502    0  0.65407984860E+03  0.39570875425E+03  0.62171922114E+03  0.98536321043E+03  0.00000000000E+00 0. -1.
          3    1    5    5  503    0  0.10161394489E+03 -0.12426311679E+03  0.10126184662E+03  0.18979114197E+03  0.00000000000E+00 0. -1.
         -4    1    5    5    0  503  0.95132075646E+01 -0.10630089263E+03  0.59617340795E+02  0.12224814197E+03  0.00000000000E+00 0.  1.
         -3    1    6    6    0  502  0.39784994823E+03  0.17147376934E+03  0.36244513642E+03  0.56484892830E+03  0.00000000000E+00 0.  1.
<mgrwt>
<rscale>  0 0.27064515E+04</rscale>
<asrwt>0</asrwt>
<pdfrwt beam="1">  1        2 0.48090431E+00 0.27064515E+04</pdfrwt>
<pdfrwt beam="2">  1       -2 0.90127046E-01 0.27064515E+04</pdfrwt>
<totfact> 0.13375005E+00</totfact>
</mgrwt>
</event>
<event>
12    1  0.1556559E-007  0.1304358E+04  0.7818608E-02  0.9026116E-01
          1   -1    0    0  501    0  0.00000000000E+00  0.00000000000E+00  0.10241370866E+04  0.10241370866E+04  0.00000000000E+00 0. -1.
         -1   -1    0    0    0  501 -0.00000000000E+00 -0.00000000000E+00 -0.41531331024E+03  0.41531331024E+03  0.00000000000E+00 0.  1.
         23    2    1    2    0    0 -0.12744827037E+00  0.11660112184E+03  0.49853779663E+03  0.52341623630E+03  0.10876021285E+03 0.  0.
        254    2    1    2    0    0  0.12744827037E+00 -0.11660112184E+03  0.11028597975E+03  0.91603416056E+03  0.90186459523E+03 0.  0.
        -24    2    4    4    0    0 -0.43963446215E+03 -0.67876178079E+02 -0.32544665701E+01  0.45226552010E+03  0.81534491209E+02 0.  0.
         24    2    4    4    0    0  0.43976191042E+03 -0.48724943764E+02  0.11354044632E+03  0.46376864046E+03  0.80157725262E+02 0.  0.
         13    1    3    3    0    0 -0.43750634008E+02  0.49374391833E+02  0.33335081735E+03  0.33981570883E+03  0.00000000000E+00 0. -1.
        -13    1    3    3    0    0  0.43623185738E+02  0.67226730010E+02  0.16518697928E+03  0.18360052747E+03  0.00000000000E+00 0.  1.
          4    1    6    6  502    0  0.35929827837E+02  0.88139076375E+01 -0.85663268957E+01  0.37973931226E+02  0.00000000000E+00 0. -1.
          1    1    5    5  503    0 -0.13998748253E+03 -0.21236354384E+02  0.37017655377E+02  0.14634816303E+03  0.00000000000E+00 0. -1.
         -2    1    5    5    0  503 -0.29964697962E+03 -0.46639823696E+02 -0.40272121947E+02  0.30591735707E+03  0.00000000000E+00 0.  1.
         -3    1    6    6    0  502  0.40383208259E+03 -0.57538851402E+02  0.12210677321E+03  0.42579470923E+03  0.00000000000E+00 0.  1.
<mgrwt>
<rscale>  0 0.13043585E+04</rscale>
<asrwt>0</asrwt>
<pdfrwt beam="1">  1        1 0.15755955E+00 0.13043585E+04</pdfrwt>
<pdfrwt beam="2">  1       -1 0.63894356E-01 0.13043585E+04</pdfrwt>
<totfact> 0.35356690E+01</totfact>
</mgrwt>
</event>
<event>
12    1  0.1556559E-007  0.1491522E+04  0.7818608E-02  0.8890110E-01
         -1   -1    0    0    0  501 -0.00000000000E+00  0.00000000000E+00  0.89594144194E+03  0.89594144194E+03  0.00000000000E+00 0.  1.
          1   -1    0    0  501    0  0.00000000000E+00 -0.00000000000E+00 -0.62075445589E+03  0.62075445589E+03  0.00000000000E+00 0. -1.
         23    2    1    2    0    0  0.15794270791E+03 -0.26776274603E+02  0.52858378440E+03  0.55856676122E+03  0.83265489527E+02 0.  0.
        254    2    1    2    0    0 -0.15794270791E+03  0.26776274603E+02 -0.25339679835E+03  0.95812913661E+03  0.91002122895E+03 0.  0.
        -24    2    4    4    0    0 -0.23153300260E+03  0.33433822176E+03 -0.42134072918E+03  0.59117771289E+03  0.81077125828E+02 0.  0.
         24    2    4    4    0    0  0.73590294689E+02 -0.30756194716E+03  0.16794393083E+03  0.36695142371E+03  0.80239021998E+02 0.  0.
         13    1    3    3    0    0  0.12613969191E+03  0.15093346903E+02  0.39846498626E+03  0.41822646530E+03  0.00000000000E+00 0.  1.
        -13    1    3    3    0    0  0.31803016000E+02 -0.41869621505E+02  0.13011879814E+03  0.14034029593E+03  0.00000000000E+00 0. -1.
          4    1    6    6  502    0  0.57687412568E+02 -0.11182380198E+03  0.94189499123E+02  0.15717525888E+03  0.00000000000E+00 0. -1.
          1    1    5    5  503    0 -0.21789511769E+03  0.31544884999E+03 -0.36142289586E+03  0.52688971230E+03  0.00000000000E+00 0. -1.
         -2    1    5    5    0  503 -0.13637884914E+02  0.18889371766E+02 -0.59917833321E+02  0.64288000595E+02  0.00000000000E+00 0.  1.
         -3    1    6    6    0  502  0.15902882121E+02 -0.19573814518E+03  0.73754431708E+02  0.20977616484E+03  0.00000000000E+00 0.  1.
<mgrwt>
<rscale>  0 0.14915222E+04</rscale>
<asrwt>0</asrwt>
<pdfrwt beam="1">  1        1 0.95500686E-01 0.14915222E+04</pdfrwt>
<pdfrwt beam="2">  1       -1 0.13783714E+00 0.14915222E+04</pdfrwt>
<totfact> 0.13776339E+01</totfact>
</mgrwt>
</event>
<event>
12    1  0.1556559E-007  0.1855746E+04  0.7818608E-02  0.8677203E-01
          2   -1    0    0  501    0  0.00000000000E+00  0.00000000000E+00  0.17988312892E+04  0.17988312892E+04  0.00000000000E+00 0. -1.
         -2   -1    0    0    0  501 -0.00000000000E+00 -0.00000000000E+00 -0.47861557653E+03  0.47861557653E+03  0.00000000000E+00 0.  1.
         23    2    1    2    0    0  0.60683359300E+03  0.10383634273E+03  0.91906348924E+03  0.11100015970E+04  0.91634341035E+02 0.  0.
        254    2    1    2    0    0 -0.60683359300E+03 -0.10383634273E+03  0.40115222342E+03  0.11674452687E+04  0.90718044148E+03 0.  0.
        -24    2    4    4    0    0 -0.63462888330E+03 -0.27961556070E+02 -0.10553377411E+03  0.64788461713E+03  0.71284160196E+02 0.  0.
         24    2    4    4    0    0  0.27795290302E+02 -0.75874786662E+02  0.50668599753E+03  0.51956065158E+03  0.81749673756E+02 0.  0.
         11    1    3    3    0    0  0.32363114825E+03  0.40779746598E+02  0.40845921696E+03  0.52272271786E+03  0.00000000000E+00 0. -1.
        -11    1    3    3    0    0  0.28320244475E+03  0.63056596133E+02  0.51060427228E+03  0.58727887915E+03  0.00000000000E+00 0.  1.
          2    1    6    6  502    0  0.42914121927E+02 -0.83290619153E+02  0.46923181523E+03  0.47849497963E+03  0.00000000000E+00 0. -1.
          1    1    5    5  503    0 -0.56264617295E+03 -0.22701657152E+02 -0.11607857516E+03  0.57494375097E+03  0.00000000000E+00 0. -1.
         -2    1    5    5    0  503 -0.71982710357E+02 -0.52598989171E+01  0.10544801049E+02  0.72940866160E+02  0.00000000000E+00 0.  1.
         -1    1    6    6    0  502 -0.15118831625E+02  0.74158324908E+01  0.37454182296E+02  0.41065671950E+02  0.00000000000E+00 0.  1.
<mgrwt>
<rscale>  0 0.18557464E+04</rscale>
<asrwt>0</asrwt>
<pdfrwt beam="1">  1        2 0.27674327E+00 0.18557464E+04</pdfrwt>
<pdfrwt beam="2">  1       -2 0.73633167E-01 0.18557464E+04</pdfrwt>
<totfact> 0.13507372E+01</totfact>
</mgrwt>
</event>
<event>
12    1  0.1556559E-007  0.1597515E+04  0.7818608E-02  0.8822076E-01
          1   -1    0    0  501    0  0.00000000000E+00  0.00000000000E+00  0.84910180138E+03  0.84910180138E+03  0.00000000000E+00 0.  1.
         -1   -1    0    0    0  501 -0.00000000000E+00 -0.00000000000E+00 -0.75139778200E+03  0.75139778200E+03  0.00000000000E+00 0. -1.
         23    2    1    2    0    0 -0.14237230973E+03  0.51896903061E+03  0.64303520166E+02  0.55000790150E+03  0.93675075122E+02 0.  0.
        254    2    1    2    0    0  0.14237230973E+03 -0.51896903061E+03  0.33400499214E+02  0.10504916819E+04  0.90156444640E+03 0.  0.
        -24    2    4    4    0    0  0.11421379807E+03  0.98518886316E+02  0.32134827926E+03  0.36397308807E+03  0.80379908075E+02 0.  0.
         24    2    4    4    0    0  0.28158511660E+02 -0.61748791692E+03 -0.28794778005E+03  0.68651859380E+03  0.79433156013E+02 0.  0.
         11    1    3    3    0    0  0.13753764179E+02  0.47779806429E+02  0.93797453039E+01  0.50596991546E+02  0.00000000000E+00 0.  1.
        -11    1    3    3    0    0 -0.15612607391E+03  0.47118922418E+03  0.54923774862E+02  0.49941090996E+03  0.00000000000E+00 0. -1.
          4    1    6    6  502    0  0.49890043754E+02 -0.34473069320E+03 -0.13946061978E+03  0.37520332057E+03  0.00000000000E+00 0. -1.
          1    1    5    5  503    0  0.80873873847E+02  0.83789701225E+02  0.29981964248E+03  0.32164128392E+03  0.00000000000E+00 0. -1.
         -2    1    5    5    0  503  0.33339924227E+02  0.14729185091E+02  0.21528636776E+02  0.42331804147E+02  0.00000000000E+00 0.  1.
         -3    1    6    6    0  502 -0.21731532094E+02 -0.27275722373E+03 -0.14848716026E+03  0.31131527323E+03  0.00000000000E+00 0.  1.
<mgrwt>
<rscale>  0 0.15975146E+04</rscale>
<asrwt>0</asrwt>
<pdfrwt beam="1">  1        1 0.13063105E+00 0.15975146E+04</pdfrwt>
<pdfrwt beam="2">  1       -1 0.11559966E+00 0.15975146E+04</pdfrwt>
<totfact> 0.13055883E+01</totfact>
</mgrwt>
</event>
<event>
12    1  0.1556559E-007  0.1904071E+04  0.7818608E-02  0.8652833E-01
          2   -1    0    0  501    0  0.00000000000E+00  0.00000000000E+00  0.16940551361E+04  0.16940551361E+04  0.00000000000E+00 0.  1.
         -2   -1    0    0    0  501 -0.00000000000E+00 -0.00000000000E+00 -0.53503056493E+03  0.53503056493E+03  0.00000000000E+00 0. -1.
         23    2    1    2    0    0  0.14334749714E+03 -0.55130167000E+03  0.99413935058E+03  0.11495580622E+04  0.93212947623E+02 0.  0.
        254    2    1    2    0    0 -0.14334749714E+03  0.55130167000E+03  0.16488522057E+03  0.10795276389E+04  0.90205917257E+03 0.  0.
        -24    2    4    4    0    0 -0.58279771488E+02  0.55331522259E+03 -0.27380463646E+03  0.62526770036E+03  0.80227494373E+02 0.  0.
         24    2    4    4    0    0 -0.85067725653E+02 -0.20135525855E+01  0.43868985702E+03  0.45425993850E+03  0.81625539672E+02 0.  0.
         11    1    3    3    0    0  0.75060809154E+02 -0.42899752293E+03  0.71382491935E+03  0.83619316861E+03  0.00000000000E+00 0.  1.
        -11    1    3    3    0    0  0.68286687986E+02 -0.12230414708E+03  0.28031443123E+03  0.31336489354E+03  0.00000000000E+00 0. -1.
          2    1    6    6  502    0 -0.23293872600E+02  0.29737737377E+02  0.25673731739E+03  0.25950142132E+03  0.00000000000E+00 0. -1.
          3    1    5    5  503    0 -0.49372571684E+02  0.13677435818E+03 -0.75524843081E+02  0.16385627181E+03  0.00000000000E+00 0. -1.
         -4    1    5    5    0  503 -0.89071998037E+01  0.41654086441E+03 -0.19827979338E+03  0.46141142855E+03  0.00000000000E+00 0.  1.
         -1    1    6    6    0  502 -0.61773853053E+02 -0.31751289962E+02  0.18195253964E+03  0.19475851718E+03  0.00000000000E+00 0.  1.
<mgrwt>
<rscale>  0 0.19040707E+04</rscale>
<asrwt>0</asrwt>
<pdfrwt beam="1">  1        2 0.26062387E+00 0.19040707E+04</pdfrwt>
<pdfrwt beam="2">  1       -2 0.82312395E-01 0.19040707E+04</pdfrwt>
<totfact> 0.11991439E+01</totfact>
</mgrwt>
</event>
<event>
12    1  0.1556559E-007  0.2570398E+04  0.7818608E-02  0.8378326E-01
          2   -1    0    0  501    0  0.00000000000E+00  0.00000000000E+00  0.49972308375E+03  0.49972308375E+03  0.00000000000E+00 0. -1.
         -2   -1    0    0    0  501 -0.00000000000E+00 -0.00000000000E+00 -0.33053033702E+04  0.33053033702E+04  0.00000000000E+00 0.  1.
         23    2    1    2    0    0 -0.72981266843E+03  0.67983756760E+03 -0.53497466445E+03  0.11353498172E+04  0.89530254497E+02 0.  0.
        254    2    1    2    0    0  0.72981266843E+03 -0.67983756760E+03 -0.22706056220E+04  0.26696766367E+04  0.98829034437E+03 0.  0.
        -24    2    4    4    0    0 -0.19033013099E+03 -0.29994179544E+03 -0.92589105133E+03  0.99479021393E+03  0.78375323838E+02 0.  0.
         24    2    4    4    0    0  0.92014279942E+03 -0.37989577216E+03 -0.13447145706E+04  0.16748864228E+04  0.77483441437E+02 0.  0.
         11    1    3    3    0    0 -0.61077708004E+03  0.59631273593E+03 -0.42848238822E+03  0.95510977251E+03  0.00000000000E+00 0. -1.
        -11    1    3    3    0    0 -0.11903558840E+03  0.83524831672E+02 -0.10649227623E+03  0.18024004468E+03  0.00000000000E+00 0.  1.
          2    1    6    6  502    0  0.47272390749E+03 -0.15325895432E+03 -0.66890826323E+03  0.83330334477E+03  0.00000000000E+00 0. -1.
          3    1    5    5  503    0 -0.13159222584E+03 -0.22639129789E+03 -0.58096724823E+03  0.63725385615E+03  0.00000000000E+00 0. -1.
         -4    1    5    5    0  503 -0.58737905149E+02 -0.73550497552E+02 -0.34492380310E+03  0.35753635778E+03  0.00000000000E+00 0.  1.
         -1    1    6    6    0  502  0.44741889193E+03 -0.22663681784E+03 -0.67580630740E+03  0.84158307801E+03  0.00000000000E+00 0.  1.
<mgrwt>
<rscale>  0 0.25703979E+04</rscale>
<asrwt>0</asrwt>
<pdfrwt beam="1">  1        2 0.76880475E-01 0.25703979E+04</pdfrwt>
<pdfrwt beam="2">  1       -2 0.50850821E+00 0.25703979E+04</pdfrwt>
<totfact> 0.79526653E-02</totfact>
</mgrwt>
</event>
<event>
12    1  0.1587383E-007  0.1456695E+04  0.7818608E-02  0.8913772E-01
         -2   -1    0    0    0  501 -0.00000000000E+00  0.00000000000E+00  0.63252391569E+03  0.63252391569E+03  0.00000000000E+00 0. -1.
          2   -1    0    0  501    0  0.00000000000E+00 -0.00000000000E+00 -0.83868782396E+03  0.83868782396E+03  0.00000000000E+00 0.  1.
         23    2    1    2    0    0 -0.23820543892E+02  0.37595654154E+03  0.17036688230E+03  0.42371301612E+03  0.92720580302E+02 0.  0.
        254    2    1    2    0    0  0.23820543892E+02 -0.37595654154E+03 -0.37653079057E+03  0.10474987235E+04  0.90197971158E+03 0.  0.
        -24    2    4    4    0    0  0.22585930102E+03 -0.59612922023E+03 -0.13993203830E+03  0.65782916760E+03  0.82315049294E+02 0.  0.
         24    2    4    4    0    0 -0.20203875713E+03  0.22017267869E+03 -0.23659875226E+03  0.38966955592E+03  0.81041504279E+02 0.  0.
         11    1    3    3    0    0 -0.34527866029E+02  0.35216917120E+03  0.13275584607E+03  0.37794101834E+03  0.00000000000E+00 0. -1.
        -11    1    3    3    0    0  0.10707322136E+02  0.23787370338E+02  0.37611036232E+02  0.45771997786E+02  0.00000000000E+00 0.  1.
          2    1    6    6  502    0 -0.17129805092E+02 -0.28949748595E+01 -0.33154962631E+01  0.17686255042E+02  0.00000000000E+00 0. -1.
          3    1    5    5  503    0  0.79427098045E+02 -0.11487793272E+03 -0.34573661765E+02  0.14387821731E+03  0.00000000000E+00 0. -1.
         -4    1    5    5    0  503  0.14643220298E+03 -0.48125128751E+03 -0.10535837654E+03  0.51395095029E+03  0.00000000000E+00 0.  1.
         -1    1    6    6    0  502 -0.18490895204E+03  0.22306765355E+03 -0.23328325600E+03  0.37198330088E+03  0.00000000000E+00 0.  1.
<mgrwt>
<rscale>  0 0.14566950E+04</rscale>
<asrwt>0</asrwt>
<pdfrwt beam="1">  1        2 0.12902889E+00 0.14566950E+04</pdfrwt>
<pdfrwt beam="2">  1       -2 0.97311372E-01 0.14566950E+04</pdfrwt>
<totfact> 0.27606995E+01</totfact>
</mgrwt>
</event>
<event>
12    1  0.1556559E-007  0.1474289E+04  0.7818608E-02  0.8901733E-01
          2   -1    0    0  501    0  0.00000000000E+00  0.00000000000E+00  0.27444564526E+04  0.27444564526E+04  0.00000000000E+00 0.  1.
         -2   -1    0    0    0  501 -0.00000000000E+00 -0.00000000000E+00 -0.19799260140E+03  0.19799260140E+03  0.00000000000E+00 0. -1.
         23    2    1    2    0    0 -0.17329241641E+02 -0.43734264392E+03  0.55841890837E+03  0.71543206446E+03  0.91882919055E+02 0.  0.
        254    2    1    2    0    0  0.17329241641E+02  0.43734264392E+03  0.19880449428E+04  0.22270169895E+04  0.90316835985E+03 0.  0.
        -24    2    4    4    0    0  0.17071250160E+02 -0.26005094934E+03  0.34300217749E+03  0.43847220696E+03  0.81789111008E+02 0.  0.
         24    2    4    4    0    0  0.25799148131E+00  0.69739359326E+03  0.16450427653E+04  0.17885447825E+04  0.79805069166E+02 0.  0.
         11    1    3    3    0    0 -0.13773855042E+02 -0.32340764809E+03  0.47223703329E+03  0.57252951149E+03  0.00000000000E+00 0.  1.
        -11    1    3    3    0    0 -0.35553865987E+01 -0.11393499583E+03  0.86181875089E+02  0.14290255296E+03  0.00000000000E+00 0. -1.
          4    1    6    6  502    0  0.20662011587E+02  0.67544126212E+02  0.13727205545E+03  0.15437857661E+03  0.00000000000E+00 0. -1.
          3    1    5    5  503    0 -0.24837380908E+02 -0.72456537224E+02  0.13527913907E+03  0.15545832478E+03  0.00000000000E+00 0. -1.
         -4    1    5    5    0  503  0.41908631067E+02 -0.18759441211E+03  0.20772303842E+03  0.28301388218E+03  0.00000000000E+00 0.  1.
         -3    1    6    6    0  502 -0.20404020106E+02  0.62984946705E+03  0.15077707098E+04  0.16341662059E+04  0.00000000000E+00 0.  1.
<mgrwt>
<rscale>  0 0.14742891E+04</rscale>
<asrwt>0</asrwt>
<pdfrwt beam="1">  1        2 0.42222404E+00 0.14742891E+04</pdfrwt>
<pdfrwt beam="2">  1       -2 0.30460402E-01 0.14742891E+04</pdfrwt>
<totfact> 0.24220683E+01</totfact>
</mgrwt>
</event>
<event>
12    1  0.1556559E-007  0.1128579E+04  0.7818608E-02  0.9177776E-01
         -1   -1    0    0    0  501 -0.00000000000E+00  0.00000000000E+00  0.15767414081E+03  0.15767414081E+03  0.00000000000E+00 0.  1.
          1   -1    0    0  501    0  0.00000000000E+00 -0.00000000000E+00 -0.20194995334E+04  0.20194995334E+04  0.00000000000E+00 0. -1.
         23    2    1    2    0    0  0.50645195612E+02  0.90211221264E+02 -0.15056547655E+03  0.20540893287E+03  0.93914145330E+02 0.  0.
        254    2    1    2    0    0 -0.50645195612E+02 -0.90211221264E+02 -0.17112599160E+04  0.19717647413E+04  0.97403423690E+03 0.  0.
        -24    2    4    4    0    0  0.11011485594E+03 -0.37368836405E+03 -0.15508355130E+04  0.16009390798E+04  0.78402000465E+02 0.  0.
         24    2    4    4    0    0 -0.16076005155E+03  0.28347714279E+03 -0.16042440299E+03  0.37082566157E+03  0.74649832852E+02 0.  0.
         13    1    3    3    0    0  0.64668861380E+02  0.95448931730E+02 -0.99818879521E+02  0.15250038987E+03  0.00000000000E+00 0.  1.
        -13    1    3    3    0    0 -0.14023665769E+02 -0.52377104655E+01 -0.50746597034E+02  0.52908543006E+02  0.00000000000E+00 0. -1.
          4    1    6    6  502    0 -0.88169584233E+02  0.19240833661E+03 -0.68497015748E+02  0.22245602880E+03  0.00000000000E+00 0. -1.
          1    1    5    5  503    0  0.26397747569E+02 -0.13880688704E+03 -0.70936136603E+03  0.72329644033E+03  0.00000000000E+00 0. -1.
         -2    1    5    5    0  503  0.83717108369E+02 -0.23488147701E+03 -0.84147414701E+03  0.87764263944E+03  0.00000000000E+00 0.  1.
         -3    1    6    6    0  502 -0.72590467317E+02  0.91068806178E+02 -0.91927387242E+02  0.14836963277E+03  0.00000000000E+00 0.  1.
<mgrwt>
<rscale>  0 0.11285794E+04</rscale>
<asrwt>0</asrwt>
<pdfrwt beam="1">  1        1 0.31069224E+00 0.11285794E+04</pdfrwt>
<pdfrwt beam="2">  1       -1 0.24257560E-01 0.11285794E+04</pdfrwt>
<totfact> 0.42523345E+01</totfact>
</mgrwt>
</event>
<event>
12    1  0.1556559E-007  0.1454232E+04  0.7818608E-02  0.8915472E-01
          2   -1    0    0  501    0  0.00000000000E+00  0.00000000000E+00  0.19152824910E+04  0.19152824910E+04  0.00000000000E+00 0. -1.
         -2   -1    0    0    0  501 -0.00000000000E+00 -0.00000000000E+00 -0.27604170536E+03  0.27604170536E+03  0.00000000000E+00 0.  1.
         23    2    1    2    0    0 -0.42924223781E+03  0.24098495445E+02  0.39655486468E+03  0.59134184376E+03  0.87176712934E+02 0.  0.
        254    2    1    2    0    0  0.42924223781E+03 -0.24098495445E+02  0.12426859210E+04  0.15999823526E+04  0.91150731993E+03 0.  0.
        -24    2    4    4    0    0 -0.58264284341E+02  0.35133324775E+03  0.62992756868E+03  0.72791182993E+03  0.78848668791E+02 0.  0.
         24    2    4    4    0    0  0.48750652215E+03 -0.37543174320E+03  0.61275835232E+03  0.87207052270E+03  0.80141096100E+02 0.  0.
         13    1    3    3    0    0 -0.25040882560E+03  0.16108083949E+02  0.28803401242E+03  0.38200476780E+03  0.00000000000E+00 0.  1.
        -13    1    3    3    0    0 -0.17883341221E+03  0.79904114965E+01  0.10852085226E+03  0.20933707597E+03  0.00000000000E+00 0. -1.
          2    1    6    6  502    0  0.45376794968E+03 -0.36548587967E+03  0.59459633504E+03  0.83248428336E+03  0.00000000000E+00 0. -1.
          3    1    5    5  503    0  0.64106947225E+01  0.20059181511E+03  0.34184410498E+03  0.39640328633E+03  0.00000000000E+00 0. -1.
         -4    1    5    5    0  503 -0.64674979064E+02  0.15074143264E+03  0.28808346370E+03  0.33150854361E+03  0.00000000000E+00 0.  1.
         -1    1    6    6    0  502  0.33738572466E+02 -0.99458635245E+01  0.18162017283E+02  0.39586239340E+02  0.00000000000E+00 0.  1.
<mgrwt>
<rscale>  0 0.14542322E+04</rscale>
<asrwt>0</asrwt>
<pdfrwt beam="1">  1        2 0.29465884E+00 0.14542322E+04</pdfrwt>
<pdfrwt beam="2">  1       -2 0.42467956E-01 0.14542322E+04</pdfrwt>
<totfact> 0.37952728E+01</totfact>
</mgrwt>
</event>
<event>
12    1  0.1556559E-007  0.1568929E+04  0.7818608E-02  0.8839867E-01
         -2   -1    0    0    0  501 -0.00000000000E+00  0.00000000000E+00  0.33363202617E+03  0.33363202617E+03  0.00000000000E+00 0.  1.
          2   -1    0    0  501    0  0.00000000000E+00 -0.00000000000E+00 -0.18445006605E+04  0.18445006605E+04  0.00000000000E+00 0. -1.
         23    2    1    2    0    0  0.36833931719E+03 -0.35169207483E+03 -0.41488327365E+03  0.66320431262E+03  0.91381953546E+02 0.  0.
        254    2    1    2    0    0 -0.36833931719E+03  0.35169207483E+03 -0.10959853607E+04  0.15149283740E+04  0.91348940857E+03 0.  0.
        -24    2    4    4    0    0 -0.45689748708E+03 -0.14825964935E+03 -0.31465439774E+03  0.57961509233E+03  0.78803730263E+02 0.  0.
         24    2    4    4    0    0  0.88558169897E+02  0.49995172418E+03 -0.78133096291E+03  0.93531328170E+03  0.80861519541E+02 0.  0.
         13    1    3    3    0    0  0.22235039633E+03 -0.17776552136E+03 -0.27888249257E+03  0.39851690553E+03  0.00000000000E+00 0. -1.
        -13    1    3    3    0    0  0.14598892086E+03 -0.17392655347E+03 -0.13600078108E+03  0.26468740709E+03  0.00000000000E+00 0.  1.
          2    1    6    6  502    0 -0.69903906093E+00  0.10245441583E+03 -0.11239884172E+03  0.15208844663E+03  0.00000000000E+00 0. -1.
          1    1    5    5  503    0 -0.32030433855E+03 -0.13361993052E+03 -0.19916922214E+03  0.40014689074E+03  0.00000000000E+00 0. -1.
         -2    1    5    5    0  503 -0.13659314854E+03 -0.14639718832E+02 -0.11548517561E+03  0.17946820158E+03  0.00000000000E+00 0.  1.
         -1    1    6    6    0  502  0.89257208958E+02  0.39749730835E+03 -0.66893212120E+03  0.78322483507E+03  0.00000000000E+00 0.  1.
<mgrwt>
<rscale>  0 0.15689289E+04</rscale>
<asrwt>0</asrwt>
<pdfrwt beam="1">  1        2 0.28376934E+00 0.15689289E+04</pdfrwt>
<pdfrwt beam="2">  1       -2 0.51328003E-01 0.15689289E+04</pdfrwt>
<totfact> 0.28100866E+01</totfact>
</mgrwt>
</event>
<event>
12    1  0.1556559E-007  0.2249864E+04  0.7818608E-02  0.8497956E-01
         -2   -1    0    0    0  501 -0.00000000000E+00  0.00000000000E+00  0.10097597628E+04  0.10097597628E+04  0.00000000000E+00 0. -1.
          2   -1    0    0  501    0  0.00000000000E+00 -0.00000000000E+00 -0.12532406835E+04  0.12532406835E+04  0.00000000000E+00 0.  1.
         23    2    1    2    0    0  0.32454201489E+03  0.88167554371E+03 -0.26870973401E+03  0.98340701537E+03  0.11047693392E+03 0.  0.
        254    2    1    2    0    0 -0.32454201489E+03 -0.88167554371E+03  0.25228813336E+02  0.12795934310E+04  0.86835682281E+03 0.  0.
        -24    2    4    4    0    0 -0.23275597933E+03 -0.86912053333E+02  0.32928138373E+03  0.42002973429E+03  0.79181418805E+02 0.  0.
         24    2    4    4    0    0 -0.91786035563E+02 -0.79476349038E+03 -0.30405257040E+03  0.85956369667E+03  0.79549362717E+02 0.  0.
         13    1    3    3    0    0  0.32041232005E+03  0.77668307048E+03 -0.22651703271E+03  0.87017849486E+03  0.00000000000E+00 0.  1.
        -13    1    3    3    0    0  0.41296948386E+01  0.10499247324E+03 -0.42192701297E+02  0.11322852052E+03  0.00000000000E+00 0. -1.
          2    1    6    6  502    0 -0.19554230830E+02 -0.26680485846E+03 -0.63757983599E+02  0.27501323771E+03  0.00000000000E+00 0. -1.
          3    1    5    5  503    0 -0.22660427156E+02 -0.27204389207E+02  0.86467767717E+02  0.93435799376E+02  0.00000000000E+00 0. -1.
         -4    1    5    5    0  503 -0.21009555217E+03 -0.59707664126E+02  0.24281361602E+03  0.32659393491E+03  0.00000000000E+00 0.  1.
         -1    1    6    6    0  502 -0.72231804733E+02 -0.52795863191E+03 -0.24029458680E+03  0.58455045896E+03  0.00000000000E+00 0.  1.
<mgrwt>
<rscale>  0 0.22498640E+04</rscale>
<asrwt>0</asrwt>
<pdfrwt beam="1">  1        2 0.19280626E+00 0.22498640E+04</pdfrwt>
<pdfrwt beam="2">  1       -2 0.15534766E+00 0.22498640E+04</pdfrwt>
<totfact> 0.43748065E+00</totfact>
</mgrwt>
</event>
<event>
12    1  0.1556559E-007  0.1257051E+04  0.7818608E-02  0.9064335E-01
         -2   -1    0    0    0  501 -0.00000000000E+00  0.00000000000E+00  0.60672776039E+03  0.60672776039E+03  0.00000000000E+00 0.  1.
          2   -1    0    0  501    0  0.00000000000E+00 -0.00000000000E+00 -0.65110595372E+03  0.65110595372E+03  0.00000000000E+00 0. -1.
         23    2    1    2    0    0 -0.54259072911E+02 -0.46153695559E+01 -0.30003923318E+03  0.31841611664E+03  0.91651149801E+02 0.  0.
        254    2    1    2    0    0  0.54259072911E+02  0.46153695559E+01  0.25566103985E+03  0.93941759748E+03  0.90231785227E+03 0.  0.
        -24    2    4    4    0    0 -0.41071818278E+02 -0.35713412560E+03  0.38648584799E+03  0.53397374479E+03  0.80777295692E+02 0.  0.
         24    2    4    4    0    0  0.95330891190E+02  0.36174949516E+03 -0.13082480814E+03  0.40544385269E+03  0.85550635304E+02 0.  0.
         11    1    3    3    0    0 -0.56600650353E+02  0.11188656921E+02 -0.29648807008E+03  0.30204965712E+03  0.00000000000E+00 0. -1.
        -11    1    3    3    0    0  0.23415774415E+01 -0.15804026477E+02 -0.35511630914E+01  0.16366459516E+02  0.00000000000E+00 0.  1.
          4    1    6    6  502    0  0.27201278638E+02  0.23131901036E+03 -0.52546139461E+02  0.23876660338E+03  0.00000000000E+00 0. -1.
          1    1    5    5  503    0  0.69415486913E+01 -0.25890535601E+03  0.27788996107E+03  0.37987234557E+03  0.00000000000E+00 0. -1.
         -4    1    5    5    0  503 -0.48013366970E+02 -0.98228769593E+02  0.10859588692E+03  0.15410139921E+03  0.00000000000E+00 0.  1.
         -1    1    6    6    0  502  0.68129612551E+02  0.13043048479E+03 -0.78278668683E+02  0.16667724932E+03  0.00000000000E+00 0.  1.
<mgrwt>
<rscale>  0 0.12570506E+04</rscale>
<asrwt>0</asrwt>
<pdfrwt beam="1">  1        2 0.10017015E+00 0.12570506E+04</pdfrwt>
<pdfrwt beam="2">  1       -2 0.93342733E-01 0.12570506E+04</pdfrwt>
<totfact> 0.42847270E+01</totfact>
</mgrwt>
</event>
<event>
12    1  0.1556559E-007  0.1397507E+04  0.7818608E-02  0.8955625E-01
         -2   -1    0    0    0  501 -0.00000000000E+00  0.00000000000E+00  0.20085723126E+03  0.20085723126E+03  0.00000000000E+00 0.  1.
          2   -1    0    0  501    0  0.00000000000E+00 -0.00000000000E+00 -0.24308619482E+04  0.24308619482E+04  0.00000000000E+00 0. -1.
         23    2    1    2    0    0 -0.12892044675E+02  0.31823960376E+03 -0.19662300429E+03  0.38526544635E+03  0.91248058175E+02 0.  0.
        254    2    1    2    0    0  0.12892044675E+02 -0.31823960376E+03 -0.20333817127E+04  0.22464537331E+04  0.90026137062E+03 0.  0.
        -24    2    4    4    0    0  0.29382379433E+03 -0.30545832433E+02 -0.16726629192E+04  0.17003846627E+04  0.79001834763E+02 0.  0.
         24    2    4    4    0    0 -0.28093174966E+03 -0.28769377132E+03 -0.36071879345E+03  0.54606907040E+03  0.79893852557E+02 0.  0.
         13    1    3    3    0    0 -0.34943311158E+02  0.12604090511E+03 -0.11895209697E+03  0.17679634083E+03  0.00000000000E+00 0.  1.
        -13    1    3    3    0    0  0.22051266484E+02  0.19219869864E+03 -0.77670907322E+02  0.20846910552E+03  0.00000000000E+00 0. -1.
          2    1    6    6  502    0 -0.81649771473E+02 -0.12660744792E+03 -0.16647341087E+03  0.22452066181E+03  0.00000000000E+00 0. -1.
          1    1    5    5  503    0  0.20572927792E+03  0.15629454193E+02 -0.11244762988E+04  0.11432479006E+04  0.00000000000E+00 0. -1.
         -2    1    5    5    0  503  0.88094516411E+02 -0.46175286627E+02 -0.54818662045E+03  0.55713676217E+03  0.00000000000E+00 0.  1.
         -1    1    6    6    0  502 -0.19928197818E+03 -0.16108632340E+03 -0.19424538258E+03  0.32154840859E+03  0.00000000000E+00 0.  1.
<mgrwt>
<rscale>  0 0.13975066E+04</rscale>
<asrwt>0</asrwt>
<pdfrwt beam="1">  1        2 0.37397875E+00 0.13975066E+04</pdfrwt>
<pdfrwt beam="2">  1       -2 0.30901113E-01 0.13975066E+04</pdfrwt>
<totfact> 0.36157127E+01</totfact>
</mgrwt>
</event>
<event>
12    1  0.1556559E-007  0.1599648E+04  0.7818608E-02  0.8820764E-01
         -1   -1    0    0    0  501 -0.00000000000E+00  0.00000000000E+00  0.51662996721E+03  0.51662996721E+03  0.00000000000E+00 0.  1.
          1   -1    0    0  501    0  0.00000000000E+00 -0.00000000000E+00 -0.12382523187E+04  0.12382523187E+04  0.00000000000E+00 0. -1.
         23    2    1    2    0    0 -0.21307234131E+03  0.13335324605E+03  0.27661220349E+03  0.38491189927E+03  0.91977976818E+02 0.  0.
        254    2    1    2    0    0  0.21307234131E+03 -0.13335324605E+03 -0.99823455502E+03  0.13699703867E+04  0.90397108509E+03 0.  0.
        -24    2    4    4    0    0 -0.23999027783E+03  0.50461853253E+02 -0.79141242987E+03  0.83262374082E+03  0.82382810881E+02 0.  0.
         24    2    4    4    0    0  0.45306261914E+03 -0.18381509930E+03 -0.20682212514E+03  0.53734664586E+03  0.83140235584E+02 0.  0.
         13    1    3    3    0    0  0.89071301505E+01  0.47482168736E+01  0.48823595551E+01  0.11212491508E+02  0.00000000000E+00 0. -1.
        -13    1    3    3    0    0 -0.22197947146E+03  0.12860502918E+03  0.27172984393E+03  0.37369940776E+03  0.00000000000E+00 0.  1.
          2    1    6    6  502    0  0.32394627764E+02  0.23009428718E+01 -0.30978282435E+02  0.44881624622E+02  0.00000000000E+00 0. -1.
          1    1    5    5  503    0 -0.47008385323E+02  0.22698811393E+02 -0.28958668372E+03  0.29425409380E+03  0.00000000000E+00 0. -1.
         -2    1    5    5    0  503 -0.19298189251E+03  0.27763041860E+02 -0.50182574615E+03  0.53836964701E+03  0.00000000000E+00 0.  1.
         -1    1    6    6    0  502  0.42066799138E+03 -0.18611604218E+03 -0.17584384271E+03  0.49246502124E+03  0.00000000000E+00 0.  1.
<mgrwt>
<rscale>  0 0.15996478E+04</rscale>
<asrwt>0</asrwt>
<pdfrwt beam="1">  1        1 0.19050036E+00 0.15996478E+04</pdfrwt>
<pdfrwt beam="2">  1       -1 0.79481533E-01 0.15996478E+04</pdfrwt>
<totfact> 0.15210325E+01</totfact>
</mgrwt>
</event>
<event>
12    1  0.1556559E-007  0.1655697E+04  0.7818608E-02  0.8787043E-01
         -1   -1    0    0    0  501 -0.00000000000E+00  0.00000000000E+00  0.10112726806E+04  0.10112726806E+04  0.00000000000E+00 0.  1.
          1   -1    0    0  501    0  0.00000000000E+00 -0.00000000000E+00 -0.67769366572E+03  0.67769366572E+03  0.00000000000E+00 0. -1.
         23    2    1    2    0    0  0.87421586858E+02 -0.11754170400E+03  0.68798873480E+03  0.70914694897E+03  0.90012832389E+02 0.  0.
        254    2    1    2    0    0 -0.87421586858E+02  0.11754170400E+03 -0.35440971989E+03  0.97981939739E+03  0.90165470992E+03 0.  0.
        -24    2    4    4    0    0 -0.21996457613E+03  0.34566722558E+03  0.11728108896E+03  0.43320244226E+03  0.77712653749E+02 0.  0.
         24    2    4    4    0    0  0.13254298928E+03 -0.22812552158E+03 -0.47169080885E+03  0.54661695513E+03  0.81786177787E+02 0.  0.
         13    1    3    3    0    0 -0.15937220342E+01 -0.46691195562E+02  0.10164073455E+03  0.11186351779E+03  0.00000000000E+00 0. -1.
        -13    1    3    3    0    0  0.89015308892E+02 -0.70850508439E+02  0.58634800025E+03  0.59728343118E+03  0.00000000000E+00 0.  1.
          4    1    6    6  502    0  0.13510528977E+03 -0.16618456808E+03 -0.37019112366E+03  0.42768237984E+03  0.00000000000E+00 0. -1.
          1    1    5    5  503    0 -0.18194022265E+03  0.32723254493E+03  0.99892890950E+02  0.38750738411E+03  0.00000000000E+00 0. -1.
         -2    1    5    5    0  503 -0.38024353485E+02  0.18434680653E+02  0.17388198013E+02  0.45695058145E+02  0.00000000000E+00 0.  1.
         -3    1    6    6    0  502 -0.25623004948E+01 -0.61940953501E+02 -0.10149968519E+03  0.11893457529E+03  0.00000000000E+00 0.  1.
<mgrwt>
<rscale>  0 0.16556969E+04</rscale>
<asrwt>0</asrwt>
<pdfrwt beam="1">  1        1 0.10426056E+00 0.16556969E+04</pdfrwt>
<pdfrwt beam="2">  1       -1 0.15558041E+00 0.16556969E+04</pdfrwt>
<totfact> 0.86327979E+00</totfact>
</mgrwt>
</event>
<event>
12    1  0.1556559E-007  0.3394302E+04  0.7818608E-02  0.8139306E-01
         -1   -1    0    0    0  501 -0.00000000000E+00  0.00000000000E+00  0.95426979395E+03  0.95426979395E+03  0.00000000000E+00 0.  1.
          1   -1    0    0  501    0  0.00000000000E+00 -0.00000000000E+00 -0.30183507114E+04  0.30183507114E+04  0.00000000000E+00 0. -1.
         23    2    1    2    0    0 -0.83709701209E+03  0.11992707114E+04 -0.30265341052E+03  0.14962652946E+04  0.90714375559E+02 0.  0.
        254    2    1    2    0    0  0.83709701209E+03 -0.11992707114E+04 -0.17614275069E+04  0.24763552107E+04  0.94378314282E+03 0.  0.
        -24    2    4    4    0    0 -0.61957914847E+02 -0.25989414108E+03  0.83502087217E+01  0.27881231430E+03  0.79264322632E+02 0.  0.
         24    2    4    4    0    0  0.89905492694E+03 -0.93937657035E+03 -0.17697777156E+04  0.21975428964E+04  0.79708947580E+02 0.  0.
         13    1    3    3    0    0 -0.40814978834E+01  0.20052224190E+02  0.24507805737E+01  0.20609625066E+02  0.00000000000E+00 0. -1.
        -13    1    3    3    0    0 -0.83301551421E+03  0.11792184872E+04 -0.30510419109E+03  0.14756556695E+04  0.00000000000E+00 0.  1.
          2    1    6    6  502    0  0.80787102638E+03 -0.87551830893E+03 -0.16261457871E+04  0.20158219231E+04  0.00000000000E+00 0. -1.
          3    1    5    5  503    0 -0.31469318259E+02 -0.23500969325E+03 -0.52743480595E+01  0.23716596016E+03  0.00000000000E+00 0. -1.
         -2    1    5    5    0  503 -0.30488596588E+02 -0.24884447830E+02  0.13624556781E+02  0.41646354141E+02  0.00000000000E+00 0.  1.
         -1    1    6    6    0  502  0.91183900565E+02 -0.63858261424E+02 -0.14363192849E+03  0.18172097336E+03  0.00000000000E+00 0.  1.
<mgrwt>
<rscale>  0 0.33943016E+04</rscale>
<asrwt>0</asrwt>
<pdfrwt beam="1">  1        1 0.46436164E+00 0.33943016E+04</pdfrwt>
<pdfrwt beam="2">  1       -1 0.14681074E+00 0.33943016E+04</pdfrwt>
<totfact> 0.17618365E-01</totfact>
</mgrwt>
</event>
<event>
12    1  0.1556559E-007  0.1633461E+04  0.7818608E-02  0.8800251E-01
          2   -1    0    0  501    0  0.00000000000E+00  0.00000000000E+00  0.42328287966E+04  0.42328287966E+04  0.00000000000E+00 0. -1.
         -2   -1    0    0    0  501 -0.00000000000E+00 -0.00000000000E+00 -0.15758930318E+03  0.15758930318E+03  0.00000000000E+00 0.  1.
         23    2    1    2    0    0 -0.37251807757E+02 -0.43594435408E+03  0.46740231258E+03  0.64656271554E+03  0.90239937268E+02 0.  0.
        254    2    1    2    0    0  0.37251807757E+02  0.43594435408E+03  0.36078371808E+04  0.37438553842E+04  0.89918231610E+03 0.  0.
        -24    2    4    4    0    0 -0.26599244826E+02 -0.20221413054E+03  0.28587166258E+03  0.35949072733E+03  0.76895390990E+02 0.  0.
         24    2    4    4    0    0  0.63851052583E+02  0.63815848463E+03  0.33219655183E+04  0.33843646569E+04  0.84534123083E+02 0.  0.
         11    1    3    3    0    0 -0.45551352280E+02 -0.94587853139E+02  0.12012857768E+03  0.15953890696E+03  0.00000000000E+00 0. -1.
        -11    1    3    3    0    0  0.82995445236E+01 -0.34135650095E+03  0.34727373490E+03  0.48702380858E+03  0.00000000000E+00 0.  1.
          4    1    6    6  502    0  0.19614149121E+02  0.18417959441E+03  0.77063913609E+03  0.79258533668E+03  0.00000000000E+00 0. -1.
          3    1    5    5  503    0 -0.33156201996E+02 -0.47358627295E+02  0.11553243815E+03  0.12918946387E+03  0.00000000000E+00 0. -1.
         -4    1    5    5    0  503  0.65569571699E+01 -0.15485550325E+03  0.17033922443E+03  0.23030126347E+03  0.00000000000E+00 0.  1.
         -3    1    6    6    0  502  0.44236903462E+02  0.45397889022E+03  0.25513263822E+04  0.25917793202E+04  0.00000000000E+00 0.  1.
<mgrwt>
<rscale>  0 0.16334608E+04</rscale>
<asrwt>0</asrwt>
<pdfrwt beam="1">  1        2 0.65120435E+00 0.16334608E+04</pdfrwt>
<pdfrwt beam="2">  1       -2 0.24244511E-01 0.16334608E+04</pdfrwt>
<totfact> 0.32329098E+00</totfact>
</mgrwt>
</event>
<event>
12    1  0.1556559E-007  0.2348964E+04  0.7818608E-02  0.8458861E-01
          2   -1    0    0  501    0  0.00000000000E+00  0.00000000000E+00  0.16075971269E+04  0.16075971269E+04  0.00000000000E+00 0.  1.
         -2   -1    0    0    0  501 -0.00000000000E+00 -0.00000000000E+00 -0.85805612141E+03  0.85805612141E+03  0.00000000000E+00 0. -1.
         23    2    1    2    0    0 -0.27648532696E+03  0.34370124614E+03 -0.62415674812E+03  0.76992065006E+03  0.92905750904E+02 0.  0.
        254    2    1    2    0    0  0.27648532696E+03 -0.34370124614E+03  0.13736977536E+04  0.16957325983E+04  0.89100440172E+03 0.  0.
        -24    2    4    4    0    0  0.52624660362E+03 -0.29087363848E+03  0.12699276317E+04  0.14072981517E+04  0.78923611863E+02 0.  0.
         24    2    4    4    0    0 -0.24976127666E+03 -0.52827607653E+02  0.10377012189E+03  0.28843444657E+03  0.85174763426E+02 0.  0.
         11    1    3    3    0    0 -0.84835334380E+02  0.15699617484E+03 -0.19627531190E+03  0.26527124031E+03  0.00000000000E+00 0. -1.
        -11    1    3    3    0    0 -0.19164999258E+03  0.18670507130E+03 -0.42788143622E+03  0.50464940975E+03  0.00000000000E+00 0.  1.
          2    1    6    6  502    0 -0.10464773190E+03 -0.63180354948E+02  0.32803779085E+02  0.12656616043E+03  0.00000000000E+00 0. -1.
          1    1    5    5  503    0  0.21495408608E+03 -0.10501966024E+03  0.59200803795E+03  0.63852008986E+03  0.00000000000E+00 0. -1.
         -2    1    5    5    0  503  0.31129251754E+03 -0.18585397825E+03  0.67791959378E+03  0.76877806183E+03  0.00000000000E+00 0.  1.
         -1    1    6    6    0  502 -0.14511354476E+03  0.10352747294E+02  0.70966342801E+02  0.16186828614E+03  0.00000000000E+00 0.  1.
<mgrwt>
<rscale>  0 0.23489645E+04</rscale>
<asrwt>0</asrwt>
<pdfrwt beam="1">  1        2 0.24732263E+00 0.23489645E+04</pdfrwt>
<pdfrwt beam="2">  1       -2 0.13200863E+00 0.23489645E+04</pdfrwt>
<totfact> 0.41661468E+00</totfact>
</mgrwt>
</event>
<event>
12    1  0.1556559E-007  0.1192571E+04  0.7818608E-02  0.9119384E-01
          2   -1    0    0  501    0  0.00000000000E+00  0.00000000000E+00  0.71830634801E+03  0.71830634801E+03  0.00000000000E+00 0. -1.
         -2   -1    0    0    0  501 -0.00000000000E+00 -0.00000000000E+00 -0.49499309399E+03  0.49499309399E+03  0.00000000000E+00 0.  1.
         23    2    1    2    0    0  0.13369250941E+03  0.44647494978E+02 -0.14978707927E+03  0.22599280500E+03  0.93645570721E+02 0.  0.
        254    2    1    2    0    0 -0.13369250941E+03 -0.44647494978E+02  0.37310033329E+03  0.98730663701E+03  0.90316302565E+03 0.  0.
        -24    2    4    4    0    0 -0.26800895481E+03  0.31183940842E+03 -0.37781971836E+02  0.42074218792E+03  0.80770630780E+02 0.  0.
         24    2    4    4    0    0  0.13431644540E+03 -0.35648690339E+03  0.41088230513E+03  0.56656444909E+03  0.83947522350E+02 0.  0.
         11    1    3    3    0    0  0.14188522023E+00  0.14613212260E+02  0.83565328488E+01  0.16834421440E+02  0.00000000000E+00 0. -1.
        -11    1    3    3    0    0  0.13355062419E+03  0.30034282718E+02 -0.15814361212E+03  0.20915838356E+03  0.00000000000E+00 0.  1.
          4    1    6    6  502    0  0.14578459166E+03 -0.31822495182E+03  0.37293252950E+03  0.51146743659E+03  0.00000000000E+00 0. -1.
          1    1    5    5  503    0 -0.22352216919E+03  0.20644458245E+03 -0.19551327457E+02  0.30489962307E+03  0.00000000000E+00 0. -1.
         -2    1    5    5    0  503 -0.44486785616E+02  0.10539482597E+03 -0.18230644379E+02  0.11584256485E+03  0.00000000000E+00 0.  1.
         -3    1    6    6    0  502 -0.11468146259E+02 -0.38261951571E+02  0.37949775624E+02  0.55097012501E+02  0.00000000000E+00 0.  1.
<mgrwt>
<rscale>  0 0.11925715E+04</rscale>
<asrwt>0</asrwt>
<pdfrwt beam="1">  1        2 0.11050867E+00 0.11925715E+04</pdfrwt>
<pdfrwt beam="2">  1       -2 0.76152784E-01 0.11925715E+04</pdfrwt>
<totfact> 0.60447156E+01</totfact>
</mgrwt>
</event>
<event>
12    1  0.1556559E-007  0.2278557E+04  0.7818608E-02  0.8486424E-01
          2   -1    0    0  501    0  0.00000000000E+00  0.00000000000E+00  0.17348549154E+04  0.17348549154E+04  0.00000000000E+00 0.  1.
         -2   -1    0    0    0  501 -0.00000000000E+00 -0.00000000000E+00 -0.74816399338E+03  0.74816399338E+03  0.00000000000E+00 0. -1.
         23    2    1    2    0    0  0.32263220670E+02 -0.19307318102E+03  0.14411818137E+04  0.14567176388E+04  0.81872402445E+02 0.  0.
        254    2    1    2    0    0 -0.32263220670E+02  0.19307318102E+03 -0.45449089170E+03  0.10263012700E+04  0.89911854478E+03 0.  0.
        -24    2    4    4    0    0  0.12089338818E+02 -0.34283650838E+03 -0.66416723941E+02  0.35844843107E+03  0.79944186282E+02 0.  0.
         24    2    4    4    0    0 -0.44352559488E+02  0.53590968940E+03 -0.38807416776E+03  0.66785283895E+03  0.79117065680E+02 0.  0.
         11    1    3    3    0    0 -0.14473374602E+02 -0.65881795731E+02  0.70070693716E+03  0.70394609265E+03  0.00000000000E+00 0. -1.
        -11    1    3    3    0    0  0.46736595272E+02 -0.12719138529E+03  0.74047487655E+03  0.75277154610E+03  0.00000000000E+00 0.  1.
          4    1    6    6  502    0 -0.61831081072E+01  0.27700967856E+03 -0.24352949494E+03  0.36888915374E+03  0.00000000000E+00 0. -1.
          3    1    5    5  503    0  0.87646441444E-01 -0.90053766368E+02 -0.54157107777E+02  0.10508416076E+03  0.00000000000E+00 0. -1.
         -4    1    5    5    0  503  0.12001692377E+02 -0.25278274202E+03 -0.12259616163E+02  0.25336427031E+03  0.00000000000E+00 0.  1.
         -3    1    6    6    0  502 -0.38169451381E+02  0.25890001084E+03 -0.14454467282E+03  0.29896368520E+03  0.00000000000E+00 0.  1.
<mgrwt>
<rscale>  0 0.22785574E+04</rscale>
<asrwt>0</asrwt>
<pdfrwt beam="1">  1        2 0.26690075E+00 0.22785574E+04</pdfrwt>
<pdfrwt beam="2">  1       -2 0.11510215E+00 0.22785574E+04</pdfrwt>
<totfact> 0.50119981E+00</totfact>
</mgrwt>
</event>
<event>
12    1  0.1556559E-007  0.1416711E+04  0.7818608E-02  0.8941810E-01
          2   -1    0    0  501    0  0.00000000000E+00  0.00000000000E+00  0.24213777295E+04  0.24213777295E+04  0.00000000000E+00 0. -1.
         -2   -1    0    0    0  501 -0.00000000000E+00 -0.00000000000E+00 -0.20722409235E+03  0.20722409235E+03  0.00000000000E+00 0.  1.
         23    2    1    2    0    0 -0.41864548270E+03  0.41207579645E+02  0.69450054119E+03  0.81758070787E+03  0.95630054724E+02 0.  0.
        254    2    1    2    0    0  0.41864548270E+03 -0.41207579645E+02  0.15196530960E+04  0.18110211140E+04  0.89078046590E+03 0.  0.
        -24    2    4    4    0    0 -0.15607663374E+03  0.12632846998E+03  0.49546131645E+02  0.22175320077E+03  0.80005405839E+02 0.  0.
         24    2    4    4    0    0  0.57472211643E+03 -0.16753604962E+03  0.14701069643E+04  0.15892679132E+04  0.78639521937E+02 0.  0.
         11    1    3    3    0    0 -0.82695059999E+01 -0.88448839868E+00 -0.15559057827E+01  0.84609628302E+01  0.00000000000E+00 0. -1.
        -11    1    3    3    0    0 -0.41037597670E+03  0.42092068043E+02  0.69605644697E+03  0.80911974504E+03  0.00000000000E+00 0.  1.
          2    1    6    6  502    0  0.44206261349E+02  0.78042137576E+01  0.11912583012E+03  0.12730303491E+03  0.00000000000E+00 0. -1.
          3    1    5    5  503    0  0.27649928161E+01 -0.60513899656E+01  0.87532024696E+01  0.10994683227E+02  0.00000000000E+00 0. -1.
         -4    1    5    5    0  503 -0.15884162655E+03  0.13237985994E+03  0.40792929176E+02  0.21075851754E+03  0.00000000000E+00 0.  1.
         -1    1    6    6    0  502  0.53051585509E+03 -0.17534026338E+03  0.13509811342E+04  0.14619648783E+04  0.00000000000E+00 0.  1.
<mgrwt>
<rscale>  0 0.14167114E+04</rscale>
<asrwt>0</asrwt>
<pdfrwt beam="1">  1        2 0.37251963E+00 0.14167114E+04</pdfrwt>
<pdfrwt beam="2">  1       -2 0.31880631E-01 0.14167114E+04</pdfrwt>
<totfact> 0.34470112E+01</totfact>
</mgrwt>
</event>
<event>
12    1  0.1556559E-007  0.1003737E+04  0.7818608E-02  0.9304456E-01
         -1   -1    0    0    0  501 -0.00000000000E+00  0.00000000000E+00  0.39208264855E+03  0.39208264855E+03  0.00000000000E+00 0.  1.
          1   -1    0    0  501    0  0.00000000000E+00 -0.00000000000E+00 -0.64239475420E+03  0.64239475420E+03  0.00000000000E+00 0. -1.
         23    2    1    2    0    0  0.28391136339E+02 -0.36349845587E+02 -0.15568733924E+03  0.18620782129E+03  0.91145143670E+02 0.  0.
        254    2    1    2    0    0 -0.28391136339E+02  0.36349845587E+02 -0.94624766410E+02  0.84826958146E+03  0.84171258070E+03 0.  0.
        -24    2    4    4    0    0 -0.31093113388E+03 -0.24686976386E+03  0.62175471913E+02  0.41172152226E+03  0.89587790793E+02 0.  0.
         24    2    4    4    0    0  0.28253999755E+03  0.28321960945E+03 -0.15680023832E+03  0.43654805920E+03  0.77108338477E+02 0.  0.
         11    1    3    3    0    0  0.18150914589E+02 -0.22583017161E+02 -0.16442165701E+03  0.16695487312E+03  0.00000000000E+00 0. -1.
        -11    1    3    3    0    0  0.10240221750E+02 -0.13766828426E+02  0.87343177716E+01  0.19252948173E+02  0.00000000000E+00 0.  1.
          4    1    6    6  502    0  0.20628002692E+03  0.15719575251E+03 -0.11278375737E+03  0.28281112079E+03  0.00000000000E+00 0. -1.
          1    1    5    5  503    0 -0.26489030736E+03 -0.16365424666E+03  0.56477924082E+02  0.31644801041E+03  0.00000000000E+00 0. -1.
         -2    1    5    5    0  503 -0.46040826529E+02 -0.83215517199E+02  0.56975478314E+01  0.95273511856E+02  0.00000000000E+00 0.  1.
         -3    1    6    6    0  502  0.76259970625E+02  0.12602385693E+03 -0.44016480950E+02  0.15373693841E+03  0.00000000000E+00 0.  1.
<mgrwt>
<rscale>  0 0.10037367E+04</rscale>
<asrwt>0</asrwt>
<pdfrwt beam="1">  1        1 0.98829962E-01 0.10037367E+04</pdfrwt>
<pdfrwt beam="2">  1       -1 0.60320408E-01 0.10037367E+04</pdfrwt>
<totfact> 0.86594818E+01</totfact>
</mgrwt>
</event>
<event>
12    1  0.1556559E-007  0.1774232E+04  0.7818608E-02  0.8720124E-01
         -2   -1    0    0    0  501 -0.00000000000E+00  0.00000000000E+00  0.45422270264E+03  0.45422270264E+03  0.00000000000E+00 0.  1.
          2   -1    0    0  501    0  0.00000000000E+00 -0.00000000000E+00 -0.17325745956E+04  0.17325745956E+04  0.00000000000E+00 0. -1.
         23    2    1    2    0    0  0.47893385440E+03 -0.13433687742E+03 -0.10104904389E+04  0.11298844354E+04  0.90132550738E+02 0.  0.
        254    2    1    2    0    0 -0.47893385440E+03  0.13433687742E+03 -0.26786145403E+03  0.10569128628E+04  0.89324745034E+03 0.  0.
        -24    2    4    4    0    0 -0.29763286133E+03 -0.20119428566E+03 -0.48659412993E+03  0.61009974979E+03  0.79896161851E+02 0.  0.
         24    2    4    4    0    0 -0.18130099307E+03  0.33553116308E+03  0.21873267590E+03  0.44681311304E+03  0.79666573878E+02 0.  0.
         11    1    3    3    0    0  0.37286476626E+02 -0.38268275517E+02 -0.11433401572E+03  0.12620225592E+03  0.00000000000E+00 0.  1.
        -11    1    3    3    0    0  0.44164737777E+03 -0.96068601904E+02 -0.89615642323E+03  0.10036821795E+04  0.00000000000E+00 0. -1.
          4    1    6    6  502    0 -0.16825276503E+02  0.96130205098E+02  0.72823134063E+02  0.12176746329E+03  0.00000000000E+00 0. -1.
          3    1    5    5  503    0 -0.22350671138E+02  0.62364111912E+01 -0.34995262056E+02  0.41989447379E+02  0.00000000000E+00 0. -1.
         -4    1    5    5    0  503 -0.27528219019E+03 -0.20743069685E+03 -0.45159886788E+03  0.56811030241E+03  0.00000000000E+00 0.  1.
         -3    1    6    6    0  502 -0.16447571656E+03  0.23940095799E+03  0.14590954184E+03  0.32504564975E+03  0.00000000000E+00 0.  1.
<mgrwt>
<rscale>  0 0.17742319E+04</rscale>
<asrwt>0</asrwt>
<pdfrwt beam="1">  1        2 0.26654993E+00 0.17742319E+04</pdfrwt>
<pdfrwt beam="2">  1       -2 0.69880417E-01 0.17742319E+04</pdfrwt>
<totfact> 0.16601216E+01</totfact>
</mgrwt>
</event>
<event>
12    1  0.1556559E-007  0.1804633E+04  0.7818608E-02  0.8703840E-01
         -2   -1    0    0    0  501 -0.00000000000E+00  0.00000000000E+00  0.41873870268E+03  0.41873870268E+03  0.00000000000E+00 0.  1.
          2   -1    0    0  501    0  0.00000000000E+00 -0.00000000000E+00 -0.19443507422E+04  0.19443507422E+04  0.00000000000E+00 0. -1.
         23    2    1    2    0    0  0.21451539727E+03 -0.60471575579E+03 -0.84371668557E+03  0.10639982961E+04  0.92393331306E+02 0.  0.
        254    2    1    2    0    0 -0.21451539727E+03  0.60471575579E+03 -0.68189535391E+03  0.12990911487E+04  0.90053236367E+03 0.  0.
        -24    2    4    4    0    0  0.48993879651E+02 -0.10613422054E+03 -0.49366860864E+03  0.51337254942E+03  0.78599022465E+02 0.  0.
         24    2    4    4    0    0 -0.26350927693E+03  0.71084997633E+03 -0.18822674528E+03  0.78571859930E+03  0.84732412711E+02 0.  0.
         13    1    3    3    0    0  0.80698507984E+02 -0.16930972050E+03 -0.18770136128E+03  0.26534850983E+03  0.00000000000E+00 0.  1.
        -13    1    3    3    0    0  0.13381688929E+03 -0.43540603529E+03 -0.65601532429E+03  0.79864978629E+03  0.00000000000E+00 0. -1.
          4    1    6    6  502    0 -0.18017149308E+03  0.36971043553E+03 -0.88959431207E+02  0.42078658897E+03  0.00000000000E+00 0. -1.
          1    1    5    5  503    0  0.37875580968E+02 -0.23764572210E+02 -0.28951945387E+03  0.29295192216E+03  0.00000000000E+00 0. -1.
         -2    1    5    5    0  503  0.11118298683E+02 -0.82369648330E+02 -0.20414915477E+03  0.22042062727E+03  0.00000000000E+00 0.  1.
         -3    1    6    6    0  502 -0.83337783842E+02  0.34113954080E+03 -0.99267314070E+02  0.36493201032E+03  0.00000000000E+00 0.  1.
<mgrwt>
<rscale>  0 0.18046328E+04</rscale>
<asrwt>0</asrwt>
<pdfrwt beam="1">  1        2 0.29913089E+00 0.18046328E+04</pdfrwt>
<pdfrwt beam="2">  1       -2 0.64421338E-01 0.18046328E+04</pdfrwt>
<totfact> 0.15068133E+01</totfact>
</mgrwt>
</event>
<event>
12    1  0.1556559E-007  0.1870644E+04  0.7818608E-02  0.8669608E-01
         -1   -1    0    0    0  501 -0.00000000000E+00  0.00000000000E+00  0.87931112642E+03  0.87931112642E+03  0.00000000000E+00 0.  1.
          1   -1    0    0  501    0  0.00000000000E+00 -0.00000000000E+00 -0.99490045429E+03  0.99490045429E+03  0.00000000000E+00 0. -1.
         23    2    1    2    0    0  0.64667217666E+03  0.42462819721E+02 -0.35690851881E+03  0.74533278159E+03  0.90273303816E+02 0.  0.
        254    2    1    2    0    0 -0.64667217666E+03 -0.42462819721E+02  0.24131919094E+03  0.11288787991E+04  0.89226923966E+03 0.  0.
        -24    2    4    4    0    0 -0.56029574187E+03  0.36391761889E+03  0.81550426044E+02  0.67676170091E+03  0.70629853058E+02 0.  0.
         24    2    4    4    0    0 -0.86376434796E+02 -0.40638043861E+03  0.15976876490E+03  0.45211709820E+03  0.79232965842E+02 0.  0.
         11    1    3    3    0    0  0.89050682286E+02  0.37640217849E+02 -0.53132525468E+02  0.11031715768E+03  0.00000000000E+00 0.  1.
        -11    1    3    3    0    0  0.55762149438E+03  0.48226018716E+01 -0.30377599334E+03  0.63501562391E+03  0.00000000000E+00 0. -1.
          4    1    6    6  502    0 -0.60676434792E+02 -0.20627836604E+03  0.12084987030E+03  0.24665174881E+03  0.00000000000E+00 0. -1.
          1    1    5    5  503    0 -0.13733461408E+03  0.12368293863E+03  0.98575144073E+01  0.18508224151E+03  0.00000000000E+00 0. -1.
         -2    1    5    5    0  503 -0.42296112779E+03  0.24023468026E+03  0.71692911637E+02  0.49167945940E+03  0.00000000000E+00 0.  1.
         -3    1    6    6    0  502 -0.25700000003E+02 -0.20010207257E+03  0.38918894593E+02  0.20546534939E+03  0.00000000000E+00 0.  1.
<mgrwt>
<rscale>  0 0.18706438E+04</rscale>
<asrwt>0</asrwt>
<pdfrwt beam="1">  1        1 0.15306161E+00 0.18706438E+04</pdfrwt>
<pdfrwt beam="2">  1       -1 0.13527864E+00 0.18706438E+04</pdfrwt>
<totfact> 0.65639423E+00</totfact>
</mgrwt>
</event>
<event>
12    1  0.1556559E-007  0.1268406E+04  0.7818608E-02  0.9055002E-01
         -2   -1    0    0    0  501 -0.00000000000E+00  0.00000000000E+00  0.26848988001E+03  0.26848988001E+03  0.00000000000E+00 0.  1.
          2   -1    0    0  501    0  0.00000000000E+00 -0.00000000000E+00 -0.14980576034E+04  0.14980576034E+04  0.00000000000E+00 0. -1.
         23    2    1    2    0    0 -0.19912549470E+03 -0.46617112735E+02  0.38636452888E+01  0.22410212976E+03  0.91557189620E+02 0.  0.
        254    2    1    2    0    0  0.19912549470E+03  0.46617112735E+02 -0.12334313687E+04  0.15424453536E+04  0.90330538020E+03 0.  0.
        -24    2    4    4    0    0  0.31973466814E+03 -0.33902101686E+03 -0.88251969118E+03  0.10012414741E+04  0.80485876118E+02 0.  0.
         24    2    4    4    0    0 -0.12060917345E+03  0.38563812959E+03 -0.35091167749E+03  0.54120387954E+03  0.80618199607E+02 0.  0.
         13    1    3    3    0    0 -0.10820713259E+03 -0.75004372322E+01 -0.40311339692E+02  0.11571535858E+03  0.00000000000E+00 0. -1.
        -13    1    3    3    0    0 -0.90918362103E+02 -0.39116675503E+02  0.44174984981E+02  0.10838677119E+03  0.00000000000E+00 0.  1.
          2    1    6    6  502    0 -0.11786057573E+03  0.27051569593E+03 -0.22906449430E+03  0.37355106693E+03  0.00000000000E+00 0. -1.
          3    1    5    5  503    0  0.31209641814E+03 -0.34226715160E+03 -0.85387011230E+03  0.97141399309E+03  0.00000000000E+00 0. -1.
         -4    1    5    5    0  503  0.76382500042E+01  0.32461347400E+01 -0.28649578874E+02  0.29827481012E+02  0.00000000000E+00 0.  1.
         -1    1    6    6    0  502 -0.27485977147E+01  0.11512243366E+03 -0.12184718320E+03  0.16765281261E+03  0.00000000000E+00 0.  1.
<mgrwt>
<rscale>  0 0.12684058E+04</rscale>
<asrwt>0</asrwt>
<pdfrwt beam="1">  1        2 0.23047041E+00 0.12684058E+04</pdfrwt>
<pdfrwt beam="2">  1       -2 0.41306134E-01 0.12684058E+04</pdfrwt>
<totfact> 0.69374464E+01</totfact>
</mgrwt>
</event>
<event>
12    1  0.1556559E-007  0.2612105E+04  0.7818608E-02  0.8364101E-01
         -1   -1    0    0    0  501 -0.00000000000E+00  0.00000000000E+00  0.10896565199E+04  0.10896565199E+04  0.00000000000E+00 0. -1.
          1   -1    0    0  501    0  0.00000000000E+00 -0.00000000000E+00 -0.15654222212E+04  0.15654222212E+04  0.00000000000E+00 0.  1.
         23    2    1    2    0    0  0.14770331597E+03  0.66494540368E+03 -0.11501953654E+04  0.13398551127E+04  0.91069671210E+02 0.  0.
        254    2    1    2    0    0 -0.14770331597E+03 -0.66494540368E+03  0.67442966411E+03  0.13152236284E+04  0.90054936649E+03 0.  0.
        -24    2    4    4    0    0 -0.28032494743E+03  0.38371769729E+02  0.48990368677E+03  0.57186590794E+03  0.83489672984E+02 0.  0.
         24    2    4    4    0    0  0.13262163146E+03 -0.70331717341E+03  0.18452597735E+03  0.74335772048E+03  0.79292627260E+02 0.  0.
         13    1    3    3    0    0  0.56180310347E+01  0.21897342518E+03 -0.37786194513E+03  0.43676145982E+03  0.00000000000E+00 0. -1.
        -13    1    3    3    0    0  0.14208528493E+03  0.44597197850E+03 -0.77233342027E+03  0.90309365288E+03  0.00000000000E+00 0.  1.
          2    1    6    6  502    0  0.94627121424E+02 -0.29935795484E+03  0.68362048498E+02  0.32131424946E+03  0.00000000000E+00 0. -1.
          3    1    5    5  503    0 -0.11475992893E+02 -0.13222287480E+02  0.57352514737E+02  0.59965308685E+02  0.00000000000E+00 0. -1.
         -4    1    5    5    0  503 -0.26884895454E+03  0.51594057208E+02  0.43255117203E+03  0.51190059925E+03  0.00000000000E+00 0.  1.
         -1    1    6    6    0  502  0.37994510036E+02 -0.40395921857E+03  0.11616392885E+03  0.42204347102E+03  0.00000000000E+00 0.  1.
<mgrwt>
<rscale>  0 0.26121045E+04</rscale>
<asrwt>0</asrwt>
<pdfrwt beam="1">  1        1 0.24083419E+00 0.26121045E+04</pdfrwt>
<pdfrwt beam="2">  1       -1 0.16763946E+00 0.26121045E+04</pdfrwt>
<totfact> 0.13284169E+00</totfact>
</mgrwt>
</event>
<event>
12    1  0.1556559E-007  0.2169683E+04  0.7818608E-02  0.8531154E-01
         -1   -1    0    0    0  501 -0.00000000000E+00  0.00000000000E+00  0.40100433695E+03  0.40100433695E+03  0.00000000000E+00 0.  1.
          1   -1    0    0  501    0  0.00000000000E+00 -0.00000000000E+00 -0.29348331524E+04  0.29348331524E+04  0.00000000000E+00 0. -1.
         23    2    1    2    0    0 -0.66114670841E+03 -0.37496509634E+03 -0.30937683485E+03  0.82620397670E+03  0.95839405553E+02 0.  0.
        254    2    1    2    0    0  0.66114670841E+03  0.37496509634E+03 -0.22244519806E+04  0.25096335127E+04  0.87884012215E+03 0.  0.
        -24    2    4    4    0    0  0.14006725602E+03 -0.25299465483E+03 -0.93187627603E+03  0.97889734146E+03  0.78876357086E+02 0.  0.
         24    2    4    4    0    0  0.52107945238E+03  0.62795975117E+03 -0.12925757046E+04  0.15307361712E+04  0.80895172709E+02 0.  0.
         11    1    3    3    0    0 -0.11034947369E+03 -0.10449227049E+03 -0.73416605697E+02  0.16877689098E+03  0.00000000000E+00 0. -1.
        -11    1    3    3    0    0 -0.55079723472E+03 -0.27047282585E+03 -0.23596022915E+03  0.65742708572E+03  0.00000000000E+00 0.  1.
          2    1    6    6  502    0  0.27346688313E+03  0.37450238798E+03 -0.78453360906E+03  0.91133372511E+03  0.00000000000E+00 0. -1.
          1    1    5    5  503    0  0.57371953186E+01 -0.31818565385E+02 -0.47651367210E+02  0.57584627378E+02  0.00000000000E+00 0. -1.
         -2    1    5    5    0  503  0.13433006070E+03 -0.22117608944E+03 -0.88422490882E+03  0.92131271408E+03  0.00000000000E+00 0.  1.
         -1    1    6    6    0  502  0.24761256926E+03  0.25345736318E+03 -0.50804209552E+03  0.61940244609E+03  0.00000000000E+00 0.  1.
<mgrwt>
<rscale>  0 0.21696828E+04</rscale>
<asrwt>0</asrwt>
<pdfrwt beam="1">  1        1 0.45151282E+00 0.21696828E+04</pdfrwt>
<pdfrwt beam="2">  1       -1 0.61692971E-01 0.21696828E+04</pdfrwt>
<totfact> 0.16255046E+00</totfact>
</mgrwt>
</event>
<event>
12    1  0.1556559E-007  0.2300889E+04  0.7818608E-02  0.8477571E-01
          1   -1    0    0  501    0  0.00000000000E+00  0.00000000000E+00  0.22874793187E+04  0.22874793187E+04  0.00000000000E+00 0. -1.
         -1   -1    0    0    0  501 -0.00000000000E+00 -0.00000000000E+00 -0.57859415560E+03  0.57859415560E+03  0.00000000000E+00 0.  1.
         23    2    1    2    0    0  0.52309000630E+03  0.80039123532E+03  0.94755663967E+03  0.13488830638E+04  0.85864137164E+02 0.  0.
        254    2    1    2    0    0 -0.52309000630E+03 -0.80039123532E+03  0.76132852340E+03  0.15171904105E+04  0.89888616463E+03 0.  0.
        -24    2    4    4    0    0 -0.76286615924E+03 -0.48957262968E+03  0.56277135825E+03  0.10701659341E+04  0.83050516069E+02 0.  0.
         24    2    4    4    0    0  0.23977615294E+03 -0.31081860564E+03  0.19855716515E+03  0.44702447641E+03  0.79404820655E+02 0.  0.
         13    1    3    3    0    0  0.50733633302E+03  0.77734103216E+03  0.93724607668E+03  0.13191207084E+04  0.00000000000E+00 0. -1.
        -13    1    3    3    0    0  0.15753673280E+02  0.23050203155E+02  0.10310562995E+02  0.29762355360E+02  0.00000000000E+00 0.  1.
          2    1    6    6  502    0  0.16937866826E+03 -0.26933930892E+03  0.16789363546E+03  0.35975139947E+03  0.00000000000E+00 0. -1.
          1    1    5    5  503    0 -0.48594788444E+03 -0.33899250624E+03  0.32890887282E+03  0.67767419332E+03  0.00000000000E+00 0. -1.
         -2    1    5    5    0  503 -0.27691827480E+03 -0.15058012344E+03  0.23386248543E+03  0.39249174079E+03  0.00000000000E+00 0.  1.
         -1    1    6    6    0  502  0.70397484677E+02 -0.41479296724E+02  0.30663529688E+02  0.87273076940E+02  0.00000000000E+00 0.  1.
<mgrwt>
<rscale>  0 0.23008887E+04</rscale>
<asrwt>0</asrwt>
<pdfrwt beam="1">  1        1 0.35191989E+00 0.23008887E+04</pdfrwt>
<pdfrwt beam="2">  1       -1 0.89014487E-01 0.23008887E+04</pdfrwt>
<totfact> 0.21230192E+00</totfact>
</mgrwt>
</event>
<event>
12    1  0.1556559E-007  0.2310481E+04  0.7818608E-02  0.8473800E-01
          2   -1    0    0  501    0  0.00000000000E+00  0.00000000000E+00  0.16260133304E+04  0.16260133304E+04  0.00000000000E+00 0. -1.
         -2   -1    0    0    0  501 -0.00000000000E+00 -0.00000000000E+00 -0.82076860487E+03  0.82076860487E+03  0.00000000000E+00 0.  1.
         23    2    1    2    0    0 -0.86601214228E+03  0.25848995612E+03  0.74732243439E+03  0.11762921094E+04  0.91532605004E+02 0.  0.
        254    2    1    2    0    0  0.86601214228E+03 -0.25848995612E+03  0.57922291098E+02  0.12704898258E+04  0.89106414900E+03 0.  0.
        -24    2    4    4    0    0  0.17520924077E+03 -0.30033540672E+03 -0.31880772238E+03  0.47839562624E+03  0.79525950347E+02 0.  0.
         24    2    4    4    0    0  0.69080290151E+03  0.41845450604E+02  0.37673001348E+03  0.79209419955E+03  0.80796209256E+02 0.  0.
         13    1    3    3    0    0 -0.28310812884E+03  0.12163165176E+03  0.22225418397E+03  0.37992287852E+03  0.00000000000E+00 0.  1.
        -13    1    3    3    0    0 -0.58290401343E+03  0.13685830436E+03  0.52506825042E+03  0.79636923091E+03  0.00000000000E+00 0. -1.
          4    1    6    6  502    0  0.49393556983E+03  0.25177016428E+02  0.22693246878E+03  0.54415491791E+03  0.00000000000E+00 0. -1.
          1    1    5    5  503    0 -0.58304197630E+01 -0.14563383285E+02 -0.28870209873E+02  0.32856885814E+02  0.00000000000E+00 0. -1.
         -2    1    5    5    0  503  0.18103966053E+03 -0.28577202344E+03 -0.28993751251E+03  0.44553874043E+03  0.00000000000E+00 0.  1.
         -3    1    6    6    0  502  0.19686733168E+03  0.16668434176E+02  0.14979754470E+03  0.24793928164E+03  0.00000000000E+00 0.  1.
<mgrwt>
<rscale>  0 0.23104811E+04</rscale>
<asrwt>0</asrwt>
<pdfrwt beam="1">  1        2 0.25015590E+00 0.23104811E+04</pdfrwt>
<pdfrwt beam="2">  1       -2 0.12627209E+00 0.23104811E+04</pdfrwt>
<totfact> 0.45669277E+00</totfact>
</mgrwt>
</event>
<event>
12    1  0.1556559E-007  0.1142273E+04  0.7818608E-02  0.9164942E-01
          2   -1    0    0  501    0  0.00000000000E+00  0.00000000000E+00  0.81195212160E+03  0.81195212160E+03  0.00000000000E+00 0. -1.
         -2   -1    0    0    0  501 -0.00000000000E+00 -0.00000000000E+00 -0.40174413967E+03  0.40174413967E+03  0.00000000000E+00 0.  1.
         23    2    1    2    0    0  0.92564878323E+02 -0.84790220249E+02  0.30088596474E+03  0.33687260060E+03  0.84812423080E+02 0.  0.
        254    2    1    2    0    0 -0.92564878323E+02  0.84790220249E+02  0.10932201720E+03  0.87682366067E+03  0.86087791836E+03 0.  0.
        -24    2    4    4    0    0 -0.65302758849E+02  0.33449407965E+03  0.36713628696E+03  0.50729282094E+03  0.80038823948E+02 0.  0.
         24    2    4    4    0    0 -0.27262119474E+02 -0.24970385940E+03 -0.25781426976E+03  0.36953083973E+03  0.83603847172E+02 0.  0.
         13    1    3    3    0    0  0.24210179998E+00  0.34029133654E+01 -0.46299205720E+01  0.57510518304E+01  0.00000000000E+00 0.  1.
        -13    1    3    3    0    0  0.92322776523E+02 -0.88193133615E+02  0.30551588531E+03  0.33112154877E+03  0.00000000000E+00 0. -1.
          4    1    6    6  502    0 -0.19370046114E+02 -0.19686164867E+02 -0.57690031686E+01  0.28213918040E+02  0.00000000000E+00 0. -1.
          3    1    5    5  503    0 -0.48280288764E+01  0.96412677642E+02  0.58651872242E+02  0.11295466520E+03  0.00000000000E+00 0. -1.
         -4    1    5    5    0  503 -0.60474729972E+02  0.23808140201E+03  0.30848441472E+03  0.39433815574E+03  0.00000000000E+00 0.  1.
         -3    1    6    6    0  502 -0.78920733605E+01 -0.23001769453E+03 -0.25204526660E+03  0.34131692169E+03  0.00000000000E+00 0.  1.
<mgrwt>
<rscale>  0 0.11422732E+04</rscale>
<asrwt>0</asrwt>
<pdfrwt beam="1">  1        2 0.12491571E+00 0.11422732E+04</pdfrwt>
<pdfrwt beam="2">  1       -2 0.61806791E-01 0.11422732E+04</pdfrwt>
<totfact> 0.81356952E+01</totfact>
</mgrwt>
</event>
<event>
12    1  0.1556559E-007  0.2023500E+04  0.7818608E-02  0.8595712E-01
         -2   -1    0    0    0  501 -0.00000000000E+00  0.00000000000E+00  0.49724780454E+03  0.49724780454E+03  0.00000000000E+00 0.  1.
          2   -1    0    0  501    0  0.00000000000E+00 -0.00000000000E+00 -0.20586064931E+04  0.20586064931E+04  0.00000000000E+00 0. -1.
         23    2    1    2    0    0  0.74692425432E+03 -0.32344706286E+03 -0.66355191083E+03  0.10558012217E+04  0.10909279201E+03 0.  0.
        254    2    1    2    0    0 -0.74692425432E+03  0.32344706286E+03 -0.89780677769E+03  0.15000530759E+04  0.88407487024E+03 0.  0.
        -24    2    4    4    0    0 -0.92175420129E+03  0.17636152246E+03 -0.81044027875E+03  0.12426777356E+04  0.81855452112E+02 0.  0.
         24    2    4    4    0    0  0.17482994696E+03  0.14708554040E+03 -0.87366498932E+02  0.25737534023E+03  0.80059315944E+02 0.  0.
         11    1    3    3    0    0  0.24679037625E+03 -0.53575836430E+02 -0.21927463218E+03  0.33445063070E+03  0.00000000000E+00 0.  1.
        -11    1    3    3    0    0  0.50013387807E+03 -0.26987122643E+03 -0.44427727864E+03  0.72135059102E+03  0.00000000000E+00 0. -1.
          4    1    6    6  502    0  0.12202017772E+03  0.64852627788E+02 -0.22312496468E+02  0.13997369253E+03  0.00000000000E+00 0. -1.
          3    1    5    5  503    0 -0.14207935574E+02  0.13674163194E+02 -0.12674409706E+02  0.23441178164E+02  0.00000000000E+00 0. -1.
         -4    1    5    5    0  503 -0.90754626571E+03  0.16268735926E+03 -0.79776586905E+03  0.12192365575E+04  0.00000000000E+00 0.  1.
         -3    1    6    6    0  502  0.52809769242E+02  0.82232912615E+02 -0.65054002464E+02  0.11740164769E+03  0.00000000000E+00 0.  1.
<mgrwt>
<rscale>  0 0.20234995E+04</rscale>
<asrwt>0</asrwt>
<pdfrwt beam="1">  1        2 0.31670869E+00 0.20234995E+04</pdfrwt>
<pdfrwt beam="2">  1       -2 0.76499663E-01 0.20234995E+04</pdfrwt>
<totfact> 0.87802705E+00</totfact>
</mgrwt>
</event>
<event>
12    1  0.1556559E-007  0.2039639E+04  0.7818608E-02  0.8588309E-01
          1   -1    0    0  501    0  0.00000000000E+00  0.00000000000E+00  0.14645345381E+04  0.14645345381E+04  0.00000000000E+00 0. -1.
         -1   -1    0    0    0  501 -0.00000000000E+00 -0.00000000000E+00 -0.71014503371E+03  0.71014503371E+03  0.00000000000E+00 0.  1.
         23    2    1    2    0    0  0.40956483064E+03 -0.71167134050E+03  0.31052112117E+03  0.88259971747E+03  0.91320573790E+02 0.  0.
        254    2    1    2    0    0 -0.40956483064E+03  0.71167134050E+03  0.44386838318E+03  0.12920798543E+04  0.89343816848E+03 0.  0.
        -24    2    4    4    0    0 -0.42643609756E+03  0.32924202281E+03 -0.16435262441E+03  0.56902762925E+03  0.80824518644E+02 0.  0.
         24    2    4    4    0    0  0.16871266916E+02  0.38242931769E+03  0.60822100759E+03  0.72305222504E+03  0.79592106323E+02 0.  0.
         11    1    3    3    0    0  0.19080825006E+03 -0.36683467587E+03  0.11120838332E+03  0.42818544140E+03  0.00000000000E+00 0. -1.
        -11    1    3    3    0    0  0.21875658059E+03 -0.34483666464E+03  0.19931273785E+03  0.45441427607E+03  0.00000000000E+00 0.  1.
          2    1    6    6  502    0 -0.20575175634E+02  0.13620276184E+03  0.26901504103E+03  0.30223107466E+03  0.00000000000E+00 0. -1.
          3    1    5    5  503    0 -0.38120433534E+03  0.32184826617E+03 -0.15247241828E+03  0.52168083160E+03  0.00000000000E+00 0. -1.
         -4    1    5    5    0  503 -0.45231762217E+02  0.73937566454E+01 -0.11880206137E+02  0.47346797658E+02  0.00000000000E+00 0.  1.
         -1    1    6    6    0  502  0.37446442550E+02  0.24622655585E+03  0.33920596655E+03  0.42082115039E+03  0.00000000000E+00 0.  1.
<mgrwt>
<rscale>  0 0.20396391E+04</rscale>
<asrwt>0</asrwt>
<pdfrwt beam="1">  1        1 0.22531301E+00 0.20396391E+04</pdfrwt>
<pdfrwt beam="2">  1       -1 0.10925308E+00 0.20396391E+04</pdfrwt>
<totfact> 0.49644840E+00</totfact>
</mgrwt>
</event>
<event>
12    1  0.1556559E-007  0.1794300E+04  0.7818608E-02  0.8709336E-01
          1   -1    0    0  501    0  0.00000000000E+00  0.00000000000E+00  0.35777864795E+04  0.35777864795E+04  0.00000000000E+00 0. -1.
         -1   -1    0    0    0  501 -0.00000000000E+00 -0.00000000000E+00 -0.22496543978E+03  0.22496543978E+03  0.00000000000E+00 0.  1.
         23    2    1    2    0    0 -0.36116100798E+03  0.55786089979E+03  0.14081714199E+04  0.15597151720E+04  0.90103346272E+02 0.  0.
        254    2    1    2    0    0  0.36116100798E+03 -0.55786089979E+03  0.19446496198E+04  0.22430367472E+04  0.89883571811E+03 0.  0.
        -24    2    4    4    0    0 -0.93251036269E+02 -0.31024594417E+03  0.15544968049E+04  0.15898849567E+04  0.79533373663E+02 0.  0.
         24    2    4    4    0    0  0.45441204425E+03 -0.24761495562E+03  0.39015281497E+03  0.65315179050E+03  0.81145364673E+02 0.  0.
         13    1    3    3    0    0 -0.21749853082E+03  0.41214485494E+03  0.97591574222E+03  0.10814714644E+04  0.00000000000E+00 0. -1.
        -13    1    3    3    0    0 -0.14366247716E+03  0.14571604486E+03  0.43225567764E+03  0.47824370767E+03  0.00000000000E+00 0.  1.
          4    1    6    6  502    0  0.29670742624E+03 -0.15401146157E+03  0.29832816235E+03  0.44805637986E+03  0.00000000000E+00 0. -1.
          3    1    5    5  503    0 -0.71992517527E+02 -0.10545500847E+03  0.59432750707E+03  0.60788886077E+03  0.00000000000E+00 0. -1.
         -4    1    5    5    0  503 -0.21258518741E+02 -0.20479093570E+03  0.96016929781E+03  0.98199609593E+03  0.00000000000E+00 0.  1.
         -3    1    6    6    0  502  0.15770461801E+03 -0.93603494048E+02  0.91824652614E+02  0.20509541064E+03  0.00000000000E+00 0.  1.
<mgrwt>
<rscale>  0 0.17943002E+04</rscale>
<asrwt>0</asrwt>
<pdfrwt beam="1">  1        1 0.55042865E+00 0.17943002E+04</pdfrwt>
<pdfrwt beam="2">  1       -1 0.34610070E-01 0.17943002E+04</pdfrwt>
<totfact> 0.16319002E+00</totfact>
</mgrwt>
</event>
<event>
12    1  0.1556559E-007  0.2553906E+04  0.7818608E-02  0.8384029E-01
          2   -1    0    0  501    0  0.00000000000E+00  0.00000000000E+00  0.28679277037E+04  0.28679277037E+04  0.00000000000E+00 0. -1.
         -2   -1    0    0    0  501 -0.00000000000E+00 -0.00000000000E+00 -0.56856701476E+03  0.56856701476E+03  0.00000000000E+00 0.  1.
         23    2    1    2    0    0 -0.20987966167E+03 -0.29083557027E+03  0.24262048033E+04  0.24542169895E+04  0.89869251433E+02 0.  0.
        254    2    1    2    0    0  0.20987966167E+03  0.29083557027E+03 -0.12684411434E+03  0.98227772904E+03  0.90561874225E+03 0.  0.
        -24    2    4    4    0    0 -0.17886957952E+03 -0.74327013171E+02  0.24936581084E+03  0.32481939717E+03  0.76193843609E+02 0.  0.
         24    2    4    4    0    0  0.38874924119E+03  0.36516258344E+03 -0.37620992518E+03  0.65745833186E+03  0.79043440380E+02 0.  0.
         11    1    3    3    0    0 -0.68357822508E+02 -0.10174227369E+03  0.56890856506E+03  0.58196326135E+03  0.00000000000E+00 0.  1.
        -11    1    3    3    0    0 -0.14152183916E+03 -0.18909329658E+03  0.18572962383E+04  0.18722537281E+04  0.00000000000E+00 0. -1.
          4    1    6    6  502    0  0.27417880341E+02  0.60882602533E+02 -0.44446439950E+02  0.80211704120E+02  0.00000000000E+00 0. -1.
          3    1    5    5  503    0 -0.68457759966E+01 -0.71635077639E+01  0.58147423935E+02  0.58985620305E+02  0.00000000000E+00 0. -1.
         -4    1    5    5    0  503 -0.17202380352E+03 -0.67163505407E+02  0.19121838690E+03  0.26583377687E+03  0.00000000000E+00 0.  1.
         -3    1    6    6    0  502  0.36133136085E+03  0.30427998091E+03 -0.33176348523E+03  0.57724662774E+03  0.00000000000E+00 0.  1.
<mgrwt>
<rscale>  0 0.25539061E+04</rscale>
<asrwt>0</asrwt>
<pdfrwt beam="1">  1        2 0.44121964E+00 0.25539061E+04</pdfrwt>
<pdfrwt beam="2">  1       -2 0.87471850E-01 0.25539061E+04</pdfrwt>
<totfact> 0.21062805E+00</totfact>
</mgrwt>
</event>
<event>
12    1  0.1556559E-007  0.1848657E+04  0.7818608E-02  0.8680844E-01
         -2   -1    0    0    0  501 -0.00000000000E+00  0.00000000000E+00  0.41136300982E+03  0.41136300982E+03  0.00000000000E+00 0.  1.
          2   -1    0    0  501    0  0.00000000000E+00 -0.00000000000E+00 -0.20769566396E+04  0.20769566396E+04  0.00000000000E+00 0. -1.
         23    2    1    2    0    0  0.53893166373E+03 -0.38324811310E+03 -0.94239407263E+03  0.11547981277E+04  0.90142516730E+02 0.  0.
        254    2    1    2    0    0 -0.53893166373E+03  0.38324811310E+03 -0.72319955711E+03  0.13335215217E+04  0.90439791848E+03 0.  0.
        -24    2    4    4    0    0 -0.46241432255E+03  0.42024657621E+03 -0.91387542474E+03  0.11100695992E+04  0.81559993362E+02 0.  0.
         24    2    4    4    0    0 -0.76517341186E+02 -0.36998463116E+02  0.19067586763E+03  0.22345192250E+03  0.79684913234E+02 0.  0.
         11    1    3    3    0    0  0.39471565346E+03 -0.31833215501E+03 -0.75651761770E+03  0.91074404411E+03  0.00000000000E+00 0. -1.
        -11    1    3    3    0    0  0.14421601028E+03 -0.64915958089E+02 -0.18587645493E+03  0.24405408362E+03  0.00000000000E+00 0.  1.
          2    1    6    6  502    0 -0.88274273543E+02 -0.34627799287E+02  0.18885147078E+03  0.21132039624E+03  0.00000000000E+00 0. -1.
          1    1    5    5  503    0 -0.37076757845E+03  0.37710691176E+03 -0.76475776019E+03  0.92980248004E+03  0.00000000000E+00 0. -1.
         -4    1    5    5    0  503 -0.91646744099E+02  0.43139664454E+02 -0.14911766455E+03  0.18026711912E+03  0.00000000000E+00 0.  1.
         -1    1    6    6    0  502  0.11756932357E+02 -0.23706638286E+01  0.18243968506E+01  0.12131526256E+02  0.00000000000E+00 0.  1.
<mgrwt>
<rscale>  0 0.18486570E+04</rscale>
<asrwt>0</asrwt>
<pdfrwt beam="1">  1        2 0.31953180E+00 0.18486570E+04</pdfrwt>
<pdfrwt beam="2">  1       -2 0.63286616E-01 0.18486570E+04</pdfrwt>
<totfact> 0.13160224E+01</totfact>
</mgrwt>
</event>
<event>
12    1  0.1556559E-007  0.1836688E+04  0.7818608E-02  0.8687029E-01
         -1   -1    0    0    0  501 -0.00000000000E+00  0.00000000000E+00  0.12535118493E+04  0.12535118493E+04  0.00000000000E+00 0.  1.
          1   -1    0    0  501    0  0.00000000000E+00 -0.00000000000E+00 -0.67279456427E+03  0.67279456427E+03  0.00000000000E+00 0. -1.
         23    2    1    2    0    0 -0.16065606026E+02  0.12962561049E+03 -0.51374594727E+03  0.53776863556E+03  0.90550010841E+02 0.  0.
        254    2    1    2    0    0  0.16065606026E+02 -0.12962561049E+03  0.10944632324E+04  0.13885377781E+04  0.84446817081E+03 0.  0.
        -24    2    4    4    0    0  0.41148437411E+03  0.29061223756E+02  0.51728013790E+03  0.66658123538E+03  0.81165617312E+02 0.  0.
         24    2    4    4    0    0 -0.39541876808E+03 -0.15868683425E+03  0.57718309445E+03  0.72195654267E+03  0.80891355971E+02 0.  0.
         11    1    3    3    0    0 -0.14290137967E+02  0.13166358393E+03 -0.51691069223E+03  0.53360675700E+03  0.00000000000E+00 0. -1.
        -11    1    3    3    0    0 -0.17754680595E+01 -0.20379734361E+01  0.31647449543E+01  0.41618785641E+01  0.00000000000E+00 0.  1.
          4    1    6    6  502    0 -0.58583158797E+01  0.61410088590E+01  0.34804872943E+01  0.91730936199E+01  0.00000000000E+00 0. -1.
          3    1    5    5  503    0  0.15510345158E+03  0.47378903599E+02  0.22502558993E+03  0.27737764387E+03  0.00000000000E+00 0. -1.
         -4    1    5    5    0  503  0.25638092253E+03 -0.18317679843E+02  0.29225454797E+03  0.38920359151E+03  0.00000000000E+00 0.  1.
         -3    1    6    6    0  502 -0.38956045220E+03 -0.16482784311E+03  0.57370260716E+03  0.71278344905E+03  0.00000000000E+00 0.  1.
<mgrwt>
<rscale>  0 0.18366883E+04</rscale>
<asrwt>0</asrwt>
<pdfrwt beam="1">  1        1 0.10350686E+00 0.18366883E+04</pdfrwt>
<pdfrwt beam="2">  1       -1 0.19284798E+00 0.18366883E+04</pdfrwt>
<totfact> 0.45914810E+00</totfact>
</mgrwt>
</event>
<event>
12    1  0.1556559E-007  0.1835803E+04  0.7818608E-02  0.8687488E-01
          2   -1    0    0  501    0  0.00000000000E+00  0.00000000000E+00  0.13653088599E+04  0.13653088599E+04  0.00000000000E+00 0.  1.
         -2   -1    0    0    0  501 -0.00000000000E+00 -0.00000000000E+00 -0.61710797285E+03  0.61710797285E+03  0.00000000000E+00 0. -1.
         23    2    1    2    0    0  0.37190063344E+03 -0.47369638929E+02 -0.34375099085E+03  0.51684663034E+03  0.91715493455E+02 0.  0.
        254    2    1    2    0    0 -0.37190063344E+03  0.47369638929E+02  0.10919518779E+04  0.14655702024E+04  0.90276417226E+03 0.  0.
        -24    2    4    4    0    0 -0.36431895605E+03 -0.29037671646E+03  0.20958833624E+03  0.51734212958E+03  0.81661919806E+02 0.  0.
         24    2    4    4    0    0 -0.75816773836E+01  0.33774635539E+03  0.88236354168E+03  0.94822807286E+03  0.80255691679E+02 0.  0.
         11    1    3    3    0    0  0.35531715694E+03 -0.57646135621E+02 -0.34316493528E+03  0.49732839430E+03  0.00000000000E+00 0. -1.
        -11    1    3    3    0    0  0.16583476499E+02  0.10276496692E+02 -0.58605556649E+00  0.19518236042E+02  0.00000000000E+00 0.  1.
          2    1    6    6  502    0 -0.90698065978E+01  0.23545629522E+00  0.34036969609E+02  0.35225447216E+02  0.00000000000E+00 0. -1.
          3    1    5    5  503    0 -0.17080712183E+03 -0.18512810292E+03  0.12693978860E+03  0.28206594493E+03  0.00000000000E+00 0. -1.
         -4    1    5    5    0  503 -0.19351183422E+03 -0.10524861354E+03  0.82648547646E+02  0.23527618465E+03  0.00000000000E+00 0.  1.
         -1    1    6    6    0  502  0.14881292142E+01  0.33751089910E+03  0.84832657208E+03  0.91300262564E+03  0.00000000000E+00 0.  1.
<mgrwt>
<rscale>  0 0.18358028E+04</rscale>
<asrwt>0</asrwt>
<pdfrwt beam="1">  1        2 0.21004752E+00 0.18358028E+04</pdfrwt>
<pdfrwt beam="2">  1       -2 0.94939689E-01 0.18358028E+04</pdfrwt>
<totfact> 0.13313877E+01</totfact>
</mgrwt>
</event>
<event>
12    1  0.1556559E-007  0.2567042E+04  0.7818608E-02  0.8379483E-01
          2   -1    0    0  501    0  0.00000000000E+00  0.00000000000E+00  0.28752822194E+04  0.28752822194E+04  0.00000000000E+00 0.  1.
         -2   -1    0    0    0  501 -0.00000000000E+00 -0.00000000000E+00 -0.57296161533E+03  0.57296161533E+03  0.00000000000E+00 0. -1.
         23    2    1    2    0    0  0.21643007340E+03  0.88158821218E+03  0.12296995030E+03  0.92050699518E+03  0.90397826106E+02 0.  0.
        254    2    1    2    0    0 -0.21643007340E+03 -0.88158821218E+03  0.21793506538E+04  0.25277368395E+04  0.90324111143E+03 0.  0.
        -24    2    4    4    0    0 -0.11716634710E+03  0.31128911368E+02  0.10947589570E+04  0.11043096773E+04  0.79408611427E+02 0.  0.
         24    2    4    4    0    0 -0.99263726300E+02 -0.91271712355E+03  0.10845916968E+04  0.14234271622E+04  0.83065650913E+02 0.  0.
         11    1    3    3    0    0  0.17699325215E+03  0.53899920758E+03  0.82729055511E+02  0.57331566672E+03  0.00000000000E+00 0. -1.
        -11    1    3    3    0    0  0.39436821250E+02  0.34258900460E+03  0.40240894787E+02  0.34719132846E+03  0.00000000000E+00 0.  1.
          4    1    6    6  502    0 -0.10090450169E+03 -0.57635127600E+03  0.66937289391E+03  0.88905713141E+03  0.00000000000E+00 0. -1.
          3    1    5    5  503    0 -0.10426306511E+03 -0.50809764499E+01  0.87617933844E+03  0.88237567746E+03  0.00000000000E+00 0. -1.
         -4    1    5    5    0  503 -0.12903281994E+02  0.36209887818E+02  0.21857961854E+03  0.22193399988E+03  0.00000000000E+00 0.  1.
         -3    1    6    6    0  502  0.16407753913E+01 -0.33636584755E+03  0.41521880287E+03  0.53437003078E+03  0.00000000000E+00 0.  1.
<mgrwt>
<rscale>  0 0.25670421E+04</rscale>
<asrwt>0</asrwt>
<pdfrwt beam="1">  1        2 0.44235110E+00 0.25670421E+04</pdfrwt>
<pdfrwt beam="2">  1       -2 0.88147943E-01 0.25670421E+04</pdfrwt>
<totfact> 0.20457414E+00</totfact>
</mgrwt>
</event>
<event>
12    1  0.1556559E-007  0.2034611E+04  0.7818608E-02  0.8590608E-01
          1   -1    0    0  501    0  0.00000000000E+00  0.00000000000E+00  0.31799730526E+04  0.31799730526E+04  0.00000000000E+00 0.  1.
         -1   -1    0    0    0  501 -0.00000000000E+00 -0.00000000000E+00 -0.32544644885E+03  0.32544644885E+03  0.00000000000E+00 0. -1.
         23    2    1    2    0    0  0.34950079995E+02  0.83888720615E+03  0.91746372235E+03  0.12468877613E+04  0.89644601621E+02 0.  0.
        254    2    1    2    0    0 -0.34950079995E+02 -0.83888720615E+03  0.19370628814E+04  0.22585317402E+04  0.80237133688E+03 0.  0.
        -24    2    4    4    0    0  0.18841390278E+03 -0.28122063467E+03  0.14204312426E+04  0.14622722585E+04  0.77655643245E+02 0.  0.
         24    2    4    4    0    0 -0.22336398277E+03 -0.55766657148E+03  0.51663163880E+03  0.79625948169E+03  0.78977453931E+02 0.  0.
         11    1    3    3    0    0 -0.10370358246E+02  0.66301377898E+02  0.10669745206E+03  0.12604667119E+03  0.00000000000E+00 0. -1.
        -11    1    3    3    0    0  0.45320438241E+02  0.77258582825E+03  0.81076627028E+03  0.11208410901E+04  0.00000000000E+00 0.  1.
          2    1    6    6  502    0 -0.11037069066E+03 -0.35217665090E+03  0.34948274514E+03  0.50827971821E+03  0.00000000000E+00 0. -1.
          3    1    5    5  503    0  0.31453969587E+02 -0.88324050543E+02  0.50680869881E+03  0.51540813662E+03  0.00000000000E+00 0. -1.
         -2    1    5    5    0  503  0.15695993319E+03 -0.19289658413E+03  0.91362254376E+03  0.94686412186E+03  0.00000000000E+00 0.  1.
         -1    1    6    6    0  502 -0.11299329211E+03 -0.20548992058E+03  0.16714889366E+03  0.28797976348E+03  0.00000000000E+00 0.  1.
<mgrwt>
<rscale>  0 0.20346114E+04</rscale>
<asrwt>0</asrwt>
<pdfrwt beam="1">  1        1 0.48922660E+00 0.20346114E+04</pdfrwt>
<pdfrwt beam="2">  1       -1 0.50068687E-01 0.20346114E+04</pdfrwt>
<totfact> 0.16332705E+00</totfact>
</mgrwt>
</event>
<event>
12    1  0.1556559E-007  0.1727144E+04  0.7818608E-02  0.8746033E-01
         -2   -1    0    0    0  501 -0.00000000000E+00  0.00000000000E+00  0.65283339206E+03  0.65283339206E+03  0.00000000000E+00 0.  1.
          2   -1    0    0  501    0  0.00000000000E+00 -0.00000000000E+00 -0.11423386343E+04  0.11423386343E+04  0.00000000000E+00 0. -1.
         23    2    1    2    0    0  0.24613042582E+03  0.55731584450E+03 -0.29233925920E+03  0.68523968863E+03  0.11362240695E+03 0.  0.
        254    2    1    2    0    0 -0.24613042582E+03 -0.55731584450E+03 -0.19716598308E+03  0.11099323378E+04  0.90658382541E+03 0.  0.
        -24    2    4    4    0    0  0.79221299881E+02 -0.85755824038E+02 -0.45521857428E+03  0.47651423245E+03  0.78814894821E+02 0.  0.
         24    2    4    4    0    0 -0.32535172570E+03 -0.47156002047E+03  0.25805259121E+03  0.63341810531E+03  0.80029731965E+02 0.  0.
         13    1    3    3    0    0 -0.55962952631E+01  0.29230232438E+01 -0.14822070830E+02  0.16110753218E+02  0.00000000000E+00 0. -1.
        -13    1    3    3    0    0  0.25172672108E+03  0.55439282126E+03 -0.27751718837E+03  0.66912893541E+03  0.00000000000E+00 0.  1.
          4    1    6    6  502    0 -0.10825881555E+03 -0.21761453935E+03  0.87635145502E+02  0.25837178176E+03  0.00000000000E+00 0. -1.
          1    1    5    5  503    0 -0.50667264621E+01  0.11254524724E+02 -0.38647263084E+02  0.40570272216E+02  0.00000000000E+00 0. -1.
         -2    1    5    5    0  503  0.84288026343E+02 -0.97010348763E+02 -0.41657131120E+03  0.43594396024E+03  0.00000000000E+00 0.  1.
         -3    1    6    6    0  502 -0.21709291015E+03 -0.25394548111E+03  0.17041744570E+03  0.37504632356E+03  0.00000000000E+00 0.  1.
<mgrwt>
<rscale>  0 0.17271442E+04</rscale>
<asrwt>0</asrwt>
<pdfrwt beam="1">  1        2 0.17574440E+00 0.17271442E+04</pdfrwt>
<pdfrwt beam="2">  1       -2 0.10043591E+00 0.17271442E+04</pdfrwt>
<totfact> 0.15932701E+01</totfact>
</mgrwt>
</event>
<event>
12    1  0.1556559E-007  0.3463994E+04  0.7818608E-02  0.8122376E-01
          1   -1    0    0  501    0  0.00000000000E+00  0.00000000000E+00  0.23338591729E+04  0.23338591729E+04  0.00000000000E+00 0. -1.
         -1   -1    0    0    0  501 -0.00000000000E+00 -0.00000000000E+00 -0.12853445651E+04  0.12853445651E+04  0.00000000000E+00 0.  1.
         23    2    1    2    0    0 -0.12392533535E+04  0.92120254892E+03 -0.16491295828E+01  0.15467666771E+04  0.90118940506E+02 0.  0.
        254    2    1    2    0    0  0.12392533535E+04 -0.92120254892E+03  0.10501637373E+04  0.20724370609E+04  0.89877054122E+03 0.  0.
        -24    2    4    4    0    0  0.92637781113E+03 -0.63015733111E+03  0.23245972120E+03  0.11470240310E+04  0.79702540163E+02 0.  0.
         24    2    4    4    0    0  0.31287554241E+03 -0.29104521781E+03  0.81770401612E+03  0.92541302985E+03  0.71770425577E+02 0.  0.
         13    1    3    3    0    0 -0.44530784226E+03  0.38512623956E+03 -0.59905441687E+01  0.58877600274E+03  0.00000000000E+00 0. -1.
        -13    1    3    3    0    0 -0.79394551128E+03  0.53607630936E+03  0.43414145859E+01  0.95799067439E+03  0.00000000000E+00 0.  1.
          2    1    6    6  502    0  0.17077651213E+03 -0.14639132949E+03  0.35547693163E+03  0.42066481593E+03  0.00000000000E+00 0. -1.
          3    1    5    5  503    0  0.13559948490E+03 -0.10149136504E+03  0.63664230307E+02  0.18094433316E+03  0.00000000000E+00 0. -1.
         -4    1    5    5    0  503  0.79077832623E+03 -0.52866596607E+03  0.16879549090E+03  0.96607969788E+03  0.00000000000E+00 0.  1.
         -1    1    6    6    0  502  0.14209903028E+03 -0.14465388832E+03  0.46222708449E+03  0.50474821391E+03  0.00000000000E+00 0.  1.
<mgrwt>
<rscale>  0 0.34639938E+04</rscale>
<asrwt>0</asrwt>
<pdfrwt beam="1">  1        1 0.35905526E+00 0.34639938E+04</pdfrwt>
<pdfrwt beam="2">  1       -1 0.19774532E+00 0.34639938E+04</pdfrwt>
<totfact> 0.22521335E-01</totfact>
</mgrwt>
</event>
<event>
12    1  0.1556559E-007  0.2482984E+04  0.7818608E-02  0.8409073E-01
         -2   -1    0    0    0  501 -0.00000000000E+00  0.00000000000E+00  0.62414342854E+03  0.62414342854E+03  0.00000000000E+00 0. -1.
          2   -1    0    0  501    0  0.00000000000E+00 -0.00000000000E+00 -0.24694674196E+04  0.24694674196E+04  0.00000000000E+00 0.  1.
         23    2    1    2    0    0  0.42140012801E+03 -0.78328547106E+03 -0.15907474042E+04  0.18246983739E+04  0.89065451381E+02 0.  0.
        254    2    1    2    0    0 -0.42140012801E+03  0.78328547106E+03 -0.25457658692E+03  0.12689124743E+04  0.86845577423E+03 0.  0.
        -24    2    4    4    0    0  0.24013539778E+03  0.40394209220E+03 -0.85954773926E+02  0.48417035337E+03  0.78730456644E+02 0.  0.
         24    2    4    4    0    0 -0.66153552579E+03  0.37934337886E+03 -0.16862181300E+03  0.78474212095E+03  0.76526006103E+02 0.  0.
         13    1    3    3    0    0  0.20255115112E+03 -0.28794874290E+03 -0.65040692590E+03  0.73957461869E+03  0.00000000000E+00 0. -1.
        -13    1    3    3    0    0  0.21884897689E+03 -0.49533672816E+03 -0.94034047828E+03  0.10851237552E+04  0.00000000000E+00 0.  1.
          2    1    6    6  502    0 -0.62486619610E+03  0.35582413219E+03 -0.17662554380E+03  0.74044929522E+03  0.00000000000E+00 0. -1.
          3    1    5    5  503    0  0.15597447694E+03  0.32717873227E+03 -0.60887976927E+02  0.36753408827E+03  0.00000000000E+00 0. -1.
         -4    1    5    5    0  503  0.84160920835E+02  0.76763359923E+02 -0.25066796999E+02  0.11663626509E+03  0.00000000000E+00 0.  1.
         -1    1    6    6    0  502 -0.36669329686E+02  0.23519246674E+02  0.80037308079E+01  0.44292825723E+02  0.00000000000E+00 0.  1.
<mgrwt>
<rscale>  0 0.24829836E+04</rscale>
<asrwt>0</asrwt>
<pdfrwt beam="1">  1        2 0.37991807E+00 0.24829836E+04</pdfrwt>
<pdfrwt beam="2">  1       -2 0.96022065E-01 0.24829836E+04</pdfrwt>
<totfact> 0.29428937E+00</totfact>
</mgrwt>
</event>
<event>
12    1  0.1556559E-007  0.1109467E+04  0.7818608E-02  0.9196014E-01
          2   -1    0    0  501    0  0.00000000000E+00  0.00000000000E+00  0.85419087187E+03  0.85419087187E+03  0.00000000000E+00 0. -1.
         -2   -1    0    0    0  501 -0.00000000000E+00 -0.00000000000E+00 -0.36025817077E+03  0.36025817077E+03  0.00000000000E+00 0.  1.
         23    2    1    2    0    0  0.89125591535E+02 -0.10932703354E+03 -0.20962093067E+02  0.16653264189E+03  0.86011279153E+02 0.  0.
        254    2    1    2    0    0 -0.89125591535E+02  0.10932703354E+03  0.51489479417E+03  0.10479164008E+04  0.90172965049E+03 0.  0.
        -24    2    4    4    0    0 -0.31454443345E+03 -0.23703044322E+03  0.26026600949E+02  0.40295659050E+03  0.81086362884E+02 0.  0.
         24    2    4    4    0    0  0.22541884191E+03  0.34635747676E+03  0.48886819322E+03  0.64495981025E+03  0.78764779627E+02 0.  0.
         13    1    3    3    0    0  0.44257877269E+02 -0.65014897852E+01  0.17354800067E+02  0.47981435526E+02  0.00000000000E+00 0. -1.
        -13    1    3    3    0    0  0.44867714266E+02 -0.10282554375E+03 -0.38316893134E+02  0.11855120637E+03  0.00000000000E+00 0.  1.
          2    1    6    6  502    0  0.20178149654E+03  0.31909409058E+03  0.47388069637E+03  0.60588755176E+03  0.00000000000E+00 0. -1.
          1    1    5    5  503    0 -0.29601089173E+03 -0.23865427898E+03  0.13397466375E+02  0.38047050478E+03  0.00000000000E+00 0. -1.
         -2    1    5    5    0  503 -0.18533541712E+02  0.16238357622E+01  0.12629134574E+02  0.22486085721E+02  0.00000000000E+00 0.  1.
         -1    1    6    6    0  502  0.23637345366E+02  0.27263386180E+02  0.14987496850E+02  0.39072258493E+02  0.00000000000E+00 0.  1.
<mgrwt>
<rscale>  0 0.11094670E+04</rscale>
<asrwt>0</asrwt>
<pdfrwt beam="1">  1        2 0.13141398E+00 0.11094670E+04</pdfrwt>
<pdfrwt beam="2">  1       -2 0.55424334E-01 0.11094670E+04</pdfrwt>
<totfact> 0.95728502E+01</totfact>
</mgrwt>
</event>
<event>
12    1  0.1556559E-007  0.1659350E+04  0.7818608E-02  0.8784894E-01
         -1   -1    0    0    0  501 -0.00000000000E+00  0.00000000000E+00  0.67243526363E+03  0.67243526363E+03  0.00000000000E+00 0.  1.
          1   -1    0    0  501    0  0.00000000000E+00 -0.00000000000E+00 -0.10236836224E+04  0.10236836224E+04  0.00000000000E+00 0. -1.
         23    2    1    2    0    0 -0.11657709334E+03  0.14560878214E+03 -0.68814881526E+03  0.71865183167E+03  0.90108418550E+02 0.  0.
        254    2    1    2    0    0  0.11657709334E+03 -0.14560878214E+03  0.33690045651E+03  0.97746705434E+03  0.89841404074E+03 0.  0.
        -24    2    4    4    0    0  0.17250735526E+03  0.33247510541E+03  0.30321468116E+03  0.48865548459E+03  0.80910792942E+02 0.  0.
         24    2    4    4    0    0 -0.55930261929E+02 -0.47808388755E+03  0.33685775354E+02  0.48881156975E+03  0.78164068038E+02 0.  0.
         13    1    3    3    0    0 -0.69996124483E+02  0.44993895929E+02 -0.42549668326E+03  0.43355661173E+03  0.00000000000E+00 0. -1.
        -13    1    3    3    0    0 -0.46580968852E+02  0.10061488621E+03 -0.26265213200E+03  0.28509521993E+03  0.00000000000E+00 0.  1.
          4    1    6    6  502    0 -0.66105486420E+02 -0.44677409580E+03  0.17133550960E+02  0.45196303674E+03  0.00000000000E+00 0. -1.
          3    1    5    5  503    0  0.72755870306E+02  0.22389479017E+03  0.17637853030E+03  0.29416267553E+03  0.00000000000E+00 0. -1.
         -4    1    5    5    0  503  0.99751484957E+02  0.10858031524E+03  0.12683615086E+03  0.19449280906E+03  0.00000000000E+00 0.  1.
         -3    1    6    6    0  502  0.10175224492E+02 -0.31309791746E+02  0.16552224394E+02  0.36848533010E+02  0.00000000000E+00 0.  1.
<mgrwt>
<rscale>  0 0.16593504E+04</rscale>
<asrwt>0</asrwt>
<pdfrwt beam="1">  1        1 0.15748979E+00 0.16593504E+04</pdfrwt>
<pdfrwt beam="2">  1       -1 0.10345158E+00 0.16593504E+04</pdfrwt>
<totfact> 0.12205841E+01</totfact>
</mgrwt>
</event>
<event>
12    1  0.1556559E-007  0.1418291E+04  0.7818608E-02  0.8940684E-01
         -2   -1    0    0    0  501 -0.00000000000E+00  0.00000000000E+00  0.22725777995E+03  0.22725777995E+03  0.00000000000E+00 0. -1.
          2   -1    0    0  501    0  0.00000000000E+00 -0.00000000000E+00 -0.22128500793E+04  0.22128500793E+04  0.00000000000E+00 0.  1.
         23    2    1    2    0    0 -0.14776977859E+03  0.27334668974E+03 -0.11838629727E+03  0.34456675072E+03  0.90313952762E+02 0.  0.
        254    2    1    2    0    0  0.14776977859E+03 -0.27334668974E+03 -0.18672060021E+04  0.20955411085E+04  0.89904391611E+03 0.  0.
        -24    2    4    4    0    0  0.18567749218E+03  0.30510262958E+03 -0.68003376471E+03  0.77206556723E+03  0.77945963848E+02 0.  0.
         24    2    4    4    0    0 -0.37907713591E+02 -0.57844931932E+03 -0.11871722374E+04  0.13234755413E+04  0.78542838448E+02 0.  0.
         11    1    3    3    0    0 -0.15827401274E+00  0.74462872783E+02 -0.41413388496E+02  0.85204537558E+02  0.00000000000E+00 0.  1.
        -11    1    3    3    0    0 -0.14761150457E+03  0.19888381696E+03 -0.76972908778E+02  0.25936221316E+03  0.00000000000E+00 0. -1.
          4    1    6    6  502    0  0.68676131825E+01 -0.72463030120E+02 -0.20833014611E+03  0.22067964252E+03  0.00000000000E+00 0. -1.
          3    1    5    5  503    0  0.19225116925E+02  0.84819033989E+02 -0.12676522054E+03  0.15373124207E+03  0.00000000000E+00 0. -1.
         -4    1    5    5    0  503  0.16645237525E+03  0.22028359559E+03 -0.55326854417E+03  0.61833432517E+03  0.00000000000E+00 0.  1.
         -3    1    6    6    0  502 -0.44775326773E+02 -0.50598628920E+03 -0.97884209126E+03  0.11027958988E+04  0.00000000000E+00 0.  1.
<mgrwt>
<rscale>  0 0.14182911E+04</rscale>
<asrwt>0</asrwt>
<pdfrwt beam="1">  1        2 0.34043849E+00 0.14182911E+04</pdfrwt>
<pdfrwt beam="2">  1       -2 0.34962734E-01 0.14182911E+04</pdfrwt>
<totfact> 0.37951751E+01</totfact>
</mgrwt>
</event>
<event>
12    1  0.1556559E-007  0.1150858E+04  0.7818608E-02  0.9156993E-01
          2   -1    0    0  501    0  0.00000000000E+00  0.00000000000E+00  0.50570746255E+03  0.50570746255E+03  0.00000000000E+00 0. -1.
         -2   -1    0    0    0  501 -0.00000000000E+00 -0.00000000000E+00 -0.65476260235E+03  0.65476260235E+03  0.00000000000E+00 0.  1.
         23    2    1    2    0    0  0.90792151802E+02 -0.65912240723E+02  0.14501230573E+03  0.20543497328E+03  0.92667799845E+02 0.  0.
        254    2    1    2    0    0 -0.90792151802E+02  0.65912240723E+02 -0.29406744554E+03  0.95503509162E+03  0.90168105525E+03 0.  0.
        -24    2    4    4    0    0 -0.63027805673E+02  0.32682677630E+03 -0.50425553800E+03  0.60972265381E+03  0.81852434043E+02 0.  0.
         24    2    4    4    0    0 -0.27764346130E+02 -0.26091453558E+03  0.21018809247E+03  0.34531243781E+03  0.78831413147E+02 0.  0.
         13    1    3    3    0    0 -0.75941192813E+01 -0.44085569946E+02  0.43969614062E+02  0.62725872540E+02  0.00000000000E+00 0.  1.
        -13    1    3    3    0    0  0.98386271084E+02 -0.21826670776E+02  0.10104269167E+03  0.14270910074E+03  0.00000000000E+00 0. -1.
          4    1    6    6  502    0 -0.83254913187E+01 -0.20070583221E+03  0.11636053293E+03  0.23214632996E+03  0.00000000000E+00 0. -1.
          1    1    5    5  503    0 -0.23876846978E+02  0.45803694903E+02 -0.38799917011E+02  0.64602754186E+02  0.00000000000E+00 0. -1.
         -2    1    5    5    0  503 -0.39150958694E+02  0.28102308140E+03 -0.46545562099E+03  0.54511989962E+03  0.00000000000E+00 0.  1.
         -3    1    6    6    0  502 -0.19438854811E+02 -0.60208703372E+02  0.93827559540E+02  0.11316610786E+03  0.00000000000E+00 0.  1.
<mgrwt>
<rscale>  0 0.11508577E+04</rscale>
<asrwt>0</asrwt>
<pdfrwt beam="1">  1        2 0.77801149E-01 0.11508577E+04</pdfrwt>
<pdfrwt beam="2">  1       -2 0.10073271E+00 0.11508577E+04</pdfrwt>
<totfact> 0.48841026E+01</totfact>
</mgrwt>
</event>
<event>
12    1  0.1556559E-007  0.1894832E+04  0.7818608E-02  0.8657433E-01
         -2   -1    0    0    0  501 -0.00000000000E+00  0.00000000000E+00  0.27362519953E+03  0.27362519953E+03  0.00000000000E+00 0.  1.
          2   -1    0    0  501    0  0.00000000000E+00 -0.00000000000E+00 -0.32803878854E+04  0.32803878854E+04  0.00000000000E+00 0. -1.
         23    2    1    2    0    0 -0.19394776772E+03 -0.56898994123E+03 -0.16350348126E+04  0.17444113477E+04  0.90922063752E+02 0.  0.
        254    2    1    2    0    0  0.19394776772E+03  0.56898994123E+03 -0.13717278733E+04  0.18096017372E+04  0.10157045827E+04 0.  0.
        -24    2    4    4    0    0 -0.31044558067E+03  0.90140730443E+01 -0.79310467825E+03  0.85546410853E+03  0.79662401718E+02 0.  0.
         24    2    4    4    0    0  0.50439334838E+03  0.55997586818E+03 -0.57862319501E+03  0.95413762871E+03  0.87110216815E+02 0.  0.
         11    1    3    3    0    0 -0.10100603655E+03 -0.21735340838E+03 -0.75666204234E+03  0.79371416132E+03  0.00000000000E+00 0.  1.
        -11    1    3    3    0    0 -0.92941731161E+02 -0.35163653285E+03 -0.87837277027E+03  0.95069718637E+03  0.00000000000E+00 0. -1.
          4    1    6    6  502    0  0.15830521561E+03  0.22610645255E+03 -0.18001219136E+03  0.32952853930E+03  0.00000000000E+00 0. -1.
          1    1    5    5  503    0 -0.16151475645E+03  0.42755471041E+02 -0.38323947416E+03  0.41807599956E+03  0.00000000000E+00 0. -1.
         -4    1    5    5    0  503 -0.14893082422E+03 -0.33741397997E+02 -0.40986520409E+03  0.43738810897E+03  0.00000000000E+00 0.  1.
         -3    1    6    6    0  502  0.34608813278E+03  0.33386941563E+03 -0.39861100366E+03  0.62460908941E+03  0.00000000000E+00 0.  1.
<mgrwt>
<rscale>  0 0.18948317E+04</rscale>
<asrwt>0</asrwt>
<pdfrwt beam="1">  1        2 0.50467504E+00 0.18948317E+04</pdfrwt>
<pdfrwt beam="2">  1       -2 0.42096186E-01 0.18948317E+04</pdfrwt>
<totfact> 0.57810379E+00</totfact>
</mgrwt>
</event>
<event>
12    1  0.1556559E-007  0.2801697E+04  0.7818608E-02  0.8302742E-01
          2   -1    0    0  501    0  0.00000000000E+00  0.00000000000E+00  0.11761351678E+04  0.11761351678E+04  0.00000000000E+00 0. -1.
         -2   -1    0    0    0  501 -0.00000000000E+00 -0.00000000000E+00 -0.16684951805E+04  0.16684951805E+04  0.00000000000E+00 0.  1.
         23    2    1    2    0    0 -0.65430415285E+03  0.16993895622E+03  0.84855268513E+03  0.10885531805E+04  0.88956135500E+02 0.  0.
        254    2    1    2    0    0  0.65430415285E+03 -0.16993895622E+03 -0.13409126979E+04  0.17560771678E+04  0.91036640027E+03 0.  0.
        -24    2    4    4    0    0  0.51122388131E+03  0.26993147950E+03 -0.40839309305E+03  0.71205990156E+03  0.77662890195E+02 0.  0.
         24    2    4    4    0    0  0.14308027155E+03 -0.43987043572E+03 -0.93251960483E+03  0.10440172663E+04  0.80132855622E+02 0.  0.
         11    1    3    3    0    0 -0.14939672970E+01  0.38466487328E+00 -0.23188744175E+01  0.27851541993E+01  0.00000000000E+00 0.  1.
        -11    1    3    3    0    0 -0.65281018556E+03  0.16955429135E+03  0.85087155955E+03  0.10857680263E+04  0.00000000000E+00 0. -1.
          4    1    6    6  502    0  0.34480054136E+02 -0.17673719942E+03 -0.43534954856E+03  0.47112009214E+03  0.00000000000E+00 0. -1.
          1    1    5    5  503    0  0.43075487184E+03  0.19458420577E+03 -0.34132405215E+03  0.58302219626E+03  0.00000000000E+00 0. -1.
         -2    1    5    5    0  503  0.80469009466E+02  0.75347273729E+02 -0.67069040905E+02  0.12903770531E+03  0.00000000000E+00 0.  1.
         -3    1    6    6    0  502  0.10860021741E+03 -0.26313323630E+03 -0.49717005627E+03  0.57289717413E+03  0.00000000000E+00 0.  1.
<mgrwt>
<rscale>  0 0.28016965E+04</rscale>
<asrwt>0</asrwt>
<pdfrwt beam="1">  1        2 0.18094387E+00 0.28016965E+04</pdfrwt>
<pdfrwt beam="2">  1       -2 0.25669156E+00 0.28016965E+04</pdfrwt>
<totfact> 0.99564584E-01</totfact>
</mgrwt>
</event>
<event>
12    1  0.2027956E-007  0.1555122E+04  0.7818608E-02  0.8848603E-01
         -1   -1    0    0    0  501 -0.00000000000E+00  0.00000000000E+00  0.38628740587E+03  0.38628740587E+03  0.00000000000E+00 0.  1.
          1   -1    0    0  501    0  0.00000000000E+00 -0.00000000000E+00 -0.15651594281E+04  0.15651594281E+04  0.00000000000E+00 0. -1.
         23    2    1    2    0    0  0.23958032018E+03  0.27457266080E+03  0.53627531397E+02  0.37921741962E+03  0.90227841267E+02 0.  0.
        254    2    1    2    0    0 -0.23958032018E+03 -0.27457266080E+03 -0.12324995536E+04  0.15722294144E+04  0.90557236364E+03 0.  0.
        -24    2    4    4    0    0 -0.51825851392E+02 -0.71342882135E+01  0.13413763850E+03  0.16480121713E+03  0.80185523397E+02 0.  0.
         24    2    4    4    0    0 -0.18775446879E+03 -0.26743837259E+03 -0.13666371921E+04  0.14074281972E+04  0.79886743286E+02 0.  0.
         13    1    3    3    0    0  0.71633189707E+00  0.25049214932E+02 -0.11722500384E+02  0.27665742632E+02  0.00000000000E+00 0. -1.
        -13    1    3    3    0    0  0.23886398828E+03  0.24952344587E+03  0.65350031782E+02  0.35155167698E+03  0.00000000000E+00 0.  1.
          4    1    6    6  502    0 -0.15149444523E+02 -0.53865435865E+02 -0.14772778525E+03  0.15796990025E+03  0.00000000000E+00 0. -1.
          1    1    5    5  503    0 -0.26168358733E+02  0.12221568265E+02  0.21552574866E+01  0.28961955467E+02  0.00000000000E+00 0. -1.
         -2    1    5    5    0  503 -0.25657492659E+02 -0.19355856478E+02  0.13198238102E+03  0.13583926166E+03  0.00000000000E+00 0.  1.
         -3    1    6    6    0  502 -0.17260502426E+03 -0.21357293672E+03 -0.12189094069E+04  0.12494582970E+04  0.00000000000E+00 0.  1.
<mgrwt>
<rscale>  0 0.15551223E+04</rscale>
<asrwt>0</asrwt>
<pdfrwt beam="1">  1        1 0.24079376E+00 0.15551223E+04</pdfrwt>
<pdfrwt beam="2">  1       -1 0.59428832E-01 0.15551223E+04</pdfrwt>
<totfact> 0.16300297E+01</totfact>
</mgrwt>
</event>
<event>
12    1  0.1556559E-007  0.1682436E+04  0.7818608E-02  0.8771445E-01
          2   -1    0    0  501    0  0.00000000000E+00  0.00000000000E+00  0.76808272173E+03  0.76808272173E+03  0.00000000000E+00 0. -1.
         -2   -1    0    0    0  501 -0.00000000000E+00 -0.00000000000E+00 -0.92131751087E+03  0.92131751087E+03  0.00000000000E+00 0.  1.
         23    2    1    2    0    0  0.28758738051E+02  0.61393681492E+03 -0.20872594669E+02  0.62694569708E+03  0.12198263871E+03 0.  0.
        254    2    1    2    0    0 -0.28758738051E+02 -0.61393681492E+03 -0.13236219448E+03  0.10624545355E+04  0.85647207298E+03 0.  0.
        -24    2    4    4    0    0 -0.29147592878E+03 -0.36809589270E+03 -0.38740546889E+03  0.61400373926E+03  0.80403925430E+02 0.  0.
         24    2    4    4    0    0  0.26271719073E+03 -0.24584092223E+03  0.25504327441E+03  0.44845079626E+03  0.81258621039E+02 0.  0.
         13    1    3    3    0    0  0.44233505819E+02  0.59627709119E+03 -0.38224484208E+01  0.59792774114E+03  0.00000000000E+00 0. -1.
        -13    1    3    3    0    0 -0.15474767768E+02  0.17659723735E+02 -0.17050146248E+02  0.29017955940E+02  0.00000000000E+00 0.  1.
          4    1    6    6  502    0  0.70144650988E+02 -0.60775664664E+02  0.25421418891E+02  0.96229943448E+02  0.00000000000E+00 0. -1.
          1    1    5    5  503    0 -0.23940067474E+03 -0.24453309403E+03 -0.27399203102E+03  0.43838424949E+03  0.00000000000E+00 0. -1.
         -2    1    5    5    0  503 -0.52075254048E+02 -0.12356279867E+03 -0.11341343787E+03  0.17561948977E+03  0.00000000000E+00 0.  1.
         -3    1    6    6    0  502  0.19257253974E+03 -0.18506525756E+03  0.22962185552E+03  0.35222085281E+03  0.00000000000E+00 0.  1.
<mgrwt>
<rscale>  0 0.16824364E+04</rscale>
<asrwt>0</asrwt>
<pdfrwt beam="1">  1        2 0.11816657E+00 0.16824364E+04</pdfrwt>
<pdfrwt beam="2">  1       -2 0.14174115E+00 0.16824364E+04</pdfrwt>
<totfact> 0.12041839E+01</totfact>
</mgrwt>
</event>
<event>
12    1  0.1556559E-007  0.3505025E+04  0.7818608E-02  0.8112600E-01
         -2   -1    0    0    0  501 -0.00000000000E+00  0.00000000000E+00  0.95224905391E+03  0.95224905391E+03  0.00000000000E+00 0.  1.
          2   -1    0    0  501    0  0.00000000000E+00 -0.00000000000E+00 -0.32253126652E+04  0.32253126652E+04  0.00000000000E+00 0. -1.
         23    2    1    2    0    0  0.76600796089E+03  0.24524287165E+03 -0.27649394219E+04  0.28808149713E+04  0.85396896198E+02 0.  0.
        254    2    1    2    0    0 -0.76600796089E+03 -0.24524287165E+03  0.49187581058E+03  0.12967467478E+04  0.89033592129E+03 0.  0.
        -24    2    4    4    0    0 -0.94272796880E+03 -0.13393853889E+03  0.48580161869E+03  0.10720269196E+04  0.81012025746E+02 0.  0.
         24    2    4    4    0    0  0.17672000791E+03 -0.11130433277E+03  0.60741918964E+01  0.22471982822E+03  0.82725387268E+02 0.  0.
         13    1    3    3    0    0  0.62330617416E+03  0.21686833195E+03 -0.21566574655E+04  0.22553744442E+04  0.00000000000E+00 0. -1.
        -13    1    3    3    0    0  0.14270178673E+03  0.28374539705E+02 -0.60828195635E+03  0.62544052704E+03  0.00000000000E+00 0.  1.
          4    1    6    6  502    0  0.16714694232E+02 -0.33436967341E+02 -0.23753722013E+02  0.44290530564E+02  0.00000000000E+00 0. -1.
          1    1    5    5  503    0 -0.14709370749E+03 -0.28923800827E+02  0.45606146782E+02  0.15669417877E+03  0.00000000000E+00 0. -1.
         -2    1    5    5    0  503 -0.79563426131E+03 -0.10501473806E+03  0.44019547190E+03  0.91533274085E+03  0.00000000000E+00 0.  1.
         -3    1    6    6    0  502  0.16000531368E+03 -0.77867365425E+02  0.29827913909E+02  0.18042929765E+03  0.00000000000E+00 0.  1.
<mgrwt>
<rscale>  0 0.35050255E+04</rscale>
<asrwt>0</asrwt>
<pdfrwt beam="1">  1        2 0.49620194E+00 0.35050255E+04</pdfrwt>
<pdfrwt beam="2">  1       -2 0.14649986E+00 0.35050255E+04</pdfrwt>
<totfact> 0.32661564E-01</totfact>
</mgrwt>
</event>
<event>
12    1  0.1556559E-007  0.2699315E+04  0.7818608E-02  0.8335227E-01
         -2   -1    0    0    0  501 -0.00000000000E+00  0.00000000000E+00  0.82192770287E+03  0.82192770287E+03  0.00000000000E+00 0.  1.
          2   -1    0    0  501    0  0.00000000000E+00 -0.00000000000E+00 -0.22162238163E+04  0.22162238163E+04  0.00000000000E+00 0. -1.
         23    2    1    2    0    0 -0.53693046608E+03 -0.14817355407E+03  0.57304956756E+03  0.80466283399E+03  0.94057120893E+02 0.  0.
        254    2    1    2    0    0  0.53693046608E+03  0.14817355407E+03 -0.19673456810E+04  0.22334886852E+04  0.89876189884E+03 0.  0.
        -24    2    4    4    0    0 -0.16306580354E+03  0.28671480594E+03 -0.63428300987E+03  0.71928357878E+03  0.79108115039E+02 0.  0.
         24    2    4    4    0    0  0.69999626961E+03 -0.13854125187E+03 -0.13330626711E+04  0.15142051064E+04  0.81071346232E+02 0.  0.
         13    1    3    3    0    0 -0.59344586823E+02 -0.32538529388E+02  0.11192565019E+03  0.13079712172E+03  0.00000000000E+00 0. -1.
        -13    1    3    3    0    0 -0.47758587925E+03 -0.11563502468E+03  0.46112391737E+03  0.67386571226E+03  0.00000000000E+00 0.  1.
          2    1    6    6  502    0  0.11618143235E+03 -0.35107914003E+02 -0.17192311316E+03  0.21044773148E+03  0.00000000000E+00 0. -1.
          1    1    5    5  503    0 -0.93677489449E+02  0.11123010409E+03 -0.33871252427E+03  0.36861061051E+03  0.00000000000E+00 0. -1.
         -2    1    5    5    0  503 -0.69388314089E+02  0.17548470185E+03 -0.29557048560E+03  0.35067296827E+03  0.00000000000E+00 0.  1.
         -1    1    6    6    0  502  0.58381483726E+03 -0.10343333787E+03 -0.11611395580E+04  0.13037573749E+04  0.00000000000E+00 0.  1.
<mgrwt>
<rscale>  0 0.26993153E+04</rscale>
<asrwt>0</asrwt>
<pdfrwt beam="1">  1        2 0.34095751E+00 0.26993153E+04</pdfrwt>
<pdfrwt beam="2">  1       -2 0.12645042E+00 0.26993153E+04</pdfrwt>
<totfact> 0.20660184E+00</totfact>
</mgrwt>
</event>
<event>
12    1  0.1556559E-007  0.2144690E+04  0.7818608E-02  0.8541808E-01
         -1   -1    0    0    0  501 -0.00000000000E+00  0.00000000000E+00  0.69886616044E+03  0.69886616044E+03  0.00000000000E+00 0.  1.
          1   -1    0    0  501    0  0.00000000000E+00 -0.00000000000E+00 -0.16454140266E+04  0.16454140266E+04  0.00000000000E+00 0. -1.
         23    2    1    2    0    0 -0.47212651223E+03  0.35653345163E+03  0.32288789583E+03  0.68058578431E+03  0.94450361805E+02 0.  0.
        254    2    1    2    0    0  0.47212651223E+03 -0.35653345163E+03 -0.12694357620E+04  0.16636944028E+04  0.89799352236E+03 0.  0.
        -24    2    4    4    0    0 -0.20802628917E+03 -0.14834503538E+03 -0.70064720711E+03  0.75007867720E+03  0.80189317592E+02 0.  0.
         24    2    4    4    0    0  0.68015280140E+03 -0.20818841625E+03 -0.56878855493E+03  0.91361572557E+03  0.72270491107E+02 0.  0.
         11    1    3    3    0    0 -0.39486027687E+03  0.28860171078E+03  0.30433800277E+03  0.57604444763E+03  0.00000000000E+00 0.  1.
        -11    1    3    3    0    0 -0.77266235353E+02  0.67931740854E+02  0.18549893060E+02  0.10454133667E+03  0.00000000000E+00 0. -1.
          4    1    6    6  502    0  0.79310753512E+02 -0.68083936199E+01 -0.84225237275E+02  0.11588977712E+03  0.00000000000E+00 0. -1.
          3    1    5    5  503    0 -0.15885845632E+02 -0.45260875519E+02 -0.95996233580E+02  0.10731348380E+03  0.00000000000E+00 0. -1.
         -2    1    5    5    0  503 -0.19214044354E+03 -0.10308415986E+03 -0.60465097353E+03  0.64276519340E+03  0.00000000000E+00 0.  1.
         -3    1    6    6    0  502  0.60084204789E+03 -0.20138002263E+03 -0.48456331765E+03  0.79772594845E+03  0.00000000000E+00 0.  1.
<mgrwt>
<rscale>  0 0.21446904E+04</rscale>
<asrwt>0</asrwt>
<pdfrwt beam="1">  1        1 0.25314062E+00 0.21446904E+04</pdfrwt>
<pdfrwt beam="2">  1       -1 0.10751787E+00 0.21446904E+04</pdfrwt>
<totfact> 0.38319055E+00</totfact>
</mgrwt>
</event>
<event>
12    1  0.1556559E-007  0.1497248E+04  0.7818608E-02  0.8886285E-01
          2   -1    0    0  501    0  0.00000000000E+00  0.00000000000E+00  0.17984999033E+04  0.17984999033E+04  0.00000000000E+00 0. -1.
         -2   -1    0    0    0  501 -0.00000000000E+00 -0.00000000000E+00 -0.31161428287E+03  0.31161428287E+03  0.00000000000E+00 0.  1.
         23    2    1    2    0    0  0.32158375959E+03 -0.11493380299E+02 -0.62565093061E+01  0.33368009653E+03  0.88062765596E+02 0.  0.
        254    2    1    2    0    0 -0.32158375959E+03  0.11493380299E+02  0.14931421298E+04  0.17764340897E+04  0.90702615345E+03 0.  0.
        -24    2    4    4    0    0 -0.97760061166E+02 -0.39298392557E+03  0.10608013362E+04  0.11381945368E+04  0.78701546686E+02 0.  0.
         24    2    4    4    0    0 -0.22382369843E+03  0.40447730587E+03  0.43234079362E+03  0.63823955290E+03  0.82050143916E+02 0.  0.
         13    1    3    3    0    0  0.23066941353E+03  0.15782570021E+02 -0.36474882033E+02  0.23406812015E+03  0.00000000000E+00 0.  1.
        -13    1    3    3    0    0  0.90914346068E+02 -0.27275950320E+02  0.30218372727E+02  0.99611976373E+02  0.00000000000E+00 0. -1.
          4    1    6    6  502    0 -0.14505752567E+03  0.33075799841E+03  0.32091480030E+03  0.48314474883E+03  0.00000000000E+00 0. -1.
          1    1    5    5  503    0 -0.10977908583E+03 -0.37575865249E+03  0.10021082183E+04  0.10758563537E+04  0.00000000000E+00 0. -1.
         -2    1    5    5    0  503  0.12019024662E+02 -0.17225273085E+02  0.58693117856E+02  0.62338183085E+02  0.00000000000E+00 0.  1.
         -1    1    6    6    0  502 -0.78766172760E+02  0.73719307455E+02  0.11142599332E+03  0.15509480407E+03  0.00000000000E+00 0.  1.
<mgrwt>
<rscale>  0 0.14972485E+04</rscale>
<asrwt>0</asrwt>
<pdfrwt beam="1">  1        2 0.27669229E+00 0.14972485E+04</pdfrwt>
<pdfrwt beam="2">  1       -2 0.47940660E-01 0.14972485E+04</pdfrwt>
<totfact> 0.34441004E+01</totfact>
</mgrwt>
</event>
<event>
12    1  0.1604555E-007  0.1671915E+04  0.7818608E-02  0.8777546E-01
          2   -1    0    0  501    0  0.00000000000E+00  0.00000000000E+00  0.21421000833E+04  0.21421000833E+04  0.00000000000E+00 0.  1.
         -2   -1    0    0    0  501 -0.00000000000E+00 -0.00000000000E+00 -0.32623350996E+03  0.32623350996E+03  0.00000000000E+00 0. -1.
         23    2    1    2    0    0  0.46779205071E+03  0.26171874148E+03  0.10040189226E+04  0.11416835983E+04  0.89784961109E+02 0.  0.
        254    2    1    2    0    0 -0.46779205071E+03 -0.26171874148E+03  0.81184765074E+03  0.13266499950E+04  0.90198530966E+03 0.  0.
        -24    2    4    4    0    0 -0.28939424303E+03 -0.20436250784E+03 -0.11243785798E+03  0.38030336584E+03  0.80469346048E+02 0.  0.
         24    2    4    4    0    0 -0.17839780768E+03 -0.57356233640E+02  0.92428550872E+03  0.94634662915E+03  0.78439311223E+02 0.  0.
         13    1    3    3    0    0  0.37321728585E+03  0.19108866060E+03  0.84847318380E+03  0.94642102803E+03  0.00000000000E+00 0.  1.
        -13    1    3    3    0    0  0.94574764868E+02  0.70630080881E+02  0.15554573881E+03  0.19526257024E+03  0.00000000000E+00 0. -1.
          4    1    6    6  502    0 -0.45244838009E+02 -0.41296138510E+02  0.18173681517E+03  0.19178304516E+03  0.00000000000E+00 0. -1.
          3    1    5    5  503    0 -0.17120336735E+02  0.70800288511E+01 -0.70225478883E+01  0.19812847278E+02  0.00000000000E+00 0. -1.
         -4    1    5    5    0  503 -0.27227390630E+03 -0.21144253669E+03 -0.10541531009E+03  0.36049051856E+03  0.00000000000E+00 0.  1.
         -3    1    6    6    0  502 -0.13315296968E+03 -0.16060095130E+02  0.74254869355E+03  0.75456358399E+03  0.00000000000E+00 0.  1.
<mgrwt>
<rscale>  0 0.16719149E+04</rscale>
<asrwt>0</asrwt>
<pdfrwt beam="1">  1        2 0.32955385E+00 0.16719149E+04</pdfrwt>
<pdfrwt beam="2">  1       -2 0.50189772E-01 0.16719149E+04</pdfrwt>
<totfact> 0.19938128E+01</totfact>
</mgrwt>
</event>
<event>
12    1  0.1556559E-007  0.1349900E+04  0.7818608E-02  0.8990904E-01
         -1   -1    0    0    0  501 -0.00000000000E+00  0.00000000000E+00  0.25075395987E+03  0.25075395987E+03  0.00000000000E+00 0.  1.
          1   -1    0    0  501    0  0.00000000000E+00 -0.00000000000E+00 -0.18167511287E+04  0.18167511287E+04  0.00000000000E+00 0. -1.
         23    2    1    2    0    0 -0.31699517092E+03 -0.91700724081E+02 -0.66613771319E+03  0.74882274196E+03  0.90006026258E+02 0.  0.
        254    2    1    2    0    0  0.31699517092E+03  0.91700724081E+02 -0.89985945563E+03  0.13186823466E+04  0.90569372868E+03 0.  0.
        -24    2    4    4    0    0  0.42309778838E+03  0.22096556643E+03 -0.95937612085E+02  0.49328289026E+03  0.79287226747E+02 0.  0.
         24    2    4    4    0    0 -0.10610261746E+03 -0.12926484235E+03 -0.80392184354E+03  0.82539945634E+03  0.83825814075E+02 0.  0.
         11    1    3    3    0    0 -0.25970494150E+03 -0.10958078996E+03 -0.55756944528E+03  0.62477059188E+03  0.00000000000E+00 0. -1.
        -11    1    3    3    0    0 -0.57290229421E+02  0.17880065884E+02 -0.10856826791E+03  0.12405215008E+03  0.00000000000E+00 0.  1.
          4    1    6    6  502    0 -0.71969619865E+02 -0.25820776356E+02 -0.38709174999E+03  0.39457111094E+03  0.00000000000E+00 0. -1.
          1    1    5    5  503    0  0.31560265814E+03  0.13605328834E+03 -0.93920210985E+02  0.35628154755E+03  0.00000000000E+00 0. -1.
         -2    1    5    5    0  503  0.10749513025E+03  0.84912278090E+02 -0.20174010997E+01  0.13700134271E+03  0.00000000000E+00 0.  1.
         -3    1    6    6    0  502 -0.34132997597E+02 -0.10344406600E+03 -0.41683009356E+03  0.43082834541E+03  0.00000000000E+00 0.  1.
<mgrwt>
<rscale>  0 0.13499001E+04</rscale>
<asrwt>0</asrwt>
<pdfrwt beam="1">  1        1 0.27950018E+00 0.13499001E+04</pdfrwt>
<pdfrwt beam="2">  1       -1 0.38577532E-01 0.13499001E+04</pdfrwt>
<totfact> 0.25290701E+01</totfact>
</mgrwt>
</event>
<event>
12    1  0.1556559E-007  0.1495916E+04  0.7818608E-02  0.8887173E-01
          1   -1    0    0  501    0  0.00000000000E+00  0.00000000000E+00  0.68119763365E+03  0.68119763365E+03  0.00000000000E+00 0. -1.
         -1   -1    0    0    0  501 -0.00000000000E+00 -0.00000000000E+00 -0.82126100966E+03  0.82126100966E+03  0.00000000000E+00 0.  1.
         23    2    1    2    0    0 -0.17709117464E+03  0.36578729430E+02  0.42792957299E+03  0.47335616732E+03  0.90791266726E+02 0.  0.
        254    2    1    2    0    0  0.17709117464E+03 -0.36578729430E+02 -0.56799294900E+03  0.10291024760E+04  0.83889011700E+03 0.  0.
        -24    2    4    4    0    0  0.39044947548E+03  0.26498312572E+03 -0.28470439047E+03  0.55686483000E+03  0.79843591561E+02 0.  0.
         24    2    4    4    0    0 -0.21335830084E+03 -0.30156185515E+03 -0.28328855853E+03  0.47223764599E+03  0.79338955635E+02 0.  0.
         13    1    3    3    0    0 -0.21555969116E+02 -0.22745921542E+02  0.11138789981E+03  0.11571214705E+03  0.00000000000E+00 0.  1.
        -13    1    3    3    0    0 -0.15553520553E+03  0.59324650971E+02  0.31654167318E+03  0.35764402027E+03  0.00000000000E+00 0. -1.
          2    1    6    6  502    0 -0.18072861812E+03 -0.21111741406E+03 -0.17992897568E+03  0.33107073597E+03  0.00000000000E+00 0. -1.
          1    1    5    5  503    0  0.50113006004E+02  0.41199619406E+02 -0.73533988353E+02  0.98061049623E+02  0.00000000000E+00 0. -1.
         -2    1    5    5    0  503  0.34033646948E+03  0.22378350632E+03 -0.21117040212E+03  0.45880378038E+03  0.00000000000E+00 0.  1.
         -1    1    6    6    0  502 -0.32629682719E+02 -0.90444441088E+02 -0.10335958285E+03  0.14116691002E+03  0.00000000000E+00 0.  1.
<mgrwt>
<rscale>  0 0.14959158E+04</rscale>
<asrwt>0</asrwt>
<pdfrwt beam="1">  1        1 0.10479964E+00 0.14959158E+04</pdfrwt>
<pdfrwt beam="2">  1       -1 0.12634785E+00 0.14959158E+04</pdfrwt>
<totfact> 0.14973288E+01</totfact>
</mgrwt>
</event>
<event>
12    1  0.1556559E-007  0.1312328E+04  0.7818608E-02  0.9019845E-01
         -2   -1    0    0    0  501 -0.00000000000E+00  0.00000000000E+00  0.86059646514E+03  0.86059646514E+03  0.00000000000E+00 0.  1.
          2   -1    0    0  501    0  0.00000000000E+00 -0.00000000000E+00 -0.50029428335E+03  0.50029428335E+03  0.00000000000E+00 0. -1.
         23    2    1    2    0    0 -0.10635427873E+03  0.16096362878E+03  0.37673293247E+03  0.43969005247E+03  0.11907609936E+03 0.  0.
        254    2    1    2    0    0  0.10635427873E+03 -0.16096362878E+03 -0.16430750680E+02  0.92120069602E+03  0.90062213519E+03 0.  0.
        -24    2    4    4    0    0 -0.38649099927E+03 -0.20062274079E+02 -0.63513885452E+02  0.40025748923E+03  0.79964096228E+02 0.  0.
         24    2    4    4    0    0  0.49284527800E+03 -0.14090135470E+03  0.47083134772E+02  0.52094320679E+03  0.80095838317E+02 0.  0.
         13    1    3    3    0    0  0.42858403432E+01  0.10626955675E+02 -0.66730559117E+01  0.13260101416E+02  0.00000000000E+00 0. -1.
        -13    1    3    3    0    0 -0.11064011907E+03  0.15033667311E+03  0.38340598838E+03  0.42642995106E+03  0.00000000000E+00 0.  1.
          2    1    6    6  502    0  0.37086251790E+03 -0.13999994832E+03  0.44849433424E+02  0.39893666714E+03  0.00000000000E+00 0. -1.
          1    1    5    5  503    0 -0.13308386877E+03  0.24427896951E+02 -0.23674028299E+00  0.13530740675E+03  0.00000000000E+00 0. -1.
         -2    1    5    5    0  503 -0.25340713050E+03 -0.44490171030E+02 -0.63277145169E+02  0.26495008248E+03  0.00000000000E+00 0.  1.
         -1    1    6    6    0  502  0.12198276010E+03 -0.90140638689E+00  0.22337013483E+01  0.12200653964E+03  0.00000000000E+00 0.  1.
<mgrwt>
<rscale>  0 0.13123285E+04</rscale>
<asrwt>0</asrwt>
<pdfrwt beam="1">  1        2 0.76968351E-01 0.13123285E+04</pdfrwt>
<pdfrwt beam="2">  1       -2 0.13239946E+00 0.13123285E+04</pdfrwt>
<totfact> 0.24971182E+01</totfact>
</mgrwt>
</event>
<event>
12    1  0.1556559E-007  0.2008218E+04  0.7818608E-02  0.8602788E-01
          2   -1    0    0  501    0  0.00000000000E+00  0.00000000000E+00  0.17275050342E+04  0.17275050342E+04  0.00000000000E+00 0. -1.
         -2   -1    0    0    0  501 -0.00000000000E+00 -0.00000000000E+00 -0.58363639285E+03  0.58363639285E+03  0.00000000000E+00 0.  1.
         23    2    1    2    0    0  0.57496365200E+03  0.21110312508E+03 -0.13836077111E+03  0.63448372583E+03  0.90984420731E+02 0.  0.
        254    2    1    2    0    0 -0.57496365200E+03 -0.21110312508E+03  0.12822294125E+04  0.16766577012E+04  0.88989946083E+03 0.  0.
        -24    2    4    4    0    0 -0.66132628889E+03  0.16524067040E+03  0.81827174049E+03  0.10678870781E+04  0.78468023345E+02 0.  0.
         24    2    4    4    0    0  0.86362636889E+02 -0.37634379548E+03  0.46395767197E+03  0.60877062316E+03  0.79068279372E+02 0.  0.
         13    1    3    3    0    0 -0.32141724656E+01  0.26297894151E+01 -0.30456625891E+01  0.51500250110E+01  0.00000000000E+00 0. -1.
        -13    1    3    3    0    0  0.57817782447E+03  0.20847333566E+03 -0.13531510852E+03  0.62933370082E+03  0.00000000000E+00 0.  1.
          4    1    6    6  502    0  0.52172252826E+02 -0.13984233906E+03  0.12879438408E+03  0.19714415317E+03  0.00000000000E+00 0. -1.
          3    1    5    5  503    0 -0.43278607974E+03  0.14618100056E+03  0.54108292464E+03  0.70812668858E+03  0.00000000000E+00 0. -1.
         -4    1    5    5    0  503 -0.22854020915E+03  0.19059669845E+02  0.27718881585E+03  0.35976038949E+03  0.00000000000E+00 0.  1.
         -3    1    6    6    0  502  0.34190384063E+02 -0.23650145642E+03  0.33516328789E+03  0.41162646999E+03  0.00000000000E+00 0.  1.
<mgrwt>
<rscale>  0 0.20082179E+04</rscale>
<asrwt>0</asrwt>
<pdfrwt beam="1">  1        2 0.26577000E+00 0.20082179E+04</pdfrwt>
<pdfrwt beam="2">  1       -2 0.89790215E-01 0.20082179E+04</pdfrwt>
<totfact> 0.93392759E+00</totfact>
</mgrwt>
</event>
<event>
12    1  0.1556559E-007  0.1742736E+04  0.7818608E-02  0.8737359E-01
          2   -1    0    0  501    0  0.00000000000E+00  0.00000000000E+00  0.25614204641E+04  0.25614204641E+04  0.00000000000E+00 0. -1.
         -2   -1    0    0    0  501 -0.00000000000E+00 -0.00000000000E+00 -0.29643018406E+03  0.29643018406E+03  0.00000000000E+00 0.  1.
         23    2    1    2    0    0 -0.29004813083E+03  0.39992698053E+02  0.17666510973E+04  0.17932903450E+04  0.95429702227E+02 0.  0.
        254    2    1    2    0    0  0.29004813083E+03 -0.39992698053E+02  0.49833918274E+03  0.10645603031E+04  0.89399069555E+03 0.  0.
        -24    2    4    4    0    0  0.29844812911E+03  0.13455068415E+03 -0.16413432620E+03  0.37476743807E+03  0.79595120606E+02 0.  0.
         24    2    4    4    0    0 -0.83999982816E+01 -0.17454338220E+03  0.66247350894E+03  0.68979286500E+03  0.80044327197E+02 0.  0.
         11    1    3    3    0    0 -0.78223151070E+02  0.35018376754E+02  0.74398689284E+03  0.74890696671E+03  0.00000000000E+00 0.  1.
        -11    1    3    3    0    0 -0.21182497976E+03  0.49743212990E+01  0.10226642044E+04  0.10443833783E+04  0.00000000000E+00 0. -1.
          2    1    6    6  502    0 -0.13801621956E+02 -0.18050960775E+03  0.65149454601E+03  0.67617996624E+03  0.00000000000E+00 0. -1.
          3    1    5    5  503    0  0.19530357780E+03  0.12711372103E+03 -0.12277012825E+03  0.26338923662E+03  0.00000000000E+00 0. -1.
         -4    1    5    5    0  503  0.10314455131E+03  0.74369631104E+01 -0.41364197953E+02  0.11137820145E+03  0.00000000000E+00 0.  1.
         -1    1    6    6    0  502  0.54016236741E+01  0.59662255544E+01  0.10978962928E+02  0.13612898760E+02  0.00000000000E+00 0.  1.
<mgrwt>
<rscale>  0 0.17427362E+04</rscale>
<asrwt>0</asrwt>
<pdfrwt beam="1">  1        2 0.39406467E+00 0.17427362E+04</pdfrwt>
<pdfrwt beam="2">  1       -2 0.45604645E-01 0.17427362E+04</pdfrwt>
<totfact> 0.13886187E+01</totfact>
</mgrwt>
</event>
<event>
12    1  0.1556559E-007  0.2874057E+04  0.7818608E-02  0.8280638E-01
         -1   -1    0    0    0  501 -0.00000000000E+00  0.00000000000E+00  0.43637334517E+03  0.43637334517E+03  0.00000000000E+00 0.  1.
          1   -1    0    0  501    0  0.00000000000E+00 -0.00000000000E+00 -0.47323041523E+04  0.47323041523E+04  0.00000000000E+00 0. -1.
         23    2    1    2    0    0  0.50952101035E+03 -0.76737952944E+03 -0.35736046916E+04  0.36915332339E+04  0.91017159617E+02 0.  0.
        254    2    1    2    0    0 -0.50952101035E+03  0.76737952944E+03 -0.72232611551E+03  0.14771442635E+04  0.90095347041E+03 0.  0.
        -24    2    4    4    0    0 -0.19708654698E+03  0.37873344109E+03  0.15773847808E+03  0.46243059572E+03  0.81722102217E+02 0.  0.
         24    2    4    4    0    0 -0.31243446337E+03  0.38864608835E+03 -0.88006459359E+03  0.10147136678E+04  0.80430484256E+02 0.  0.
         11    1    3    3    0    0  0.46585516676E+03 -0.73886406128E+03 -0.33726039311E+04  0.34838769228E+04  0.00000000000E+00 0. -1.
        -11    1    3    3    0    0  0.43665843600E+02 -0.28515468158E+02 -0.20100076050E+03  0.20765631110E+03  0.00000000000E+00 0.  1.
          2    1    6    6  502    0 -0.76562083125E+00  0.18758095424E+02 -0.57387687595E+02  0.60380452191E+02  0.00000000000E+00 0. -1.
          1    1    5    5  503    0 -0.10300142713E+03  0.13145130779E+03  0.34342175699E+02  0.17049376922E+03  0.00000000000E+00 0. -1.
         -2    1    5    5    0  503 -0.94085119852E+02  0.24728213330E+03  0.12339630238E+03  0.29193682650E+03  0.00000000000E+00 0.  1.
         -1    1    6    6    0  502 -0.31166884254E+03  0.36988799292E+03 -0.82267690599E+03  0.95433321559E+03  0.00000000000E+00 0.  1.
<mgrwt>
<rscale>  0 0.28740573E+04</rscale>
<asrwt>0</asrwt>
<pdfrwt beam="1">  1        1 0.72804680E+00 0.28740573E+04</pdfrwt>
<pdfrwt beam="2">  1       -1 0.67134360E-01 0.28740573E+04</pdfrwt>
<totfact> 0.35077658E-02</totfact>
</mgrwt>
</event>
<event>
12    1  0.1556559E-007  0.1724612E+04  0.7818608E-02  0.8747451E-01
          2   -1    0    0  501    0  0.00000000000E+00  0.00000000000E+00  0.17176825012E+04  0.17176825012E+04  0.00000000000E+00 0. -1.
         -2   -1    0    0    0  501 -0.00000000000E+00 -0.00000000000E+00 -0.43289217990E+03  0.43289217990E+03  0.00000000000E+00 0.  1.
         23    2    1    2    0    0  0.57284271943E+03  0.21917446358E+03  0.32007304553E+03  0.69775044286E+03  0.90679100962E+02 0.  0.
        254    2    1    2    0    0 -0.57284271943E+03 -0.21917446358E+03  0.96471727573E+03  0.14528242382E+04  0.89656712984E+03 0.  0.
        -24    2    4    4    0    0 -0.54496578212E+03 -0.16222060466E+03  0.10097948474E+03  0.58307141150E+03  0.80449899343E+02 0.  0.
         24    2    4    4    0    0 -0.27876937307E+02 -0.56953858916E+02  0.86373779099E+03  0.86975282670E+03  0.80038380147E+02 0.  0.
         11    1    3    3    0    0  0.62091192200E+02 -0.47540244988E+01  0.34851084425E+02  0.71361859444E+02  0.00000000000E+00 0. -1.
        -11    1    3    3    0    0  0.51075152723E+03  0.22392848808E+03  0.28522196110E+03  0.62638858342E+03  0.00000000000E+00 0.  1.
          2    1    6    6  502    0 -0.52352067310E+02 -0.20421804995E+02  0.56644990958E+03  0.56923043588E+03  0.00000000000E+00 0. -1.
          3    1    5    5  503    0 -0.74621330519E+02 -0.35194466294E+02 -0.10825065804E+02  0.83211630652E+02  0.00000000000E+00 0. -1.
         -4    1    5    5    0  503 -0.47034445160E+03 -0.12702613837E+03  0.11180455055E+03  0.49985978084E+03  0.00000000000E+00 0.  1.
         -3    1    6    6    0  502  0.24475130004E+02 -0.36532053920E+02  0.29728788140E+03  0.30052239082E+03  0.00000000000E+00 0.  1.
<mgrwt>
<rscale>  0 0.17246116E+04</rscale>
<asrwt>0</asrwt>
<pdfrwt beam="1">  1        2 0.26425884E+00 0.17246116E+04</pdfrwt>
<pdfrwt beam="2">  1       -2 0.66598798E-01 0.17246116E+04</pdfrwt>
<totfact> 0.18860293E+01</totfact>
</mgrwt>
</event>
<event>
12    1  0.1556559E-007  0.1393819E+04  0.7818608E-02  0.8958305E-01
         -1   -1    0    0    0  501 -0.00000000000E+00  0.00000000000E+00  0.64097127839E+03  0.64097127839E+03  0.00000000000E+00 0.  1.
          1   -1    0    0  501    0  0.00000000000E+00 -0.00000000000E+00 -0.75772969387E+03  0.75772969387E+03  0.00000000000E+00 0. -1.
         23    2    1    2    0    0  0.36315217727E+02  0.25575929125E+03  0.27178413558E+03  0.38613808925E+03  0.92219290365E+02 0.  0.
        254    2    1    2    0    0 -0.36315217727E+02 -0.25575929125E+03 -0.38854255106E+03  0.10125628830E+04  0.89865825983E+03 0.  0.
        -24    2    4    4    0    0  0.25513206128E+03 -0.42468150027E+03 -0.43427146443E+03  0.66360922683E+03  0.79616303293E+02 0.  0.
         24    2    4    4    0    0 -0.29144727901E+03  0.16892220902E+03  0.45728913370E+02  0.34895365618E+03  0.78748279328E+02 0.  0.
         13    1    3    3    0    0  0.65445707696E+02  0.18882032811E+03  0.21596865286E+03  0.29424261414E+03  0.00000000000E+00 0.  1.
        -13    1    3    3    0    0 -0.29130489970E+02  0.66938963145E+02  0.55815482722E+02  0.91895475102E+02  0.00000000000E+00 0. -1.
          2    1    6    6  502    0 -0.14882769385E+03  0.46160142518E+02  0.39131632424E+02  0.16066028093E+03  0.00000000000E+00 0. -1.
          1    1    5    5  503    0  0.28566799097E+02 -0.45903409877E+02 -0.85113605924E+02  0.10083407639E+03  0.00000000000E+00 0. -1.
         -2    1    5    5    0  503  0.22656526219E+03 -0.37877809040E+03 -0.34915785851E+03  0.56277515044E+03  0.00000000000E+00 0.  1.
         -1    1    6    6    0  502 -0.14261958516E+03  0.12276206650E+03  0.65972809468E+01  0.18829337524E+03  0.00000000000E+00 0.  1.
<mgrwt>
<rscale>  0 0.13938192E+04</rscale>
<asrwt>0</asrwt>
<pdfrwt beam="1">  1        1 0.11657380E+00 0.13938192E+04</pdfrwt>
<pdfrwt beam="2">  1       -1 0.98610966E-01 0.13938192E+04</pdfrwt>
<totfact> 0.23147589E+01</totfact>
</mgrwt>
</event>
<event>
12    1  0.1556559E-007  0.1334152E+04  0.7818608E-02  0.9002912E-01
         -2   -1    0    0    0  501 -0.00000000000E+00  0.00000000000E+00  0.48340226341E+03  0.48340226341E+03  0.00000000000E+00 0.  1.
          2   -1    0    0  501    0  0.00000000000E+00 -0.00000000000E+00 -0.92053895562E+03  0.92053895562E+03  0.00000000000E+00 0. -1.
         23    2    1    2    0    0 -0.24356637403E+03 -0.23596282945E+03 -0.11922946179E+02  0.35083767069E+03  0.89117221058E+02 0.  0.
        254    2    1    2    0    0  0.24356637403E+03  0.23596282945E+03 -0.42521374603E+03  0.10531035483E+04  0.90178562767E+03 0.  0.
        -24    2    4    4    0    0  0.35118806414E+03 -0.24292592122E+02 -0.60727351762E+03  0.70693890973E+03  0.84013751617E+02 0.  0.
         24    2    4    4    0    0 -0.10762169010E+03  0.26025542157E+03  0.18205977160E+03  0.34616463861E+03  0.85842203812E+02 0.  0.
         13    1    3    3    0    0 -0.64906256146E+02 -0.11127251505E+03 -0.29848194247E+02  0.13223202862E+03  0.00000000000E+00 0. -1.
        -13    1    3    3    0    0 -0.17866011789E+03 -0.12469031440E+03  0.17925248068E+02  0.21860564208E+03  0.00000000000E+00 0.  1.
          2    1    6    6  502    0 -0.12183145157E+03  0.23999955236E+03  0.16068998288E+03  0.31347082531E+03  0.00000000000E+00 0. -1.
          1    1    5    5  503    0  0.19525697364E+03  0.17493042491E+02 -0.27735809120E+03  0.33964511339E+03  0.00000000000E+00 0. -1.
         -2    1    5    5    0  503  0.15593109049E+03 -0.41785634613E+02 -0.32991542642E+03  0.36729379634E+03  0.00000000000E+00 0.  1.
         -1    1    6    6    0  502  0.14209761466E+02  0.20255869213E+02  0.21369788714E+02  0.32693813301E+02  0.00000000000E+00 0.  1.
<mgrwt>
<rscale>  0 0.13341523E+04</rscale>
<asrwt>0</asrwt>
<pdfrwt beam="1">  1        2 0.14162138E+00 0.13341523E+04</pdfrwt>
<pdfrwt beam="2">  1       -2 0.74369580E-01 0.13341523E+04</pdfrwt>
<totfact> 0.45200992E+01</totfact>
</mgrwt>
</event>
<event>
12    1  0.1556559E-007  0.1525214E+04  0.7818608E-02  0.8867857E-01
         -2   -1    0    0    0  501 -0.00000000000E+00  0.00000000000E+00  0.16708000621E+04  0.16708000621E+04  0.00000000000E+00 0.  1.
          2   -1    0    0  501    0  0.00000000000E+00 -0.00000000000E+00 -0.34807822577E+03  0.34807822577E+03  0.00000000000E+00 0. -1.
         23    2    1    2    0    0  0.39085878085E+03 -0.30125769128E+03  0.40959258348E+03  0.64771872030E+03  0.90811194600E+02 0.  0.
        254    2    1    2    0    0 -0.39085878085E+03  0.30125769128E+03  0.91312925285E+03  0.13711595676E+04  0.89596135195E+03 0.  0.
        -24    2    4    4    0    0  0.16837421636E+03  0.33986959587E+03  0.13798664416E+03  0.41142601011E+03  0.79811207856E+02 0.  0.
         24    2    4    4    0    0 -0.55923299721E+03 -0.38611904586E+02  0.77514260869E+03  0.95973355745E+03  0.77524274570E+02 0.  0.
         11    1    3    3    0    0  0.33470417159E+03 -0.23307408809E+03  0.37089312745E+03  0.55128225530E+03  0.00000000000E+00 0. -1.
        -11    1    3    3    0    0  0.56154609257E+02 -0.68183603191E+02  0.38699456033E+02  0.96436465003E+02  0.00000000000E+00 0.  1.
          4    1    6    6  502    0 -0.49664598310E+01 -0.42892033558E+01  0.47253142235E+00  0.65792305497E+01  0.00000000000E+00 0. -1.
          1    1    5    5  503    0  0.14694467947E+01  0.71531428029E+02  0.27763751993E+02  0.76744578926E+02  0.00000000000E+00 0. -1.
         -2    1    5    5    0  503  0.16690476957E+03  0.26833816784E+03  0.11022289217E+03  0.33468143119E+03  0.00000000000E+00 0.  1.
         -3    1    6    6    0  502 -0.55426653738E+03 -0.34322701230E+02  0.77467007726E+03  0.95315432690E+03  0.00000000000E+00 0.  1.
<mgrwt>
<rscale>  0 0.15252136E+04</rscale>
<asrwt>0</asrwt>
<pdfrwt beam="1">  1        2 0.53550497E-01 0.15252136E+04</pdfrwt>
<pdfrwt beam="2">  1       -2 0.25704616E+00 0.15252136E+04</pdfrwt>
<totfact> 0.52202238E+00</totfact>
</mgrwt>
</event>
<event>
12    1  0.1556559E-007  0.1331319E+04  0.7818608E-02  0.9005091E-01
          2   -1    0    0  501    0  0.00000000000E+00  0.00000000000E+00  0.70872963510E+03  0.70872963510E+03  0.00000000000E+00 0.  1.
         -2   -1    0    0    0  501 -0.00000000000E+00 -0.00000000000E+00 -0.62520711406E+03  0.62520711406E+03  0.00000000000E+00 0. -1.
         23    2    1    2    0    0  0.59230055260E+02 -0.39880537726E+02 -0.32319187445E+03  0.34390146636E+03  0.93362594864E+02 0.  0.
        254    2    1    2    0    0 -0.59230055260E+02  0.39880537726E+02  0.40671439549E+03  0.99003528280E+03  0.89980809340E+03 0.  0.
        -24    2    4    4    0    0  0.26025336297E+03 -0.27573864406E+03  0.14461260247E+02  0.38800948496E+03  0.81108690101E+02 0.  0.
         24    2    4    4    0    0 -0.31948341823E+03  0.31561918178E+03  0.39225313524E+03  0.60202579784E+03  0.82990461663E+02 0.  0.
         13    1    3    3    0    0  0.49450026950E+02 -0.47616041850E+02 -0.32420283057E+03  0.33139111025E+03  0.00000000000E+00 0. -1.
        -13    1    3    3    0    0  0.97800283093E+01  0.77355041249E+01  0.10109561133E+01  0.12510356112E+02  0.00000000000E+00 0.  1.
          4    1    6    6  502    0  0.23954082018E+01 -0.71921842485E+00  0.10871028572E+02  0.11155022089E+02  0.00000000000E+00 0. -1.
          1    1    5    5  503    0  0.11109551890E+03 -0.11485727953E+03 -0.33908692672E+02  0.16335301779E+03  0.00000000000E+00 0. -1.
         -2    1    5    5    0  503  0.14915784406E+03 -0.16088136452E+03  0.48369952919E+02  0.22465646717E+03  0.00000000000E+00 0.  1.
         -3    1    6    6    0  502 -0.32187882643E+03  0.31633840021E+03  0.38138210667E+03  0.59087077575E+03  0.00000000000E+00 0.  1.
<mgrwt>
<rscale>  0 0.13313194E+04</rscale>
<asrwt>0</asrwt>
<pdfrwt beam="1">  1        2 0.10903533E+00 0.13313194E+04</pdfrwt>
<pdfrwt beam="2">  1       -2 0.96185710E-01 0.13313194E+04</pdfrwt>
<totfact> 0.35722946E+01</totfact>
</mgrwt>
</event>
<event>
12    1  0.1556559E-007  0.1426532E+04  0.7818608E-02  0.8934834E-01
         -2   -1    0    0    0  501 -0.00000000000E+00  0.00000000000E+00  0.61938959545E+03  0.61938959545E+03  0.00000000000E+00 0.  1.
          2   -1    0    0  501    0  0.00000000000E+00 -0.00000000000E+00 -0.82137069285E+03  0.82137069285E+03  0.00000000000E+00 0. -1.
         23    2    1    2    0    0 -0.54922946765E+02  0.40669597823E+03 -0.54742635124E+02  0.42361480967E+03  0.89635941888E+02 0.  0.
        254    2    1    2    0    0  0.54922946765E+02 -0.40669597823E+03 -0.14723846228E+03  0.10171454786E+04  0.91896007047E+03 0.  0.
        -24    2    4    4    0    0 -0.39516128817E+03 -0.25601727521E+03 -0.22856903530E+03  0.52949155433E+03  0.80126233752E+02 0.  0.
         24    2    4    4    0    0  0.45008423493E+03 -0.15067870302E+03  0.81330573017E+02  0.48765392430E+03  0.76888215586E+02 0.  0.
         13    1    3    3    0    0  0.13564718029E+02  0.38279884684E+02 -0.25041029851E+02  0.47711679101E+02  0.00000000000E+00 0. -1.
        -13    1    3    3    0    0 -0.68487664794E+02  0.36841609355E+03 -0.29701605273E+02  0.37590313057E+03  0.00000000000E+00 0.  1.
          4    1    6    6  502    0  0.13949724065E+03 -0.35709250712E+02 -0.92956486744E+01  0.14429497504E+03  0.00000000000E+00 0. -1.
          1    1    5    5  503    0 -0.16665802820E+03 -0.12947468906E+03 -0.63039353820E+02  0.22025565509E+03  0.00000000000E+00 0. -1.
         -2    1    5    5    0  503 -0.22850325997E+03 -0.12654258616E+03 -0.16552968148E+03  0.30923589924E+03  0.00000000000E+00 0.  1.
         -3    1    6    6    0  502  0.31058699428E+03 -0.11496945231E+03  0.90626221692E+02  0.34335894926E+03  0.00000000000E+00 0.  1.
<mgrwt>
<rscale>  0 0.14265321E+04</rscale>
<asrwt>0</asrwt>
<pdfrwt beam="1">  1        2 0.12636472E+00 0.14265321E+04</pdfrwt>
<pdfrwt beam="2">  1       -2 0.95290707E-01 0.14265321E+04</pdfrwt>
<totfact> 0.29898038E+01</totfact>
</mgrwt>
</event>
<event>
12    1  0.1556559E-007  0.1533125E+04  0.7818608E-02  0.8862719E-01
         -2   -1    0    0    0  501 -0.00000000000E+00  0.00000000000E+00  0.21633298515E+03  0.21633298515E+03  0.00000000000E+00 0. -1.
          2   -1    0    0  501    0  0.00000000000E+00 -0.00000000000E+00 -0.27162670412E+04  0.27162670412E+04  0.00000000000E+00 0.  1.
         23    2    1    2    0    0 -0.21030802263E+03 -0.44754356487E+03 -0.89969839879E+03  0.10305399709E+04  0.89614262571E+02 0.  0.
        254    2    1    2    0    0  0.21030802263E+03  0.44754356487E+03 -0.16002356573E+04  0.19020600554E+04  0.90141754411E+03 0.  0.
        -24    2    4    4    0    0 -0.26059527590E+03  0.46795441470E+03 -0.97389986166E+03  0.11142436583E+04  0.78528705434E+02 0.  0.
         24    2    4    4    0    0  0.47090329853E+03 -0.20410849825E+02 -0.62633579560E+03  0.78781639707E+03  0.78686894035E+02 0.  0.
         11    1    3    3    0    0 -0.84299354913E+02 -0.12275770276E+03 -0.20492782959E+03  0.25332044956E+03  0.00000000000E+00 0. -1.
        -11    1    3    3    0    0 -0.12600866772E+03 -0.32478586211E+03 -0.69477056920E+03  0.77721952136E+03  0.00000000000E+00 0.  1.
          2    1    6    6  502    0  0.27531761972E+03 -0.20285189771E+02 -0.30278560211E+03  0.40974431234E+03  0.00000000000E+00 0. -1.
          3    1    5    5  503    0 -0.29372549025E+02  0.57383005122E+02 -0.17804471841E+03  0.18935542682E+03  0.00000000000E+00 0. -1.
         -4    1    5    5    0  503 -0.23122272687E+03  0.41057140958E+03 -0.79585514325E+03  0.92488823153E+03  0.00000000000E+00 0.  1.
         -1    1    6    6    0  502  0.19558567881E+03 -0.12566005416E+00 -0.32355019349E+03  0.37807208473E+03  0.00000000000E+00 0.  1.
<mgrwt>
<rscale>  0 0.15331251E+04</rscale>
<asrwt>0</asrwt>
<pdfrwt beam="1">  1        2 0.41788723E+00 0.15331251E+04</pdfrwt>
<pdfrwt beam="2">  1       -2 0.33281998E-01 0.15331251E+04</pdfrwt>
<totfact> 0.21193185E+01</totfact>
</mgrwt>
</event>
<event>
12    1  0.1556559E-007  0.1658188E+04  0.7818608E-02  0.8785577E-01
          2   -1    0    0  501    0  0.00000000000E+00  0.00000000000E+00  0.19773931822E+04  0.19773931822E+04  0.00000000000E+00 0. -1.
         -2   -1    0    0    0  501 -0.00000000000E+00 -0.00000000000E+00 -0.34762789051E+03  0.34762789051E+03  0.00000000000E+00 0.  1.
         23    2    1    2    0    0 -0.10901233784E+03 -0.46565332722E+03  0.10486325177E+04  0.11562121926E+04  0.92085646544E+02 0.  0.
        254    2    1    2    0    0  0.10901233784E+03  0.46565332722E+03  0.58113277400E+03  0.11688088801E+04  0.89424951001E+03 0.  0.
        -24    2    4    4    0    0  0.13697678653E+03  0.42203159209E+03 -0.11573369891E+03  0.46541756090E+03  0.79661233742E+02 0.  0.
         24    2    4    4    0    0 -0.27964448697E+02  0.43621735128E+02  0.69686647290E+03  0.70339131916E+03  0.80321856571E+02 0.  0.
         13    1    3    3    0    0 -0.11932897201E+03 -0.33076081742E+03  0.74596349585E+03  0.82468397526E+03  0.00000000000E+00 0. -1.
        -13    1    3    3    0    0  0.10316634172E+02 -0.13489250980E+03  0.30266902182E+03  0.33152821737E+03  0.00000000000E+00 0.  1.
          2    1    6    6  502    0 -0.42409356683E+02  0.11153359153E+02  0.17847523033E+03  0.18378345626E+03  0.00000000000E+00 0. -1.
          3    1    5    5  503    0  0.12912441164E+03  0.29408908839E+03 -0.99286500395E+02  0.33618345402E+03  0.00000000000E+00 0. -1.
         -4    1    5    5    0  503  0.78523748961E+01  0.12794250370E+03 -0.16447198512E+02  0.12923410689E+03  0.00000000000E+00 0.  1.
         -1    1    6    6    0  502  0.14444907986E+02  0.32468375974E+02  0.51839124257E+03  0.51960786289E+03  0.00000000000E+00 0.  1.
<mgrwt>
<rscale>  0 0.16581882E+04</rscale>
<asrwt>0</asrwt>
<pdfrwt beam="1">  1        2 0.30421433E+00 0.16581882E+04</pdfrwt>
<pdfrwt beam="2">  1       -2 0.53481215E-01 0.16581882E+04</pdfrwt>
<totfact> 0.21636766E+01</totfact>
</mgrwt>
</event>
<event>
12    1  0.1556559E-007  0.1239744E+04  0.7818608E-02  0.9078763E-01
         -2   -1    0    0    0  501 -0.00000000000E+00  0.00000000000E+00  0.42498528767E+03  0.42498528767E+03  0.00000000000E+00 0.  1.
          2   -1    0    0  501    0  0.00000000000E+00 -0.00000000000E+00 -0.90412826546E+03  0.90412826546E+03  0.00000000000E+00 0. -1.
         23    2    1    2    0    0 -0.12893005012E+03 -0.66136499480E+02  0.15422052289E+03  0.23205914986E+03  0.95239093679E+02 0.  0.
        254    2    1    2    0    0  0.12893005012E+03  0.66136499480E+02 -0.63336350068E+03  0.10970544033E+04  0.88395816945E+03 0.  0.
        -24    2    4    4    0    0 -0.16035907532E+03 -0.33939782487E+03 -0.21136303271E+03  0.43857048395E+03  0.82242453959E+02 0.  0.
         24    2    4    4    0    0  0.28928912544E+03  0.40553432435E+03 -0.42200046797E+03  0.65848391931E+03  0.85850979615E+02 0.  0.
         13    1    3    3    0    0  0.75298172113E+01 -0.31576019574E+02  0.24982059919E+02  0.40961524351E+02  0.00000000000E+00 0. -1.
        -13    1    3    3    0    0 -0.13645986733E+03 -0.34560479906E+02  0.12923846297E+03  0.19109762551E+03  0.00000000000E+00 0.  1.
          4    1    6    6  502    0  0.11477358264E+03  0.12642154516E+03 -0.99363231741E+02  0.19755615448E+03  0.00000000000E+00 0. -1.
          1    1    5    5  503    0 -0.16127194283E+03 -0.28350688926E+03 -0.19628637266E+03  0.38067458005E+03  0.00000000000E+00 0. -1.
         -2    1    5    5    0  503  0.91286751241E+00 -0.55890935613E+02 -0.15076660050E+02  0.57895903906E+02  0.00000000000E+00 0.  1.
         -3    1    6    6    0  502  0.17451554279E+03  0.27911277919E+03 -0.32263723623E+03  0.46092776483E+03  0.00000000000E+00 0.  1.
<mgrwt>
<rscale>  0 0.12397439E+04</rscale>
<asrwt>0</asrwt>
<pdfrwt beam="1">  1        2 0.13909666E+00 0.12397439E+04</pdfrwt>
<pdfrwt beam="2">  1       -2 0.65382352E-01 0.12397439E+04</pdfrwt>
<totfact> 0.61828614E+01</totfact>
</mgrwt>
</event>
<event>
12    1  0.1556559E-007  0.1709765E+04  0.7818608E-02  0.8755815E-01
         -2   -1    0    0    0  501 -0.00000000000E+00  0.00000000000E+00  0.66878938493E+03  0.66878938493E+03  0.00000000000E+00 0.  1.
          2   -1    0    0  501    0  0.00000000000E+00 -0.00000000000E+00 -0.10927565210E+04  0.10927565210E+04  0.00000000000E+00 0. -1.
         23    2    1    2    0    0  0.35423972598E+03 -0.41766280727E+03 -0.41709609799E+03  0.69428689925E+03  0.90206094414E+02 0.  0.
        254    2    1    2    0    0 -0.35423972598E+03  0.41766280727E+03 -0.68710380888E+01  0.10672590067E+04  0.91600577081E+03 0.  0.
        -24    2    4    4    0    0 -0.28420059264E+03 -0.69421442411E+02  0.34192458043E+03  0.45877330147E+03  0.89281632579E+02 0.  0.
         24    2    4    4    0    0 -0.70039133336E+02  0.48708424968E+03 -0.34879561852E+03  0.60848570522E+03  0.80249133793E+02 0.  0.
         11    1    3    3    0    0  0.68893400966E+02 -0.74732446396E+02 -0.36891670966E+02  0.10813063686E+03  0.00000000000E+00 0.  1.
        -11    1    3    3    0    0  0.28534632501E+03 -0.34293036088E+03 -0.38020442702E+03  0.58615626239E+03  0.00000000000E+00 0. -1.
          2    1    6    6  502    0 -0.63463869965E+02  0.40395620019E+03 -0.25031492673E+03  0.47944325733E+03  0.00000000000E+00 0. -1.
          3    1    5    5  503    0 -0.15405560391E+03 -0.20999600166E+02  0.24220967243E+03  0.28781875846E+03  0.00000000000E+00 0. -1.
         -4    1    5    5    0  503 -0.13014498873E+03 -0.48421842245E+02  0.99714907995E+02  0.17095454300E+03  0.00000000000E+00 0.  1.
         -1    1    6    6    0  502 -0.65752633710E+01  0.83128049496E+02 -0.98480691789E+02  0.12904244789E+03  0.00000000000E+00 0.  1.
<mgrwt>
<rscale>  0 0.17097649E+04</rscale>
<asrwt>0</asrwt>
<pdfrwt beam="1">  1        2 0.16811639E+00 0.17097649E+04</pdfrwt>
<pdfrwt beam="2">  1       -2 0.10289068E+00 0.17097649E+04</pdfrwt>
<totfact> 0.16155057E+01</totfact>
</mgrwt>
</event>
<event>
12    1  0.1556559E-007  0.1740006E+04  0.7818608E-02  0.8738871E-01
         -2   -1    0    0    0  501 -0.00000000000E+00  0.00000000000E+00  0.31012327660E+03  0.31012327660E+03  0.00000000000E+00 0.  1.
          2   -1    0    0  501    0  0.00000000000E+00 -0.00000000000E+00 -0.24406586194E+04  0.24406586194E+04  0.00000000000E+00 0. -1.
         23    2    1    2    0    0 -0.23671020870E+03  0.39400375868E+03 -0.15029111847E+04  0.15743825675E+04  0.93100778956E+02 0.  0.
        254    2    1    2    0    0  0.23671020870E+03 -0.39400375868E+03 -0.62762415803E+03  0.11763993284E+04  0.88245827742E+03 0.  0.
        -24    2    4    4    0    0 -0.28903868873E+03 -0.90365201650E+02 -0.43077240909E+03  0.53268202064E+03  0.80473805864E+02 0.  0.
         24    2    4    4    0    0  0.52574889743E+03 -0.30363855703E+03 -0.19685174894E+03  0.64371730777E+03  0.83744162807E+02 0.  0.
         11    1    3    3    0    0 -0.19485057926E+03  0.24347758220E+03 -0.10460853356E+04  0.10915780369E+04  0.00000000000E+00 0. -1.
        -11    1    3    3    0    0 -0.41859629440E+02  0.15052617648E+03 -0.45682584914E+03  0.48280453066E+03  0.00000000000E+00 0.  1.
          4    1    6    6  502    0  0.51703684821E+03 -0.30527836985E+03 -0.20195467027E+03  0.63348849583E+03  0.00000000000E+00 0. -1.
          1    1    5    5  503    0 -0.18028973535E+03 -0.36218006170E+02 -0.19869981269E+03  0.27073556879E+03  0.00000000000E+00 0. -1.
         -2    1    5    5    0  503 -0.10874895338E+03 -0.54147195480E+02 -0.23207259640E+03  0.26194645185E+03  0.00000000000E+00 0.  1.
         -3    1    6    6    0  502  0.87120492200E+01  0.16398128212E+01  0.51029213295E+01  0.10228811944E+02  0.00000000000E+00 0.  1.
<mgrwt>
<rscale>  0 0.17400058E+04</rscale>
<asrwt>0</asrwt>
<pdfrwt beam="1">  1        2 0.37548595E+00 0.17400058E+04</pdfrwt>
<pdfrwt beam="2">  1       -2 0.47711273E-01 0.17400058E+04</pdfrwt>
<totfact> 0.14892963E+01</totfact>
</mgrwt>
</event>
<event>
12    1  0.1556559E-007  0.1250781E+04  0.7818608E-02  0.9069533E-01
         -2   -1    0    0    0  501 -0.00000000000E+00  0.00000000000E+00  0.25484870709E+03  0.25484870709E+03  0.00000000000E+00 0.  1.
          2   -1    0    0  501    0  0.00000000000E+00 -0.00000000000E+00 -0.15346889413E+04  0.15346889413E+04  0.00000000000E+00 0. -1.
         23    2    1    2    0    0 -0.17618792911E+03  0.10807181228E+02  0.16258583926E+02  0.20783342502E+03  0.10849612654E+03 0.  0.
        254    2    1    2    0    0  0.17618792911E+03 -0.10807181228E+02 -0.12960988182E+04  0.15817042234E+04  0.88924525433E+03 0.  0.
        -24    2    4    4    0    0  0.17783128282E+03  0.24966930256E+03 -0.12686020404E+04  0.13072473998E+04  0.74738889200E+02 0.  0.
         24    2    4    4    0    0 -0.16433537070E+01 -0.26047648379E+03 -0.27496777788E+02  0.27445682363E+03  0.81974240045E+02 0.  0.
         13    1    3    3    0    0 -0.66752685138E+02  0.41878278797E+02 -0.30956086044E+02  0.84663985680E+02  0.00000000000E+00 0. -1.
        -13    1    3    3    0    0 -0.10943524397E+03 -0.31071097569E+02  0.47214669970E+02  0.12316943934E+03  0.00000000000E+00 0.  1.
          4    1    6    6  502    0  0.31971579349E+02 -0.50616981001E+02  0.18997863134E+01  0.59898830037E+02  0.00000000000E+00 0. -1.
          1    1    5    5  503    0  0.77437263822E+01 -0.29075845859E+01 -0.14377671366E+02  0.16587247521E+02  0.00000000000E+00 0. -1.
         -2    1    5    5    0  503  0.17008755643E+03  0.25257688715E+03 -0.12542243690E+04  0.12906601522E+04  0.00000000000E+00 0.  1.
         -3    1    6    6    0  502 -0.33614933056E+02 -0.20985950279E+03 -0.29396564101E+02  0.21455799360E+03  0.00000000000E+00 0.  1.
<mgrwt>
<rscale>  0 0.12507813E+04</rscale>
<asrwt>0</asrwt>
<pdfrwt beam="1">  1        2 0.23610599E+00 0.12507813E+04</pdfrwt>
<pdfrwt beam="2">  1       -2 0.39207494E-01 0.12507813E+04</pdfrwt>
<totfact> 0.73364885E+01</totfact>
</mgrwt>
</event>
<event>
12    1  0.1556559E-007  0.1329389E+04  0.7818608E-02  0.9006578E-01
          2   -1    0    0  501    0  0.00000000000E+00  0.00000000000E+00  0.68815916858E+03  0.68815916858E+03  0.00000000000E+00 0. -1.
         -2   -1    0    0    0  501 -0.00000000000E+00 -0.00000000000E+00 -0.64203025899E+03  0.64203025899E+03  0.00000000000E+00 0.  1.
         23    2    1    2    0    0  0.71532231866E+02 -0.18840270831E+03 -0.27759469032E+03  0.35489016818E+03  0.90971306896E+02 0.  0.
        254    2    1    2    0    0 -0.71532231866E+02  0.18840270831E+03  0.32372359991E+03  0.97529925939E+03  0.89766320830E+03 0.  0.
        -24    2    4    4    0    0 -0.41548346966E+03 -0.70961780107E+02  0.32299592513E+03  0.53737042812E+03  0.82331777375E+02 0.  0.
         24    2    4    4    0    0  0.34395123779E+03  0.25936448842E+03  0.72767478259E+00  0.43792883128E+03  0.78795557750E+02 0.  0.
         13    1    3    3    0    0  0.43462048882E+02 -0.57815055171E+02 -0.16513758375E+03  0.18028297719E+03  0.00000000000E+00 0.  1.
        -13    1    3    3    0    0  0.28070182984E+02 -0.13058765314E+03 -0.11245710657E+03  0.17460719098E+03  0.00000000000E+00 0. -1.
          4    1    6    6  502    0  0.22676896221E+03  0.18365132034E+03 -0.35035777806E+02  0.29390385402E+03  0.00000000000E+00 0. -1.
          1    1    5    5  503    0 -0.38486830598E+03 -0.87468209371E+02  0.29722287696E+03  0.49408070109E+03  0.00000000000E+00 0. -1.
         -2    1    5    5    0  503 -0.30615163683E+02  0.16506429264E+02  0.25773048169E+02  0.43289727030E+02  0.00000000000E+00 0.  1.
         -3    1    6    6    0  502  0.11718227559E+03  0.75713168081E+02  0.35763452589E+02  0.14402497726E+03  0.00000000000E+00 0.  1.
<mgrwt>
<rscale>  0 0.13293893E+04</rscale>
<asrwt>0</asrwt>
<pdfrwt beam="1">  1        2 0.10587064E+00 0.13293893E+04</pdfrwt>
<pdfrwt beam="2">  1       -2 0.98773886E-01 0.13293893E+04</pdfrwt>
<totfact> 0.34838870E+01</totfact>
</mgrwt>
</event>
<event>
12    1  0.1556559E-007  0.1776797E+04  0.7818608E-02  0.8718737E-01
          2   -1    0    0  501    0  0.00000000000E+00  0.00000000000E+00  0.20560989198E+04  0.20560989198E+04  0.00000000000E+00 0.  1.
         -2   -1    0    0    0  501 -0.00000000000E+00 -0.00000000000E+00 -0.38385901895E+03  0.38385901895E+03  0.00000000000E+00 0. -1.
         23    2    1    2    0    0 -0.39899467505E+03  0.18760640434E+03 -0.45760637437E+02  0.45249070448E+03  0.90889427489E+02 0.  0.
        254    2    1    2    0    0  0.39899467505E+03 -0.18760640434E+03  0.17180005383E+04  0.19874672343E+04  0.89672027081E+03 0.  0.
        -24    2    4    4    0    0  0.27607192673E+02  0.13672173516E+03  0.13685155129E+04  0.13778500487E+04  0.78619704193E+02 0.  0.
         24    2    4    4    0    0  0.37138748238E+03 -0.32432813951E+03  0.34948502543E+03  0.60961718555E+03  0.79849394310E+02 0.  0.
         13    1    3    3    0    0 -0.34621652926E+03  0.17999929396E+03 -0.65420736193E+02  0.39565831684E+03  0.00000000000E+00 0. -1.
        -13    1    3    3    0    0 -0.52778145796E+02  0.76071103816E+01  0.19660098756E+02  0.56832387643E+02  0.00000000000E+00 0.  1.
          2    1    6    6  502    0  0.67913317234E+02 -0.73217654462E+02  0.11028584381E+03  0.14878175603E+03  0.00000000000E+00 0. -1.
          1    1    5    5  503    0  0.31364109422E+02  0.12333395991E+02  0.21255234258E+03  0.21520761686E+03  0.00000000000E+00 0. -1.
         -2    1    5    5    0  503 -0.37569167488E+01  0.12438833917E+03  0.11559631703E+04  0.11626424319E+04  0.00000000000E+00 0.  1.
         -1    1    6    6    0  502  0.30347416515E+03 -0.25111048504E+03  0.23919918162E+03  0.46083542952E+03  0.00000000000E+00 0.  1.
<mgrwt>
<rscale>  0 0.17767972E+04</rscale>
<asrwt>0</asrwt>
<pdfrwt beam="1">  1        2 0.31632291E+00 0.17767972E+04</pdfrwt>
<pdfrwt beam="2">  1       -2 0.59055235E-01 0.17767972E+04</pdfrwt>
<totfact> 0.15750602E+01</totfact>
</mgrwt>
</event>
<event>
12    1  0.1556559E-007  0.1544774E+04  0.7818608E-02  0.8855213E-01
         -2   -1    0    0    0  501 -0.00000000000E+00  0.00000000000E+00  0.66130028070E+03  0.66130028070E+03  0.00000000000E+00 0.  1.
          2   -1    0    0  501    0  0.00000000000E+00 -0.00000000000E+00 -0.90213402061E+03  0.90213402061E+03  0.00000000000E+00 0. -1.
         23    2    1    2    0    0 -0.50184864669E+02  0.21179596030E+03 -0.53730369828E+03  0.58815182519E+03  0.99253492901E+02 0.  0.
        254    2    1    2    0    0  0.50184864669E+02 -0.21179596030E+03  0.29646995837E+03  0.97528247612E+03  0.90327483225E+03 0.  0.
        -24    2    4    4    0    0 -0.11786426446E+03 -0.26783267364E+03  0.56666529700E+03  0.64275910437E+03  0.80021131669E+02 0.  0.
         24    2    4    4    0    0  0.16804912913E+03  0.56036713349E+02 -0.27019533863E+03  0.33252337176E+03  0.78648895117E+02 0.  0.
         13    1    3    3    0    0 -0.40565587878E+02  0.21742432695E+03 -0.46414720199E+03  0.51415127150E+03  0.00000000000E+00 0. -1.
        -13    1    3    3    0    0 -0.96192767907E+01 -0.56283666586E+01 -0.73156496290E+02  0.74000553692E+02  0.00000000000E+00 0.  1.
          4    1    6    6  502    0  0.82856571907E+02 -0.12813422959E+02 -0.10609568731E+03  0.13522459163E+03  0.00000000000E+00 0. -1.
          1    1    5    5  503    0 -0.29591467043E+02 -0.13598669062E+02  0.84728909553E+02  0.90772059776E+02  0.00000000000E+00 0. -1.
         -2    1    5    5    0  503 -0.88272797420E+02 -0.25423400458E+03  0.48193638745E+03  0.55198704459E+03  0.00000000000E+00 0.  1.
         -3    1    6    6    0  502  0.85192557224E+02  0.68850136308E+02 -0.16409965132E+03  0.19729878012E+03  0.00000000000E+00 0.  1.
<mgrwt>
<rscale>  0 0.15447737E+04</rscale>
<asrwt>0</asrwt>
<pdfrwt beam="1">  1        2 0.13878985E+00 0.15447737E+04</pdfrwt>
<pdfrwt beam="2">  1       -2 0.10173850E+00 0.15447737E+04</pdfrwt>
<totfact> 0.22314489E+01</totfact>
</mgrwt>
</event>
<event>
12    1  0.1556559E-007  0.3030199E+04  0.7818608E-02  0.8235160E-01
          1   -1    0    0  501    0  0.00000000000E+00  0.00000000000E+00  0.12156834921E+04  0.12156834921E+04  0.00000000000E+00 0. -1.
         -1   -1    0    0    0  501 -0.00000000000E+00 -0.00000000000E+00 -0.18882595756E+04  0.18882595756E+04  0.00000000000E+00 0.  1.
         23    2    1    2    0    0 -0.18329800534E+03  0.39055473916E+03 -0.16515472208E+04  0.17094157489E+04  0.91448439236E+02 0.  0.
        254    2    1    2    0    0  0.18329800534E+03 -0.39055473916E+03  0.97897113733E+03  0.13945273188E+04  0.89453384064E+03 0.  0.
        -24    2    4    4    0    0 -0.17765330189E+03 -0.45930003463E+03  0.21453310897E+03  0.54274633504E+03  0.77665384036E+02 0.  0.
         24    2    4    4    0    0  0.36095130723E+03  0.68745295472E+02  0.76443802836E+03  0.85178098373E+03  0.78444778085E+02 0.  0.
         13    1    3    3    0    0 -0.10813672235E+03  0.13252104274E+03 -0.58148237097E+03  0.60611642878E+03  0.00000000000E+00 0. -1.
        -13    1    3    3    0    0 -0.75161282989E+02  0.25803369642E+03 -0.10700648498E+04  0.11032993201E+04  0.00000000000E+00 0.  1.
          2    1    6    6  502    0  0.30955792684E+03  0.64170249298E+02  0.70763371293E+03  0.77504154897E+03  0.00000000000E+00 0. -1.
          1    1    5    5  503    0 -0.14603675971E+03 -0.43442526129E+03  0.19664158350E+03  0.49871831247E+03  0.00000000000E+00 0. -1.
         -2    1    5    5    0  503 -0.31616542178E+02 -0.24874773339E+02  0.17891525465E+02  0.44028022570E+02  0.00000000000E+00 0.  1.
         -1    1    6    6    0  502  0.51393380395E+02  0.45750461739E+01  0.56804315430E+02  0.76739434761E+02  0.00000000000E+00 0.  1.
<mgrwt>
<rscale>  0 0.30301987E+04</rscale>
<asrwt>0</asrwt>
<pdfrwt beam="1">  1        1 0.18702823E+00 0.30301987E+04</pdfrwt>
<pdfrwt beam="2">  1       -1 0.29050147E+00 0.30301987E+04</pdfrwt>
<totfact> 0.33615641E-01</totfact>
</mgrwt>
</event>
<event>
12    1  0.1556559E-007  0.5135617E+04  0.7818608E-02  0.7807921E-01
          1   -1    0    0  501    0  0.00000000000E+00  0.00000000000E+00  0.34538004563E+04  0.34538004563E+04  0.00000000000E+00 0. -1.
         -1   -1    0    0    0  501 -0.00000000000E+00 -0.00000000000E+00 -0.19090969592E+04  0.19090969592E+04  0.00000000000E+00 0.  1.
         23    2    1    2    0    0  0.77574750310E+03  0.54153702106E+03 -0.16541796562E+04  0.19078301719E+04  0.91973344046E+02 0.  0.
        254    2    1    2    0    0 -0.77574750310E+03 -0.54153702106E+03  0.31988831534E+04  0.34550672436E+04  0.89977202422E+03 0.  0.
        -24    2    4    4    0    0 -0.12644585261E+03 -0.60698720529E+03  0.18833797935E+04  0.19844825617E+04  0.81422172559E+02 0.  0.
         24    2    4    4    0    0 -0.64930165049E+03  0.65450184238E+02  0.13155033598E+04  0.14705846819E+04  0.78701060836E+02 0.  0.
         11    1    3    3    0    0  0.15182962529E+03  0.85978678499E+02 -0.24494561619E+03  0.30073729925E+03  0.00000000000E+00 0. -1.
        -11    1    3    3    0    0  0.62391787781E+03  0.45555834256E+03 -0.14092340400E+04  0.16070928726E+04  0.00000000000E+00 0.  1.
          2    1    6    6  502    0 -0.21526814005E+03  0.24679600145E+01  0.36463177144E+03  0.42344160364E+03  0.00000000000E+00 0. -1.
          1    1    5    5  503    0 -0.10292107518E+03 -0.38469830583E+03  0.13050984907E+04  0.13645026950E+04  0.00000000000E+00 0. -1.
         -2    1    5    5    0  503 -0.23524777433E+02 -0.22228889947E+03  0.57828130281E+03  0.61997986673E+03  0.00000000000E+00 0.  1.
         -1    1    6    6    0  502 -0.43403351044E+03  0.62982224223E+02  0.95087158839E+03  0.10471430783E+04  0.00000000000E+00 0.  1.
<mgrwt>
<rscale>  0 0.51356168E+04</rscale>
<asrwt>0</asrwt>
<pdfrwt beam="1">  1        1 0.53135391E+00 0.51356168E+04</pdfrwt>
<pdfrwt beam="2">  1       -1 0.29370723E+00 0.51356168E+04</pdfrwt>
<totfact> 0.70329453E-03</totfact>
</mgrwt>
</event>
<event>
12    1  0.1556559E-007  0.1531089E+04  0.7818608E-02  0.8864038E-01
          2   -1    0    0  501    0  0.00000000000E+00  0.00000000000E+00  0.16538003977E+04  0.16538003977E+04  0.00000000000E+00 0. -1.
         -2   -1    0    0    0  501 -0.00000000000E+00 -0.00000000000E+00 -0.35437090252E+03  0.35437090252E+03  0.00000000000E+00 0.  1.
         23    2    1    2    0    0  0.41737987578E+03 -0.22364826145E+03  0.55471233221E+03  0.73487577008E+03  0.90067310288E+02 0.  0.
        254    2    1    2    0    0 -0.41737987578E+03  0.22364826145E+03  0.74471716296E+03  0.12732955301E+04  0.91785257461E+03 0.  0.
        -24    2    4    4    0    0 -0.39744797365E+03 -0.27720036295E+03  0.20620714681E+03  0.53271984604E+03  0.80399713872E+02 0.  0.
         24    2    4    4    0    0 -0.19931902137E+02  0.50084862439E+03  0.53851001615E+03  0.74057568411E+03  0.84927505061E+02 0.  0.
         13    1    3    3    0    0  0.15175283624E+02  0.87265883313E+01  0.19903169835E+02  0.26506202038E+02  0.00000000000E+00 0.  1.
        -13    1    3    3    0    0  0.40220459216E+03 -0.23237484978E+03  0.53480916238E+03  0.70836956804E+03  0.00000000000E+00 0. -1.
          4    1    6    6  502    0 -0.27299232304E+02  0.23177164343E+03  0.19469752081E+03  0.30392510162E+03  0.00000000000E+00 0. -1.
          3    1    5    5  503    0 -0.34875607965E+03 -0.23587320914E+03  0.20629380308E+03  0.46885403600E+03  0.00000000000E+00 0. -1.
         -4    1    5    5    0  503 -0.48691893993E+02 -0.41327153802E+02 -0.86656264234E-01  0.63865810034E+02  0.00000000000E+00 0.  1.
         -3    1    6    6    0  502  0.73673301673E+01  0.26907698097E+03  0.34381249533E+03  0.43665058249E+03  0.00000000000E+00 0.  1.
<mgrwt>
<rscale>  0 0.15310895E+04</rscale>
<asrwt>0</asrwt>
<pdfrwt beam="1">  1        2 0.25443083E+00 0.15310895E+04</pdfrwt>
<pdfrwt beam="2">  1       -2 0.54518601E-01 0.15310895E+04</pdfrwt>
<totfact> 0.31755948E+01</totfact>
</mgrwt>
</event>
<event>
12    1  0.1556559E-007  0.2116205E+04  0.7818608E-02  0.8554138E-01
         -2   -1    0    0    0  501 -0.00000000000E+00  0.00000000000E+00  0.76923365114E+03  0.76923365114E+03  0.00000000000E+00 0. -1.
          2   -1    0    0  501    0  0.00000000000E+00 -0.00000000000E+00 -0.14554493036E+04  0.14554493036E+04  0.00000000000E+00 0.  1.
         23    2    1    2    0    0  0.39023526173E+03  0.62928488951E+03  0.19097699661E+03  0.77004000041E+03  0.90588947066E+02 0.  0.
        254    2    1    2    0    0 -0.39023526173E+03 -0.62928488951E+03 -0.87719264912E+03  0.14546429544E+04  0.89344062442E+03 0.  0.
        -24    2    4    4    0    0 -0.44494253545E+02 -0.73688163302E+03 -0.76783145983E+03  0.10681461787E+04  0.79980177452E+02 0.  0.
         24    2    4    4    0    0 -0.34574100819E+03  0.10759674350E+03 -0.10936118929E+03  0.38649677562E+03  0.79410225335E+02 0.  0.
         13    1    3    3    0    0  0.39062324548E+03  0.62475627651E+03  0.18048402556E+03  0.75860490931E+03  0.00000000000E+00 0. -1.
        -13    1    3    3    0    0 -0.38798374365E+00  0.45286130038E+01  0.10492971048E+02  0.11435091103E+02  0.00000000000E+00 0.  1.
          2    1    6    6  502    0 -0.17038982539E+03  0.16955314722E+02 -0.30462383749E+02  0.17391990145E+03  0.00000000000E+00 0. -1.
          3    1    5    5  503    0 -0.57426148171E+02 -0.71118562949E+03 -0.74344978781E+03  0.10304369700E+04  0.00000000000E+00 0. -1.
         -4    1    5    5    0  503  0.12931894626E+02 -0.25696003524E+02 -0.24381672018E+02  0.37709208771E+02  0.00000000000E+00 0.  1.
         -1    1    6    6    0  502 -0.17535118279E+03  0.90641428783E+02 -0.78898805537E+02  0.21257687418E+03  0.00000000000E+00 0.  1.
<mgrwt>
<rscale>  0 0.21162047E+04</rscale>
<asrwt>0</asrwt>
<pdfrwt beam="1">  1        2 0.22391528E+00 0.21162047E+04</pdfrwt>
<pdfrwt beam="2">  1       -2 0.11834364E+00 0.21162047E+04</pdfrwt>
<totfact> 0.68069005E+00</totfact>
</mgrwt>
</event>
<event>
12    1  0.1556559E-007  0.1152440E+04  0.7818608E-02  0.9155535E-01
          2   -1    0    0  501    0  0.00000000000E+00  0.00000000000E+00  0.27417963210E+03  0.27417963210E+03  0.00000000000E+00 0. -1.
         -2   -1    0    0    0  501 -0.00000000000E+00 -0.00000000000E+00 -0.12109929961E+04  0.12109929961E+04  0.00000000000E+00 0.  1.
         23    2    1    2    0    0 -0.11817704387E+03 -0.98659445702E+01 -0.40798438290E+03  0.43676709076E+03  0.10124763858E+03 0.  0.
        254    2    1    2    0    0  0.11817704387E+03  0.98659445702E+01 -0.52882898111E+03  0.10484055375E+04  0.89745803754E+03 0.  0.
        -24    2    4    4    0    0  0.22647159280E+03 -0.39923174683E+03 -0.34782074756E+03  0.58139697720E+03  0.79798512782E+02 0.  0.
         24    2    4    4    0    0 -0.10829454893E+03  0.40909769140E+03 -0.18100823355E+03  0.46700856025E+03  0.79021416728E+02 0.  0.
         11    1    3    3    0    0 -0.56686158032E+02 -0.30176966586E+02 -0.32613625480E+03  0.33239859585E+03  0.00000000000E+00 0.  1.
        -11    1    3    3    0    0 -0.61490885838E+02  0.20311022016E+02 -0.81848128100E+02  0.10436849491E+03  0.00000000000E+00 0. -1.
          4    1    6    6  502    0 -0.17507499706E+02  0.67065014608E+02 -0.63858150439E+02  0.94244851890E+02  0.00000000000E+00 0. -1.
          3    1    5    5  503    0  0.81123240174E+02 -0.14473726278E+03 -0.79255037569E+02  0.18387826493E+03  0.00000000000E+00 0. -1.
         -4    1    5    5    0  503  0.14534835262E+03 -0.25449448406E+03 -0.26856570999E+03  0.39751871228E+03  0.00000000000E+00 0.  1.
         -3    1    6    6    0  502 -0.90787049219E+02  0.34203267679E+03 -0.11715008311E+03  0.37276370836E+03  0.00000000000E+00 0.  1.
<mgrwt>
<rscale>  0 0.11524402E+04</rscale>
<asrwt>0</asrwt>
<pdfrwt beam="1">  1        2 0.42181482E-01 0.11524402E+04</pdfrwt>
<pdfrwt beam="2">  1       -2 0.18630661E+00 0.11524402E+04</pdfrwt>
<totfact> 0.19706121E+01</totfact>
</mgrwt>
</event>
<event>
12    1  0.1556559E-007  0.2229065E+04  0.7818608E-02  0.8506427E-01
         -2   -1    0    0    0  501 -0.00000000000E+00  0.00000000000E+00  0.80336177752E+03  0.80336177752E+03  0.00000000000E+00 0.  1.
          2   -1    0    0  501    0  0.00000000000E+00 -0.00000000000E+00 -0.15462313356E+04  0.15462313356E+04  0.00000000000E+00 0. -1.
         23    2    1    2    0    0  0.79056725649E+03  0.20163289709E+02  0.17523986694E+03  0.81525139770E+03  0.92318390354E+02 0.  0.
        254    2    1    2    0    0 -0.79056725649E+03 -0.20163289709E+02 -0.91810942503E+03  0.15343417154E+04  0.94121009244E+03 0.  0.
        -24    2    4    4    0    0 -0.54353789958E+03  0.10410599360E+01  0.30817503264E+02  0.55020747850E+03  0.79649349073E+02 0.  0.
         24    2    4    4    0    0 -0.24702935691E+03 -0.21204349645E+02 -0.94892692829E+03  0.98413423693E+03  0.81146493712E+02 0.  0.
         13    1    3    3    0    0  0.20783190851E+03 -0.13373073165E+02  0.95045439665E+01  0.20847848243E+03  0.00000000000E+00 0. -1.
        -13    1    3    3    0    0  0.58273534798E+03  0.33536362875E+02  0.16573532298E+03  0.60677291527E+03  0.00000000000E+00 0.  1.
          2    1    6    6  502    0 -0.12585207614E+03  0.94449113537E+01 -0.60938245258E+03  0.62231416900E+03  0.00000000000E+00 0. -1.
          1    1    5    5  503    0 -0.43675669213E+03  0.47170362305E+01 -0.70841439167E+01  0.43683960861E+03  0.00000000000E+00 0. -1.
         -4    1    5    5    0  503 -0.10678120745E+03 -0.36759762945E+01  0.37901647181E+02  0.11336786990E+03  0.00000000000E+00 0.  1.
         -1    1    6    6    0  502 -0.12117728077E+03 -0.30649260999E+02 -0.33954447571E+03  0.36182006794E+03  0.00000000000E+00 0.  1.
<mgrwt>
<rscale>  0 0.22290654E+04</rscale>
<asrwt>0</asrwt>
<pdfrwt beam="1">  1        2 0.23788174E+00 0.22290654E+04</pdfrwt>
<pdfrwt beam="2">  1       -2 0.12359412E+00 0.22290654E+04</pdfrwt>
<totfact> 0.53780128E+00</totfact>
</mgrwt>
</event>
<event>
12    1  0.1556559E-007  0.2085669E+04  0.7818608E-02  0.8567583E-01
         -2   -1    0    0    0  501 -0.00000000000E+00  0.00000000000E+00  0.80599363103E+03  0.80599363103E+03  0.00000000000E+00 0.  1.
          2   -1    0    0  501    0  0.00000000000E+00 -0.00000000000E+00 -0.13492707592E+04  0.13492707592E+04  0.00000000000E+00 0. -1.
         23    2    1    2    0    0  0.57013515477E+01 -0.77263228412E+03 -0.56735037474E+03  0.96314901052E+03  0.93682532340E+02 0.  0.
        254    2    1    2    0    0 -0.57013515477E+01  0.77263228412E+03  0.24073246587E+02  0.11921153797E+04  0.90750559526E+03 0.  0.
        -24    2    4    4    0    0  0.33451617857E+03  0.28603019450E+03 -0.27228440091E+03  0.52367329833E+03  0.79878548505E+02 0.  0.
         24    2    4    4    0    0 -0.34021753011E+03  0.48660208962E+03  0.29635764750E+03  0.66844208137E+03  0.80357946051E+02 0.  0.
         13    1    3    3    0    0  0.17466623374E+02 -0.64464027254E+03 -0.51106914931E+03  0.82283524432E+03  0.00000000000E+00 0.  1.
        -13    1    3    3    0    0 -0.11765271827E+02 -0.12799201157E+03 -0.56281225431E+02  0.14031376619E+03  0.00000000000E+00 0. -1.
          2    1    6    6  502    0 -0.15103825992E+03  0.22351760078E+03  0.90492174696E+02  0.28453735695E+03  0.00000000000E+00 0. -1.
          1    1    5    5  503    0  0.16403429043E+03  0.11914304444E+03 -0.82732448956E+02  0.21896796932E+03  0.00000000000E+00 0. -1.
         -2    1    5    5    0  503  0.17048188813E+03  0.16688715006E+03 -0.18955195196E+03  0.30470532901E+03  0.00000000000E+00 0.  1.
         -1    1    6    6    0  502 -0.18917927019E+03  0.26308448884E+03  0.20586547280E+03  0.38390472442E+03  0.00000000000E+00 0.  1.
<mgrwt>
<rscale>  0 0.20856689E+04</rscale>
<asrwt>0</asrwt>
<pdfrwt beam="1">  1        2 0.20758012E+00 0.20856689E+04</pdfrwt>
<pdfrwt beam="2">  1       -2 0.12399902E+00 0.20856689E+04</pdfrwt>
<totfact> 0.69875292E+00</totfact>
</mgrwt>
</event>
<event>
12    1  0.1556559E-007  0.1267090E+04  0.7818608E-02  0.9056078E-01
         -2   -1    0    0    0  501 -0.00000000000E+00  0.00000000000E+00  0.52267160240E+03  0.52267160240E+03  0.00000000000E+00 0.  1.
          2   -1    0    0  501    0  0.00000000000E+00 -0.00000000000E+00 -0.76793780088E+03  0.76793780088E+03  0.00000000000E+00 0. -1.
         23    2    1    2    0    0  0.22041316779E+03  0.17614927902E+03 -0.17372835451E+03  0.34364104963E+03  0.91088400983E+02 0.  0.
        254    2    1    2    0    0 -0.22041316779E+03 -0.17614927902E+03 -0.71537843966E+02  0.94696835366E+03  0.90112200432E+03 0.  0.
        -24    2    4    4    0    0 -0.16800961653E+03 -0.47065447485E+03  0.19116468741E+03  0.54095090309E+03  0.79630872759E+02 0.  0.
         24    2    4    4    0    0 -0.52403551254E+02  0.29450519583E+03 -0.26270253137E+03  0.40601745057E+03  0.79737742773E+02 0.  0.
         11    1    3    3    0    0  0.69381614131E+02  0.49905653984E+02 -0.71358149037E+01  0.85763060424E+02  0.00000000000E+00 0.  1.
        -11    1    3    3    0    0  0.15103155366E+03  0.12624362504E+03 -0.16659253961E+03  0.25787798920E+03  0.00000000000E+00 0. -1.
          2    1    6    6  502    0 -0.54882420320E+02  0.15782371448E+03 -0.10515296445E+03  0.19742733054E+03  0.00000000000E+00 0. -1.
          1    1    5    5  503    0 -0.34355976970E+02 -0.18357677399E+03  0.44616371198E+02  0.19201923258E+03  0.00000000000E+00 0. -1.
         -2    1    5    5    0  503 -0.13365363956E+03 -0.28707770086E+03  0.14654831621E+03  0.34893167051E+03  0.00000000000E+00 0.  1.
         -1    1    6    6    0  502  0.24788690660E+01  0.13668148135E+03 -0.15754956692E+03  0.20859012003E+03  0.00000000000E+00 0.  1.
<mgrwt>
<rscale>  0 0.12670900E+04</rscale>
<asrwt>0</asrwt>
<pdfrwt beam="1">  1        2 0.11814428E+00 0.12670900E+04</pdfrwt>
<pdfrwt beam="2">  1       -2 0.80411016E-01 0.12670900E+04</pdfrwt>
<totfact> 0.48830287E+01</totfact>
</mgrwt>
</event>
<event>
12    1  0.1556559E-007  0.1707672E+04  0.7818608E-02  0.8757001E-01
          2   -1    0    0  501    0  0.00000000000E+00  0.00000000000E+00  0.31880791228E+04  0.31880791228E+04  0.00000000000E+00 0. -1.
         -2   -1    0    0    0  501 -0.00000000000E+00 -0.00000000000E+00 -0.22867550081E+03  0.22867550081E+03  0.00000000000E+00 0.  1.
         23    2    1    2    0    0 -0.49284274379E+02 -0.59965515765E+03  0.73989787591E+03  0.95844313864E+03  0.95651113156E+02 0.  0.
        254    2    1    2    0    0  0.49284274379E+02  0.59965515765E+03  0.22195057461E+04  0.24583114850E+04  0.86895014382E+03 0.  0.
        -24    2    4    4    0    0  0.20560096943E+03  0.27636102414E+03  0.19976048442E+04  0.20286095707E+04  0.78641609704E+02 0.  0.
         24    2    4    4    0    0 -0.15631669505E+03  0.32329413351E+03  0.22190090191E+03  0.42970191422E+03  0.80310141964E+02 0.  0.
         11    1    3    3    0    0 -0.20910139468E+02 -0.54379214665E+03  0.63527547445E+03  0.83649390980E+03  0.00000000000E+00 0.  1.
        -11    1    3    3    0    0 -0.28374134911E+02 -0.55863010998E+02  0.10462240146E+03  0.12194922885E+03  0.00000000000E+00 0. -1.
          4    1    6    6  502    0 -0.83386878835E+02  0.21292086741E+03  0.17974712722E+03  0.29085683263E+03  0.00000000000E+00 0. -1.
          3    1    5    5  503    0  0.45371792324E+01 -0.40791351148E+00  0.12055679503E+03  0.12064283326E+03  0.00000000000E+00 0. -1.
         -4    1    5    5    0  503  0.20106379020E+03  0.27676893765E+03  0.18770480491E+04  0.19079667375E+04  0.00000000000E+00 0.  1.
         -3    1    6    6    0  502 -0.72929816215E+02  0.11037326610E+03  0.42153774692E+02  0.13884508160E+03  0.00000000000E+00 0.  1.
<mgrwt>
<rscale>  0 0.17076716E+04</rscale>
<asrwt>0</asrwt>
<pdfrwt beam="1">  1        2 0.49047368E+00 0.17076716E+04</pdfrwt>
<pdfrwt beam="2">  1       -2 0.35180849E-01 0.17076716E+04</pdfrwt>
<totfact> 0.95848804E+00</totfact>
</mgrwt>
</event>
<event>
12    1  0.1556559E-007  0.2254883E+04  0.7818608E-02  0.8495926E-01
          2   -1    0    0  501    0  0.00000000000E+00  0.00000000000E+00  0.16034487608E+04  0.16034487608E+04  0.00000000000E+00 0. -1.
         -2   -1    0    0    0  501 -0.00000000000E+00 -0.00000000000E+00 -0.79274400913E+03  0.79274400913E+03  0.00000000000E+00 0.  1.
         23    2    1    2    0    0  0.46399150491E+03 -0.81076264183E+03  0.43864468569E+03  0.10361101981E+04  0.92146645109E+02 0.  0.
        254    2    1    2    0    0 -0.46399150491E+03  0.81076264183E+03  0.37206006602E+03  0.13600825719E+04  0.91584481856E+03 0.  0.
        -24    2    4    4    0    0 -0.23368088788E+03  0.37184005053E+03 -0.28725253760E+03  0.53127899907E+03  0.82894957390E+02 0.  0.
         24    2    4    4    0    0 -0.23031061704E+03  0.43892259130E+03  0.65931260362E+03  0.82880357285E+03  0.80785095110E+02 0.  0.
         11    1    3    3    0    0  0.20698192131E+03 -0.39706678004E+03  0.16322879950E+03  0.47659960611E+03  0.00000000000E+00 0. -1.
        -11    1    3    3    0    0  0.25700958361E+03 -0.41369586179E+03  0.27541588619E+03  0.55951059194E+03  0.00000000000E+00 0.  1.
          4    1    6    6  502    0 -0.11564938481E+03  0.29957315119E+03  0.44190103896E+03  0.54625578382E+03  0.00000000000E+00 0. -1.
          3    1    5    5  503    0 -0.93257036353E+02  0.19749636684E+03 -0.18013453004E+03  0.28310799822E+03  0.00000000000E+00 0. -1.
         -4    1    5    5    0  503 -0.14042385152E+03  0.17434368369E+03 -0.10711800756E+03  0.24817100085E+03  0.00000000000E+00 0.  1.
         -3    1    6    6    0  502 -0.11466123223E+03  0.13934944011E+03  0.21741156466E+03  0.28254778903E+03  0.00000000000E+00 0.  1.
<mgrwt>
<rscale>  0 0.22548831E+04</rscale>
<asrwt>0</asrwt>
<pdfrwt beam="1">  1        2 0.24668443E+00 0.22548831E+04</pdfrwt>
<pdfrwt beam="2">  1       -2 0.12196062E+00 0.22548831E+04</pdfrwt>
<totfact> 0.51528932E+00</totfact>
</mgrwt>
</event>
<event>
12    1  0.1556559E-007  0.1494219E+04  0.7818608E-02  0.8888307E-01
          2   -1    0    0  501    0  0.00000000000E+00  0.00000000000E+00  0.13223297378E+04  0.13223297378E+04  0.00000000000E+00 0.  1.
         -2   -1    0    0    0  501 -0.00000000000E+00 -0.00000000000E+00 -0.42211283546E+03  0.42211283546E+03  0.00000000000E+00 0. -1.
         23    2    1    2    0    0  0.42364051861E+03  0.95270482151E+02  0.97289740112E+02  0.45346654915E+03  0.87286103659E+02 0.  0.
        254    2    1    2    0    0 -0.42364051861E+03 -0.95270482151E+02  0.80292716220E+03  0.12909760241E+04  0.91289611303E+03 0.  0.
        -24    2    4    4    0    0  0.14028644037E+03 -0.16322384167E+03  0.66259503204E+03  0.70029232267E+03  0.71097488445E+02 0.  0.
         24    2    4    4    0    0 -0.56392695898E+03  0.67953359516E+02  0.14033213016E+03  0.59068370142E+03  0.81134790541E+02 0.  0.
         13    1    3    3    0    0  0.23025292913E+03  0.67960410967E+02  0.12066669427E+02  0.24037602489E+03  0.00000000000E+00 0.  1.
        -13    1    3    3    0    0  0.19338758948E+03  0.27310071185E+02  0.85223070684E+02  0.21309052426E+03  0.00000000000E+00 0. -1.
          4    1    6    6  502    0 -0.32952062182E+03  0.18730648635E+02  0.45930954061E+02  0.33323314653E+03  0.00000000000E+00 0. -1.
          1    1    5    5  503    0  0.17082765179E+02  0.38195470914E+01  0.78071565957E+02  0.80009869498E+02  0.00000000000E+00 0. -1.
         -2    1    5    5    0  503  0.12320367519E+03 -0.16704338876E+03  0.58452346609E+03  0.62028245317E+03  0.00000000000E+00 0.  1.
         -3    1    6    6    0  502 -0.23440633715E+03  0.49222710880E+02  0.94401176095E+02  0.25745055489E+03  0.00000000000E+00 0.  1.
<mgrwt>
<rscale>  0 0.14942187E+04</rscale>
<asrwt>0</asrwt>
<pdfrwt beam="1">  1        2 0.20343534E+00 0.14942187E+04</pdfrwt>
<pdfrwt beam="2">  1       -2 0.64940437E-01 0.14942187E+04</pdfrwt>
<totfact> 0.33922028E+01</totfact>
</mgrwt>
</event>
<event>
12    1  0.1556559E-007  0.2162844E+04  0.7818608E-02  0.8534054E-01
          1   -1    0    0  501    0  0.00000000000E+00  0.00000000000E+00  0.12843112141E+04  0.12843112141E+04  0.00000000000E+00 0. -1.
         -1   -1    0    0    0  501 -0.00000000000E+00 -0.00000000000E+00 -0.91058427990E+03  0.91058427990E+03  0.00000000000E+00 0.  1.
         23    2    1    2    0    0  0.46406168087E+03  0.37450213328E+03 -0.52312746520E+03  0.79844382009E+03  0.90802519324E+02 0.  0.
        254    2    1    2    0    0 -0.46406168087E+03 -0.37450213328E+03  0.89685439938E+03  0.13964516739E+04  0.88888940387E+03 0.  0.
        -24    2    4    4    0    0 -0.11867690050E+03 -0.28519056883E+03 -0.10020958242E+03  0.33417314457E+03  0.78815372099E+02 0.  0.
         24    2    4    4    0    0 -0.34538478037E+03 -0.89311564450E+02  0.99706398180E+03  0.10622785293E+04  0.83856353332E+02 0.  0.
         13    1    3    3    0    0  0.61301212993E+02  0.60266842473E+02 -0.38129765262E+02  0.94041533458E+02  0.00000000000E+00 0. -1.
        -13    1    3    3    0    0  0.40276046788E+03  0.31423529080E+03 -0.48499769993E+03  0.70440228663E+03  0.00000000000E+00 0.  1.
          2    1    6    6  502    0 -0.48841669938E+02  0.73197676375E+01  0.20865082364E+03  0.21441607665E+03  0.00000000000E+00 0. -1.
          1    1    5    5  503    0 -0.11488607346E+03 -0.27491665538E+03 -0.75841042299E+02  0.30745705550E+03  0.00000000000E+00 0. -1.
         -2    1    5    5    0  503 -0.37908270431E+01 -0.10273913443E+02 -0.24368540121E+02  0.26716089061E+02  0.00000000000E+00 0.  1.
         -1    1    6    6    0  502 -0.29654311043E+03 -0.96631332087E+02  0.78841315816E+03  0.84786245267E+03  0.00000000000E+00 0.  1.
<mgrwt>
<rscale>  0 0.21628441E+04</rscale>
<asrwt>0</asrwt>
<pdfrwt beam="1">  1        1 0.19758634E+00 0.21628441E+04</pdfrwt>
<pdfrwt beam="2">  1       -1 0.14008989E+00 0.21628441E+04</pdfrwt>
<totfact> 0.35533291E+00</totfact>
</mgrwt>
</event>
<event>
12    1  0.1556559E-007  0.1496820E+04  0.7818608E-02  0.8886570E-01
         -1   -1    0    0    0  501 -0.00000000000E+00  0.00000000000E+00  0.15118378427E+04  0.15118378427E+04  0.00000000000E+00 0.  1.
          1   -1    0    0  501    0  0.00000000000E+00 -0.00000000000E+00 -0.37048773817E+03  0.37048773817E+03  0.00000000000E+00 0. -1.
         23    2    1    2    0    0 -0.48118078491E+03 -0.65441142622E+02  0.40897225234E+03  0.64130320719E+03  0.90520768082E+02 0.  0.
        254    2    1    2    0    0  0.48118078491E+03  0.65441142622E+02  0.73237785214E+03  0.12410223736E+04  0.87632284156E+03 0.  0.
        -24    2    4    4    0    0  0.80407622141E+02  0.27630558471E+03  0.72085803432E+03  0.78033673068E+03  0.80491898697E+02 0.  0.
         24    2    4    4    0    0  0.40077316277E+03 -0.21086444208E+03  0.11519817819E+02  0.46068564296E+03  0.83759265138E+02 0.  0.
         13    1    3    3    0    0 -0.22661922868E+03 -0.27575587398E+02  0.25116310144E+03  0.33941065298E+03  0.00000000000E+00 0. -1.
        -13    1    3    3    0    0 -0.25456155623E+03 -0.37865555224E+02  0.15780915090E+03  0.30189255421E+03  0.00000000000E+00 0.  1.
          2    1    6    6  502    0  0.69704504044E+02 -0.73563022217E+02  0.13731658710E+02  0.10226824812E+03  0.00000000000E+00 0. -1.
          3    1    5    5  503    0  0.41843263426E+02  0.46100181465E+02  0.20240484090E+03  0.21176355929E+03  0.00000000000E+00 0. -1.
         -4    1    5    5    0  503  0.38564358714E+02  0.23020540324E+03  0.51845319343E+03  0.56857317138E+03  0.00000000000E+00 0.  1.
         -1    1    6    6    0  502  0.33106865873E+03 -0.13730141987E+03 -0.22118408913E+01  0.35841739485E+03  0.00000000000E+00 0.  1.
<mgrwt>
<rscale>  0 0.14968198E+04</rscale>
<asrwt>0</asrwt>
<pdfrwt beam="1">  1        1 0.56998114E-01 0.14968198E+04</pdfrwt>
<pdfrwt beam="2">  1       -1 0.23259043E+00 0.14968198E+04</pdfrwt>
<totfact> 0.58336098E+00</totfact>
</mgrwt>
</event>
<event>
12    1  0.1556559E-007  0.2990448E+04  0.7818608E-02  0.8246464E-01
         -2   -1    0    0    0  501 -0.00000000000E+00  0.00000000000E+00  0.19169679126E+04  0.19169679126E+04  0.00000000000E+00 0. -1.
          2   -1    0    0  501    0  0.00000000000E+00 -0.00000000000E+00 -0.11662663592E+04  0.11662663592E+04  0.00000000000E+00 0.  1.
         23    2    1    2    0    0  0.41639652554E+02 -0.28771382205E+03  0.17102575753E+04  0.17371994272E+04  0.91475525297E+02 0.  0.
        254    2    1    2    0    0 -0.41639652554E+02  0.28771382205E+03 -0.95955602192E+03  0.13460348447E+04  0.89808069780E+03 0.  0.
        -24    2    4    4    0    0 -0.23039585161E+03  0.51300512645E+03 -0.36011130458E+03  0.67319987323E+03  0.85213903968E+02 0.  0.
         24    2    4    4    0    0  0.18875619905E+03 -0.22529130440E+03 -0.59944471734E+03  0.67283497143E+03  0.83593391502E+02 0.  0.
         13    1    3    3    0    0  0.44362538003E+01 -0.23352436545E+03  0.14543048532E+04  0.14729412465E+04  0.00000000000E+00 0. -1.
        -13    1    3    3    0    0  0.37203398753E+02 -0.54189456597E+02  0.25595272217E+03  0.26425818071E+03  0.00000000000E+00 0.  1.
          2    1    6    6  502    0  0.40363758099E+02 -0.12743516875E+02 -0.51469560450E+02  0.66638921383E+02  0.00000000000E+00 0. -1.
          1    1    5    5  503    0 -0.34757025164E+02  0.10213844942E+03 -0.33205829070E+02  0.11288463461E+03  0.00000000000E+00 0. -1.
         -4    1    5    5    0  503 -0.19563882644E+03  0.41086667703E+03 -0.32690547551E+03  0.56031523861E+03  0.00000000000E+00 0.  1.
         -1    1    6    6    0  502  0.14839244095E+03 -0.21254778753E+03 -0.54797515689E+03  0.60619605004E+03  0.00000000000E+00 0.  1.
<mgrwt>
<rscale>  0 0.29904483E+04</rscale>
<asrwt>0</asrwt>
<pdfrwt beam="1">  1        2 0.17942559E+00 0.29904483E+04</pdfrwt>
<pdfrwt beam="2">  1       -2 0.29491814E+00 0.29904483E+04</pdfrwt>
<totfact> 0.58047592E-01</totfact>
</mgrwt>
</event>
<event>
12    1  0.1556559E-007  0.1356978E+04  0.7818608E-02  0.8985563E-01
         -1   -1    0    0    0  501 -0.00000000000E+00  0.00000000000E+00  0.44311180751E+03  0.44311180751E+03  0.00000000000E+00 0.  1.
          1   -1    0    0  501    0  0.00000000000E+00 -0.00000000000E+00 -0.10388964594E+04  0.10388964594E+04  0.00000000000E+00 0. -1.
         23    2    1    2    0    0  0.29101076107E+02  0.37247689222E+03 -0.18245785316E+03  0.42573872793E+03  0.91524250394E+02 0.  0.
        254    2    1    2    0    0 -0.29101076107E+02 -0.37247689222E+03 -0.41332679869E+03  0.10562695389E+04  0.89737416305E+03 0.  0.
        -24    2    4    4    0    0 -0.33044343271E+02 -0.59245480754E+03 -0.52682687632E+03  0.79755439809E+03  0.80323301116E+02 0.  0.
         24    2    4    4    0    0  0.39432671641E+01  0.21997791532E+03  0.11350007763E+03  0.25871514085E+03  0.75136035947E+02 0.  0.
         13    1    3    3    0    0  0.41280679933E+02  0.36339093900E+03 -0.18574344587E+03  0.41019226805E+03  0.00000000000E+00 0.  1.
        -13    1    3    3    0    0 -0.12179603826E+02  0.90859532174E+01  0.32855927127E+01  0.15546459877E+02  0.00000000000E+00 0. -1.
          4    1    6    6  502    0  0.36779549295E+02  0.11547022222E+03  0.43711614520E+02  0.12882861759E+03  0.00000000000E+00 0. -1.
          3    1    5    5  503    0 -0.50408542040E+02 -0.31776291540E+03 -0.25290848048E+03  0.40923952768E+03  0.00000000000E+00 0. -1.
         -4    1    5    5    0  503  0.17364198768E+02 -0.27469189214E+03 -0.27391839583E+03  0.38831487041E+03  0.00000000000E+00 0.  1.
         -3    1    6    6    0  502 -0.32836282131E+02  0.10450769310E+03  0.69788463110E+02  0.12988652326E+03  0.00000000000E+00 0.  1.
<mgrwt>
<rscale>  0 0.13569779E+04</rscale>
<asrwt>0</asrwt>
<pdfrwt beam="1">  1        1 0.15983022E+00 0.13569779E+04</pdfrwt>
<pdfrwt beam="2">  1       -1 0.68171049E-01 0.13569779E+04</pdfrwt>
<totfact> 0.30081988E+01</totfact>
</mgrwt>
</event>
<event>
12    1  0.1556559E-007  0.1706973E+04  0.7818608E-02  0.8757398E-01
         -2   -1    0    0    0  501 -0.00000000000E+00  0.00000000000E+00  0.84987984953E+03  0.84987984953E+03  0.00000000000E+00 0.  1.
          2   -1    0    0  501    0  0.00000000000E+00 -0.00000000000E+00 -0.85710796807E+03  0.85710796807E+03  0.00000000000E+00 0. -1.
         23    2    1    2    0    0  0.43017001889E+03 -0.14426767270E+03 -0.41590171600E+03  0.62174249380E+03  0.87920900165E+02 0.  0.
        254    2    1    2    0    0 -0.43017001889E+03  0.14426767270E+03  0.40867359746E+03  0.10852453238E+04  0.89715321827E+03 0.  0.
        -24    2    4    4    0    0  0.11155289360E+03  0.23047409461E+03  0.45718404635E+03  0.52968327759E+03  0.77361269115E+02 0.  0.
         24    2    4    4    0    0 -0.54172291249E+03 -0.86206421912E+02 -0.48510448896E+02  0.55556204622E+03  0.73489199613E+02 0.  0.
         13    1    3    3    0    0  0.38816616052E+03 -0.11066203627E+03 -0.39274747665E+03  0.56317815552E+03  0.00000000000E+00 0.  1.
        -13    1    3    3    0    0  0.42003858365E+02 -0.33605636430E+02 -0.23154239351E+02  0.58564338273E+02  0.00000000000E+00 0. -1.
          2    1    6    6  502    0 -0.42672468898E+03 -0.45738740240E+02 -0.58979231109E+02  0.43320265724E+03  0.00000000000E+00 0. -1.
          1    1    5    5  503    0  0.10928397347E+03  0.15309664887E+03  0.29326491707E+03  0.34840476796E+03  0.00000000000E+00 0. -1.
         -2    1    5    5    0  503  0.22689201267E+01  0.77377445749E+02  0.16391912928E+03  0.18127850963E+03  0.00000000000E+00 0.  1.
         -1    1    6    6    0  502 -0.11499822351E+03 -0.40467681672E+02  0.10468782213E+02  0.12235938898E+03  0.00000000000E+00 0.  1.
<mgrwt>
<rscale>  0 0.17069725E+04</rscale>
<asrwt>0</asrwt>
<pdfrwt beam="1">  1        2 0.13186276E+00 0.17069725E+04</pdfrwt>
<pdfrwt beam="2">  1       -2 0.13075075E+00 0.17069725E+04</pdfrwt>
<totfact> 0.12770766E+01</totfact>
</mgrwt>
</event>
<event>
12    1  0.1556559E-007  0.1275219E+04  0.7818608E-02  0.9049451E-01
          2   -1    0    0  501    0  0.00000000000E+00  0.00000000000E+00  0.26153224717E+04  0.26153224717E+04  0.00000000000E+00 0. -1.
         -2   -1    0    0    0  501 -0.00000000000E+00 -0.00000000000E+00 -0.15544767385E+03  0.15544767385E+03  0.00000000000E+00 0.  1.
         23    2    1    2    0    0 -0.18569369765E+03 -0.81510690734E+02  0.11403097135E+04  0.11607096600E+04  0.76253065080E+02 0.  0.
        254    2    1    2    0    0  0.18569369765E+03  0.81510690734E+02  0.13195650843E+04  0.16100604855E+04  0.89995367292E+03 0.  0.
        -24    2    4    4    0    0  0.49546197083E+03  0.15051671019E+03  0.10928261999E+04  0.12119129158E+04  0.79535952461E+02 0.  0.
         24    2    4    4    0    0 -0.30976827319E+03 -0.69006019461E+02  0.22673888439E+03  0.39814756974E+03  0.79954685918E+02 0.  0.
         11    1    3    3    0    0 -0.18461644559E+03 -0.60370279301E+02  0.98546109239E+03  0.10044209114E+04  0.00000000000E+00 0. -1.
        -11    1    3    3    0    0 -0.10772520587E+01 -0.21140411433E+02  0.15484862115E+03  0.15628874860E+03  0.00000000000E+00 0.  1.
          4    1    6    6  502    0 -0.26709144817E+03 -0.87081594634E+02  0.19514753858E+03  0.34205790098E+03  0.00000000000E+00 0. -1.
          1    1    5    5  503    0  0.28902659560E+03  0.10737567653E+03  0.56780587837E+03  0.64611873861E+03  0.00000000000E+00 0. -1.
         -2    1    5    5    0  503  0.20643537524E+03  0.43141033660E+02  0.52502032153E+03  0.56579417720E+03  0.00000000000E+00 0.  1.
         -3    1    6    6    0  502 -0.42676825018E+02  0.18075575174E+02  0.31591345808E+02  0.56089668758E+02  0.00000000000E+00 0.  1.
<mgrwt>
<rscale>  0 0.12752189E+04</rscale>
<asrwt>0</asrwt>
<pdfrwt beam="1">  1        2 0.40235727E+00 0.12752189E+04</pdfrwt>
<pdfrwt beam="2">  1       -2 0.23915029E-01 0.12752189E+04</pdfrwt>
<totfact> 0.45790506E+01</totfact>
</mgrwt>
</event>
<event>
12    1  0.1556559E-007  0.1860119E+04  0.7818608E-02  0.8674966E-01
         -2   -1    0    0    0  501 -0.00000000000E+00  0.00000000000E+00  0.22193567253E+03  0.22193567253E+03  0.00000000000E+00 0.  1.
          2   -1    0    0  501    0  0.00000000000E+00 -0.00000000000E+00 -0.38975755329E+04  0.38975755329E+04  0.00000000000E+00 0. -1.
         23    2    1    2    0    0 -0.65018443407E+03 -0.28112187085E+03 -0.14926921722E+04  0.16547292538E+04  0.90717572036E+02 0.  0.
        254    2    1    2    0    0  0.65018443407E+03  0.28112187085E+03 -0.21829476882E+04  0.24647819516E+04  0.89895503512E+03 0.  0.
        -24    2    4    4    0    0  0.44920885124E+03  0.57338757377E+03 -0.17657253985E+04  0.19117355702E+04  0.79904978330E+02 0.  0.
         24    2    4    4    0    0  0.20097558283E+03 -0.29226570293E+03 -0.41722228970E+03  0.55304638147E+03  0.77300938141E+02 0.  0.
         13    1    3    3    0    0 -0.47874249014E+03 -0.16893403619E+03 -0.11119278347E+04  0.12223406194E+04  0.00000000000E+00 0.  1.
        -13    1    3    3    0    0 -0.17144194392E+03 -0.11218783465E+03 -0.38076433753E+03  0.43238863435E+03  0.00000000000E+00 0. -1.
          2    1    6    6  502    0  0.64378773427E+02 -0.98998485994E+02 -0.86565892173E+02  0.14642055998E+03  0.00000000000E+00 0. -1.
          1    1    5    5  503    0  0.15739054510E+03  0.20733460199E+03 -0.53452306218E+03  0.59453706770E+03  0.00000000000E+00 0. -1.
         -2    1    5    5    0  503  0.29181830614E+03  0.36605297178E+03 -0.12312023363E+04  0.13171985025E+04  0.00000000000E+00 0.  1.
         -1    1    6    6    0  502  0.13659680940E+03 -0.19326721693E+03 -0.33065639753E+03  0.40662582149E+03  0.00000000000E+00 0.  1.
<mgrwt>
<rscale>  0 0.18601194E+04</rscale>
<asrwt>0</asrwt>
<pdfrwt beam="1">  1        2 0.59962703E+00 0.18601194E+04</pdfrwt>
<pdfrwt beam="2">  1       -2 0.34143948E-01 0.18601194E+04</pdfrwt>
<totfact> 0.31530886E+00</totfact>
</mgrwt>
</event>
<event>
12    1  0.1556559E-007  0.1199194E+04  0.7818608E-02  0.9113562E-01
          2   -1    0    0  501    0  0.00000000000E+00  0.00000000000E+00  0.26986595306E+03  0.26986595306E+03  0.00000000000E+00 0. -1.
         -2   -1    0    0    0  501 -0.00000000000E+00 -0.00000000000E+00 -0.13322046493E+04  0.13322046493E+04  0.00000000000E+00 0.  1.
         23    2    1    2    0    0 -0.13591744889E+03  0.80316915792E+02  0.15445451314E+02  0.18443952577E+03  0.94101098949E+02 0.  0.
        254    2    1    2    0    0  0.13591744889E+03 -0.80316915792E+02 -0.10777841476E+04  0.14176310766E+04  0.90726778888E+03 0.  0.
        -24    2    4    4    0    0  0.50556013600E+03  0.28542951060E+02 -0.73533344130E+03  0.89586738584E+03  0.73873892153E+02 0.  0.
         24    2    4    4    0    0 -0.36964268711E+03 -0.10885986685E+03 -0.34245070630E+03  0.52176369079E+03  0.80490223238E+02 0.  0.
         11    1    3    3    0    0 -0.86025834415E+02  0.81332685846E+02 -0.24042857060E+02  0.12080359659E+03  0.00000000000E+00 0.  1.
        -11    1    3    3    0    0 -0.49891614475E+02 -0.10157700542E+01  0.39488308374E+02  0.63635929175E+02  0.00000000000E+00 0. -1.
          2    1    6    6  502    0 -0.50870031979E+02 -0.29998300714E+02 -0.89609410260E+02  0.10731963756E+03  0.00000000000E+00 0. -1.
          1    1    5    5  503    0  0.90152455030E+02 -0.11462663960E+02 -0.17510597721E+03  0.19728396050E+03  0.00000000000E+00 0. -1.
         -2    1    5    5    0  503  0.41540768097E+03  0.40005615020E+02 -0.56022746409E+03  0.69858342534E+03  0.00000000000E+00 0.  1.
         -1    1    6    6    0  502 -0.31877265513E+03 -0.78861566137E+02 -0.25284129604E+03  0.41444405323E+03  0.00000000000E+00 0.  1.
<mgrwt>
<rscale>  0 0.11991942E+04</rscale>
<asrwt>0</asrwt>
<pdfrwt beam="1">  1        2 0.41517839E-01 0.11991942E+04</pdfrwt>
<pdfrwt beam="2">  1       -2 0.20495456E+00 0.11991942E+04</pdfrwt>
<totfact> 0.15046235E+01</totfact>
</mgrwt>
</event>
<event>
12    1  0.1556559E-007  0.1438073E+04  0.7818608E-02  0.8926711E-01
         -1   -1    0    0    0  501 -0.00000000000E+00  0.00000000000E+00  0.84632958466E+03  0.84632958466E+03  0.00000000000E+00 0.  1.
          1   -1    0    0  501    0  0.00000000000E+00 -0.00000000000E+00 -0.61088878336E+03  0.61088878336E+03  0.00000000000E+00 0. -1.
         23    2    1    2    0    0  0.27308544797E+03 -0.20000040415E+03 -0.20171202531E+03  0.40469933384E+03  0.92292936352E+02 0.  0.
        254    2    1    2    0    0 -0.27308544797E+03  0.20000040415E+03  0.43715282661E+03  0.10525190342E+04  0.89561035050E+03 0.  0.
        -24    2    4    4    0    0  0.96179487284E+02  0.32044696535E+03  0.54291478538E+03  0.64213516122E+03  0.75128887367E+02 0.  0.
         24    2    4    4    0    0 -0.36926493526E+03 -0.12044656120E+03 -0.10576195877E+03  0.41038387295E+03  0.79783235975E+02 0.  0.
         11    1    3    3    0    0  0.13867279056E+03 -0.61832539529E+02 -0.51530143422E+02  0.16033951936E+03  0.00000000000E+00 0.  1.
        -11    1    3    3    0    0  0.13441265741E+03 -0.13816786463E+03 -0.15018188189E+03  0.24435981449E+03  0.00000000000E+00 0. -1.
          4    1    6    6  502    0 -0.13003253924E+03 -0.85429141362E+01 -0.54974359389E+02  0.14143416431E+03  0.00000000000E+00 0. -1.
          1    1    5    5  503    0 -0.31854022459E+01  0.40525514939E+02  0.10862494505E+03  0.11598207980E+03  0.00000000000E+00 0. -1.
         -2    1    5    5    0  503  0.99364889530E+02  0.27992145041E+03  0.43428984033E+03  0.52615308142E+03  0.00000000000E+00 0.  1.
         -3    1    6    6    0  502 -0.23923239602E+03 -0.11190364706E+03 -0.50787599378E+02  0.26894970865E+03  0.00000000000E+00 0.  1.
<mgrwt>
<rscale>  0 0.14380727E+04</rscale>
<asrwt>0</asrwt>
<pdfrwt beam="1">  1        1 0.93982889E-01 0.14380727E+04</pdfrwt>
<pdfrwt beam="2">  1       -1 0.13020455E+00 0.14380727E+04</pdfrwt>
<totfact> 0.16388874E+01</totfact>
</mgrwt>
</event>
<event>
12    1  0.1556559E-007  0.2372722E+04  0.7818608E-02  0.8449787E-01
          1   -1    0    0  501    0  0.00000000000E+00  0.00000000000E+00  0.30125392101E+04  0.30125392101E+04  0.00000000000E+00 0. -1.
         -1   -1    0    0    0  501 -0.00000000000E+00 -0.00000000000E+00 -0.46719789774E+03  0.46719789774E+03  0.00000000000E+00 0.  1.
         23    2    1    2    0    0 -0.97235179407E+03  0.26862116983E+03  0.96748684361E+03  0.14005767497E+04  0.89213760403E+02 0.  0.
        254    2    1    2    0    0  0.97235179407E+03 -0.26862116983E+03  0.15778544687E+04  0.20791603581E+04  0.90313771144E+03 0.  0.
        -24    2    4    4    0    0  0.64545837643E+03 -0.14902075308E+02  0.15184977617E+04  0.16519937527E+04  0.80058224441E+02 0.  0.
         24    2    4    4    0    0  0.32689341763E+03 -0.25371909452E+03  0.59356707073E+02  0.42716660537E+03  0.87837376142E+02 0.  0.
         11    1    3    3    0    0 -0.95103815687E+03  0.25002931643E+03  0.95018779190E+03  0.13674227857E+04  0.00000000000E+00 0.  1.
        -11    1    3    3    0    0 -0.21313637196E+02  0.18591853397E+02  0.17299051709E+02  0.33153964066E+02  0.00000000000E+00 0. -1.
          4    1    6    6  502    0  0.16132824102E+03 -0.12799051696E+03  0.73836989020E+02  0.21876991277E+03  0.00000000000E+00 0. -1.
          3    1    5    5  503    0  0.60663543445E+03  0.32298355978E+01  0.14398951620E+04  0.15624708189E+04  0.00000000000E+00 0. -1.
         -4    1    5    5    0  503  0.38822941988E+02 -0.18131910906E+02  0.78602599652E+02  0.89522933876E+02  0.00000000000E+00 0.  1.
         -3    1    6    6    0  502  0.16556517661E+03 -0.12572857756E+03 -0.14480281948E+02  0.20839669260E+03  0.00000000000E+00 0.  1.
<mgrwt>
<rscale>  0 0.23727216E+04</rscale>
<asrwt>0</asrwt>
<pdfrwt beam="1">  1        1 0.46346756E+00 0.23727216E+04</pdfrwt>
<pdfrwt beam="2">  1       -1 0.71876601E-01 0.23727216E+04</pdfrwt>
<totfact> 0.10273571E+00</totfact>
</mgrwt>
</event>
<event>
12    1  0.1556559E-007  0.2501423E+04  0.7818608E-02  0.8402479E-01
          1   -1    0    0  501    0  0.00000000000E+00  0.00000000000E+00  0.59852957582E+03  0.59852957582E+03  0.00000000000E+00 0. -1.
         -1   -1    0    0    0  501 -0.00000000000E+00 -0.00000000000E+00 -0.26135367833E+04  0.26135367833E+04  0.00000000000E+00 0.  1.
         23    2    1    2    0    0 -0.92151004677E+03 -0.49191536621E+03 -0.51927456126E+03  0.11700956754E+04  0.91193891301E+02 0.  0.
        254    2    1    2    0    0  0.92151004677E+03  0.49191536621E+03 -0.14957326462E+04  0.20419706837E+04  0.91720588221E+03 0.  0.
        -24    2    4    4    0    0  0.69434947679E+03 -0.13642749246E+03 -0.84996720093E+03  0.11088363762E+04  0.79625435630E+02 0.  0.
         24    2    4    4    0    0  0.22716056997E+03  0.62834285867E+03 -0.64576544527E+03  0.93313430745E+03  0.85498262247E+02 0.  0.
         11    1    3    3    0    0 -0.59010479143E+03 -0.29338569053E+03 -0.28267317564E+03  0.71707946038E+03  0.00000000000E+00 0. -1.
        -11    1    3    3    0    0 -0.33140525534E+03 -0.19852967568E+03 -0.23660138562E+03  0.45301621502E+03  0.00000000000E+00 0.  1.
          4    1    6    6  502    0  0.94391886292E+02  0.36794972140E+03 -0.39500912420E+03  0.54802284066E+03  0.00000000000E+00 0. -1.
          1    1    5    5  503    0  0.28177458778E+03 -0.38628159187E+02 -0.28695079901E+03  0.40401709624E+03  0.00000000000E+00 0. -1.
         -2    1    5    5    0  503  0.41257488901E+03 -0.97799333275E+02 -0.56301640193E+03  0.70481928001E+03  0.00000000000E+00 0.  1.
         -3    1    6    6    0  502  0.13276868368E+03  0.26039313727E+03 -0.25075632107E+03  0.38511146680E+03  0.00000000000E+00 0.  1.
<mgrwt>
<rscale>  0 0.25014228E+04</rscale>
<asrwt>0</asrwt>
<pdfrwt beam="1">  1        1 0.92081475E-01 0.25014228E+04</pdfrwt>
<pdfrwt beam="2">  1       -1 0.40208258E+00 0.25014228E+04</pdfrwt>
<totfact> 0.21136674E-01</totfact>
</mgrwt>
</event>
<event>
12    1  0.1556559E-007  0.1499354E+04  0.7818608E-02  0.8884882E-01
         -2   -1    0    0    0  501 -0.00000000000E+00  0.00000000000E+00  0.83848695141E+03  0.83848695141E+03  0.00000000000E+00 0. -1.
          2   -1    0    0  501    0  0.00000000000E+00 -0.00000000000E+00 -0.67027377803E+03  0.67027377803E+03  0.00000000000E+00 0.  1.
         23    2    1    2    0    0  0.43665354990E+03  0.98297678499E+02  0.16403575296E+03  0.48525738277E+03  0.90764767685E+02 0.  0.
        254    2    1    2    0    0 -0.43665354990E+03 -0.98297678499E+02  0.41774204312E+01  0.10235033467E+04  0.92044168395E+03 0.  0.
        -24    2    4    4    0    0 -0.37192998256E+03 -0.17910238277E+03 -0.41117286436E+03  0.58801977419E+03  0.79338231729E+02 0.  0.
         24    2    4    4    0    0 -0.64723567334E+02  0.80804704271E+02  0.41535028479E+03  0.43548357247E+03  0.80072107607E+02 0.  0.
         13    1    3    3    0    0  0.37571929911E+02  0.42143557490E+01 -0.11092538294E+02  0.39401207056E+02  0.00000000000E+00 0. -1.
        -13    1    3    3    0    0  0.39908161999E+03  0.94083322750E+02  0.17512829125E+03  0.44585617572E+03  0.00000000000E+00 0.  1.
          4    1    6    6  502    0 -0.26176636218E+02 -0.18401138679E+01  0.19867020742E+03  0.20039574251E+03  0.00000000000E+00 0. -1.
          3    1    5    5  503    0 -0.27498711233E+03 -0.11891840992E+03 -0.34163957196E+03  0.45439751022E+03  0.00000000000E+00 0. -1.
         -4    1    5    5    0  503 -0.96942870237E+02 -0.60183972853E+02 -0.69533292398E+02  0.13362226398E+03  0.00000000000E+00 0.  1.
         -3    1    6    6    0  502 -0.38546931116E+02  0.82644818139E+02  0.21668007738E+03  0.23508782996E+03  0.00000000000E+00 0.  1.
<mgrwt>
<rscale>  0 0.14993543E+04</rscale>
<asrwt>0</asrwt>
<pdfrwt beam="1">  1        2 0.10311904E+00 0.14993543E+04</pdfrwt>
<pdfrwt beam="2">  1       -2 0.12899799E+00 0.14993543E+04</pdfrwt>
<totfact> 0.18513620E+01</totfact>
</mgrwt>
</event>
<event>
12    1  0.1556559E-007  0.1221099E+04  0.7818608E-02  0.9094587E-01
         -2   -1    0    0    0  501 -0.00000000000E+00  0.00000000000E+00  0.30029730105E+03  0.30029730105E+03  0.00000000000E+00 0. -1.
          2   -1    0    0  501    0  0.00000000000E+00 -0.00000000000E+00 -0.12413380377E+04  0.12413380377E+04  0.00000000000E+00 0.  1.
         23    2    1    2    0    0 -0.22344295627E+03 -0.14149167689E+03 -0.18182669569E+03  0.33408004304E+03  0.92746312904E+02 0.  0.
        254    2    1    2    0    0  0.22344295627E+03  0.14149167689E+03 -0.75921404100E+03  0.12075552958E+04  0.90102007910E+03 0.  0.
        -24    2    4    4    0    0  0.32112106646E+03  0.45952978783E+03 -0.62018408149E+03  0.83957151932E+03  0.77237787992E+02 0.  0.
         24    2    4    4    0    0 -0.97678110191E+02 -0.31803811094E+03 -0.13902995951E+03  0.36798377644E+03  0.73440294522E+02 0.  0.
         13    1    3    3    0    0 -0.24620923066E+01 -0.19535685832E+01  0.96145729386E+01  0.10115252915E+02  0.00000000000E+00 0. -1.
        -13    1    3    3    0    0 -0.22098086396E+03 -0.13953810830E+03 -0.19144126863E+03  0.32396479012E+03  0.00000000000E+00 0.  1.
          4    1    6    6  502    0 -0.42020380718E+02 -0.50148760946E+02 -0.12833069931E+02  0.66673070305E+02  0.00000000000E+00 0. -1.
          1    1    5    5  503    0  0.61039473214E+02  0.54660349982E+02 -0.63015124983E+02  0.10336574446E+03  0.00000000000E+00 0. -1.
         -2    1    5    5    0  503  0.26008159325E+03  0.40486943785E+03 -0.55716895651E+03  0.73620577486E+03  0.00000000000E+00 0.  1.
         -3    1    6    6    0  502 -0.55657729472E+02 -0.26788935000E+03 -0.12619688958E+03  0.30131070614E+03  0.00000000000E+00 0.  1.
<mgrwt>
<rscale>  0 0.12210986E+04</rscale>
<asrwt>0</asrwt>
<pdfrwt beam="1">  1        2 0.19097508E+00 0.12210986E+04</pdfrwt>
<pdfrwt beam="2">  1       -2 0.46199585E-01 0.12210986E+04</pdfrwt>
<totfact> 0.78310841E+01</totfact>
</mgrwt>
</event>
<event>
12    1  0.1556559E-007  0.2518590E+04  0.7818608E-02  0.8396392E-01
          2   -1    0    0  501    0  0.00000000000E+00  0.00000000000E+00  0.13705905189E+04  0.13705905189E+04  0.00000000000E+00 0. -1.
         -2   -1    0    0    0  501 -0.00000000000E+00 -0.00000000000E+00 -0.11570371309E+04  0.11570371309E+04  0.00000000000E+00 0.  1.
         23    2    1    2    0    0 -0.12149586483E+03 -0.46433206628E+03  0.10897799532E+04  0.11946342457E+04  0.95734642513E+02 0.  0.
        254    2    1    2    0    0  0.12149586483E+03  0.46433206628E+03 -0.87622656522E+03  0.13329934041E+04  0.88245844589E+03 0.  0.
        -24    2    4    4    0    0  0.98025624939E+02  0.50820924042E+03 -0.78241931362E+02  0.52950385133E+03  0.79792691109E+02 0.  0.
         24    2    4    4    0    0  0.23470239892E+02 -0.43877174140E+02 -0.79798463386E+03  0.80348955273E+03  0.79623657967E+02 0.  0.
         13    1    3    3    0    0 -0.11131725299E+03 -0.23795018250E+03  0.59752159770E+03  0.65272036882E+03  0.00000000000E+00 0. -1.
        -13    1    3    3    0    0 -0.10178611846E+02 -0.22638188378E+03  0.49225835549E+03  0.54191387691E+03  0.00000000000E+00 0.  1.
          2    1    6    6  502    0 -0.79626167578E+01  0.17818476951E+02 -0.88090699189E+02  0.90226784660E+02  0.00000000000E+00 0. -1.
          3    1    5    5  503    0  0.77455884729E+02  0.38552566343E+03 -0.93451525515E+02  0.40418144299E+03  0.00000000000E+00 0. -1.
         -4    1    5    5    0  503  0.20569740210E+02  0.12268357699E+03  0.15209594153E+02  0.12532240833E+03  0.00000000000E+00 0.  1.
         -1    1    6    6    0  502  0.31432856650E+02 -0.61695651091E+02 -0.70989393467E+03  0.71326276807E+03  0.00000000000E+00 0.  1.
<mgrwt>
<rscale>  0 0.25185902E+04</rscale>
<asrwt>0</asrwt>
<pdfrwt beam="1">  1        2 0.21086008E+00 0.25185902E+04</pdfrwt>
<pdfrwt beam="2">  1       -2 0.17800571E+00 0.25185902E+04</pdfrwt>
<totfact> 0.25082308E+00</totfact>
</mgrwt>
</event>
<event>
12    1  0.1556559E-007  0.2503882E+04  0.7818608E-02  0.8401604E-01
          2   -1    0    0  501    0  0.00000000000E+00  0.00000000000E+00  0.19461834312E+04  0.19461834312E+04  0.00000000000E+00 0.  1.
         -2   -1    0    0    0  501 -0.00000000000E+00 -0.00000000000E+00 -0.80534850627E+03  0.80534850627E+03  0.00000000000E+00 0. -1.
         23    2    1    2    0    0  0.66818480262E+03  0.21539478200E+03 -0.42099708004E+03  0.82378320499E+03  0.92273424447E+02 0.  0.
        254    2    1    2    0    0 -0.66818480262E+03 -0.21539478200E+03  0.15618320049E+04  0.19277487324E+04  0.88545475391E+03 0.  0.
        -24    2    4    4    0    0 -0.34409495132E+02 -0.44101904964E+03  0.55190268347E+03  0.71162317266E+03  0.78288903066E+02 0.  0.
         24    2    4    4    0    0 -0.63377530749E+03  0.22562426763E+03  0.10099293215E+04  0.12161255598E+04  0.80166653145E+02 0.  0.
         13    1    3    3    0    0  0.51290737361E+03  0.18446548533E+03 -0.36432917258E+03  0.65561973367E+03  0.00000000000E+00 0. -1.
        -13    1    3    3    0    0  0.15527742901E+03  0.30929296675E+02 -0.56667907465E+02  0.16816347133E+03  0.00000000000E+00 0.  1.
          2    1    6    6  502    0 -0.22894414122E+02  0.11019005207E+02  0.72518050176E+02  0.76840355771E+02  0.00000000000E+00 0. -1.
          3    1    5    5  503    0 -0.57414732518E+02 -0.30665038274E+03  0.40469954019E+03  0.51099180676E+03  0.00000000000E+00 0. -1.
         -4    1    5    5    0  503  0.23005237386E+02 -0.13436866689E+03  0.14720314328E+03  0.20063136590E+03  0.00000000000E+00 0.  1.
         -1    1    6    6    0  502 -0.61088089336E+03  0.21460526243E+03  0.93741127129E+03  0.11392852040E+04  0.00000000000E+00 0.  1.
<mgrwt>
<rscale>  0 0.25038817E+04</rscale>
<asrwt>0</asrwt>
<pdfrwt beam="1">  1        2 0.29941284E+00 0.25038817E+04</pdfrwt>
<pdfrwt beam="2">  1       -2 0.12389977E+00 0.25038817E+04</pdfrwt>
<totfact> 0.31287825E+00</totfact>
</mgrwt>
</event>
<event>
12    1  0.1556559E-007  0.1858299E+04  0.7818608E-02  0.8675897E-01
          1   -1    0    0  501    0  0.00000000000E+00  0.00000000000E+00  0.15743859562E+04  0.15743859562E+04  0.00000000000E+00 0. -1.
         -1   -1    0    0    0  501 -0.00000000000E+00 -0.00000000000E+00 -0.54835286057E+03  0.54835286057E+03  0.00000000000E+00 0.  1.
         23    2    1    2    0    0  0.47597405549E+03 -0.28024846231E+03 -0.10879679245E+03  0.57103042134E+03  0.95647780577E+02 0.  0.
        254    2    1    2    0    0 -0.47597405549E+03  0.28024846231E+03  0.11348298881E+04  0.15517083955E+04  0.90270126148E+03 0.  0.
        -24    2    4    4    0    0 -0.71728648766E+03  0.10300178776E+03  0.65882677479E+03  0.98265500195E+03  0.80304794454E+02 0.  0.
         24    2    4    4    0    0  0.24131243218E+03  0.17724667456E+03  0.47600311333E+03  0.56905339352E+03  0.87147732111E+02 0.  0.
         13    1    3    3    0    0  0.10230072199E+02  0.78495936440E+01 -0.33640370066E+01  0.13326186347E+02  0.00000000000E+00 0. -1.
        -13    1    3    3    0    0  0.46574398329E+03 -0.28809805596E+03 -0.10543275544E+03  0.55770423500E+03  0.00000000000E+00 0.  1.
          4    1    6    6  502    0  0.96499831702E+02  0.21294598945E+02  0.14162090234E+03  0.17269093040E+03  0.00000000000E+00 0. -1.
          1    1    5    5  503    0 -0.66000595528E+03  0.76121022840E+02  0.58309995298E+03  0.88397275201E+03  0.00000000000E+00 0. -1.
         -2    1    5    5    0  503 -0.57280532381E+02  0.26880764916E+02  0.75726821810E+02  0.98682249943E+02  0.00000000000E+00 0.  1.
         -3    1    6    6    0  502  0.14481260047E+03  0.15595207561E+03  0.33438221100E+03  0.39636246313E+03  0.00000000000E+00 0.  1.
<mgrwt>
<rscale>  0 0.18582993E+04</rscale>
<asrwt>0</asrwt>
<pdfrwt beam="1">  1        1 0.24221322E+00 0.18582993E+04</pdfrwt>
<pdfrwt beam="2">  1       -1 0.84361979E-01 0.18582993E+04</pdfrwt>
<totfact> 0.75928155E+00</totfact>
</mgrwt>
</event>
<event>
12    1  0.1556559E-007  0.1703514E+04  0.7818608E-02  0.8759363E-01
          2   -1    0    0  501    0  0.00000000000E+00  0.00000000000E+00  0.28869603169E+04  0.28869603169E+04  0.00000000000E+00 0. -1.
         -2   -1    0    0    0  501 -0.00000000000E+00 -0.00000000000E+00 -0.25129896660E+03  0.25129896660E+03  0.00000000000E+00 0.  1.
         23    2    1    2    0    0  0.49904008660E+03 -0.97973466114E+02  0.33726433509E+03  0.61783867198E+03  0.96631179104E+02 0.  0.
        254    2    1    2    0    0 -0.49904008660E+03  0.97973466114E+02  0.22983970152E+04  0.25204206116E+04  0.90069496024E+03 0.  0.
        -24    2    4    4    0    0 -0.58232006654E+03  0.38754948680E+03  0.13533958592E+04  0.15255695751E+04  0.79943181379E+02 0.  0.
         24    2    4    4    0    0  0.83279979936E+02 -0.28957602069E+03  0.94500115608E+03  0.99485103646E+03  0.76886753986E+02 0.  0.
         13    1    3    3    0    0  0.30753780084E+03 -0.96464205079E+02  0.24728947477E+03  0.40624737063E+03  0.00000000000E+00 0.  1.
        -13    1    3    3    0    0  0.19150228576E+03 -0.15092610349E+01  0.89974860322E+02  0.21159130136E+03  0.00000000000E+00 0. -1.
          2    1    6    6  502    0 -0.35129635622E+01 -0.12376597653E+03  0.37552515786E+03  0.39541054873E+03  0.00000000000E+00 0. -1.
          3    1    5    5  503    0 -0.61710010702E+02  0.14120858687E+02  0.11648191670E+03  0.13257285163E+03  0.00000000000E+00 0. -1.
         -4    1    5    5    0  503 -0.52061005584E+03  0.37342862812E+03  0.12369139425E+04  0.13929967235E+04  0.00000000000E+00 0.  1.
         -1    1    6    6    0  502  0.86792943498E+02 -0.16581004416E+03  0.56947599822E+03  0.59944048773E+03  0.00000000000E+00 0.  1.
<mgrwt>
<rscale>  0 0.17035142E+04</rscale>
<asrwt>0</asrwt>
<pdfrwt beam="1">  1        2 0.44414772E+00 0.17035142E+04</pdfrwt>
<pdfrwt beam="2">  1       -2 0.38661381E-01 0.17035142E+04</pdfrwt>
<totfact> 0.12354700E+01</totfact>
</mgrwt>
</event>
<event>
12    1  0.1556559E-007  0.2274357E+04  0.7818608E-02  0.8488101E-01
         -1   -1    0    0    0  501 -0.00000000000E+00  0.00000000000E+00  0.60410199667E+03  0.60410199667E+03  0.00000000000E+00 0.  1.
          1   -1    0    0  501    0  0.00000000000E+00 -0.00000000000E+00 -0.21406563331E+04  0.21406563331E+04  0.00000000000E+00 0. -1.
         23    2    1    2    0    0  0.61999251748E+03  0.42180818822E+02 -0.15230095065E+04  0.16483499915E+04  0.10644150668E+03 0.  0.
        254    2    1    2    0    0 -0.61999251748E+03 -0.42180818822E+02 -0.13544829971E+02  0.10964083383E+04  0.90319313477E+03 0.  0.
        -24    2    4    4    0    0 -0.62909146777E+02 -0.51526684790E+02  0.38852278085E+03  0.40472626458E+03  0.78998974704E+02 0.  0.
         24    2    4    4    0    0 -0.55708337071E+03  0.93458659683E+01 -0.40206761082E+03  0.69168207374E+03  0.79602137727E+02 0.  0.
         11    1    3    3    0    0  0.95715710734E+02 -0.21744050347E+01 -0.14967430308E+03  0.17767560981E+03  0.00000000000E+00 0.  1.
        -11    1    3    3    0    0  0.52427680675E+03  0.44355223856E+02 -0.13733352034E+04  0.14706743817E+04  0.00000000000E+00 0. -1.
          2    1    6    6  502    0 -0.11629812691E+03  0.30402207011E+02 -0.67135577787E+02  0.13768345695E+03  0.00000000000E+00 0. -1.
          3    1    5    5  503    0 -0.22242339650E+02  0.16941799725E+02  0.53460898947E+02  0.60330870765E+02  0.00000000000E+00 0. -1.
         -4    1    5    5    0  503 -0.40666807127E+02 -0.68468484515E+02  0.33506188190E+03  0.34439539381E+03  0.00000000000E+00 0.  1.
         -1    1    6    6    0  502 -0.44078524380E+03 -0.21056341042E+02 -0.33493203304E+03  0.55399861679E+03  0.00000000000E+00 0.  1.
<mgrwt>
<rscale>  0 0.22743568E+04</rscale>
<asrwt>0</asrwt>
<pdfrwt beam="1">  1        1 0.32933174E+00 0.22743568E+04</pdfrwt>
<pdfrwt beam="2">  1       -1 0.92938770E-01 0.22743568E+04</pdfrwt>
<totfact> 0.24357961E+00</totfact>
</mgrwt>
</event>
<event>
12    1  0.1556559E-007  0.2254426E+04  0.7818608E-02  0.8496110E-01
          2   -1    0    0  501    0  0.00000000000E+00  0.00000000000E+00  0.13963328531E+04  0.13963328531E+04  0.00000000000E+00 0. -1.
         -2   -1    0    0    0  501 -0.00000000000E+00 -0.00000000000E+00 -0.90996134412E+03  0.90996134412E+03  0.00000000000E+00 0.  1.
         23    2    1    2    0    0  0.28551156864E+03 -0.73246047561E+03 -0.33134676386E+03  0.85847827586E+03  0.95807452961E+02 0.  0.
        254    2    1    2    0    0 -0.28551156864E+03  0.73246047561E+03  0.81771827282E+03  0.14478159213E+04  0.89971804707E+03 0.  0.
        -24    2    4    4    0    0 -0.48673654625E+03  0.26262892261E+03  0.10749820013E+03  0.56916954728E+03  0.80695068466E+02 0.  0.
         24    2    4    4    0    0  0.20122497761E+03  0.46983155300E+03  0.71022007268E+03  0.87864637406E+03  0.79835575968E+02 0.  0.
         13    1    3    3    0    0 -0.62214983353E+01 -0.13383499002E+02 -0.16563729703E+00  0.14759828007E+02  0.00000000000E+00 0. -1.
        -13    1    3    3    0    0  0.29173306697E+03 -0.71907697661E+03 -0.33118112656E+03  0.84371844785E+03  0.00000000000E+00 0.  1.
          2    1    6    6  502    0  0.36713207972E+02  0.16376627173E+03  0.26845588700E+03  0.31660040217E+03  0.00000000000E+00 0. -1.
          3    1    5    5  503    0 -0.34967374528E+03  0.15761634520E+03  0.48039694633E+02  0.38655200513E+03  0.00000000000E+00 0. -1.
         -4    1    5    5    0  503 -0.13706280097E+03  0.10501257741E+03  0.59458505501E+02  0.18261754215E+03  0.00000000000E+00 0.  1.
         -1    1    6    6    0  502  0.16451176964E+03  0.30606528128E+03  0.44176418569E+03  0.56204597188E+03  0.00000000000E+00 0.  1.
<mgrwt>
<rscale>  0 0.22544258E+04</rscale>
<asrwt>0</asrwt>
<pdfrwt beam="1">  1        2 0.21482044E+00 0.22544258E+04</pdfrwt>
<pdfrwt beam="2">  1       -2 0.13999405E+00 0.22544258E+04</pdfrwt>
<totfact> 0.47537611E+00</totfact>
</mgrwt>
</event>
<event>
12    1  0.1556559E-007  0.1954410E+04  0.7818608E-02  0.8628237E-01
         -1   -1    0    0    0  501 -0.00000000000E+00  0.00000000000E+00  0.84332013529E+03  0.84332013529E+03  0.00000000000E+00 0.  1.
          1   -1    0    0  501    0  0.00000000000E+00 -0.00000000000E+00 -0.11323456564E+04  0.11323456564E+04  0.00000000000E+00 0. -1.
         23    2    1    2    0    0 -0.99584370841E+02  0.40745391594E+03  0.54170261184E+03  0.69124237808E+03  0.91861662630E+02 0.  0.
        254    2    1    2    0    0  0.99584370841E+02 -0.40745391594E+03 -0.83072813290E+03  0.12844234136E+04  0.88526749291E+03 0.  0.
        -24    2    4    4    0    0 -0.66507998976E+02 -0.22910072184E+03 -0.96347522022E+03  0.99573517984E+03  0.79332173286E+02 0.  0.
         24    2    4    4    0    0  0.16609236982E+03 -0.17835319410E+03  0.13274708732E+03  0.28868823373E+03  0.79514589506E+02 0.  0.
         13    1    3    3    0    0 -0.79339429807E+01 -0.26901294036E+01  0.57214047648E+01  0.10144886392E+02  0.00000000000E+00 0. -1.
        -13    1    3    3    0    0 -0.91650427861E+02  0.41014404534E+03  0.53598120707E+03  0.68109749169E+03  0.00000000000E+00 0.  1.
          4    1    6    6  502    0  0.88822190214E+02 -0.14442138907E+03  0.10686140919E+03  0.20041526855E+03  0.00000000000E+00 0. -1.
          1    1    5    5  503    0  0.15820226834E+02 -0.19641137633E+02 -0.12907970130E+03  0.13152042865E+03  0.00000000000E+00 0. -1.
         -2    1    5    5    0  503 -0.82328225810E+02 -0.20945958421E+03 -0.83439551892E+03  0.86421475119E+03  0.00000000000E+00 0.  1.
         -3    1    6    6    0  502  0.77270179603E+02 -0.33931805026E+02  0.25885678132E+02  0.88272965174E+02  0.00000000000E+00 0.  1.
<mgrwt>
<rscale>  0 0.19544103E+04</rscale>
<asrwt>0</asrwt>
<pdfrwt beam="1">  1        1 0.17420702E+00 0.19544103E+04</pdfrwt>
<pdfrwt beam="2">  1       -1 0.12974156E+00 0.19544103E+04</pdfrwt>
<totfact> 0.56918788E+00</totfact>
</mgrwt>
</event>
<event>
12    1  0.1556559E-007  0.1455978E+04  0.7818608E-02  0.8914267E-01
         -2   -1    0    0    0  501 -0.00000000000E+00  0.00000000000E+00  0.19772926531E+03  0.19772926531E+03  0.00000000000E+00 0.  1.
          2   -1    0    0  501    0  0.00000000000E+00 -0.00000000000E+00 -0.26802696491E+04  0.26802696491E+04  0.00000000000E+00 0. -1.
         23    2    1    2    0    0  0.19488443262E+03 -0.22013780675E+03 -0.11346782393E+03  0.32663179654E+03  0.85864936984E+02 0.  0.
        254    2    1    2    0    0 -0.19488443262E+03  0.22013780675E+03 -0.23690725598E+04  0.25513671178E+04  0.90029371886E+03 0.  0.
        -24    2    4    4    0    0 -0.14920721895E+03  0.46444112882E+03 -0.67138335182E+03  0.83371010886E+03  0.79678003095E+02 0.  0.
         24    2    4    4    0    0 -0.45677213664E+02 -0.24430332207E+03 -0.16976892080E+04  0.17176570090E+04  0.80165032927E+02 0.  0.
         11    1    3    3    0    0  0.13537466041E+03 -0.11811637487E+03 -0.10529031839E+03  0.20823983250E+03  0.00000000000E+00 0.  1.
        -11    1    3    3    0    0  0.59509772203E+02 -0.10202143188E+03 -0.81775055454E+01  0.11839196403E+03  0.00000000000E+00 0. -1.
          2    1    6    6  502    0 -0.38794184723E+02 -0.21972428849E+03 -0.16320221962E+04  0.16472037520E+04  0.00000000000E+00 0. -1.
          1    1    5    5  503    0 -0.92420663136E+02  0.36459791231E+03 -0.55272424252E+03  0.66856361321E+03  0.00000000000E+00 0. -1.
         -2    1    5    5    0  503 -0.56786555816E+02  0.99843216507E+02 -0.11865910930E+03  0.16514649564E+03  0.00000000000E+00 0.  1.
         -1    1    6    6    0  502 -0.68830289410E+01 -0.24579033585E+02 -0.65667011768E+02  0.70453256943E+02  0.00000000000E+00 0.  1.
<mgrwt>
<rscale>  0 0.14559777E+04</rscale>
<asrwt>0</asrwt>
<pdfrwt beam="1">  1        2 0.41234917E+00 0.14559777E+04</pdfrwt>
<pdfrwt beam="2">  1       -2 0.30419887E-01 0.14559777E+04</pdfrwt>
<totfact> 0.26547896E+01</totfact>
</mgrwt>
</event>
<event>
12    1  0.1556559E-007  0.2528134E+04  0.7818608E-02  0.8393031E-01
          2   -1    0    0  501    0  0.00000000000E+00  0.00000000000E+00  0.27908723269E+04  0.27908723269E+04  0.00000000000E+00 0. -1.
         -2   -1    0    0    0  501 -0.00000000000E+00 -0.00000000000E+00 -0.57253242828E+03  0.57253242828E+03  0.00000000000E+00 0.  1.
         23    2    1    2    0    0 -0.91328708327E+03 -0.39933320535E+03  0.34193461872E+03  0.10577579497E+04  0.91500225302E+02 0.  0.
        254    2    1    2    0    0  0.91328708327E+03  0.39933320535E+03  0.18764052799E+04  0.23056468055E+04  0.89529331062E+03 0.  0.
        -24    2    4    4    0    0  0.10338560864E+04  0.16288883092E+03  0.15954094123E+04  0.19096921818E+04  0.78751873784E+02 0.  0.
         24    2    4    4    0    0 -0.12056900310E+03  0.23644437443E+03  0.28099586756E+03  0.39595462375E+03  0.85898543474E+02 0.  0.
         11    1    3    3    0    0 -0.46522877287E+03 -0.19151355775E+03  0.21948112527E+03  0.54889636386E+03  0.00000000000E+00 0. -1.
        -11    1    3    3    0    0 -0.44805831040E+03 -0.20781964760E+03  0.12245349345E+03  0.50886158581E+03  0.00000000000E+00 0.  1.
          4    1    6    6  502    0 -0.73759421030E+02  0.62768325461E+02  0.12292036079E+03  0.15649194857E+03  0.00000000000E+00 0. -1.
          3    1    5    5  503    0  0.12612076218E+03  0.39542964983E+02  0.23444949235E+03  0.26914059002E+03  0.00000000000E+00 0. -1.
         -4    1    5    5    0  503  0.90773532419E+03  0.12334586594E+03  0.13609599200E+04  0.16405515918E+04  0.00000000000E+00 0.  1.
         -1    1    6    6    0  502 -0.46809582066E+02  0.17367604897E+03  0.15807550677E+03  0.23946267517E+03  0.00000000000E+00 0.  1.
<mgrwt>
<rscale>  0 0.25281336E+04</rscale>
<asrwt>0</asrwt>
<pdfrwt beam="1">  1        2 0.42936497E+00 0.25281336E+04</pdfrwt>
<pdfrwt beam="2">  1       -2 0.88081914E-01 0.25281336E+04</pdfrwt>
<totfact> 0.23141808E+00</totfact>
</mgrwt>
</event>
<event>
12    1  0.1556559E-007  0.2239513E+04  0.7818608E-02  0.8502160E-01
         -2   -1    0    0    0  501 -0.00000000000E+00  0.00000000000E+00  0.47450147961E+03  0.47450147961E+03  0.00000000000E+00 0.  1.
          2   -1    0    0  501    0  0.00000000000E+00 -0.00000000000E+00 -0.26424667986E+04  0.26424667986E+04  0.00000000000E+00 0. -1.
         23    2    1    2    0    0  0.55935480397E+03 -0.33675745672E+03 -0.18522743001E+04  0.19659803719E+04  0.88743215376E+02 0.  0.
        254    2    1    2    0    0 -0.55935480397E+03  0.33675745672E+03 -0.31569101889E+03  0.11509879064E+04  0.89377231991E+03 0.  0.
        -24    2    4    4    0    0  0.74360319744E+02  0.33212353035E+03 -0.37226237315E+03  0.51069723669E+03  0.79980601054E+02 0.  0.
         24    2    4    4    0    0 -0.63371512372E+03  0.46339263781E+01  0.56571354256E+02  0.64029066968E+03  0.71801756655E+02 0.  0.
         11    1    3    3    0    0  0.43179501811E+02 -0.43143112182E+02 -0.11798128273E+03  0.13283591600E+03  0.00000000000E+00 0.  1.
        -11    1    3    3    0    0  0.51617530216E+03 -0.29361434454E+03 -0.17342930174E+04  0.18331444559E+04  0.00000000000E+00 0. -1.
          4    1    6    6  502    0 -0.60004317498E+03 -0.92573250253E+01  0.62598398096E+02  0.60337059040E+03  0.00000000000E+00 0. -1.
          3    1    5    5  503    0  0.75735781168E+02  0.32098376518E+03 -0.37474700461E+03  0.49920116539E+03  0.00000000000E+00 0. -1.
         -4    1    5    5    0  503 -0.13754614245E+01  0.11139765163E+02  0.24846314620E+01  0.11496071308E+02  0.00000000000E+00 0.  1.
         -3    1    6    6    0  502 -0.33671948735E+02  0.13891251403E+02 -0.60270438399E+01  0.36920079288E+02  0.00000000000E+00 0.  1.
<mgrwt>
<rscale>  0 0.22395128E+04</rscale>
<asrwt>0</asrwt>
<pdfrwt beam="1">  1        2 0.40653335E+00 0.22395128E+04</pdfrwt>
<pdfrwt beam="2">  1       -2 0.73000229E-01 0.22395128E+04</pdfrwt>
<totfact> 0.44380376E+00</totfact>
</mgrwt>
</event>
<event>
12    1  0.1556559E-007  0.1661571E+04  0.7818608E-02  0.8783591E-01
          2   -1    0    0  501    0  0.00000000000E+00  0.00000000000E+00  0.64491176532E+03  0.64491176532E+03  0.00000000000E+00 0. -1.
         -2   -1    0    0    0  501 -0.00000000000E+00 -0.00000000000E+00 -0.10702306198E+04  0.10702306198E+04  0.00000000000E+00 0.  1.
         23    2    1    2    0    0  0.42645276092E+03 -0.14619884123E+03  0.23053239106E+03  0.51519410013E+03  0.95098470100E+02 0.  0.
        254    2    1    2    0    0 -0.42645276092E+03  0.14619884123E+03 -0.65585124553E+03  0.11999482850E+04  0.89805287812E+03 0.  0.
        -24    2    4    4    0    0 -0.15733240797E+03 -0.35494751982E+03 -0.42254922555E+03  0.57896838773E+03  0.76911101590E+02 0.  0.
         24    2    4    4    0    0 -0.26912035295E+03  0.50114636106E+03 -0.23330201997E+03  0.62097989725E+03  0.87251135766E+02 0.  0.
         13    1    3    3    0    0  0.38039042081E+03 -0.14626813055E+03  0.23229644874E+03  0.46909794112E+03  0.00000000000E+00 0. -1.
        -13    1    3    3    0    0  0.46062340102E+02  0.69289319907E-01 -0.17640576818E+01  0.46096159018E+02  0.00000000000E+00 0.  1.
          4    1    6    6  502    0 -0.17797205437E+02  0.57039153676E+02  0.32614288866E+00  0.59752087350E+02  0.00000000000E+00 0. -1.
          1    1    5    5  503    0 -0.58439024147E+02 -0.66166112589E+02 -0.70202790333E+02  0.11278965276E+03  0.00000000000E+00 0. -1.
         -2    1    5    5    0  503 -0.98893383820E+02 -0.28878140724E+03 -0.35234643522E+03  0.46617873497E+03  0.00000000000E+00 0.  1.
         -3    1    6    6    0  502 -0.25132314751E+03  0.44410720738E+03 -0.23362816286E+03  0.56122780990E+03  0.00000000000E+00 0.  1.
<mgrwt>
<rscale>  0 0.16615707E+04</rscale>
<asrwt>0</asrwt>
<pdfrwt beam="1">  1        2 0.99217195E-01 0.16615707E+04</pdfrwt>
<pdfrwt beam="2">  1       -2 0.16465086E+00 0.16615707E+04</pdfrwt>
<totfact> 0.10082943E+01</totfact>
</mgrwt>
</event>
<event>
12    1  0.1556559E-007  0.1930615E+04  0.7818608E-02  0.8639766E-01
         -2   -1    0    0    0  501 -0.00000000000E+00  0.00000000000E+00  0.59785929879E+03  0.59785929879E+03  0.00000000000E+00 0.  1.
          2   -1    0    0  501    0  0.00000000000E+00 -0.00000000000E+00 -0.15585909468E+04  0.15585909468E+04  0.00000000000E+00 0. -1.
         23    2    1    2    0    0  0.14414671858E+03 -0.57903483629E+03 -0.89520374405E+03  0.10795178739E+04  0.88935249040E+02 0.  0.
        254    2    1    2    0    0 -0.14414671858E+03  0.57903483629E+03 -0.65527904007E+02  0.10769323718E+04  0.89410838775E+03 0.  0.
        -24    2    4    4    0    0  0.22329839142E+03 -0.11886562985E+02  0.21693120484E+03  0.32173863558E+03  0.80331438426E+02 0.  0.
         24    2    4    4    0    0 -0.36744511001E+03  0.59092139927E+03 -0.28245910885E+03  0.75519373619E+03  0.79563949244E+02 0.  0.
         13    1    3    3    0    0  0.11968234938E+03 -0.48166308937E+03 -0.67809228058E+03  0.84031680775E+03  0.00000000000E+00 0. -1.
        -13    1    3    3    0    0  0.24464369208E+02 -0.97371746921E+02 -0.21711146347E+03  0.23920106612E+03  0.00000000000E+00 0.  1.
          4    1    6    6  502    0 -0.95480696869E+02  0.98584742012E+02 -0.68789561786E+02  0.15351716074E+03  0.00000000000E+00 0. -1.
          1    1    5    5  503    0  0.22085271292E+03  0.23778985783E+01  0.19079758531E+03  0.29186519793E+03  0.00000000000E+00 0. -1.
         -2    1    5    5    0  503  0.24456785058E+01 -0.14264461563E+02  0.26133619533E+02  0.29873437648E+02  0.00000000000E+00 0.  1.
         -3    1    6    6    0  502 -0.27196441314E+03  0.49233665726E+03 -0.21366954706E+03  0.60167657544E+03  0.00000000000E+00 0.  1.
<mgrwt>
<rscale>  0 0.19306145E+04</rscale>
<asrwt>0</asrwt>
<pdfrwt beam="1">  1        2 0.23978322E+00 0.19306145E+04</pdfrwt>
<pdfrwt beam="2">  1       -2 0.91978354E-01 0.19306145E+04</pdfrwt>
<totfact> 0.11045843E+01</totfact>
</mgrwt>
</event>
<event>
12    1  0.1556559E-007  0.1587048E+04  0.7818608E-02  0.8828545E-01
         -2   -1    0    0    0  501 -0.00000000000E+00  0.00000000000E+00  0.41346954144E+03  0.41346954144E+03  0.00000000000E+00 0.  1.
          2   -1    0    0  501    0  0.00000000000E+00 -0.00000000000E+00 -0.15229180339E+04  0.15229180339E+04  0.00000000000E+00 0. -1.
         23    2    1    2    0    0 -0.29501987324E+03 -0.23035113446E+03 -0.84446480095E+03  0.92818190007E+03  0.91117884233E+02 0.  0.
        254    2    1    2    0    0  0.29501987324E+03  0.23035113446E+03 -0.26498369151E+03  0.10082056753E+04  0.89786633533E+03 0.  0.
        -24    2    4    4    0    0 -0.19880208681E+03  0.39150687508E+03 -0.14236163384E+03  0.46878272425E+03  0.81795506042E+02 0.  0.
         24    2    4    4    0    0  0.49382196006E+03 -0.16115574062E+03 -0.12262205767E+03  0.53942295101E+03  0.78164250650E+02 0.  0.
         11    1    3    3    0    0 -0.11790272209E+00  0.24904382396E+01  0.12245720677E+01  0.27777257651E+01  0.00000000000E+00 0.  1.
        -11    1    3    3    0    0 -0.29490197052E+03 -0.23284157269E+03 -0.84568937302E+03  0.92540417431E+03  0.00000000000E+00 0. -1.
          2    1    6    6  502    0  0.12740093047E+03 -0.54629365593E+02 -0.66433690827E+02  0.15371662222E+03  0.00000000000E+00 0. -1.
          1    1    5    5  503    0 -0.62868334433E+02  0.16967981413E+03 -0.22534409926E+02  0.18234984626E+03  0.00000000000E+00 0. -1.
         -2    1    5    5    0  503 -0.13593375238E+03  0.22182706095E+03 -0.11982722392E+03  0.28643287799E+03  0.00000000000E+00 0.  1.
         -1    1    6    6    0  502  0.36642102959E+03 -0.10652637503E+03 -0.56188366840E+02  0.38570632879E+03  0.00000000000E+00 0.  1.
<mgrwt>
<rscale>  0 0.15870479E+04</rscale>
<asrwt>0</asrwt>
<pdfrwt beam="1">  1        2 0.23429508E+00 0.15870479E+04</pdfrwt>
<pdfrwt beam="2">  1       -2 0.63610699E-01 0.15870479E+04</pdfrwt>
<totfact> 0.27043212E+01</totfact>
</mgrwt>
</event>
<event>
12    1  0.1556559E-007  0.1230454E+04  0.7818608E-02  0.9086610E-01
          2   -1    0    0  501    0  0.00000000000E+00  0.00000000000E+00  0.86478409058E+03  0.86478409058E+03  0.00000000000E+00 0.  1.
         -2   -1    0    0    0  501 -0.00000000000E+00 -0.00000000000E+00 -0.43768627114E+03  0.43768627114E+03  0.00000000000E+00 0. -1.
         23    2    1    2    0    0 -0.11420688617E+03 -0.37532316838E+02 -0.17228777862E+03  0.22899702407E+03  0.91129966054E+02 0.  0.
        254    2    1    2    0    0  0.11420688617E+03  0.37532316838E+02  0.59938559807E+03  0.10734733377E+04  0.88240014949E+03 0.  0.
        -24    2    4    4    0    0  0.25855494080E+03  0.31915285693E+03  0.32461131908E+02  0.41956367071E+03  0.79188036912E+02 0.  0.
         24    2    4    4    0    0 -0.14434805463E+03 -0.28162054009E+03  0.56692446616E+03  0.65390966695E+03  0.77768970106E+02 0.  0.
         13    1    3    3    0    0 -0.21738988555E+02 -0.17163205910E+02  0.48711202726E+01  0.28122714542E+02  0.00000000000E+00 0.  1.
        -13    1    3    3    0    0 -0.92467897617E+02 -0.20369110927E+02 -0.17715889890E+03  0.20087430953E+03  0.00000000000E+00 0. -1.
          2    1    6    6  502    0 -0.11293592372E+02 -0.69863985218E+02  0.17759620130E+03  0.19117775073E+03  0.00000000000E+00 0. -1.
          1    1    5    5  503    0  0.11604517940E+03  0.14934550431E+03 -0.24414521998E+02  0.19070037285E+03  0.00000000000E+00 0. -1.
         -2    1    5    5    0  503  0.14250976140E+03  0.16980735262E+03  0.56875653906E+02  0.22886329786E+03  0.00000000000E+00 0.  1.
         -1    1    6    6    0  502 -0.13305446226E+03 -0.21175655488E+03  0.38932826487E+03  0.46273191622E+03  0.00000000000E+00 0.  1.
<mgrwt>
<rscale>  0 0.12304538E+04</rscale>
<asrwt>0</asrwt>
<pdfrwt beam="1">  1        2 0.13304371E+00 0.12304538E+04</pdfrwt>
<pdfrwt beam="2">  1       -2 0.67336350E-01 0.12304538E+04</pdfrwt>
<totfact> 0.61765877E+01</totfact>
</mgrwt>
</event>
<event>
12    1  0.1556559E-007  0.1872062E+04  0.7818608E-02  0.8668889E-01
          1   -1    0    0  501    0  0.00000000000E+00  0.00000000000E+00  0.32886327195E+04  0.32886327195E+04  0.00000000000E+00 0. -1.
         -1   -1    0    0    0  501 -0.00000000000E+00 -0.00000000000E+00 -0.26641885973E+03  0.26641885973E+03  0.00000000000E+00 0.  1.
         23    2    1    2    0    0  0.43765275684E+03  0.51414662321E+03  0.15779982136E+04  0.17188241737E+04  0.91605089056E+02 0.  0.
        254    2    1    2    0    0 -0.43765275684E+03 -0.51414662321E+03  0.14442156462E+04  0.18362274055E+04  0.91109031734E+03 0.  0.
        -24    2    4    4    0    0  0.16696799142E+02 -0.31625261757E+02  0.10644568793E+04  0.10682398928E+04  0.82395876642E+02 0.  0.
         24    2    4    4    0    0 -0.45434955598E+03 -0.48252136145E+03  0.37975876688E+03  0.76798751267E+03  0.79546937833E+02 0.  0.
         13    1    3    3    0    0  0.10528430912E+03  0.70461037845E+02  0.31460526299E+03  0.33915485416E+03  0.00000000000E+00 0.  1.
        -13    1    3    3    0    0  0.33236844772E+03  0.44368558536E+03  0.12633929506E+04  0.13796693195E+04  0.00000000000E+00 0. -1.
          2    1    6    6  502    0 -0.10415301289E+03 -0.71815426335E+02  0.91182512737E+02  0.15594728655E+03  0.00000000000E+00 0. -1.
          3    1    5    5  503    0 -0.20019487160E+02 -0.12711794375E+01  0.74983116199E+02  0.77619994063E+02  0.00000000000E+00 0. -1.
         -4    1    5    5    0  503  0.36716286302E+02 -0.30354082319E+02  0.98947376310E+03  0.99061989878E+03  0.00000000000E+00 0.  1.
         -1    1    6    6    0  502 -0.35019654309E+03 -0.41070593512E+03  0.28857625415E+03  0.61204022612E+03  0.00000000000E+00 0.  1.
<mgrwt>
<rscale>  0 0.18720617E+04</rscale>
<asrwt>0</asrwt>
<pdfrwt beam="1">  1        1 0.50594347E+00 0.18720617E+04</pdfrwt>
<pdfrwt beam="2">  1       -1 0.40987519E-01 0.18720617E+04</pdfrwt>
<totfact> 0.19983458E+00</totfact>
</mgrwt>
</event>
<event>
12    1  0.1556559E-007  0.2064677E+04  0.7818608E-02  0.8576965E-01
          2   -1    0    0  501    0  0.00000000000E+00  0.00000000000E+00  0.16442714742E+04  0.16442714742E+04  0.00000000000E+00 0. -1.
         -2   -1    0    0    0  501 -0.00000000000E+00 -0.00000000000E+00 -0.64814310684E+03  0.64814310684E+03  0.00000000000E+00 0.  1.
         23    2    1    2    0    0 -0.55680443524E+02  0.58657378794E+03  0.10496668203E+04  0.12071741485E+04  0.91103625630E+02 0.  0.
        254    2    1    2    0    0  0.55680443524E+02 -0.58657378794E+03 -0.53538453012E+02  0.10852404325E+04  0.90978640895E+03 0.  0.
        -24    2    4    4    0    0 -0.21097900372E+03  0.11459413420E+03  0.16211998895E+03  0.30056690789E+03  0.80085077877E+02 0.  0.
         24    2    4    4    0    0  0.26665944724E+03 -0.70116792214E+03 -0.21565844197E+03  0.78467352461E+03  0.80375747566E+02 0.  0.
         13    1    3    3    0    0 -0.34044705969E+02  0.59515400138E+02  0.12944068067E+03  0.14647871747E+03  0.00000000000E+00 0.  1.
        -13    1    3    3    0    0 -0.21635737555E+02  0.52705838780E+03  0.92022613966E+03  0.10606954310E+04  0.00000000000E+00 0. -1.
          4    1    6    6  502    0  0.35225368776E+02 -0.51224157331E+02 -0.11555953886E+01  0.62177779797E+02  0.00000000000E+00 0. -1.
          1    1    5    5  503    0 -0.69287999547E+02  0.70871093520E+02  0.34560105153E+02  0.10496637388E+03  0.00000000000E+00 0. -1.
         -2    1    5    5    0  503 -0.14169100417E+03  0.43723040678E+02  0.12755988380E+03  0.19560053401E+03  0.00000000000E+00 0.  1.
         -3    1    6    6    0  502  0.23143407847E+03 -0.64994376481E+03 -0.21450284658E+03  0.72249574482E+03  0.00000000000E+00 0.  1.
<mgrwt>
<rscale>  0 0.20646774E+04</rscale>
<asrwt>0</asrwt>
<pdfrwt beam="1">  1        2 0.25296484E+00 0.20646774E+04</pdfrwt>
<pdfrwt beam="2">  1       -2 0.99714325E-01 0.20646774E+04</pdfrwt>
<totfact> 0.80969795E+00</totfact>
</mgrwt>
</event>
<event>
12    1  0.1556559E-007  0.1316408E+04  0.7818608E-02  0.9016654E-01
          2   -1    0    0  501    0  0.00000000000E+00  0.00000000000E+00  0.19934841186E+04  0.19934841186E+04  0.00000000000E+00 0. -1.
         -2   -1    0    0    0  501 -0.00000000000E+00 -0.00000000000E+00 -0.21732428085E+03  0.21732428085E+03  0.00000000000E+00 0.  1.
         23    2    1    2    0    0 -0.29630302700E+03  0.76663612278E+02  0.75432079409E+03  0.81919467503E+03  0.91691122501E+02 0.  0.
        254    2    1    2    0    0  0.29630302700E+03 -0.76663612278E+02  0.10218390436E+04  0.13916137244E+04  0.89373426342E+03 0.  0.
        -24    2    4    4    0    0 -0.26097681773E+03 -0.21481083009E+03  0.25731740372E+03  0.43224913025E+03  0.79840291972E+02 0.  0.
         24    2    4    4    0    0  0.55727984473E+03  0.13814721782E+03  0.76452163992E+03  0.95936459416E+03  0.79003844770E+02 0.  0.
         11    1    3    3    0    0 -0.18059002453E+03  0.71944921176E+02  0.56230462174E+03  0.59495824751E+03  0.00000000000E+00 0. -1.
        -11    1    3    3    0    0 -0.11571300247E+03  0.47186911024E+01  0.19201617235E+03  0.22423642753E+03  0.00000000000E+00 0.  1.
          4    1    6    6  502    0  0.27540293127E+03  0.87569411467E+02  0.32640133350E+03  0.43595069319E+03  0.00000000000E+00 0. -1.
          1    1    5    5  503    0 -0.15537969663E+03 -0.10634733877E+03  0.18688135909E+03  0.26528710667E+03  0.00000000000E+00 0. -1.
         -2    1    5    5    0  503 -0.10559712110E+03 -0.10846349132E+03  0.70436044632E+02  0.16696202358E+03  0.00000000000E+00 0.  1.
         -3    1    6    6    0  502  0.28187691346E+03  0.50577806349E+02  0.43812030642E+03  0.52341390098E+03  0.00000000000E+00 0.  1.
<mgrwt>
<rscale>  0 0.13164080E+04</rscale>
<asrwt>0</asrwt>
<pdfrwt beam="1">  1        2 0.30668985E+00 0.13164080E+04</pdfrwt>
<pdfrwt beam="2">  1       -2 0.33434506E-01 0.13164080E+04</pdfrwt>
<totfact> 0.55188355E+01</totfact>
</mgrwt>
</event>
<event>
12    1  0.1556559E-007  0.1947150E+04  0.7818608E-02  0.8631736E-01
         -2   -1    0    0    0  501 -0.00000000000E+00  0.00000000000E+00  0.41520643724E+03  0.41520643724E+03  0.00000000000E+00 0.  1.
          2   -1    0    0  501    0  0.00000000000E+00 -0.00000000000E+00 -0.22828354357E+04  0.22828354357E+04  0.00000000000E+00 0. -1.
         23    2    1    2    0    0 -0.75453317217E+03 -0.10947130146E+03 -0.96223447096E+03  0.12310772030E+04  0.91387247079E+02 0.  0.
        254    2    1    2    0    0  0.75453317217E+03  0.10947130146E+03 -0.90539452747E+03  0.14669646699E+04  0.86656899241E+03 0.  0.
        -24    2    4    4    0    0  0.66311083734E+03 -0.14117901520E+03 -0.96528893430E+03  0.11821119005E+04  0.77190166188E+02 0.  0.
         24    2    4    4    0    0  0.91422334823E+02  0.25065031666E+03  0.59894406833E+02  0.28485276937E+03  0.79813129868E+02 0.  0.
         11    1    3    3    0    0 -0.51478391011E+03 -0.10739631599E+03 -0.70368928265E+03  0.87847313522E+03  0.00000000000E+00 0. -1.
        -11    1    3    3    0    0 -0.23974926206E+03 -0.20749854739E+01 -0.25854518831E+03  0.35260406779E+03  0.00000000000E+00 0.  1.
          4    1    6    6  502    0  0.24357339862E+02  0.14299684253E+03  0.11166730366E+01  0.14506075946E+03  0.00000000000E+00 0. -1.
          3    1    5    5  503    0  0.10543911403E+03 -0.51993599484E+02 -0.16193483590E+03  0.20010905085E+03  0.00000000000E+00 0. -1.
         -4    1    5    5    0  503  0.55767172331E+03 -0.89185415715E+02 -0.80335409840E+03  0.98200284968E+03  0.00000000000E+00 0.  1.
         -3    1    6    6    0  502  0.67064994961E+02  0.10765347414E+03  0.58777733796E+02  0.13979200990E+03  0.00000000000E+00 0.  1.
<mgrwt>
<rscale>  0 0.19471497E+04</rscale>
<asrwt>0</asrwt>
<pdfrwt beam="1">  1        2 0.35120545E+00 0.19471497E+04</pdfrwt>
<pdfrwt beam="2">  1       -2 0.63877914E-01 0.19471497E+04</pdfrwt>
<totfact> 0.98061238E+00</totfact>
</mgrwt>
</event>
<event>
12    1  0.2104091E-007  0.1763232E+04  0.7818608E-02  0.8726100E-01
          2   -1    0    0  501    0  0.00000000000E+00  0.00000000000E+00  0.79226359865E+03  0.79226359865E+03  0.00000000000E+00 0. -1.
         -2   -1    0    0    0  501 -0.00000000000E+00 -0.00000000000E+00 -0.98104575993E+03  0.98104575993E+03  0.00000000000E+00 0.  1.
         23    2    1    2    0    0  0.89174509887E+02  0.25263483757E+03  0.51322037593E+03  0.58757980717E+03  0.10039134003E+03 0.  0.
        254    2    1    2    0    0 -0.89174509887E+02 -0.25263483757E+03 -0.70200253721E+03  0.11857295514E+04  0.91726253194E+03 0.  0.
        -24    2    4    4    0    0 -0.33085381576E+03 -0.11916453324E+02  0.60979664172E+02  0.34602281317E+03  0.80043853812E+02 0.  0.
         24    2    4    4    0    0  0.24167930587E+03 -0.24071838424E+03 -0.76298220138E+03  0.83970673824E+03  0.81310142245E+02 0.  0.
         13    1    3    3    0    0  0.32286981283E+02  0.17416148478E+02  0.12352354111E+03  0.12885587529E+03  0.00000000000E+00 0.  1.
        -13    1    3    3    0    0  0.56887528605E+02  0.23521868909E+03  0.38969683482E+03  0.45872393188E+03  0.00000000000E+00 0. -1.
          4    1    6    6  502    0  0.19444007163E+03 -0.18081567789E+03 -0.66109601986E+03  0.71242487204E+03  0.00000000000E+00 0. -1.
          3    1    5    5  503    0 -0.31076875621E+03 -0.31164741012E+02  0.60868350989E+02  0.31820342090E+03  0.00000000000E+00 0. -1.
         -4    1    5    5    0  503 -0.20085059543E+02  0.19248287688E+02  0.11131318234E+00  0.27819392272E+02  0.00000000000E+00 0.  1.
         -3    1    6    6    0  502  0.47239234238E+02 -0.59902706350E+02 -0.10188618152E+03  0.12728186620E+03  0.00000000000E+00 0.  1.
<mgrwt>
<rscale>  0 0.17632321E+04</rscale>
<asrwt>0</asrwt>
<pdfrwt beam="1">  1        2 0.12188671E+00 0.17632321E+04</pdfrwt>
<pdfrwt beam="2">  1       -2 0.15093012E+00 0.17632321E+04</pdfrwt>
<totfact> 0.97338879E+00</totfact>
</mgrwt>
</event>
<event>
12    1  0.1556559E-007  0.1995152E+04  0.7818608E-02  0.8608890E-01
         -1   -1    0    0    0  501 -0.00000000000E+00  0.00000000000E+00  0.24160474230E+04  0.24160474230E+04  0.00000000000E+00 0.  1.
          1   -1    0    0  501    0  0.00000000000E+00 -0.00000000000E+00 -0.41189513807E+03  0.41189513807E+03  0.00000000000E+00 0. -1.
         23    2    1    2    0    0  0.12061912920E+03 -0.18913958272E+03  0.18600659409E+04  0.18756778126E+04  0.89438225065E+02 0.  0.
        254    2    1    2    0    0 -0.12061912920E+03  0.18913958272E+03  0.14408634399E+03  0.95226474842E+03  0.91417969813E+03 0.  0.
        -24    2    4    4    0    0  0.25546237431E+03  0.14784214291E+03 -0.25395164364E+03  0.39742771861E+03  0.79618027505E+02 0.  0.
         24    2    4    4    0    0 -0.37608150351E+03  0.41297439816E+02  0.39803798762E+03  0.55483702981E+03  0.79165107463E+02 0.  0.
         13    1    3    3    0    0  0.35646025623E+02 -0.12363213454E+03  0.81154706844E+03  0.82168375189E+03  0.00000000000E+00 0.  1.
        -13    1    3    3    0    0  0.84973103573E+02 -0.65507448188E+02  0.10485188725E+04  0.10539940607E+04  0.00000000000E+00 0. -1.
          4    1    6    6  502    0 -0.36804314690E+03  0.53437257288E+02  0.38503571540E+03  0.53531654241E+03  0.00000000000E+00 0. -1.
          3    1    5    5  503    0  0.16310812821E+03  0.59756163529E+02 -0.17894705882E+03  0.24939348514E+03  0.00000000000E+00 0. -1.
         -4    1    5    5    0  503  0.92354246101E+02  0.88085979379E+02 -0.75004584815E+02  0.14803423347E+03  0.00000000000E+00 0.  1.
         -3    1    6    6    0  502 -0.80383566071E+01 -0.12139817472E+02  0.13002272222E+02  0.19520487395E+02  0.00000000000E+00 0.  1.
<mgrwt>
<rscale>  0 0.19951523E+04</rscale>
<asrwt>0</asrwt>
<pdfrwt beam="1">  1        1 0.63368484E-01 0.19951523E+04</pdfrwt>
<pdfrwt beam="2">  1       -1 0.37169960E+00 0.19951523E+04</pdfrwt>
<totfact> 0.59695936E-01</totfact>
</mgrwt>
</event>
<event>
12    1  0.1556559E-007  0.1739088E+04  0.7818608E-02  0.8739380E-01
          2   -1    0    0  501    0  0.00000000000E+00  0.00000000000E+00  0.99848879256E+03  0.99848879256E+03  0.00000000000E+00 0. -1.
         -2   -1    0    0    0  501 -0.00000000000E+00 -0.00000000000E+00 -0.75725102858E+03  0.75725102858E+03  0.00000000000E+00 0.  1.
         23    2    1    2    0    0 -0.22389088559E+03  0.20688737550E+03 -0.48907324597E+03  0.58177112579E+03  0.79595779374E+02 0.  0.
        254    2    1    2    0    0  0.22389088559E+03 -0.20688737550E+03  0.73031100994E+03  0.11739686953E+04  0.86713252252E+03 0.  0.
        -24    2    4    4    0    0  0.21011316128E+03  0.13166302837E+03  0.77997837774E+03  0.82256905669E+03  0.82285416134E+02 0.  0.
         24    2    4    4    0    0  0.13777724307E+02 -0.33855040387E+03 -0.49667367791E+02  0.35139963865E+03  0.78795031411E+02 0.  0.
         11    1    3    3    0    0 -0.41904317272E+02  0.75911140174E+02 -0.96942127552E+02  0.13006248153E+03  0.00000000000E+00 0. -1.
        -11    1    3    3    0    0 -0.18198656831E+03  0.13097623532E+03 -0.39213111841E+03  0.45170864425E+03  0.00000000000E+00 0.  1.
          4    1    6    6  502    0 -0.56900748830E+01 -0.99074620042E+02 -0.50025168436E+02  0.11113358973E+03  0.00000000000E+00 0. -1.
          1    1    5    5  503    0  0.96048477946E+01 -0.92299409561E+01  0.75947486115E+02  0.77106845081E+02  0.00000000000E+00 0. -1.
         -2    1    5    5    0  503  0.20050831348E+03  0.14089296933E+03  0.70403089162E+03  0.74546221161E+03  0.00000000000E+00 0.  1.
         -3    1    6    6    0  502  0.19467799190E+02 -0.23947578383E+03  0.35780064538E+00  0.24026604892E+03  0.00000000000E+00 0.  1.
<mgrwt>
<rscale>  0 0.17390879E+04</rscale>
<asrwt>0</asrwt>
<pdfrwt beam="1">  1        2 0.15361366E+00 0.17390879E+04</pdfrwt>
<pdfrwt beam="2">  1       -2 0.11650016E+00 0.17390879E+04</pdfrwt>
<totfact> 0.13681443E+01</totfact>
</mgrwt>
</event>
<event>
12    1  0.1929638E-007  0.2001122E+04  0.7818608E-02  0.8606096E-01
         -1   -1    0    0    0  501 -0.00000000000E+00  0.00000000000E+00  0.54103074430E+03  0.54103074430E+03  0.00000000000E+00 0.  1.
          1   -1    0    0  501    0  0.00000000000E+00 -0.00000000000E+00 -0.18503983958E+04  0.18503983958E+04  0.00000000000E+00 0. -1.
         23    2    1    2    0    0 -0.29553199302E+03  0.11975477495E+03 -0.13977924410E+04  0.14366863286E+04  0.92539362678E+02 0.  0.
        254    2    1    2    0    0  0.29553199302E+03 -0.11975477495E+03  0.88424789516E+02  0.95474281149E+03  0.89556380435E+03 0.  0.
        -24    2    4    4    0    0  0.40678101116E+03 -0.37508939858E+03  0.26171779165E+03  0.61727530470E+03  0.79810722031E+02 0.  0.
         24    2    4    4    0    0 -0.11124901813E+03  0.25533462363E+03 -0.17329300214E+03  0.33746750679E+03  0.79257425440E+02 0.  0.
         13    1    3    3    0    0 -0.22527415062E+03  0.12966949432E+03 -0.11443677128E+04  0.11735161195E+04  0.00000000000E+00 0. -1.
        -13    1    3    3    0    0 -0.70257842407E+02 -0.99147193646E+01 -0.25342472818E+03  0.26317020906E+03  0.00000000000E+00 0.  1.
          2    1    6    6  502    0 -0.30851179657E+02  0.33133095163E+02 -0.14591721759E+01  0.45295987292E+02  0.00000000000E+00 0. -1.
          3    1    5    5  503    0  0.75997763672E+02 -0.37951231624E+02  0.22700545632E+02  0.87927645465E+02  0.00000000000E+00 0. -1.
         -4    1    5    5    0  503  0.33078324749E+03 -0.33713816696E+03  0.23901724602E+03  0.52934765923E+03  0.00000000000E+00 0.  1.
         -1    1    6    6    0  502 -0.80397838477E+02  0.22220152847E+03 -0.17183382996E+03  0.29217151950E+03  0.00000000000E+00 0.  1.
<mgrwt>
<rscale>  0 0.20011221E+04</rscale>
<asrwt>0</asrwt>
<pdfrwt beam="1">  1        1 0.28467668E+00 0.20011221E+04</pdfrwt>
<pdfrwt beam="2">  1       -1 0.83235499E-01 0.20011221E+04</pdfrwt>
<totfact> 0.50028983E+00</totfact>
</mgrwt>
</event>
<event>
12    1  0.1556559E-007  0.1725577E+04  0.7818608E-02  0.8746910E-01
          2   -1    0    0  501    0  0.00000000000E+00  0.00000000000E+00  0.17300212289E+04  0.17300212289E+04  0.00000000000E+00 0. -1.
         -2   -1    0    0    0  501 -0.00000000000E+00 -0.00000000000E+00 -0.43028601663E+03  0.43028601663E+03  0.00000000000E+00 0.  1.
         23    2    1    2    0    0 -0.51785315756E+03  0.55118639909E+02  0.32948652149E+02  0.52806369670E+03  0.80967257779E+02 0.  0.
        254    2    1    2    0    0  0.51785315756E+03 -0.55118639909E+02  0.12667865601E+04  0.16322435489E+04  0.88784055807E+03 0.  0.
        -24    2    4    4    0    0  0.16228279689E+03  0.19499641854E+03  0.11420606637E+04  0.11727894976E+04  0.82300283284E+02 0.  0.
         24    2    4    4    0    0  0.35557036067E+03 -0.25011505845E+03  0.12472589642E+03  0.45945405126E+03  0.80954630094E+02 0.  0.
         13    1    3    3    0    0 -0.33744775049E+01 -0.70016562706E+00  0.94206474669E+01  0.10031247631E+02  0.00000000000E+00 0. -1.
        -13    1    3    3    0    0 -0.51447868006E+03  0.55818805536E+02  0.23528004683E+02  0.51803244907E+03  0.00000000000E+00 0.  1.
          4    1    6    6  502    0  0.13948942741E+03 -0.14743174788E+03  0.57751048198E+02  0.21101801869E+03  0.00000000000E+00 0. -1.
          1    1    5    5  503    0  0.50206071187E+02  0.95060607464E+02  0.33335457494E+03  0.35026053348E+03  0.00000000000E+00 0. -1.
         -2    1    5    5    0  503  0.11207672571E+03  0.99935811076E+02  0.80870608878E+03  0.82252896412E+03  0.00000000000E+00 0.  1.
         -3    1    6    6    0  502  0.21608093326E+03 -0.10268331057E+03  0.66974848224E+02  0.24843603257E+03  0.00000000000E+00 0.  1.
<mgrwt>
<rscale>  0 0.17255769E+04</rscale>
<asrwt>0</asrwt>
<pdfrwt beam="1">  1        2 0.26615711E+00 0.17255769E+04</pdfrwt>
<pdfrwt beam="2">  1       -2 0.66197850E-01 0.17255769E+04</pdfrwt>
<totfact> 0.18807157E+01</totfact>
</mgrwt>
</event>
<event>
12    1  0.1751613E-007  0.3278824E+04  0.7818608E-02  0.8168305E-01
          2   -1    0    0  501    0  0.00000000000E+00  0.00000000000E+00  0.18979522418E+04  0.18979522418E+04  0.00000000000E+00 0. -1.
         -2   -1    0    0    0  501 -0.00000000000E+00 -0.00000000000E+00 -0.14160904292E+04  0.14160904292E+04  0.00000000000E+00 0.  1.
         23    2    1    2    0    0  0.54765772103E+03  0.31414857965E+03 -0.11649387917E+04  0.13281420972E+04  0.90888571584E+02 0.  0.
        254    2    1    2    0    0 -0.54765772103E+03 -0.31414857965E+03  0.16468006043E+04  0.19859005738E+04  0.91281463042E+03 0.  0.
        -24    2    4    4    0    0 -0.80723579177E+02 -0.31127908706E+03  0.14259683122E+04  0.14638561174E+04  0.77962419141E+02 0.  0.
         24    2    4    4    0    0 -0.46693414186E+03 -0.28694925851E+01  0.22083229209E+03  0.52204445646E+03  0.75682141085E+02 0.  0.
         11    1    3    3    0    0  0.74754177492E+02  0.62297162389E+02 -0.24397610884E+03  0.26266607162E+03  0.00000000000E+00 0. -1.
        -11    1    3    3    0    0  0.47290354354E+03  0.25185141726E+03 -0.92096268282E+03  0.10654760255E+04  0.00000000000E+00 0.  1.
          2    1    6    6  502    0 -0.62073212480E+02  0.13900273402E+02  0.73329110625E+01  0.64031811569E+02  0.00000000000E+00 0. -1.
          3    1    5    5  503    0 -0.23872153477E+02 -0.37264775731E+02  0.11219828449E+03  0.12061093758E+03  0.00000000000E+00 0. -1.
         -4    1    5    5    0  503 -0.56851425700E+02 -0.27401431133E+03  0.13137700277E+04  0.13432451798E+04  0.00000000000E+00 0.  1.
         -1    1    6    6    0  502 -0.40486092938E+03 -0.16769765987E+02  0.21349938102E+03  0.45801264490E+03  0.00000000000E+00 0.  1.
<mgrwt>
<rscale>  0 0.32788242E+04</rscale>
<asrwt>0</asrwt>
<pdfrwt beam="1">  1        2 0.29199265E+00 0.32788242E+04</pdfrwt>
<pdfrwt beam="2">  1       -2 0.21786007E+00 0.32788242E+04</pdfrwt>
<totfact> 0.64961527E-01</totfact>
</mgrwt>
</event>
<event>
12    1  0.1556559E-007  0.1447497E+04  0.7818608E-02  0.8920137E-01
         -1   -1    0    0    0  501 -0.00000000000E+00  0.00000000000E+00  0.29271747626E+03  0.29271747626E+03  0.00000000000E+00 0.  1.
          1   -1    0    0  501    0  0.00000000000E+00 -0.00000000000E+00 -0.17894801213E+04  0.17894801213E+04  0.00000000000E+00 0. -1.
         23    2    1    2    0    0  0.28016619400E+03 -0.21122433642E+03 -0.90549137352E+02  0.37404974379E+03  0.92764475969E+02 0.  0.
        254    2    1    2    0    0 -0.28016619400E+03  0.21122433642E+03 -0.14062135077E+04  0.17081478538E+04  0.90400433881E+03 0.  0.
        -24    2    4    4    0    0  0.25962621205E+03 -0.91935457653E+02 -0.74926515001E+03  0.80230313778E+03  0.80213225272E+02 0.  0.
         24    2    4    4    0    0 -0.53979240604E+03  0.30315979407E+03 -0.65694835771E+03  0.90584471603E+03  0.75444035453E+02 0.  0.
         13    1    3    3    0    0  0.18065325176E+03 -0.15564768754E+03 -0.18427971436E+02  0.23916812108E+03  0.00000000000E+00 0.  1.
        -13    1    3    3    0    0  0.99512942238E+02 -0.55576648876E+02 -0.72121165916E+02  0.13488162272E+03  0.00000000000E+00 0. -1.
          2    1    6    6  502    0 -0.43365162906E+03  0.20891988142E+03 -0.49379877798E+03  0.68959298530E+03  0.00000000000E+00 0. -1.
          3    1    5    5  503    0  0.11396218106E+03 -0.75927041568E+01 -0.37323635535E+03  0.39032089980E+03  0.00000000000E+00 0. -1.
         -4    1    5    5    0  503  0.14566403099E+03 -0.84342753496E+02 -0.37602879466E+03  0.41198223798E+03  0.00000000000E+00 0.  1.
         -1    1    6    6    0  502 -0.10614077698E+03  0.94239912648E+02 -0.16314957973E+03  0.21625173072E+03  0.00000000000E+00 0.  1.
<mgrwt>
<rscale>  0 0.14474973E+04</rscale>
<asrwt>0</asrwt>
<pdfrwt beam="1">  1        1 0.27530464E+00 0.14474973E+04</pdfrwt>
<pdfrwt beam="2">  1       -1 0.45033456E-01 0.14474973E+04</pdfrwt>
<totfact> 0.19681658E+01</totfact>
</mgrwt>
</event>
<event>
12    1  0.1556559E-007  0.1185693E+04  0.7818608E-02  0.9125473E-01
          2   -1    0    0  501    0  0.00000000000E+00  0.00000000000E+00  0.28054678415E+03  0.28054678415E+03  0.00000000000E+00 0. -1.
         -2   -1    0    0    0  501 -0.00000000000E+00 -0.00000000000E+00 -0.12527923819E+04  0.12527923819E+04  0.00000000000E+00 0.  1.
         23    2    1    2    0    0  0.50197918557E+02 -0.26875925195E+03 -0.20628871867E+03  0.35472721060E+03  0.92330882950E+02 0.  0.
        254    2    1    2    0    0 -0.50197918557E+02  0.26875925195E+03 -0.76595687910E+03  0.11786119555E+04  0.85304445044E+03 0.  0.
        -24    2    4    4    0    0 -0.43032159892E+03  0.26577949839E+02 -0.35284675453E+03  0.56253781173E+03  0.77877413496E+02 0.  0.
         24    2    4    4    0    0  0.38012368036E+03  0.24218130212E+03 -0.41311012457E+03  0.61607414375E+03  0.75773214959E+02 0.  0.
         11    1    3    3    0    0  0.19438522575E+02 -0.29236725698E+02 -0.67786120756E+02  0.76338721869E+02  0.00000000000E+00 0.  1.
        -11    1    3    3    0    0  0.30759395983E+02 -0.23952252626E+03 -0.13850259792E+03  0.27838848873E+03  0.00000000000E+00 0. -1.
          4    1    6    6  502    0  0.28626362588E+03  0.21707888635E+03 -0.33798789149E+03  0.49326050034E+03  0.00000000000E+00 0. -1.
          3    1    5    5  503    0 -0.19866622511E+03 -0.94656007002E+01 -0.20358121037E+03  0.28461056869E+03  0.00000000000E+00 0. -1.
         -4    1    5    5    0  503 -0.23165537381E+03  0.36043550539E+02 -0.14926554416E+03  0.27792724304E+03  0.00000000000E+00 0.  1.
         -3    1    6    6    0  502  0.93860054478E+02  0.25102415769E+02 -0.75122233079E+02  0.12281364341E+03  0.00000000000E+00 0.  1.
<mgrwt>
<rscale>  0 0.11856928E+04</rscale>
<asrwt>0</asrwt>
<pdfrwt beam="1">  1        2 0.43161044E-01 0.11856928E+04</pdfrwt>
<pdfrwt beam="2">  1       -2 0.19273729E+00 0.11856928E+04</pdfrwt>
<totfact> 0.17351169E+01</totfact>
</mgrwt>
</event>
<event>
12    1  0.1556559E-007  0.1194739E+04  0.7818608E-02  0.9117474E-01
          2   -1    0    0  501    0  0.00000000000E+00  0.00000000000E+00  0.48855374720E+03  0.48855374720E+03  0.00000000000E+00 0. -1.
         -2   -1    0    0    0  501 -0.00000000000E+00 -0.00000000000E+00 -0.73042190570E+03  0.73042190570E+03  0.00000000000E+00 0.  1.
         23    2    1    2    0    0 -0.22919924119E+03 -0.45900849701E+02 -0.14892912677E+03  0.29454684265E+03  0.99693417776E+02 0.  0.
        254    2    1    2    0    0  0.22919924119E+03  0.45900849701E+02 -0.92939031737E+02  0.92442881024E+03  0.88954582874E+03 0.  0.
        -24    2    4    4    0    0 -0.12140328185E+03  0.23430586978E+03 -0.34856724770E+03  0.44455714319E+03  0.80584923727E+02 0.  0.
         24    2    4    4    0    0  0.35060252305E+03 -0.18840502008E+03  0.25562821597E+03  0.47987166705E+03  0.80699760104E+02 0.  0.
         13    1    3    3    0    0 -0.13624998555E+03 -0.30978179800E+02 -0.14344110132E+03  0.20024748621E+03  0.00000000000E+00 0.  1.
        -13    1    3    3    0    0 -0.92949255640E+02 -0.14922669901E+02 -0.54880254484E+01  0.94299356436E+02  0.00000000000E+00 0. -1.
          2    1    6    6  502    0  0.34532574154E+03 -0.19582243378E+03  0.25074601392E+03  0.46954217791E+03  0.00000000000E+00 0. -1.
          1    1    5    5  503    0 -0.93983339984E+02  0.22400025268E+03 -0.28441265430E+03  0.37403146836E+03  0.00000000000E+00 0. -1.
         -2    1    5    5    0  503 -0.27419941870E+02  0.10305617100E+02 -0.64154593404E+02  0.70525674834E+02  0.00000000000E+00 0.  1.
         -1    1    6    6    0  502  0.52767815071E+01  0.74174136983E+01  0.48822020485E+01  0.10329489140E+02  0.00000000000E+00 0.  1.
<mgrwt>
<rscale>  0 0.11947391E+04</rscale>
<asrwt>0</asrwt>
<pdfrwt beam="1">  1        2 0.75162115E-01 0.11947391E+04</pdfrwt>
<pdfrwt beam="2">  1       -2 0.11237260E+00 0.11947391E+04</pdfrwt>
<totfact> 0.38950442E+01</totfact>
</mgrwt>
</event>
<event>
12    1  0.1556559E-007  0.3537650E+04  0.7818608E-02  0.8104925E-01
          2   -1    0    0  501    0  0.00000000000E+00  0.00000000000E+00  0.13556143627E+04  0.13556143627E+04  0.00000000000E+00 0. -1.
         -2   -1    0    0    0  501 -0.00000000000E+00 -0.00000000000E+00 -0.23079877536E+04  0.23079877536E+04  0.00000000000E+00 0.  1.
         23    2    1    2    0    0 -0.84079856353E+03 -0.26345289524E+03 -0.18948429199E+04  0.20916584237E+04  0.90860429260E+02 0.  0.
        254    2    1    2    0    0  0.84079856353E+03  0.26345289524E+03  0.94246952905E+03  0.15719436927E+04  0.89800250967E+03 0.  0.
        -24    2    4    4    0    0 -0.32129954170E+02 -0.22133829753E+03  0.29843050835E+03  0.38136173292E+03  0.79705878803E+02 0.  0.
         24    2    4    4    0    0  0.87292851770E+03  0.48479119276E+03  0.64403902070E+03  0.11905819598E+04  0.75315636864E+02 0.  0.
         13    1    3    3    0    0 -0.39531901383E+03 -0.11721488705E+03 -0.99326596264E+03  0.10754504754E+04  0.00000000000E+00 0. -1.
        -13    1    3    3    0    0 -0.44547954971E+03 -0.14623800819E+03 -0.90157695731E+03  0.10162079483E+04  0.00000000000E+00 0.  1.
          2    1    6    6  502    0  0.76987164988E+03  0.42221724993E+03  0.59369926593E+03  0.10599285739E+04  0.00000000000E+00 0. -1.
          3    1    5    5  503    0 -0.21570116972E+02 -0.21328592682E+03  0.29918622740E+03  0.36806053196E+03  0.00000000000E+00 0. -1.
         -4    1    5    5    0  503 -0.10559837198E+02 -0.80523707094E+01 -0.75571904663E+00  0.13301200959E+02  0.00000000000E+00 0.  1.
         -1    1    6    6    0  502  0.10305686782E+03  0.62573942830E+02  0.50339754766E+02  0.13065338586E+03  0.00000000000E+00 0.  1.
<mgrwt>
<rscale>  0 0.35376497E+04</rscale>
<asrwt>0</asrwt>
<pdfrwt beam="1">  1        2 0.20855606E+00 0.35376497E+04</pdfrwt>
<pdfrwt beam="2">  1       -2 0.35507504E+00 0.35376497E+04</pdfrwt>
<totfact> 0.18158987E-01</totfact>
</mgrwt>
</event>
<event>
12    1  0.1556559E-007  0.1463578E+04  0.7818608E-02  0.8909041E-01
         -2   -1    0    0    0  501 -0.00000000000E+00  0.00000000000E+00  0.13287021258E+04  0.13287021258E+04  0.00000000000E+00 0.  1.
          2   -1    0    0  501    0  0.00000000000E+00 -0.00000000000E+00 -0.40303617783E+03  0.40303617783E+03  0.00000000000E+00 0. -1.
         23    2    1    2    0    0  0.10693544360E+03 -0.38053208915E+03  0.54258212438E+03  0.67751896182E+03  0.91633628965E+02 0.  0.
        254    2    1    2    0    0 -0.10693544360E+03  0.38053208915E+03  0.38308382363E+03  0.10542193419E+04  0.89910252187E+03 0.  0.
        -24    2    4    4    0    0 -0.39853721971E+03 -0.79760109395E+02  0.67072141718E+02  0.41929262734E+03  0.78192356419E+02 0.  0.
         24    2    4    4    0    0  0.29160177611E+03  0.46029219854E+03  0.31601168191E+03  0.63492671451E+03  0.79800036507E+02 0.  0.
         13    1    3    3    0    0  0.90773877933E+02 -0.34567980396E+03  0.52539510776E+03  0.63543248504E+03  0.00000000000E+00 0.  1.
        -13    1    3    3    0    0  0.16161565670E+02 -0.34852285187E+02  0.17187016620E+02  0.42086476783E+02  0.00000000000E+00 0. -1.
          2    1    6    6  502    0  0.51093554461E+02  0.87653217504E+02  0.25095008859E+02  0.10451505784E+03  0.00000000000E+00 0. -1.
          3    1    5    5  503    0 -0.19419270366E+03 -0.24671861489E+01  0.47573085211E+02  0.19995022281E+03  0.00000000000E+00 0. -1.
         -2    1    5    5    0  503 -0.20434451605E+03 -0.77292923246E+02  0.19499056506E+02  0.21934240453E+03  0.00000000000E+00 0.  1.
         -1    1    6    6    0  502  0.24050822165E+03  0.37263898104E+03  0.29091667305E+03  0.53041165667E+03  0.00000000000E+00 0.  1.
<mgrwt>
<rscale>  0 0.14635778E+04</rscale>
<asrwt>0</asrwt>
<pdfrwt beam="1">  1        2 0.62005566E-01 0.14635778E+04</pdfrwt>
<pdfrwt beam="2">  1       -2 0.20441571E+00 0.14635778E+04</pdfrwt>
<totfact> 0.94965993E+00</totfact>
</mgrwt>
</event>
<event>
12    1  0.1556559E-007  0.1335893E+04  0.7818608E-02  0.9001576E-01
          1   -1    0    0  501    0  0.00000000000E+00  0.00000000000E+00  0.98109819347E+03  0.98109819347E+03  0.00000000000E+00 0. -1.
         -1   -1    0    0    0  501 -0.00000000000E+00 -0.00000000000E+00 -0.45474814225E+03  0.45474814225E+03  0.00000000000E+00 0.  1.
         23    2    1    2    0    0 -0.28635195086E+03 -0.13073571212E+03 -0.34280654838E+02  0.33008486165E+03  0.93228678059E+02 0.  0.
        254    2    1    2    0    0  0.28635195086E+03  0.13073571212E+03  0.56063070606E+03  0.11057614741E+04  0.89961790931E+03 0.  0.
        -24    2    4    4    0    0 -0.25693316625E+03 -0.71607046950E+02  0.42053423602E+03  0.50389806843E+03  0.76954523029E+02 0.  0.
         24    2    4    4    0    0  0.54328511711E+03  0.20234275907E+03  0.14009647004E+03  0.60186340563E+03  0.80692177433E+02 0.  0.
         11    1    3    3    0    0 -0.42780713770E+02 -0.60195089283E+02 -0.17835283396E+02  0.75971939414E+02  0.00000000000E+00 0. -1.
        -11    1    3    3    0    0 -0.24357123709E+03 -0.70540622833E+02 -0.16445371442E+02  0.25411292224E+03  0.00000000000E+00 0.  1.
          2    1    6    6  502    0  0.23466824108E+03  0.50336538069E+02  0.77386712014E+02  0.25217385597E+03  0.00000000000E+00 0. -1.
          1    1    5    5  503    0 -0.10748067901E+03  0.76303671620E+01  0.14649964835E+03  0.18185836750E+03  0.00000000000E+00 0. -1.
         -2    1    5    5    0  503 -0.14945248723E+03 -0.79237414112E+02  0.27403458766E+03  0.32203970093E+03  0.00000000000E+00 0.  1.
         -1    1    6    6    0  502  0.30861687602E+03  0.15200622100E+03  0.62709758027E+02  0.34968954966E+03  0.00000000000E+00 0.  1.
<mgrwt>
<rscale>  0 0.13358931E+04</rscale>
<asrwt>0</asrwt>
<pdfrwt beam="1">  1        1 0.15093818E+00 0.13358931E+04</pdfrwt>
<pdfrwt beam="2">  1       -1 0.69961253E-01 0.13358931E+04</pdfrwt>
<totfact> 0.31697086E+01</totfact>
</mgrwt>
</event>
<event>
12    1  0.1556559E-007  0.1527447E+04  0.7818608E-02  0.8866403E-01
          1   -1    0    0  501    0  0.00000000000E+00  0.00000000000E+00  0.12312264435E+04  0.12312264435E+04  0.00000000000E+00 0. -1.
         -1   -1    0    0    0  501 -0.00000000000E+00 -0.00000000000E+00 -0.47373373067E+03  0.47373373067E+03  0.00000000000E+00 0.  1.
         23    2    1    2    0    0 -0.25673507271E+03 -0.34885265236E+03  0.50058402402E+03  0.66821146571E+03  0.91165383714E+02 0.  0.
        254    2    1    2    0    0  0.25673507271E+03  0.34885265236E+03  0.25690868881E+03  0.10367487085E+04  0.90622002819E+03 0.  0.
        -24    2    4    4    0    0 -0.33119815218E+02  0.57794767254E+03  0.30137053370E+03  0.65751025147E+03  0.79844209953E+02 0.  0.
         24    2    4    4    0    0  0.28985488792E+03 -0.22909502017E+03 -0.44461844884E+02  0.37923845699E+03  0.73106547511E+02 0.  0.
         13    1    3    3    0    0 -0.22920968542E+03 -0.33424702952E+03  0.42915455000E+03  0.59028110627E+03  0.00000000000E+00 0. -1.
        -13    1    3    3    0    0 -0.27525387283E+02 -0.14605622839E+02  0.71429474019E+02  0.77930359439E+02  0.00000000000E+00 0.  1.
          2    1    6    6  502    0  0.12442961163E+03 -0.12414154780E+03 -0.51644921371E+02  0.18319675228E+03  0.00000000000E+00 0. -1.
          3    1    5    5  503    0 -0.30288740995E+02  0.56213914762E+03  0.30606814204E+03  0.64077729102E+03  0.00000000000E+00 0. -1.
         -4    1    5    5    0  503 -0.28310742235E+01  0.15808524919E+02 -0.46976083452E+01  0.16732960453E+02  0.00000000000E+00 0.  1.
         -1    1    6    6    0  502  0.16542527629E+03 -0.10495347237E+03  0.71830764872E+01  0.19604170471E+03  0.00000000000E+00 0.  1.
<mgrwt>
<rscale>  0 0.15274469E+04</rscale>
<asrwt>0</asrwt>
<pdfrwt beam="1">  1        1 0.18941945E+00 0.15274469E+04</pdfrwt>
<pdfrwt beam="2">  1       -1 0.72882113E-01 0.15274469E+04</pdfrwt>
<totfact> 0.18576783E+01</totfact>
</mgrwt>
</event>
<event>
12    1  0.1556559E-007  0.2767267E+04  0.7818608E-02  0.8313503E-01
         -1   -1    0    0    0  501 -0.00000000000E+00  0.00000000000E+00  0.78517329976E+03  0.78517329976E+03  0.00000000000E+00 0.  1.
          1   -1    0    0  501    0  0.00000000000E+00 -0.00000000000E+00 -0.24382403930E+04  0.24382403930E+04  0.00000000000E+00 0. -1.
         23    2    1    2    0    0 -0.10427375864E+04 -0.65657041432E+03 -0.64304575279E+03  0.13927721650E+04  0.88994833437E+02 0.  0.
        254    2    1    2    0    0  0.10427375864E+04  0.65657041432E+03 -0.10100213404E+04  0.18306415277E+04  0.90150924114E+03 0.  0.
        -24    2    4    4    0    0  0.10832183854E+04  0.36261121182E+03 -0.10042285685E+04  0.15234049488E+04  0.86247660216E+02 0.  0.
         24    2    4    4    0    0 -0.40480798969E+02  0.29395920250E+03 -0.57927719840E+01  0.30723657896E+03  0.79435832116E+02 0.  0.
         11    1    3    3    0    0 -0.62661308802E+03 -0.36014232332E+03 -0.41351149505E+03  0.83266932912E+03  0.00000000000E+00 0. -1.
        -11    1    3    3    0    0 -0.41612449839E+03 -0.29642809100E+03 -0.22953425774E+03  0.56010283589E+03  0.00000000000E+00 0.  1.
          4    1    6    6  502    0  0.24162769776E+02  0.88866248993E+02 -0.42779014935E+01  0.92191919898E+02  0.00000000000E+00 0. -1.
          1    1    5    5  503    0  0.36485703508E+03  0.14778628399E+03 -0.30243309711E+03  0.49641436322E+03  0.00000000000E+00 0. -1.
         -2    1    5    5    0  503  0.71836135030E+03  0.21482492783E+03 -0.70179547136E+03  0.10269905856E+04  0.00000000000E+00 0.  1.
         -3    1    6    6    0  502 -0.64643568744E+02  0.20509295351E+03 -0.15148704905E+01  0.21504465906E+03  0.00000000000E+00 0.  1.
<mgrwt>
<rscale>  0 0.27672667E+04</rscale>
<asrwt>0</asrwt>
<pdfrwt beam="1">  1        1 0.37511390E+00 0.27672667E+04</pdfrwt>
<pdfrwt beam="2">  1       -1 0.12079589E+00 0.27672667E+04</pdfrwt>
<totfact> 0.79023745E-01</totfact>
</mgrwt>
</event>
<event>
12    1  0.1556559E-007  0.1939693E+04  0.7818608E-02  0.8635347E-01
         -2   -1    0    0    0  501 -0.00000000000E+00  0.00000000000E+00  0.49346080416E+03  0.49346080416E+03  0.00000000000E+00 0.  1.
          2   -1    0    0  501    0  0.00000000000E+00 -0.00000000000E+00 -0.19061334657E+04  0.19061334657E+04  0.00000000000E+00 0. -1.
         23    2    1    2    0    0  0.49166317302E+03 -0.46364383192E+02  0.15645200373E+03  0.52593556848E+03  0.90822139278E+02 0.  0.
        254    2    1    2    0    0 -0.49166317302E+03  0.46364383192E+02 -0.15691246653E+04  0.18736587014E+04  0.89697401431E+03 0.  0.
        -24    2    4    4    0    0  0.68480228621E+02 -0.32691078107E+03 -0.60029367757E+03  0.69159219239E+03  0.79919088784E+02 0.  0.
         24    2    4    4    0    0 -0.56014340164E+03  0.37327516427E+03 -0.96883098772E+03  0.11820665090E+04  0.74516912722E+02 0.  0.
         13    1    3    3    0    0  0.27128857522E+03 -0.59307061280E+02  0.55472660725E+02  0.28318198151E+03  0.00000000000E+00 0.  1.
        -13    1    3    3    0    0  0.22037459780E+03  0.12942678088E+02  0.10097934301E+03  0.24275358697E+03  0.00000000000E+00 0. -1.
          4    1    6    6  502    0 -0.99634141106E+02  0.39889265353E+02 -0.18295150557E+03  0.21210697526E+03  0.00000000000E+00 0. -1.
          3    1    5    5  503    0 -0.10811537940E+02 -0.39322134051E+02 -0.41682002945E+02  0.58313882982E+02  0.00000000000E+00 0. -1.
         -4    1    5    5    0  503  0.79291766561E+02 -0.28758864702E+03 -0.55861167462E+03  0.63327830941E+03  0.00000000000E+00 0.  1.
         -3    1    6    6    0  502 -0.46050926053E+03  0.33338589891E+03 -0.78587948215E+03  0.96995953374E+03  0.00000000000E+00 0.  1.
<mgrwt>
<rscale>  0 0.19396929E+04</rscale>
<asrwt>0</asrwt>
<pdfrwt beam="1">  1        2 0.29325130E+00 0.19396929E+04</pdfrwt>
<pdfrwt beam="2">  1       -2 0.75917047E-01 0.19396929E+04</pdfrwt>
<totfact> 0.10931297E+01</totfact>
</mgrwt>
</event>
<event>
12    1  0.1556559E-007  0.1925216E+04  0.7818608E-02  0.8642405E-01
          2   -1    0    0  501    0  0.00000000000E+00  0.00000000000E+00  0.65199142975E+03  0.65199142975E+03  0.00000000000E+00 0. -1.
         -2   -1    0    0    0  501 -0.00000000000E+00 -0.00000000000E+00 -0.14212065704E+04  0.14212065704E+04  0.00000000000E+00 0.  1.
         23    2    1    2    0    0  0.57533792860E+03  0.10775068712E+03 -0.78869627372E+03  0.98625671684E+03  0.89646844173E+02 0.  0.
        254    2    1    2    0    0 -0.57533792860E+03 -0.10775068712E+03  0.19481133079E+02  0.10869412833E+04  0.91566254490E+03 0.  0.
        -24    2    4    4    0    0 -0.76439683740E+03  0.88997902111E+02 -0.93154612242E+02  0.77928356278E+03  0.79887031669E+02 0.  0.
         24    2    4    4    0    0  0.18905890880E+03 -0.19674858923E+03  0.11263574532E+03  0.30765772052E+03  0.86678622005E+02 0.  0.
         13    1    3    3    0    0  0.26379798857E+03  0.49505720407E+01 -0.33710374657E+03  0.42808039302E+03  0.00000000000E+00 0. -1.
        -13    1    3    3    0    0  0.31153994003E+03  0.10280011507E+03 -0.45159252715E+03  0.55817632382E+03  0.00000000000E+00 0.  1.
          2    1    6    6  502    0  0.39378296571E+01  0.86836635074E+01  0.60475453551E+01  0.11290939693E+02  0.00000000000E+00 0. -1.
          3    1    5    5  503    0 -0.41010207603E+03  0.87729364377E+02 -0.53145418321E+02  0.42273465629E+03  0.00000000000E+00 0. -1.
         -4    1    5    5    0  503 -0.35429476137E+03  0.12685377342E+01 -0.40009193920E+02  0.35654890649E+03  0.00000000000E+00 0.  1.
         -1    1    6    6    0  502  0.18512107914E+03 -0.20543225273E+03  0.10658819997E+03  0.29636678083E+03  0.00000000000E+00 0.  1.
<mgrwt>
<rscale>  0 0.19252164E+04</rscale>
<asrwt>0</asrwt>
<pdfrwt beam="1">  1        2 0.10030637E+00 0.19252164E+04</pdfrwt>
<pdfrwt beam="2">  1       -2 0.21864716E+00 0.19252164E+04</pdfrwt>
<totfact> 0.42179007E+00</totfact>
</mgrwt>
</event>
<event>
12    1  0.1556559E-007  0.1688622E+04  0.7818608E-02  0.8767881E-01
         -2   -1    0    0    0  501 -0.00000000000E+00  0.00000000000E+00  0.10348864389E+04  0.10348864389E+04  0.00000000000E+00 0.  1.
          2   -1    0    0  501    0  0.00000000000E+00 -0.00000000000E+00 -0.68882986923E+03  0.68882986923E+03  0.00000000000E+00 0. -1.
         23    2    1    2    0    0  0.49511377171E+03  0.25964604755E+03 -0.93092309060E+02  0.57341039866E+03  0.87060842742E+02 0.  0.
        254    2    1    2    0    0 -0.49511377171E+03 -0.25964604755E+03  0.43914887875E+03  0.11503059095E+04  0.90432197294E+03 0.  0.
        -24    2    4    4    0    0  0.88515351598E+02  0.21931938508E+03 -0.39135573005E+02  0.25262697868E+03  0.79704687103E+02 0.  0.
         24    2    4    4    0    0 -0.58362912331E+03 -0.47896543262E+03  0.47828445175E+03  0.89767893080E+03  0.83908323723E+02 0.  0.
         13    1    3    3    0    0  0.43790192962E+02  0.40078835639E+02  0.12157125910E+02  0.60594469849E+02  0.00000000000E+00 0. -1.
        -13    1    3    3    0    0  0.45132357875E+03  0.21956721191E+03 -0.10524943497E+03  0.51281592881E+03  0.00000000000E+00 0.  1.
          2    1    6    6  502    0 -0.32967133410E+03 -0.27753270176E+03  0.32122762869E+03  0.53748932874E+03  0.00000000000E+00 0. -1.
          3    1    5    5  503    0  0.49308244123E+01 -0.57270243993E+01 -0.72124299589E+01  0.10446577610E+02  0.00000000000E+00 0. -1.
         -2    1    5    5    0  503  0.83584527186E+02  0.22504640948E+03 -0.31923143046E+02  0.24218040107E+03  0.00000000000E+00 0.  1.
         -1    1    6    6    0  502 -0.25395778921E+03 -0.20143273086E+03  0.15705682307E+03  0.36018960206E+03  0.00000000000E+00 0.  1.
<mgrwt>
<rscale>  0 0.16886216E+04</rscale>
<asrwt>0</asrwt>
<pdfrwt beam="1">  1        2 0.10597383E+00 0.16886216E+04</pdfrwt>
<pdfrwt beam="2">  1       -2 0.15921330E+00 0.16886216E+04</pdfrwt>
<totfact> 0.10160431E+01</totfact>
</mgrwt>
</event>
<event>
12    1  0.1556559E-007  0.1252735E+04  0.7818608E-02  0.9067910E-01
          2   -1    0    0  501    0  0.00000000000E+00  0.00000000000E+00  0.97087486571E+03  0.97087486571E+03  0.00000000000E+00 0. -1.
         -2   -1    0    0    0  501 -0.00000000000E+00 -0.00000000000E+00 -0.40410584223E+03  0.40410584223E+03  0.00000000000E+00 0.  1.
         23    2    1    2    0    0  0.12684657666E+03  0.19223384493E+03  0.30916932503E+03  0.39537941487E+03  0.87722887637E+02 0.  0.
        254    2    1    2    0    0 -0.12684657666E+03 -0.19223384493E+03  0.25759969845E+03  0.97960129307E+03  0.91663361470E+03 0.  0.
        -24    2    4    4    0    0  0.80179718722E+02  0.29075596871E+03  0.31716224855E+03  0.44478461114E+03  0.79206298790E+02 0.  0.
         24    2    4    4    0    0 -0.20702629539E+03 -0.48298981364E+03 -0.59562550097E+02  0.53481668193E+03  0.79637546670E+02 0.  0.
         11    1    3    3    0    0  0.34474471083E+02  0.31387658410E+02  0.17644827967E+02  0.49849916860E+02  0.00000000000E+00 0.  1.
        -11    1    3    3    0    0  0.92372105581E+02  0.16084618652E+03  0.29152449706E+03  0.34552949801E+03  0.00000000000E+00 0. -1.
          2    1    6    6  502    0 -0.16907767751E+03 -0.29817225823E+03 -0.35184942154E+02  0.34457500891E+03  0.00000000000E+00 0. -1.
          3    1    5    5  503    0  0.70076724514E+02  0.12896741556E+03  0.18136935025E+03  0.23331991515E+03  0.00000000000E+00 0. -1.
         -4    1    5    5    0  503  0.10102994208E+02  0.16178855315E+03  0.13579289829E+03  0.21146469599E+03  0.00000000000E+00 0.  1.
         -1    1    6    6    0  502 -0.37948617877E+02 -0.18481755541E+03 -0.24377607943E+02  0.19024167303E+03  0.00000000000E+00 0.  1.
<mgrwt>
<rscale>  0 0.12527349E+04</rscale>
<asrwt>0</asrwt>
<pdfrwt beam="1">  1        2 0.14936536E+00 0.12527349E+04</pdfrwt>
<pdfrwt beam="2">  1       -2 0.62170130E-01 0.12527349E+04</pdfrwt>
<totfact> 0.62137362E+01</totfact>
</mgrwt>
</event>
<event>
12    1  0.1556559E-007  0.1720181E+04  0.7818608E-02  0.8749937E-01
          1   -1    0    0  501    0  0.00000000000E+00  0.00000000000E+00  0.71507117959E+03  0.71507117959E+03  0.00000000000E+00 0. -1.
         -1   -1    0    0    0  501 -0.00000000000E+00 -0.00000000000E+00 -0.10345204811E+04  0.10345204811E+04  0.00000000000E+00 0.  1.
         23    2    1    2    0    0  0.47582187250E+03 -0.30543421395E+03 -0.37208302681E+03  0.68331718211E+03  0.93702076449E+02 0.  0.
        254    2    1    2    0    0 -0.47582187250E+03  0.30543421395E+03  0.52633725269E+02  0.10662744786E+04  0.90248237728E+03 0.  0.
        -24    2    4    4    0    0  0.60877340602E+02 -0.16804695789E+03 -0.22213271970E+03  0.29555605608E+03  0.77875583270E+02 0.  0.
         24    2    4    4    0    0 -0.53669921310E+03  0.47348117184E+03  0.27476644497E+03  0.77071842253E+03  0.79245328614E+02 0.  0.
         13    1    3    3    0    0  0.47474020635E+03 -0.28806077357E+03 -0.35598852110E+03  0.65960980887E+03  0.00000000000E+00 0.  1.
        -13    1    3    3    0    0  0.10816661466E+01 -0.17373440376E+02 -0.16094505707E+02  0.23707373243E+02  0.00000000000E+00 0. -1.
          2    1    6    6  502    0 -0.17755803903E+03  0.13095495703E+03  0.11832030538E+03  0.25035125855E+03  0.00000000000E+00 0. -1.
          1    1    5    5  503    0 -0.54631420535E+01 -0.56097098016E+02 -0.11074990414E+03  0.12426693685E+03  0.00000000000E+00 0. -1.
         -2    1    5    5    0  503  0.66340482656E+02 -0.11194985987E+03 -0.11138281556E+03  0.17128911923E+03  0.00000000000E+00 0.  1.
         -1    1    6    6    0  502 -0.35914117408E+03  0.34252621481E+03  0.15644613959E+03  0.52036716398E+03  0.00000000000E+00 0.  1.
<mgrwt>
<rscale>  0 0.17201811E+04</rscale>
<asrwt>0</asrwt>
<pdfrwt beam="1">  1        1 0.11001095E+00 0.17201811E+04</pdfrwt>
<pdfrwt beam="2">  1       -1 0.15915700E+00 0.17201811E+04</pdfrwt>
<totfact> 0.74301485E+00</totfact>
</mgrwt>
</event>
<event>
12    1  0.1556559E-007  0.2117372E+04  0.7818608E-02  0.8553629E-01
         -2   -1    0    0    0  501 -0.00000000000E+00  0.00000000000E+00  0.66436584232E+03  0.66436584232E+03  0.00000000000E+00 0.  1.
          2   -1    0    0  501    0  0.00000000000E+00 -0.00000000000E+00 -0.16870465217E+04  0.16870465217E+04  0.00000000000E+00 0. -1.
         23    2    1    2    0    0 -0.84514575823E+03 -0.12343362839E+03 -0.28176905432E+03  0.90390327040E+03  0.90222552513E+02 0.  0.
        254    2    1    2    0    0  0.84514575823E+03  0.12343362839E+03 -0.74091162506E+03  0.14475090936E+04  0.90378389382E+03 0.  0.
        -24    2    4    4    0    0  0.93514005136E+03 -0.14420113756E+03 -0.55442732592E+03  0.10997557989E+04  0.82415252491E+02 0.  0.
         24    2    4    4    0    0 -0.89994293123E+02  0.26763476595E+03 -0.18648429914E+03  0.34775329470E+03  0.80178671777E+02 0.  0.
         13    1    3    3    0    0 -0.60606266711E+02  0.35111709108E+01 -0.41851690098E+02  0.73736095977E+02  0.00000000000E+00 0. -1.
        -13    1    3    3    0    0 -0.78453949152E+03 -0.12694479930E+03 -0.23991736422E+03  0.83016717442E+03  0.00000000000E+00 0.  1.
          2    1    6    6  502    0 -0.69931737871E+02  0.25117878203E+03 -0.18848775887E+03  0.32172793435E+03  0.00000000000E+00 0. -1.
          1    1    5    5  503    0  0.75505788089E+03 -0.89963649039E+02 -0.42104098089E+03  0.86918431258E+03  0.00000000000E+00 0. -1.
         -2    1    5    5    0  503  0.18008217046E+03 -0.54237488520E+02 -0.13338634503E+03  0.23057148636E+03  0.00000000000E+00 0.  1.
         -1    1    6    6    0  502 -0.20062555252E+02  0.16455983920E+02  0.20034597247E+01  0.26025360341E+02  0.00000000000E+00 0.  1.
<mgrwt>
<rscale>  0 0.21173720E+04</rscale>
<asrwt>0</asrwt>
<pdfrwt beam="1">  1        2 0.25954562E+00 0.21173720E+04</pdfrwt>
<pdfrwt beam="2">  1       -2 0.10221013E+00 0.21173720E+04</pdfrwt>
<totfact> 0.71950421E+00</totfact>
</mgrwt>
</event>
<event>
12    1  0.1556559E-007  0.1411419E+04  0.7818608E-02  0.8945594E-01
         -3   -1    0    0    0  501 -0.00000000000E+00  0.00000000000E+00  0.99783225133E+03  0.99783225133E+03  0.00000000000E+00 0.  1.
          3   -1    0    0  501    0  0.00000000000E+00 -0.00000000000E+00 -0.49910779980E+03  0.49910779980E+03  0.00000000000E+00 0. -1.
         23    2    1    2    0    0 -0.67928494884E+01 -0.11243558909E+03 -0.24691442514E+03  0.28663532896E+03  0.92223500071E+02 0.  0.
        254    2    1    2    0    0  0.67928494884E+01  0.11243558909E+03  0.74563887667E+03  0.12103047222E+04  0.94666376375E+03 0.  0.
        -24    2    4    4    0    0 -0.34378284859E+03 -0.17395642151E+03  0.80716195449E+02  0.40192054849E+03  0.81102031521E+02 0.  0.
         24    2    4    4    0    0  0.35057569808E+03  0.28639201061E+03  0.66492268122E+03  0.80838417368E+03  0.80243980662E+02 0.  0.
         11    1    3    3    0    0 -0.44669463513E+02 -0.63591684927E+02 -0.95719103677E+02  0.12329399893E+03  0.00000000000E+00 0. -1.
        -11    1    3    3    0    0  0.37876614025E+02 -0.48843904168E+02 -0.15119532146E+03  0.16334133003E+03  0.00000000000E+00 0.  1.
          4    1    6    6  502    0  0.27797447894E+03  0.25903342618E+03  0.57981981419E+03  0.69322373282E+03  0.00000000000E+00 0. -1.
          1    1    5    5  503    0 -0.19940552434E+03 -0.13549100480E+03  0.24667838932E+02  0.24234041718E+03  0.00000000000E+00 0. -1.
         -2    1    5    5    0  503 -0.14437732425E+03 -0.38465416711E+02  0.56048356517E+02  0.15958013131E+03  0.00000000000E+00 0.  1.
         -3    1    6    6    0  502  0.72601219133E+02  0.27358584433E+02  0.85102867030E+02  0.11516044086E+03  0.00000000000E+00 0.  1.
<mgrwt>
<rscale>  0 0.14114189E+04</rscale>
<asrwt>0</asrwt>
<pdfrwt beam="1">  1        3 0.76785816E-01 0.14114189E+04</pdfrwt>
<pdfrwt beam="2">  1       -3 0.15351265E+00 0.14114189E+04</pdfrwt>
<totfact> 0.12328914E+00</totfact>
</mgrwt>
</event>
<event>
12    1  0.1556559E-007  0.1632894E+04  0.7818608E-02  0.8800591E-01
         -3   -1    0    0    0  501 -0.00000000000E+00  0.00000000000E+00  0.89940392256E+03  0.89940392256E+03  0.00000000000E+00 0.  1.
          3   -1    0    0  501    0  0.00000000000E+00 -0.00000000000E+00 -0.74114140260E+03  0.74114140260E+03  0.00000000000E+00 0. -1.
         23    2    1    2    0    0 -0.47182465229E+03 -0.26294607234E+03 -0.98215526682E+02  0.55661775819E+03  0.91749112174E+02 0.  0.
        254    2    1    2    0    0  0.47182465229E+03  0.26294607234E+03  0.25647804664E+03  0.10839275670E+04  0.90407900239E+03 0.  0.
        -24    2    4    4    0    0  0.64706214721E+03  0.37162915831E+03  0.36786829122E+03  0.83577327004E+03  0.79951395082E+02 0.  0.
         24    2    4    4    0    0 -0.17523749491E+03 -0.10868308597E+03 -0.11139024458E+03  0.24815429693E+03  0.81563323256E+02 0.  0.
         11    1    3    3    0    0 -0.47540037905E+02 -0.53357359184E+02 -0.33703626891E+02  0.79012641069E+02  0.00000000000E+00 0.  1.
        -11    1    3    3    0    0 -0.42428461439E+03 -0.20958871315E+03 -0.64511899791E+02  0.47760511712E+03  0.00000000000E+00 0. -1.
          4    1    6    6  502    0 -0.56635118948E+02  0.16585075727E+01 -0.11425080706E+02  0.57799825387E+02  0.00000000000E+00 0. -1.
          1    1    5    5  503    0  0.18321873295E+03  0.14098775351E+03  0.13605534671E+03  0.26824933944E+03  0.00000000000E+00 0. -1.
         -2    1    5    5    0  503  0.46384341426E+03  0.23064140480E+03  0.23181294451E+03  0.56752393060E+03  0.00000000000E+00 0.  1.
         -3    1    6    6    0  502 -0.11860237596E+03 -0.11034159355E+03 -0.99965163871E+02  0.19035447155E+03  0.00000000000E+00 0.  1.
<mgrwt>
<rscale>  0 0.16328937E+04</rscale>
<asrwt>0</asrwt>
<pdfrwt beam="1">  1        3 0.11402175E+00 0.16328937E+04</pdfrwt>
<pdfrwt beam="2">  1       -3 0.13836983E+00 0.16328937E+04</pdfrwt>
<totfact> 0.63679746E-01</totfact>
</mgrwt>
</event>
<event>
12    1  0.1817312E-007  0.1636534E+04  0.7818608E-02  0.8798413E-01
          2   -1    0    0  501    0  0.00000000000E+00  0.00000000000E+00  0.31193955619E+04  0.31193955619E+04  0.00000000000E+00 0. -1.
         -2   -1    0    0    0  501 -0.00000000000E+00 -0.00000000000E+00 -0.21464451082E+03  0.21464451082E+03  0.00000000000E+00 0.  1.
         23    2    1    2    0    0 -0.12313805922E+02 -0.44509930114E+02  0.21671757958E+04  0.21695847849E+04  0.91183580726E+02 0.  0.
        254    2    1    2    0    0  0.12313805922E+02  0.44509930114E+02  0.73757525525E+03  0.11644552878E+04  0.89989226930E+03 0.  0.
        -24    2    4    4    0    0 -0.42706681339E+03  0.97971080022E+02  0.29968973073E+03  0.53664881644E+03  0.78699567139E+02 0.  0.
         24    2    4    4    0    0  0.43938061931E+03 -0.53461149908E+02  0.43788552452E+03  0.62780647132E+03  0.80522106705E+02 0.  0.
         13    1    3    3    0    0  0.16122470954E+02 -0.53613760323E+02  0.18854843457E+04  0.18863153467E+04  0.00000000000E+00 0. -1.
        -13    1    3    3    0    0 -0.28436276876E+02  0.91038302091E+01  0.28169145009E+03  0.28326943820E+03  0.00000000000E+00 0.  1.
          4    1    6    6  502    0  0.53765975791E+02 -0.29644455494E+02  0.40405788012E+02  0.73499670742E+02  0.00000000000E+00 0. -1.
          1    1    5    5  503    0  0.32178844547E+01  0.18283039316E+01  0.30417886342E+00  0.37134889809E+01  0.00000000000E+00 0. -1.
         -2    1    5    5    0  503 -0.43028469784E+03  0.96142776090E+02  0.29938555187E+03  0.53293532746E+03  0.00000000000E+00 0.  1.
         -3    1    6    6    0  502  0.38561464352E+03 -0.23816694415E+02  0.39747973651E+03  0.55430680058E+03  0.00000000000E+00 0.  1.
<mgrwt>
<rscale>  0 0.16365343E+04</rscale>
<asrwt>0</asrwt>
<pdfrwt beam="1">  1        2 0.47990698E+00 0.16365343E+04</pdfrwt>
<pdfrwt beam="2">  1       -2 0.33022235E-01 0.16365343E+04</pdfrwt>
<totfact> 0.12049608E+01</totfact>
</mgrwt>
</event>
<event>
12    1  0.1556559E-007  0.2096716E+04  0.7818608E-02  0.8562692E-01
          1   -1    0    0  501    0  0.00000000000E+00  0.00000000000E+00  0.12657960926E+04  0.12657960926E+04  0.00000000000E+00 0. -1.
         -1   -1    0    0    0  501 -0.00000000000E+00 -0.00000000000E+00 -0.86827107189E+03  0.86827107189E+03  0.00000000000E+00 0.  1.
         23    2    1    2    0    0  0.79721789864E+02  0.83240305744E+03 -0.16445009642E+02  0.84189544871E+03  0.96265748860E+02 0.  0.
        254    2    1    2    0    0 -0.79721789864E+02 -0.83240305744E+03  0.41397003034E+03  0.12921717158E+04  0.89391618352E+03 0.  0.
        -24    2    4    4    0    0  0.76012627664E+02 -0.42259802586E+02  0.46623136111E+03  0.48109532996E+03  0.80729325207E+02 0.  0.
         24    2    4    4    0    0 -0.15573441753E+03 -0.79014325486E+03 -0.52261330779E+02  0.81107638579E+03  0.80833686649E+02 0.  0.
         11    1    3    3    0    0  0.67919309988E+02  0.73516260225E+03 -0.45583674368E+02  0.73969923332E+03  0.00000000000E+00 0. -1.
        -11    1    3    3    0    0  0.11802479876E+02  0.97240455197E+02  0.29138664726E+02  0.10219621539E+03  0.00000000000E+00 0.  1.
          2    1    6    6  502    0 -0.68338552588E+02 -0.54218534893E+03 -0.33738242064E+02  0.54751564301E+03  0.00000000000E+00 0. -1.
          1    1    5    5  503    0  0.72148863004E+02 -0.19209230029E+02  0.43857939862E+03  0.44488913433E+03  0.00000000000E+00 0. -1.
         -2    1    5    5    0  503  0.38637646601E+01 -0.23050572558E+02  0.27651962496E+02  0.36206195637E+02  0.00000000000E+00 0.  1.
         -1    1    6    6    0  502 -0.87395864940E+02 -0.24795790593E+03 -0.18523088715E+02  0.26356074279E+03  0.00000000000E+00 0.  1.
<mgrwt>
<rscale>  0 0.20967157E+04</rscale>
<asrwt>0</asrwt>
<pdfrwt beam="1">  1        1 0.19473786E+00 0.20967157E+04</pdfrwt>
<pdfrwt beam="2">  1       -1 0.13358016E+00 0.20967157E+04</pdfrwt>
<totfact> 0.41679884E+00</totfact>
</mgrwt>
</event>
<event>
12    1  0.1556559E-007  0.1787768E+04  0.7818608E-02  0.8712831E-01
         -1   -1    0    0    0  501 -0.00000000000E+00  0.00000000000E+00  0.72122815468E+03  0.72122815468E+03  0.00000000000E+00 0.  1.
          1   -1    0    0  501    0  0.00000000000E+00 -0.00000000000E+00 -0.11078725462E+04  0.11078725462E+04  0.00000000000E+00 0. -1.
         23    2    1    2    0    0 -0.31436171049E+03 -0.13728850858E+03 -0.72275302181E+03  0.80645310698E+03  0.10160346258E+03 0.  0.
        254    2    1    2    0    0  0.31436171049E+03  0.13728850858E+03  0.33610863027E+03  0.10226475939E+04  0.90286636354E+03 0.  0.
        -24    2    4    4    0    0 -0.27065383330E+03  0.67528327274E+02  0.31347709799E+03  0.42669223039E+03  0.77361463568E+02 0.  0.
         24    2    4    4    0    0  0.58501554379E+03  0.69760181302E+02  0.22631532279E+02  0.59595536354E+03  0.86838584163E+02 0.  0.
         13    1    3    3    0    0 -0.10417397099E+03 -0.50865777914E+02 -0.14524400331E+03  0.18583692876E+03  0.00000000000E+00 0.  1.
        -13    1    3    3    0    0 -0.21018773950E+03 -0.86422730663E+02 -0.57750901850E+03  0.62061617822E+03  0.00000000000E+00 0. -1.
          2    1    6    6  502    0  0.39524769611E+03  0.72857280384E+02 -0.16189798124E+02  0.40223256227E+03  0.00000000000E+00 0. -1.
          3    1    5    5  503    0 -0.24343782587E+03  0.69908437300E+02  0.30811108399E+03  0.39885035382E+03  0.00000000000E+00 0. -1.
         -2    1    5    5    0  503 -0.27216007433E+02 -0.23801100253E+01  0.53660139984E+01  0.27841876563E+02  0.00000000000E+00 0.  1.
         -1    1    6    6    0  502  0.18976784768E+03 -0.30970990814E+01  0.38821330404E+02  0.19372280126E+03  0.00000000000E+00 0.  1.
<mgrwt>
<rscale>  0 0.17877683E+04</rscale>
<asrwt>0</asrwt>
<pdfrwt beam="1">  1        1 0.17044193E+00 0.17877683E+04</pdfrwt>
<pdfrwt beam="2">  1       -1 0.11095818E+00 0.17877683E+04</pdfrwt>
<totfact> 0.88338656E+00</totfact>
</mgrwt>
</event>
<event>
12    1  0.1556559E-007  0.1306046E+04  0.7818608E-02  0.9024784E-01
          1   -1    0    0  501    0  0.00000000000E+00  0.00000000000E+00  0.80769205820E+03  0.80769205820E+03  0.00000000000E+00 0. -1.
         -1   -1    0    0    0  501 -0.00000000000E+00 -0.00000000000E+00 -0.52797243735E+03  0.52797243735E+03  0.00000000000E+00 0.  1.
         23    2    1    2    0    0  0.87495602496E+02 -0.21691927001E+03 -0.16974124752E+03  0.30209699307E+03  0.87983248154E+02 0.  0.
        254    2    1    2    0    0 -0.87495602496E+02  0.21691927001E+03  0.44946086836E+03  0.10335675025E+04  0.90085362842E+03 0.  0.
        -24    2    4    4    0    0 -0.20307719885E+02  0.55994562723E+02  0.70632182085E+03  0.71321331694E+03  0.78961549642E+02 0.  0.
         24    2    4    4    0    0 -0.67187882611E+02  0.16092470728E+03 -0.25686095248E+03  0.32035418554E+03  0.78982797475E+02 0.  0.
         11    1    3    3    0    0 -0.13662271919E+02 -0.10372928678E+02 -0.16553455238E+01  0.17233557153E+02  0.00000000000E+00 0. -1.
        -11    1    3    3    0    0  0.10115787441E+03 -0.20654634133E+03 -0.16808590199E+03  0.28486343591E+03  0.00000000000E+00 0.  1.
          4    1    6    6  502    0 -0.77669874590E+02  0.16317671019E+03 -0.24241095730E+03  0.30236124154E+03  0.00000000000E+00 0. -1.
          3    1    5    5  503    0 -0.42934104446E+02  0.57867582715E+02  0.61054950391E+03  0.61478670381E+03  0.00000000000E+00 0. -1.
         -4    1    5    5    0  503  0.22626384562E+02 -0.18730199925E+01  0.95772316931E+02  0.98426613131E+02  0.00000000000E+00 0.  1.
         -3    1    6    6    0  502  0.10481991979E+02 -0.22520029034E+01 -0.14449995183E+02  0.17992943998E+02  0.00000000000E+00 0.  1.
<mgrwt>
<rscale>  0 0.13060462E+04</rscale>
<asrwt>0</asrwt>
<pdfrwt beam="1">  1        1 0.12426032E+00 0.13060462E+04</pdfrwt>
<pdfrwt beam="2">  1       -1 0.81226529E-01 0.13060462E+04</pdfrwt>
<totfact> 0.32297777E+01</totfact>
</mgrwt>
</event>
<event>
12    1  0.1556559E-007  0.1540852E+04  0.7818608E-02  0.8857732E-01
          2   -1    0    0  501    0  0.00000000000E+00  0.00000000000E+00  0.18492461938E+04  0.18492461938E+04  0.00000000000E+00 0. -1.
         -2   -1    0    0    0  501 -0.00000000000E+00 -0.00000000000E+00 -0.32097188925E+03  0.32097188925E+03  0.00000000000E+00 0.  1.
         23    2    1    2    0    0  0.35434742105E+02 -0.11810107442E+03  0.12331340748E+04  0.12425817619E+04  0.90478195361E+02 0.  0.
        254    2    1    2    0    0 -0.35434742105E+02  0.11810107442E+03  0.29514022979E+03  0.92763632120E+03  0.87074560259E+03 0.  0.
        -24    2    4    4    0    0 -0.23118131902E+03  0.18567543849E+03 -0.21269895537E+03  0.37333128817E+03  0.78836757830E+02 0.  0.
         24    2    4    4    0    0  0.19574657691E+03 -0.67574364068E+02  0.50783918517E+03  0.55430503303E+03  0.80438887375E+02 0.  0.
         11    1    3    3    0    0  0.78568431466E+01  0.41902453950E+01  0.39720637806E+03  0.39730617276E+03  0.00000000000E+00 0.  1.
        -11    1    3    3    0    0  0.27577898958E+02 -0.12229131982E+03  0.83592769671E+03  0.84527558910E+03  0.00000000000E+00 0. -1.
          4    1    6    6  502    0  0.37094785067E+02 -0.35087945045E+01  0.18718869755E+03  0.19086105734E+03  0.00000000000E+00 0. -1.
          1    1    5    5  503    0 -0.13388200297E+03  0.57876423540E+02 -0.10995496403E+03  0.18265860296E+03  0.00000000000E+00 0. -1.
         -2    1    5    5    0  503 -0.97299316047E+02  0.12779901495E+03 -0.10274399135E+03  0.19067268521E+03  0.00000000000E+00 0.  1.
         -3    1    6    6    0  502  0.15865179185E+03 -0.64065569564E+02  0.32065048762E+03  0.36344397570E+03  0.00000000000E+00 0.  1.
<mgrwt>
<rscale>  0 0.15408518E+04</rscale>
<asrwt>0</asrwt>
<pdfrwt beam="1">  1        2 0.28449941E+00 0.15408518E+04</pdfrwt>
<pdfrwt beam="2">  1       -2 0.49380292E-01 0.15408518E+04</pdfrwt>
<totfact> 0.30296049E+01</totfact>
</mgrwt>
</event>
<event>
12    1  0.1556559E-007  0.1551923E+04  0.7818608E-02  0.8850640E-01
          2   -1    0    0  501    0  0.00000000000E+00  0.00000000000E+00  0.47651999888E+03  0.47651999888E+03  0.00000000000E+00 0. -1.
         -2   -1    0    0    0  501 -0.00000000000E+00 -0.00000000000E+00 -0.12635695745E+04  0.12635695745E+04  0.00000000000E+00 0.  1.
         23    2    1    2    0    0  0.45002473368E+03 -0.24672056415E+03 -0.30417149808E+03  0.60321031122E+03  0.89157622326E+02 0.  0.
        254    2    1    2    0    0 -0.45002473368E+03  0.24672056415E+03 -0.48287807750E+03  0.11368792621E+04  0.89214904653E+03 0.  0.
        -24    2    4    4    0    0 -0.12047226689E+03  0.52828630432E+03 -0.42315955626E+03  0.69215684750E+03  0.80106835390E+02 0.  0.
         24    2    4    4    0    0 -0.32955246679E+03 -0.28156574017E+03 -0.59718521247E+02  0.44472241463E+03  0.79546400840E+02 0.  0.
         13    1    3    3    0    0  0.42786521301E+03 -0.21949239130E+03 -0.30240121651E+03  0.56805989657E+03  0.00000000000E+00 0.  1.
        -13    1    3    3    0    0  0.22159520677E+02 -0.27228172851E+02 -0.17702815630E+01  0.35150414653E+02  0.00000000000E+00 0. -1.
          4    1    6    6  502    0 -0.20828698800E+03 -0.16767478018E+03  0.16646265395E+01  0.26739684415E+03  0.00000000000E+00 0. -1.
          1    1    5    5  503    0 -0.43877218296E+02  0.68237247834E+02 -0.69951010303E+02  0.10711991467E+03  0.00000000000E+00 0. -1.
         -2    1    5    5    0  503 -0.76595048592E+02  0.46004905648E+03 -0.35320854595E+03  0.58503693283E+03  0.00000000000E+00 0.  1.
         -3    1    6    6    0  502 -0.12126547879E+03 -0.11389095999E+03 -0.61383147786E+02  0.17732557048E+03  0.00000000000E+00 0.  1.
<mgrwt>
<rscale>  0 0.15519229E+04</rscale>
<asrwt>0</asrwt>
<pdfrwt beam="1">  1        2 0.73310769E-01 0.15519229E+04</pdfrwt>
<pdfrwt beam="2">  1       -2 0.19439532E+00 0.15519229E+04</pdfrwt>
<totfact> 0.90681597E+00</totfact>
</mgrwt>
</event>
<event>
12    1  0.1556559E-007  0.2921050E+04  0.7818608E-02  0.8266642E-01
          1   -1    0    0  501    0  0.00000000000E+00  0.00000000000E+00  0.30917497744E+04  0.30917497744E+04  0.00000000000E+00 0. -1.
         -1   -1    0    0    0  501 -0.00000000000E+00 -0.00000000000E+00 -0.68994381673E+03  0.68994381673E+03  0.00000000000E+00 0.  1.
         23    2    1    2    0    0 -0.50920141688E+03  0.12075171675E+04  0.12276416890E+04  0.17979779806E+04  0.90757421559E+02 0.  0.
        254    2    1    2    0    0  0.50920141688E+03 -0.12075171675E+04  0.11741642686E+04  0.19837156105E+04  0.91601424708E+03 0.  0.
        -24    2    4    4    0    0  0.75082430101E+03 -0.10646517229E+04  0.95308987046E+03  0.16163328952E+04  0.83254458978E+02 0.  0.
         24    2    4    4    0    0 -0.24162288414E+03 -0.14286544456E+03  0.22107439818E+03  0.36738271526E+03  0.85463539325E+02 0.  0.
         11    1    3    3    0    0 -0.25784813182E+03  0.67659558399E+03  0.62642222047E+03  0.95742991475E+03  0.00000000000E+00 0. -1.
        -11    1    3    3    0    0 -0.25135328505E+03  0.53092158347E+03  0.60121946851E+03  0.84054806586E+03  0.00000000000E+00 0.  1.
          2    1    6    6  502    0 -0.17156680334E+03 -0.13483121963E+03  0.13699383688E+03  0.25764692340E+03  0.00000000000E+00 0. -1.
          1    1    5    5  503    0  0.50767892742E+03 -0.66875105908E+03  0.58006499651E+03  0.10205103001E+04  0.00000000000E+00 0. -1.
         -2    1    5    5    0  503  0.24314537360E+03 -0.39590066381E+03  0.37302487395E+03  0.59582259515E+03  0.00000000000E+00 0.  1.
         -1    1    6    6    0  502 -0.70056080794E+02 -0.80342249362E+01  0.84080561304E+02  0.10973579186E+03  0.00000000000E+00 0.  1.
<mgrwt>
<rscale>  0 0.29210502E+04</rscale>
<asrwt>0</asrwt>
<pdfrwt beam="1">  1        1 0.47565380E+00 0.29210502E+04</pdfrwt>
<pdfrwt beam="2">  1       -1 0.10614520E+00 0.29210502E+04</pdfrwt>
<totfact> 0.36372796E-01</totfact>
</mgrwt>
</event>
<event>
12    1  0.1556559E-007  0.1132055E+04  0.7818608E-02  0.9174500E-01
         -2   -1    0    0    0  501 -0.00000000000E+00  0.00000000000E+00  0.21355483214E+03  0.21355483214E+03  0.00000000000E+00 0.  1.
          2   -1    0    0  501    0  0.00000000000E+00 -0.00000000000E+00 -0.15002581873E+04  0.15002581873E+04  0.00000000000E+00 0. -1.
         23    2    1    2    0    0  0.82127295378E+02 -0.15611582434E+01  0.43865777597E+02  0.12333222890E+03  0.80865953151E+02 0.  0.
        254    2    1    2    0    0 -0.82127295378E+02  0.15611582434E+01 -0.13305691327E+04  0.15904807905E+04  0.86744890235E+03 0.  0.
        -24    2    4    4    0    0  0.44598746394E+02  0.20983697289E+03  0.70135566480E+01  0.22853454642E+03  0.78474489868E+02 0.  0.
         24    2    4    4    0    0 -0.12672604177E+03 -0.20827581465E+03 -0.13375826894E+04  0.13619462441E+04  0.79572710566E+02 0.  0.
         11    1    3    3    0    0  0.82651277665E+02  0.19912347930E+02  0.13415239101E+02  0.86068019264E+02  0.00000000000E+00 0. -1.
        -11    1    3    3    0    0 -0.52398228746E+00 -0.21473506174E+02  0.30450538496E+02  0.37264209632E+02  0.00000000000E+00 0.  1.
          4    1    6    6  502    0 -0.82755518659E+02 -0.70211689666E+02 -0.47170671085E+03  0.48403034852E+03  0.00000000000E+00 0. -1.
          1    1    5    5  503    0  0.69797843280E+01  0.33619621758E+01  0.16728917188E+02  0.18435749218E+02  0.00000000000E+00 0. -1.
         -2    1    5    5    0  503  0.37618962066E+02  0.20647501071E+03 -0.97153605400E+01  0.21009879720E+03  0.00000000000E+00 0.  1.
         -3    1    6    6    0  502 -0.43970523113E+02 -0.13806412498E+03 -0.86587597851E+03  0.87791589556E+03  0.00000000000E+00 0.  1.
<mgrwt>
<rscale>  0 0.11320554E+04</rscale>
<asrwt>0</asrwt>
<pdfrwt beam="1">  1        2 0.23080894E+00 0.11320554E+04</pdfrwt>
<pdfrwt beam="2">  1       -2 0.32854591E-01 0.11320554E+04</pdfrwt>
<totfact> 0.10859851E+02</totfact>
</mgrwt>
</event>
<event>
12    1  0.1556559E-007  0.1339449E+04  0.7818608E-02  0.8998854E-01
          2   -1    0    0  501    0  0.00000000000E+00  0.00000000000E+00  0.10803198001E+04  0.10803198001E+04  0.00000000000E+00 0.  1.
         -2   -1    0    0    0  501 -0.00000000000E+00 -0.00000000000E+00 -0.41518344063E+03  0.41518344063E+03  0.00000000000E+00 0. -1.
         23    2    1    2    0    0  0.43670292986E+02 -0.32289753941E+03  0.22670491529E+01  0.33837868367E+03  0.91241868703E+02 0.  0.
        254    2    1    2    0    0 -0.43670292986E+02  0.32289753941E+03  0.66286931036E+03  0.11571245571E+04  0.89071409698E+03 0.  0.
        -24    2    4    4    0    0 -0.19130833856E+03 -0.26610069059E+03  0.23308163271E+03  0.40905639192E+03  0.74777177884E+02 0.  0.
         24    2    4    4    0    0  0.14763804557E+03  0.58899823000E+03  0.42978767765E+03  0.74806816517E+03  0.78566051436E+02 0.  0.
         11    1    3    3    0    0  0.47375564268E+02 -0.31438018892E+03 -0.15524372483E+02  0.31830858206E+03  0.00000000000E+00 0. -1.
        -11    1    3    3    0    0 -0.37052712822E+01 -0.85173504901E+01  0.17791421636E+02  0.20070101606E+02  0.00000000000E+00 0.  1.
          2    1    6    6  502    0  0.38037979830E+02  0.78359838890E+02  0.88508726605E+02  0.12418110543E+03  0.00000000000E+00 0. -1.
          1    1    5    5  503    0 -0.15408817261E+03 -0.20753995222E+03  0.14318735015E+03  0.29549723171E+03  0.00000000000E+00 0. -1.
         -2    1    5    5    0  503 -0.37220165947E+02 -0.58560738375E+02  0.89894282556E+02  0.11355916021E+03  0.00000000000E+00 0.  1.
         -1    1    6    6    0  502  0.10960006574E+03  0.51063839111E+03  0.34127895105E+03  0.62388705974E+03  0.00000000000E+00 0.  1.
<mgrwt>
<rscale>  0 0.13394490E+04</rscale>
<asrwt>0</asrwt>
<pdfrwt beam="1">  1        2 0.16620305E+00 0.13394490E+04</pdfrwt>
<pdfrwt beam="2">  1       -2 0.63874376E-01 0.13394490E+04</pdfrwt>
<totfact> 0.49652202E+01</totfact>
</mgrwt>
</event>
<event>
12    1  0.1556559E-007  0.1489529E+04  0.7818608E-02  0.8891446E-01
         -1   -1    0    0    0  501 -0.00000000000E+00  0.00000000000E+00  0.49929246798E+03  0.49929246798E+03  0.00000000000E+00 0.  1.
          1   -1    0    0  501    0  0.00000000000E+00 -0.00000000000E+00 -0.11109200687E+04  0.11109200687E+04  0.00000000000E+00 0. -1.
         23    2    1    2    0    0 -0.38722850360E+03  0.16899081808E+03 -0.40524366569E+03  0.59265273335E+03  0.92255206757E+02 0.  0.
        254    2    1    2    0    0  0.38722850360E+03 -0.16899081808E+03 -0.20638393502E+03  0.10175598033E+04  0.90240224628E+03 0.  0.
        -24    2    4    4    0    0  0.49705858567E+03 -0.23516498252E+03 -0.46077880138E+03  0.72168180225E+03  0.78343559419E+02 0.  0.
         24    2    4    4    0    0 -0.10983008207E+03  0.66174164442E+02  0.25439486636E+03  0.29587800107E+03  0.79908550977E+02 0.  0.
         13    1    3    3    0    0 -0.10665623716E+03  0.13023062189E+02 -0.13842679430E+03  0.17523450132E+03  0.00000000000E+00 0.  1.
        -13    1    3    3    0    0 -0.28057226644E+03  0.15596775589E+03 -0.26681687139E+03  0.41741823203E+03  0.00000000000E+00 0. -1.
          2    1    6    6  502    0 -0.55992116280E+02 -0.51409179400E+01  0.13892529223E+03  0.14987255567E+03  0.00000000000E+00 0. -1.
          1    1    5    5  503    0  0.35078786595E+03 -0.13255641811E+03 -0.33845214659E+03  0.50514669791E+03  0.00000000000E+00 0. -1.
         -2    1    5    5    0  503  0.14627071973E+03 -0.10260856441E+03 -0.12232665479E+03  0.21653510434E+03  0.00000000000E+00 0.  1.
         -1    1    6    6    0  502 -0.53837965790E+02  0.71315082382E+02  0.11546957413E+03  0.14600544540E+03  0.00000000000E+00 0.  1.
<mgrwt>
<rscale>  0 0.14895288E+04</rscale>
<asrwt>0</asrwt>
<pdfrwt beam="1">  1        1 0.17091078E+00 0.14895288E+04</pdfrwt>
<pdfrwt beam="2">  1       -1 0.76814226E-01 0.14895288E+04</pdfrwt>
<totfact> 0.20482905E+01</totfact>
</mgrwt>
</event>
<event>
12    1  0.1556559E-007  0.2190937E+04  0.7818608E-02  0.8522210E-01
          1   -1    0    0  501    0  0.00000000000E+00  0.00000000000E+00  0.32714366694E+04  0.32714366694E+04  0.00000000000E+00 0. -1.
         -1   -1    0    0    0  501 -0.00000000000E+00 -0.00000000000E+00 -0.36682688734E+03  0.36682688734E+03  0.00000000000E+00 0.  1.
         23    2    1    2    0    0 -0.87329686858E+03  0.14359956133E+03  0.88092467037E+03  0.12519638216E+04  0.90093734315E+02 0.  0.
        254    2    1    2    0    0  0.87329686858E+03 -0.14359956133E+03  0.20236851117E+04  0.23862997352E+04  0.90324788410E+03 0.  0.
        -24    2    4    4    0    0  0.77056476859E+03 -0.38582925419E+03  0.18937600623E+04  0.20820140914E+04  0.76296967614E+02 0.  0.
         24    2    4    4    0    0  0.10273209999E+03  0.24222969286E+03  0.12992504939E+03  0.30428564377E+03  0.80499230248E+02 0.  0.
         11    1    3    3    0    0 -0.71200604156E+03  0.14715560688E+03  0.74541775226E+03  0.10412756605E+04  0.00000000000E+00 0.  1.
        -11    1    3    3    0    0 -0.16129082702E+03 -0.35560455473E+01  0.13550691811E+03  0.21068816102E+03  0.00000000000E+00 0. -1.
          2    1    6    6  502    0 -0.85584370954E+01  0.11003328435E+02  0.21680240875E+02  0.25775044647E+02  0.00000000000E+00 0. -1.
          1    1    5    5  503    0  0.13392500719E+03 -0.51182320226E+02  0.37777202049E+03  0.40406340705E+03  0.00000000000E+00 0. -1.
         -2    1    5    5    0  503  0.63663976140E+03 -0.33464693397E+03  0.15159880418E+04  0.16779506844E+04  0.00000000000E+00 0.  1.
         -1    1    6    6    0  502  0.11129053709E+03  0.23122636443E+03  0.10824480851E+03  0.27851059912E+03  0.00000000000E+00 0.  1.
<mgrwt>
<rscale>  0 0.21909367E+04</rscale>
<asrwt>0</asrwt>
<pdfrwt beam="1">  1        1 0.50329793E+00 0.21909367E+04</pdfrwt>
<pdfrwt beam="2">  1       -1 0.56434908E-01 0.21909367E+04</pdfrwt>
<totfact> 0.10905263E+00</totfact>
</mgrwt>
</event>
<event>
12    1  0.1556559E-007  0.3636764E+04  0.7818608E-02  0.8082122E-01
          2   -1    0    0  501    0  0.00000000000E+00  0.00000000000E+00  0.25801666383E+04  0.25801666383E+04  0.00000000000E+00 0. -1.
         -2   -1    0    0    0  501 -0.00000000000E+00 -0.00000000000E+00 -0.12815114301E+04  0.12815114301E+04  0.00000000000E+00 0.  1.
         23    2    1    2    0    0  0.15396127502E+04 -0.71617797257E+03  0.41918668852E+03  0.17513557310E+04  0.90615161976E+02 0.  0.
        254    2    1    2    0    0 -0.15396127502E+04  0.71617797257E+03  0.87946851972E+03  0.21103223373E+04  0.89256774601E+03 0.  0.
        -24    2    4    4    0    0 -0.10812405065E+04  0.45496333808E+03  0.10216934755E+04  0.15577049771E+04  0.80712860431E+02 0.  0.
         24    2    4    4    0    0 -0.45837224371E+03  0.26121463449E+03 -0.14222495578E+03  0.55261736025E+03  0.82582139255E+02 0.  0.
         11    1    3    3    0    0  0.14917232014E+03 -0.83567523207E+02  0.17758636897E+02  0.17190486094E+03  0.00000000000E+00 0.  1.
        -11    1    3    3    0    0  0.13904404301E+04 -0.63261044936E+03  0.40142805163E+03  0.15794508701E+04  0.00000000000E+00 0. -1.
          2    1    6    6  502    0 -0.28347516770E+03  0.19738986614E+03 -0.11717155696E+03  0.36476033737E+03  0.00000000000E+00 0. -1.
          1    1    5    5  503    0 -0.38790462744E+03  0.19930699598E+03  0.40630757795E+03  0.59605295615E+03  0.00000000000E+00 0. -1.
         -2    1    5    5    0  503 -0.69333587909E+03  0.25565634210E+03  0.61538589755E+03  0.96165202095E+03  0.00000000000E+00 0.  1.
         -1    1    6    6    0  502 -0.17489707601E+03  0.63824768346E+02 -0.25053398822E+02  0.18785702288E+03  0.00000000000E+00 0.  1.
<mgrwt>
<rscale>  0 0.36367640E+04</rscale>
<asrwt>0</asrwt>
<pdfrwt beam="1">  1        2 0.39694871E+00 0.36367640E+04</pdfrwt>
<pdfrwt beam="2">  1       -2 0.19715561E+00 0.36367640E+04</pdfrwt>
<totfact> 0.35268890E-01</totfact>
</mgrwt>
</event>
<event>
12    1  0.1556559E-007  0.2364199E+04  0.7818608E-02  0.8453030E-01
          2   -1    0    0  501    0  0.00000000000E+00  0.00000000000E+00  0.24182837567E+04  0.24182837567E+04  0.00000000000E+00 0. -1.
         -2   -1    0    0    0  501 -0.00000000000E+00 -0.00000000000E+00 -0.57783117472E+03  0.57783117472E+03  0.00000000000E+00 0.  1.
         23    2    1    2    0    0 -0.60423899471E+03 -0.12192790662E+03 -0.22061933835E+03  0.66104888224E+03  0.91332114415E+02 0.  0.
        254    2    1    2    0    0  0.60423899471E+03  0.12192790662E+03  0.20610719203E+04  0.23350660492E+04  0.90804450117E+03 0.  0.
        -24    2    4    4    0    0  0.64911363394E+03 -0.95652469662E+02  0.19767585210E+04  0.20842869718E+04  0.78613140606E+02 0.  0.
         24    2    4    4    0    0 -0.44874639226E+02  0.21758037628E+03  0.84313399298E+02  0.25077907732E+03  0.80165097957E+02 0.  0.
         11    1    3    3    0    0 -0.60792279092E+02 -0.30673543191E+02 -0.48991670368E+02  0.83885345648E+02  0.00000000000E+00 0.  1.
        -11    1    3    3    0    0 -0.54344671562E+03 -0.91254363431E+02 -0.17162766798E+03  0.57716353660E+03  0.00000000000E+00 0. -1.
          4    1    6    6  502    0 -0.19711928389E+02  0.18061747374E+03  0.36509183831E+02  0.18532175384E+03  0.00000000000E+00 0. -1.
          3    1    5    5  503    0  0.36327532053E+01  0.21425961646E+01  0.25372674469E+01  0.49219244480E+01  0.00000000000E+00 0. -1.
         -2    1    5    5    0  503  0.64548088073E+03 -0.97795065827E+02  0.19742212536E+04  0.20793650474E+04  0.00000000000E+00 0.  1.
         -3    1    6    6    0  502 -0.25162710837E+02  0.36962902544E+02  0.47804215467E+02  0.65457323483E+02  0.00000000000E+00 0.  1.
<mgrwt>
<rscale>  0 0.23641994E+04</rscale>
<asrwt>0</asrwt>
<pdfrwt beam="1">  1        2 0.37204365E+00 0.23641994E+04</pdfrwt>
<pdfrwt beam="2">  1       -2 0.88897105E-01 0.23641994E+04</pdfrwt>
<totfact> 0.38048228E+00</totfact>
</mgrwt>
</event>
<event>
12    1  0.1556559E-007  0.3787993E+04  0.7818608E-02  0.8048736E-01
         -1   -1    0    0    0  501 -0.00000000000E+00  0.00000000000E+00  0.90688086232E+03  0.90688086232E+03  0.00000000000E+00 0.  1.
          1   -1    0    0  501    0  0.00000000000E+00 -0.00000000000E+00 -0.39555615288E+04  0.39555615288E+04  0.00000000000E+00 0. -1.
         23    2    1    2    0    0 -0.71503424646E+03 -0.94306817194E+03 -0.31545829724E+04  0.33704943483E+04  0.90481332346E+02 0.  0.
        254    2    1    2    0    0  0.71503424646E+03  0.94306817194E+03  0.10590230593E+03  0.14919480428E+04  0.90224282407E+03 0.  0.
        -24    2    4    4    0    0  0.85951950744E+03  0.91963865720E+03 -0.51572860141E+02  0.12621589986E+04  0.76658556786E+02 0.  0.
         24    2    4    4    0    0 -0.14448526098E+03  0.23429514738E+02  0.15747516607E+03  0.22978904425E+03  0.81115005555E+02 0.  0.
         11    1    3    3    0    0 -0.56513184764E+03 -0.77827752427E+03 -0.24743408496E+04  0.26547038535E+04  0.00000000000E+00 0. -1.
        -11    1    3    3    0    0 -0.14990239882E+03 -0.16479064768E+03 -0.68024212278E+03  0.71579049472E+03  0.00000000000E+00 0.  1.
          4    1    6    6  502    0 -0.77263472794E+02  0.77839648523E+01  0.13754247875E+03  0.15794989015E+03  0.00000000000E+00 0. -1.
          3    1    5    5  503    0  0.66068192373E+03  0.68363116360E+03 -0.67828828809E+02  0.95312796738E+03  0.00000000000E+00 0. -1.
         -4    1    5    5    0  503  0.19883758371E+03  0.23600749360E+03  0.16255968668E+02  0.30903103121E+03  0.00000000000E+00 0.  1.
         -3    1    6    6    0  502 -0.67221788185E+02  0.15645549886E+02  0.19932687321E+02  0.71839154100E+02  0.00000000000E+00 0.  1.
<mgrwt>
<rscale>  0 0.37879932E+04</rscale>
<asrwt>0</asrwt>
<pdfrwt beam="1">  1        1 0.60854792E+00 0.37879932E+04</pdfrwt>
<pdfrwt beam="2">  1       -1 0.13952013E+00 0.37879932E+04</pdfrwt>
<totfact> 0.35249963E-02</totfact>
</mgrwt>
</event>
<event>
12    1  0.1556559E-007  0.1838099E+04  0.7818608E-02  0.8686297E-01
         -1   -1    0    0    0  501 -0.00000000000E+00  0.00000000000E+00  0.71352839877E+03  0.71352839877E+03  0.00000000000E+00 0.  1.
          1   -1    0    0  501    0  0.00000000000E+00 -0.00000000000E+00 -0.11837680986E+04  0.11837680986E+04  0.00000000000E+00 0. -1.
         23    2    1    2    0    0 -0.37534516866E+03 -0.48051627122E+01  0.42297094967E+03  0.57299351350E+03  0.92249970283E+02 0.  0.
        254    2    1    2    0    0  0.37534516866E+03  0.48051627122E+01 -0.89321064954E+03  0.13243029839E+04  0.90279900505E+03 0.  0.
        -24    2    4    4    0    0  0.99126581588E+02 -0.20934339269E+03 -0.93150437530E+03  0.96293242536E+03  0.76731475740E+02 0.  0.
         24    2    4    4    0    0  0.27621858707E+03  0.21414855540E+03  0.38293725758E+02  0.36137055855E+03  0.83462324009E+02 0.  0.
         13    1    3    3    0    0 -0.14549400064E+03 -0.46693258750E+02  0.16073383552E+03  0.22177495466E+03  0.00000000000E+00 0. -1.
        -13    1    3    3    0    0 -0.22985116802E+03  0.41888096038E+02  0.26223711415E+03  0.35121855883E+03  0.00000000000E+00 0.  1.
          2    1    6    6  502    0  0.21717857132E+03  0.19587898034E+03  0.80729889012E+01  0.29257525516E+03  0.00000000000E+00 0. -1.
          1    1    5    5  503    0  0.57962791259E+02 -0.16388914067E+03 -0.78671482954E+03  0.80569197502E+03  0.00000000000E+00 0. -1.
         -2    1    5    5    0  503  0.41163790329E+02 -0.45454252021E+02 -0.14478954576E+03  0.15724045034E+03  0.00000000000E+00 0.  1.
         -1    1    6    6    0  502  0.59040015751E+02  0.18269575064E+02  0.30220736857E+02  0.68795303394E+02  0.00000000000E+00 0.  1.
<mgrwt>
<rscale>  0 0.18380992E+04</rscale>
<asrwt>0</asrwt>
<pdfrwt beam="1">  1        1 0.18211817E+00 0.18380992E+04</pdfrwt>
<pdfrwt beam="2">  1       -1 0.10977360E+00 0.18380992E+04</pdfrwt>
<totfact> 0.79229582E+00</totfact>
</mgrwt>
</event>
<event>
12    1  0.1556559E-007  0.1281273E+04  0.7818608E-02  0.9044549E-01
          1   -1    0    0  501    0  0.00000000000E+00  0.00000000000E+00  0.95304122293E+03  0.95304122293E+03  0.00000000000E+00 0. -1.
         -1   -1    0    0    0  501 -0.00000000000E+00 -0.00000000000E+00 -0.43063707663E+03  0.43063707663E+03  0.00000000000E+00 0.  1.
         23    2    1    2    0    0 -0.67100834632E+02  0.71408473906E+02  0.44333924039E+03  0.46217534017E+03  0.86340435726E+02 0.  0.
        254    2    1    2    0    0  0.67100834632E+02 -0.71408473906E+02  0.79064905910E+02  0.92150295939E+03  0.91286075207E+03 0.  0.
        -24    2    4    4    0    0 -0.26220194514E+03  0.69238871697E+02  0.36114356131E+03  0.45865574342E+03  0.79978357765E+02 0.  0.
         24    2    4    4    0    0  0.32930277977E+03 -0.14064734560E+03 -0.28207865540E+03  0.46284721597E+03  0.80232044148E+02 0.  0.
         13    1    3    3    0    0 -0.60076231859E+02  0.65360646969E+02  0.44408919526E+03  0.45287567958E+03  0.00000000000E+00 0. -1.
        -13    1    3    3    0    0 -0.70246027730E+01  0.60478269377E+01 -0.74995487551E+00  0.92996605907E+01  0.00000000000E+00 0.  1.
          4    1    6    6  502    0  0.26324653779E+03 -0.13549342429E+03 -0.25683014631E+03  0.39194251076E+03  0.00000000000E+00 0. -1.
          1    1    5    5  503    0 -0.11111447852E+03  0.70325771635E+02  0.17542717493E+03  0.21924149971E+03  0.00000000000E+00 0. -1.
         -2    1    5    5    0  503 -0.15108746662E+03 -0.10868999384E+01  0.18571638638E+03  0.23941424371E+03  0.00000000000E+00 0.  1.
         -3    1    6    6    0  502  0.66056241986E+02 -0.51539213128E+01 -0.25248509081E+02  0.70904705210E+02  0.00000000000E+00 0.  1.
<mgrwt>
<rscale>  0 0.12812726E+04</rscale>
<asrwt>0</asrwt>
<pdfrwt beam="1">  1        1 0.14662173E+00 0.12812726E+04</pdfrwt>
<pdfrwt beam="2">  1       -1 0.66251858E-01 0.12812726E+04</pdfrwt>
<totfact> 0.37446139E+01</totfact>
</mgrwt>
</event>
<event>
12    1  0.1556559E-007  0.2384415E+04  0.7818608E-02  0.8445361E-01
         -1   -1    0    0    0  501 -0.00000000000E+00  0.00000000000E+00  0.14927875642E+04  0.14927875642E+04  0.00000000000E+00 0.  1.
          1   -1    0    0  501    0  0.00000000000E+00 -0.00000000000E+00 -0.95215076210E+03  0.95215076210E+03  0.00000000000E+00 0. -1.
         23    2    1    2    0    0 -0.30799270035E+03 -0.60171420009E+03 -0.54796084611E+03  0.87474385849E+03  0.89421736934E+02 0.  0.
        254    2    1    2    0    0  0.30799270035E+03  0.60171420009E+03  0.10885976482E+04  0.15701944678E+04  0.90749454268E+03 0.  0.
        -24    2    4    4    0    0 -0.33325868159E+02  0.24996154512E+03  0.10376268192E+04  0.10709067494E+04  0.81120049221E+02 0.  0.
         24    2    4    4    0    0  0.34131856851E+03  0.35175265496E+03  0.50970828934E+02  0.49928771838E+03  0.80385974126E+02 0.  0.
         11    1    3    3    0    0 -0.27733007038E+03 -0.52494538229E+03 -0.51431483335E+03  0.78549307453E+03  0.00000000000E+00 0. -1.
        -11    1    3    3    0    0 -0.30662629968E+02 -0.76768817798E+02 -0.33646012752E+02  0.89250783956E+02  0.00000000000E+00 0.  1.
          4    1    6    6  502    0  0.30635679021E+03  0.32535957165E+03  0.68486259267E+02  0.45211027580E+03  0.00000000000E+00 0. -1.
          3    1    5    5  503    0 -0.49043437619E+02  0.13601314602E+03  0.68133079113E+03  0.69650303776E+03  0.00000000000E+00 0. -1.
         -4    1    5    5    0  503  0.15717569460E+02  0.11394839911E+03  0.35629602811E+03  0.37440371165E+03  0.00000000000E+00 0.  1.
         -3    1    6    6    0  502  0.34961778296E+02  0.26393083312E+02 -0.17515430333E+02  0.47177442577E+02  0.00000000000E+00 0.  1.
<mgrwt>
<rscale>  0 0.23844151E+04</rscale>
<asrwt>0</asrwt>
<pdfrwt beam="1">  1        1 0.14648473E+00 0.23844151E+04</pdfrwt>
<pdfrwt beam="2">  1       -1 0.22965963E+00 0.23844151E+04</pdfrwt>
<totfact> 0.14055564E+00</totfact>
</mgrwt>
</event>
<event>
12    1  0.1556559E-007  0.1413437E+04  0.7818608E-02  0.8944150E-01
          3   -1    0    0  501    0  0.00000000000E+00  0.00000000000E+00  0.27813068906E+03  0.27813068906E+03  0.00000000000E+00 0. -1.
         -3   -1    0    0    0  501 -0.00000000000E+00 -0.00000000000E+00 -0.17957410611E+04  0.17957410611E+04  0.00000000000E+00 0.  1.
         23    2    1    2    0    0 -0.31508161266E+03 -0.25378161317E+03 -0.59493747497E+03  0.72515570542E+03  0.90656870459E+02 0.  0.
        254    2    1    2    0    0  0.31508161266E+03  0.25378161317E+03 -0.92267289704E+03  0.13487160447E+04  0.89667617593E+03 0.  0.
        -24    2    4    4    0    0  0.18303587591E+03  0.68017485688E+02  0.14384040973E+03  0.25516287211E+03  0.79306478941E+02 0.  0.
         24    2    4    4    0    0  0.13204573675E+03  0.18576412748E+03 -0.10665133068E+04  0.10935531726E+04  0.80396020505E+02 0.  0.
         13    1    3    3    0    0 -0.21875505900E+01 -0.42824459897E-01 -0.36569669658E+02  0.36635064493E+02  0.00000000000E+00 0. -1.
        -13    1    3    3    0    0 -0.31289406207E+03 -0.25373878871E+03 -0.55836780531E+03  0.68852064093E+03  0.00000000000E+00 0.  1.
          2    1    6    6  502    0  0.94238795301E+02  0.89112138210E+02 -0.44813983920E+03  0.46653106991E+03  0.00000000000E+00 0. -1.
          1    1    5    5  503    0  0.14730878490E+02 -0.16626201659E+02  0.12276416454E+02  0.25379908661E+02  0.00000000000E+00 0. -1.
         -2    1    5    5    0  503  0.16830499742E+03  0.84643687347E+02  0.13156399328E+03  0.22978296345E+03  0.00000000000E+00 0.  1.
         -1    1    6    6    0  502  0.37806941451E+02  0.96651989274E+02 -0.61837346757E+03  0.62702210268E+03  0.00000000000E+00 0.  1.
<mgrwt>
<rscale>  0 0.14134365E+04</rscale>
<asrwt>0</asrwt>
<pdfrwt beam="1">  1        3 0.42789338E-01 0.14134365E+04</pdfrwt>
<pdfrwt beam="2">  1       -3 0.27626784E+00 0.14134365E+04</pdfrwt>
<totfact> 0.71892539E-01</totfact>
</mgrwt>
</event>
<event>
12    1  0.1556559E-007  0.1659770E+04  0.7818608E-02  0.8784648E-01
         -1   -1    0    0    0  501 -0.00000000000E+00  0.00000000000E+00  0.24039736125E+03  0.24039736125E+03  0.00000000000E+00 0. -1.
          1   -1    0    0  501    0  0.00000000000E+00 -0.00000000000E+00 -0.28648778568E+04  0.28648778568E+04  0.00000000000E+00 0.  1.
         23    2    1    2    0    0 -0.19110691230E+03  0.49477588253E+03 -0.77407261284E+03  0.94270593076E+03  0.90449080002E+02 0.  0.
        254    2    1    2    0    0  0.19110691230E+03 -0.49477588253E+03 -0.18504078827E+04  0.21625692873E+04  0.98558184036E+03 0.  0.
        -24    2    4    4    0    0  0.22261873929E+03  0.14242743978E+03 -0.12592273854E+04  0.12890902046E+04  0.79090257106E+02 0.  0.
         24    2    4    4    0    0 -0.31511826990E+02 -0.63720332231E+03 -0.59118049735E+03  0.87347908272E+03  0.80313500101E+02 0.  0.
         11    1    3    3    0    0 -0.74753511379E+02  0.11735935282E+03 -0.15412236487E+03  0.20764153850E+03  0.00000000000E+00 0. -1.
        -11    1    3    3    0    0 -0.11635340092E+03  0.37741652971E+03 -0.61995024798E+03  0.73506439226E+03  0.00000000000E+00 0.  1.
          4    1    6    6  502    0  0.12866686969E+02 -0.43768262601E+03 -0.42242845508E+03  0.60842208409E+03  0.00000000000E+00 0. -1.
          3    1    5    5  503    0 -0.98118172363E+00 -0.11965226734E+01 -0.91145323966E+02  0.91158458000E+02  0.00000000000E+00 0. -1.
         -4    1    5    5    0  503  0.22359992101E+03  0.14362396245E+03 -0.11680820614E+04  0.11979317466E+04  0.00000000000E+00 0.  1.
         -3    1    6    6    0  502 -0.44378513958E+02 -0.19952069630E+03 -0.16875204227E+03  0.26505699863E+03  0.00000000000E+00 0.  1.
<mgrwt>
<rscale>  0 0.16597700E+04</rscale>
<asrwt>0</asrwt>
<pdfrwt beam="1">  1        1 0.44075046E+00 0.16597700E+04</pdfrwt>
<pdfrwt beam="2">  1       -1 0.36984208E-01 0.16597700E+04</pdfrwt>
<totfact> 0.50410785E+00</totfact>
</mgrwt>
</event>
<event>
12    1  0.1556559E-007  0.2040445E+04  0.7818608E-02  0.8587942E-01
         -1   -1    0    0    0  501 -0.00000000000E+00  0.00000000000E+00  0.78912921148E+03  0.78912921148E+03  0.00000000000E+00 0.  1.
          1   -1    0    0  501    0  0.00000000000E+00 -0.00000000000E+00 -0.13189900127E+04  0.13189900127E+04  0.00000000000E+00 0. -1.
         23    2    1    2    0    0  0.40702341013E+03 -0.69735103736E+03 -0.83779267661E+02  0.81666365528E+03  0.89185393813E+02 0.  0.
        254    2    1    2    0    0 -0.40702341013E+03  0.69735103736E+03 -0.44608153356E+03  0.12914555689E+04  0.90382643586E+03 0.  0.
        -24    2    4    4    0    0 -0.26523408704E+03  0.86028247728E+03 -0.14949238884E+03  0.91607470506E+03  0.80061409474E+02 0.  0.
         24    2    4    4    0    0 -0.14178932309E+03 -0.16293143992E+03 -0.29658914471E+03  0.37538086384E+03  0.79339812944E+02 0.  0.
         13    1    3    3    0    0  0.10010730214E+03 -0.12542619453E+03 -0.43863337921E+02  0.16636464357E+03  0.00000000000E+00 0. -1.
        -13    1    3    3    0    0  0.30691610799E+03 -0.57192484283E+03 -0.39915929740E+02  0.65029901171E+03  0.00000000000E+00 0.  1.
          4    1    6    6  502    0 -0.13587983568E+03 -0.16673124965E+03 -0.29866622412E+03  0.36805455137E+03  0.00000000000E+00 0. -1.
          1    1    5    5  503    0 -0.14621727120E+03  0.45790763031E+03 -0.39591492144E+02  0.48231356455E+03  0.00000000000E+00 0. -1.
         -2    1    5    5    0  503 -0.11901681584E+03  0.40237484697E+03 -0.10990089670E+03  0.43376114052E+03  0.00000000000E+00 0.  1.
         -3    1    6    6    0  502 -0.59094874097E+01  0.37998097315E+01  0.20770794113E+01  0.73263124641E+01  0.00000000000E+00 0.  1.
<mgrwt>
<rscale>  0 0.20404446E+04</rscale>
<asrwt>0</asrwt>
<pdfrwt beam="1">  1        1 0.20292154E+00 0.20404446E+04</pdfrwt>
<pdfrwt beam="2">  1       -1 0.12140449E+00 0.20404446E+04</pdfrwt>
<totfact> 0.48762687E+00</totfact>
</mgrwt>
</event>
<event>
12    1  0.1556559E-007  0.1388288E+04  0.7818608E-02  0.8962340E-01
          2   -1    0    0  501    0  0.00000000000E+00  0.00000000000E+00  0.29191394670E+04  0.29191394670E+04  0.00000000000E+00 0. -1.
         -2   -1    0    0    0  501 -0.00000000000E+00 -0.00000000000E+00 -0.16506088431E+03  0.16506088431E+03  0.00000000000E+00 0.  1.
         23    2    1    2    0    0  0.13967548602E+03 -0.12558689008E+03  0.30829322219E+02  0.21299114019E+03  0.95569191346E+02 0.  0.
        254    2    1    2    0    0 -0.13967548602E+03  0.12558689008E+03  0.27232492605E+04  0.28712092111E+04  0.89021036333E+03 0.  0.
        -24    2    4    4    0    0 -0.44078146734E+03  0.31283576413E+03  0.16458678907E+04  0.17341986312E+04  0.80057865319E+02 0.  0.
         24    2    4    4    0    0  0.30110598131E+03 -0.18724887405E+03  0.10773813698E+04  0.11370105799E+04  0.79470056818E+02 0.  0.
         13    1    3    3    0    0  0.18134954813E+02  0.13887708203E+02 -0.75387720758E+01  0.24053650651E+02  0.00000000000E+00 0. -1.
        -13    1    3    3    0    0  0.12154053121E+03 -0.13947459828E+03  0.38368094295E+02  0.18893748954E+03  0.00000000000E+00 0.  1.
          4    1    6    6  502    0  0.71969453245E+01 -0.19078710955E+02  0.11500757180E+03  0.11680126201E+03  0.00000000000E+00 0. -1.
          3    1    5    5  503    0 -0.10420465906E+03  0.62477480233E+02  0.27639308861E+03  0.30191917120E+03  0.00000000000E+00 0. -1.
         -2    1    5    5    0  503 -0.33657680828E+03  0.25035828390E+03  0.13694748021E+04  0.14322794600E+04  0.00000000000E+00 0.  1.
         -3    1    6    6    0  502  0.29390903599E+03 -0.16817016310E+03  0.96237379800E+03  0.10202093179E+04  0.00000000000E+00 0.  1.
<mgrwt>
<rscale>  0 0.13882878E+04</rscale>
<asrwt>0</asrwt>
<pdfrwt beam="1">  1        2 0.44909834E+00 0.13882878E+04</pdfrwt>
<pdfrwt beam="2">  1       -2 0.25393984E-01 0.13882878E+04</pdfrwt>
<totfact> 0.26779373E+01</totfact>
</mgrwt>
</event>
<event>
12    1  0.1556559E-007  0.1317019E+04  0.7818608E-02  0.9016177E-01
         -1   -1    0    0    0  501 -0.00000000000E+00  0.00000000000E+00  0.66615937814E+03  0.66615937814E+03  0.00000000000E+00 0.  1.
          1   -1    0    0  501    0  0.00000000000E+00 -0.00000000000E+00 -0.65094703481E+03  0.65094703481E+03  0.00000000000E+00 0. -1.
         23    2    1    2    0    0  0.28321200758E+03 -0.13042733329E+03  0.15537266820E+03  0.36062847337E+03  0.93230355954E+02 0.  0.
        254    2    1    2    0    0 -0.28321200758E+03  0.13042733329E+03 -0.14016032486E+03  0.95647793958E+03  0.89329995059E+03 0.  0.
        -24    2    4    4    0    0 -0.34432586365E+03  0.43053393700E+03  0.91378629445E+02  0.56427377996E+03  0.78326710211E+02 0.  0.
         24    2    4    4    0    0  0.61113856071E+02 -0.30010660371E+03 -0.23153895431E+03  0.39220415963E+03  0.80093311014E+02 0.  0.
         13    1    3    3    0    0  0.12746025836E+03 -0.96217570439E+02  0.42496096735E+02  0.16525694103E+03  0.00000000000E+00 0. -1.
        -13    1    3    3    0    0  0.15575174923E+03 -0.34209762853E+02  0.11287657147E+03  0.19537153234E+03  0.00000000000E+00 0.  1.
          2    1    6    6  502    0  0.63371350562E+02 -0.29582428691E+03 -0.23743025574E+03  0.38457907267E+03  0.00000000000E+00 0. -1.
          1    1    5    5  503    0 -0.31689205212E+03  0.37221321875E+03  0.10084259718E+03  0.49913172841E+03  0.00000000000E+00 0. -1.
         -2    1    5    5    0  503 -0.27433811538E+02  0.58320718257E+02 -0.94639677371E+01  0.65142051540E+02  0.00000000000E+00 0.  1.
         -1    1    6    6    0  502 -0.22574944912E+01 -0.42823168002E+01  0.58913014256E+01  0.76250869531E+01  0.00000000000E+00 0.  1.
<mgrwt>
<rscale>  0 0.13170186E+04</rscale>
<asrwt>0</asrwt>
<pdfrwt beam="1">  1        1 0.10014570E+00 0.13170186E+04</pdfrwt>
<pdfrwt beam="2">  1       -1 0.10248606E+00 0.13170186E+04</pdfrwt>
<totfact> 0.26873062E+01</totfact>
</mgrwt>
</event>
<event>
12    1  0.1556559E-007  0.2453436E+04  0.7818608E-02  0.8419764E-01
         -2   -1    0    0    0  501 -0.00000000000E+00  0.00000000000E+00  0.14003129180E+04  0.14003129180E+04  0.00000000000E+00 0.  1.
          2   -1    0    0  501    0  0.00000000000E+00 -0.00000000000E+00 -0.10746435982E+04  0.10746435982E+04  0.00000000000E+00 0. -1.
         23    2    1    2    0    0 -0.68372242411E+03  0.54194470244E+03  0.72998858755E+03  0.11411438601E+04  0.90252744340E+02 0.  0.
        254    2    1    2    0    0  0.68372242411E+03 -0.54194470244E+03 -0.40431926771E+03  0.13338126561E+04  0.92433852971E+03 0.  0.
        -24    2    4    4    0    0  0.53529880320E+03 -0.64284758520E+03  0.45175677929E+02  0.84241167722E+03  0.88423783762E+02 0.  0.
         24    2    4    4    0    0  0.14842362090E+03  0.10090288277E+03 -0.44949494564E+03  0.49140097884E+03  0.84960301648E+02 0.  0.
         11    1    3    3    0    0 -0.31627111092E+03  0.21399301408E+03  0.27445984663E+03  0.47026442890E+03  0.00000000000E+00 0.  1.
        -11    1    3    3    0    0 -0.36745131319E+03  0.32795168836E+03  0.45552874091E+03  0.67087943124E+03  0.00000000000E+00 0. -1.
          4    1    6    6  502    0  0.13013691645E+03  0.85799213594E+02 -0.28180620774E+03  0.32204325920E+03  0.00000000000E+00 0. -1.
          3    1    5    5  503    0  0.46986008300E+03 -0.51322406059E+03  0.43829875253E+02  0.69720046753E+03  0.00000000000E+00 0. -1.
         -4    1    5    5    0  503  0.65438720204E+02 -0.12962352461E+03  0.13458026760E+01  0.14521120969E+03  0.00000000000E+00 0.  1.
         -3    1    6    6    0  502  0.18286704452E+02  0.15103669172E+02 -0.16768873790E+03  0.16935771964E+03  0.00000000000E+00 0.  1.
<mgrwt>
<rscale>  0 0.24534362E+04</rscale>
<asrwt>0</asrwt>
<pdfrwt beam="1">  1        2 0.16532978E+00 0.24534362E+04</pdfrwt>
<pdfrwt beam="2">  1       -2 0.21543276E+00 0.24534362E+04</pdfrwt>
<totfact> 0.21370140E+00</totfact>
</mgrwt>
</event>
<event>
12    1  0.1556559E-007  0.3706546E+04  0.7818608E-02  0.8066513E-01
          2   -1    0    0  501    0  0.00000000000E+00  0.00000000000E+00  0.25436193600E+04  0.25436193600E+04  0.00000000000E+00 0.  1.
         -2   -1    0    0    0  501 -0.00000000000E+00 -0.00000000000E+00 -0.13502887577E+04  0.13502887577E+04  0.00000000000E+00 0. -1.
         23    2    1    2    0    0 -0.10026217904E+04  0.38306030228E+03 -0.88231630840E+03  0.13927635751E+04  0.96553913076E+02 0.  0.
        254    2    1    2    0    0  0.10026217904E+04 -0.38306030228E+03  0.20756469107E+04  0.25011445426E+04  0.89186785747E+03 0.  0.
        -24    2    4    4    0    0  0.19824185234E+03  0.10946266263E+03  0.23819994327E+02  0.24150663939E+03  0.80474581143E+02 0.  0.
         24    2    4    4    0    0  0.80437993809E+03 -0.49252296490E+03  0.20518269164E+04  0.22596379032E+04  0.79773448266E+02 0.  0.
         11    1    3    3    0    0 -0.43795651829E+03  0.15077440323E+03 -0.43952465357E+03  0.63853015095E+03  0.00000000000E+00 0.  1.
        -11    1    3    3    0    0 -0.56466527214E+03  0.23228589905E+03 -0.44279165483E+03  0.75423342411E+03  0.00000000000E+00 0. -1.
          4    1    6    6  502    0  0.33261450234E+03 -0.20491093487E+03  0.94489158044E+03  0.10224680910E+04  0.00000000000E+00 0. -1.
          1    1    5    5  503    0  0.13058980623E+03  0.39791940731E+02 -0.14120250940E+02  0.13724604739E+03  0.00000000000E+00 0. -1.
         -2    1    5    5    0  503  0.67652046112E+02  0.69670721895E+02  0.37940245266E+02  0.10426059200E+03  0.00000000000E+00 0.  1.
         -3    1    6    6    0  502  0.47176543575E+03 -0.28761203004E+03  0.11069353360E+04  0.12371698122E+04  0.00000000000E+00 0.  1.
<mgrwt>
<rscale>  0 0.37065459E+04</rscale>
<asrwt>0</asrwt>
<pdfrwt beam="1">  1        2 0.39132605E+00 0.37065459E+04</pdfrwt>
<pdfrwt beam="2">  1       -2 0.20773673E+00 0.37065459E+04</pdfrwt>
<totfact> 0.31414888E-01</totfact>
</mgrwt>
</event>
<event>
12    1  0.1556559E-007  0.1163778E+04  0.7818608E-02  0.9145166E-01
         -1   -1    0    0    0  501 -0.00000000000E+00  0.00000000000E+00  0.19070103392E+03  0.19070103392E+03  0.00000000000E+00 0.  1.
          1   -1    0    0  501    0  0.00000000000E+00 -0.00000000000E+00 -0.17755259110E+04  0.17755259110E+04  0.00000000000E+00 0. -1.
         23    2    1    2    0    0 -0.71885773281E+02 -0.13399035524E+03 -0.64769742647E+03  0.67023189350E+03  0.81103977154E+02 0.  0.
        254    2    1    2    0    0  0.71885773281E+02  0.13399035524E+03 -0.93712745059E+03  0.12959950514E+04  0.88219858020E+03 0.  0.
        -24    2    4    4    0    0 -0.76546070107E+02  0.27370791644E+03 -0.10207027682E+04  0.10624662180E+04  0.78898662520E+02 0.  0.
         24    2    4    4    0    0  0.14843184339E+03 -0.13971756120E+03  0.83575317643E+02  0.23352883340E+03  0.77445937725E+02 0.  0.
         11    1    3    3    0    0 -0.83536259045E+02 -0.12647895021E+03 -0.51586534963E+03  0.53767303296E+03  0.00000000000E+00 0. -1.
        -11    1    3    3    0    0  0.11650485763E+02 -0.75114050309E+01 -0.13183207684E+03  0.13255886054E+03  0.00000000000E+00 0.  1.
          4    1    6    6  502    0  0.15671655473E+03 -0.13858914839E+03  0.77127148152E+02  0.22297001493E+03  0.00000000000E+00 0. -1.
          1    1    5    5  503    0 -0.35653081944E+02  0.21815824973E+03 -0.68622808498E+03  0.72095294492E+03  0.00000000000E+00 0. -1.
         -2    1    5    5    0  503 -0.40892988164E+02  0.55549666711E+02 -0.33447468326E+03  0.34151327308E+03  0.00000000000E+00 0.  1.
         -3    1    6    6    0  502 -0.82847113451E+01 -0.11284128119E+01  0.64481694912E+01  0.10558818463E+02  0.00000000000E+00 0.  1.
<mgrwt>
<rscale>  0 0.11637777E+04</rscale>
<asrwt>0</asrwt>
<pdfrwt beam="1">  1        1 0.27315783E+00 0.11637777E+04</pdfrwt>
<pdfrwt beam="2">  1       -1 0.29338620E-01 0.11637777E+04</pdfrwt>
<totfact> 0.44605766E+01</totfact>
</mgrwt>
</event>
<event>
12    1  0.1556559E-007  0.1217378E+04  0.7818608E-02  0.9097780E-01
         -1   -1    0    0    0  501 -0.00000000000E+00  0.00000000000E+00  0.20830002891E+03  0.20830002891E+03  0.00000000000E+00 0.  1.
          1   -1    0    0  501    0  0.00000000000E+00 -0.00000000000E+00 -0.17786953546E+04  0.17786953546E+04  0.00000000000E+00 0. -1.
         23    2    1    2    0    0 -0.41074429546E+02  0.97896946375E+02 -0.78303999014E+03  0.79550111520E+03  0.91648662038E+02 0.  0.
        254    2    1    2    0    0  0.41074429546E+02 -0.97896946375E+02 -0.78735533552E+03  0.11914942683E+04  0.88795227692E+03 0.  0.
        -24    2    4    4    0    0  0.18138905366E+02 -0.39508694860E+03 -0.78572320135E+03  0.88256740989E+03  0.71704721088E+02 0.  0.
         24    2    4    4    0    0  0.22935524180E+02  0.29719000222E+03 -0.16321341680E+01  0.30892685838E+03  0.81149271569E+02 0.  0.
         13    1    3    3    0    0 -0.11415642197E+02 -0.13976519796E+01 -0.91313138148E+01  0.14685067580E+02  0.00000000000E+00 0.  1.
        -13    1    3    3    0    0 -0.29658787349E+02  0.99294598355E+02 -0.77390867632E+03  0.78081604762E+03  0.00000000000E+00 0. -1.
          2    1    6    6  502    0  0.24055774638E+01  0.24435928135E+03  0.26220153362E+02  0.24577376106E+03  0.00000000000E+00 0. -1.
          3    1    5    5  503    0 -0.15323739485E+02 -0.30854616523E+03 -0.59115766086E+03  0.66701044449E+03  0.00000000000E+00 0. -1.
         -4    1    5    5    0  503  0.33462644851E+02 -0.86540783370E+02 -0.19456554050E+03  0.21555696541E+03  0.00000000000E+00 0.  1.
         -1    1    6    6    0  502  0.20529946716E+02  0.52830720875E+02 -0.27852287530E+02  0.63153097319E+02  0.00000000000E+00 0.  1.
<mgrwt>
<rscale>  0 0.12173780E+04</rscale>
<asrwt>0</asrwt>
<pdfrwt beam="1">  1        1 0.27364544E+00 0.12173780E+04</pdfrwt>
<pdfrwt beam="2">  1       -1 0.32046158E-01 0.12173780E+04</pdfrwt>
<totfact> 0.37837910E+01</totfact>
</mgrwt>
</event>
<event>
12    1  0.1556559E-007  0.1829331E+04  0.7818608E-02  0.8690855E-01
         -2   -1    0    0    0  501 -0.00000000000E+00  0.00000000000E+00  0.67658600038E+03  0.67658600038E+03  0.00000000000E+00 0.  1.
          2   -1    0    0  501    0  0.00000000000E+00 -0.00000000000E+00 -0.12365211833E+04  0.12365211833E+04  0.00000000000E+00 0. -1.
         23    2    1    2    0    0  0.27544964384E+03  0.46310569612E+03  0.23507223395E+03  0.59519866579E+03  0.93075799827E+02 0.  0.
        254    2    1    2    0    0 -0.27544964384E+03 -0.46310569612E+03 -0.79500741682E+03  0.13179085179E+04  0.90250023632E+03 0.  0.
        -24    2    4    4    0    0 -0.46736031071E+03 -0.19669881866E+03 -0.83218501583E+03  0.97817157688E+03  0.84685582932E+02 0.  0.
         24    2    4    4    0    0  0.19191066688E+03 -0.26640687746E+03  0.37177599003E+02  0.33973694097E+03  0.78972696397E+02 0.  0.
         11    1    3    3    0    0  0.12234526947E+03  0.12654662558E+03  0.58770162318E+02  0.18557032463E+03  0.00000000000E+00 0. -1.
        -11    1    3    3    0    0  0.15310437437E+03  0.33655907054E+03  0.17630207164E+03  0.40962834115E+03  0.00000000000E+00 0.  1.
          2    1    6    6  502    0  0.59450972302E+02 -0.78163345944E+02  0.47999252667E+02  0.10930624416E+03  0.00000000000E+00 0. -1.
          3    1    5    5  503    0 -0.42066003600E+03 -0.20277672763E+03 -0.75785733064E+03  0.89018031924E+03  0.00000000000E+00 0. -1.
         -4    1    5    5    0  503 -0.46700274718E+02  0.60779089732E+01 -0.74327685188E+02  0.87991257643E+02  0.00000000000E+00 0.  1.
         -1    1    6    6    0  502  0.13245969458E+03 -0.18824353151E+03 -0.10821653664E+02  0.23043069681E+03  0.00000000000E+00 0.  1.
<mgrwt>
<rscale>  0 0.18293309E+04</rscale>
<asrwt>0</asrwt>
<pdfrwt beam="1">  1        2 0.19023403E+00 0.18293309E+04</pdfrwt>
<pdfrwt beam="2">  1       -2 0.10409015E+00 0.18293309E+04</pdfrwt>
<totfact> 0.12738540E+01</totfact>
</mgrwt>
</event>
<event>
12    1  0.1556559E-007  0.1348854E+04  0.7818608E-02  0.8991696E-01
         -2   -1    0    0    0  501 -0.00000000000E+00  0.00000000000E+00  0.22526537963E+03  0.22526537963E+03  0.00000000000E+00 0.  1.
          2   -1    0    0  501    0  0.00000000000E+00 -0.00000000000E+00 -0.20191819840E+04  0.20191819840E+04  0.00000000000E+00 0. -1.
         23    2    1    2    0    0  0.28860480119E+03 -0.20287990519E+03 -0.95342307217E+03  0.10206872960E+04  0.91290823434E+02 0.  0.
        254    2    1    2    0    0 -0.28860480119E+03  0.20287990519E+03 -0.84049353224E+03  0.12237600677E+04  0.81652087441E+03 0.  0.
        -24    2    4    4    0    0 -0.68640085703E+02  0.44864570170E+03 -0.20719924425E+03  0.50527656166E+03  0.79865198464E+02 0.  0.
         24    2    4    4    0    0 -0.21996471548E+03 -0.24576579651E+03 -0.63329428799E+03  0.71848350603E+03  0.79822242844E+02 0.  0.
         13    1    3    3    0    0  0.24037600170E+01  0.72756390405E+01 -0.39006865094E+02  0.39752339681E+02  0.00000000000E+00 0.  1.
        -13    1    3    3    0    0  0.28620104117E+03 -0.21015554423E+03 -0.91441620707E+03  0.98093495630E+03  0.00000000000E+00 0. -1.
          4    1    6    6  502    0 -0.10985521104E+03 -0.89326524730E+02 -0.34012032439E+03  0.36841448191E+03  0.00000000000E+00 0. -1.
          3    1    5    5  503    0 -0.36126559231E+02  0.56510226777E+02 -0.36560808009E+02  0.76388655536E+02  0.00000000000E+00 0. -1.
         -4    1    5    5    0  503 -0.32513526472E+02  0.39213547492E+03 -0.17063843624E+03  0.42888790612E+03  0.00000000000E+00 0.  1.
         -3    1    6    6    0  502 -0.11010950445E+03 -0.15643927178E+03 -0.29317396359E+03  0.35006902413E+03  0.00000000000E+00 0.  1.
<mgrwt>
<rscale>  0 0.13488540E+04</rscale>
<asrwt>0</asrwt>
<pdfrwt beam="1">  1        2 0.31064338E+00 0.13488540E+04</pdfrwt>
<pdfrwt beam="2">  1       -2 0.34656213E-01 0.13488540E+04</pdfrwt>
<totfact> 0.49756051E+01</totfact>
</mgrwt>
</event>
<event>
12    1  0.1556559E-007  0.1209815E+04  0.7818608E-02  0.9104308E-01
          2   -1    0    0  501    0  0.00000000000E+00  0.00000000000E+00  0.28661015954E+03  0.28661015954E+03  0.00000000000E+00 0. -1.
         -2   -1    0    0    0  501 -0.00000000000E+00 -0.00000000000E+00 -0.12766931053E+04  0.12766931053E+04  0.00000000000E+00 0.  1.
         23    2    1    2    0    0  0.73850710782E+02  0.54493731103E+02  0.82339034018E+02  0.15275145567E+03  0.90165384017E+02 0.  0.
        254    2    1    2    0    0 -0.73850710782E+02 -0.54493731103E+02 -0.10724219798E+04  0.14105518092E+04  0.91167099845E+03 0.  0.
        -24    2    4    4    0    0  0.27551939162E+03  0.16765964742E+03 -0.93616762590E+02  0.34462947458E+03  0.77360739262E+02 0.  0.
         24    2    4    4    0    0 -0.34937010240E+03 -0.22215337853E+03 -0.97880521719E+03  0.10659223346E+04  0.81970593115E+02 0.  0.
         13    1    3    3    0    0  0.43732490959E+01 -0.20171384783E+02 -0.15431397705E+01  0.20697617062E+02  0.00000000000E+00 0.  1.
        -13    1    3    3    0    0  0.69477461686E+02  0.74665115886E+02  0.83882173789E+02  0.13205383861E+03  0.00000000000E+00 0. -1.
          2    1    6    6  502    0 -0.91949949158E+02 -0.49821478963E+02 -0.16726568424E+03  0.19726829963E+03  0.00000000000E+00 0. -1.
          3    1    5    5  503    0  0.12871497131E+03  0.87155417939E+02 -0.84555442802E+02  0.17695545661E+03  0.00000000000E+00 0. -1.
         -4    1    5    5    0  503  0.14680442030E+03  0.80504229485E+02 -0.90613197882E+01  0.16767401797E+03  0.00000000000E+00 0.  1.
         -1    1    6    6    0  502 -0.25742015324E+03 -0.17233189956E+03 -0.81153953296E+03  0.86865403496E+03  0.00000000000E+00 0.  1.
<mgrwt>
<rscale>  0 0.12098152E+04</rscale>
<asrwt>0</asrwt>
<pdfrwt beam="1">  1        2 0.44093871E-01 0.12098152E+04</pdfrwt>
<pdfrwt beam="2">  1       -2 0.19641432E+00 0.12098152E+04</pdfrwt>
<totfact> 0.15989219E+01</totfact>
</mgrwt>
</event>
<event>
12    1  0.1556559E-007  0.2057138E+04  0.7818608E-02  0.8580363E-01
          1   -1    0    0  501    0  0.00000000000E+00  0.00000000000E+00  0.17062229786E+04  0.17062229786E+04  0.00000000000E+00 0. -1.
         -1   -1    0    0    0  501 -0.00000000000E+00 -0.00000000000E+00 -0.62005648646E+03  0.62005648646E+03  0.00000000000E+00 0.  1.
         23    2    1    2    0    0 -0.77041796457E+03 -0.89610180981E+02  0.10789956032E+03  0.78867160172E+03  0.93737695641E+02 0.  0.
        254    2    1    2    0    0  0.77041796457E+03  0.89610180981E+02  0.97826693181E+03  0.15376078633E+04  0.89758449564E+03 0.  0.
        -24    2    4    4    0    0 -0.54996982879E+02  0.53213059670E+02  0.62536328958E+03  0.63566369700E+03  0.84455869490E+02 0.  0.
         24    2    4    4    0    0  0.82541494745E+03  0.36397121310E+02  0.35290364224E+03  0.90194416632E+03  0.79546920440E+02 0.  0.
         13    1    3    3    0    0 -0.58185570392E+03 -0.54017578907E+02  0.42340776697E+02  0.58588966571E+03  0.00000000000E+00 0.  1.
        -13    1    3    3    0    0 -0.18856226065E+03 -0.35592602073E+02  0.65558783625E+02  0.20278193601E+03  0.00000000000E+00 0. -1.
          4    1    6    6  502    0  0.54576663726E+03  0.23908367871E+02  0.27374833953E+03  0.61104090354E+03  0.00000000000E+00 0. -1.
          1    1    5    5  503    0 -0.75233338886E+02  0.30251960291E+02  0.39175318779E+03  0.40005724156E+03  0.00000000000E+00 0. -1.
         -2    1    5    5    0  503  0.20236356007E+02  0.22961099380E+02  0.23361010179E+03  0.23560645545E+03  0.00000000000E+00 0.  1.
         -3    1    6    6    0  502  0.27964831019E+03  0.12488753440E+02  0.79155302708E+02  0.29090326279E+03  0.00000000000E+00 0.  1.
<mgrwt>
<rscale>  0 0.20571384E+04</rscale>
<asrwt>0</asrwt>
<pdfrwt beam="1">  1        1 0.26249584E+00 0.20571384E+04</pdfrwt>
<pdfrwt beam="2">  1       -1 0.95393306E-01 0.20571384E+04</pdfrwt>
<totfact> 0.46212501E+00</totfact>
</mgrwt>
</event>
<event>
12    1  0.1556559E-007  0.1491506E+04  0.7818608E-02  0.8890121E-01
         -1   -1    0    0    0  501 -0.00000000000E+00  0.00000000000E+00  0.18468642176E+03  0.18468642176E+03  0.00000000000E+00 0.  1.
          1   -1    0    0  501    0  0.00000000000E+00 -0.00000000000E+00 -0.30113086014E+04  0.30113086014E+04  0.00000000000E+00 0. -1.
         23    2    1    2    0    0 -0.12612240906E+03  0.43149299079E+03 -0.11673830242E+04  0.12554326478E+04  0.10599502214E+03 0.  0.
        254    2    1    2    0    0  0.12612240906E+03 -0.43149299079E+03 -0.16592391555E+04  0.19405623754E+04  0.90034143228E+03 0.  0.
        -24    2    4    4    0    0 -0.20756119329E+03  0.41554609641E+02 -0.54556971812E+02  0.23292998094E+03  0.80445498993E+02 0.  0.
         24    2    4    4    0    0  0.33368360235E+03 -0.47304760043E+03 -0.16046821836E+04  0.17076323945E+04  0.76711833301E+02 0.  0.
         13    1    3    3    0    0 -0.24151105347E+02  0.11330991849E+03 -0.19021694222E+03  0.22272157198E+03  0.00000000000E+00 0.  1.
        -13    1    3    3    0    0 -0.10197130371E+03  0.31818307230E+03 -0.97716608197E+03  0.10327110758E+04  0.00000000000E+00 0. -1.
          4    1    6    6  502    0  0.10575420822E+03 -0.17853818862E+03 -0.67350261029E+03  0.70474506271E+03  0.00000000000E+00 0. -1.
          3    1    5    5  503    0 -0.72131930226E+01 -0.66967420803E+00 -0.25036736179E+02  0.26063706099E+02  0.00000000000E+00 0. -1.
         -4    1    5    5    0  503 -0.20034800026E+03  0.42224283849E+02 -0.29520235633E+02  0.20686627484E+03  0.00000000000E+00 0.  1.
         -3    1    6    6    0  502  0.22792939413E+03 -0.29450941181E+03 -0.93117957335E+03  0.10028873317E+04  0.00000000000E+00 0.  1.
<mgrwt>
<rscale>  0 0.14915064E+04</rscale>
<asrwt>0</asrwt>
<pdfrwt beam="1">  1        1 0.46327826E+00 0.14915064E+04</pdfrwt>
<pdfrwt beam="2">  1       -1 0.28413295E-01 0.14915064E+04</pdfrwt>
<totfact> 0.64128010E+00</totfact>
</mgrwt>
</event>
<event>
12    1  0.1556559E-007  0.1260446E+04  0.7818608E-02  0.9061534E-01
         -1   -1    0    0    0  501 -0.00000000000E+00  0.00000000000E+00  0.26982696950E+03  0.26982696950E+03  0.00000000000E+00 0.  1.
          1   -1    0    0  501    0  0.00000000000E+00 -0.00000000000E+00 -0.14719832593E+04  0.14719832593E+04  0.00000000000E+00 0. -1.
         23    2    1    2    0    0 -0.17870607547E+03 -0.17786521323E+03 -0.79428847940E+02  0.27892496439E+03  0.88984821110E+02 0.  0.
        254    2    1    2    0    0  0.17870607547E+03  0.17786521323E+03 -0.11227274419E+04  0.14628852644E+04  0.90329645888E+03 0.  0.
        -24    2    4    4    0    0 -0.43256174606E+02  0.51055150735E+03 -0.51469576200E+03  0.73064299941E+03  0.79959532695E+02 0.  0.
         24    2    4    4    0    0  0.22196225008E+03 -0.33268629412E+03 -0.60803167986E+03  0.73224226499E+03  0.80800991164E+02 0.  0.
         11    1    3    3    0    0 -0.11957215450E+03 -0.16223576071E+03 -0.82294832360E+02  0.21769332011E+03  0.00000000000E+00 0. -1.
        -11    1    3    3    0    0 -0.59133920969E+02 -0.15629452520E+02  0.28659844205E+01  0.61231644286E+02  0.00000000000E+00 0.  1.
          2    1    6    6  502    0  0.15434130902E+03 -0.28326163319E+03 -0.50811417010E+03  0.60186244472E+03  0.00000000000E+00 0. -1.
          3    1    5    5  503    0 -0.21476545220E+02  0.33027280165E+03 -0.27745731767E+03  0.43188416113E+03  0.00000000000E+00 0. -1.
         -4    1    5    5    0  503 -0.21779629386E+02  0.18027870570E+03 -0.23723844433E+03  0.29875883828E+03  0.00000000000E+00 0.  1.
         -1    1    6    6    0  502  0.67620941059E+02 -0.49424660928E+02 -0.99917509757E+02  0.13037982027E+03  0.00000000000E+00 0.  1.
<mgrwt>
<rscale>  0 0.12604456E+04</rscale>
<asrwt>0</asrwt>
<pdfrwt beam="1">  1        1 0.22645896E+00 0.12604456E+04</pdfrwt>
<pdfrwt beam="2">  1       -1 0.41511843E-01 0.12604456E+04</pdfrwt>
<totfact> 0.38347015E+01</totfact>
</mgrwt>
</event>
<event>
12    1  0.1556559E-007  0.3033084E+04  0.7818608E-02  0.8234346E-01
          2   -1    0    0  501    0  0.00000000000E+00  0.00000000000E+00  0.19893105184E+04  0.19893105184E+04  0.00000000000E+00 0. -1.
         -2   -1    0    0    0  501 -0.00000000000E+00 -0.00000000000E+00 -0.11561287019E+04  0.11561287019E+04  0.00000000000E+00 0.  1.
         23    2    1    2    0    0  0.11813034654E+04 -0.78759992640E+02  0.11134299241E+04  0.16278933291E+04  0.92894999872E+02 0.  0.
        254    2    1    2    0    0 -0.11813034654E+04  0.78759992640E+02 -0.28024810760E+03  0.15175458912E+04  0.90704217994E+03 0.  0.
        -24    2    4    4    0    0 -0.10887125643E+04  0.34656556462E+03 -0.37966305216E+03  0.12065854753E+04  0.79383485559E+02 0.  0.
         24    2    4    4    0    0 -0.92590901094E+02 -0.26780557198E+03  0.99414944562E+02  0.31096041586E+03  0.80747443805E+02 0.  0.
         11    1    3    3    0    0  0.99984176387E+03 -0.66147719876E+02  0.98604541382E+03  0.14058252494E+04  0.00000000000E+00 0. -1.
        -11    1    3    3    0    0  0.18146170157E+03 -0.12612272764E+02  0.12738451029E+03  0.22206807970E+03  0.00000000000E+00 0.  1.
          4    1    6    6  502    0 -0.91323944313E+02 -0.27031918511E+03  0.87098572602E+02  0.29832647551E+03  0.00000000000E+00 0. -1.
          1    1    5    5  503    0 -0.48750041668E+03  0.18862657471E+03 -0.14878870039E+03  0.54348387125E+03  0.00000000000E+00 0. -1.
         -2    1    5    5    0  503 -0.60121214767E+03  0.15793898991E+03 -0.23087435177E+03  0.66310160409E+03  0.00000000000E+00 0.  1.
         -3    1    6    6    0  502 -0.12669567810E+01  0.25136131287E+01  0.12316371960E+02  0.12633940348E+02  0.00000000000E+00 0.  1.
<mgrwt>
<rscale>  0 0.30330836E+04</rscale>
<asrwt>0</asrwt>
<pdfrwt beam="1">  1        2 0.30604777E+00 0.30330836E+04</pdfrwt>
<pdfrwt beam="2">  1       -2 0.17786595E+00 0.30330836E+04</pdfrwt>
<totfact> 0.10849678E+00</totfact>
</mgrwt>
</event>
<event>
12    1  0.1556559E-007  0.2420120E+04  0.7818608E-02  0.8432009E-01
         -2   -1    0    0    0  501 -0.00000000000E+00  0.00000000000E+00  0.68017738713E+03  0.68017738713E+03  0.00000000000E+00 0. -1.
          2   -1    0    0  501    0  0.00000000000E+00 -0.00000000000E+00 -0.21527397961E+04  0.21527397961E+04  0.00000000000E+00 0.  1.
         23    2    1    2    0    0 -0.66172216530E+03 -0.68795970657E+03 -0.15675285136E+03  0.97246806342E+03  0.99789258142E+02 0.  0.
        254    2    1    2    0    0  0.66172216530E+03  0.68795970657E+03 -0.13158095577E+04  0.18604491199E+04  0.90484880153E+03 0.  0.
        -24    2    4    4    0    0  0.58136779953E+03  0.23399262296E+03 -0.22019137778E+03  0.66894303930E+03  0.79116882191E+02 0.  0.
         24    2    4    4    0    0  0.80354365774E+02  0.45396708360E+03 -0.10956181799E+04  0.11915060806E+04  0.82247229859E+02 0.  0.
         11    1    3    3    0    0 -0.20844403664E+02 -0.36668874067E+02  0.10710905210E+02  0.43518030514E+02  0.00000000000E+00 0. -1.
        -11    1    3    3    0    0 -0.64087776164E+03 -0.65129083250E+03 -0.16746375657E+03  0.92895003290E+03  0.00000000000E+00 0.  1.
          4    1    6    6  502    0  0.50836090632E+02  0.30287762220E+03 -0.62557981636E+03  0.69689975518E+03  0.00000000000E+00 0. -1.
          1    1    5    5  503    0  0.52826108475E+03  0.19348528062E+03 -0.21383764823E+03  0.60184953873E+03  0.00000000000E+00 0. -1.
         -2    1    5    5    0  503  0.53106714786E+02  0.40507342349E+02 -0.63537295508E+01  0.67093500570E+02  0.00000000000E+00 0.  1.
         -3    1    6    6    0  502  0.29518275141E+02  0.15108946141E+03 -0.47003836352E+03  0.49460632537E+03  0.00000000000E+00 0.  1.
<mgrwt>
<rscale>  0 0.24201198E+04</rscale>
<asrwt>0</asrwt>
<pdfrwt beam="1">  1        2 0.33119073E+00 0.24201198E+04</pdfrwt>
<pdfrwt beam="2">  1       -2 0.10464268E+00 0.24201198E+04</pdfrwt>
<totfact> 0.36520086E+00</totfact>
</mgrwt>
</event>
<event>
12    1  0.1556559E-007  0.1565963E+04  0.7818608E-02  0.8841735E-01
         -2   -1    0    0    0  501 -0.00000000000E+00  0.00000000000E+00  0.78139040227E+03  0.78139040227E+03  0.00000000000E+00 0.  1.
          2   -1    0    0  501    0  0.00000000000E+00 -0.00000000000E+00 -0.78457576436E+03  0.78457576436E+03  0.00000000000E+00 0. -1.
         23    2    1    2    0    0  0.24902472726E+03 -0.38917247828E+03 -0.23926658380E+03  0.52780432313E+03  0.88658743285E+02 0.  0.
        254    2    1    2    0    0 -0.24902472726E+03  0.38917247828E+03  0.23608122170E+03  0.10381618435E+04  0.89920917334E+03 0.  0.
        -24    2    4    4    0    0 -0.34992993274E+03 -0.24539347896E+02 -0.21007591254E+03  0.41622131745E+03  0.77814899892E+02 0.  0.
         24    2    4    4    0    0  0.10090520548E+03  0.41371182617E+03  0.44615713424E+03  0.62194052604E+03  0.80090535592E+02 0.  0.
         11    1    3    3    0    0  0.16832428830E+03 -0.18127742870E+03 -0.13043675433E+03  0.27965750315E+03  0.00000000000E+00 0. -1.
        -11    1    3    3    0    0  0.80700438966E+02 -0.20789504957E+03 -0.10882982947E+03  0.24814681999E+03  0.00000000000E+00 0.  1.
          4    1    6    6  502    0  0.94402527227E+02  0.21949961432E+03  0.25052958468E+03  0.34620368374E+03  0.00000000000E+00 0. -1.
          3    1    5    5  503    0 -0.29344511630E+03 -0.31116648419E+02 -0.14187977025E+03  0.32742655863E+03  0.00000000000E+00 0. -1.
         -4    1    5    5    0  503 -0.56484816441E+02  0.65773005232E+01 -0.68196142290E+02  0.88794758819E+02  0.00000000000E+00 0.  1.
         -3    1    6    6    0  502  0.65026782556E+01  0.19421221185E+03  0.19562754956E+03  0.27573684230E+03  0.00000000000E+00 0.  1.
<mgrwt>
<rscale>  0 0.15659629E+04</rscale>
<asrwt>0</asrwt>
<pdfrwt beam="1">  1        2 0.12070396E+00 0.15659629E+04</pdfrwt>
<pdfrwt beam="2">  1       -2 0.12021391E+00 0.15659629E+04</pdfrwt>
<totfact> 0.17964702E+01</totfact>
</mgrwt>
</event>
<event>
12    1  0.1556559E-007  0.1953009E+04  0.7818608E-02  0.8628911E-01
          1   -1    0    0  501    0  0.00000000000E+00  0.00000000000E+00  0.14981920138E+04  0.14981920138E+04  0.00000000000E+00 0. -1.
         -1   -1    0    0    0  501 -0.00000000000E+00 -0.00000000000E+00 -0.63647437193E+03  0.63647437193E+03  0.00000000000E+00 0.  1.
         23    2    1    2    0    0 -0.74550346210E+02 -0.17947979185E+03 -0.49220017754E+03  0.53693776963E+03  0.90941760933E+02 0.  0.
        254    2    1    2    0    0  0.74550346210E+02  0.17947979185E+03  0.13539178194E+04  0.15977286161E+04  0.82575572611E+03 0.  0.
        -24    2    4    4    0    0 -0.27642139302E+03 -0.42031448149E+02  0.16236765934E+03  0.33354707076E+03  0.81944874538E+02 0.  0.
         24    2    4    4    0    0  0.35097173923E+03  0.22151124000E+03  0.11915501601E+04  0.12641815454E+04  0.78197214898E+02 0.  0.
         13    1    3    3    0    0 -0.27201199380E+02 -0.49515616528E+02 -0.26491189064E+03  0.27086899293E+03  0.00000000000E+00 0.  1.
        -13    1    3    3    0    0 -0.47349146830E+02 -0.12996417533E+03 -0.22728828690E+03  0.26606877670E+03  0.00000000000E+00 0. -1.
          4    1    6    6  502    0  0.25461027764E+03  0.16870781526E+03  0.96876333557E+03  0.10157711951E+04  0.00000000000E+00 0. -1.
          1    1    5    5  503    0 -0.66243141545E+02 -0.43725701912E+01  0.18448797618E+01  0.66412926100E+02  0.00000000000E+00 0. -1.
         -2    1    5    5    0  503 -0.21017825147E+03 -0.37658877958E+02  0.16052277957E+03  0.26713414466E+03  0.00000000000E+00 0.  1.
         -3    1    6    6    0  502  0.96361461585E+02  0.52803424739E+02  0.22278682453E+03  0.24841035028E+03  0.00000000000E+00 0.  1.
<mgrwt>
<rscale>  0 0.19530088E+04</rscale>
<asrwt>0</asrwt>
<pdfrwt beam="1">  1        1 0.23049108E+00 0.19530088E+04</pdfrwt>
<pdfrwt beam="2">  1       -1 0.97919135E-01 0.19530088E+04</pdfrwt>
<totfact> 0.61099623E+00</totfact>
</mgrwt>
</event>
<event>
12    1  0.1556559E-007  0.1605592E+04  0.7818608E-02  0.8817120E-01
         -2   -1    0    0    0  501 -0.00000000000E+00  0.00000000000E+00  0.29724617057E+03  0.29724617057E+03  0.00000000000E+00 0.  1.
          2   -1    0    0  501    0  0.00000000000E+00 -0.00000000000E+00 -0.21681732131E+04  0.21681732131E+04  0.00000000000E+00 0. -1.
         23    2    1    2    0    0 -0.47626672249E+03 -0.34549494421E+02 -0.24022942460E+03  0.54236573913E+03  0.91797385747E+02 0.  0.
        254    2    1    2    0    0  0.47626672249E+03  0.34549494421E+02 -0.16306976179E+04  0.19230536445E+04  0.90052037187E+03 0.  0.
        -24    2    4    4    0    0 -0.42795529060E+02  0.32451111559E+03 -0.25564222425E+03  0.42284516525E+03  0.79411368841E+02 0.  0.
         24    2    4    4    0    0  0.51906225155E+03 -0.28996162117E+03 -0.13750553937E+04  0.15002084793E+04  0.79654145713E+02 0.  0.
         13    1    3    3    0    0 -0.29794617172E+02  0.12999984732E+02 -0.37772178010E+02  0.49834287866E+02  0.00000000000E+00 0. -1.
        -13    1    3    3    0    0 -0.44647210531E+03 -0.47549479153E+02 -0.20245724659E+03  0.49253145127E+03  0.00000000000E+00 0.  1.
          4    1    6    6  502    0  0.17635348502E+03 -0.14248260123E+03 -0.53001720197E+03  0.57647209621E+03  0.00000000000E+00 0. -1.
          1    1    5    5  503    0  0.18225651935E+02  0.13503731976E+03 -0.84534931524E+02  0.16035400451E+03  0.00000000000E+00 0. -1.
         -2    1    5    5    0  503 -0.61021180995E+02  0.18947379583E+03 -0.17110729273E+03  0.26249116073E+03  0.00000000000E+00 0.  1.
         -3    1    6    6    0  502  0.34270876652E+03 -0.14747901994E+03 -0.84503819172E+03  0.92373638309E+03  0.00000000000E+00 0.  1.
<mgrwt>
<rscale>  0 0.16055917E+04</rscale>
<asrwt>0</asrwt>
<pdfrwt beam="1">  1        2 0.33356512E+00 0.16055917E+04</pdfrwt>
<pdfrwt beam="2">  1       -2 0.45730179E-01 0.16055917E+04</pdfrwt>
<totfact> 0.23402986E+01</totfact>
</mgrwt>
</event>
<event>
12    1  0.1556559E-007  0.1895728E+04  0.7818608E-02  0.8656986E-01
         -2   -1    0    0    0  501 -0.00000000000E+00  0.00000000000E+00  0.36186069425E+03  0.36186069425E+03  0.00000000000E+00 0.  1.
          2   -1    0    0  501    0  0.00000000000E+00 -0.00000000000E+00 -0.24828518328E+04  0.24828518328E+04  0.00000000000E+00 0. -1.
         23    2    1    2    0    0  0.53073473790E+03 -0.42143138375E+03 -0.12579706316E+04  0.14318232122E+04  0.91344555782E+02 0.  0.
        254    2    1    2    0    0 -0.53073473790E+03  0.42143138375E+03 -0.86302050694E+03  0.14128893148E+04  0.89003822798E+03 0.  0.
        -24    2    4    4    0    0 -0.47098803489E+02  0.80992259667E+02 -0.80374500080E+03  0.81310582094E+03  0.79730836689E+02 0.  0.
         24    2    4    4    0    0 -0.48363593441E+03  0.34043912408E+03 -0.59275506138E+02  0.59978349387E+03  0.80150730676E+02 0.  0.
         11    1    3    3    0    0  0.87718341950E+01  0.43173091293E+01 -0.12419390957E+02  0.15805869321E+02  0.00000000000E+00 0. -1.
        -11    1    3    3    0    0  0.52196290371E+03 -0.42574869288E+03 -0.12455512406E+04  0.14160173429E+04  0.00000000000E+00 0.  1.
          4    1    6    6  502    0 -0.26337373751E+03  0.22027846886E+03 -0.61790814120E+02  0.34886449255E+03  0.00000000000E+00 0. -1.
          1    1    5    5  503    0 -0.11397906329E+01 -0.14854991213E+02 -0.15451028090E+03  0.15522692032E+03  0.00000000000E+00 0. -1.
         -2    1    5    5    0  503 -0.45959012856E+02  0.95847250880E+02 -0.64923471989E+03  0.65787890062E+03  0.00000000000E+00 0.  1.
         -1    1    6    6    0  502 -0.22026219690E+03  0.12016065522E+03  0.25153079815E+01  0.25091900131E+03  0.00000000000E+00 0.  1.
<mgrwt>
<rscale>  0 0.18957283E+04</rscale>
<asrwt>0</asrwt>
<pdfrwt beam="1">  1        2 0.38197722E+00 0.18957283E+04</pdfrwt>
<pdfrwt beam="2">  1       -2 0.55670874E-01 0.18957283E+04</pdfrwt>
<totfact> 0.10123460E+01</totfact>
</mgrwt>
</event>
<event>
12    1  0.1556559E-007  0.1201231E+04  0.7818608E-02  0.9111780E-01
          2   -1    0    0  501    0  0.00000000000E+00  0.00000000000E+00  0.72408718392E+03  0.72408718392E+03  0.00000000000E+00 0. -1.
         -2   -1    0    0    0  501 -0.00000000000E+00 -0.00000000000E+00 -0.49819847637E+03  0.49819847637E+03  0.00000000000E+00 0.  1.
         23    2    1    2    0    0  0.17934144741E+03  0.39486769015E+02 -0.12670345666E+03  0.23730997017E+03  0.80868388926E+02 0.  0.
        254    2    1    2    0    0 -0.17934144741E+03 -0.39486769015E+02  0.35259216421E+03  0.98497569011E+03  0.90118439631E+03 0.  0.
        -24    2    4    4    0    0 -0.15768247346E+03  0.19966587738E+03 -0.22834276068E+03  0.35130897537E+03  0.80915726514E+02 0.  0.
         24    2    4    4    0    0 -0.21658973944E+02 -0.23915264639E+03  0.58093492489E+03  0.63366671474E+03  0.79906313761E+02 0.  0.
         13    1    3    3    0    0  0.10494612612E+03  0.53668180065E+02 -0.45713856468E+02  0.12642673614E+03  0.00000000000E+00 0. -1.
        -13    1    3    3    0    0  0.74395321289E+02 -0.14181411050E+02 -0.80989600192E+02  0.11088323403E+03  0.00000000000E+00 0.  1.
          2    1    6    6  502    0 -0.20204710409E+02 -0.93274321098E+01  0.69205051375E+02  0.72695051058E+02  0.00000000000E+00 0. -1.
          3    1    5    5  503    0 -0.13401468007E+03  0.15632920613E+03 -0.21982621414E+03  0.30120146013E+03  0.00000000000E+00 0. -1.
         -4    1    5    5    0  503 -0.23667793398E+02  0.43336671246E+02 -0.85165465436E+01  0.50107515245E+02  0.00000000000E+00 0.  1.
         -1    1    6    6    0  502 -0.14542635349E+01 -0.22982521428E+03  0.51172987352E+03  0.56097166368E+03  0.00000000000E+00 0.  1.
<mgrwt>
<rscale>  0 0.12012313E+04</rscale>
<asrwt>0</asrwt>
<pdfrwt beam="1">  1        2 0.11139803E+00 0.12012313E+04</pdfrwt>
<pdfrwt beam="2">  1       -2 0.76645920E-01 0.12012313E+04</pdfrwt>
<totfact> 0.58941519E+01</totfact>
</mgrwt>
</event>
<event>
12    1  0.1556559E-007  0.1930859E+04  0.7818608E-02  0.8639646E-01
          1   -1    0    0  501    0  0.00000000000E+00  0.00000000000E+00  0.13446923673E+04  0.13446923673E+04  0.00000000000E+00 0. -1.
         -1   -1    0    0    0  501 -0.00000000000E+00 -0.00000000000E+00 -0.69313578792E+03  0.69313578792E+03  0.00000000000E+00 0.  1.
         23    2    1    2    0    0 -0.34073306549E+03 -0.20508879658E+03 -0.41778885514E+03  0.58389683776E+03  0.90705861262E+02 0.  0.
        254    2    1    2    0    0  0.34073306549E+03  0.20508879658E+03  0.10693454345E+04  0.14539313175E+04  0.90125256237E+03 0.  0.
        -24    2    4    4    0    0  0.39613019906E+03  0.37688913898E+03  0.24072873331E+03  0.60247766927E+03  0.77874650820E+02 0.  0.
         24    2    4    4    0    0 -0.55397133576E+02 -0.17180034239E+03  0.82861670121E+03  0.85145364819E+03  0.76049177815E+02 0.  0.
         13    1    3    3    0    0 -0.17913604110E+03 -0.12671063259E+03 -0.16852928910E+03  0.27667205662E+03  0.00000000000E+00 0. -1.
        -13    1    3    3    0    0 -0.16159702439E+03 -0.78378163996E+02 -0.24925956604E+03  0.30722478114E+03  0.00000000000E+00 0.  1.
          4    1    6    6  502    0  0.81598528114E+01 -0.34463039269E+02  0.77006685551E+02  0.84760332072E+02  0.00000000000E+00 0. -1.
          3    1    5    5  503    0  0.12584326719E+03  0.97891136611E+02  0.10541698243E+03  0.19113331135E+03  0.00000000000E+00 0. -1.
         -4    1    5    5    0  503  0.27028693187E+03  0.27899800236E+03  0.13531175088E+03  0.41134435792E+03  0.00000000000E+00 0.  1.
         -3    1    6    6    0  502 -0.63556986388E+02 -0.13733730312E+03  0.75161001566E+03  0.76669331612E+03  0.00000000000E+00 0.  1.
<mgrwt>
<rscale>  0 0.19308593E+04</rscale>
<asrwt>0</asrwt>
<pdfrwt beam="1">  1        1 0.20687575E+00 0.19308593E+04</pdfrwt>
<pdfrwt beam="2">  1       -1 0.10663628E+00 0.19308593E+04</pdfrwt>
<totfact> 0.64412184E+00</totfact>
</mgrwt>
</event>
<event>
12    1  0.1556559E-007  0.1891870E+04  0.7818608E-02  0.8658914E-01
         -2   -1    0    0    0  501 -0.00000000000E+00  0.00000000000E+00  0.32643546336E+03  0.32643546336E+03  0.00000000000E+00 0.  1.
          2   -1    0    0  501    0  0.00000000000E+00 -0.00000000000E+00 -0.27411022317E+04  0.27411022317E+04  0.00000000000E+00 0. -1.
         23    2    1    2    0    0 -0.40214689863E+03  0.14616827662E+03  0.18213270948E+02  0.43867315699E+03  0.94947997658E+02 0.  0.
        254    2    1    2    0    0  0.40214689863E+03 -0.14616827662E+03 -0.24328800393E+04  0.26288645381E+04  0.89940879514E+03 0.  0.
        -24    2    4    4    0    0  0.16858410588E+03 -0.24500945253E+03 -0.17259516071E+03  0.35272623023E+03  0.78590530044E+02 0.  0.
         24    2    4    4    0    0  0.23356279275E+03  0.98841175910E+02 -0.22602848786E+04  0.22761383078E+04  0.87159094972E+02 0.  0.
         11    1    3    3    0    0 -0.11062500917E+03  0.66014640759E+02 -0.30622083513E+02  0.13241426452E+03  0.00000000000E+00 0. -1.
        -11    1    3    3    0    0 -0.29152188946E+03  0.80153635857E+02  0.48835354461E+02  0.30625889247E+03  0.00000000000E+00 0.  1.
          2    1    6    6  502    0  0.17706153017E+03  0.34886842606E+02 -0.16686803617E+04  0.16784105656E+04  0.00000000000E+00 0. -1.
          3    1    5    5  503    0  0.88866495616E+02 -0.11994645486E+03 -0.13121948531E+03  0.19875351419E+03  0.00000000000E+00 0. -1.
         -4    1    5    5    0  503  0.79717610261E+02 -0.12506299767E+03 -0.41375675391E+02  0.15397271604E+03  0.00000000000E+00 0.  1.
         -1    1    6    6    0  502  0.56501262583E+02  0.63954333304E+02 -0.59160451686E+03  0.59772774220E+03  0.00000000000E+00 0.  1.
<mgrwt>
<rscale>  0 0.18918700E+04</rscale>
<asrwt>0</asrwt>
<pdfrwt beam="1">  1        2 0.42170803E+00 0.18918700E+04</pdfrwt>
<pdfrwt beam="2">  1       -2 0.50220841E-01 0.18918700E+04</pdfrwt>
<totfact> 0.88353360E+00</totfact>
</mgrwt>
</event>
<event>
12    1  0.1556559E-007  0.1185106E+04  0.7818608E-02  0.9125994E-01
         -1   -1    0    0    0  501 -0.00000000000E+00  0.00000000000E+00  0.31829352550E+03  0.31829352550E+03  0.00000000000E+00 0.  1.
          1   -1    0    0  501    0  0.00000000000E+00 -0.00000000000E+00 -0.11031305634E+04  0.11031305634E+04  0.00000000000E+00 0. -1.
         23    2    1    2    0    0 -0.13761717283E+01 -0.14244793055E+03 -0.40260599373E+03  0.43672831432E+03  0.91360426747E+02 0.  0.
        254    2    1    2    0    0  0.13761717283E+01  0.14244793055E+03 -0.38223104413E+03  0.98469577455E+03  0.89623205173E+03 0.  0.
        -24    2    4    4    0    0 -0.39867742447E+03 -0.11742439433E+03 -0.19581666030E+03  0.46628914270E+03  0.79682011691E+02 0.  0.
         24    2    4    4    0    0  0.40005359620E+03  0.25987232488E+03 -0.18641438383E+03  0.51840663184E+03  0.80116217899E+02 0.  0.
         11    1    3    3    0    0 -0.28444290515E+02 -0.13885444117E+03 -0.34489123353E+03  0.37288013686E+03  0.00000000000E+00 0. -1.
        -11    1    3    3    0    0  0.27068118787E+02 -0.35934893775E+01 -0.57714760199E+02  0.63848177463E+02  0.00000000000E+00 0.  1.
          4    1    6    6  502    0  0.11367799570E+03  0.10229333963E+03 -0.29171110503E+02  0.15568419229E+03  0.00000000000E+00 0. -1.
          3    1    5    5  503    0 -0.93675157737E+02 -0.58350191285E+02 -0.31135340824E+02  0.11466991518E+03  0.00000000000E+00 0. -1.
         -4    1    5    5    0  503 -0.30500226673E+03 -0.59074203044E+02 -0.16468131948E+03  0.35161922752E+03  0.00000000000E+00 0.  1.
         -3    1    6    6    0  502  0.28637560049E+03  0.15757898525E+03 -0.15724327333E+03  0.36272243956E+03  0.00000000000E+00 0.  1.
<mgrwt>
<rscale>  0 0.11851064E+04</rscale>
<asrwt>0</asrwt>
<pdfrwt beam="1">  1        1 0.16971240E+00 0.11851064E+04</pdfrwt>
<pdfrwt beam="2">  1       -1 0.48968234E-01 0.11851064E+04</pdfrwt>
<totfact> 0.52160100E+01</totfact>
</mgrwt>
</event>
<event>
12    1  0.1556559E-007  0.1247874E+04  0.7818608E-02  0.9071954E-01
         -2   -1    0    0    0  501 -0.00000000000E+00  0.00000000000E+00  0.52825573284E+03  0.52825573284E+03  0.00000000000E+00 0.  1.
          2   -1    0    0  501    0  0.00000000000E+00 -0.00000000000E+00 -0.73694886464E+03  0.73694886464E+03  0.00000000000E+00 0. -1.
         23    2    1    2    0    0  0.17906169230E+03 -0.95335062396E+02 -0.24774992453E+03  0.33284507583E+03  0.90851283053E+02 0.  0.
        254    2    1    2    0    0 -0.17906169230E+03  0.95335062396E+02  0.39056792720E+02  0.93235952165E+03  0.90918478913E+03 0.  0.
        -24    2    4    4    0    0 -0.30625704312E+01  0.37838621707E+03 -0.26872976602E+03  0.47099745105E+03  0.80233429066E+02 0.  0.
         24    2    4    4    0    0 -0.17599912187E+03 -0.28305115467E+03  0.30778655874E+03  0.46136207060E+03  0.83837625141E+02 0.  0.
         13    1    3    3    0    0  0.24891430978E+02 -0.48118943165E+02 -0.30095767609E+02  0.61973956267E+02  0.00000000000E+00 0.  1.
        -13    1    3    3    0    0  0.15417026132E+03 -0.47216119230E+02 -0.21765415692E+03  0.27087111956E+03  0.00000000000E+00 0. -1.
          4    1    6    6  502    0 -0.18522318222E+03 -0.26618130388E+03  0.28699365797E+03  0.43304211513E+03  0.00000000000E+00 0. -1.
          1    1    5    5  503    0  0.41680584539E+01  0.36000722816E+03 -0.22916659131E+03  0.42677851822E+03  0.00000000000E+00 0. -1.
         -2    1    5    5    0  503 -0.72306288851E+01  0.18378988912E+02 -0.39563174710E+02  0.44218932830E+02  0.00000000000E+00 0.  1.
         -3    1    6    6    0  502  0.92240603515E+01 -0.16869850795E+02  0.20792900775E+02  0.28319955471E+02  0.00000000000E+00 0.  1.
<mgrwt>
<rscale>  0 0.12478741E+04</rscale>
<asrwt>0</asrwt>
<pdfrwt beam="1">  1        2 0.11337675E+00 0.12478741E+04</pdfrwt>
<pdfrwt beam="2">  1       -2 0.81270113E-01 0.12478741E+04</pdfrwt>
<totfact> 0.50364204E+01</totfact>
</mgrwt>
</event>
<event>
12    1  0.1556559E-007  0.3394887E+04  0.7818608E-02  0.8139162E-01
          1   -1    0    0  501    0  0.00000000000E+00  0.00000000000E+00  0.34895897518E+04  0.34895897518E+04  0.00000000000E+00 0. -1.
         -1   -1    0    0    0  501 -0.00000000000E+00 -0.00000000000E+00 -0.82568859961E+03  0.82568859961E+03  0.00000000000E+00 0.  1.
         23    2    1    2    0    0  0.74097487743E+03 -0.13431750168E+04  0.78262463484E+03  0.17245386823E+04  0.91484715394E+02 0.  0.
        254    2    1    2    0    0 -0.74097487743E+03  0.13431750168E+04  0.18812765173E+04  0.25907396691E+04  0.90529984183E+03 0.  0.
        -24    2    4    4    0    0 -0.93599820253E+03  0.11814791670E+04  0.16693004300E+04  0.22505182712E+04  0.79264785011E+02 0.  0.
         24    2    4    4    0    0  0.19502332510E+03  0.16169584976E+03  0.21197608732E+03  0.34022139787E+03  0.81468354681E+02 0.  0.
         11    1    3    3    0    0  0.67325228157E+03 -0.11684382505E+04  0.66857387373E+03  0.15051603252E+04  0.00000000000E+00 0.  1.
        -11    1    3    3    0    0  0.67722595859E+02 -0.17473676626E+03  0.11405076111E+03  0.21937835714E+03  0.00000000000E+00 0. -1.
          2    1    6    6  502    0  0.14392080754E+03  0.11183610598E+03  0.19483105521E+03  0.26679515272E+03  0.00000000000E+00 0. -1.
          1    1    5    5  503    0 -0.55954863443E+03  0.68693334351E+03  0.92536280151E+03  0.12811199815E+04  0.00000000000E+00 0. -1.
         -2    1    5    5    0  503 -0.37644956811E+03  0.49454582349E+03  0.74393762852E+03  0.96939828966E+03  0.00000000000E+00 0.  1.
         -1    1    6    6    0  502  0.51102517567E+02  0.49859743776E+02  0.17145032109E+02  0.73426245152E+02  0.00000000000E+00 0.  1.
<mgrwt>
<rscale>  0 0.33948870E+04</rscale>
<asrwt>0</asrwt>
<pdfrwt beam="1">  1        1 0.53685996E+00 0.33948870E+04</pdfrwt>
<pdfrwt beam="2">  1       -1 0.12702902E+00 0.33948870E+04</pdfrwt>
<totfact> 0.11250611E-01</totfact>
</mgrwt>
</event>
<event>
12    1  0.1556559E-007  0.1434379E+04  0.7818608E-02  0.8929303E-01
          2   -1    0    0  501    0  0.00000000000E+00  0.00000000000E+00  0.63065516296E+03  0.63065516296E+03  0.00000000000E+00 0. -1.
         -2   -1    0    0    0  501 -0.00000000000E+00 -0.00000000000E+00 -0.81559710618E+03  0.81559710618E+03  0.00000000000E+00 0.  1.
         23    2    1    2    0    0  0.30059102911E+03 -0.25434962201E+03 -0.19206022480E+03  0.44731131966E+03  0.90286154809E+02 0.  0.
        254    2    1    2    0    0 -0.30059102911E+03  0.25434962201E+03  0.71182815823E+01  0.99894094947E+03  0.91803249049E+03 0.  0.
        -24    2    4    4    0    0 -0.24474948029E+03  0.54278375132E+03  0.20704048235E+03  0.63526430302E+03  0.78603209559E+02 0.  0.
         24    2    4    4    0    0 -0.55841548822E+02 -0.28843412931E+03 -0.19992220077E+03  0.36367664645E+03  0.77325877210E+02 0.  0.
         11    1    3    3    0    0  0.36970114818E+02 -0.34471081551E+02  0.61419995569E+01  0.50919240092E+02  0.00000000000E+00 0. -1.
        -11    1    3    3    0    0  0.26362091429E+03 -0.21987854046E+03 -0.19820222436E+03  0.39639207957E+03  0.00000000000E+00 0.  1.
          4    1    6    6  502    0 -0.67549230440E+02 -0.25937082258E+03 -0.19612164843E+03  0.33211417181E+03  0.00000000000E+00 0. -1.
          1    1    5    5  503    0 -0.18677017027E+03  0.48027114153E+03  0.17884805412E+03  0.54546319065E+03  0.00000000000E+00 0. -1.
         -2    1    5    5    0  503 -0.57979310014E+02  0.62512609796E+02  0.28192428230E+02  0.89801112369E+02  0.00000000000E+00 0.  1.
         -3    1    6    6    0  502  0.11707681618E+02 -0.29063306734E+02 -0.38005523451E+01  0.31562474638E+02  0.00000000000E+00 0.  1.
<mgrwt>
<rscale>  0 0.14343786E+04</rscale>
<asrwt>0</asrwt>
<pdfrwt beam="1">  1        2 0.97023872E-01 0.14343786E+04</pdfrwt>
<pdfrwt beam="2">  1       -2 0.12547648E+00 0.14343786E+04</pdfrwt>
<totfact> 0.21513139E+01</totfact>
</mgrwt>
</event>
<event>
12    1  0.1556559E-007  0.1315289E+04  0.7818608E-02  0.9017528E-01
          2   -1    0    0  501    0  0.00000000000E+00  0.00000000000E+00  0.13104503755E+04  0.13104503755E+04  0.00000000000E+00 0. -1.
         -2   -1    0    0    0  501 -0.00000000000E+00 -0.00000000000E+00 -0.33003634320E+03  0.33003634320E+03  0.00000000000E+00 0.  1.
         23    2    1    2    0    0  0.11662554589E+03  0.29715614776E+03  0.42131275611E+03  0.53666323557E+03  0.92734545050E+02 0.  0.
        254    2    1    2    0    0 -0.11662554589E+03 -0.29715614776E+03  0.55910127619E+03  0.11038234831E+04  0.89662073965E+03 0.  0.
        -24    2    4    4    0    0  0.30040177811E+03  0.95878354503E+02  0.42615715379E+02  0.32811043248E+03  0.80040424499E+02 0.  0.
         24    2    4    4    0    0 -0.41702732400E+03 -0.39303450226E+03  0.51648556081E+03  0.77571305065E+03  0.81151053513E+02 0.  0.
         13    1    3    3    0    0  0.11120753228E+03  0.30048117730E+03  0.39010581432E+03  0.50481541133E+03  0.00000000000E+00 0.  1.
        -13    1    3    3    0    0  0.54180136126E+01 -0.33250295437E+01  0.31206941792E+02  0.31847824242E+02  0.00000000000E+00 0. -1.
          2    1    6    6  502    0 -0.33835711174E+03 -0.29453568186E+03  0.36279736544E+03  0.57693910539E+03  0.00000000000E+00 0. -1.
          3    1    5    5  503    0  0.30544588833E+03  0.92242442611E+02  0.41064959011E+02  0.32170202016E+03  0.00000000000E+00 0. -1.
         -4    1    5    5    0  503 -0.50441102204E+01  0.36359118918E+01  0.15507563677E+01  0.64084123239E+01  0.00000000000E+00 0.  1.
         -1    1    6    6    0  502 -0.78670212260E+02 -0.98498820402E+02  0.15368819538E+03  0.19877394526E+03  0.00000000000E+00 0.  1.
<mgrwt>
<rscale>  0 0.13152889E+04</rscale>
<asrwt>0</asrwt>
<pdfrwt beam="1">  1        2 0.20160775E+00 0.13152889E+04</pdfrwt>
<pdfrwt beam="2">  1       -2 0.50774823E-01 0.13152889E+04</pdfrwt>
<totfact> 0.58515166E+01</totfact>
</mgrwt>
</event>
<event>
12    1  0.1556559E-007  0.1349383E+04  0.7818608E-02  0.8991295E-01
         -2   -1    0    0    0  501 -0.00000000000E+00  0.00000000000E+00  0.22806535759E+03  0.22806535759E+03  0.00000000000E+00 0.  1.
          2   -1    0    0  501    0  0.00000000000E+00 -0.00000000000E+00 -0.19959574063E+04  0.19959574063E+04  0.00000000000E+00 0. -1.
         23    2    1    2    0    0 -0.59479135066E+02  0.33459272907E+03 -0.36587079263E+03  0.50764963343E+03  0.91414722915E+02 0.  0.
        254    2    1    2    0    0  0.59479135066E+02 -0.33459272907E+03 -0.14020212560E+04  0.17163731304E+04  0.92993712617E+03 0.  0.
        -24    2    4    4    0    0  0.79902772851E+02 -0.28255144336E+03 -0.15276525362E+04  0.15578566835E+04  0.83518881366E+02 0.  0.
         24    2    4    4    0    0 -0.20423637785E+02 -0.52041285709E+02  0.12563128018E+03  0.15851644696E+03  0.78859527002E+02 0.  0.
         13    1    3    3    0    0 -0.80361569856E+02  0.27621089805E+03 -0.32148132427E+03  0.43139388494E+03  0.00000000000E+00 0. -1.
        -13    1    3    3    0    0  0.20882434790E+02  0.58381831021E+02 -0.44389468367E+02  0.76255748492E+02  0.00000000000E+00 0.  1.
          4    1    6    6  502    0  0.11056346030E+02 -0.22921265670E+02  0.10994908047E+03  0.11285578188E+03  0.00000000000E+00 0. -1.
          3    1    5    5  503    0  0.71573212991E+02 -0.28036608926E+03 -0.15159983707E+04  0.15433661033E+04  0.00000000000E+00 0. -1.
         -4    1    5    5    0  503  0.83295598594E+01 -0.21853541038E+01 -0.11654165556E+02  0.14490580210E+02  0.00000000000E+00 0.  1.
         -3    1    6    6    0  502 -0.31479983815E+02 -0.29120020038E+02  0.15682199711E+02  0.45660665083E+02  0.00000000000E+00 0.  1.
<mgrwt>
<rscale>  0 0.13493832E+04</rscale>
<asrwt>0</asrwt>
<pdfrwt beam="1">  1        2 0.30707036E+00 0.13493832E+04</pdfrwt>
<pdfrwt beam="2">  1       -2 0.35086979E-01 0.13493832E+04</pdfrwt>
<totfact> 0.50054629E+01</totfact>
</mgrwt>
</event>
<event>
12    1  0.1556559E-007  0.1877754E+04  0.7818608E-02  0.8666009E-01
         -2   -1    0    0    0  501 -0.00000000000E+00  0.00000000000E+00  0.28574154969E+03  0.28574154969E+03  0.00000000000E+00 0.  1.
          2   -1    0    0  501    0  0.00000000000E+00 -0.00000000000E+00 -0.30849213913E+04  0.30849213913E+04  0.00000000000E+00 0. -1.
         23    2    1    2    0    0  0.32815047624E+03  0.64339372281E+03 -0.11330980879E+04  0.13465633985E+04  0.87655528806E+02 0.  0.
        254    2    1    2    0    0 -0.32815047624E+03 -0.64339372281E+03 -0.16660817536E+04  0.20240995424E+04  0.89415453380E+03 0.  0.
        -24    2    4    4    0    0  0.48123656113E+02 -0.96460989364E+02 -0.12037651743E+04  0.12111446710E+04  0.78741415578E+02 0.  0.
         24    2    4    4    0    0 -0.37627413235E+03 -0.54693273344E+03 -0.46231657933E+03  0.81295487142E+03  0.80258120198E+02 0.  0.
         13    1    3    3    0    0  0.11255474275E+03  0.17195475354E+03 -0.26346956853E+03  0.33414550860E+03  0.00000000000E+00 0. -1.
        -13    1    3    3    0    0  0.21559573349E+03  0.47143896927E+03 -0.86962851940E+03  0.10124178899E+04  0.00000000000E+00 0.  1.
          2    1    6    6  502    0 -0.13475910186E+03 -0.23876273763E+03 -0.15291172878E+03  0.31392619708E+03  0.00000000000E+00 0. -1.
          3    1    5    5  503    0 -0.12764917425E+02 -0.56964501771E+02 -0.65599589130E+03  0.65858826818E+03  0.00000000000E+00 0. -1.
         -4    1    5    5    0  503  0.60888573538E+02 -0.39496487593E+02 -0.54776928301E+03  0.55255640284E+03  0.00000000000E+00 0.  1.
         -1    1    6    6    0  502 -0.24151503049E+03 -0.30816999582E+03 -0.30940485055E+03  0.49902867435E+03  0.00000000000E+00 0.  1.
<mgrwt>
<rscale>  0 0.18777542E+04</rscale>
<asrwt>0</asrwt>
<pdfrwt beam="1">  1        2 0.47460328E+00 0.18777542E+04</pdfrwt>
<pdfrwt beam="2">  1       -2 0.43960240E-01 0.18777542E+04</pdfrwt>
<totfact> 0.71105250E+00</totfact>
</mgrwt>
</event>
<event>
12    1  0.1556559E-007  0.1528261E+04  0.7818608E-02  0.8865874E-01
          1   -1    0    0  501    0  0.00000000000E+00  0.00000000000E+00  0.41314151391E+03  0.41314151391E+03  0.00000000000E+00 0. -1.
         -1   -1    0    0    0  501 -0.00000000000E+00 -0.00000000000E+00 -0.14133056040E+04  0.14133056040E+04  0.00000000000E+00 0.  1.
         23    2    1    2    0    0  0.10486629906E+02  0.48557061381E+03 -0.39209779741E+03  0.63070222881E+03  0.90309624573E+02 0.  0.
        254    2    1    2    0    0 -0.10486629906E+02 -0.48557061381E+03 -0.60806629272E+03  0.11957448891E+04  0.90783943138E+03 0.  0.
        -24    2    4    4    0    0 -0.42442374656E+03 -0.19100802239E+03 -0.46327026205E+03  0.66148101898E+03  0.79487241170E+02 0.  0.
         24    2    4    4    0    0  0.41393711666E+03 -0.29456259142E+03 -0.14479603068E+03  0.53426387017E+03  0.79755474173E+02 0.  0.
         11    1    3    3    0    0  0.34749155621E+02  0.80412686547E+02 -0.58752165055E+02  0.10547758469E+03  0.00000000000E+00 0. -1.
        -11    1    3    3    0    0 -0.24262525715E+02  0.40515792726E+03 -0.33334563236E+03  0.52522464412E+03  0.00000000000E+00 0.  1.
          2    1    6    6  502    0  0.29629484172E+03 -0.21755031629E+03 -0.14071068752E+03  0.39359658400E+03  0.00000000000E+00 0. -1.
          1    1    5    5  503    0 -0.28016407785E+03 -0.11033669135E+03 -0.34682759691E+03  0.45929889827E+03  0.00000000000E+00 0. -1.
         -2    1    5    5    0  503 -0.14425966871E+03 -0.80671331042E+02 -0.11644266513E+03  0.20218212070E+03  0.00000000000E+00 0.  1.
         -1    1    6    6    0  502  0.11764227493E+03 -0.77012275121E+02 -0.40853431632E+01  0.14066728617E+03  0.00000000000E+00 0.  1.
<mgrwt>
<rscale>  0 0.15282607E+04</rscale>
<asrwt>0</asrwt>
<pdfrwt beam="1">  1        1 0.63560234E-01 0.15282607E+04</pdfrwt>
<pdfrwt beam="2">  1       -1 0.21743163E+00 0.15282607E+04</pdfrwt>
<totfact> 0.63497507E+00</totfact>
</mgrwt>
</event>
<event>
12    1  0.1556559E-007  0.1223557E+04  0.7818608E-02  0.9092484E-01
         -2   -1    0    0    0  501 -0.00000000000E+00  0.00000000000E+00  0.31200594263E+03  0.31200594263E+03  0.00000000000E+00 0.  1.
          2   -1    0    0  501    0  0.00000000000E+00 -0.00000000000E+00 -0.11995693011E+04  0.11995693011E+04  0.00000000000E+00 0. -1.
         23    2    1    2    0    0  0.21374877894E+03  0.77308445932E+02 -0.39890534907E+03  0.46791920178E+03  0.90320349660E+02 0.  0.
        254    2    1    2    0    0 -0.21374877894E+03 -0.77308445932E+02 -0.48865800939E+03  0.10436560419E+04  0.89373718028E+03 0.  0.
        -24    2    4    4    0    0  0.34070378117E+03 -0.88468096135E+02 -0.16926522601E+03  0.39883302975E+03  0.80693236045E+02 0.  0.
         24    2    4    4    0    0 -0.55445256012E+03  0.11159650203E+02 -0.31939278339E+03  0.64482301219E+03  0.79011314128E+02 0.  0.
         13    1    3    3    0    0  0.24887312743E+02  0.47097961552E+02 -0.82828594237E+02  0.98479299050E+02  0.00000000000E+00 0.  1.
        -13    1    3    3    0    0  0.18886146620E+03  0.30210484379E+02 -0.31607675483E+03  0.36943990273E+03  0.00000000000E+00 0. -1.
          2    1    6    6  502    0 -0.52011643688E+03  0.75239882769E+01 -0.31918876288E+03  0.61029434264E+03  0.00000000000E+00 0. -1.
          3    1    5    5  503    0  0.23463110140E+03 -0.96377392275E+02 -0.13332027666E+03  0.28655654181E+03  0.00000000000E+00 0. -1.
         -4    1    5    5    0  503  0.10607267978E+03  0.79092961406E+01 -0.35944949342E+02  0.11227648794E+03  0.00000000000E+00 0.  1.
         -1    1    6    6    0  502 -0.34336123239E+02  0.36356619260E+01 -0.20402050927E+00  0.34528669553E+02  0.00000000000E+00 0.  1.
<mgrwt>
<rscale>  0 0.12235567E+04</rscale>
<asrwt>0</asrwt>
<pdfrwt beam="1">  1        2 0.18454912E+00 0.12235567E+04</pdfrwt>
<pdfrwt beam="2">  1       -2 0.48000915E-01 0.12235567E+04</pdfrwt>
<totfact> 0.76752383E+01</totfact>
</mgrwt>
</event>
<event>
12    1  0.1556559E-007  0.1995406E+04  0.7818608E-02  0.8608772E-01
          2   -1    0    0  501    0  0.00000000000E+00  0.00000000000E+00  0.34255118905E+04  0.34255118905E+04  0.00000000000E+00 0. -1.
         -2   -1    0    0    0  501 -0.00000000000E+00 -0.00000000000E+00 -0.29058748825E+03  0.29058748825E+03  0.00000000000E+00 0.  1.
         23    2    1    2    0    0  0.56053515263E+03 -0.55614752912E+03  0.11763895759E+04  0.14196969551E+04  0.90262277313E+02 0.  0.
        254    2    1    2    0    0 -0.56053515263E+03  0.55614752912E+03  0.19585348263E+04  0.22964024236E+04  0.90227805778E+03 0.  0.
        -24    2    4    4    0    0 -0.30023713719E+03  0.14448971404E+03  0.76529520504E+02  0.35077279494E+03  0.78518597483E+02 0.  0.
         24    2    4    4    0    0 -0.26029801544E+03  0.41165781507E+03  0.18820053058E+04  0.19456296286E+04  0.79457328702E+02 0.  0.
         13    1    3    3    0    0  0.54932176360E+03 -0.54485990945E+03  0.11211060507E+04  0.13621694087E+04  0.00000000000E+00 0. -1.
        -13    1    3    3    0    0  0.11213389032E+02 -0.11287619672E+02  0.55283525152E+02  0.57527546485E+02  0.00000000000E+00 0.  1.
          4    1    6    6  502    0 -0.11336738926E+03  0.25280221683E+03  0.10693400501E+04  0.11046489345E+04  0.00000000000E+00 0. -1.
          3    1    5    5  503    0 -0.28493041305E+03  0.11301902620E+03  0.61247200761E+02  0.31258576449E+03  0.00000000000E+00 0. -1.
         -4    1    5    5    0  503 -0.15306724135E+02  0.31470687850E+02  0.15282319744E+02  0.38187030445E+02  0.00000000000E+00 0.  1.
         -3    1    6    6    0  502 -0.14693062618E+03  0.15885559825E+03  0.81266525577E+03  0.84098069416E+03  0.00000000000E+00 0.  1.
<mgrwt>
<rscale>  0 0.19954056E+04</rscale>
<asrwt>0</asrwt>
<pdfrwt beam="1">  1        2 0.52700180E+00 0.19954056E+04</pdfrwt>
<pdfrwt beam="2">  1       -2 0.44705770E-01 0.19954056E+04</pdfrwt>
<totfact> 0.40593130E+00</totfact>
</mgrwt>
</event>
<event>
12    1  0.1556559E-007  0.2880503E+04  0.7818608E-02  0.8278702E-01
         -2   -1    0    0    0  501 -0.00000000000E+00  0.00000000000E+00  0.46897264957E+04  0.46897264957E+04  0.00000000000E+00 0.  1.
          2   -1    0    0  501    0  0.00000000000E+00 -0.00000000000E+00 -0.44231242182E+03  0.44231242182E+03  0.00000000000E+00 0. -1.
         23    2    1    2    0    0  0.56601752044E+03  0.66981929773E+03  0.21618553505E+03  0.90765930889E+03  0.89863843633E+02 0.  0.
        254    2    1    2    0    0 -0.56601752044E+03 -0.66981929773E+03  0.40312285388E+04  0.42243796086E+04  0.90859552086E+03 0.  0.
        -24    2    4    4    0    0 -0.63509721053E+02 -0.55383253647E+02  0.14219536795E+01  0.11635746734E+03  0.80226235118E+02 0.  0.
         24    2    4    4    0    0 -0.50250779939E+03 -0.61443604408E+03  0.40298065851E+04  0.41080221413E+04  0.80368270632E+02 0.  0.
         11    1    3    3    0    0  0.42747062136E+03  0.47265217947E+03  0.12158865908E+03  0.64877963662E+03  0.00000000000E+00 0. -1.
        -11    1    3    3    0    0  0.13854689908E+03  0.19716711826E+03  0.94596875974E+02  0.25887967227E+03  0.00000000000E+00 0.  1.
          4    1    6    6  502    0 -0.49312140219E+03 -0.61473473025E+03  0.39675520964E+04  0.40450633052E+04  0.00000000000E+00 0. -1.
          3    1    5    5  503    0 -0.43545025883E+02 -0.57758693354E+02 -0.30605267137E+02  0.78542461852E+02  0.00000000000E+00 0. -1.
         -4    1    5    5    0  503 -0.19964695170E+02  0.23754397071E+01  0.32027220817E+02  0.37815005491E+02  0.00000000000E+00 0.  1.
         -1    1    6    6    0  502 -0.93863971953E+01  0.29868616587E+00  0.62254488770E+02  0.62958836057E+02  0.00000000000E+00 0.  1.
<mgrwt>
<rscale>  0 0.28805029E+04</rscale>
<asrwt>0</asrwt>
<pdfrwt beam="1">  1        2 0.68048068E-01 0.28805029E+04</pdfrwt>
<pdfrwt beam="2">  1       -2 0.72149635E+00 0.28805029E+04</pdfrwt>
<totfact> 0.11533253E-02</totfact>
</mgrwt>
</event>
<event>
12    1  0.1556559E-007  0.3121610E+04  0.7818608E-02  0.8209832E-01
         -2   -1    0    0    0  501 -0.00000000000E+00  0.00000000000E+00  0.21133958908E+04  0.21133958908E+04  0.00000000000E+00 0.  1.
          2   -1    0    0  501    0  0.00000000000E+00 -0.00000000000E+00 -0.11527005240E+04  0.11527005240E+04  0.00000000000E+00 0. -1.
         23    2    1    2    0    0 -0.16998910060E+03 -0.17752406967E+03 -0.10234712256E+04  0.10565831912E+04  0.91997830247E+02 0.  0.
        254    2    1    2    0    0  0.16998910060E+03  0.17752406967E+03  0.19841665923E+04  0.22095132236E+04  0.94054267826E+03 0.  0.
        -24    2    4    4    0    0  0.34832131828E+03 -0.16994112140E+03  0.35193215458E+03  0.52929156560E+03  0.78010220332E+02 0.  0.
         24    2    4    4    0    0 -0.17833221768E+03  0.34746519106E+03  0.16322344377E+04  0.16802216580E+04  0.80131900560E+02 0.  0.
         11    1    3    3    0    0 -0.17069683918E+02 -0.18563798439E+02 -0.27861607394E+03  0.27975508106E+03  0.00000000000E+00 0.  1.
        -11    1    3    3    0    0 -0.15291941669E+03 -0.15896027123E+03 -0.74485515162E+03  0.77682811015E+03  0.00000000000E+00 0. -1.
          2    1    6    6  502    0 -0.17715755358E+03  0.33815776924E+03  0.15057347440E+04  0.15533745829E+04  0.00000000000E+00 0. -1.
          1    1    5    5  503    0  0.22699973104E+03 -0.12836608073E+03  0.27838805225E+03  0.38145332113E+03  0.00000000000E+00 0. -1.
         -2    1    5    5    0  503  0.12132158724E+03 -0.41575040670E+02  0.73544102339E+02  0.14783824447E+03  0.00000000000E+00 0.  1.
         -1    1    6    6    0  502 -0.11746640924E+01  0.93074218199E+01  0.12649969372E+03  0.12684707505E+03  0.00000000000E+00 0.  1.
<mgrwt>
<rscale>  0 0.31216102E+04</rscale>
<asrwt>0</asrwt>
<pdfrwt beam="1">  1        2 0.17733854E+00 0.31216102E+04</pdfrwt>
<pdfrwt beam="2">  1       -2 0.32513783E+00 0.31216102E+04</pdfrwt>
<totfact> 0.38137775E-01</totfact>
</mgrwt>
</event>
<event>
12    1  0.1556559E-007  0.1716354E+04  0.7818608E-02  0.8752092E-01
         -1   -1    0    0    0  501 -0.00000000000E+00  0.00000000000E+00  0.12101424863E+04  0.12101424863E+04  0.00000000000E+00 0.  1.
          1   -1    0    0  501    0  0.00000000000E+00 -0.00000000000E+00 -0.60857914211E+03  0.60857914211E+03  0.00000000000E+00 0. -1.
         23    2    1    2    0    0  0.11705811460E+03  0.51582758177E+03  0.51830583104E+03  0.74641097012E+03  0.93315087336E+02 0.  0.
        254    2    1    2    0    0 -0.11705811460E+03 -0.51582758177E+03  0.83257513206E+02  0.10723106583E+04  0.92905201047E+03 0.  0.
        -24    2    4    4    0    0 -0.48504533052E+03 -0.93734250582E+02 -0.29727476763E+01  0.50006882023E+03  0.77491324299E+02 0.  0.
         24    2    4    4    0    0  0.36798721592E+03 -0.42209333118E+03  0.86230260882E+02  0.57224183810E+03  0.80297522230E+02 0.  0.
         13    1    3    3    0    0  0.93648035654E+02  0.44555585389E+03  0.48493959747E+03  0.66517395222E+03  0.00000000000E+00 0.  1.
        -13    1    3    3    0    0  0.23410078949E+02  0.70271727875E+02  0.33366233568E+02  0.81237017901E+02  0.00000000000E+00 0. -1.
          4    1    6    6  502    0  0.37030647881E+02 -0.54672449185E+02 -0.14452597662E+02  0.67596029185E+02  0.00000000000E+00 0. -1.
          3    1    5    5  503    0 -0.49092034848E+02  0.13375585984E+02  0.45756342440E+01  0.51086892787E+02  0.00000000000E+00 0. -1.
         -4    1    5    5    0  503 -0.43595329567E+03 -0.10710983657E+03 -0.75483819203E+01  0.44898192744E+03  0.00000000000E+00 0.  1.
         -3    1    6    6    0  502  0.33095656804E+03 -0.36742088200E+03  0.10068285854E+03  0.50464580892E+03  0.00000000000E+00 0.  1.
<mgrwt>
<rscale>  0 0.17163537E+04</rscale>
<asrwt>0</asrwt>
<pdfrwt beam="1">  1        1 0.93627560E-01 0.17163537E+04</pdfrwt>
<pdfrwt beam="2">  1       -1 0.18617577E+00 0.17163537E+04</pdfrwt>
<totfact> 0.59938749E+00</totfact>
</mgrwt>
</event>
<event>
12    1  0.1556559E-007  0.2759802E+04  0.7818608E-02  0.8315858E-01
          1   -1    0    0  501    0  0.00000000000E+00  0.00000000000E+00  0.23587675382E+04  0.23587675382E+04  0.00000000000E+00 0. -1.
         -1   -1    0    0    0  501 -0.00000000000E+00 -0.00000000000E+00 -0.80725512673E+03  0.80725512673E+03  0.00000000000E+00 0.  1.
         23    2    1    2    0    0  0.24248477662E+03  0.86448025004E+02 -0.68639416891E+03  0.73980900900E+03  0.99540377525E+02 0.  0.
        254    2    1    2    0    0 -0.24248477662E+03 -0.86448025004E+02  0.22379065804E+04  0.24262136560E+04  0.90111859030E+03 0.  0.
        -24    2    4    4    0    0 -0.54747524871E+03 -0.16402697339E+02  0.96024371970E+03  0.11083336479E+04  0.79607018443E+02 0.  0.
         24    2    4    4    0    0  0.30499047208E+03 -0.70045327664E+02  0.12776628607E+04  0.13178800081E+04  0.80372843965E+02 0.  0.
         11    1    3    3    0    0  0.21342320832E+03  0.10855969400E+03 -0.59997612032E+03  0.64599227392E+03  0.00000000000E+00 0.  1.
        -11    1    3    3    0    0  0.29061568308E+02 -0.22111668999E+02 -0.86418048593E+02  0.93816735080E+02  0.00000000000E+00 0. -1.
          2    1    6    6  502    0  0.27782561716E+03 -0.52047299033E+02  0.12126587583E+04  0.12451655549E+04  0.00000000000E+00 0. -1.
          1    1    5    5  503    0 -0.39960687459E+03 -0.46336064371E+02  0.68120553469E+03  0.79112177671E+03  0.00000000000E+00 0. -1.
         -2    1    5    5    0  503 -0.14786837412E+03  0.29933367031E+02  0.27903818500E+03  0.31721187118E+03  0.00000000000E+00 0.  1.
         -1    1    6    6    0  502  0.27164854925E+02 -0.17998028631E+02  0.65004102373E+02  0.72714453192E+02  0.00000000000E+00 0.  1.
<mgrwt>
<rscale>  0 0.27598023E+04</rscale>
<asrwt>0</asrwt>
<pdfrwt beam="1">  1        1 0.36288731E+00 0.27598023E+04</pdfrwt>
<pdfrwt beam="2">  1       -1 0.12419310E+00 0.27598023E+04</pdfrwt>
<totfact> 0.83763465E-01</totfact>
</mgrwt>
</event>
<event>
12    1  0.1556559E-007  0.1051736E+04  0.7818608E-02  0.9253554E-01
         -1   -1    0    0    0  501 -0.00000000000E+00  0.00000000000E+00  0.34780935681E+03  0.34780935681E+03  0.00000000000E+00 0.  1.
          1   -1    0    0  501    0  0.00000000000E+00 -0.00000000000E+00 -0.79508229143E+03  0.79508229143E+03  0.00000000000E+00 0. -1.
         23    2    1    2    0    0 -0.69266149984E+02  0.36398721692E+02 -0.15427370075E+03  0.19484624528E+03  0.89677299714E+02 0.  0.
        254    2    1    2    0    0  0.69266149984E+02 -0.36398721692E+02 -0.29299923387E+03  0.94804540296E+03  0.89823096615E+03 0.  0.
        -24    2    4    4    0    0 -0.16406446596E+03  0.13391910336E+03 -0.52318951369E+03  0.57012526397E+03  0.80399466050E+02 0.  0.
         24    2    4    4    0    0  0.23333061594E+03 -0.17031782505E+03  0.23019027982E+03  0.37792013899E+03  0.79904497132E+02 0.  0.
         13    1    3    3    0    0  0.20657836006E+02 -0.28798024945E+01 -0.28725752713E+02  0.35499412950E+02  0.00000000000E+00 0. -1.
        -13    1    3    3    0    0 -0.89923985991E+02  0.39278524186E+02 -0.12554794803E+03  0.15934683233E+03  0.00000000000E+00 0.  1.
          2    1    6    6  502    0  0.22518065351E+03 -0.15720725306E+03  0.23531552219E+03  0.36165431300E+03  0.00000000000E+00 0. -1.
          1    1    5    5  503    0 -0.80131176258E+02  0.93528971804E+02 -0.37861202635E+03  0.39814035273E+03  0.00000000000E+00 0. -1.
         -2    1    5    5    0  503 -0.83933289699E+02  0.40390131555E+02 -0.14457748734E+03  0.17198491124E+03  0.00000000000E+00 0.  1.
         -1    1    6    6    0  502  0.81499624303E+01 -0.13110571994E+02 -0.51252423687E+01  0.16265825985E+02  0.00000000000E+00 0.  1.
<mgrwt>
<rscale>  0 0.10517358E+04</rscale>
<asrwt>0</asrwt>
<pdfrwt beam="1">  1        1 0.12232035E+00 0.10517358E+04</pdfrwt>
<pdfrwt beam="2">  1       -1 0.53509132E-01 0.10517358E+04</pdfrwt>
<totfact> 0.78635547E+01</totfact>
</mgrwt>
</event>
<event>
12    1  0.1556559E-007  0.1463981E+04  0.7818608E-02  0.8908765E-01
          1   -1    0    0  501    0  0.00000000000E+00  0.00000000000E+00  0.77888049381E+03  0.77888049381E+03  0.00000000000E+00 0. -1.
         -1   -1    0    0    0  501 -0.00000000000E+00 -0.00000000000E+00 -0.68792293538E+03  0.68792293538E+03  0.00000000000E+00 0.  1.
         23    2    1    2    0    0 -0.44595738260E+03 -0.53681152908E+02  0.58361475408E+02  0.46184000825E+03  0.90169164010E+02 0.  0.
        254    2    1    2    0    0  0.44595738260E+03  0.53681152908E+02  0.32596083018E+02  0.10049634209E+04  0.89840376198E+03 0.  0.
        -24    2    4    4    0    0  0.14191809695E+03  0.40013481373E+03 -0.20711242603E+03  0.47925359682E+03  0.80869262671E+02 0.  0.
         24    2    4    4    0    0  0.30403928564E+03 -0.34645366082E+03  0.23970850904E+03  0.52570982413E+03  0.80253495657E+02 0.  0.
         13    1    3    3    0    0 -0.44166522990E+03 -0.59617489747E+02  0.66818000629E+02  0.45065182302E+03  0.00000000000E+00 0.  1.
        -13    1    3    3    0    0 -0.42921526965E+01  0.59363368387E+01 -0.84565252213E+01  0.11188185226E+02  0.00000000000E+00 0. -1.
          4    1    6    6  502    0  0.13243709347E+03 -0.16407288583E+03  0.15371522312E+03  0.26093651605E+03  0.00000000000E+00 0. -1.
          1    1    5    5  503    0  0.65760939147E+01 -0.26389622911E+01 -0.16276778736E+01  0.72703829617E+01  0.00000000000E+00 0. -1.
         -2    1    5    5    0  503  0.13534200304E+03  0.40277377602E+03 -0.20548474815E+03  0.47198321385E+03  0.00000000000E+00 0.  1.
         -3    1    6    6    0  502  0.17160219217E+03 -0.18238077499E+03  0.85993285928E+02  0.26477330808E+03  0.00000000000E+00 0.  1.
<mgrwt>
<rscale>  0 0.14639805E+04</rscale>
<asrwt>0</asrwt>
<pdfrwt beam="1">  1        1 0.11982777E+00 0.14639805E+04</pdfrwt>
<pdfrwt beam="2">  1       -1 0.10583430E+00 0.14639805E+04</pdfrwt>
<totfact> 0.18717784E+01</totfact>
</mgrwt>
</event>
<event>
12    1  0.1556559E-007  0.1858001E+04  0.7818608E-02  0.8676049E-01
         -2   -1    0    0    0  501 -0.00000000000E+00  0.00000000000E+00  0.18742602822E+04  0.18742602822E+04  0.00000000000E+00 0.  1.
          2   -1    0    0  501    0  0.00000000000E+00 -0.00000000000E+00 -0.46047060106E+03  0.46047060106E+03  0.00000000000E+00 0. -1.
         23    2    1    2    0    0  0.47508025955E+03 -0.52575073069E+03  0.61316243953E+03  0.94169828206E+03  0.93340202243E+02 0.  0.
        254    2    1    2    0    0 -0.47508025955E+03  0.52575073069E+03  0.80062724165E+03  0.13930326012E+04  0.89298419035E+03 0.  0.
        -24    2    4    4    0    0  0.99755395351E+02 -0.67960304279E+00 -0.12566951585E+03  0.17979283031E+03  0.81123571510E+02 0.  0.
         24    2    4    4    0    0 -0.57483565490E+03  0.52643033373E+03  0.92629675750E+03  0.12132397709E+04  0.79750438216E+02 0.  0.
         13    1    3    3    0    0 -0.25394652095E+01 -0.77708304414E+01  0.81843487096E+00  0.82161137369E+01  0.00000000000E+00 0. -1.
        -13    1    3    3    0    0  0.47761972476E+03 -0.51797990024E+03  0.61234400466E+03  0.93348216832E+03  0.00000000000E+00 0.  1.
          4    1    6    6  502    0 -0.47354179791E+03  0.47174798548E+03  0.79065045221E+03  0.10353338272E+04  0.00000000000E+00 0. -1.
          1    1    5    5  503    0  0.83117403455E+02 -0.92009191782E+01 -0.13507559307E+03  0.15886653365E+03  0.00000000000E+00 0. -1.
         -2    1    5    5    0  503  0.16637991895E+02  0.85213161354E+01  0.94060772228E+01  0.20926296656E+02  0.00000000000E+00 0.  1.
         -3    1    6    6    0  502 -0.10129385700E+03  0.54682348249E+02  0.13564630529E+03  0.17790594373E+03  0.00000000000E+00 0.  1.
<mgrwt>
<rscale>  0 0.18580008E+04</rscale>
<asrwt>0</asrwt>
<pdfrwt beam="1">  1        2 0.70841632E-01 0.18580008E+04</pdfrwt>
<pdfrwt beam="2">  1       -2 0.28834773E+00 0.18580008E+04</pdfrwt>
<totfact> 0.23862969E+00</totfact>
</mgrwt>
</event>
<event>
12    1  0.1556559E-007  0.2567140E+04  0.7818608E-02  0.8379449E-01
         -1   -1    0    0    0  501 -0.00000000000E+00  0.00000000000E+00  0.13132282847E+04  0.13132282847E+04  0.00000000000E+00 0.  1.
          1   -1    0    0  501    0  0.00000000000E+00 -0.00000000000E+00 -0.12545813493E+04  0.12545813493E+04  0.00000000000E+00 0. -1.
         23    2    1    2    0    0  0.17776214779E+03 -0.10768044924E+04 -0.24191235776E+03  0.11220080184E+04  0.96296980312E+02 0.  0.
        254    2    1    2    0    0 -0.17776214779E+03  0.10768044924E+04  0.30055929312E+03  0.14458016156E+04  0.89938819587E+03 0.  0.
        -24    2    4    4    0    0  0.23239977780E+03  0.87556718611E+03  0.32377534694E+02  0.91019696831E+03  0.82356919843E+02 0.  0.
         24    2    4    4    0    0 -0.41016192560E+03  0.20123730629E+03  0.26818175843E+03  0.53560464727E+03  0.78877271587E+02 0.  0.
         13    1    3    3    0    0  0.10856216794E+02 -0.47707508784E+02  0.88718564164E+01  0.49724980379E+02  0.00000000000E+00 0. -1.
        -13    1    3    3    0    0  0.16690593100E+03 -0.10290969836E+04 -0.25078421418E+03  0.10722830380E+04  0.00000000000E+00 0.  1.
          4    1    6    6  502    0 -0.26739362415E+03  0.12261264954E+03  0.12871861795E+03  0.32109452607E+03  0.00000000000E+00 0. -1.
          3    1    5    5  503    0  0.34193820558E+02  0.11114491784E+03 -0.23069836694E+02  0.11855221419E+03  0.00000000000E+00 0. -1.
         -4    1    5    5    0  503  0.19820595724E+03  0.76442226828E+03  0.55447371388E+02  0.79164475411E+03  0.00000000000E+00 0.  1.
         -3    1    6    6    0  502 -0.14276830145E+03  0.78624656754E+02  0.13946314048E+03  0.21451012121E+03  0.00000000000E+00 0.  1.
<mgrwt>
<rscale>  0 0.25671398E+04</rscale>
<asrwt>0</asrwt>
<pdfrwt beam="1">  1        1 0.19301251E+00 0.25671398E+04</pdfrwt>
<pdfrwt beam="2">  1       -1 0.20203512E+00 0.25671398E+04</pdfrwt>
<totfact> 0.12552240E+00</totfact>
</mgrwt>
</event>
<event>
12    1  0.1556559E-007  0.2111959E+04  0.7818608E-02  0.8555994E-01
         -2   -1    0    0    0  501 -0.00000000000E+00  0.00000000000E+00  0.71283722952E+03  0.71283722952E+03  0.00000000000E+00 0. -1.
          2   -1    0    0  501    0  0.00000000000E+00 -0.00000000000E+00 -0.15643016405E+04  0.15643016405E+04  0.00000000000E+00 0.  1.
         23    2    1    2    0    0 -0.39849243029E+03 -0.14930875156E+03  0.46081303885E+03  0.63254754298E+03  0.81721582574E+02 0.  0.
        254    2    1    2    0    0  0.39849243029E+03  0.14930875156E+03 -0.13122774498E+04  0.16445913270E+04  0.89527605091E+03 0.  0.
        -24    2    4    4    0    0 -0.13267114222E+03  0.35666625392E+03 -0.72507167728E+03  0.82276603003E+03  0.80015962872E+02 0.  0.
         24    2    4    4    0    0  0.53116357251E+03 -0.20735750235E+03 -0.58720577255E+03  0.82182529701E+03  0.73853401674E+02 0.  0.
         11    1    3    3    0    0 -0.38349704551E+03 -0.12378804894E+03  0.41922006627E+03  0.58149714439E+03  0.00000000000E+00 0. -1.
        -11    1    3    3    0    0 -0.14995384777E+02 -0.25520702625E+02  0.41592972582E+02  0.51050398581E+02  0.00000000000E+00 0.  1.
          2    1    6    6  502    0  0.19150732659E+03 -0.11049374219E+03 -0.24554019777E+03  0.33041475742E+03  0.00000000000E+00 0. -1.
          1    1    5    5  503    0  0.91610839626E+01  0.84405363177E+01 -0.30619912435E+02  0.33056726248E+02  0.00000000000E+00 0. -1.
         -2    1    5    5    0  503 -0.14183222619E+03  0.34822571760E+03 -0.69445176484E+03  0.78970930378E+03  0.00000000000E+00 0.  1.
         -1    1    6    6    0  502  0.33965624592E+03 -0.96863760164E+02 -0.34166557478E+03  0.49141053959E+03  0.00000000000E+00 0.  1.
<mgrwt>
<rscale>  0 0.21119588E+04</rscale>
<asrwt>0</asrwt>
<pdfrwt beam="1">  1        2 0.24066179E+00 0.21119588E+04</pdfrwt>
<pdfrwt beam="2">  1       -2 0.10966727E+00 0.21119588E+04</pdfrwt>
<totfact> 0.71167631E+00</totfact>
</mgrwt>
</event>
<event>
12    1  0.1556559E-007  0.1258176E+04  0.7818608E-02  0.9063406E-01
         -2   -1    0    0    0  501 -0.00000000000E+00  0.00000000000E+00  0.27534120509E+03  0.27534120509E+03  0.00000000000E+00 0.  1.
          2   -1    0    0  501    0  0.00000000000E+00 -0.00000000000E+00 -0.14373137554E+04  0.14373137554E+04  0.00000000000E+00 0. -1.
         23    2    1    2    0    0  0.19784425899E+03 -0.13435577802E+03 -0.50740934588E+03  0.56857328544E+03  0.92830548456E+02 0.  0.
        254    2    1    2    0    0 -0.19784425899E+03  0.13435577802E+03 -0.65456320446E+03  0.11440816751E+04  0.90734561480E+03 0.  0.
        -24    2    4    4    0    0  0.30943624012E+03 -0.24679828701E+02 -0.48323378324E+03  0.57984023094E+03  0.79623636614E+02 0.  0.
         24    2    4    4    0    0 -0.50728049911E+03  0.15903560672E+03 -0.17132942121E+03  0.56424144412E+03  0.79930017580E+02 0.  0.
         13    1    3    3    0    0  0.18353760509E+02 -0.13587116317E+02 -0.14279347641E+03  0.14460790836E+03  0.00000000000E+00 0.  1.
        -13    1    3    3    0    0  0.17949049848E+03 -0.12076866170E+03 -0.36461586947E+03  0.42396537708E+03  0.00000000000E+00 0. -1.
          4    1    6    6  502    0 -0.20548303321E+02  0.16341345346E+02  0.59781606489E+01  0.26926023506E+02  0.00000000000E+00 0. -1.
          3    1    5    5  503    0  0.82777876490E+02  0.22267872590E+02 -0.16968948298E+03  0.19011195549E+03  0.00000000000E+00 0. -1.
         -4    1    5    5    0  503  0.22665836363E+03 -0.46947701291E+02 -0.31354430026E+03  0.38972827545E+03  0.00000000000E+00 0.  1.
         -3    1    6    6    0  502 -0.48673219579E+03  0.14269426137E+03 -0.17730758186E+03  0.53731542062E+03  0.00000000000E+00 0.  1.
<mgrwt>
<rscale>  0 0.12581760E+04</rscale>
<asrwt>0</asrwt>
<pdfrwt beam="1">  1        2 0.22112519E+00 0.12581760E+04</pdfrwt>
<pdfrwt beam="2">  1       -2 0.42360185E-01 0.12581760E+04</pdfrwt>
<totfact> 0.71504639E+01</totfact>
</mgrwt>
</event>
<event>
12    1  0.1556559E-007  0.1652950E+04  0.7818608E-02  0.8788663E-01
         -2   -1    0    0    0  501 -0.00000000000E+00  0.00000000000E+00  0.35375145917E+03  0.35375145917E+03  0.00000000000E+00 0.  1.
          2   -1    0    0  501    0  0.00000000000E+00 -0.00000000000E+00 -0.19309054377E+04  0.19309054377E+04  0.00000000000E+00 0. -1.
         23    2    1    2    0    0 -0.31071165557E+03 -0.15010800460E+03  0.81226848013E+02  0.36612095548E+03  0.91501952175E+02 0.  0.
        254    2    1    2    0    0  0.31071165557E+03  0.15010800460E+03 -0.16583808265E+04  0.19185359414E+04  0.90082131782E+03 0.  0.
        -24    2    4    4    0    0  0.41413014207E+03  0.38238557703E+03 -0.59955571896E+03  0.82670414012E+03  0.79058023375E+02 0.  0.
         24    2    4    4    0    0 -0.10341848650E+03 -0.23227757243E+03 -0.10588251075E+04  0.10918318012E+04  0.79610425434E+02 0.  0.
         13    1    3    3    0    0 -0.19600977080E+03 -0.91270301252E+02  0.95600545749E+02  0.23640973433E+03  0.00000000000E+00 0.  1.
        -13    1    3    3    0    0 -0.11470188477E+03 -0.58837703346E+02 -0.14373697736E+02  0.12971122115E+03  0.00000000000E+00 0. -1.
          2    1    6    6  502    0 -0.78604351362E+02 -0.18710216381E+03 -0.68375441682E+03  0.71323626259E+03  0.00000000000E+00 0. -1.
          3    1    5    5  503    0  0.41331777555E+03  0.38310542150E+03 -0.60163540990E+03  0.82435824374E+03  0.00000000000E+00 0. -1.
         -4    1    5    5    0  503  0.81236651991E+00 -0.71984446723E+00  0.20796909430E+01  0.23458963826E+01  0.00000000000E+00 0.  1.
         -1    1    6    6    0  502 -0.24814135138E+02 -0.45175408620E+02 -0.37507069073E+03  0.37859553865E+03  0.00000000000E+00 0.  1.
<mgrwt>
<rscale>  0 0.16529496E+04</rscale>
<asrwt>0</asrwt>
<pdfrwt beam="1">  1        2 0.29706237E+00 0.16529496E+04</pdfrwt>
<pdfrwt beam="2">  1       -2 0.54423302E-01 0.16529496E+04</pdfrwt>
<totfact> 0.22154173E+01</totfact>
</mgrwt>
</event>
<event>
12    1  0.1556559E-007  0.1115842E+04  0.7818608E-02  0.9189887E-01
         -1   -1    0    0    0  501 -0.00000000000E+00  0.00000000000E+00  0.87157787985E+03  0.87157787985E+03  0.00000000000E+00 0.  1.
          1   -1    0    0  501    0  0.00000000000E+00 -0.00000000000E+00 -0.35714070042E+03  0.35714070042E+03  0.00000000000E+00 0. -1.
         23    2    1    2    0    0  0.95198606166E+02 -0.66443884252E+02  0.23262151388E+03  0.27505174591E+03  0.89794932143E+02 0.  0.
        254    2    1    2    0    0 -0.95198606166E+02  0.66443884252E+02  0.28181566554E+03  0.95366683436E+03  0.90364970937E+03 0.  0.
        -24    2    4    4    0    0 -0.30550377026E+03  0.36970578072E+03  0.65277387779E+01  0.48641915501E+03  0.80907756395E+02 0.  0.
         24    2    4    4    0    0  0.21030516410E+03 -0.30326189647E+03  0.27528792677E+03  0.46724767935E+03  0.79629839505E+02 0.  0.
         13    1    3    3    0    0  0.46777873671E+02 -0.46970289071E+02  0.44540116125E+02  0.79863630428E+02  0.00000000000E+00 0. -1.
        -13    1    3    3    0    0  0.48420732494E+02 -0.19473595181E+02  0.18808139776E+03  0.19518811549E+03  0.00000000000E+00 0.  1.
          2    1    6    6  502    0  0.81028291154E+02 -0.13983975558E+03  0.16706504175E+03  0.23244670224E+03  0.00000000000E+00 0. -1.
          3    1    5    5  503    0 -0.43734119177E+02  0.77907221953E+02 -0.26041695722E+02  0.93061153704E+02  0.00000000000E+00 0. -1.
         -4    1    5    5    0  503 -0.26176965109E+03  0.29179855877E+03  0.32569434500E+02  0.39335800131E+03  0.00000000000E+00 0.  1.
         -1    1    6    6    0  502  0.12927687294E+03 -0.16342214089E+03  0.10822288502E+03  0.23480097711E+03  0.00000000000E+00 0.  1.
<mgrwt>
<rscale>  0 0.11158422E+04</rscale>
<asrwt>0</asrwt>
<pdfrwt beam="1">  1        1 0.54944723E-01 0.11158422E+04</pdfrwt>
<pdfrwt beam="2">  1       -1 0.13408890E+00 0.11158422E+04</pdfrwt>
<totfact> 0.32544183E+01</totfact>
</mgrwt>
</event>
<event>
12    1  0.1556559E-007  0.3826996E+04  0.7818608E-02  0.8040386E-01
         -1   -1    0    0    0  501 -0.00000000000E+00  0.00000000000E+00  0.14943563422E+04  0.14943563422E+04  0.00000000000E+00 0.  1.
          1   -1    0    0  501    0  0.00000000000E+00 -0.00000000000E+00 -0.24502021174E+04  0.24502021174E+04  0.00000000000E+00 0. -1.
         23    2    1    2    0    0 -0.14595766828E+04  0.91877352532E+03 -0.10063919337E+04  0.19988857377E+04  0.90612274992E+02 0.  0.
        254    2    1    2    0    0  0.14595766828E+04 -0.91877352532E+03  0.50546158573E+02  0.19456727219E+04  0.89920995470E+03 0.  0.
        -24    2    4    4    0    0  0.12276735051E+04 -0.69014976139E+03 -0.31952296006E+03  0.14462318908E+04  0.77477943039E+02 0.  0.
         24    2    4    4    0    0  0.23190317767E+03 -0.22862376393E+03  0.37006911863E+03  0.49944083104E+03  0.80262580955E+02 0.  0.
         13    1    3    3    0    0 -0.11300501446E+04  0.71813915078E+03 -0.82374551872E+03  0.15720349388E+04  0.00000000000E+00 0. -1.
        -13    1    3    3    0    0 -0.32952653818E+03  0.20063437454E+03 -0.18264641503E+03  0.42685079891E+03  0.00000000000E+00 0.  1.
          2    1    6    6  502    0  0.17366776801E+03 -0.17384840146E+03  0.22197367616E+03  0.33114358403E+03  0.00000000000E+00 0. -1.
          1    1    5    5  503    0  0.77709789548E+03 -0.41774852272E+03 -0.23444111533E+03  0.91288422264E+03  0.00000000000E+00 0. -1.
         -2    1    5    5    0  503  0.45057560966E+03 -0.27240123868E+03 -0.85081844731E+02  0.53334766818E+03  0.00000000000E+00 0.  1.
         -1    1    6    6    0  502  0.58235409661E+02 -0.54775362466E+02  0.14809544246E+03  0.16829724701E+03  0.00000000000E+00 0.  1.
<mgrwt>
<rscale>  0 0.38269962E+04</rscale>
<asrwt>0</asrwt>
<pdfrwt beam="1">  1        1 0.37695417E+00 0.38269962E+04</pdfrwt>
<pdfrwt beam="2">  1       -1 0.22990098E+00 0.38269962E+04</pdfrwt>
<totfact> 0.11008317E-01</totfact>
</mgrwt>
</event>
<event>
12    1  0.1556559E-007  0.1113142E+04  0.7818608E-02  0.9192477E-01
          1   -1    0    0  501    0  0.00000000000E+00  0.00000000000E+00  0.37872109133E+03  0.37872109133E+03  0.00000000000E+00 0. -1.
         -1   -1    0    0    0  501 -0.00000000000E+00 -0.00000000000E+00 -0.81793991996E+03  0.81793991996E+03  0.00000000000E+00 0.  1.
         23    2    1    2    0    0 -0.13108981232E+03  0.52704925110E+02 -0.18821120998E+03  0.25237295903E+03  0.91138920657E+02 0.  0.
        254    2    1    2    0    0  0.13108981232E+03 -0.52704925110E+02 -0.25100761865E+03  0.94428805227E+03  0.89928457844E+03 0.  0.
        -24    2    4    4    0    0 -0.33167323119E+02  0.11097266789E+03  0.30525882999E+03  0.33631106325E+03  0.80667054212E+02 0.  0.
         24    2    4    4    0    0  0.16425713544E+03 -0.16367759300E+03 -0.55626644864E+03  0.60797698902E+03  0.80205338427E+02 0.  0.
         13    1    3    3    0    0 -0.10490130368E+03  0.76868907011E+02 -0.12842590209E+03  0.18277397163E+03  0.00000000000E+00 0. -1.
        -13    1    3    3    0    0 -0.26188508640E+02 -0.24163981901E+02 -0.59785307893E+02  0.69598987392E+02  0.00000000000E+00 0.  1.
          2    1    6    6  502    0  0.16371750795E+03 -0.14985594398E+03 -0.54939350198E+03  0.59253138851E+03  0.00000000000E+00 0. -1.
          3    1    5    5  503    0 -0.29628932517E+02  0.86332379674E+02  0.29599754499E+03  0.30975102915E+03  0.00000000000E+00 0. -1.
         -4    1    5    5    0  503 -0.35383906020E+01  0.24640288212E+02  0.92612850015E+01  0.26560034094E+02  0.00000000000E+00 0.  1.
         -1    1    6    6    0  502  0.53962749278E+00 -0.13821649018E+02 -0.68729466544E+01  0.15445600510E+02  0.00000000000E+00 0.  1.
<mgrwt>
<rscale>  0 0.11131417E+04</rscale>
<asrwt>0</asrwt>
<pdfrwt beam="1">  1        1 0.58264784E-01 0.11131417E+04</pdfrwt>
<pdfrwt beam="2">  1       -1 0.12583691E+00 0.11131417E+04</pdfrwt>
<totfact> 0.35369124E+01</totfact>
</mgrwt>
</event>
<event>
12    1  0.1556559E-007  0.1912525E+04  0.7818608E-02  0.8648647E-01
         -2   -1    0    0    0  501 -0.00000000000E+00  0.00000000000E+00  0.28441128553E+03  0.28441128553E+03  0.00000000000E+00 0.  1.
          2   -1    0    0  501    0  0.00000000000E+00 -0.00000000000E+00 -0.32151954174E+04  0.32151954174E+04  0.00000000000E+00 0. -1.
         23    2    1    2    0    0 -0.41572818695E+03  0.50210472884E+03 -0.49568077884E+03  0.82390215217E+03  0.90422550719E+02 0.  0.
        254    2    1    2    0    0  0.41572818695E+03 -0.50210472884E+03 -0.24351033530E+04  0.26757045507E+04  0.89706600586E+03 0.  0.
        -24    2    4    4    0    0 -0.71763239497E+02 -0.40260966762E+03 -0.39554807009E+03  0.57485265264E+03  0.82175358168E+02 0.  0.
         24    2    4    4    0    0  0.48749142645E+03 -0.99495061223E+02 -0.20395552829E+04  0.21008518981E+04  0.79030295551E+02 0.  0.
         11    1    3    3    0    0 -0.50349392373E+02  0.87830639242E+02 -0.11410059789E+03  0.15253927016E+03  0.00000000000E+00 0. -1.
        -11    1    3    3    0    0 -0.36537879458E+03  0.41427408960E+03 -0.38158018096E+03  0.67136288201E+03  0.00000000000E+00 0.  1.
          4    1    6    6  502    0  0.44276330220E+02 -0.19435684531E+02 -0.30337964516E+03  0.30720896528E+03  0.00000000000E+00 0. -1.
          3    1    5    5  503    0  0.17652021985E+02 -0.50739760096E+02 -0.59180077814E+02  0.79927459267E+02  0.00000000000E+00 0. -1.
         -4    1    5    5    0  503 -0.89415261482E+02 -0.35186990753E+03 -0.33636799228E+03  0.49492519338E+03  0.00000000000E+00 0.  1.
         -3    1    6    6    0  502  0.44321509623E+03 -0.80059376692E+02 -0.17361756378E+04  0.17936429328E+04  0.00000000000E+00 0.  1.
<mgrwt>
<rscale>  0 0.19125249E+04</rscale>
<asrwt>0</asrwt>
<pdfrwt beam="1">  1        2 0.49464543E+00 0.19125249E+04</pdfrwt>
<pdfrwt beam="2">  1       -2 0.43755584E-01 0.19125249E+04</pdfrwt>
<totfact> 0.58991941E+00</totfact>
</mgrwt>
</event>
<event>
12    1  0.1556559E-007  0.2389743E+04  0.7818608E-02  0.8443354E-01
          2   -1    0    0  501    0  0.00000000000E+00  0.00000000000E+00  0.21545659860E+04  0.21545659860E+04  0.00000000000E+00 0. -1.
         -2   -1    0    0    0  501 -0.00000000000E+00 -0.00000000000E+00 -0.66264767428E+03  0.66264767428E+03  0.00000000000E+00 0.  1.
         23    2    1    2    0    0  0.73766724182E+03  0.60205865459E+03  0.20135433736E+03  0.97733480819E+03  0.89510753014E+02 0.  0.
        254    2    1    2    0    0 -0.73766724182E+03 -0.60205865459E+03  0.12905639744E+04  0.18398788521E+04  0.90164917526E+03 0.  0.
        -24    2    4    4    0    0 -0.87342652198E+02 -0.77508179795E+01 -0.12397903299E+03  0.17144891448E+03  0.79593439322E+02 0.  0.
         24    2    4    4    0    0 -0.65032458962E+03 -0.59430783661E+03  0.14145430074E+04  0.16684299376E+04  0.81256756931E+02 0.  0.
         11    1    3    3    0    0  0.32930768628E+03  0.29642274254E+03  0.13367573955E+03  0.46279498472E+03  0.00000000000E+00 0. -1.
        -11    1    3    3    0    0  0.40835955554E+03  0.30563591205E+03  0.67678597816E+02  0.51453982347E+03  0.00000000000E+00 0.  1.
          2    1    6    6  502    0 -0.27469112823E+03 -0.23396164020E+03  0.50856934079E+03  0.62356718917E+03  0.00000000000E+00 0. -1.
          1    1    5    5  503    0 -0.82041782560E+01 -0.19385602894E+02  0.31140610095E+01  0.21279274339E+02  0.00000000000E+00 0. -1.
         -2    1    5    5    0  503 -0.79138473942E+02  0.11634784914E+02 -0.12709309400E+03  0.15016964014E+03  0.00000000000E+00 0.  1.
         -1    1    6    6    0  502 -0.37563346140E+03 -0.36034619641E+03  0.90597366659E+03  0.10448627485E+04  0.00000000000E+00 0.  1.
<mgrwt>
<rscale>  0 0.23897432E+04</rscale>
<asrwt>0</asrwt>
<pdfrwt beam="1">  1        2 0.33147169E+00 0.23897432E+04</pdfrwt>
<pdfrwt beam="2">  1       -2 0.10194580E+00 0.23897432E+04</pdfrwt>
<totfact> 0.38881288E+00</totfact>
</mgrwt>
</event>
<event>
12    1  0.1556559E-007  0.1227827E+04  0.7818608E-02  0.9088842E-01
          1   -1    0    0  501    0  0.00000000000E+00  0.00000000000E+00  0.25463189782E+04  0.25463189782E+04  0.00000000000E+00 0. -1.
         -1   -1    0    0    0  501 -0.00000000000E+00 -0.00000000000E+00 -0.14801369907E+03  0.14801369907E+03  0.00000000000E+00 0.  1.
         23    2    1    2    0    0 -0.13131388461E+03 -0.22580788007E+03  0.38877742719E+03  0.47750049766E+03  0.92877889617E+02 0.  0.
        254    2    1    2    0    0  0.13131388461E+03  0.22580788007E+03  0.20095278519E+04  0.22168321796E+04  0.89883824454E+03 0.  0.
        -24    2    4    4    0    0 -0.16652858021E+03 -0.27020048711E+03  0.98635734886E+03  0.10390468041E+04  0.77313454490E+02 0.  0.
         24    2    4    4    0    0  0.29784246481E+03  0.49600836718E+03  0.10231705031E+04  0.11777853755E+04  0.74606153773E+02 0.  0.
         11    1    3    3    0    0 -0.58155877662E+02 -0.25586887399E+02  0.10210111286E+03  0.12025569492E+03  0.00000000000E+00 0. -1.
        -11    1    3    3    0    0 -0.73158006943E+02 -0.20022099267E+03  0.28667631433E+03  0.35724480274E+03  0.00000000000E+00 0.  1.
          4    1    6    6  502    0  0.14556827464E+03  0.18097288909E+03  0.37174240920E+03  0.43833061491E+03  0.00000000000E+00 0. -1.
          3    1    5    5  503    0 -0.10275224979E+02 -0.16834022666E+02  0.20878861638E+02  0.28720923223E+02  0.00000000000E+00 0. -1.
         -4    1    5    5    0  503 -0.15625335523E+03 -0.25336646445E+03  0.96547848722E+03  0.10103258809E+04  0.00000000000E+00 0.  1.
         -3    1    6    6    0  502  0.15227419017E+03  0.31503547809E+03  0.65142809386E+03  0.73945476057E+03  0.00000000000E+00 0.  1.
<mgrwt>
<rscale>  0 0.12278275E+04</rscale>
<asrwt>0</asrwt>
<pdfrwt beam="1">  1        1 0.39174135E+00 0.12278275E+04</pdfrwt>
<pdfrwt beam="2">  1       -1 0.22771340E-01 0.12278275E+04</pdfrwt>
<totfact> 0.20543424E+01</totfact>
</mgrwt>
</event>
<event>
12    1  0.1556559E-007  0.1362403E+04  0.7818608E-02  0.8981492E-01
         -2   -1    0    0    0  501 -0.00000000000E+00  0.00000000000E+00  0.89824677526E+03  0.89824677526E+03  0.00000000000E+00 0. -1.
          2   -1    0    0  501    0  0.00000000000E+00 -0.00000000000E+00 -0.51660146282E+03  0.51660146282E+03  0.00000000000E+00 0.  1.
         23    2    1    2    0    0  0.82588153499E+02 -0.15211373940E+03 -0.23876760520E+03  0.30780665517E+03  0.88179220126E+02 0.  0.
        254    2    1    2    0    0 -0.82588153499E+02  0.15211373940E+03  0.62041291763E+03  0.11070415829E+04  0.90037185935E+03 0.  0.
        -24    2    4    4    0    0  0.57503848190E+02 -0.30760681113E+03  0.60680017498E+01  0.32304346898E+03  0.79947604062E+02 0.  0.
         24    2    4    4    0    0 -0.14009200169E+03  0.45972055053E+03  0.61434491588E+03  0.78399811392E+03  0.79149311069E+02 0.  0.
         13    1    3    3    0    0  0.16789275455E+02  0.62206916311E+01 -0.48398768005E+02  0.51604433134E+02  0.00000000000E+00 0. -1.
        -13    1    3    3    0    0  0.65798878044E+02 -0.15833443103E+03 -0.19036883719E+03  0.25620222203E+03  0.00000000000E+00 0.  1.
          4    1    6    6  502    0 -0.12169864290E+03  0.28364221518E+03  0.41834843595E+03  0.51988352520E+03  0.00000000000E+00 0. -1.
          3    1    5    5  503    0  0.66527059461E+02 -0.14165677149E+03 -0.39033618846E+01  0.15654943878E+03  0.00000000000E+00 0. -1.
         -4    1    5    5    0  503 -0.90232112709E+01 -0.16595003965E+03  0.99713636344E+01  0.16649403020E+03  0.00000000000E+00 0.  1.
         -3    1    6    6    0  502 -0.18393358794E+02  0.17607833536E+03  0.19599647993E+03  0.26411458872E+03  0.00000000000E+00 0.  1.
<mgrwt>
<rscale>  0 0.13624032E+04</rscale>
<asrwt>0</asrwt>
<pdfrwt beam="1">  1        2 0.79477148E-01 0.13624032E+04</pdfrwt>
<pdfrwt beam="2">  1       -2 0.13819181E+00 0.13624032E+04</pdfrwt>
<totfact> 0.21474659E+01</totfact>
</mgrwt>
</event>
<event>
12    1  0.1556559E-007  0.2446218E+04  0.7818608E-02  0.8422400E-01
          2   -1    0    0  501    0  0.00000000000E+00  0.00000000000E+00  0.13822579533E+04  0.13822579533E+04  0.00000000000E+00 0. -1.
         -2   -1    0    0    0  501 -0.00000000000E+00 -0.00000000000E+00 -0.10822841236E+04  0.10822841236E+04  0.00000000000E+00 0.  1.
         23    2    1    2    0    0  0.39647058511E+03 -0.85106137714E+03 -0.35194460992E+03  0.10068775768E+04  0.91886091094E+02 0.  0.
        254    2    1    2    0    0 -0.39647058511E+03  0.85106137714E+03  0.65191843962E+03  0.14576645001E+04  0.90459590453E+03 0.  0.
        -24    2    4    4    0    0 -0.34286175975E+03  0.95316156998E+03  0.27101449525E+03  0.10516615239E+04  0.80448364872E+02 0.  0.
         24    2    4    4    0    0 -0.53608825359E+02 -0.10210019284E+03  0.38090394438E+03  0.40600297623E+03  0.80325875869E+02 0.  0.
         13    1    3    3    0    0  0.15473553264E+03 -0.25969339120E+03 -0.14543541615E+03  0.33546266970E+03  0.00000000000E+00 0. -1.
        -13    1    3    3    0    0  0.24173505246E+03 -0.59136798594E+03 -0.20650919378E+03  0.67141490712E+03  0.00000000000E+00 0.  1.
          4    1    6    6  502    0 -0.40656862798E+02 -0.59109120970E+02  0.33179376364E+03  0.33946129421E+03  0.00000000000E+00 0. -1.
          3    1    5    5  503    0 -0.28435376953E+03  0.68931636286E+03  0.20863304347E+03  0.77430088543E+03  0.00000000000E+00 0. -1.
         -4    1    5    5    0  503 -0.58507990216E+02  0.26384520712E+03  0.62381451779E+02  0.27736063846E+03  0.00000000000E+00 0.  1.
         -3    1    6    6    0  502 -0.12951962561E+02 -0.42991071873E+02  0.49110180737E+02  0.66541682027E+02  0.00000000000E+00 0.  1.
<mgrwt>
<rscale>  0 0.24462182E+04</rscale>
<asrwt>0</asrwt>
<pdfrwt beam="1">  1        2 0.21265507E+00 0.24462182E+04</pdfrwt>
<pdfrwt beam="2">  1       -2 0.16650525E+00 0.24462182E+04</pdfrwt>
<totfact> 0.29967183E+00</totfact>
</mgrwt>
</event>
<event>
12    1  0.1556559E-007  0.1947685E+04  0.7818608E-02  0.8631478E-01
         -1   -1    0    0    0  501 -0.00000000000E+00  0.00000000000E+00  0.78446123138E+03  0.78446123138E+03  0.00000000000E+00 0.  1.
          1   -1    0    0  501    0  0.00000000000E+00 -0.00000000000E+00 -0.12089431927E+04  0.12089431927E+04  0.00000000000E+00 0. -1.
         23    2    1    2    0    0  0.13642834989E+03  0.38127852864E+02 -0.95128202231E+03  0.96591064673E+03  0.89327843838E+02 0.  0.
        254    2    1    2    0    0 -0.13642834989E+03 -0.38127852864E+02  0.52680006102E+03  0.10274937773E+04  0.87072310771E+03 0.  0.
        -24    2    4    4    0    0  0.13424409343E+03 -0.23917265133E+03  0.60699418230E+03  0.67092143342E+03  0.80427599220E+02 0.  0.
         24    2    4    4    0    0 -0.27067244333E+03  0.20104479847E+03 -0.80194121281E+02  0.35657234389E+03  0.83846030129E+02 0.  0.
         13    1    3    3    0    0  0.65599146518E+01  0.32834478405E+02 -0.12228914940E+03  0.12679026585E+03  0.00000000000E+00 0.  1.
        -13    1    3    3    0    0  0.12986843524E+03  0.52933744585E+01 -0.82899287291E+03  0.83912038088E+03  0.00000000000E+00 0. -1.
          2    1    6    6  502    0 -0.18524706982E+03  0.13167012563E+03 -0.93436804859E+02  0.24573142933E+03  0.00000000000E+00 0. -1.
          3    1    5    5  503    0  0.81532475353E+02 -0.21066282765E+03  0.48100186517E+03  0.53140301635E+03  0.00000000000E+00 0. -1.
         -4    1    5    5    0  503  0.52711618080E+02 -0.28509823685E+02  0.12599231713E+03  0.13951841708E+03  0.00000000000E+00 0.  1.
         -1    1    6    6    0  502 -0.85425373512E+02  0.69374672843E+02  0.13242683578E+02  0.11084091456E+03  0.00000000000E+00 0.  1.
<mgrwt>
<rscale>  0 0.19476848E+04</rscale>
<asrwt>0</asrwt>
<pdfrwt beam="1">  1        1 0.18599126E+00 0.19476848E+04</pdfrwt>
<pdfrwt beam="2">  1       -1 0.12068634E+00 0.19476848E+04</pdfrwt>
<totfact> 0.59881909E+00</totfact>
</mgrwt>
</event>
<event>
12    1  0.1556559E-007  0.1769344E+04  0.7818608E-02  0.8722774E-01
         -1   -1    0    0    0  501 -0.00000000000E+00  0.00000000000E+00  0.37457350223E+03  0.37457350223E+03  0.00000000000E+00 0. -1.
          1   -1    0    0  501    0  0.00000000000E+00 -0.00000000000E+00 -0.20894291278E+04  0.20894291278E+04  0.00000000000E+00 0.  1.
         23    2    1    2    0    0  0.64926906071E+02  0.49488906749E+02 -0.15467871871E+04  0.15515344237E+04  0.89687295203E+02 0.  0.
        254    2    1    2    0    0 -0.64926906071E+02 -0.49488906749E+02 -0.16806843854E+03  0.91246820634E+03  0.89313300942E+03 0.  0.
        -24    2    4    4    0    0  0.22461564822E+03 -0.26237204476E+03  0.18731917203E+03  0.40080283385E+03  0.79140129611E+02 0.  0.
         24    2    4    4    0    0 -0.28954255429E+03  0.21288313802E+03 -0.35538761057E+03  0.51166537249E+03  0.79667926148E+02 0.  0.
         13    1    3    3    0    0 -0.52251406633E+01  0.49932275229E+02 -0.74122514539E+03  0.74292344852E+03  0.00000000000E+00 0. -1.
        -13    1    3    3    0    0  0.70152046734E+02 -0.44336848040E+00 -0.80556204167E+03  0.80861097520E+03  0.00000000000E+00 0.  1.
          4    1    6    6  502    0 -0.25233204822E+03  0.14819273019E+03 -0.26872365365E+03  0.39729705495E+03  0.00000000000E+00 0. -1.
          3    1    5    5  503    0  0.20724661889E+03 -0.19483346904E+03  0.14572973463E+03  0.31960662893E+03  0.00000000000E+00 0. -1.
         -4    1    5    5    0  503  0.17369029330E+02 -0.67538575726E+02  0.41589437397E+02  0.81196204923E+02  0.00000000000E+00 0.  1.
         -3    1    6    6    0  502 -0.37210506069E+02  0.64690407828E+02 -0.86663956918E+02  0.11436831753E+03  0.00000000000E+00 0.  1.
<mgrwt>
<rscale>  0 0.17693443E+04</rscale>
<asrwt>0</asrwt>
<pdfrwt beam="1">  1        1 0.32145062E+00 0.17693443E+04</pdfrwt>
<pdfrwt beam="2">  1       -1 0.57626695E-01 0.17693443E+04</pdfrwt>
<totfact> 0.74785520E+00</totfact>
</mgrwt>
</event>
<event>
12    1  0.1556559E-007  0.1353188E+04  0.7818608E-02  0.8988418E-01
         -2   -1    0    0    0  501 -0.00000000000E+00  0.00000000000E+00  0.99824110773E+03  0.99824110773E+03  0.00000000000E+00 0.  1.
          2   -1    0    0  501    0  0.00000000000E+00 -0.00000000000E+00 -0.45858603615E+03  0.45858603615E+03  0.00000000000E+00 0. -1.
         23    2    1    2    0    0  0.27967644841E+03 -0.23962249497E+03  0.14174915499E+03  0.40457730068E+03  0.89174623060E+02 0.  0.
        254    2    1    2    0    0 -0.27967644841E+03  0.23962249497E+03  0.39790591659E+03  0.10522498432E+04  0.90181082171E+03 0.  0.
        -24    2    4    4    0    0 -0.48268722296E+03  0.32606398955E+03 -0.29048185918E+01  0.58782668747E+03  0.78911951198E+02 0.  0.
         24    2    4    4    0    0  0.20301077454E+03 -0.86441494582E+02  0.40081073519E+03  0.46442315572E+03  0.79712706424E+02 0.  0.
         11    1    3    3    0    0  0.23691440649E+03 -0.20659189008E+03  0.83740192457E+02  0.32530149843E+03  0.00000000000E+00 0. -1.
        -11    1    3    3    0    0  0.42762041925E+02 -0.33030604885E+02  0.58008962534E+02  0.79275802253E+02  0.00000000000E+00 0.  1.
          4    1    6    6  502    0  0.12874474480E+03 -0.28364030581E+02  0.29244497289E+03  0.32078620561E+03  0.00000000000E+00 0. -1.
          1    1    5    5  503    0 -0.37691839200E+03  0.24174207379E+03 -0.33875185455E+02  0.44905927522E+03  0.00000000000E+00 0. -1.
         -2    1    5    5    0  503 -0.10576883096E+03  0.84321915761E+02  0.30970366863E+02  0.13876741225E+03  0.00000000000E+00 0.  1.
         -3    1    6    6    0  502  0.74266029745E+02 -0.58077464000E+02  0.10836576230E+03  0.14363695011E+03  0.00000000000E+00 0.  1.
<mgrwt>
<rscale>  0 0.13531880E+04</rscale>
<asrwt>0</asrwt>
<pdfrwt beam="1">  1        2 0.70551698E-01 0.13531880E+04</pdfrwt>
<pdfrwt beam="2">  1       -2 0.15357555E+00 0.13531880E+04</pdfrwt>
<totfact> 0.18682982E+01</totfact>
</mgrwt>
</event>
<event>
12    1  0.1556559E-007  0.3511723E+04  0.7818608E-02  0.8111017E-01
          2   -1    0    0  501    0  0.00000000000E+00  0.00000000000E+00  0.13626648397E+04  0.13626648397E+04  0.00000000000E+00 0. -1.
         -2   -1    0    0    0  501 -0.00000000000E+00 -0.00000000000E+00 -0.22625149351E+04  0.22625149351E+04  0.00000000000E+00 0.  1.
         23    2    1    2    0    0 -0.37904856230E+03 -0.43183336001E+03 -0.20053295278E+04  0.20891589816E+04  0.11437163948E+03 0.  0.
        254    2    1    2    0    0  0.37904856230E+03  0.43183336001E+03  0.11054794324E+04  0.15360207931E+04  0.89839703799E+03 0.  0.
        -24    2    4    4    0    0 -0.14168713707E+03  0.25548157962E+03  0.46173326315E+01  0.30288633791E+03  0.79829390549E+02 0.  0.
         24    2    4    4    0    0  0.52073569938E+03  0.17635178039E+03  0.11008620998E+04  0.12331344552E+04  0.80359210524E+02 0.  0.
         13    1    3    3    0    0 -0.15488325392E+03 -0.22685800557E+03 -0.78796496536E+03  0.83447118804E+03  0.00000000000E+00 0. -1.
        -13    1    3    3    0    0 -0.22416530839E+03 -0.20497535444E+03 -0.12173645625E+04  0.12546877936E+04  0.00000000000E+00 0.  1.
          4    1    6    6  502    0  0.48419946250E+03  0.16972115320E+03  0.10616332349E+04  0.11791181089E+04  0.00000000000E+00 0. -1.
          1    1    5    5  503    0 -0.13273061021E+03  0.25465380414E+03  0.16896118859E+02  0.28766552398E+03  0.00000000000E+00 0. -1.
         -2    1    5    5    0  503 -0.89565268605E+01  0.82777547746E+00 -0.12278786227E+02  0.15220813935E+02  0.00000000000E+00 0.  1.
         -3    1    6    6    0  502  0.36536236879E+02  0.66306271893E+01  0.39228864904E+02  0.54016346265E+02  0.00000000000E+00 0.  1.
<mgrwt>
<rscale>  0 0.35117230E+04</rscale>
<asrwt>0</asrwt>
<pdfrwt beam="1">  1        2 0.20964075E+00 0.35117230E+04</pdfrwt>
<pdfrwt beam="2">  1       -2 0.34807922E+00 0.35117230E+04</pdfrwt>
<totfact> 0.19959113E-01</totfact>
</mgrwt>
</event>
<event>
12    1  0.1580438E-007  0.2227156E+04  0.7818608E-02  0.8507209E-01
          2   -1    0    0  501    0  0.00000000000E+00  0.00000000000E+00  0.21660315864E+04  0.21660315864E+04  0.00000000000E+00 0. -1.
         -2   -1    0    0    0  501 -0.00000000000E+00 -0.00000000000E+00 -0.57250137132E+03  0.57250137132E+03  0.00000000000E+00 0.  1.
         23    2    1    2    0    0 -0.54837787090E+03 -0.75401298031E+03  0.63861959920E+03  0.11338720447E+04  0.92611864624E+02 0.  0.
        254    2    1    2    0    0  0.54837787090E+03  0.75401298031E+03  0.95491061592E+03  0.16046609131E+04  0.89097053699E+03 0.  0.
        -24    2    4    4    0    0  0.29408391224E+02  0.26736045892E+03  0.83154147554E+03  0.87758149809E+03  0.79634111927E+02 0.  0.
         24    2    4    4    0    0  0.51896947967E+03  0.48665252140E+03  0.12336914038E+03  0.72707941498E+03  0.85232232631E+02 0.  0.
         13    1    3    3    0    0 -0.29581380797E+03 -0.41338147502E+03  0.29227819709E+03  0.58635876165E+03  0.00000000000E+00 0.  1.
        -13    1    3    3    0    0 -0.25256406293E+03 -0.34063150530E+03  0.34634140211E+03  0.54751328304E+03  0.00000000000E+00 0. -1.
          4    1    6    6  502    0  0.48536287465E+03  0.47627938408E+03  0.12682246739E+03  0.69173919220E+03  0.00000000000E+00 0. -1.
          3    1    5    5  503    0  0.21642644034E+02  0.25781291845E+03  0.82271648498E+03  0.86243742939E+03  0.00000000000E+00 0. -1.
         -4    1    5    5    0  503  0.77657471895E+01  0.95475404711E+01  0.88249905663E+01  0.15144068705E+02  0.00000000000E+00 0.  1.
         -3    1    6    6    0  502  0.33606605020E+02  0.10373137319E+02 -0.34533270183E+01  0.35340222782E+02  0.00000000000E+00 0.  1.
<mgrwt>
<rscale>  0 0.22271561E+04</rscale>
<asrwt>0</asrwt>
<pdfrwt beam="1">  1        2 0.33323562E+00 0.22271561E+04</pdfrwt>
<pdfrwt beam="2">  1       -2 0.88077135E-01 0.22271561E+04</pdfrwt>
<totfact> 0.54653635E+00</totfact>
</mgrwt>
</event>
<event>
12    1  0.1556559E-007  0.1692004E+04  0.7818608E-02  0.8765938E-01
          1   -1    0    0  501    0  0.00000000000E+00  0.00000000000E+00  0.60319381132E+03  0.60319381132E+03  0.00000000000E+00 0. -1.
         -1   -1    0    0    0  501 -0.00000000000E+00 -0.00000000000E+00 -0.11865492942E+04  0.11865492942E+04  0.00000000000E+00 0.  1.
         23    2    1    2    0    0 -0.30106536129E+03 -0.51752767394E+03 -0.29337971533E+03  0.67303173397E+03  0.91786777370E+02 0.  0.
        254    2    1    2    0    0  0.30106536129E+03  0.51752767394E+03 -0.28997576753E+03  0.11167113715E+04  0.89692981692E+03 0.  0.
        -24    2    4    4    0    0  0.18262809195E+03  0.38338062999E+03 -0.60603995948E+03  0.74471701436E+03  0.83577937114E+02 0.  0.
         24    2    4    4    0    0  0.11843726934E+03  0.13414704395E+03  0.31606419195E+03  0.37199435717E+03  0.80376689163E+02 0.  0.
         11    1    3    3    0    0 -0.20821650498E+03 -0.37098129740E+03 -0.16122219423E+03  0.45494376782E+03  0.00000000000E+00 0. -1.
        -11    1    3    3    0    0 -0.92848856309E+02 -0.14654637654E+03 -0.13215752110E+03  0.21808796615E+03  0.00000000000E+00 0.  1.
          4    1    6    6  502    0  0.71953930576E+02  0.12379536047E+03  0.19519585097E+03  0.24208279500E+03  0.00000000000E+00 0. -1.
          1    1    5    5  503    0  0.77403047849E+02  0.10229046335E+03 -0.23245357621E+03  0.26549809002E+03  0.00000000000E+00 0. -1.
         -4    1    5    5    0  503  0.10522504410E+03  0.28109016663E+03 -0.37358638327E+03  0.47921892434E+03  0.00000000000E+00 0.  1.
         -3    1    6    6    0  502  0.46483338766E+02  0.10351683486E+02  0.12086834098E+03  0.12991156217E+03  0.00000000000E+00 0.  1.
<mgrwt>
<rscale>  0 0.16920038E+04</rscale>
<asrwt>0</asrwt>
<pdfrwt beam="1">  1        1 0.92799049E-01 0.16920038E+04</pdfrwt>
<pdfrwt beam="2">  1       -1 0.18254604E+00 0.16920038E+04</pdfrwt>
<totfact> 0.64570401E+00</totfact>
</mgrwt>
</event>
<event>
12    1  0.1556559E-007  0.1507929E+04  0.7818608E-02  0.8879197E-01
          1   -1    0    0  501    0  0.00000000000E+00  0.00000000000E+00  0.27382968028E+04  0.27382968028E+04  0.00000000000E+00 0. -1.
         -1   -1    0    0    0  501 -0.00000000000E+00 -0.00000000000E+00 -0.20759713582E+03  0.20759713582E+03  0.00000000000E+00 0.  1.
         23    2    1    2    0    0  0.35738290415E+03  0.10903942105E+03  0.23055939864E+03  0.44726602336E+03  0.85306059785E+02 0.  0.
        254    2    1    2    0    0 -0.35738290415E+03 -0.10903942105E+03  0.23001402683E+04  0.24986279152E+04  0.90160083703E+03 0.  0.
        -24    2    4    4    0    0  0.83543002588E+02  0.26481098213E+03  0.30762223149E+03  0.42263123536E+03  0.82954410710E+02 0.  0.
         24    2    4    4    0    0 -0.44092590673E+03 -0.37385040318E+03  0.19925180368E+04  0.20759966799E+04  0.73853290941E+02 0.  0.
         13    1    3    3    0    0  0.26825454668E+02  0.33204742704E+02  0.14210255954E+02  0.44989902539E+02  0.00000000000E+00 0. -1.
        -13    1    3    3    0    0  0.33055744948E+03  0.75834678342E+02  0.21634914269E+03  0.40227612082E+03  0.00000000000E+00 0.  1.
          4    1    6    6  502    0 -0.33277786843E+03 -0.24145560503E+03  0.13606211212E+04  0.14213837464E+04  0.00000000000E+00 0. -1.
          3    1    5    5  503    0  0.84844327332E+02  0.18937496018E+03  0.18161403209E+03  0.27576274599E+03  0.00000000000E+00 0. -1.
         -4    1    5    5    0  503 -0.13013247448E+01  0.75436021950E+02  0.12600819940E+03  0.14686848937E+03  0.00000000000E+00 0.  1.
         -3    1    6    6    0  502 -0.10814803830E+03 -0.13239479814E+03  0.63189691558E+03  0.65461293348E+03  0.00000000000E+00 0.  1.
<mgrwt>
<rscale>  0 0.15079291E+04</rscale>
<asrwt>0</asrwt>
<pdfrwt beam="1">  1        1 0.42127640E+00 0.15079291E+04</pdfrwt>
<pdfrwt beam="2">  1       -1 0.31938023E-01 0.15079291E+04</pdfrwt>
<totfact> 0.81766974E+00</totfact>
</mgrwt>
</event>
<event>
12    1  0.1556559E-007  0.1774898E+04  0.7818608E-02  0.8719764E-01
         -2   -1    0    0    0  501 -0.00000000000E+00  0.00000000000E+00  0.10490897453E+04  0.10490897453E+04  0.00000000000E+00 0.  1.
          2   -1    0    0  501    0  0.00000000000E+00 -0.00000000000E+00 -0.75071312975E+03  0.75071312975E+03  0.00000000000E+00 0. -1.
         23    2    1    2    0    0 -0.26246971489E+03 -0.48452715155E+02 -0.40021054735E+03  0.48934869042E+03  0.89753227015E+02 0.  0.
        254    2    1    2    0    0  0.26246971489E+03  0.48452715155E+02  0.69858716295E+03  0.13104541847E+04  0.10761171540E+04 0.  0.
        -24    2    4    4    0    0 -0.10078257231E+03  0.12635925864E+03 -0.23860239437E+03  0.29909937368E+03  0.80034640063E+02 0.  0.
         24    2    4    4    0    0  0.36325228720E+03 -0.77906543486E+02  0.93718955732E+03  0.10113548110E+04  0.80576880727E+02 0.  0.
         11    1    3    3    0    0 -0.11195847838E+03 -0.64105038553E+02 -0.20733380761E+03  0.24419554588E+03  0.00000000000E+00 0.  1.
        -11    1    3    3    0    0 -0.15051123650E+03  0.15652323398E+02 -0.19287673975E+03  0.24515314454E+03  0.00000000000E+00 0. -1.
          4    1    6    6  502    0  0.36742210002E+03 -0.74919653680E+02  0.92278648731E+03  0.99606568822E+03  0.00000000000E+00 0. -1.
          3    1    5    5  503    0 -0.11877920923E+02  0.55053235118E+02 -0.12998903528E+03  0.14166542625E+03  0.00000000000E+00 0. -1.
         -4    1    5    5    0  503 -0.88904651390E+02  0.71306023523E+02 -0.10861335909E+03  0.15743394743E+03  0.00000000000E+00 0.  1.
         -3    1    6    6    0  502 -0.41698128160E+01 -0.29868898059E+01  0.14403070019E+02  0.15289122788E+02  0.00000000000E+00 0.  1.
<mgrwt>
<rscale>  0 0.17748977E+04</rscale>
<asrwt>0</asrwt>
<pdfrwt beam="1">  1        2 0.11549433E+00 0.17748977E+04</pdfrwt>
<pdfrwt beam="2">  1       -2 0.16139842E+00 0.17748977E+04</pdfrwt>
<totfact> 0.87100409E+00</totfact>
</mgrwt>
</event>
<event>
12    1  0.1556559E-007  0.2569082E+04  0.7818608E-02  0.8378780E-01
         -4   -1    0    0    0  501 -0.00000000000E+00  0.00000000000E+00  0.22336443384E+04  0.22336443384E+04  0.00000000000E+00 0.  1.
          4   -1    0    0  501    0  0.00000000000E+00 -0.00000000000E+00 -0.73872333451E+03  0.73872333451E+03  0.00000000000E+00 0. -1.
         23    2    1    2    0    0 -0.59342580716E+03 -0.21666931722E+03  0.17354509942E+04  0.18494389161E+04  0.97644094256E+02 0.  0.
        254    2    1    2    0    0  0.59342580716E+03  0.21666931722E+03 -0.24052999040E+03  0.11229287568E+04  0.89666857589E+03 0.  0.
        -24    2    4    4    0    0  0.48737692764E+03 -0.12907543379E+03 -0.46544086652E+03  0.69055098613E+03  0.77644877630E+02 0.  0.
         24    2    4    4    0    0  0.10604887952E+03  0.34574475101E+03  0.22491087612E+03  0.43237777069E+03  0.74698304435E+02 0.  0.
         13    1    3    3    0    0 -0.41455544234E+03 -0.15775957665E+03  0.13385225482E+04  0.14101017378E+04  0.00000000000E+00 0.  1.
        -13    1    3    3    0    0 -0.17887036482E+03 -0.58909740574E+02  0.39692844602E+03  0.43933717826E+03  0.00000000000E+00 0. -1.
          4    1    6    6  502    0  0.10085487161E+03  0.34864255733E+03  0.21850451006E+03  0.42363611605E+03  0.00000000000E+00 0. -1.
          3    1    5    5  503    0  0.45482508068E+03 -0.98807484262E+02 -0.43065824739E+03  0.63410984775E+03  0.00000000000E+00 0. -1.
         -4    1    5    5    0  503  0.32551846955E+02 -0.30267949530E+02 -0.34782619129E+02  0.56441138387E+02  0.00000000000E+00 0.  1.
         -3    1    6    6    0  502  0.51940079170E+01 -0.28978063147E+01  0.64063660548E+01  0.87416546321E+01  0.00000000000E+00 0.  1.
<mgrwt>
<rscale>  0 0.25690817E+04</rscale>
<asrwt>0</asrwt>
<pdfrwt beam="1">  1        4 0.11364974E+00 0.25690817E+04</pdfrwt>
<pdfrwt beam="2">  1       -4 0.34363759E+00 0.25690817E+04</pdfrwt>
<totfact> 0.17467413E-02</totfact>
</mgrwt>
</event>
<event>
12    1  0.1556559E-007  0.2481178E+04  0.7818608E-02  0.8409722E-01
          2   -1    0    0  501    0  0.00000000000E+00  0.00000000000E+00  0.22869801027E+04  0.22869801027E+04  0.00000000000E+00 0. -1.
         -2   -1    0    0    0  501 -0.00000000000E+00 -0.00000000000E+00 -0.67296632387E+03  0.67296632387E+03  0.00000000000E+00 0.  1.
         23    2    1    2    0    0 -0.57398658729E+03 -0.31293205185E+03  0.17197493766E+04  0.18421552530E+04  0.92795400298E+02 0.  0.
        254    2    1    2    0    0  0.57398658729E+03  0.31293205185E+03 -0.10573559779E+03  0.11177911736E+04  0.90049431960E+03 0.  0.
        -24    2    4    4    0    0  0.11411212370E+03 -0.90430127342E+02  0.32512013331E+03  0.36509796966E+03  0.79964002288E+02 0.  0.
         24    2    4    4    0    0  0.45987446359E+03  0.40336217919E+03 -0.43085573110E+03  0.75269320391E+03  0.82005050641E+02 0.  0.
         13    1    3    3    0    0 -0.34845339419E+03 -0.22751115356E+03  0.11710456534E+04  0.12427908172E+04  0.00000000000E+00 0.  1.
        -13    1    3    3    0    0 -0.22553319310E+03 -0.85420898290E+02  0.54870372322E+03  0.59936443582E+03  0.00000000000E+00 0. -1.
          4    1    6    6  502    0  0.22479245942E+02  0.56618170466E+01 -0.32162445007E+02  0.39645876698E+02  0.00000000000E+00 0. -1.
          1    1    5    5  503    0  0.65216674646E+02 -0.36800152073E+02  0.24861096662E+03  0.25964375318E+03  0.00000000000E+00 0. -1.
         -2    1    5    5    0  503  0.48895449050E+02 -0.53629975270E+02  0.76509166695E+02  0.10545421648E+03  0.00000000000E+00 0.  1.
         -3    1    6    6    0  502  0.43739521765E+03  0.39770036215E+03 -0.39869328609E+03  0.71304732722E+03  0.00000000000E+00 0.  1.
<mgrwt>
<rscale>  0 0.24811776E+04</rscale>
<asrwt>0</asrwt>
<pdfrwt beam="1">  1        2 0.35184309E+00 0.24811776E+04</pdfrwt>
<pdfrwt beam="2">  1       -2 0.10353328E+00 0.24811776E+04</pdfrwt>
<totfact> 0.31313984E+00</totfact>
</mgrwt>
</event>
<event>
12    1  0.1556559E-007  0.2361256E+04  0.7818608E-02  0.8454153E-01
          2   -1    0    0  501    0  0.00000000000E+00  0.00000000000E+00  0.18842407805E+04  0.18842407805E+04  0.00000000000E+00 0. -1.
         -2   -1    0    0    0  501 -0.00000000000E+00 -0.00000000000E+00 -0.73975835266E+03  0.73975835266E+03  0.00000000000E+00 0.  1.
         23    2    1    2    0    0 -0.58100516913E+03  0.33051026326E+03  0.13367943564E+04  0.14974977008E+04  0.93145970193E+02 0.  0.
        254    2    1    2    0    0  0.58100516913E+03 -0.33051026326E+03 -0.19231192858E+03  0.11265014324E+04  0.88612502426E+03 0.  0.
        -24    2    4    4    0    0  0.27420557996E+03 -0.18241743988E+03 -0.53720820045E+03  0.63533744015E+03  0.81216930339E+02 0.  0.
         24    2    4    4    0    0  0.30679958917E+03 -0.14809282338E+03  0.34489627187E+03  0.49116399224E+03  0.78937675838E+02 0.  0.
         13    1    3    3    0    0 -0.23162305446E+03  0.17452454368E+03  0.63759369014E+03  0.70045254615E+03  0.00000000000E+00 0. -1.
        -13    1    3    3    0    0 -0.34938211467E+03  0.15598571957E+03  0.69920066627E+03  0.79704515460E+03  0.00000000000E+00 0.  1.
          2    1    6    6  502    0  0.27644547874E+02 -0.35633509918E+01  0.52332432223E+01  0.28360277362E+02  0.00000000000E+00 0. -1.
          1    1    5    5  503    0  0.12966088685E+03 -0.13072958602E+03 -0.32316612910E+03  0.37193886223E+03  0.00000000000E+00 0. -1.
         -2    1    5    5    0  503  0.14454469311E+03 -0.51687853855E+02 -0.21404207135E+03  0.26339857792E+03  0.00000000000E+00 0.  1.
         -1    1    6    6    0  502  0.27915504130E+03 -0.14452947238E+03  0.33966302865E+03  0.46280371487E+03  0.00000000000E+00 0.  1.
<mgrwt>
<rscale>  0 0.23612563E+04</rscale>
<asrwt>0</asrwt>
<pdfrwt beam="1">  1        2 0.28988319E+00 0.23612563E+04</pdfrwt>
<pdfrwt beam="2">  1       -2 0.11380898E+00 0.23612563E+04</pdfrwt>
<totfact> 0.42274711E+00</totfact>
</mgrwt>
</event>
<event>
12    1  0.1556559E-007  0.2436715E+04  0.7818608E-02  0.8425884E-01
          2   -1    0    0  501    0  0.00000000000E+00  0.00000000000E+00  0.45393735379E+03  0.45393735379E+03  0.00000000000E+00 0. -1.
         -2   -1    0    0    0  501 -0.00000000000E+00 -0.00000000000E+00 -0.32700448413E+04  0.32700448413E+04  0.00000000000E+00 0.  1.
         23    2    1    2    0    0 -0.10047489449E+04  0.29451462844E+03 -0.10754756299E+04  0.15036742217E+04  0.90161109882E+02 0.  0.
        254    2    1    2    0    0  0.10047489449E+04 -0.29451462844E+03 -0.17406318576E+04  0.22203079734E+04  0.89649814525E+03 0.  0.
        -24    2    4    4    0    0 -0.38306898145E+01 -0.13558360566E+03 -0.84483446310E+03  0.85939388978E+03  0.80093691575E+02 0.  0.
         24    2    4    4    0    0  0.10085796347E+04 -0.15893102278E+03 -0.89579739451E+03  0.13609140836E+04  0.84511664677E+02 0.  0.
         11    1    3    3    0    0 -0.30014758099E+02  0.11591014781E+02 -0.59151980210E+02  0.67336424691E+02  0.00000000000E+00 0. -1.
        -11    1    3    3    0    0 -0.97473418682E+03  0.28292361366E+03 -0.10163236497E+04  0.14363377970E+04  0.00000000000E+00 0.  1.
          2    1    6    6  502    0  0.22892623607E+03 -0.54329489973E+02 -0.24824416545E+03  0.34202935653E+03  0.00000000000E+00 0. -1.
          3    1    5    5  503    0  0.31140060219E+02 -0.28284650481E+02 -0.16629274232E+03  0.17153134102E+03  0.00000000000E+00 0. -1.
         -4    1    5    5    0  503 -0.34970750034E+02 -0.10729895518E+03 -0.67854172078E+03  0.68786254876E+03  0.00000000000E+00 0.  1.
         -1    1    6    6    0  502  0.77965339866E+03 -0.10460153280E+03 -0.64755322905E+03  0.10188847271E+04  0.00000000000E+00 0.  1.
<mgrwt>
<rscale>  0 0.24367154E+04</rscale>
<asrwt>0</asrwt>
<pdfrwt beam="1">  1        2 0.69836516E-01 0.24367154E+04</pdfrwt>
<pdfrwt beam="2">  1       -2 0.50308382E+00 0.24367154E+04</pdfrwt>
<totfact> 0.97025408E-02</totfact>
</mgrwt>
</event>
<event>
12    1  0.1556559E-007  0.2119287E+04  0.7818608E-02  0.8552795E-01
         -1   -1    0    0    0  501 -0.00000000000E+00  0.00000000000E+00  0.14953193969E+04  0.14953193969E+04  0.00000000000E+00 0.  1.
          1   -1    0    0  501    0  0.00000000000E+00 -0.00000000000E+00 -0.75090570929E+03  0.75090570929E+03  0.00000000000E+00 0. -1.
         23    2    1    2    0    0  0.33284071386E+03  0.19103613499E+03  0.11217268829E+04  0.11891749855E+04  0.92672544766E+02 0.  0.
        254    2    1    2    0    0 -0.33284071386E+03 -0.19103613499E+03 -0.37731319529E+03  0.10570501207E+04  0.90978676880E+03 0.  0.
        -24    2    4    4    0    0  0.27534066035E+03  0.19337743113E+02 -0.27988631940E+03  0.40129237790E+03  0.80701878693E+02 0.  0.
         24    2    4    4    0    0 -0.60818137421E+03 -0.21037387810E+03 -0.97426875892E+02  0.65575774282E+03  0.79902869704E+02 0.  0.
         11    1    3    3    0    0  0.59197006583E+01  0.29239548533E+02  0.75311626323E+02  0.81005154859E+02  0.00000000000E+00 0. -1.
        -11    1    3    3    0    0  0.32692101321E+03  0.16179658646E+03  0.10464152566E+04  0.11081698306E+04  0.00000000000E+00 0.  1.
          2    1    6    6  502    0 -0.17811411684E+02  0.57111211959E+01  0.35171497177E+01  0.19032436356E+02  0.00000000000E+00 0. -1.
          3    1    5    5  503    0  0.16679127154E+03 -0.26865633856E+02 -0.15131533238E+03  0.22679819302E+03  0.00000000000E+00 0. -1.
         -4    1    5    5    0  503  0.10854938881E+03  0.46203376968E+02 -0.12857098702E+03  0.17449418488E+03  0.00000000000E+00 0.  1.
         -1    1    6    6    0  502 -0.59036996253E+03 -0.21608499930E+03 -0.10094402561E+03  0.63672530646E+03  0.00000000000E+00 0.  1.
<mgrwt>
<rscale>  0 0.21192866E+04</rscale>
<asrwt>0</asrwt>
<pdfrwt beam="1">  1        1 0.11552396E+00 0.21192866E+04</pdfrwt>
<pdfrwt beam="2">  1       -1 0.23004914E+00 0.21192866E+04</pdfrwt>
<totfact> 0.21168472E+00</totfact>
</mgrwt>
</event>
<event>
12    1  0.1556559E-007  0.1889890E+04  0.7818608E-02  0.8659905E-01
         -2   -1    0    0    0  501 -0.00000000000E+00  0.00000000000E+00  0.42729208479E+03  0.42729208479E+03  0.00000000000E+00 0.  1.
          2   -1    0    0  501    0  0.00000000000E+00 -0.00000000000E+00 -0.20897203120E+04  0.20897203120E+04  0.00000000000E+00 0. -1.
         23    2    1    2    0    0  0.67169879557E+03  0.27443556677E+03 -0.67757996953E+03  0.99702622978E+03  0.91937671747E+02 0.  0.
        254    2    1    2    0    0 -0.67169879557E+03 -0.27443556677E+03 -0.98484825767E+03  0.15199861670E+04  0.90218496159E+03 0.  0.
        -24    2    4    4    0    0 -0.71229117229E+02 -0.31082352390E+03  0.37033589106E+02  0.33150545937E+03  0.82701467442E+02 0.  0.
         24    2    4    4    0    0 -0.60046967834E+03  0.36387957130E+02 -0.10218818468E+04  0.11884807076E+04  0.79724309898E+02 0.  0.
         11    1    3    3    0    0  0.34292511592E+03  0.16282819071E+03 -0.40936313707E+03  0.55829099295E+03  0.00000000000E+00 0.  1.
        -11    1    3    3    0    0  0.32877367965E+03  0.11160737606E+03 -0.26821683246E+03  0.43873523683E+03  0.00000000000E+00 0. -1.
          2    1    6    6  502    0 -0.27510632131E+03  0.45211143313E+02 -0.52607110877E+03  0.59538084197E+03  0.00000000000E+00 0. -1.
          3    1    5    5  503    0 -0.79655736922E+02 -0.19046961968E+03  0.43193321493E+01  0.20650028832E+03  0.00000000000E+00 0. -1.
         -4    1    5    5    0  503  0.84266196925E+01 -0.12035390422E+03  0.32714256957E+02  0.12500517105E+03  0.00000000000E+00 0.  1.
         -1    1    6    6    0  502 -0.32536335703E+03 -0.88231861834E+01 -0.49581073800E+03  0.59309986565E+03  0.00000000000E+00 0.  1.
<mgrwt>
<rscale>  0 0.18898899E+04</rscale>
<asrwt>0</asrwt>
<pdfrwt beam="1">  1        2 0.32149543E+00 0.18898899E+04</pdfrwt>
<pdfrwt beam="2">  1       -2 0.65737244E-01 0.18898899E+04</pdfrwt>
<totfact> 0.11891580E+01</totfact>
</mgrwt>
</event>
<event>
12    1  0.1556559E-007  0.1384510E+04  0.7818608E-02  0.8965108E-01
          2   -1    0    0  501    0  0.00000000000E+00  0.00000000000E+00  0.21415362951E+04  0.21415362951E+04  0.00000000000E+00 0. -1.
         -2   -1    0    0    0  501 -0.00000000000E+00 -0.00000000000E+00 -0.22377238405E+03  0.22377238405E+03  0.00000000000E+00 0.  1.
         23    2    1    2    0    0  0.26157257812E+03  0.20831254249E+03  0.22794776824E+03  0.41473198183E+03  0.90708889990E+02 0.  0.
        254    2    1    2    0    0 -0.26157257812E+03 -0.20831254249E+03  0.16898161428E+04  0.19505766973E+04  0.91512650853E+03 0.  0.
        -24    2    4    4    0    0 -0.45317759353E+03 -0.27296433781E+03  0.16432033900E+04  0.17280988730E+04  0.79554215232E+02 0.  0.
         24    2    4    4    0    0  0.19160501541E+03  0.64651795325E+02  0.46612752789E+02  0.22247782424E+03  0.80195367599E+02 0.  0.
         11    1    3    3    0    0  0.21902084102E+03  0.20911086217E+03  0.18843546797E+03  0.35665867026E+03  0.00000000000E+00 0.  1.
        -11    1    3    3    0    0  0.42551737097E+02 -0.79831968243E+00  0.39512300269E+02  0.58073311571E+02  0.00000000000E+00 0. -1.
          2    1    6    6  502    0 -0.49819816115E+01 -0.65575340851E+01  0.37217795721E+01  0.90373136073E+01  0.00000000000E+00 0. -1.
          1    1    5    5  503    0 -0.10643446206E+03 -0.44617864424E+02  0.27343720637E+03  0.29679446486E+03  0.00000000000E+00 0. -1.
         -2    1    5    5    0  503 -0.34674313147E+03 -0.22834647339E+03  0.13697661836E+04  0.14313044082E+04  0.00000000000E+00 0.  1.
         -1    1    6    6    0  502  0.19658699702E+03  0.71209329410E+02  0.42890973217E+02  0.21344051063E+03  0.00000000000E+00 0.  1.
<mgrwt>
<rscale>  0 0.13845096E+04</rscale>
<asrwt>0</asrwt>
<pdfrwt beam="1">  1        2 0.32946711E+00 0.13845096E+04</pdfrwt>
<pdfrwt beam="2">  1       -2 0.34426522E-01 0.13845096E+04</pdfrwt>
<totfact> 0.42964697E+01</totfact>
</mgrwt>
</event>
<event>
12    1  0.1556559E-007  0.1472458E+04  0.7818608E-02  0.8902978E-01
         -2   -1    0    0    0  501 -0.00000000000E+00  0.00000000000E+00  0.68614888466E+03  0.68614888466E+03  0.00000000000E+00 0.  1.
          2   -1    0    0  501    0  0.00000000000E+00 -0.00000000000E+00 -0.78996382755E+03  0.78996382755E+03  0.00000000000E+00 0. -1.
         23    2    1    2    0    0 -0.41141339336E+03 -0.18091676867E+03 -0.97274335765E+02  0.46889656358E+03  0.91705144450E+02 0.  0.
        254    2    1    2    0    0  0.41141339336E+03  0.18091676867E+03 -0.65406071159E+01  0.10072161486E+04  0.90135993537E+03 0.  0.
        -24    2    4    4    0    0 -0.18373424943E+03  0.19186851626E+03  0.23300953466E+03  0.36072681616E+03  0.72516141021E+02 0.  0.
         24    2    4    4    0    0  0.59514764278E+03 -0.10951747591E+02 -0.23955014178E+03  0.64648933247E+03  0.79016005231E+02 0.  0.
         11    1    3    3    0    0 -0.41066446983E+02  0.46927326012E+01 -0.25222493077E+02  0.48421575399E+02  0.00000000000E+00 0.  1.
        -11    1    3    3    0    0 -0.37034694637E+03 -0.18560950127E+03 -0.72051842688E+02  0.42047498818E+03  0.00000000000E+00 0. -1.
          2    1    6    6  502    0  0.49533026337E+03 -0.33830261902E+02 -0.18049325049E+03  0.52827489993E+03  0.00000000000E+00 0. -1.
          3    1    5    5  503    0 -0.12799016889E+03  0.13970386255E+03  0.11975375449E+03  0.22414195113E+03  0.00000000000E+00 0. -1.
         -4    1    5    5    0  503 -0.55744080540E+02  0.52164653716E+02  0.11325578018E+03  0.13658486503E+03  0.00000000000E+00 0.  1.
         -1    1    6    6    0  502  0.99817379416E+02  0.22878514310E+02 -0.59056891292E+02  0.11821443254E+03  0.00000000000E+00 0.  1.
<mgrwt>
<rscale>  0 0.14724575E+04</rscale>
<asrwt>0</asrwt>
<pdfrwt beam="1">  1        2 0.12153290E+00 0.14724575E+04</pdfrwt>
<pdfrwt beam="2">  1       -2 0.10556137E+00 0.14724575E+04</pdfrwt>
<totfact> 0.24616199E+01</totfact>
</mgrwt>
</event>
<event>
12    1  0.1556559E-007  0.2596037E+04  0.7818608E-02  0.8369549E-01
         -2   -1    0    0    0  501 -0.00000000000E+00  0.00000000000E+00  0.51351696789E+03  0.51351696789E+03  0.00000000000E+00 0.  1.
          2   -1    0    0  501    0  0.00000000000E+00 -0.00000000000E+00 -0.32810053788E+04  0.32810053788E+04  0.00000000000E+00 0. -1.
         23    2    1    2    0    0  0.10215244544E+04  0.45992276526E+03 -0.16442993524E+04  0.19917606547E+04  0.91372777948E+02 0.  0.
        254    2    1    2    0    0 -0.10215244544E+04 -0.45992276526E+03 -0.11231890585E+04  0.18027616920E+04  0.85636142837E+03 0.  0.
        -24    2    4    4    0    0  0.11481727649E+03  0.62151701019E+02 -0.15184511710E+03  0.21730700531E+03  0.84377449908E+02 0.  0.
         24    2    4    4    0    0 -0.11363417308E+04 -0.52207446628E+03 -0.97134394143E+03  0.15854546867E+04  0.79518760712E+02 0.  0.
         13    1    3    3    0    0  0.50571927303E+03  0.19376917675E+03 -0.85329535317E+03  0.10106490176E+04  0.00000000000E+00 0. -1.
        -13    1    3    3    0    0  0.51580518132E+03  0.26615358851E+03 -0.79100399919E+03  0.98111163712E+03  0.00000000000E+00 0.  1.
          4    1    6    6  502    0 -0.33998249370E+03 -0.14200914317E+03 -0.32969764697E+03  0.49442414098E+03  0.00000000000E+00 0. -1.
          1    1    5    5  503    0  0.99739193547E+02  0.58576091518E+02 -0.72607542769E+02  0.13656837296E+03  0.00000000000E+00 0. -1.
         -2    1    5    5    0  503  0.15078082939E+02  0.35756095011E+01 -0.79237574328E+02  0.80738632350E+02  0.00000000000E+00 0.  1.
         -3    1    6    6    0  502 -0.79635923714E+03 -0.38006532311E+03 -0.64164629446E+03  0.10910305457E+04  0.00000000000E+00 0.  1.
<mgrwt>
<rscale>  0 0.25960369E+04</rscale>
<asrwt>0</asrwt>
<pdfrwt beam="1">  1        2 0.50477005E+00 0.25960369E+04</pdfrwt>
<pdfrwt beam="2">  1       -2 0.79002612E-01 0.25960369E+04</pdfrwt>
<totfact> 0.14432033E+00</totfact>
</mgrwt>
</event>
<event>
12    1  0.1556559E-007  0.1315045E+04  0.7818608E-02  0.9017719E-01
         -2   -1    0    0    0  501 -0.00000000000E+00  0.00000000000E+00  0.10620303606E+03  0.10620303606E+03  0.00000000000E+00 0.  1.
          2   -1    0    0  501    0  0.00000000000E+00 -0.00000000000E+00 -0.40708411329E+04  0.40708411329E+04  0.00000000000E+00 0. -1.
         23    2    1    2    0    0 -0.74415307755E+02 -0.18598959748E+03 -0.19382715249E+04  0.19508268186E+04  0.93268448771E+02 0.  0.
        254    2    1    2    0    0  0.74415307755E+02  0.18598959748E+03 -0.20263665720E+04  0.22262173504E+04  0.89986245550E+03 0.  0.
        -24    2    4    4    0    0 -0.18957481188E+03  0.33589162424E+03 -0.17935914874E+04  0.18363251725E+04  0.79736585677E+02 0.  0.
         24    2    4    4    0    0  0.26399011963E+03 -0.14990202676E+03 -0.23277508461E+03  0.38989217790E+03  0.75301191768E+02 0.  0.
         13    1    3    3    0    0 -0.67672388354E+02 -0.84223418592E+02 -0.69136223343E+03  0.69975343815E+03  0.00000000000E+00 0.  1.
        -13    1    3    3    0    0 -0.67429194002E+01 -0.10176617889E+03 -0.12469092914E+04  0.12510733804E+04  0.00000000000E+00 0. -1.
          4    1    6    6  502    0  0.23383999802E+03 -0.13566010261E+03 -0.23246579434E+03  0.35654614519E+03  0.00000000000E+00 0. -1.
          3    1    5    5  503    0 -0.17689198945E+03  0.25313344972E+03 -0.13461704821E+04  0.13811380402E+04  0.00000000000E+00 0. -1.
         -4    1    5    5    0  503 -0.12682822428E+02  0.82758174521E+02 -0.44742100530E+03  0.45518713231E+03  0.00000000000E+00 0.  1.
         -3    1    6    6    0  502  0.30150121614E+02 -0.14241924147E+02 -0.30929027016E+00  0.33346032706E+02  0.00000000000E+00 0.  1.
<mgrwt>
<rscale>  0 0.13150448E+04</rscale>
<asrwt>0</asrwt>
<pdfrwt beam="1">  1        2 0.62628326E+00 0.13150448E+04</pdfrwt>
<pdfrwt beam="2">  1       -2 0.16338928E-01 0.13150448E+04</pdfrwt>
<totfact> 0.92098174E+00</totfact>
</mgrwt>
</event>
<event>
12    1  0.1556559E-007  0.1144815E+04  0.7818608E-02  0.9162580E-01
         -2   -1    0    0    0  501 -0.00000000000E+00  0.00000000000E+00  0.37731489963E+03  0.37731489963E+03  0.00000000000E+00 0.  1.
          2   -1    0    0  501    0  0.00000000000E+00 -0.00000000000E+00 -0.86837379717E+03  0.86837379717E+03  0.00000000000E+00 0. -1.
         23    2    1    2    0    0 -0.14306390372E+03 -0.55834229934E+02 -0.18259398443E+03  0.25479171930E+03  0.89406461139E+02 0.  0.
        254    2    1    2    0    0  0.14306390372E+03  0.55834229934E+02 -0.30846491310E+03  0.99089697750E+03  0.92905407573E+03 0.  0.
        -24    2    4    4    0    0  0.32287766281E+03 -0.19976402691E+03 -0.48685197107E+03  0.62264181603E+03  0.80637074283E+02 0.  0.
         24    2    4    4    0    0 -0.17981375909E+03  0.25559825684E+03  0.17838705797E+03  0.36825516147E+03  0.78271735874E+02 0.  0.
         11    1    3    3    0    0  0.24833570435E+01 -0.13235735384E+02  0.42748301242E+01  0.14128903919E+02  0.00000000000E+00 0. -1.
        -11    1    3    3    0    0 -0.14554726076E+03 -0.42598494549E+02 -0.18686881455E+03  0.24066281538E+03  0.00000000000E+00 0.  1.
          2    1    6    6  502    0  0.19747547011E+01  0.27005109819E+02  0.22075951961E+01  0.27167058895E+02  0.00000000000E+00 0. -1.
          1    1    5    5  503    0  0.10999562180E+03 -0.29550798963E+02 -0.17080749900E+03  0.20529853445E+03  0.00000000000E+00 0. -1.
         -2    1    5    5    0  503  0.21288204100E+03 -0.17021322795E+03 -0.31604447208E+03  0.41734328158E+03  0.00000000000E+00 0.  1.
         -1    1    6    6    0  502 -0.18178851379E+03  0.22859314702E+03  0.17617946277E+03  0.34108810257E+03  0.00000000000E+00 0.  1.
<mgrwt>
<rscale>  0 0.11448150E+04</rscale>
<asrwt>0</asrwt>
<pdfrwt beam="1">  1        2 0.13359597E+00 0.11448150E+04</pdfrwt>
<pdfrwt beam="2">  1       -2 0.58048447E-01 0.11448150E+04</pdfrwt>
<totfact> 0.84766314E+01</totfact>
</mgrwt>
</event>
<event>
12    1  0.1556559E-007  0.1605837E+04  0.7818608E-02  0.8816970E-01
          1   -1    0    0  501    0  0.00000000000E+00  0.00000000000E+00  0.54077222911E+03  0.54077222911E+03  0.00000000000E+00 0. -1.
         -1   -1    0    0    0  501 -0.00000000000E+00 -0.00000000000E+00 -0.11921429549E+04  0.11921429549E+04  0.00000000000E+00 0.  1.
         23    2    1    2    0    0  0.30654559723E+03 -0.13025718510E+03  0.24135572864E+03  0.42173564383E+03  0.93119429099E+02 0.  0.
        254    2    1    2    0    0 -0.30654559723E+03  0.13025718510E+03 -0.89272645442E+03  0.13111795402E+04  0.90071867232E+03 0.  0.
        -24    2    4    4    0    0 -0.10049175787E+03 -0.22919502511E+03  0.59420127973E+02  0.26974241251E+03  0.81248166518E+02 0.  0.
         24    2    4    4    0    0 -0.20605383936E+03  0.35945221021E+03 -0.95214658239E+03  0.10414371277E+04  0.79649861006E+02 0.  0.
         11    1    3    3    0    0  0.20004294105E+03 -0.74763186646E+02  0.98706133500E+02  0.23526498492E+03  0.00000000000E+00 0.  1.
        -11    1    3    3    0    0  0.10650265618E+03 -0.55493998457E+02  0.14264959514E+03  0.18647065891E+03  0.00000000000E+00 0. -1.
          2    1    6    6  502    0 -0.19265784598E+03  0.28964943611E+03 -0.73971247742E+03  0.81742791162E+03  0.00000000000E+00 0. -1.
          3    1    5    5  503    0 -0.78025450000E+02 -0.20098114086E+03  0.77875018016E+02  0.22922894289E+03  0.00000000000E+00 0. -1.
         -4    1    5    5    0  503 -0.22466307868E+02 -0.28213884251E+02 -0.18454890043E+02  0.40513469615E+02  0.00000000000E+00 0.  1.
         -1    1    6    6    0  502 -0.13395993386E+02  0.69802774106E+02 -0.21243410497E+03  0.22400921603E+03  0.00000000000E+00 0.  1.
<mgrwt>
<rscale>  0 0.16058366E+04</rscale>
<asrwt>0</asrwt>
<pdfrwt beam="1">  1        1 0.83195728E-01 0.16058366E+04</pdfrwt>
<pdfrwt beam="2">  1       -1 0.18340661E+00 0.16058366E+04</pdfrwt>
<totfact> 0.74953643E+00</totfact>
</mgrwt>
</event>
<event>
12    1  0.1556559E-007  0.1840814E+04  0.7818608E-02  0.8684891E-01
          2   -1    0    0  501    0  0.00000000000E+00  0.00000000000E+00  0.17073942163E+04  0.17073942163E+04  0.00000000000E+00 0.  1.
         -2   -1    0    0    0  501 -0.00000000000E+00 -0.00000000000E+00 -0.49616478081E+03  0.49616478081E+03  0.00000000000E+00 0. -1.
         23    2    1    2    0    0 -0.68289993025E+03 -0.64571901238E+02  0.60856702037E+03  0.92167102431E+03  0.92745962801E+02 0.  0.
        254    2    1    2    0    0  0.68289993025E+03  0.64571901238E+02  0.60266241514E+03  0.12818879728E+04  0.89972937213E+03 0.  0.
        -24    2    4    4    0    0  0.63028482119E+02  0.31594062053E+03  0.50076129636E+03  0.60091966271E+03  0.80941335781E+02 0.  0.
         24    2    4    4    0    0  0.61987144813E+03 -0.25136871929E+03  0.10190111878E+03  0.68096831011E+03  0.76858025756E+02 0.  0.
         11    1    3    3    0    0 -0.65063782087E+03 -0.48865171929E+02  0.55181791605E+03  0.85452933914E+03  0.00000000000E+00 0.  1.
        -11    1    3    3    0    0 -0.32262109375E+02 -0.15706729308E+02  0.56749104318E+02  0.67141685172E+02  0.00000000000E+00 0. -1.
          4    1    6    6  502    0  0.57547396533E+02 -0.18422598607E+02 -0.12351134896E+02  0.61673702016E+02  0.00000000000E+00 0. -1.
          3    1    5    5  503    0  0.26422230554E+02  0.15757693813E+03  0.17569244716E+03  0.23747939213E+03  0.00000000000E+00 0. -1.
         -4    1    5    5    0  503  0.36606251565E+02  0.15836368240E+03  0.32506884920E+03  0.36344027058E+03  0.00000000000E+00 0.  1.
         -3    1    6    6    0  502  0.56232405160E+03 -0.23294612068E+03  0.11425225367E+03  0.61929460810E+03  0.00000000000E+00 0.  1.
<mgrwt>
<rscale>  0 0.18408138E+04</rscale>
<asrwt>0</asrwt>
<pdfrwt beam="1">  1        2 0.26267603E+00 0.18408138E+04</pdfrwt>
<pdfrwt beam="2">  1       -2 0.76333044E-01 0.18408138E+04</pdfrwt>
<totfact> 0.14034673E+01</totfact>
</mgrwt>
</event>
<event>
12    1  0.1556559E-007  0.1558665E+04  0.7818608E-02  0.8846352E-01
          1   -1    0    0  501    0  0.00000000000E+00  0.00000000000E+00  0.11946795206E+04  0.11946795206E+04  0.00000000000E+00 0. -1.
         -1   -1    0    0    0  501 -0.00000000000E+00 -0.00000000000E+00 -0.50838648476E+03  0.50838648476E+03  0.00000000000E+00 0.  1.
         23    2    1    2    0    0  0.10893117453E+03 -0.38519449606E+03 -0.10629881008E+03  0.42432124354E+03  0.92240338846E+02 0.  0.
        254    2    1    2    0    0 -0.10893117453E+03  0.38519449606E+03  0.79259184589E+03  0.12787447618E+04  0.92018776947E+03 0.  0.
        -24    2    4    4    0    0  0.33329138918E+03 -0.73407429485E+02  0.37320974128E+03  0.51181367347E+03  0.78714195375E+02 0.  0.
         24    2    4    4    0    0 -0.44222256371E+03  0.45860192555E+03  0.41938210461E+03  0.76693108833E+03  0.80158733842E+02 0.  0.
         13    1    3    3    0    0  0.78444472127E+01 -0.17952845718E+03 -0.67145542872E+02  0.19183463247E+03  0.00000000000E+00 0.  1.
        -13    1    3    3    0    0  0.10108672732E+03 -0.20566603888E+03 -0.39153267212E+02  0.23248661106E+03  0.00000000000E+00 0. -1.
          4    1    6    6  502    0 -0.71589387689E+02  0.11311764991E+03  0.66516507603E+02  0.14948273791E+03  0.00000000000E+00 0. -1.
          1    1    5    5  503    0  0.55227365111E+02  0.17066581105E+02  0.59454377479E+02  0.82922572615E+02  0.00000000000E+00 0. -1.
         -2    1    5    5    0  503  0.27806402407E+03 -0.90474010589E+02  0.31375536380E+03  0.42889110085E+03  0.00000000000E+00 0.  1.
         -3    1    6    6    0  502 -0.37063317602E+03  0.34548427564E+03  0.35286559701E+03  0.61744835042E+03  0.00000000000E+00 0.  1.
<mgrwt>
<rscale>  0 0.15586647E+04</rscale>
<asrwt>0</asrwt>
<pdfrwt beam="1">  1        1 0.18379685E+00 0.15586647E+04</pdfrwt>
<pdfrwt beam="2">  1       -1 0.78213306E-01 0.15586647E+04</pdfrwt>
<totfact> 0.16990851E+01</totfact>
</mgrwt>
</event>
<event>
12    1  0.1556559E-007  0.2611582E+04  0.7818608E-02  0.8364278E-01
         -1   -1    0    0    0  501 -0.00000000000E+00  0.00000000000E+00  0.98008820868E+03  0.98008820868E+03  0.00000000000E+00 0.  1.
          1   -1    0    0  501    0  0.00000000000E+00 -0.00000000000E+00 -0.17397318487E+04  0.17397318487E+04  0.00000000000E+00 0. -1.
         23    2    1    2    0    0 -0.38531725826E+03 -0.29167687546E+03  0.74918711859E+03  0.89609176314E+03  0.90301274201E+02 0.  0.
        254    2    1    2    0    0  0.38531725826E+03  0.29167687546E+03 -0.15088307586E+04  0.18237282942E+04  0.90325513777E+03 0.  0.
        -24    2    4    4    0    0 -0.26967184778E+03  0.10894206374E+02 -0.62569883303E+03  0.68606147651E+03  0.79622425704E+02 0.  0.
         24    2    4    4    0    0  0.65498910604E+03  0.28078266909E+03 -0.88313192559E+03  0.11376668177E+04  0.80710308563E+02 0.  0.
         11    1    3    3    0    0 -0.63203947396E+01  0.64537247618E+01  0.19208197324E+02  0.21226228997E+02  0.00000000000E+00 0. -1.
        -11    1    3    3    0    0 -0.37899686352E+03 -0.29813060022E+03  0.72997892127E+03  0.87486553415E+03  0.00000000000E+00 0.  1.
          4    1    6    6  502    0  0.64601012189E+03  0.27236363492E+03 -0.87969260337E+03  0.11248867070E+04  0.00000000000E+00 0. -1.
          3    1    5    5  503    0 -0.20180995315E+03  0.41501484354E+02 -0.48308917922E+03  0.52519023742E+03  0.00000000000E+00 0. -1.
         -4    1    5    5    0  503 -0.67861894633E+02 -0.30607277979E+02 -0.14260965381E+03  0.16087123909E+03  0.00000000000E+00 0.  1.
         -3    1    6    6    0  502  0.89789841528E+01  0.84190341664E+01 -0.34393222161E+01  0.12780110720E+02  0.00000000000E+00 0.  1.
<mgrwt>
<rscale>  0 0.26115824E+04</rscale>
<asrwt>0</asrwt>
<pdfrwt beam="1">  1        1 0.26765105E+00 0.26115824E+04</pdfrwt>
<pdfrwt beam="2">  1       -1 0.15078280E+00 0.26115824E+04</pdfrwt>
<totfact> 0.13553369E+00</totfact>
</mgrwt>
</event>
<event>
12    1  0.1556559E-007  0.1328973E+04  0.7818608E-02  0.9006900E-01
         -1   -1    0    0    0  501 -0.00000000000E+00  0.00000000000E+00  0.51773999411E+03  0.51773999411E+03  0.00000000000E+00 0.  1.
          1   -1    0    0  501    0  0.00000000000E+00 -0.00000000000E+00 -0.85282621302E+03  0.85282621302E+03  0.00000000000E+00 0. -1.
         23    2    1    2    0    0  0.33588467054E+03  0.86661187245E+02 -0.16534643073E+03  0.39433702525E+03  0.88507480172E+02 0.  0.
        254    2    1    2    0    0 -0.33588467054E+03 -0.86661187245E+02 -0.16973978818E+03  0.97622918189E+03  0.89659530815E+03 0.  0.
        -24    2    4    4    0    0 -0.61597505056E+03  0.74868398411E+02 -0.74804064937E+02  0.62995477246E+03  0.78846859276E+02 0.  0.
         24    2    4    4    0    0  0.28009038002E+03 -0.16152958566E+03 -0.94935723240E+02  0.34627440943E+03  0.79691574549E+02 0.  0.
         11    1    3    3    0    0  0.13911154976E+03 -0.62585212881E+01 -0.79950874536E+02  0.16057189886E+03  0.00000000000E+00 0. -1.
        -11    1    3    3    0    0  0.19677312078E+03  0.92919708533E+02 -0.85395556196E+02  0.23376512638E+03  0.00000000000E+00 0.  1.
          2    1    6    6  502    0  0.22841625527E+03 -0.10723522456E+03 -0.99352338215E+02  0.27119046106E+03  0.00000000000E+00 0. -1.
          3    1    5    5  503    0 -0.34480303789E+03  0.71640501149E+01 -0.60075511527E+02  0.35007074376E+03  0.00000000000E+00 0. -1.
         -4    1    5    5    0  503 -0.27117201267E+03  0.67704348297E+02 -0.14728553410E+02  0.27988402870E+03  0.00000000000E+00 0.  1.
         -1    1    6    6    0  502  0.51674124752E+02 -0.54294361092E+02  0.44166149746E+01  0.75083948372E+02  0.00000000000E+00 0.  1.
<mgrwt>
<rscale>  0 0.13289729E+04</rscale>
<asrwt>0</asrwt>
<pdfrwt beam="1">  1        1 0.13120403E+00 0.13289729E+04</pdfrwt>
<pdfrwt beam="2">  1       -1 0.79652308E-01 0.13289729E+04</pdfrwt>
<totfact> 0.30756079E+01</totfact>
</mgrwt>
</event>
<event>
12    1  0.1556559E-007  0.1428839E+04  0.7818608E-02  0.8933204E-01
          1   -1    0    0  501    0  0.00000000000E+00  0.00000000000E+00  0.40966687790E+03  0.40966687790E+03  0.00000000000E+00 0. -1.
         -1   -1    0    0    0  501 -0.00000000000E+00 -0.00000000000E+00 -0.12458787957E+04  0.12458787957E+04  0.00000000000E+00 0.  1.
         23    2    1    2    0    0  0.88123033411E+01 -0.27953178851E+03  0.12843236632E+03  0.32016878350E+03  0.88303452568E+02 0.  0.
        254    2    1    2    0    0 -0.88123033411E+01  0.27953178851E+03 -0.96464428414E+03  0.13353768901E+04  0.88004384337E+03 0.  0.
        -24    2    4    4    0    0 -0.49156654021E+02 -0.25061752776E+03 -0.46898354832E+02  0.27173140435E+03  0.80081074991E+02 0.  0.
         24    2    4    4    0    0  0.40344350680E+02  0.53014931626E+03 -0.91774592930E+03  0.10636454858E+04  0.79988527101E+02 0.  0.
         13    1    3    3    0    0  0.28685162245E+02 -0.15135371935E+03  0.10969451752E+03  0.18911286067E+03  0.00000000000E+00 0. -1.
        -13    1    3    3    0    0 -0.19872858904E+02 -0.12817806915E+03  0.18737848796E+02  0.13105592283E+03  0.00000000000E+00 0.  1.
          4    1    6    6  502    0  0.18171351384E+02  0.36013211389E+02 -0.44655073374E+02  0.60176614924E+02  0.00000000000E+00 0. -1.
          1    1    5    5  503    0  0.36584843811E+01 -0.97369016065E+02 -0.50188412121E+02  0.10960377050E+03  0.00000000000E+00 0. -1.
         -4    1    5    5    0  503 -0.52815138402E+02 -0.15324851169E+03  0.32900572895E+01  0.16212763385E+03  0.00000000000E+00 0.  1.
         -3    1    6    6    0  502  0.22172999296E+02  0.49413610487E+03 -0.87309085593E+03  0.10034688708E+04  0.00000000000E+00 0.  1.
<mgrwt>
<rscale>  0 0.14288391E+04</rscale>
<asrwt>0</asrwt>
<pdfrwt beam="1">  1        1 0.63025673E-01 0.14288391E+04</pdfrwt>
<pdfrwt beam="2">  1       -1 0.19167366E+00 0.14288391E+04</pdfrwt>
<totfact> 0.97217991E+00</totfact>
</mgrwt>
</event>
<event>
12    1  0.1556559E-007  0.2667857E+04  0.7818608E-02  0.8345510E-01
         -1   -1    0    0    0  501 -0.00000000000E+00  0.00000000000E+00  0.84389854509E+03  0.84389854509E+03  0.00000000000E+00 0.  1.
          1   -1    0    0  501    0  0.00000000000E+00 -0.00000000000E+00 -0.21085060218E+04  0.21085060218E+04  0.00000000000E+00 0. -1.
         23    2    1    2    0    0 -0.75022850427E+02 -0.93262383985E+03 -0.13469778232E+04  0.16425885980E+04  0.91281933113E+02 0.  0.
        254    2    1    2    0    0  0.75022850427E+02  0.93262383985E+03  0.82370346520E+02  0.13098159689E+04  0.91291694231E+03 0.  0.
        -24    2    4    4    0    0  0.25182111128E+03 -0.75739075014E+02 -0.26111043980E+02  0.27655278414E+03  0.81543707461E+02 0.  0.
         24    2    4    4    0    0 -0.17679826085E+03  0.10083629149E+04  0.10848139050E+03  0.10332631847E+04  0.88381014379E+02 0.  0.
         13    1    3    3    0    0 -0.38977769284E+02 -0.81393683073E+03 -0.11400209766E+04  0.14013066253E+04  0.00000000000E+00 0. -1.
        -13    1    3    3    0    0 -0.36045081143E+02 -0.11868700913E+03 -0.20695684663E+03  0.24128197275E+03  0.00000000000E+00 0.  1.
          2    1    6    6  502    0 -0.17077051514E+03  0.94627527293E+03  0.80590435740E+02  0.96493226671E+03  0.00000000000E+00 0. -1.
          1    1    5    5  503    0  0.16472178747E+03 -0.86097271065E+02 -0.31841629180E+01  0.18589283538E+03  0.00000000000E+00 0. -1.
         -4    1    5    5    0  503  0.87099323811E+02  0.10358196051E+02 -0.22926881061E+02  0.90659948759E+02  0.00000000000E+00 0.  1.
         -1    1    6    6    0  502 -0.60277457102E+01  0.62087641939E+02  0.27890954759E+02  0.68330918019E+02  0.00000000000E+00 0.  1.
<mgrwt>
<rscale>  0 0.26678569E+04</rscale>
<asrwt>0</asrwt>
<pdfrwt beam="1">  1        1 0.32438554E+00 0.26678569E+04</pdfrwt>
<pdfrwt beam="2">  1       -1 0.12983055E+00 0.26678569E+04</pdfrwt>
<totfact> 0.11200968E+00</totfact>
</mgrwt>
</event>
<event>
12    1  0.1556559E-007  0.1183921E+04  0.7818608E-02  0.9127048E-01
          2   -1    0    0  501    0  0.00000000000E+00  0.00000000000E+00  0.10853846182E+04  0.10853846182E+04  0.00000000000E+00 0. -1.
         -2   -1    0    0    0  501 -0.00000000000E+00 -0.00000000000E+00 -0.32285076615E+03  0.32285076615E+03  0.00000000000E+00 0.  1.
         23    2    1    2    0    0 -0.10131067156E+03  0.20558838858E+03  0.87505938026E+02  0.26205690318E+03  0.92119995770E+02 0.  0.
        254    2    1    2    0    0  0.10131067156E+03 -0.20558838858E+03  0.67502791406E+03  0.11461784812E+04  0.89751433880E+03 0.  0.
        -24    2    4    4    0    0 -0.98348797661E+02  0.78126973155E+02  0.76471543773E+03  0.77893798985E+03  0.78602680540E+02 0.  0.
         24    2    4    4    0    0  0.19965946922E+03 -0.28371536174E+03 -0.89687523672E+02  0.36724049137E+03  0.80395375883E+02 0.  0.
         11    1    3    3    0    0 -0.39699990039E+02  0.12033319284E+03  0.23727825859E+01  0.12673514353E+03  0.00000000000E+00 0.  1.
        -11    1    3    3    0    0 -0.61610681518E+02  0.85255195739E+02  0.85133155440E+02  0.13532175964E+03  0.00000000000E+00 0. -1.
          2    1    6    6  502    0  0.13069546543E+03 -0.17438593297E+03 -0.95306741618E+02  0.23785527806E+03  0.00000000000E+00 0. -1.
          3    1    5    5  503    0 -0.33051454116E+02  0.36856309680E+02  0.51925871605E+03  0.52161326706E+03  0.00000000000E+00 0. -1.
         -4    1    5    5    0  503 -0.65297343545E+02  0.41270663474E+02  0.24545672168E+03  0.25732472278E+03  0.00000000000E+00 0.  1.
         -1    1    6    6    0  502  0.68964003784E+02 -0.10932942877E+03  0.56192179460E+01  0.12938521331E+03  0.00000000000E+00 0.  1.
<mgrwt>
<rscale>  0 0.11839210E+04</rscale>
<asrwt>0</asrwt>
<pdfrwt beam="1">  1        2 0.16698225E+00 0.11839210E+04</pdfrwt>
<pdfrwt beam="2">  1       -2 0.49669349E-01 0.11839210E+04</pdfrwt>
<totfact> 0.84264656E+01</totfact>
</mgrwt>
</event>
<event>
12    1  0.1556559E-007  0.1730264E+04  0.7818608E-02  0.8744289E-01
         -2   -1    0    0    0  501 -0.00000000000E+00  0.00000000000E+00  0.61568059152E+03  0.61568059152E+03  0.00000000000E+00 0.  1.
          2   -1    0    0  501    0  0.00000000000E+00 -0.00000000000E+00 -0.12156520959E+04  0.12156520959E+04  0.00000000000E+00 0. -1.
         23    2    1    2    0    0  0.20204352604E+03 -0.57075617470E+03 -0.53129658947E+02  0.61458822192E+03  0.91168659595E+02 0.  0.
        254    2    1    2    0    0 -0.20204352604E+03  0.57075617470E+03 -0.54684184546E+03  0.12167444655E+04  0.90268870218E+03 0.  0.
        -24    2    4    4    0    0  0.31478113007E+03  0.19715341097E+02 -0.19977519702E+03  0.38142717932E+03  0.78107037213E+02 0.  0.
         24    2    4    4    0    0 -0.51682465611E+03  0.55104083360E+03 -0.34706664844E+03  0.83531728619E+03  0.80907259788E+02 0.  0.
         13    1    3    3    0    0  0.27912216919E+02 -0.20315757032E+02  0.23441410085E+01  0.34602266316E+02  0.00000000000E+00 0. -1.
        -13    1    3    3    0    0  0.17413130912E+03 -0.55044041767E+03 -0.55473799955E+02  0.57998595561E+03  0.00000000000E+00 0.  1.
          2    1    6    6  502    0 -0.15428446347E+03  0.14832667701E+03 -0.60815041364E+02  0.22249262468E+03  0.00000000000E+00 0. -1.
          1    1    5    5  503    0  0.13441712626E+03 -0.26285918463E+02 -0.10480480986E+03  0.17246147834E+03  0.00000000000E+00 0. -1.
         -2    1    5    5    0  503  0.18036400381E+03  0.46001259559E+02 -0.94970387155E+02  0.20896570099E+03  0.00000000000E+00 0.  1.
         -1    1    6    6    0  502 -0.36254019264E+03  0.40271415659E+03 -0.28625160708E+03  0.61282466151E+03  0.00000000000E+00 0.  1.
<mgrwt>
<rscale>  0 0.17302640E+04</rscale>
<asrwt>0</asrwt>
<pdfrwt beam="1">  1        2 0.18702340E+00 0.17302640E+04</pdfrwt>
<pdfrwt beam="2">  1       -2 0.94720091E-01 0.17302640E+04</pdfrwt>
<totfact> 0.16517302E+01</totfact>
</mgrwt>
</event>
<event>
12    1  0.1556559E-007  0.1897638E+04  0.7818608E-02  0.8656033E-01
          2   -1    0    0  501    0  0.00000000000E+00  0.00000000000E+00  0.21864468379E+04  0.21864468379E+04  0.00000000000E+00 0. -1.
         -2   -1    0    0    0  501 -0.00000000000E+00 -0.00000000000E+00 -0.41174464630E+03  0.41174464630E+03  0.00000000000E+00 0.  1.
         23    2    1    2    0    0 -0.13994725684E+03 -0.71629970034E+03  0.59687620502E+03  0.94683305650E+03  0.86954800665E+02 0.  0.
        254    2    1    2    0    0  0.13994725684E+03  0.71629970034E+03  0.11778259866E+04  0.16513584277E+04  0.89835410986E+03 0.  0.
        -24    2    4    4    0    0  0.25412793263E+03  0.87091518586E+03  0.76632977153E+03  0.11902910887E+04  0.80357264416E+02 0.  0.
         24    2    4    4    0    0 -0.11418067579E+03 -0.15461548553E+03  0.41149621510E+03  0.46106733907E+03  0.79440424388E+02 0.  0.
         11    1    3    3    0    0 -0.11593293897E+03 -0.63511906008E+03  0.55939912965E+03  0.85425057978E+03  0.00000000000E+00 0. -1.
        -11    1    3    3    0    0 -0.24014317876E+02 -0.81180640259E+02  0.37477075370E+02  0.92582476712E+02  0.00000000000E+00 0.  1.
          4    1    6    6  502    0 -0.74989626921E+02 -0.59010843832E+02  0.26613133944E+03  0.28272179553E+03  0.00000000000E+00 0. -1.
          3    1    5    5  503    0  0.19006282877E+03  0.73183145264E+03  0.61041450933E+03  0.97175461262E+03  0.00000000000E+00 0. -1.
         -4    1    5    5    0  503  0.64065103860E+02  0.13908373322E+03  0.15591526220E+03  0.21853647606E+03  0.00000000000E+00 0.  1.
         -3    1    6    6    0  502 -0.39191048864E+02 -0.95604641694E+02  0.14536487566E+03  0.17834554354E+03  0.00000000000E+00 0.  1.
<mgrwt>
<rscale>  0 0.18976383E+04</rscale>
<asrwt>0</asrwt>
<pdfrwt beam="1">  1        2 0.33637643E+00 0.18976383E+04</pdfrwt>
<pdfrwt beam="2">  1       -2 0.63345332E-01 0.18976383E+04</pdfrwt>
<totfact> 0.11360357E+01</totfact>
</mgrwt>
</event>
<event>
12    1  0.1556559E-007  0.2058605E+04  0.7818608E-02  0.8579701E-01
          2   -1    0    0  501    0  0.00000000000E+00  0.00000000000E+00  0.17962549264E+04  0.17962549264E+04  0.00000000000E+00 0. -1.
         -2   -1    0    0    0  501 -0.00000000000E+00 -0.00000000000E+00 -0.58981816988E+03  0.58981816988E+03  0.00000000000E+00 0.  1.
         23    2    1    2    0    0 -0.22629253711E+03 -0.64775076906E+03 -0.60166330324E+02  0.69447158860E+03  0.88777412103E+02 0.  0.
        254    2    1    2    0    0  0.22629253711E+03  0.64775076906E+03  0.12666030868E+04  0.16916015077E+04  0.88681616472E+03 0.  0.
        -24    2    4    4    0    0  0.15113264015E+03 -0.49636958667E+01  0.93627209711E+03  0.95170483012E+03  0.79189207937E+02 0.  0.
         24    2    4    4    0    0  0.75159896953E+02  0.65271446492E+03  0.33033098972E+03  0.73989667754E+03  0.81506734945E+02 0.  0.
         13    1    3    3    0    0 -0.15130086356E+03 -0.43277379234E+03  0.19694956696E+01  0.45846372328E+03  0.00000000000E+00 0. -1.
        -13    1    3    3    0    0 -0.74991673546E+02 -0.21497697672E+03 -0.62135825994E+02  0.23600786532E+03  0.00000000000E+00 0.  1.
          2    1    6    6  502    0  0.38876223168E+02  0.52176778725E+03  0.28974348286E+03  0.59808383225E+03  0.00000000000E+00 0. -1.
          3    1    5    5  503    0  0.15518255657E+03 -0.18647198804E+02  0.84725093064E+03  0.86154714517E+03  0.00000000000E+00 0. -1.
         -4    1    5    5    0  503 -0.40499164126E+01  0.13683502937E+02  0.89021166466E+02  0.90157684945E+02  0.00000000000E+00 0.  1.
         -1    1    6    6    0  502  0.36283673785E+02  0.13094667768E+03  0.40587506857E+02  0.14181284530E+03  0.00000000000E+00 0.  1.
<mgrwt>
<rscale>  0 0.20586052E+04</rscale>
<asrwt>0</asrwt>
<pdfrwt beam="1">  1        2 0.27634691E+00 0.20586052E+04</pdfrwt>
<pdfrwt beam="2">  1       -2 0.90741258E-01 0.20586052E+04</pdfrwt>
<totfact> 0.83130271E+00</totfact>
</mgrwt>
</event>
<event>
12    1  0.1556559E-007  0.3111017E+04  0.7818608E-02  0.8212721E-01
          1   -1    0    0  501    0  0.00000000000E+00  0.00000000000E+00  0.28400484101E+04  0.28400484101E+04  0.00000000000E+00 0. -1.
         -1   -1    0    0    0  501 -0.00000000000E+00 -0.00000000000E+00 -0.85195964388E+03  0.85195964388E+03  0.00000000000E+00 0.  1.
         23    2    1    2    0    0  0.75608290470E+03  0.11325899653E+03 -0.51494234646E+03  0.92638224306E+03  0.92355189347E+02 0.  0.
        254    2    1    2    0    0 -0.75608290470E+03 -0.11325899653E+03  0.25030311127E+04  0.27656258109E+04  0.89388613138E+03 0.  0.
        -24    2    4    4    0    0 -0.81016871166E+03  0.18665239788E+03  0.20512872148E+04  0.22149680052E+04  0.84211446460E+02 0.  0.
         24    2    4    4    0    0  0.54085806955E+02 -0.29991139441E+03  0.45174389791E+03  0.55065780568E+03  0.79242353926E+02 0.  0.
         11    1    3    3    0    0  0.75879628730E+03  0.11265239820E+03 -0.51419368687E+03  0.92350285114E+03  0.00000000000E+00 0.  1.
        -11    1    3    3    0    0 -0.27133825994E+01  0.60659832585E+00 -0.74865959535E+00  0.28793919235E+01  0.00000000000E+00 0. -1.
          2    1    6    6  502    0  0.43145858839E+02 -0.29976415641E+03  0.44312044844E+03  0.53672697568E+03  0.00000000000E+00 0. -1.
          3    1    5    5  503    0 -0.46343340398E+03  0.10793764289E+03  0.10621172150E+04  0.11638359133E+04  0.00000000000E+00 0. -1.
         -4    1    5    5    0  503 -0.34673530768E+03  0.78714754990E+02  0.98916999975E+03  0.10511320919E+04  0.00000000000E+00 0.  1.
         -1    1    6    6    0  502  0.10939948117E+02 -0.14723800217E+00  0.86234494684E+01  0.13930830003E+02  0.00000000000E+00 0.  1.
<mgrwt>
<rscale>  0 0.31110170E+04</rscale>
<asrwt>0</asrwt>
<pdfrwt beam="1">  1        1 0.43693052E+00 0.31110170E+04</pdfrwt>
<pdfrwt beam="2">  1       -1 0.13107071E+00 0.31110170E+04</pdfrwt>
<totfact> 0.32648800E-01</totfact>
</mgrwt>
</event>
<event>
12    1  0.1556559E-007  0.2511227E+04  0.7818608E-02  0.8398997E-01
          2   -1    0    0  501    0  0.00000000000E+00  0.00000000000E+00  0.16178319609E+04  0.16178319609E+04  0.00000000000E+00 0. -1.
         -2   -1    0    0    0  501 -0.00000000000E+00 -0.00000000000E+00 -0.97449297585E+03  0.97449297585E+03  0.00000000000E+00 0.  1.
         23    2    1    2    0    0 -0.77890806055E+03  0.58494108704E+02 -0.50956478179E+03  0.93698935494E+03  0.90407172804E+02 0.  0.
        254    2    1    2    0    0  0.77890806055E+03 -0.58494108704E+02  0.11529037668E+04  0.16553355818E+04  0.89489075607E+03 0.  0.
        -24    2    4    4    0    0  0.68990786186E+03  0.18438674369E+03  0.33416469109E+03  0.79279305497E+03  0.82966608522E+02 0.  0.
         24    2    4    4    0    0  0.89000198694E+02 -0.24288085239E+03  0.81873907574E+03  0.86254252685E+03  0.82059689552E+02 0.  0.
         11    1    3    3    0    0 -0.57509368566E+03  0.23699876764E+02 -0.33215236462E+03  0.66454467477E+03  0.00000000000E+00 0.  1.
        -11    1    3    3    0    0 -0.20381437489E+03  0.34794231939E+02 -0.17741241717E+03  0.27244468017E+03  0.00000000000E+00 0. -1.
          4    1    6    6  502    0  0.22980191999E+02 -0.22481816912E+02  0.19686317603E+03  0.19947087856E+03  0.00000000000E+00 0. -1.
          3    1    5    5  503    0  0.49445534771E+03  0.11060258317E+03  0.20124498477E+03  0.54517755473E+03  0.00000000000E+00 0. -1.
         -4    1    5    5    0  503  0.19545251415E+03  0.73784160515E+02  0.13291970633E+03  0.24761550024E+03  0.00000000000E+00 0.  1.
         -3    1    6    6    0  502  0.66020006695E+02 -0.22039903548E+03  0.62187589971E+03  0.66307164829E+03  0.00000000000E+00 0.  1.
<mgrwt>
<rscale>  0 0.25112275E+04</rscale>
<asrwt>0</asrwt>
<pdfrwt beam="1">  1        2 0.24889722E+00 0.25112275E+04</pdfrwt>
<pdfrwt beam="2">  1       -2 0.14992200E+00 0.25112275E+04</pdfrwt>
<totfact> 0.29141748E+00</totfact>
</mgrwt>
</event>
<event>
12    1  0.1556559E-007  0.2105058E+04  0.7818608E-02  0.8559019E-01
          2   -1    0    0  501    0  0.00000000000E+00  0.00000000000E+00  0.19112803487E+04  0.19112803487E+04  0.00000000000E+00 0. -1.
         -2   -1    0    0    0  501 -0.00000000000E+00 -0.00000000000E+00 -0.57962043989E+03  0.57962043989E+03  0.00000000000E+00 0.  1.
         23    2    1    2    0    0 -0.41918523618E+03  0.66024255581E+03  0.12438180197E+03  0.79721514538E+03  0.91894834659E+02 0.  0.
        254    2    1    2    0    0  0.41918523618E+03 -0.66024255581E+03  0.12072781069E+04  0.16936856432E+04  0.89409962312E+03 0.  0.
        -24    2    4    4    0    0 -0.20409215320E+03  0.41234077433E+02  0.37846137712E+03  0.43916257860E+03  0.79226891457E+02 0.  0.
         24    2    4    4    0    0  0.62327738938E+03 -0.70147663324E+03  0.82881672975E+03  0.12545230646E+04  0.79666662478E+02 0.  0.
         13    1    3    3    0    0 -0.10519469937E+03  0.10216051601E+03  0.33907132061E+02  0.15050710751E+03  0.00000000000E+00 0. -1.
        -13    1    3    3    0    0 -0.31399053680E+03  0.55808203980E+03  0.90474669905E+02  0.64670803787E+03  0.00000000000E+00 0.  1.
          2    1    6    6  502    0  0.54225101308E+03 -0.64326793234E+03  0.75491927424E+03  0.11303684818E+04  0.00000000000E+00 0. -1.
          3    1    5    5  503    0 -0.12226971762E+03 -0.15188025582E+02  0.21822704215E+03  0.25060646818E+03  0.00000000000E+00 0. -1.
         -4    1    5    5    0  503 -0.81822435580E+02  0.56422103015E+02  0.16023433497E+03  0.18855611042E+03  0.00000000000E+00 0.  1.
         -1    1    6    6    0  502  0.81026376304E+02 -0.58208700905E+02  0.73897455511E+02  0.12415458288E+03  0.00000000000E+00 0.  1.
<mgrwt>
<rscale>  0 0.21050579E+04</rscale>
<asrwt>0</asrwt>
<pdfrwt beam="1">  1        2 0.29404313E+00 0.21050579E+04</pdfrwt>
<pdfrwt beam="2">  1       -2 0.89172376E-01 0.21050579E+04</pdfrwt>
<totfact> 0.74428471E+00</totfact>
</mgrwt>
</event>
<event>
12    1  0.1556559E-007  0.1746339E+04  0.7818608E-02  0.8735368E-01
         -2   -1    0    0    0  501 -0.00000000000E+00  0.00000000000E+00  0.39477944705E+03  0.39477944705E+03  0.00000000000E+00 0.  1.
          2   -1    0    0  501    0  0.00000000000E+00 -0.00000000000E+00 -0.19312676717E+04  0.19312676717E+04  0.00000000000E+00 0. -1.
         23    2    1    2    0    0 -0.39060754106E+03 -0.72065685505E+02  0.99501821879E+02  0.41959204014E+03  0.91592321938E+02 0.  0.
        254    2    1    2    0    0  0.39060754106E+03  0.72065685505E+02 -0.16359900465E+04  0.19064550786E+04  0.89461713612E+03 0.  0.
        -24    2    4    4    0    0  0.32821015454E+03  0.20755667937E+03 -0.16842361191E+04  0.17302826794E+04  0.80157126780E+02 0.  0.
         24    2    4    4    0    0  0.62397386513E+02 -0.13549099387E+03  0.48246072550E+02  0.17617239925E+03  0.80360360115E+02 0.  0.
         13    1    3    3    0    0 -0.48687028512E+02  0.55217943863E+00 -0.16325820057E+02  0.51354299216E+02  0.00000000000E+00 0.  1.
        -13    1    3    3    0    0 -0.34192051254E+03 -0.72617864944E+02  0.11582764194E+03  0.36823774093E+03  0.00000000000E+00 0. -1.
          4    1    6    6  502    0 -0.75434407615E+01 -0.42178570288E+02 -0.12568381788E+02  0.44653101917E+02  0.00000000000E+00 0. -1.
          1    1    5    5  503    0  0.48612324420E+02  0.62456605619E+02 -0.42006153567E+03  0.42745254640E+03  0.00000000000E+00 0. -1.
         -2    1    5    5    0  503  0.27959783012E+03  0.14510007375E+03 -0.12641745834E+04  0.13028301330E+04  0.00000000000E+00 0.  1.
         -3    1    6    6    0  502  0.69940827274E+02 -0.93312423580E+02  0.60814454339E+02  0.13151929733E+03  0.00000000000E+00 0.  1.
<mgrwt>
<rscale>  0 0.17463388E+04</rscale>
<asrwt>0</asrwt>
<pdfrwt beam="1">  1        2 0.29711810E+00 0.17463388E+04</pdfrwt>
<pdfrwt beam="2">  1       -2 0.60735301E-01 0.17463388E+04</pdfrwt>
<totfact> 0.17457901E+01</totfact>
</mgrwt>
</event>
<event>
12    1  0.1556559E-007  0.1183201E+04  0.7818608E-02  0.9127689E-01
         -1   -1    0    0    0  501 -0.00000000000E+00  0.00000000000E+00  0.88224186945E+02  0.88224186945E+02  0.00000000000E+00 0.  1.
          1   -1    0    0  501    0  0.00000000000E+00 -0.00000000000E+00 -0.39670671930E+04  0.39670671930E+04  0.00000000000E+00 0. -1.
         23    2    1    2    0    0 -0.20620937415E+03  0.69269358664E+02 -0.53213315714E+03  0.58197061205E+03  0.90573430527E+02 0.  0.
        254    2    1    2    0    0  0.20620937415E+03 -0.69269358664E+02 -0.33467098489E+04  0.34733207679E+04  0.90342116085E+03 0.  0.
        -24    2    4    4    0    0  0.43103189259E+03  0.25916686286E+03 -0.15615012296E+04  0.16425206706E+04  0.81437755275E+02 0.  0.
         24    2    4    4    0    0 -0.22482251844E+03 -0.32843622152E+03 -0.17852086193E+04  0.18308000973E+04  0.80272445464E+02 0.  0.
         13    1    3    3    0    0 -0.17914575245E+03  0.66702967903E+02 -0.35906351582E+03  0.40677892637E+03  0.00000000000E+00 0.  1.
        -13    1    3    3    0    0 -0.27063621697E+02  0.25663907609E+01 -0.17306964132E+03  0.17519168567E+03  0.00000000000E+00 0. -1.
          4    1    6    6  502    0 -0.20863022413E+03 -0.30178756113E+03 -0.15146349725E+04  0.15584355625E+04  0.00000000000E+00 0. -1.
          1    1    5    5  503    0  0.20712377915E+03  0.10607933057E+03 -0.84289851615E+03  0.87443181140E+03  0.00000000000E+00 0. -1.
         -2    1    5    5    0  503  0.22390811344E+03  0.15308753229E+03 -0.71860271350E+03  0.76808885922E+03  0.00000000000E+00 0.  1.
         -3    1    6    6    0  502 -0.16192294309E+02 -0.26648660396E+02 -0.27057364674E+03  0.27236453478E+03  0.00000000000E+00 0.  1.
<mgrwt>
<rscale>  0 0.11832012E+04</rscale>
<asrwt>0</asrwt>
<pdfrwt beam="1">  1        1 0.61031793E+00 0.11832012E+04</pdfrwt>
<pdfrwt beam="2">  1       -1 0.13572954E-01 0.11832012E+04</pdfrwt>
<totfact> 0.40720535E+00</totfact>
</mgrwt>
</event>
<event>
12    1  0.1556559E-007  0.1161464E+04  0.7818608E-02  0.9147272E-01
         -2   -1    0    0    0  501 -0.00000000000E+00  0.00000000000E+00  0.13847794596E+03  0.13847794596E+03  0.00000000000E+00 0.  1.
          2   -1    0    0  501    0  0.00000000000E+00 -0.00000000000E+00 -0.24354022653E+04  0.24354022653E+04  0.00000000000E+00 0. -1.
         23    2    1    2    0    0 -0.12481852265E+03  0.17670794606E+03 -0.36087489933E+03  0.43060442018E+03  0.91564796248E+02 0.  0.
        254    2    1    2    0    0  0.12481852265E+03 -0.17670794606E+03 -0.19360494200E+04  0.21432757911E+04  0.89360975719E+03 0.  0.
        -24    2    4    4    0    0  0.42342336676E+03 -0.35288674423E+03 -0.10453336709E+04  0.11841708034E+04  0.75641300587E+02 0.  0.
         24    2    4    4    0    0 -0.29860484411E+03  0.17617879817E+03 -0.89071574906E+03  0.95910498763E+03  0.79397794828E+02 0.  0.
         11    1    3    3    0    0 -0.33542604312E+02  0.20045653507E+02 -0.18611111360E+02  0.43281728185E+02  0.00000000000E+00 0. -1.
        -11    1    3    3    0    0 -0.91275918339E+02  0.15666229255E+03 -0.34226378797E+03  0.38732269200E+03  0.00000000000E+00 0.  1.
          2    1    6    6  502    0 -0.18975954549E+03  0.76590633149E+02 -0.44976213719E+03  0.49412628977E+03  0.00000000000E+00 0. -1.
          1    1    5    5  503    0  0.19936904794E+03 -0.11768443524E+03 -0.43138731131E+03  0.48958416634E+03  0.00000000000E+00 0. -1.
         -2    1    5    5    0  503  0.22405431883E+03 -0.23520230899E+03 -0.61394635962E+03  0.69458663709E+03  0.00000000000E+00 0.  1.
         -1    1    6    6    0  502 -0.10884529862E+03  0.99588165023E+02 -0.44095361187E+03  0.46497869786E+03  0.00000000000E+00 0.  1.
<mgrwt>
<rscale>  0 0.11614637E+04</rscale>
<asrwt>0</asrwt>
<pdfrwt beam="1">  1        2 0.37467725E+00 0.11614637E+04</pdfrwt>
<pdfrwt beam="2">  1       -2 0.21304300E-01 0.11614637E+04</pdfrwt>
<totfact> 0.72192280E+01</totfact>
</mgrwt>
</event>
<event>
12    1  0.1556559E-007  0.1747055E+04  0.7818608E-02  0.8734973E-01
         -2   -1    0    0    0  501 -0.00000000000E+00  0.00000000000E+00  0.49986521362E+03  0.49986521362E+03  0.00000000000E+00 0.  1.
          2   -1    0    0  501    0  0.00000000000E+00 -0.00000000000E+00 -0.15265121203E+04  0.15265121203E+04  0.00000000000E+00 0. -1.
         23    2    1    2    0    0 -0.78621502378E+02 -0.88371721762E+02  0.34138175598E+03  0.37199868776E+03  0.88603716291E+02 0.  0.
        254    2    1    2    0    0  0.78621502378E+02  0.88371721762E+02 -0.13680286627E+04  0.16543786462E+04  0.92275423660E+03 0.  0.
        -24    2    4    4    0    0 -0.24289853893E+03  0.38514483748E+03 -0.51281768338E+03  0.69042716922E+03  0.79821385318E+02 0.  0.
         24    2    4    4    0    0  0.32152004131E+03 -0.29677311572E+03 -0.85521097930E+03  0.96395147695E+03  0.79794809549E+02 0.  0.
         13    1    3    3    0    0  0.81716796871E+01  0.10016216817E+02  0.62152208922E+02  0.63482265414E+02  0.00000000000E+00 0. -1.
        -13    1    3    3    0    0 -0.86793182065E+02 -0.98387938579E+02  0.27922954705E+03  0.30851642235E+03  0.00000000000E+00 0.  1.
          4    1    6    6  502    0  0.17439563798E+02 -0.50128724789E+02 -0.11062228619E+03  0.12269603757E+03  0.00000000000E+00 0. -1.
          3    1    5    5  503    0 -0.16790732906E+03  0.32623853128E+03 -0.40495091144E+03  0.54645191108E+03  0.00000000000E+00 0. -1.
         -4    1    5    5    0  503 -0.74991209869E+02  0.58906306202E+02 -0.10786677194E+03  0.14397525814E+03  0.00000000000E+00 0.  1.
         -3    1    6    6    0  502  0.30408047751E+03 -0.24664439093E+03 -0.74458869311E+03  0.84125543938E+03  0.00000000000E+00 0.  1.
<mgrwt>
<rscale>  0 0.17470550E+04</rscale>
<asrwt>0</asrwt>
<pdfrwt beam="1">  1        2 0.23484802E+00 0.17470550E+04</pdfrwt>
<pdfrwt beam="2">  1       -2 0.76902341E-01 0.17470550E+04</pdfrwt>
<totfact> 0.17558229E+01</totfact>
</mgrwt>
</event>
<event>
12    1  0.1556559E-007  0.1678081E+04  0.7818608E-02  0.8773965E-01
          1   -1    0    0  501    0  0.00000000000E+00  0.00000000000E+00  0.55346523165E+03  0.55346523165E+03  0.00000000000E+00 0. -1.
         -1   -1    0    0    0  501 -0.00000000000E+00 -0.00000000000E+00 -0.12719662016E+04  0.12719662016E+04  0.00000000000E+00 0.  1.
         23    2    1    2    0    0 -0.48694959359E+03  0.34014460452E+03 -0.17577157917E+03  0.62599259978E+03  0.90293013303E+02 0.  0.
        254    2    1    2    0    0  0.48694959359E+03 -0.34014460452E+03 -0.54272939078E+03  0.11994388335E+04  0.88953924306E+03 0.  0.
        -24    2    4    4    0    0  0.63797408552E+03 -0.51516043542E+03 -0.39481543793E+03  0.91362085028E+03  0.80141250447E+02 0.  0.
         24    2    4    4    0    0 -0.15102449193E+03  0.17501583090E+03 -0.14791395285E+03  0.28581798319E+03  0.79840114240E+02 0.  0.
         13    1    3    3    0    0 -0.32397210427E+03  0.19537381604E+03 -0.74340082813E+02  0.38555842651E+03  0.00000000000E+00 0.  1.
        -13    1    3    3    0    0 -0.16297748932E+03  0.14477078849E+03 -0.10143149635E+03  0.24043417327E+03  0.00000000000E+00 0. -1.
          4    1    6    6  502    0 -0.99661057434E+02  0.14876514207E+03 -0.14061524015E+03  0.22767529428E+03  0.00000000000E+00 0. -1.
          1    1    5    5  503    0  0.57008512344E+03 -0.48918986433E+03 -0.35820506184E+03  0.83223472510E+03  0.00000000000E+00 0. -1.
         -2    1    5    5    0  503  0.67888962073E+02 -0.25970571089E+02 -0.36610376088E+02  0.81386125177E+02  0.00000000000E+00 0.  1.
         -3    1    6    6    0  502 -0.51363434492E+02  0.26250688831E+02 -0.72987127018E+01  0.58142688913E+02  0.00000000000E+00 0.  1.
<mgrwt>
<rscale>  0 0.16780811E+04</rscale>
<asrwt>0</asrwt>
<pdfrwt beam="1">  1        1 0.85148498E-01 0.16780811E+04</pdfrwt>
<pdfrwt beam="2">  1       -1 0.19568711E+00 0.16780811E+04</pdfrwt>
<totfact> 0.59086929E+00</totfact>
</mgrwt>
</event>
<event>
12    1  0.1556559E-007  0.1666113E+04  0.7818608E-02  0.8780931E-01
          2   -1    0    0  501    0  0.00000000000E+00  0.00000000000E+00  0.77342706659E+03  0.77342706659E+03  0.00000000000E+00 0.  1.
         -2   -1    0    0    0  501 -0.00000000000E+00 -0.00000000000E+00 -0.89728277279E+03  0.89728277279E+03  0.00000000000E+00 0. -1.
         23    2    1    2    0    0  0.25112692648E+01 -0.52568364389E+03 -0.30678098694E+03  0.61558894609E+03  0.92117189924E+02 0.  0.
        254    2    1    2    0    0 -0.25112692648E+01  0.52568364389E+03  0.18292528074E+03  0.10551208933E+04  0.89636423467E+03 0.  0.
        -24    2    4    4    0    0 -0.20602836643E+03  0.48247020867E+03 -0.23621781515E+03  0.58015627429E+03  0.74547007846E+02 0.  0.
         24    2    4    4    0    0  0.20351709716E+03  0.43213435218E+02  0.41914309589E+03  0.47496461900E+03  0.81387005412E+02 0.  0.
         11    1    3    3    0    0  0.35297032367E+02 -0.44208500504E+03 -0.26399955105E+03  0.51612091135E+03  0.00000000000E+00 0. -1.
        -11    1    3    3    0    0 -0.32785763102E+02 -0.83598638846E+02 -0.42781435892E+02  0.99468034745E+02  0.00000000000E+00 0.  1.
          4    1    6    6  502    0  0.88004711488E+02  0.48605256223E+02  0.13605898427E+03  0.16917253730E+03  0.00000000000E+00 0. -1.
          1    1    5    5  503    0  0.21857481113E+01  0.47742522745E+02 -0.18473132478E+02  0.51238487452E+02  0.00000000000E+00 0. -1.
         -2    1    5    5    0  503 -0.20821411454E+03  0.43472768593E+03 -0.21774468267E+03  0.52891778684E+03  0.00000000000E+00 0.  1.
         -3    1    6    6    0  502  0.11551238568E+03 -0.53918210057E+01  0.28308411162E+03  0.30579208170E+03  0.00000000000E+00 0.  1.
<mgrwt>
<rscale>  0 0.16661126E+04</rscale>
<asrwt>0</asrwt>
<pdfrwt beam="1">  1        2 0.11898878E+00 0.16661126E+04</pdfrwt>
<pdfrwt beam="2">  1       -2 0.13804350E+00 0.16661126E+04</pdfrwt>
<totfact> 0.12798564E+01</totfact>
</mgrwt>
</event>
<event>
12    1  0.2954221E-007  0.1799339E+04  0.7818608E-02  0.8706651E-01
         -1   -1    0    0    0  501 -0.00000000000E+00  0.00000000000E+00  0.10063685647E+04  0.10063685647E+04  0.00000000000E+00 0.  1.
          1   -1    0    0  501    0  0.00000000000E+00 -0.00000000000E+00 -0.80428351860E+03  0.80428351860E+03  0.00000000000E+00 0. -1.
         23    2    1    2    0    0  0.36183661220E+03 -0.32949740360E+03 -0.38728175740E+03  0.63059907565E+03  0.90408858489E+02 0.  0.
        254    2    1    2    0    0 -0.36183661220E+03  0.32949740360E+03  0.58936680348E+03  0.11800530076E+04  0.89759545389E+03 0.  0.
        -24    2    4    4    0    0 -0.51186124114E+03 -0.10033395574E+03  0.16621598468E+03  0.55348613394E+03  0.81549457670E+02 0.  0.
         24    2    4    4    0    0  0.15002462894E+03  0.42983135934E+03  0.42315081880E+03  0.62656687368E+03  0.79164670054E+02 0.  0.
         11    1    3    3    0    0  0.33133442467E+03 -0.32776433454E+03 -0.35282787692E+03  0.58455065708E+03  0.00000000000E+00 0. -1.
        -11    1    3    3    0    0  0.30502187529E+02 -0.17330690610E+01 -0.34453880484E+02  0.46048418570E+02  0.00000000000E+00 0.  1.
          4    1    6    6  502    0  0.12658674543E+03  0.41608307427E+03  0.39906458689E+03  0.59025576941E+03  0.00000000000E+00 0. -1.
          1    1    5    5  503    0 -0.47719949290E+03 -0.10868447192E+03  0.16886950853E+03  0.51773408364E+03  0.00000000000E+00 0. -1.
         -2    1    5    5    0  503 -0.34661748243E+02  0.83505161810E+01 -0.26535238404E+01  0.35752050298E+02  0.00000000000E+00 0.  1.
         -3    1    6    6    0  502  0.23437883511E+02  0.13748285068E+02  0.24086231904E+02  0.36311104267E+02  0.00000000000E+00 0.  1.
<mgrwt>
<rscale>  0 0.17993395E+04</rscale>
<asrwt>0</asrwt>
<pdfrwt beam="1">  1        1 0.12373593E+00 0.17993395E+04</pdfrwt>
<pdfrwt beam="2">  1       -1 0.15482593E+00 0.17993395E+04</pdfrwt>
<totfact> 0.66218929E+00</totfact>
</mgrwt>
</event>
<event>
12    1  0.1556559E-007  0.1481720E+04  0.7818608E-02  0.8896701E-01
          1   -1    0    0  501    0  0.00000000000E+00  0.00000000000E+00  0.10087341273E+04  0.10087341273E+04  0.00000000000E+00 0. -1.
         -1   -1    0    0    0  501 -0.00000000000E+00 -0.00000000000E+00 -0.54412083745E+03  0.54412083745E+03  0.00000000000E+00 0.  1.
         23    2    1    2    0    0 -0.45978968413E+03 -0.69903113917E+01  0.18857284337E+03  0.50509280077E+03  0.90020009174E+02 0.  0.
        254    2    1    2    0    0  0.45978968413E+03  0.69903113917E+01  0.27604044649E+03  0.10477621640E+04  0.90008433277E+03 0.  0.
        -24    2    4    4    0    0  0.73991129425E+02  0.11433283097E+03 -0.30181484182E+03  0.34020754076E+03  0.78117146492E+02 0.  0.
         24    2    4    4    0    0  0.38579855470E+03 -0.10734251958E+03  0.57785528831E+03  0.70755462323E+03  0.79711161736E+02 0.  0.
         13    1    3    3    0    0 -0.24531177300E+03 -0.27530768642E+02  0.14157053329E+03  0.28456638082E+03  0.00000000000E+00 0. -1.
        -13    1    3    3    0    0 -0.21447791113E+03  0.20540457250E+02  0.47002310076E+02  0.22052641995E+03  0.00000000000E+00 0.  1.
          4    1    6    6  502    0  0.18706314836E+03 -0.49488994604E+02  0.21067219405E+03  0.28604991769E+03  0.00000000000E+00 0. -1.
          1    1    5    5  503    0  0.69646339625E+02  0.60005586196E+02 -0.12487765541E+03  0.15506679793E+03  0.00000000000E+00 0. -1.
         -2    1    5    5    0  503  0.43447898002E+01  0.54327244776E+02 -0.17693718641E+03  0.18514074284E+03  0.00000000000E+00 0.  1.
         -3    1    6    6    0  502  0.19873540634E+03 -0.57853524976E+02  0.36718309426E+03  0.42150470554E+03  0.00000000000E+00 0.  1.
<mgrwt>
<rscale>  0 0.14817196E+04</rscale>
<asrwt>0</asrwt>
<pdfrwt beam="1">  1        1 0.15518987E+00 0.14817196E+04</pdfrwt>
<pdfrwt beam="2">  1       -1 0.83710898E-01 0.14817196E+04</pdfrwt>
<totfact> 0.20425907E+01</totfact>
</mgrwt>
</event>
<event>
12    1  0.1556559E-007  0.1881905E+04  0.7818608E-02  0.8663916E-01
         -2   -1    0    0    0  501 -0.00000000000E+00  0.00000000000E+00  0.25074007043E+03  0.25074007043E+03  0.00000000000E+00 0.  1.
          2   -1    0    0  501    0  0.00000000000E+00 -0.00000000000E+00 -0.35311151539E+04  0.35311151539E+04  0.00000000000E+00 0. -1.
         23    2    1    2    0    0 -0.54327494635E+03 -0.20366921434E+03 -0.21100758477E+04  0.21902782977E+04  0.90940212967E+02 0.  0.
        254    2    1    2    0    0  0.54327494635E+03  0.20366921434E+03 -0.11702992358E+04  0.15915769266E+04  0.90933381979E+03 0.  0.
        -24    2    4    4    0    0  0.31884932544E+02 -0.71526177281E+02  0.12530588298E+03  0.16984822470E+03  0.83750893518E+02 0.  0.
         24    2    4    4    0    0  0.51139001380E+03  0.27519539163E+03 -0.12956051188E+04  0.14217287019E+04  0.73943412510E+02 0.  0.
         13    1    3    3    0    0 -0.16573236811E+03 -0.92844690552E+02 -0.57452295209E+03  0.60511484602E+03  0.00000000000E+00 0. -1.
        -13    1    3    3    0    0 -0.37754257824E+03 -0.11082452379E+03 -0.15355528956E+04  0.15851634517E+04  0.00000000000E+00 0.  1.
          4    1    6    6  502    0  0.39458743802E+03  0.20019816645E+03 -0.10536516485E+04  0.11427862217E+04  0.00000000000E+00 0. -1.
          1    1    5    5  503    0  0.32056665036E+02 -0.39019484618E+02  0.12763079969E+03  0.13725804523E+03  0.00000000000E+00 0. -1.
         -2    1    5    5    0  503 -0.17173249231E+00 -0.32506692663E+02 -0.23249167072E+01  0.32590179466E+02  0.00000000000E+00 0.  1.
         -3    1    6    6    0  502  0.11680257579E+03  0.74997225180E+02 -0.24195347023E+03  0.27894248019E+03  0.00000000000E+00 0.  1.
<mgrwt>
<rscale>  0 0.18819055E+04</rscale>
<asrwt>0</asrwt>
<pdfrwt beam="1">  1        2 0.54324844E+00 0.18819055E+04</pdfrwt>
<pdfrwt beam="2">  1       -2 0.38575398E-01 0.18819055E+04</pdfrwt>
<totfact> 0.46369914E+00</totfact>
</mgrwt>
</event>
<event>
12    1  0.1556559E-007  0.1100293E+04  0.7818608E-02  0.9204907E-01
          1   -1    0    0  501    0  0.00000000000E+00  0.00000000000E+00  0.86034668801E+03  0.86034668801E+03  0.00000000000E+00 0. -1.
         -1   -1    0    0    0  501 -0.00000000000E+00 -0.00000000000E+00 -0.35178951004E+03  0.35178951004E+03  0.00000000000E+00 0.  1.
         23    2    1    2    0    0 -0.11639325981E+03  0.87605426324E+01  0.20587699093E+03  0.25360094971E+03  0.91126111870E+02 0.  0.
        254    2    1    2    0    0  0.11639325981E+03 -0.87605426324E+01  0.30268018705E+03  0.95853524834E+03  0.90197028146E+03 0.  0.
        -24    2    4    4    0    0  0.19957554970E+03  0.18578861016E+03  0.55275997852E+03  0.62114271759E+03  0.76986193932E+02 0.  0.
         24    2    4    4    0    0 -0.83182289892E+02 -0.19454915279E+03 -0.25007979148E+03  0.33739253075E+03  0.80778409837E+02 0.  0.
         13    1    3    3    0    0 -0.69396127650E+01 -0.12031789252E+02 -0.52763676975E+01  0.14858069660E+02  0.00000000000E+00 0.  1.
        -13    1    3    3    0    0 -0.10945364704E+03  0.20792331884E+02  0.21115335862E+03  0.23874288005E+03  0.00000000000E+00 0. -1.
          2    1    6    6  502    0  0.14857087439E+02 -0.19721792423E+02 -0.40184986806E+02  0.47164767657E+02  0.00000000000E+00 0. -1.
          3    1    5    5  503    0  0.57220656896E+02  0.88959610663E+02  0.27145790800E+03  0.29133728172E+03  0.00000000000E+00 0. -1.
         -4    1    5    5    0  503  0.14235489280E+03  0.96828999492E+02  0.28130207053E+03  0.32980543587E+03  0.00000000000E+00 0.  1.
         -1    1    6    6    0  502 -0.98039377331E+02 -0.17482736037E+03 -0.20989480467E+03  0.29022776309E+03  0.00000000000E+00 0.  1.
<mgrwt>
<rscale>  0 0.11002926E+04</rscale>
<asrwt>0</asrwt>
<pdfrwt beam="1">  1        1 0.13236103E+00 0.11002926E+04</pdfrwt>
<pdfrwt beam="2">  1       -1 0.54121463E-01 0.11002926E+04</pdfrwt>
<totfact> 0.67416474E+01</totfact>
</mgrwt>
</event>
<event>
12    1  0.1556559E-007  0.1618504E+04  0.7818608E-02  0.8809260E-01
         -1   -1    0    0    0  501 -0.00000000000E+00  0.00000000000E+00  0.79830903464E+03  0.79830903464E+03  0.00000000000E+00 0.  1.
          1   -1    0    0  501    0  0.00000000000E+00 -0.00000000000E+00 -0.82034471136E+03  0.82034471136E+03  0.00000000000E+00 0. -1.
         23    2    1    2    0    0  0.45782845731E+03 -0.18077894452E+03 -0.17523247217E+03  0.53019723789E+03  0.90082010742E+02 0.  0.
        254    2    1    2    0    0 -0.45782845731E+03  0.18077894452E+03  0.15319679545E+03  0.10884565081E+04  0.95863464823E+03 0.  0.
        -24    2    4    4    0    0  0.25133880284E+03  0.24019960078E+03  0.11974440227E+02  0.35778427956E+03  0.83660991237E+02 0.  0.
         24    2    4    4    0    0 -0.70916726015E+03 -0.59420656263E+02  0.14122235522E+03  0.73067222854E+03  0.86539786765E+02 0.  0.
         13    1    3    3    0    0  0.14098313048E+03 -0.39764061962E+02 -0.12232358436E+02  0.14699338181E+03  0.00000000000E+00 0. -1.
        -13    1    3    3    0    0  0.31684532684E+03 -0.14101488256E+03 -0.16300011373E+03  0.38320385608E+03  0.00000000000E+00 0.  1.
          4    1    6    6  502    0 -0.60218151225E+03 -0.59837110706E+02  0.14958028757E+03  0.62335970029E+03  0.00000000000E+00 0. -1.
          1    1    5    5  503    0  0.18128041592E+03  0.21785189245E+03  0.18129991168E+02  0.28399072665E+03  0.00000000000E+00 0. -1.
         -2    1    5    5    0  503  0.70058386911E+02  0.22347708335E+02 -0.61555509404E+01  0.73793552915E+02  0.00000000000E+00 0.  1.
         -3    1    6    6    0  502 -0.10698574790E+03  0.41645444215E+00 -0.83579323461E+01  0.10731252826E+03  0.00000000000E+00 0.  1.
<mgrwt>
<rscale>  0 0.16185037E+04</rscale>
<asrwt>0</asrwt>
<pdfrwt beam="1">  1        1 0.12620688E+00 0.16185037E+04</pdfrwt>
<pdfrwt beam="2">  1       -1 0.12281678E+00 0.16185037E+04</pdfrwt>
<totfact> 0.11894536E+01</totfact>
</mgrwt>
</event>
<event>
12    1  0.1556559E-007  0.2691585E+04  0.7818608E-02  0.8337741E-01
         -2   -1    0    0    0  501 -0.00000000000E+00  0.00000000000E+00  0.42929740983E+03  0.42929740983E+03  0.00000000000E+00 0.  1.
          2   -1    0    0  501    0  0.00000000000E+00 -0.00000000000E+00 -0.42188864188E+04  0.42188864188E+04  0.00000000000E+00 0. -1.
         23    2    1    2    0    0  0.16020907080E+03 -0.36250482617E+03  0.25780169984E+03  0.48097149780E+03  0.88290259375E+02 0.  0.
        254    2    1    2    0    0 -0.16020907080E+03  0.36250482617E+03 -0.40473907088E+04  0.41672123308E+04  0.90951105830E+03 0.  0.
        -24    2    4    4    0    0  0.31673708736E+03 -0.45530211812E+01 -0.21586892057E+04  0.21832566018E+04  0.79543634945E+02 0.  0.
         24    2    4    4    0    0 -0.47694615815E+03  0.36705784735E+03 -0.18887015031E+04  0.19839557290E+04  0.81718210759E+02 0.  0.
         13    1    3    3    0    0  0.15801924886E+03 -0.35435300888E+03  0.26502132049E+03  0.46986427639E+03  0.00000000000E+00 0.  1.
        -13    1    3    3    0    0  0.21898219417E+01 -0.81518172815E+01 -0.72196206526E+01  0.11107221412E+02  0.00000000000E+00 0. -1.
          2    1    6    6  502    0 -0.35389777184E+03  0.22475680452E+03 -0.13049117910E+04  0.13706035300E+04  0.00000000000E+00 0. -1.
          1    1    5    5  503    0  0.13022503430E+03  0.33580715395E+02 -0.10067929168E+04  0.10157353009E+04  0.00000000000E+00 0. -1.
         -2    1    5    5    0  503  0.18651205306E+03 -0.38133736577E+02 -0.11518962889E+04  0.11675213009E+04  0.00000000000E+00 0.  1.
         -1    1    6    6    0  502 -0.12304838632E+03  0.14230104283E+03 -0.58378971206E+03  0.61335219904E+03  0.00000000000E+00 0.  1.
<mgrwt>
<rscale>  0 0.26915847E+04</rscale>
<asrwt>0</asrwt>
<pdfrwt beam="1">  1        2 0.64905945E+00 0.26915847E+04</pdfrwt>
<pdfrwt beam="2">  1       -2 0.66045755E-01 0.26915847E+04</pdfrwt>
<totfact> 0.41546068E-01</totfact>
</mgrwt>
</event>
<event>
12    1  0.1556559E-007  0.1515607E+04  0.7818608E-02  0.8874141E-01
          1   -1    0    0  501    0  0.00000000000E+00  0.00000000000E+00  0.34416355206E+04  0.34416355206E+04  0.00000000000E+00 0.  1.
         -1   -1    0    0    0  501 -0.00000000000E+00 -0.00000000000E+00 -0.16685841768E+03  0.16685841768E+03  0.00000000000E+00 0. -1.
         23    2    1    2    0    0 -0.13658058659E+02 -0.26019796432E+03  0.20350519006E+04  0.20537445452E+04  0.92416965228E+02 0.  0.
        254    2    1    2    0    0  0.13658058659E+02  0.26019796432E+03  0.12397252024E+04  0.15547493932E+04  0.90135319099E+03 0.  0.
        -24    2    4    4    0    0 -0.34294851276E+03 -0.81460891258E+02  0.83852760849E+03  0.91304571409E+03  0.79210899489E+02 0.  0.
         24    2    4    4    0    0  0.35660657142E+03  0.34165885558E+03  0.40119759388E+03  0.64170367907E+03  0.83217077693E+02 0.  0.
         11    1    3    3    0    0 -0.40840474624E+02 -0.11869490633E+03  0.11774738503E+04  0.11841457230E+04  0.00000000000E+00 0. -1.
        -11    1    3    3    0    0  0.27182415965E+02 -0.14150305799E+03  0.85757805026E+03  0.86959882213E+03  0.00000000000E+00 0.  1.
          2    1    6    6  502    0  0.58077144780E+02  0.37746164657E+02  0.25861178557E+02  0.73935973981E+02  0.00000000000E+00 0. -1.
          1    1    5    5  503    0 -0.34173685588E+03 -0.73993016698E+02  0.83374281942E+03  0.90409409584E+03  0.00000000000E+00 0. -1.
         -4    1    5    5    0  503 -0.12116568773E+01 -0.74678745594E+01  0.47847890687E+01  0.89516182478E+01  0.00000000000E+00 0.  1.
         -1    1    6    6    0  502  0.29852942664E+03  0.30391269092E+03  0.37533641532E+03  0.56776770509E+03  0.00000000000E+00 0.  1.
<mgrwt>
<rscale>  0 0.15156066E+04</rscale>
<asrwt>0</asrwt>
<pdfrwt beam="1">  1        1 0.52948234E+00 0.15156066E+04</pdfrwt>
<pdfrwt beam="2">  1       -1 0.25670528E-01 0.15156066E+04</pdfrwt>
<totfact> 0.36289942E+00</totfact>
</mgrwt>
</event>
<event>
12    1  0.1556559E-007  0.1200107E+04  0.7818608E-02  0.9112762E-01
         -2   -1    0    0    0  501 -0.00000000000E+00  0.00000000000E+00  0.79899908618E+03  0.79899908618E+03  0.00000000000E+00 0.  1.
          2   -1    0    0  501    0  0.00000000000E+00 -0.00000000000E+00 -0.45064440757E+03  0.45064440757E+03  0.00000000000E+00 0. -1.
         23    2    1    2    0    0  0.70486786687E+02  0.24229416110E+03  0.22840981306E+02  0.26977774076E+03  0.92647025755E+02 0.  0.
        254    2    1    2    0    0 -0.70486786687E+02 -0.24229416110E+03  0.32551369731E+03  0.97986575299E+03  0.88910228835E+03 0.  0.
        -24    2    4    4    0    0 -0.31012251980E+00 -0.37970930174E+03  0.56361143101E+03  0.68449321767E+03  0.81816073469E+02 0.  0.
         24    2    4    4    0    0 -0.70176664167E+02  0.13741514063E+03 -0.23809773370E+03  0.29537253532E+03  0.82138412190E+02 0.  0.
         11    1    3    3    0    0  0.31750295518E+02  0.54405331860E+02 -0.31444821066E+02  0.70404532327E+02  0.00000000000E+00 0.  1.
        -11    1    3    3    0    0  0.38736491169E+02  0.18788882924E+03  0.54285802373E+02  0.19937320843E+03  0.00000000000E+00 0. -1.
          4    1    6    6  502    0 -0.53588112145E+02  0.10441247189E+03 -0.22901438648E+03  0.25733487767E+03  0.00000000000E+00 0. -1.
          3    1    5    5  503    0 -0.12746550385E+02 -0.36936984777E+03  0.55304919911E+03  0.66517664994E+03  0.00000000000E+00 0. -1.
         -4    1    5    5    0  503  0.12436427865E+02 -0.10339453964E+02  0.10562231897E+02  0.19316567732E+02  0.00000000000E+00 0.  1.
         -3    1    6    6    0  502 -0.16588552022E+02  0.33002668746E+02 -0.90833472158E+01  0.38037657646E+02  0.00000000000E+00 0.  1.
<mgrwt>
<rscale>  0 0.12001074E+04</rscale>
<asrwt>0</asrwt>
<pdfrwt beam="1">  1        2 0.69329909E-01 0.12001074E+04</pdfrwt>
<pdfrwt beam="2">  1       -2 0.12292294E+00 0.12001074E+04</pdfrwt>
<totfact> 0.34245863E+01</totfact>
</mgrwt>
</event>
<event>
12    1  0.1556559E-007  0.1451310E+04  0.7818608E-02  0.8917493E-01
          3   -1    0    0  501    0  0.00000000000E+00  0.00000000000E+00  0.46572466317E+03  0.46572466317E+03  0.00000000000E+00 0.  1.
         -3   -1    0    0    0  501 -0.00000000000E+00 -0.00000000000E+00 -0.11306578535E+04  0.11306578535E+04  0.00000000000E+00 0. -1.
         23    2    1    2    0    0 -0.22177015368E+03  0.83944669586E+02  0.19093928571E+03  0.31804804510E+03  0.92021951454E+02 0.  0.
        254    2    1    2    0    0  0.22177015368E+03 -0.83944669586E+02 -0.85587247600E+03  0.12783344715E+04  0.91945234640E+03 0.  0.
        -24    2    4    4    0    0  0.38251174236E+03  0.39432426658E+02 -0.95944125760E+03  0.10367271288E+04  0.80034139468E+02 0.  0.
         24    2    4    4    0    0 -0.16074158868E+03 -0.12337709624E+03  0.10356878160E+03  0.24160734273E+03  0.81165567422E+02 0.  0.
         13    1    3    3    0    0 -0.96300523346E+02  0.13470676254E+01  0.37597270896E+02  0.10338839474E+03  0.00000000000E+00 0. -1.
        -13    1    3    3    0    0 -0.12546963033E+03  0.82597601961E+02  0.15334201482E+03  0.21465965036E+03  0.00000000000E+00 0.  1.
          2    1    6    6  502    0 -0.13139280367E+03 -0.84264872817E+02  0.11182760529E+03  0.19201575704E+03  0.00000000000E+00 0. -1.
          3    1    5    5  503    0  0.28725693943E+03  0.36337683576E+02 -0.80223360675E+03  0.85288670777E+03  0.00000000000E+00 0. -1.
         -4    1    5    5    0  503  0.95254802925E+02  0.30947430820E+01 -0.15720765085E+03  0.18384042102E+03  0.00000000000E+00 0.  1.
         -1    1    6    6    0  502 -0.29348785007E+02 -0.39112223427E+02 -0.82588236970E+01  0.49591585694E+02  0.00000000000E+00 0.  1.
<mgrwt>
<rscale>  0 0.14513101E+04</rscale>
<asrwt>0</asrwt>
<pdfrwt beam="1">  1        3 0.71649949E-01 0.14513101E+04</pdfrwt>
<pdfrwt beam="2">  1       -3 0.17394736E+00 0.14513101E+04</pdfrwt>
<totfact> 0.10239696E+00</totfact>
</mgrwt>
</event>
<event>
12    1  0.1556559E-007  0.1342770E+04  0.7818608E-02  0.8996319E-01
          2   -1    0    0  501    0  0.00000000000E+00  0.00000000000E+00  0.12595680518E+04  0.12595680518E+04  0.00000000000E+00 0. -1.
         -2   -1    0    0    0  501 -0.00000000000E+00 -0.00000000000E+00 -0.35786714346E+03  0.35786714346E+03  0.00000000000E+00 0.  1.
         23    2    1    2    0    0  0.13851010951E+03  0.52679054749E+02  0.64065917785E+03  0.66311121727E+03  0.85511233518E+02 0.  0.
        254    2    1    2    0    0 -0.13851010951E+03 -0.52679054749E+02  0.26104173051E+03  0.95432397803E+03  0.90588704413E+03 0.  0.
        -24    2    4    4    0    0  0.14055998389E+03  0.25200171249E+03  0.41065929727E+03  0.50749802738E+03  0.75174578105E+02 0.  0.
         24    2    4    4    0    0 -0.27907009340E+03 -0.30468076723E+03 -0.14961756676E+03  0.44682595065E+03  0.80978558498E+02 0.  0.
         13    1    3    3    0    0  0.89203288275E+02 -0.80230187387E+01  0.40607740571E+03  0.41583705330E+03  0.00000000000E+00 0.  1.
        -13    1    3    3    0    0  0.49306821233E+02  0.60702073487E+02  0.23458177214E+03  0.24727416397E+03  0.00000000000E+00 0. -1.
          2    1    6    6  502    0 -0.19895887161E+03 -0.26272786569E+03 -0.13010523464E+03  0.35431333038E+03  0.00000000000E+00 0. -1.
          3    1    5    5  503    0  0.11961837777E+03  0.21147912730E+03  0.28895980849E+03  0.37753112257E+03  0.00000000000E+00 0. -1.
         -4    1    5    5    0  503  0.20941606117E+02  0.40522585185E+02  0.12169948878E+03  0.12996690481E+03  0.00000000000E+00 0.  1.
         -1    1    6    6    0  502 -0.80111221784E+02 -0.41952901541E+02 -0.19512332118E+02  0.92512620264E+02  0.00000000000E+00 0.  1.
<mgrwt>
<rscale>  0 0.13427703E+04</rscale>
<asrwt>0</asrwt>
<pdfrwt beam="1">  1        2 0.19377970E+00 0.13427703E+04</pdfrwt>
<pdfrwt beam="2">  1       -2 0.55056484E-01 0.13427703E+04</pdfrwt>
<totfact> 0.52926554E+01</totfact>
</mgrwt>
</event>
<event>
12    1  0.1556559E-007  0.1384955E+04  0.7818608E-02  0.8964782E-01
         -2   -1    0    0    0  501 -0.00000000000E+00  0.00000000000E+00  0.66927880971E+03  0.66927880971E+03  0.00000000000E+00 0.  1.
          2   -1    0    0  501    0  0.00000000000E+00 -0.00000000000E+00 -0.71647997917E+03  0.71647997917E+03  0.00000000000E+00 0. -1.
         23    2    1    2    0    0 -0.52438226844E+01  0.16060830494E+03 -0.36965683296E+03  0.41422940228E+03  0.95484544676E+02 0.  0.
        254    2    1    2    0    0  0.52438226844E+01 -0.16060830494E+03  0.32245566349E+03  0.97152938660E+03  0.90225781727E+03 0.  0.
        -24    2    4    4    0    0  0.32405888554E+03 -0.39147978629E+03  0.16891211642E+03  0.54149388169E+03  0.80085806871E+02 0.  0.
         24    2    4    4    0    0 -0.31881506286E+03  0.23087148136E+03  0.15354354708E+03  0.43003550491E+03  0.80063908364E+02 0.  0.
         13    1    3    3    0    0  0.28003577332E+02  0.32084060497E+02 -0.38327526943E+02  0.57293861826E+02  0.00000000000E+00 0.  1.
        -13    1    3    3    0    0 -0.33247400016E+02  0.12852424444E+03 -0.33132930602E+03  0.35693554046E+03  0.00000000000E+00 0. -1.
          2    1    6    6  502    0 -0.24678799089E+03  0.20636702994E+03  0.14693195342E+03  0.35366744610E+03  0.00000000000E+00 0. -1.
          1    1    5    5  503    0  0.31165583371E+03 -0.37423152643E+03  0.14216392063E+03  0.50733536679E+03  0.00000000000E+00 0. -1.
         -2    1    5    5    0  503  0.12403051834E+02 -0.17248259860E+02  0.26748195783E+02  0.34158514907E+02  0.00000000000E+00 0.  1.
         -1    1    6    6    0  502 -0.72027071967E+02  0.24504451419E+02  0.66115936545E+01  0.76368058808E+02  0.00000000000E+00 0.  1.
<mgrwt>
<rscale>  0 0.13849547E+04</rscale>
<asrwt>0</asrwt>
<pdfrwt beam="1">  1        2 0.11022769E+00 0.13849547E+04</pdfrwt>
<pdfrwt beam="2">  1       -2 0.10296597E+00 0.13849547E+04</pdfrwt>
<totfact> 0.29863104E+01</totfact>
</mgrwt>
</event>
<event>
12    1  0.1556559E-007  0.2223346E+04  0.7818608E-02  0.8508773E-01
         -1   -1    0    0    0  501 -0.00000000000E+00  0.00000000000E+00  0.59154591965E+03  0.59154591965E+03  0.00000000000E+00 0.  1.
          1   -1    0    0  501    0  0.00000000000E+00 -0.00000000000E+00 -0.20891314377E+04  0.20891314377E+04  0.00000000000E+00 0. -1.
         23    2    1    2    0    0  0.57601899791E+03 -0.25800484664E+03 -0.14314430725E+04  0.15670150783E+04  0.90236351796E+02 0.  0.
        254    2    1    2    0    0 -0.57601899791E+03  0.25800484664E+03 -0.66142445572E+02  0.11136622790E+04  0.91515269858E+03 0.  0.
        -24    2    4    4    0    0  0.24088193267E+03  0.10025087799E+03  0.19102054193E+02  0.27339039513E+03  0.79391911760E+02 0.  0.
         24    2    4    4    0    0 -0.81690093057E+03  0.15775396865E+03 -0.85244499765E+02  0.84027188387E+03  0.81097281593E+02 0.  0.
         11    1    3    3    0    0  0.46231950719E+03 -0.23918693674E+03 -0.11239140409E+04  0.12386010208E+04  0.00000000000E+00 0. -1.
        -11    1    3    3    0    0  0.11369949072E+03 -0.18817909907E+02 -0.30752903154E+03  0.32841405750E+03  0.00000000000E+00 0.  1.
          4    1    6    6  502    0 -0.59773349278E+03  0.10304806242E+03 -0.27787179190E+02  0.60718725192E+03  0.00000000000E+00 0. -1.
          1    1    5    5  503    0  0.20435036732E+03  0.89205113430E+02  0.44736034100E+02  0.22741578141E+03  0.00000000000E+00 0. -1.
         -2    1    5    5    0  503  0.36531565347E+02  0.11045764564E+02 -0.25633979906E+02  0.45974613727E+02  0.00000000000E+00 0.  1.
         -3    1    6    6    0  502 -0.21916743779E+03  0.54705906224E+02 -0.57457320576E+02  0.23308463195E+03  0.00000000000E+00 0.  1.
<mgrwt>
<rscale>  0 0.22233463E+04</rscale>
<asrwt>0</asrwt>
<pdfrwt beam="1">  1        1 0.32140484E+00 0.22233463E+04</pdfrwt>
<pdfrwt beam="2">  1       -1 0.91007065E-01 0.22233463E+04</pdfrwt>
<totfact> 0.27791422E+00</totfact>
</mgrwt>
</event>
<event>
12    1  0.1556559E-007  0.1511352E+04  0.7818608E-02  0.8876939E-01
         -1   -1    0    0    0  501 -0.00000000000E+00  0.00000000000E+00  0.31724078125E+03  0.31724078125E+03  0.00000000000E+00 0.  1.
          1   -1    0    0  501    0  0.00000000000E+00 -0.00000000000E+00 -0.18000412542E+04  0.18000412542E+04  0.00000000000E+00 0. -1.
         23    2    1    2    0    0  0.10530313659E+02 -0.43573381334E+03 -0.77193309657E+03  0.89080871569E+03  0.87661957435E+02 0.  0.
        254    2    1    2    0    0 -0.10530313659E+02  0.43573381334E+03 -0.71086737634E+03  0.12264733197E+04  0.89940509987E+03 0.  0.
        -24    2    4    4    0    0  0.20259425913E+03 -0.69874403715E+02 -0.62439368341E+03  0.66513961726E+03  0.81341087057E+02 0.  0.
         24    2    4    4    0    0 -0.21312457279E+03  0.50560821705E+03 -0.86473692934E+02  0.56133370247E+03  0.80969582434E+02 0.  0.
         13    1    3    3    0    0 -0.14865509692E+02 -0.15331038724E+03 -0.35057668553E+03  0.38292175526E+03  0.00000000000E+00 0. -1.
        -13    1    3    3    0    0  0.25395823351E+02 -0.28242342610E+03 -0.42135641104E+03  0.50788696043E+03  0.00000000000E+00 0.  1.
          2    1    6    6  502    0 -0.54101982657E+01  0.13690478544E+02  0.11203751799E+02  0.18499283835E+02  0.00000000000E+00 0. -1.
          1    1    5    5  503    0  0.11413728688E+02 -0.30077760034E+02 -0.12078013211E+03  0.12499114034E+03  0.00000000000E+00 0. -1.
         -2    1    5    5    0  503  0.19118053044E+03 -0.39796643680E+02 -0.50361355130E+03  0.54014847692E+03  0.00000000000E+00 0.  1.
         -1    1    6    6    0  502 -0.20771437452E+03  0.49191773851E+03 -0.97677444734E+02  0.54283441863E+03  0.00000000000E+00 0.  1.
<mgrwt>
<rscale>  0 0.15113524E+04</rscale>
<asrwt>0</asrwt>
<pdfrwt beam="1">  1        1 0.27692943E+00 0.15113524E+04</pdfrwt>
<pdfrwt beam="2">  1       -1 0.48806272E-01 0.15113524E+04</pdfrwt>
<totfact> 0.16549787E+01</totfact>
</mgrwt>
</event>
<event>
12    1  0.1556559E-007  0.1898908E+04  0.7818608E-02  0.8655400E-01
          2   -1    0    0  501    0  0.00000000000E+00  0.00000000000E+00  0.19076133252E+04  0.19076133252E+04  0.00000000000E+00 0. -1.
         -2   -1    0    0    0  501 -0.00000000000E+00 -0.00000000000E+00 -0.47256061260E+03  0.47256061260E+03  0.00000000000E+00 0.  1.
         23    2    1    2    0    0 -0.16736824955E+03 -0.68580951301E+03  0.79425492783E+03  0.10666344623E+04  0.92311248524E+02 0.  0.
        254    2    1    2    0    0  0.16736824955E+03  0.68580951301E+03  0.64079778474E+03  0.13135394755E+04  0.90355815179E+03 0.  0.
        -24    2    4    4    0    0 -0.15229940282E+03 -0.16096772888E+03  0.98271454239E+02  0.25516497941E+03  0.79662853066E+02 0.  0.
         24    2    4    4    0    0  0.31966765237E+03  0.84677724190E+03  0.54252633050E+03  0.10583744961E+04  0.81256687851E+02 0.  0.
         11    1    3    3    0    0 -0.96915707814E+01 -0.39861966588E+02  0.85368038190E+02  0.94713277152E+02  0.00000000000E+00 0. -1.
        -11    1    3    3    0    0 -0.15767667877E+03 -0.64594754643E+03  0.70888688964E+03  0.97192118511E+03  0.00000000000E+00 0.  1.
          2    1    6    6  502    0  0.17237217359E+03  0.34847952226E+03  0.24686265907E+03  0.46053372961E+03  0.00000000000E+00 0. -1.
          3    1    5    5  503    0 -0.12056844047E+03 -0.75685832131E+02  0.43035133346E+02  0.14871824611E+03  0.00000000000E+00 0. -1.
         -4    1    5    5    0  503 -0.31730962346E+02 -0.85281896751E+02  0.55236320893E+02  0.10644673330E+03  0.00000000000E+00 0.  1.
         -1    1    6    6    0  502  0.14729547878E+03  0.49829771963E+03  0.29566367143E+03  0.59784076648E+03  0.00000000000E+00 0.  1.
<mgrwt>
<rscale>  0 0.18989080E+04</rscale>
<asrwt>0</asrwt>
<pdfrwt beam="1">  1        2 0.29347897E+00 0.18989080E+04</pdfrwt>
<pdfrwt beam="2">  1       -2 0.72701634E-01 0.18989080E+04</pdfrwt>
<totfact> 0.12047560E+01</totfact>
</mgrwt>
</event>
<event>
12    1  0.1556559E-007  0.2736978E+04  0.7818608E-02  0.8323106E-01
          1   -1    0    0  501    0  0.00000000000E+00  0.00000000000E+00  0.17959476877E+04  0.17959476877E+04  0.00000000000E+00 0.  1.
         -1   -1    0    0    0  501 -0.00000000000E+00 -0.00000000000E+00 -0.10427708044E+04  0.10427708044E+04  0.00000000000E+00 0. -1.
         23    2    1    2    0    0 -0.96923830590E+03 -0.41105086352E+03 -0.27195533840E+03  0.10921437538E+04  0.10213993792E+03 0.  0.
        254    2    1    2    0    0  0.96923830590E+03  0.41105086352E+03  0.10251322217E+04  0.17465747383E+04  0.94405589806E+03 0.  0.
        -24    2    4    4    0    0  0.11038036262E+04  0.16042418432E+03  0.81573986537E+03  0.13840959591E+04  0.78560371700E+02 0.  0.
         24    2    4    4    0    0 -0.13456532026E+03  0.25062667920E+03  0.20939235628E+03  0.36247877923E+03  0.81388873821E+02 0.  0.
         13    1    3    3    0    0 -0.37184672337E+03 -0.15031014826E+03 -0.15463596732E+03  0.42985510203E+03  0.00000000000E+00 0.  1.
        -13    1    3    3    0    0 -0.59739158253E+03 -0.26074071525E+03 -0.11731937107E+03  0.66228865179E+03  0.00000000000E+00 0. -1.
          4    1    6    6  502    0 -0.10362330576E+03  0.20660277378E+03  0.20420592168E+03  0.30841944504E+03  0.00000000000E+00 0. -1.
          3    1    5    5  503    0  0.11041147341E+04  0.16069855347E+03  0.81103651157E+03  0.13793743488E+04  0.00000000000E+00 0. -1.
         -4    1    5    5    0  503 -0.31110792035E+00 -0.27436915256E+00  0.47033538067E+01  0.47216102763E+01  0.00000000000E+00 0.  1.
         -3    1    6    6    0  502 -0.30942014496E+02  0.44023905417E+02  0.51864346043E+01  0.54059334190E+02  0.00000000000E+00 0.  1.
<mgrwt>
<rscale>  0 0.27369778E+04</rscale>
<asrwt>0</asrwt>
<pdfrwt beam="1">  1        1 0.27629964E+00 0.27369778E+04</pdfrwt>
<pdfrwt beam="2">  1       -1 0.16042628E+00 0.27369778E+04</pdfrwt>
<totfact> 0.10351513E+00</totfact>
</mgrwt>
</event>
<event>
12    1  0.1556559E-007  0.1231881E+04  0.7818608E-02  0.9085400E-01
          2   -1    0    0  501    0  0.00000000000E+00  0.00000000000E+00  0.16022465422E+04  0.16022465422E+04  0.00000000000E+00 0. -1.
         -2   -1    0    0    0  501 -0.00000000000E+00 -0.00000000000E+00 -0.23678177859E+03  0.23678177859E+03  0.00000000000E+00 0.  1.
         23    2    1    2    0    0  0.25828129212E+03  0.81077086195E+02  0.34024710306E+03  0.44429566595E+03  0.91366448335E+02 0.  0.
        254    2    1    2    0    0 -0.25828129212E+03 -0.81077086195E+02  0.10252176606E+04  0.13947326549E+04  0.90604923001E+03 0.  0.
        -24    2    4    4    0    0 -0.27286167956E+03 -0.18830513707E+03  0.11573004276E+04  0.12065013273E+04  0.79930295951E+02 0.  0.
         24    2    4    4    0    0  0.14580387445E+02  0.10722805088E+03 -0.13208276706E+03  0.18823132753E+03  0.79213210489E+02 0.  0.
         13    1    3    3    0    0  0.26307416542E+03  0.73996805636E+02  0.31189803782E+03  0.41468533824E+03  0.00000000000E+00 0. -1.
        -13    1    3    3    0    0 -0.47928733043E+01  0.70802805593E+01  0.28349065237E+02  0.29610327711E+02  0.00000000000E+00 0.  1.
          2    1    6    6  502    0  0.36166397280E+01  0.16465711930E+02  0.97594413900E+01  0.19479385219E+02  0.00000000000E+00 0. -1.
          1    1    5    5  503    0 -0.15844338591E+03 -0.63476766375E+02  0.53452559891E+03  0.56111605065E+03  0.00000000000E+00 0. -1.
         -2    1    5    5    0  503 -0.11441829365E+03 -0.12482837070E+03  0.62277482872E+03  0.64538527667E+03  0.00000000000E+00 0.  1.
         -1    1    6    6    0  502  0.10963747717E+02  0.90762338949E+02 -0.14184220845E+03  0.16875194231E+03  0.00000000000E+00 0.  1.
<mgrwt>
<rscale>  0 0.12318811E+04</rscale>
<asrwt>0</asrwt>
<pdfrwt beam="1">  1        2 0.24649946E+00 0.12318811E+04</pdfrwt>
<pdfrwt beam="2">  1       -2 0.36427967E-01 0.12318811E+04</pdfrwt>
<totfact> 0.77645306E+01</totfact>
</mgrwt>
</event>
<event>
12    1  0.1556559E-007  0.1328706E+04  0.7818608E-02  0.9007106E-01
         -1   -1    0    0    0  501 -0.00000000000E+00  0.00000000000E+00  0.31305800852E+03  0.31305800852E+03  0.00000000000E+00 0.  1.
          1   -1    0    0  501    0  0.00000000000E+00 -0.00000000000E+00 -0.14098504609E+04  0.14098504609E+04  0.00000000000E+00 0. -1.
         23    2    1    2    0    0 -0.35027620918E+03  0.24801023740E+02 -0.35739285454E+03  0.50932907651E+03  0.91531099665E+02 0.  0.
        254    2    1    2    0    0  0.35027620918E+03 -0.24801023740E+02 -0.73939959789E+03  0.12135793930E+04  0.89596577175E+03 0.  0.
        -24    2    4    4    0    0  0.30164482000E+03 -0.38565299718E+03 -0.15383174686E+03  0.51941578677E+03  0.80066981587E+02 0.  0.
         24    2    4    4    0    0  0.48631389174E+02  0.36085197344E+03 -0.58556785103E+03  0.69416360618E+03  0.79964024640E+02 0.  0.
         13    1    3    3    0    0 -0.10406968746E+03 -0.82631590323E+01 -0.55054850652E+02  0.11802464245E+03  0.00000000000E+00 0.  1.
        -13    1    3    3    0    0 -0.24620652172E+03  0.33064182772E+02 -0.30233800389E+03  0.39130443406E+03  0.00000000000E+00 0. -1.
          2    1    6    6  502    0  0.29176590350E+02  0.25010367212E+03 -0.46826214579E+03  0.53166959421E+03  0.00000000000E+00 0. -1.
          3    1    5    5  503    0  0.26150409164E+03 -0.31658089113E+03 -0.98593605221E+02  0.42228965126E+03  0.00000000000E+00 0. -1.
         -4    1    5    5    0  503  0.40140728360E+02 -0.69072106051E+02 -0.55238141639E+02  0.97126135511E+02  0.00000000000E+00 0.  1.
         -1    1    6    6    0  502  0.19454798824E+02  0.11074830132E+03 -0.11730570524E+03  0.16249401197E+03  0.00000000000E+00 0.  1.
<mgrwt>
<rscale>  0 0.13287061E+04</rscale>
<asrwt>0</asrwt>
<pdfrwt beam="1">  1        1 0.21690007E+00 0.13287061E+04</pdfrwt>
<pdfrwt beam="2">  1       -1 0.48162771E-01 0.13287061E+04</pdfrwt>
<totfact> 0.31944303E+01</totfact>
</mgrwt>
</event>
<event>
12    1  0.1556559E-007  0.2040213E+04  0.7818608E-02  0.8588047E-01
          2   -1    0    0  501    0  0.00000000000E+00  0.00000000000E+00  0.37088552084E+04  0.37088552084E+04  0.00000000000E+00 0. -1.
         -2   -1    0    0    0  501 -0.00000000000E+00 -0.00000000000E+00 -0.28057627497E+03  0.28057627497E+03  0.00000000000E+00 0.  1.
         23    2    1    2    0    0  0.15016678373E+02  0.57781560450E+03  0.25146164797E+04  0.25817075255E+04  0.88438306233E+02 0.  0.
        254    2    1    2    0    0 -0.15016678373E+02 -0.57781560450E+03  0.91366245378E+03  0.14077239579E+04  0.90156047425E+03 0.  0.
        -24    2    4    4    0    0  0.34932915607E+03 -0.54155237519E+03  0.36802410607E+03  0.74574757083E+03  0.73402059847E+02 0.  0.
         24    2    4    4    0    0 -0.36434583444E+03 -0.36263229308E+02  0.54563834771E+03  0.66197638705E+03  0.80178685784E+02 0.  0.
         11    1    3    3    0    0  0.25291401916E+02  0.32198763003E+03  0.15788314021E+04  0.16115285554E+04  0.00000000000E+00 0.  1.
        -11    1    3    3    0    0 -0.10274723543E+02  0.25582797447E+03  0.93578507762E+03  0.97017897006E+03  0.00000000000E+00 0. -1.
          2    1    6    6  502    0 -0.29754406152E+03 -0.59929305834E+02  0.42949549421E+03  0.52591859616E+03  0.00000000000E+00 0. -1.
          1    1    5    5  503    0  0.14841579408E+03 -0.17696102551E+03  0.10835478581E+03  0.25511411582E+03  0.00000000000E+00 0. -1.
         -2    1    5    5    0  503  0.20091336199E+03 -0.36459134968E+03  0.25966932027E+03  0.49063345501E+03  0.00000000000E+00 0.  1.
         -1    1    6    6    0  502 -0.66801772919E+02  0.23666076526E+02  0.11614285350E+03  0.13605779089E+03  0.00000000000E+00 0.  1.
<mgrwt>
<rscale>  0 0.20402125E+04</rscale>
<asrwt>0</asrwt>
<pdfrwt beam="1">  1        2 0.57059308E+00 0.20402125E+04</pdfrwt>
<pdfrwt beam="2">  1       -2 0.43165583E-01 0.20402125E+04</pdfrwt>
<totfact> 0.27282069E+00</totfact>
</mgrwt>
</event>
<event>
12    1  0.1556559E-007  0.1857599E+04  0.7818608E-02  0.8676255E-01
         -2   -1    0    0    0  501 -0.00000000000E+00  0.00000000000E+00  0.32353135409E+03  0.32353135409E+03  0.00000000000E+00 0.  1.
          2   -1    0    0  501    0  0.00000000000E+00 -0.00000000000E+00 -0.26664126168E+04  0.26664126168E+04  0.00000000000E+00 0. -1.
         23    2    1    2    0    0  0.41736226099E+03 -0.54753068444E+03 -0.65078972211E+03  0.95160842093E+03  0.89723001988E+02 0.  0.
        254    2    1    2    0    0 -0.41736226099E+03  0.54753068444E+03 -0.16920915406E+04  0.20383355500E+04  0.90424384165E+03 0.  0.
        -24    2    4    4    0    0 -0.68663887534E+03  0.49523359817E+03 -0.12686595265E+04  0.15272315797E+04  0.78803818127E+02 0.  0.
         24    2    4    4    0    0  0.26927661435E+03  0.52297086262E+02 -0.42343201411E+03  0.51110397034E+03  0.81778466938E+02 0.  0.
         13    1    3    3    0    0  0.12355865808E+03 -0.10681647788E+03 -0.12942897573E+03  0.20839472568E+03  0.00000000000E+00 0. -1.
        -13    1    3    3    0    0  0.29380360291E+03 -0.44071420656E+03 -0.52136074638E+03  0.74321369525E+03  0.00000000000E+00 0.  1.
          2    1    6    6  502    0  0.18964702605E+03  0.74094823619E+02 -0.30642067336E+03  0.36789898945E+03  0.00000000000E+00 0. -1.
          1    1    5    5  503    0 -0.16058216049E+03  0.76844902893E+02 -0.25682778482E+03  0.31249364861E+03  0.00000000000E+00 0. -1.
         -2    1    5    5    0  503 -0.52605671485E+03  0.41838869528E+03 -0.10118317417E+04  0.12147379310E+04  0.00000000000E+00 0.  1.
         -1    1    6    6    0  502  0.79629588298E+02 -0.21797737357E+02 -0.11701134075E+03  0.14320498089E+03  0.00000000000E+00 0.  1.
<mgrwt>
<rscale>  0 0.18575985E+04</rscale>
<asrwt>0</asrwt>
<pdfrwt beam="1">  1        2 0.41021732E+00 0.18575985E+04</pdfrwt>
<pdfrwt beam="2">  1       -2 0.49774055E-01 0.18575985E+04</pdfrwt>
<totfact> 0.99958687E+00</totfact>
</mgrwt>
</event>
<event>
12    1  0.1556559E-007  0.1860916E+04  0.7818608E-02  0.8674559E-01
         -1   -1    0    0    0  501 -0.00000000000E+00  0.00000000000E+00  0.35058729520E+03  0.35058729520E+03  0.00000000000E+00 0.  1.
          1   -1    0    0  501    0  0.00000000000E+00 -0.00000000000E+00 -0.24694334302E+04  0.24694334302E+04  0.00000000000E+00 0. -1.
         23    2    1    2    0    0 -0.53664025022E+03  0.43464394080E+03 -0.54601892314E+03  0.88437767656E+03  0.84196775073E+02 0.  0.
        254    2    1    2    0    0  0.53664025022E+03 -0.43464394080E+03 -0.15728272119E+04  0.19356430488E+04  0.89220539157E+03 0.  0.
        -24    2    4    4    0    0 -0.33230583684E+02 -0.77876297997E+02  0.85787643386E+02  0.14407759691E+03  0.78929365207E+02 0.  0.
         24    2    4    4    0    0  0.56987083391E+03 -0.35676764280E+03 -0.16586148552E+04  0.17915654519E+04  0.81655448316E+02 0.  0.
         11    1    3    3    0    0 -0.19513473666E+03  0.13806242142E+03 -0.23678871125E+03  0.33646350684E+03  0.00000000000E+00 0. -1.
        -11    1    3    3    0    0 -0.34150551356E+03  0.29658151938E+03 -0.30923021189E+03  0.54791416972E+03  0.00000000000E+00 0.  1.
          4    1    6    6  502    0  0.25518190470E+02  0.15657388358E+01 -0.61615464365E+02  0.66709032611E+02  0.00000000000E+00 0. -1.
          3    1    5    5  503    0  0.19739362801E+02 -0.31786590836E+02  0.57015355605E+02  0.68196631702E+02  0.00000000000E+00 0. -1.
         -4    1    5    5    0  503 -0.52969946485E+02 -0.46089707161E+02  0.28772287781E+02  0.75880965209E+02  0.00000000000E+00 0.  1.
         -3    1    6    6    0  502  0.54435264344E+03 -0.35833338164E+03 -0.15969993909E+04  0.17248564193E+04  0.00000000000E+00 0.  1.
<mgrwt>
<rscale>  0 0.18609159E+04</rscale>
<asrwt>0</asrwt>
<pdfrwt beam="1">  1        1 0.37991283E+00 0.18609159E+04</pdfrwt>
<pdfrwt beam="2">  1       -1 0.53936508E-01 0.18609159E+04</pdfrwt>
<totfact> 0.46373936E+00</totfact>
</mgrwt>
</event>
<event>
12    1  0.1556559E-007  0.1277721E+04  0.7818608E-02  0.9047421E-01
         -1   -1    0    0    0  501 -0.00000000000E+00  0.00000000000E+00  0.33517602385E+03  0.33517602385E+03  0.00000000000E+00 0.  1.
          1   -1    0    0  501    0  0.00000000000E+00 -0.00000000000E+00 -0.12176969227E+04  0.12176969227E+04  0.00000000000E+00 0. -1.
         23    2    1    2    0    0 -0.30467407857E+03  0.67640482885E+02 -0.19623146470E+03  0.37982149030E+03  0.91411419852E+02 0.  0.
        254    2    1    2    0    0  0.30467407857E+03 -0.67640482885E+02 -0.68628943419E+03  0.11730514563E+04  0.89869627938E+03 0.  0.
        -24    2    4    4    0    0 -0.19554718573E+03 -0.31186401416E+03 -0.18160009667E+03  0.41798693567E+03  0.78972261606E+02 0.  0.
         24    2    4    4    0    0  0.50022126429E+03  0.24422353128E+03 -0.50468933753E+03  0.75506452063E+03  0.74462449791E+02 0.  0.
         11    1    3    3    0    0 -0.27361259911E+03  0.63121092231E+02 -0.13621829835E+03  0.31209542048E+03  0.00000000000E+00 0.  1.
        -11    1    3    3    0    0 -0.31061479451E+02  0.45193906541E+01 -0.60013166354E+02  0.67726069821E+02  0.00000000000E+00 0. -1.
          4    1    6    6  502    0  0.48639622971E+03  0.23058884648E+03 -0.46684054037E+03  0.71252550729E+03  0.00000000000E+00 0. -1.
          1    1    5    5  503    0 -0.12038412867E+03 -0.22386229272E+03 -0.15974906668E+03  0.30021064079E+03  0.00000000000E+00 0. -1.
         -2    1    5    5    0  503 -0.75163057061E+02 -0.88001721443E+02 -0.21851029980E+02  0.11777629488E+03  0.00000000000E+00 0.  1.
         -3    1    6    6    0  502  0.13825034583E+02  0.13634684794E+02 -0.37848797155E+02  0.42539013350E+02  0.00000000000E+00 0.  1.
<mgrwt>
<rscale>  0 0.12777211E+04</rscale>
<asrwt>0</asrwt>
<pdfrwt beam="1">  1        1 0.18733799E+00 0.12777211E+04</pdfrwt>
<pdfrwt beam="2">  1       -1 0.51565542E-01 0.12777211E+04</pdfrwt>
<totfact> 0.38618729E+01</totfact>
</mgrwt>
</event>
<event>
12    1  0.1556559E-007  0.1482132E+04  0.7818608E-02  0.8896423E-01
         -2   -1    0    0    0  501 -0.00000000000E+00  0.00000000000E+00  0.27626413974E+03  0.27626413974E+03  0.00000000000E+00 0.  1.
          2   -1    0    0  501    0  0.00000000000E+00 -0.00000000000E+00 -0.19878757389E+04  0.19878757389E+04  0.00000000000E+00 0. -1.
         23    2    1    2    0    0 -0.48579948744E+02 -0.43012360492E+03 -0.29752148868E+03  0.53418988409E+03  0.97331747641E+02 0.  0.
        254    2    1    2    0    0  0.48579948744E+02  0.43012360492E+03 -0.14140901105E+04  0.17299499946E+04  0.89761340019E+03 0.  0.
        -24    2    4    4    0    0  0.21201746909E+03  0.65483357599E+03 -0.85436532699E+03  0.11000640507E+04  0.80264464842E+02 0.  0.
         24    2    4    4    0    0 -0.16343752035E+03 -0.22470997106E+03 -0.55972478350E+03  0.62988594384E+03  0.79107994698E+02 0.  0.
         13    1    3    3    0    0 -0.42918523058E+02 -0.35700760249E+03 -0.19775461716E+03  0.41036973142E+03  0.00000000000E+00 0.  1.
        -13    1    3    3    0    0 -0.56614256861E+01 -0.73116002432E+02 -0.99766871523E+02  0.12382015266E+03  0.00000000000E+00 0. -1.
          2    1    6    6  502    0 -0.16406526123E+03 -0.18690571347E+03 -0.45480759226E+03  0.51836386993E+03  0.00000000000E+00 0. -1.
          3    1    5    5  503    0  0.20171239276E+03  0.61424890001E+03 -0.76664940346E+03  0.10028663462E+04  0.00000000000E+00 0. -1.
         -4    1    5    5    0  503  0.10305076332E+02  0.40584675983E+02 -0.87715923529E+02  0.97197704518E+02  0.00000000000E+00 0.  1.
         -1    1    6    6    0  502  0.62774088188E+00 -0.37804257590E+02 -0.10491719125E+03  0.11152207391E+03  0.00000000000E+00 0.  1.
<mgrwt>
<rscale>  0 0.14821320E+04</rscale>
<asrwt>0</asrwt>
<pdfrwt beam="1">  1        2 0.30582705E+00 0.14821320E+04</pdfrwt>
<pdfrwt beam="2">  1       -2 0.42502174E-01 0.14821320E+04</pdfrwt>
<totfact> 0.34464082E+01</totfact>
</mgrwt>
</event>
<event>
12    1  0.1556559E-007  0.1307056E+04  0.7818608E-02  0.9023988E-01
         -1   -1    0    0    0  501 -0.00000000000E+00  0.00000000000E+00  0.27788236545E+03  0.27788236545E+03  0.00000000000E+00 0.  1.
          1   -1    0    0  501    0  0.00000000000E+00 -0.00000000000E+00 -0.15369778394E+04  0.15369778394E+04  0.00000000000E+00 0. -1.
         23    2    1    2    0    0 -0.20790727632E+03 -0.29317011376E+02  0.57067711896E+02  0.23550208275E+03  0.90108737301E+02 0.  0.
        254    2    1    2    0    0  0.20790727632E+03  0.29317011376E+02 -0.13161631859E+04  0.15793581221E+04  0.84734976448E+03 0.  0.
        -24    2    4    4    0    0  0.33803851156E+03 -0.27441334592E+03 -0.37876088978E+03  0.58220902587E+03  0.77037772924E+02 0.  0.
         24    2    4    4    0    0 -0.13013123524E+03  0.30373035730E+03 -0.93740229612E+03  0.99714909628E+03  0.79981167223E+02 0.  0.
         11    1    3    3    0    0 -0.67562216842E+02  0.80819172131E+01  0.59277053714E+02  0.90242670769E+02  0.00000000000E+00 0. -1.
        -11    1    3    3    0    0 -0.14034505947E+03 -0.37398928589E+02 -0.22093418176E+01  0.14525941198E+03  0.00000000000E+00 0.  1.
          2    1    6    6  502    0 -0.33003943822E+02  0.16902625754E+02 -0.10865011939E+03  0.11480334276E+03  0.00000000000E+00 0. -1.
          3    1    5    5  503    0  0.38648925336E+02 -0.46858071972E+01 -0.39189883002E+02  0.55240774329E+02  0.00000000000E+00 0. -1.
         -4    1    5    5    0  503  0.29938958622E+03 -0.26972753872E+03 -0.33957100678E+03  0.52696825154E+03  0.00000000000E+00 0.  1.
         -1    1    6    6    0  502 -0.97127291419E+02  0.28682773154E+03 -0.82875217673E+03  0.88234575352E+03  0.00000000000E+00 0.  1.
<mgrwt>
<rscale>  0 0.13070563E+04</rscale>
<asrwt>0</asrwt>
<pdfrwt beam="1">  1        1 0.23645813E+00 0.13070563E+04</pdfrwt>
<pdfrwt beam="2">  1       -1 0.42751133E-01 0.13070563E+04</pdfrwt>
<totfact> 0.32626914E+01</totfact>
</mgrwt>
</event>
<event>
12    1  0.1556559E-007  0.1413277E+04  0.7818608E-02  0.8944264E-01
         -1   -1    0    0    0  501 -0.00000000000E+00  0.00000000000E+00  0.15948763088E+03  0.15948763088E+03  0.00000000000E+00 0.  1.
          1   -1    0    0  501    0  0.00000000000E+00 -0.00000000000E+00 -0.31308865113E+04  0.31308865113E+04  0.00000000000E+00 0. -1.
         23    2    1    2    0    0 -0.11998352678E+03 -0.34259126316E+02  0.26396009558E+02  0.15540867151E+03  0.88799613888E+02 0.  0.
        254    2    1    2    0    0  0.11998352678E+03  0.34259126316E+02 -0.29977948900E+04  0.31349654707E+04  0.90866086385E+03 0.  0.
        -24    2    4    4    0    0 -0.34410445169E+03  0.18619578789E+03 -0.16976919564E+04  0.17439045120E+04  0.77254276580E+02 0.  0.
         24    2    4    4    0    0  0.46408797846E+03 -0.15193666158E+03 -0.13001029336E+04  0.13910609587E+04  0.79501898109E+02 0.  0.
         11    1    3    3    0    0 -0.11840381327E+03  0.43654107251E+00  0.21299491780E+02  0.12030512007E+03  0.00000000000E+00 0.  1.
        -11    1    3    3    0    0 -0.15797135057E+01 -0.34695667388E+02  0.50965177779E+01  0.35103551440E+02  0.00000000000E+00 0. -1.
          2    1    6    6  502    0  0.18984307189E+03 -0.61781831020E+02 -0.64451786870E+03  0.67473007171E+03  0.00000000000E+00 0. -1.
          1    1    5    5  503    0 -0.80763196489E+02  0.13063436929E+02 -0.28670419756E+03  0.29814869477E+03  0.00000000000E+00 0. -1.
         -2    1    5    5    0  503 -0.26334125520E+03  0.17313235096E+03 -0.14109877588E+04  0.14457558173E+04  0.00000000000E+00 0.  1.
         -1    1    6    6    0  502  0.27424490657E+03 -0.90154830558E+02 -0.65558506494E+03  0.71633088697E+03  0.00000000000E+00 0.  1.
<mgrwt>
<rscale>  0 0.14132766E+04</rscale>
<asrwt>0</asrwt>
<pdfrwt beam="1">  1        1 0.48167482E+00 0.14132766E+04</pdfrwt>
<pdfrwt beam="2">  1       -1 0.24536560E-01 0.14132766E+04</pdfrwt>
<totfact> 0.68067510E+00</totfact>
</mgrwt>
</event>
<event>
12    1  0.1556559E-007  0.3379310E+04  0.7818608E-02  0.8143003E-01
         -1   -1    0    0    0  501 -0.00000000000E+00  0.00000000000E+00  0.16595139278E+04  0.16595139278E+04  0.00000000000E+00 0.  1.
          1   -1    0    0  501    0  0.00000000000E+00 -0.00000000000E+00 -0.17203432216E+04  0.17203432216E+04  0.00000000000E+00 0. -1.
         23    2    1    2    0    0 -0.36051226422E+03  0.10138604060E+04  0.11127153708E+04  0.15506425519E+04  0.92058740933E+02 0.  0.
        254    2    1    2    0    0  0.36051226422E+03 -0.10138604060E+04 -0.11735446646E+04  0.18292145975E+04  0.90052037628E+03 0.  0.
        -24    2    4    4    0    0  0.21721493218E+03 -0.38706775742E+03  0.40304445115E+02  0.45331729112E+03  0.82875463985E+02 0.  0.
         24    2    4    4    0    0  0.14329733204E+03 -0.62679264861E+03 -0.12138491097E+04  0.13758973063E+04  0.79123869000E+02 0.  0.
         11    1    3    3    0    0 -0.34069395382E+01  0.84221814413E+00 -0.69397044583E+00  0.35774520820E+01  0.00000000000E+00 0. -1.
        -11    1    3    3    0    0 -0.35710532469E+03  0.10130181879E+04  0.11134093412E+04  0.15470650998E+04  0.00000000000E+00 0.  1.
          2    1    6    6  502    0  0.10717400090E+03 -0.40213777052E+03 -0.70860771289E+03  0.82178217534E+03  0.00000000000E+00 0. -1.
          1    1    5    5  503    0  0.16430299341E+03 -0.24454237963E+03  0.57978957431E+02  0.30026323216E+03  0.00000000000E+00 0. -1.
         -2    1    5    5    0  503  0.52911938769E+02 -0.14252537779E+03 -0.17674512316E+02  0.15305405896E+03  0.00000000000E+00 0.  1.
         -1    1    6    6    0  502  0.36123331142E+02 -0.22465487809E+03 -0.50524139686E+03  0.55411513099E+03  0.00000000000E+00 0.  1.
<mgrwt>
<rscale>  0 0.33793097E+04</rscale>
<asrwt>0</asrwt>
<pdfrwt beam="1">  1        1 0.26466819E+00 0.33793097E+04</pdfrwt>
<pdfrwt beam="2">  1       -1 0.25530983E+00 0.33793097E+04</pdfrwt>
<totfact> 0.24488711E-01</totfact>
</mgrwt>
</event>
<event>
12    1  0.1556559E-007  0.2208029E+04  0.7818608E-02  0.8515094E-01
         -1   -1    0    0    0  501 -0.00000000000E+00  0.00000000000E+00  0.12624532944E+04  0.12624532944E+04  0.00000000000E+00 0.  1.
          1   -1    0    0  501    0  0.00000000000E+00 -0.00000000000E+00 -0.96545974877E+03  0.96545974877E+03  0.00000000000E+00 0. -1.
         23    2    1    2    0    0 -0.77079126015E+03 -0.28763235551E+03  0.50077480991E+03  0.96751726957E+03  0.91993032449E+02 0.  0.
        254    2    1    2    0    0  0.77079126015E+03  0.28763235551E+03 -0.20378126428E+03  0.12603957736E+04  0.93285538202E+03 0.  0.
        -24    2    4    4    0    0  0.35342803451E+03  0.23289606516E+03  0.35363114066E+03  0.55752090589E+03  0.81379506717E+02 0.  0.
         24    2    4    4    0    0  0.41736322564E+03  0.54736290350E+02 -0.55741240495E+03  0.70287486770E+03  0.78334965770E+02 0.  0.
         11    1    3    3    0    0 -0.61377761084E+03 -0.24961993285E+03  0.43758628693E+03  0.79404963633E+03  0.00000000000E+00 0.  1.
        -11    1    3    3    0    0 -0.15701364931E+03 -0.38012422660E+02  0.63188522977E+02  0.17346763324E+03  0.00000000000E+00 0. -1.
          4    1    6    6  502    0  0.42952781149E+01  0.11670539705E+02 -0.11444083985E+02  0.16900235778E+02  0.00000000000E+00 0. -1.
          1    1    5    5  503    0  0.24751304636E+03  0.12447977270E+03  0.19991463137E+03  0.34164862324E+03  0.00000000000E+00 0. -1.
         -2    1    5    5    0  503  0.10591498815E+03  0.10841629246E+03  0.15371650929E+03  0.21587228264E+03  0.00000000000E+00 0.  1.
         -3    1    6    6    0  502  0.41306794753E+03  0.43065750645E+02 -0.54596832096E+03  0.68597463193E+03  0.00000000000E+00 0.  1.
<mgrwt>
<rscale>  0 0.22080288E+04</rscale>
<asrwt>0</asrwt>
<pdfrwt beam="1">  1        1 0.14853227E+00 0.22080288E+04</pdfrwt>
<pdfrwt beam="2">  1       -1 0.19422358E+00 0.22080288E+04</pdfrwt>
<totfact> 0.24227654E+00</totfact>
</mgrwt>
</event>
<event>
12    1  0.1556559E-007  0.2516783E+04  0.7818608E-02  0.8397031E-01
         -2   -1    0    0    0  501 -0.00000000000E+00  0.00000000000E+00  0.43569110620E+03  0.43569110620E+03  0.00000000000E+00 0.  1.
          2   -1    0    0  501    0  0.00000000000E+00 -0.00000000000E+00 -0.36345691751E+04  0.36345691751E+04  0.00000000000E+00 0. -1.
         23    2    1    2    0    0  0.35606578538E+03 -0.10256733137E+04 -0.11572129153E+04  0.15895399418E+04  0.93310798920E+02 0.  0.
        254    2    1    2    0    0 -0.35606578538E+03  0.10256733137E+04 -0.20416651536E+04  0.24807203395E+04  0.89821390194E+03 0.  0.
        -24    2    4    4    0    0 -0.41805676342E+03  0.86396606655E+03 -0.20742746113E+04  0.22869679340E+04  0.79989663995E+02 0.  0.
         24    2    4    4    0    0  0.61990978041E+02  0.16170724714E+03  0.32609457749E+02  0.19375240552E+03  0.80526410422E+02 0.  0.
         13    1    3    3    0    0  0.28280835175E+03 -0.82944807883E+03 -0.87806745057E+03  0.12405511384E+04  0.00000000000E+00 0. -1.
        -13    1    3    3    0    0  0.73257433633E+02 -0.19622523486E+03 -0.27914546474E+03  0.34898880335E+03  0.00000000000E+00 0.  1.
          2    1    6    6  502    0  0.41176168340E+02  0.15410836801E+03  0.66933439657E+01  0.15965483639E+03  0.00000000000E+00 0. -1.
          3    1    5    5  503    0 -0.27819356635E+03  0.59175718079E+03 -0.14973016047E+04  0.16338544356E+04  0.00000000000E+00 0. -1.
         -4    1    5    5    0  503 -0.13986319708E+03  0.27220888576E+03 -0.57697300666E+03  0.65311349841E+03  0.00000000000E+00 0.  1.
         -1    1    6    6    0  502  0.20814809701E+02  0.75988791264E+01  0.25916113783E+02  0.34097569129E+02  0.00000000000E+00 0.  1.
<mgrwt>
<rscale>  0 0.25167832E+04</rscale>
<asrwt>0</asrwt>
<pdfrwt beam="1">  1        2 0.55916447E+00 0.25167832E+04</pdfrwt>
<pdfrwt beam="2">  1       -2 0.67029403E-01 0.25167832E+04</pdfrwt>
<totfact> 0.11879449E+00</totfact>
</mgrwt>
</event>
<event>
12    1  0.1556559E-007  0.1765084E+04  0.7818608E-02  0.8725091E-01
         -2   -1    0    0    0  501 -0.00000000000E+00  0.00000000000E+00  0.25204668853E+03  0.25204668853E+03  0.00000000000E+00 0.  1.
          2   -1    0    0  501    0  0.00000000000E+00 -0.00000000000E+00 -0.30902217874E+04  0.30902217874E+04  0.00000000000E+00 0. -1.
         23    2    1    2    0    0  0.19183666187E+03  0.40424647778E+03 -0.14720260982E+03  0.47927498158E+03  0.88427258237E+02 0.  0.
        254    2    1    2    0    0 -0.19183666187E+03 -0.40424647778E+03 -0.26909724890E+04  0.28629934943E+04  0.86901225093E+03 0.  0.
        -24    2    4    4    0    0 -0.28888043382E+02 -0.60779189983E+03 -0.12065681793E+04  0.13537461130E+04  0.81094108515E+02 0.  0.
         24    2    4    4    0    0 -0.16294861849E+03  0.20354542205E+03 -0.14844043097E+04  0.15092473813E+04  0.79928170500E+02 0.  0.
         13    1    3    3    0    0  0.34281579819E+02  0.14027670835E+03 -0.78169110456E+02  0.16420472420E+03  0.00000000000E+00 0. -1.
        -13    1    3    3    0    0  0.15755508205E+03  0.26396976943E+03 -0.69033499366E+02  0.31507025738E+03  0.00000000000E+00 0.  1.
          2    1    6    6  502    0 -0.17161351332E+03  0.18583575417E+03 -0.13701182338E+04  0.13932731606E+04  0.00000000000E+00 0. -1.
          1    1    5    5  503    0 -0.54229877650E+02 -0.49994016547E+03 -0.97532101597E+03  0.10973295462E+04  0.00000000000E+00 0. -1.
         -2    1    5    5    0  503  0.25341834268E+02 -0.10785173436E+03 -0.23124716337E+03  0.25641656681E+03  0.00000000000E+00 0.  1.
         -1    1    6    6    0  502  0.86648948282E+01  0.17709667877E+02 -0.11428607585E+03  0.11597422072E+03  0.00000000000E+00 0.  1.
<mgrwt>
<rscale>  0 0.17650838E+04</rscale>
<asrwt>0</asrwt>
<pdfrwt beam="1">  1        2 0.47541873E+00 0.17650838E+04</pdfrwt>
<pdfrwt beam="2">  1       -2 0.38776414E-01 0.17650838E+04</pdfrwt>
<totfact> 0.91275392E+00</totfact>
</mgrwt>
</event>
<event>
12    1  0.1556559E-007  0.1391445E+04  0.7818608E-02  0.8960034E-01
         -1   -1    0    0    0  501 -0.00000000000E+00  0.00000000000E+00  0.76815625127E+03  0.76815625127E+03  0.00000000000E+00 0.  1.
          1   -1    0    0  501    0  0.00000000000E+00 -0.00000000000E+00 -0.63011919633E+03  0.63011919633E+03  0.00000000000E+00 0. -1.
         23    2    1    2    0    0  0.24186753422E+03 -0.30775211911E+03  0.42762690886E+01  0.40401655702E+03  0.99999104690E+02 0.  0.
        254    2    1    2    0    0 -0.24186753422E+03  0.30775211911E+03  0.13376078585E+03  0.99425889058E+03  0.90412804554E+03 0.  0.
        -24    2    4    4    0    0 -0.26848608113E+03  0.19653869341E+03  0.49798975189E+03  0.60435476586E+03  0.80861958079E+02 0.  0.
         24    2    4    4    0    0  0.26618546911E+02  0.11121342570E+03 -0.36422896604E+03  0.38990412472E+03  0.79281231544E+02 0.  0.
         13    1    3    3    0    0  0.25071279724E+03 -0.30415200773E+03  0.18713583673E+01  0.39416855847E+03  0.00000000000E+00 0. -1.
        -13    1    3    3    0    0 -0.88452630157E+01 -0.36001113789E+01  0.24049107213E+01  0.98479985446E+01  0.00000000000E+00 0.  1.
          2    1    6    6  502    0  0.37509662958E+02  0.11034963537E+03 -0.25787338991E+03  0.28298887269E+03  0.00000000000E+00 0. -1.
          3    1    5    5  503    0 -0.22656146728E+03  0.13710776001E+03  0.42872954209E+03  0.50392227235E+03  0.00000000000E+00 0. -1.
         -4    1    5    5    0  503 -0.41924613852E+02  0.59430933400E+02  0.69260209800E+02  0.10043249351E+03  0.00000000000E+00 0.  1.
         -1    1    6    6    0  502 -0.10891116047E+02  0.86379032417E+00 -0.10635557613E+03  0.10691525203E+03  0.00000000000E+00 0.  1.
<mgrwt>
<rscale>  0 0.13914453E+04</rscale>
<asrwt>0</asrwt>
<pdfrwt beam="1">  1        1 0.96941414E-01 0.13914453E+04</pdfrwt>
<pdfrwt beam="2">  1       -1 0.11817789E+00 0.13914453E+04</pdfrwt>
<totfact> 0.20002668E+01</totfact>
</mgrwt>
</event>
<event>
12    1  0.1556559E-007  0.1418689E+04  0.7818608E-02  0.8940400E-01
         -1   -1    0    0    0  501 -0.00000000000E+00  0.00000000000E+00  0.67219445254E+03  0.67219445254E+03  0.00000000000E+00 0.  1.
          1   -1    0    0  501    0  0.00000000000E+00 -0.00000000000E+00 -0.74854794057E+03  0.74854794057E+03  0.00000000000E+00 0. -1.
         23    2    1    2    0    0  0.33263788282E+03 -0.21691010745E+03  0.94844159290E+02  0.41855921291E+03  0.92187007529E+02 0.  0.
        254    2    1    2    0    0 -0.33263788282E+03  0.21691010745E+03 -0.17119764732E+03  0.10021831802E+04  0.90408215138E+03 0.  0.
        -24    2    4    4    0    0 -0.62775416581E+03  0.24702295318E+03 -0.10027344674E+03  0.68664210685E+03  0.79542357865E+02 0.  0.
         24    2    4    4    0    0  0.29511628299E+03 -0.30112845736E+02 -0.70924200578E+02  0.31554107336E+03  0.80842580266E+02 0.  0.
         11    1    3    3    0    0  0.10858192440E+03 -0.58178268984E+02  0.72803330309E+02  0.14309112549E+03  0.00000000000E+00 0.  1.
        -11    1    3    3    0    0  0.22405595842E+03 -0.15873183846E+03  0.22040828982E+02  0.27546808742E+03  0.00000000000E+00 0. -1.
          2    1    6    6  502    0  0.23386355712E+03 -0.52184767036E+02 -0.38094863400E+02  0.24262446677E+03  0.00000000000E+00 0. -1.
          3    1    5    5  503    0 -0.18689664310E+03  0.86996431912E+02 -0.65692256229E+02  0.21636590973E+03  0.00000000000E+00 0. -1.
         -4    1    5    5    0  503 -0.44085752271E+03  0.16002652127E+03 -0.34581190514E+02  0.47027619712E+03  0.00000000000E+00 0.  1.
         -1    1    6    6    0  502  0.61252725872E+02  0.22071921300E+02 -0.32829337177E+02  0.72916606587E+02  0.00000000000E+00 0.  1.
<mgrwt>
<rscale>  0 0.14186892E+04</rscale>
<asrwt>0</asrwt>
<pdfrwt beam="1">  1        1 0.11516122E+00 0.14186892E+04</pdfrwt>
<pdfrwt beam="2">  1       -1 0.10341453E+00 0.14186892E+04</pdfrwt>
<totfact> 0.21106611E+01</totfact>
</mgrwt>
</event>
<event>
12    1  0.1556559E-007  0.1948857E+04  0.7818608E-02  0.8630912E-01
          2   -1    0    0  501    0  0.00000000000E+00  0.00000000000E+00  0.14560497617E+04  0.14560497617E+04  0.00000000000E+00 0. -1.
         -2   -1    0    0    0  501 -0.00000000000E+00 -0.00000000000E+00 -0.65211415576E+03  0.65211415576E+03  0.00000000000E+00 0.  1.
         23    2    1    2    0    0  0.57337854723E+02  0.30769142273E+03  0.10752084735E+04  0.11235482558E+04  0.91245714172E+02 0.  0.
        254    2    1    2    0    0 -0.57337854723E+02 -0.30769142273E+03 -0.27127286757E+03  0.98461566167E+03  0.89326221868E+03 0.  0.
        -24    2    4    4    0    0  0.37652165551E+02 -0.28261689900E+03 -0.58002460265E+03  0.65119413239E+03  0.79594354141E+02 0.  0.
         24    2    4    4    0    0 -0.94990020273E+02 -0.25074523734E+02  0.30875173508E+03  0.33342152928E+03  0.78679391084E+02 0.  0.
         13    1    3    3    0    0  0.36186012206E+02  0.21954469295E+03  0.60357413630E+03  0.64328146071E+03  0.00000000000E+00 0. -1.
        -13    1    3    3    0    0  0.21151842516E+02  0.88146729784E+02  0.47163433724E+03  0.48026679510E+03  0.00000000000E+00 0.  1.
          2    1    6    6  502    0 -0.37912159869E+01  0.21025014590E+02  0.32674257156E+02  0.39038847804E+02  0.00000000000E+00 0. -1.
          1    1    5    5  503    0  0.32261584561E+02 -0.59705147336E+02 -0.89075185080E+02  0.11198170857E+03  0.00000000000E+00 0. -1.
         -2    1    5    5    0  503  0.53905809896E+01 -0.22291175166E+03 -0.49094941757E+03  0.53921242383E+03  0.00000000000E+00 0.  1.
         -1    1    6    6    0  502 -0.91198804286E+02 -0.46099538323E+02  0.27607747792E+03  0.29438268148E+03  0.00000000000E+00 0.  1.
<mgrwt>
<rscale>  0 0.19488568E+04</rscale>
<asrwt>0</asrwt>
<pdfrwt beam="1">  1        2 0.22400766E+00 0.19488568E+04</pdfrwt>
<pdfrwt beam="2">  1       -2 0.10032525E+00 0.19488568E+04</pdfrwt>
<totfact> 0.10280779E+01</totfact>
</mgrwt>
</event>
<event>
12    1  0.1556559E-007  0.3287087E+04  0.7818608E-02  0.8166189E-01
         -2   -1    0    0    0  501 -0.00000000000E+00  0.00000000000E+00  0.12962922455E+04  0.12962922455E+04  0.00000000000E+00 0.  1.
          2   -1    0    0  501    0  0.00000000000E+00 -0.00000000000E+00 -0.20838168261E+04  0.20838168261E+04  0.00000000000E+00 0. -1.
         23    2    1    2    0    0  0.12010537892E+03  0.29347743586E+03 -0.18847436645E+04  0.19133244404E+04  0.89428328852E+02 0.  0.
        254    2    1    2    0    0 -0.12010537892E+03 -0.29347743586E+03  0.10972190839E+04  0.14667846312E+04  0.92033316185E+03 0.  0.
        -24    2    4    4    0    0 -0.49200470490E+03 -0.31032406312E+03  0.59797897899E+03  0.83810383635E+03  0.80433372373E+02 0.  0.
         24    2    4    4    0    0  0.37189932598E+03  0.16846627253E+02  0.49924010493E+03  0.62868079485E+03  0.86057782506E+02 0.  0.
         11    1    3    3    0    0  0.43241736129E+02  0.10918904193E+03 -0.96730650195E+03  0.97440954600E+03  0.00000000000E+00 0. -1.
        -11    1    3    3    0    0  0.76863642788E+02  0.18428839393E+03 -0.91743716251E+03  0.93891489437E+03  0.00000000000E+00 0.  1.
          4    1    6    6  502    0  0.97197287698E+02  0.36925444091E+02  0.10513246672E+03  0.14786357468E+03  0.00000000000E+00 0. -1.
          1    1    5    5  503    0 -0.94957492957E+01 -0.57152094021E+01  0.34202568376E+02  0.35953422044E+02  0.00000000000E+00 0. -1.
         -2    1    5    5    0  503 -0.48250895560E+03 -0.30460885372E+03  0.56377641062E+03  0.80215041430E+03  0.00000000000E+00 0.  1.
         -3    1    6    6    0  502  0.27470203828E+03 -0.20078816838E+02  0.39410763821E+03  0.48081722017E+03  0.00000000000E+00 0.  1.
<mgrwt>
<rscale>  0 0.32870872E+04</rscale>
<asrwt>0</asrwt>
<pdfrwt beam="1">  1        2 0.32058720E+00 0.32870872E+04</pdfrwt>
<pdfrwt beam="2">  1       -2 0.19942958E+00 0.32870872E+04</pdfrwt>
<totfact> 0.67296842E-01</totfact>
</mgrwt>
</event>
<event>
12    1  0.1556559E-007  0.2858782E+04  0.7818608E-02  0.8285248E-01
          2   -1    0    0  501    0  0.00000000000E+00  0.00000000000E+00  0.27002910539E+04  0.27002910539E+04  0.00000000000E+00 0. -1.
         -2   -1    0    0    0  501 -0.00000000000E+00 -0.00000000000E+00 -0.75664379054E+03  0.75664379054E+03  0.00000000000E+00 0.  1.
         23    2    1    2    0    0 -0.65666960682E+03  0.96628570678E+03  0.15362319394E+04  0.19321745561E+04  0.91470781881E+02 0.  0.
        254    2    1    2    0    0  0.65666960682E+03 -0.96628570678E+03  0.40741532401E+03  0.15247602884E+04  0.89105760261E+03 0.  0.
        -24    2    4    4    0    0  0.31474437945E+01  0.13683052772E+03  0.14267587597E+03  0.21312918927E+03  0.79593630481E+02 0.  0.
         24    2    4    4    0    0  0.65352216302E+03 -0.11031162345E+04  0.26473944804E+03  0.13116310991E+04  0.79577135324E+02 0.  0.
         11    1    3    3    0    0 -0.29588956261E+03  0.49719971394E+03  0.80852287057E+03  0.99421698891E+03  0.00000000000E+00 0.  1.
        -11    1    3    3    0    0 -0.36078004421E+03  0.46908599283E+03  0.72770906880E+03  0.93795756716E+03  0.00000000000E+00 0. -1.
          4    1    6    6  502    0  0.59348193905E+03 -0.95615948003E+03  0.21969685760E+03  0.11466160964E+04  0.00000000000E+00 0. -1.
          3    1    5    5  503    0  0.12501284050E+02  0.94373841181E+02  0.14035254770E+03  0.16959228063E+03  0.00000000000E+00 0. -1.
         -4    1    5    5    0  503 -0.93538402560E+01  0.42456686541E+02  0.23233282728E+01  0.43536908639E+02  0.00000000000E+00 0.  1.
         -3    1    6    6    0  502  0.60040223976E+02 -0.14695675447E+03  0.45042590442E+02  0.16501500275E+03  0.00000000000E+00 0.  1.
<mgrwt>
<rscale>  0 0.28587819E+04</rscale>
<asrwt>0</asrwt>
<pdfrwt beam="1">  1        2 0.41542939E+00 0.28587819E+04</pdfrwt>
<pdfrwt beam="2">  1       -2 0.11640674E+00 0.28587819E+04</pdfrwt>
<totfact> 0.13152434E+00</totfact>
</mgrwt>
</event>
<event>
12    1  0.1556559E-007  0.2628583E+04  0.7818608E-02  0.8358557E-01
          2   -1    0    0  501    0  0.00000000000E+00  0.00000000000E+00  0.30538073127E+04  0.30538073127E+04  0.00000000000E+00 0. -1.
         -2   -1    0    0    0  501 -0.00000000000E+00 -0.00000000000E+00 -0.56564199396E+03  0.56564199396E+03  0.00000000000E+00 0.  1.
         23    2    1    2    0    0  0.27328112049E+03 -0.76973135426E+03  0.22241437698E+04  0.23711681817E+04  0.91946225758E+02 0.  0.
        254    2    1    2    0    0 -0.27328112049E+03  0.76973135426E+03  0.26402154896E+03  0.12482811250E+04  0.90627228812E+03 0.  0.
        -24    2    4    4    0    0 -0.53947655483E+03  0.24137382258E+03  0.33866261653E+01  0.59667788973E+03  0.81955838246E+02 0.  0.
         24    2    4    4    0    0  0.26619543434E+03  0.52835753168E+03  0.26063492279E+03  0.65160323529E+03  0.81452579536E+02 0.  0.
         13    1    3    3    0    0  0.50363783609E+02 -0.65316685399E+02  0.25286407915E+03  0.26597560530E+03  0.00000000000E+00 0.  1.
        -13    1    3    3    0    0  0.22291733688E+03 -0.70441466886E+03  0.19712796906E+04  0.21051925764E+04  0.00000000000E+00 0. -1.
          4    1    6    6  502    0  0.14855034726E+03  0.24090405877E+03  0.15995914789E+03  0.32509829313E+03  0.00000000000E+00 0. -1.
          3    1    5    5  503    0 -0.71711892535E+02  0.47729603975E+02  0.25785523181E+02  0.89919985722E+02  0.00000000000E+00 0. -1.
         -4    1    5    5    0  503 -0.46776466229E+03  0.19364421861E+03 -0.22398897016E+02  0.50675790401E+03  0.00000000000E+00 0.  1.
         -3    1    6    6    0  502  0.11764508708E+03  0.28745347290E+03  0.10067577490E+03  0.32650494216E+03  0.00000000000E+00 0.  1.
<mgrwt>
<rscale>  0 0.26285826E+04</rscale>
<asrwt>0</asrwt>
<pdfrwt beam="1">  1        2 0.46981650E+00 0.26285826E+04</pdfrwt>
<pdfrwt beam="2">  1       -2 0.87021847E-01 0.26285826E+04</pdfrwt>
<totfact> 0.16224946E+00</totfact>
</mgrwt>
</event>
<event>
12    1  0.1556559E-007  0.2808235E+04  0.7818608E-02  0.8300716E-01
          2   -1    0    0  501    0  0.00000000000E+00  0.00000000000E+00  0.14100666935E+04  0.14100666935E+04  0.00000000000E+00 0.  1.
         -2   -1    0    0    0  501 -0.00000000000E+00 -0.00000000000E+00 -0.13981932938E+04  0.13981932938E+04  0.00000000000E+00 0. -1.
         23    2    1    2    0    0  0.35556978110E+03  0.12047670772E+04 -0.86512055161E+02  0.12631299730E+04  0.10059529492E+03 0.  0.
        254    2    1    2    0    0 -0.35556978110E+03 -0.12047670772E+04  0.98385454872E+02  0.15451300143E+04  0.89434528209E+03 0.  0.
        -24    2    4    4    0    0 -0.64161603083E+03 -0.93300228132E+03  0.12358315069E+03  0.11418095427E+04  0.79321173784E+02 0.  0.
         24    2    4    4    0    0  0.28604624974E+03 -0.27176479592E+03 -0.25197695818E+02  0.40332047159E+03  0.79711464915E+02 0.  0.
         11    1    3    3    0    0  0.14878956419E+03  0.57025070125E+03  0.61069169880E+01  0.58937381272E+03  0.00000000000E+00 0. -1.
        -11    1    3    3    0    0  0.20678021691E+03  0.63451637600E+03 -0.92618972149E+02  0.67375616028E+03  0.00000000000E+00 0.  1.
          4    1    6    6  502    0  0.19375275493E+03 -0.13369460255E+03 -0.40184672066E+00  0.23540292750E+03  0.00000000000E+00 0. -1.
          3    1    5    5  503    0 -0.53527143019E+03 -0.72927659807E+03  0.82878063226E+02  0.90842095629E+03  0.00000000000E+00 0. -1.
         -4    1    5    5    0  503 -0.10634460064E+03 -0.20372568325E+03  0.40705087464E+02  0.23338858637E+03  0.00000000000E+00 0.  1.
         -3    1    6    6    0  502  0.92293494806E+02 -0.13807019337E+03 -0.24795849098E+02  0.16791754409E+03  0.00000000000E+00 0.  1.
<mgrwt>
<rscale>  0 0.28082349E+04</rscale>
<asrwt>0</asrwt>
<pdfrwt beam="1">  1        2 0.21693334E+00 0.28082349E+04</pdfrwt>
<pdfrwt beam="2">  1       -2 0.21510666E+00 0.28082349E+04</pdfrwt>
<totfact> 0.13186039E+00</totfact>
</mgrwt>
</event>
<event>
12    1  0.1556559E-007  0.2132953E+04  0.7818608E-02  0.8546865E-01
          1   -1    0    0  501    0  0.00000000000E+00  0.00000000000E+00  0.25356833778E+04  0.25356833778E+04  0.00000000000E+00 0. -1.
         -1   -1    0    0    0  501 -0.00000000000E+00 -0.00000000000E+00 -0.44854656586E+03  0.44854656586E+03  0.00000000000E+00 0.  1.
         23    2    1    2    0    0  0.45910145686E+03 -0.48389593997E+03  0.16431517981E+04  0.17747304989E+04  0.69217654076E+02 0.  0.
        254    2    1    2    0    0 -0.45910145686E+03  0.48389593997E+03  0.44398501385E+03  0.12094994448E+04  0.90600043379E+03 0.  0.
        -24    2    4    4    0    0 -0.33482925404E+03  0.21513857777E+03  0.70042908045E+03  0.80927657409E+03  0.77022332014E+02 0.  0.
         24    2    4    4    0    0 -0.12427220282E+03  0.26875736220E+03 -0.25644406660E+03  0.40022287070E+03  0.82101685762E+02 0.  0.
         11    1    3    3    0    0  0.32653523925E+03 -0.36110028797E+03  0.12703347263E+04  0.13604297106E+04  0.00000000000E+00 0.  1.
        -11    1    3    3    0    0  0.13256621761E+03 -0.12279565200E+03  0.37281707182E+03  0.41430078836E+03  0.00000000000E+00 0. -1.
          2    1    6    6  502    0 -0.23390585313E+02  0.75814352281E+02 -0.11805542548E+03  0.14223930181E+03  0.00000000000E+00 0. -1.
          1    1    5    5  503    0 -0.35679003808E+01  0.20884341197E+02  0.31661839698E+02  0.38096689008E+02  0.00000000000E+00 0. -1.
         -4    1    5    5    0  503 -0.33126135366E+03  0.19425423657E+03  0.66876724075E+03  0.77117988508E+03  0.00000000000E+00 0.  1.
         -1    1    6    6    0  502 -0.10088161751E+03  0.19294300992E+03 -0.13838864112E+03  0.25798356889E+03  0.00000000000E+00 0.  1.
<mgrwt>
<rscale>  0 0.21329529E+04</rscale>
<asrwt>0</asrwt>
<pdfrwt beam="1">  1        1 0.39010513E+00 0.21329529E+04</pdfrwt>
<pdfrwt beam="2">  1       -1 0.69007166E-01 0.21329529E+04</pdfrwt>
<totfact> 0.24935855E+00</totfact>
</mgrwt>
</event>
<event>
12    1  0.1556559E-007  0.2913822E+04  0.7818608E-02  0.8268777E-01
          1   -1    0    0  501    0  0.00000000000E+00  0.00000000000E+00  0.26694034231E+04  0.26694034231E+04  0.00000000000E+00 0. -1.
         -1   -1    0    0    0  501 -0.00000000000E+00 -0.00000000000E+00 -0.79515490864E+03  0.79515490864E+03  0.00000000000E+00 0.  1.
         23    2    1    2    0    0  0.91015108007E+03 -0.78680116675E+03  0.21472153896E+03  0.12255245254E+04  0.91509335171E+02 0.  0.
        254    2    1    2    0    0 -0.91015108007E+03  0.78680116675E+03  0.16595269755E+04  0.22390338064E+04  0.90100584855E+03 0.  0.
        -24    2    4    4    0    0 -0.10673274389E+04  0.54299924096E+03  0.12754232651E+04  0.17513150653E+04  0.79774151948E+02 0.  0.
         24    2    4    4    0    0  0.15717635882E+03  0.24380192579E+03  0.38410371040E+03  0.48771874107E+03  0.78677336351E+02 0.  0.
         11    1    3    3    0    0  0.33406810255E+03 -0.30941409402E+03  0.12357687545E+03  0.47181545425E+03  0.00000000000E+00 0. -1.
        -11    1    3    3    0    0  0.57608297752E+03 -0.47738707273E+03  0.91144663506E+02  0.75370907112E+03  0.00000000000E+00 0.  1.
          4    1    6    6  502    0  0.16187107341E+02 -0.11007191852E+01  0.10682974830E+02  0.19425755532E+02  0.00000000000E+00 0. -1.
          3    1    5    5  503    0 -0.22901987393E+03  0.15130817463E+03  0.31044423445E+03  0.41439098575E+03  0.00000000000E+00 0. -1.
         -4    1    5    5    0  503 -0.83830756496E+03  0.39169106633E+03  0.96497903066E+03  0.13369240796E+04  0.00000000000E+00 0.  1.
         -3    1    6    6    0  502  0.14098925148E+03  0.24490264497E+03  0.37342073557E+03  0.46829298554E+03  0.00000000000E+00 0.  1.
<mgrwt>
<rscale>  0 0.29138217E+04</rscale>
<asrwt>0</asrwt>
<pdfrwt beam="1">  1        1 0.41067745E+00 0.29138217E+04</pdfrwt>
<pdfrwt beam="2">  1       -1 0.12233153E+00 0.29138217E+04</pdfrwt>
<totfact> 0.52180346E-01</totfact>
</mgrwt>
</event>
<event>
12    1  0.1556559E-007  0.1777444E+04  0.7818608E-02  0.8718387E-01
          2   -1    0    0  501    0  0.00000000000E+00  0.00000000000E+00  0.20052405445E+04  0.20052405445E+04  0.00000000000E+00 0.  1.
         -2   -1    0    0    0  501 -0.00000000000E+00 -0.00000000000E+00 -0.39388132898E+03  0.39388132898E+03  0.00000000000E+00 0. -1.
         23    2    1    2    0    0  0.63194283190E+03  0.42296406390E+02  0.37353952526E+03  0.74108363344E+03  0.92371240348E+02 0.  0.
        254    2    1    2    0    0 -0.63194283190E+03 -0.42296406390E+02  0.12378196903E+04  0.16580382400E+04  0.90319017435E+03 0.  0.
        -24    2    4    4    0    0  0.20172596214E+03 -0.13580920631E+03  0.22754174068E+03  0.34256001722E+03  0.80216066519E+02 0.  0.
         24    2    4    4    0    0 -0.83366879404E+03  0.93512799919E+02  0.10102779496E+04  0.13154782228E+04  0.77930208369E+02 0.  0.
         11    1    3    3    0    0  0.20666718888E+03 -0.25038022375E+02  0.99825729032E+02  0.23087530336E+03  0.00000000000E+00 0. -1.
        -11    1    3    3    0    0  0.42527564302E+03  0.67334428765E+02  0.27371379623E+03  0.51020833009E+03  0.00000000000E+00 0.  1.
          2    1    6    6  502    0 -0.51460965717E+03  0.91973717900E+02  0.65284867996E+03  0.83635737754E+03  0.00000000000E+00 0. -1.
          3    1    5    5  503    0  0.16865395591E+03 -0.10204370849E+03  0.21878956835E+03  0.29449270026E+03  0.00000000000E+00 0. -1.
         -4    1    5    5    0  503  0.33072006231E+02 -0.33765497822E+02  0.87521723209E+01  0.48067316960E+02  0.00000000000E+00 0.  1.
         -1    1    6    6    0  502 -0.31905913687E+03  0.15390820191E+01  0.35742926963E+03  0.47912084528E+03  0.00000000000E+00 0.  1.
<mgrwt>
<rscale>  0 0.17774440E+04</rscale>
<asrwt>0</asrwt>
<pdfrwt beam="1">  1        2 0.30849854E+00 0.17774440E+04</pdfrwt>
<pdfrwt beam="2">  1       -2 0.60597129E-01 0.17774440E+04</pdfrwt>
<totfact> 0.15918684E+01</totfact>
</mgrwt>
</event>
<event>
12    1  0.1556559E-007  0.1911525E+04  0.7818608E-02  0.8649141E-01
         -1   -1    0    0    0  501 -0.00000000000E+00  0.00000000000E+00  0.66935736653E+03  0.66935736653E+03  0.00000000000E+00 0.  1.
          1   -1    0    0  501    0  0.00000000000E+00 -0.00000000000E+00 -0.13647141856E+04  0.13647141856E+04  0.00000000000E+00 0. -1.
         23    2    1    2    0    0 -0.52722007738E+03 -0.50088924672E+03 -0.39467342413E+03  0.83249683753E+03  0.91830415972E+02 0.  0.
        254    2    1    2    0    0  0.52722007738E+03  0.50088924672E+03 -0.30068339493E+03  0.12015747146E+04  0.90803097044E+03 0.  0.
        -24    2    4    4    0    0  0.43617312451E+03  0.11550409034E+03  0.24645557883E+03  0.52158940415E+03  0.87903155560E+02 0.  0.
         24    2    4    4    0    0  0.91046952877E+02  0.38538515638E+03 -0.54713897376E+03  0.67998531044E+03  0.78788954927E+02 0.  0.
         13    1    3    3    0    0 -0.52797838115E+03 -0.48617197331E+03 -0.38193861210E+03  0.81301996409E+03  0.00000000000E+00 0. -1.
        -13    1    3    3    0    0  0.75830376976E+00 -0.14717273413E+02 -0.12734812038E+02  0.19476873439E+02  0.00000000000E+00 0.  1.
          4    1    6    6  502    0  0.42399392632E+02  0.11797708584E+03 -0.11894272318E+03  0.17281108956E+03  0.00000000000E+00 0. -1.
          3    1    5    5  503    0  0.25367168526E+03  0.32294756971E+02  0.16931203469E+03  0.30669013731E+03  0.00000000000E+00 0. -1.
         -4    1    5    5    0  503  0.18250143924E+03  0.83209333373E+02  0.77143544143E+02  0.21489926684E+03  0.00000000000E+00 0.  1.
         -3    1    6    6    0  502  0.48647560245E+02  0.26740807054E+03 -0.42819625059E+03  0.50717422088E+03  0.00000000000E+00 0.  1.
<mgrwt>
<rscale>  0 0.19115245E+04</rscale>
<asrwt>0</asrwt>
<pdfrwt beam="1">  1        1 0.20995603E+00 0.19115245E+04</pdfrwt>
<pdfrwt beam="2">  1       -1 0.10297806E+00 0.19115245E+04</pdfrwt>
<totfact> 0.67739008E+00</totfact>
</mgrwt>
</event>
<event>
12    1  0.1556559E-007  0.1623400E+04  0.7818608E-02  0.8806300E-01
         -1   -1    0    0    0  501 -0.00000000000E+00  0.00000000000E+00  0.27809380274E+03  0.27809380274E+03  0.00000000000E+00 0.  1.
          1   -1    0    0  501    0  0.00000000000E+00 -0.00000000000E+00 -0.23691883365E+04  0.23691883365E+04  0.00000000000E+00 0. -1.
         23    2    1    2    0    0 -0.37928778508E+03 -0.34928004294E+03 -0.37108715246E+03  0.63982303594E+03  0.76236935212E+02 0.  0.
        254    2    1    2    0    0  0.37928778508E+03  0.34928004294E+03 -0.17200073813E+04  0.20074591033E+04  0.89755829191E+03 0.  0.
        -24    2    4    4    0    0  0.36924355016E+03  0.39569963719E+03 -0.38283255666E+03  0.66704718885E+03  0.73974208436E+02 0.  0.
         24    2    4    4    0    0  0.10044234922E+02 -0.46419594244E+02 -0.13371748247E+04  0.13404119145E+04  0.80074486190E+02 0.  0.
         11    1    3    3    0    0 -0.18048097889E+02 -0.43513554728E+01 -0.29008702368E+02  0.34440861559E+02  0.00000000000E+00 0. -1.
        -11    1    3    3    0    0 -0.36123968719E+03 -0.34492868747E+03 -0.34207845009E+03  0.60538217438E+03  0.00000000000E+00 0.  1.
          2    1    6    6  502    0 -0.15255922108E+01 -0.32109989111E+02 -0.12788294196E+04  0.12792333889E+04  0.00000000000E+00 0. -1.
          1    1    5    5  503    0  0.11080991628E+03  0.11017599810E+03 -0.71556794512E+02  0.17186611924E+03  0.00000000000E+00 0. -1.
         -2    1    5    5    0  503  0.25843363388E+03  0.28552363909E+03 -0.31127576215E+03  0.49518106961E+03  0.00000000000E+00 0.  1.
         -3    1    6    6    0  502  0.11569827133E+02 -0.14309605133E+02 -0.58345405119E+02  0.61178525623E+02  0.00000000000E+00 0.  1.
<mgrwt>
<rscale>  0 0.16233996E+04</rscale>
<asrwt>0</asrwt>
<pdfrwt beam="1">  1        1 0.36449052E+00 0.16233996E+04</pdfrwt>
<pdfrwt beam="2">  1       -1 0.42783662E-01 0.16233996E+04</pdfrwt>
<totfact> 0.86080928E+00</totfact>
</mgrwt>
</event>
<event>
12    1  0.1556559E-007  0.3233599E+04  0.7818608E-02  0.8180000E-01
         -1   -1    0    0    0  501 -0.00000000000E+00  0.00000000000E+00  0.11570496943E+04  0.11570496943E+04  0.00000000000E+00 0.  1.
          1   -1    0    0  501    0  0.00000000000E+00 -0.00000000000E+00 -0.22592291201E+04  0.22592291201E+04  0.00000000000E+00 0. -1.
         23    2    1    2    0    0  0.12768540726E+04  0.74698553390E+03 -0.33643298461E+03  0.15199118973E+04  0.92743257633E+02 0.  0.
        254    2    1    2    0    0 -0.12768540726E+04 -0.74698553390E+03 -0.76574644121E+03  0.18963669171E+04  0.90636425436E+03 0.  0.
        -24    2    4    4    0    0 -0.12705124335E+04 -0.66292342252E+03 -0.36772981066E+03  0.14817942037E+04  0.82580510483E+02 0.  0.
         24    2    4    4    0    0 -0.63416391230E+01 -0.84062111383E+02 -0.39801663055E+03  0.41457271344E+03  0.79665811869E+02 0.  0.
         13    1    3    3    0    0  0.11856696947E+04  0.71827497936E+03 -0.30657975310E+03  0.14197614996E+04  0.00000000000E+00 0.  1.
        -13    1    3    3    0    0  0.91184377905E+02  0.28710554538E+02 -0.29853231502E+02  0.10015039764E+03  0.00000000000E+00 0. -1.
          4    1    6    6  502    0  0.21223820347E+02 -0.45923845590E+01 -0.17283373416E+03  0.17419253775E+03  0.00000000000E+00 0. -1.
          3    1    5    5  503    0 -0.10764616675E+04 -0.59304310808E+03 -0.32305905646E+03  0.12707623710E+04  0.00000000000E+00 0. -1.
         -4    1    5    5    0  503 -0.19405076595E+03 -0.69880314441E+02 -0.44670754197E+02  0.21103183265E+03  0.00000000000E+00 0.  1.
         -3    1    6    6    0  502 -0.27565459470E+02 -0.79469726824E+02 -0.22518289639E+03  0.24038017569E+03  0.00000000000E+00 0.  1.
<mgrwt>
<rscale>  0 0.32335988E+04</rscale>
<asrwt>0</asrwt>
<pdfrwt beam="1">  1        1 0.34757371E+00 0.32335988E+04</pdfrwt>
<pdfrwt beam="2">  1       -1 0.17800764E+00 0.32335988E+04</pdfrwt>
<totfact> 0.35613491E-01</totfact>
</mgrwt>
</event>
<event>
12    1  0.1556559E-007  0.1734755E+04  0.7818608E-02  0.8741787E-01
          2   -1    0    0  501    0  0.00000000000E+00  0.00000000000E+00  0.79536471906E+03  0.79536471906E+03  0.00000000000E+00 0. -1.
         -2   -1    0    0    0  501 -0.00000000000E+00 -0.00000000000E+00 -0.94590986656E+03  0.94590986656E+03  0.00000000000E+00 0.  1.
         23    2    1    2    0    0  0.20755106297E+02 -0.63327184285E+03 -0.58188504515E+02  0.64287740589E+03  0.91877394229E+02 0.  0.
        254    2    1    2    0    0 -0.20755106297E+02  0.63327184285E+03 -0.92356642989E+02  0.10983971797E+04  0.89245874614E+03 0.  0.
        -24    2    4    4    0    0  0.15049981893E+03 -0.13327315885E+03 -0.20901242013E+03  0.30030196598E+03  0.77994542327E+02 0.  0.
         24    2    4    4    0    0 -0.17125492523E+03  0.76654500169E+03  0.11665577715E+03  0.79809521375E+03  0.80174252977E+02 0.  0.
         11    1    3    3    0    0  0.24288239306E+02 -0.34276991402E+03 -0.75547016610E+02  0.35183587686E+03  0.00000000000E+00 0. -1.
        -11    1    3    3    0    0 -0.35331330091E+01 -0.29050192882E+03  0.17358512095E+02  0.29104152903E+03  0.00000000000E+00 0.  1.
          2    1    6    6  502    0 -0.17565257708E+03  0.71412233024E+03  0.12105604966E+03  0.74530470114E+03  0.00000000000E+00 0. -1.
          1    1    5    5  503    0  0.11105837103E+03 -0.63891340514E+02 -0.16582660524E+03  0.20955793512E+03  0.00000000000E+00 0. -1.
         -2    1    5    5    0  503  0.39441447901E+02 -0.69381818331E+02 -0.43185814898E+02  0.90744030855E+02  0.00000000000E+00 0.  1.
         -1    1    6    6    0  502  0.43976518474E+01  0.52422671449E+02 -0.44002725120E+01  0.52790512612E+02  0.00000000000E+00 0.  1.
<mgrwt>
<rscale>  0 0.17347545E+04</rscale>
<asrwt>0</asrwt>
<pdfrwt beam="1">  1        2 0.12236380E+00 0.17347545E+04</pdfrwt>
<pdfrwt beam="2">  1       -2 0.14552459E+00 0.17347545E+04</pdfrwt>
<totfact> 0.10688479E+01</totfact>
</mgrwt>
</event>
<event>
12    1  0.1556559E-007  0.1692950E+04  0.7818608E-02  0.8765396E-01
          1   -1    0    0  501    0  0.00000000000E+00  0.00000000000E+00  0.46198936375E+03  0.46198936375E+03  0.00000000000E+00 0. -1.
         -1   -1    0    0    0  501 -0.00000000000E+00 -0.00000000000E+00 -0.15509438884E+04  0.15509438884E+04  0.00000000000E+00 0.  1.
         23    2    1    2    0    0 -0.28702261799E+03 -0.19086454664E+03  0.19693254601E+03  0.40702992604E+03  0.89887010240E+02 0.  0.
        254    2    1    2    0    0  0.28702261799E+03  0.19086454664E+03 -0.12858870706E+04  0.16059033261E+04  0.89811395485E+03 0.  0.
        -24    2    4    4    0    0  0.45395506671E+02  0.12433906622E+03  0.10688564748E+03  0.18869714063E+03  0.81615646982E+02 0.  0.
         24    2    4    4    0    0  0.24162711132E+03  0.66525480423E+02 -0.13927727181E+04  0.14172061854E+04  0.76473703280E+02 0.  0.
         13    1    3    3    0    0 -0.12335650627E+03 -0.12816440817E+03  0.72533383137E+02  0.19210422908E+03  0.00000000000E+00 0. -1.
        -13    1    3    3    0    0 -0.16366611172E+03 -0.62700138473E+02  0.12439916288E+03  0.21492569696E+03  0.00000000000E+00 0.  1.
          2    1    6    6  502    0  0.24973106049E+02  0.31901577607E+02 -0.15922112028E+03  0.16429464941E+03  0.00000000000E+00 0. -1.
          1    1    5    5  503    0  0.10016736908E+02  0.45104657512E+02 -0.56979070598E+01  0.46553531471E+02  0.00000000000E+00 0. -1.
         -2    1    5    5    0  503  0.35378769763E+02  0.79234408705E+02  0.11258355454E+03  0.14214360916E+03  0.00000000000E+00 0.  1.
         -1    1    6    6    0  502  0.21665400527E+03  0.34623902815E+02 -0.12335515978E+04  0.12529115360E+04  0.00000000000E+00 0.  1.
<mgrwt>
<rscale>  0 0.16929496E+04</rscale>
<asrwt>0</asrwt>
<pdfrwt beam="1">  1        1 0.71075286E-01 0.16929496E+04</pdfrwt>
<pdfrwt beam="2">  1       -1 0.23860675E+00 0.16929496E+04</pdfrwt>
<totfact> 0.38954999E+00</totfact>
</mgrwt>
</event>
<event>
12    1  0.1556559E-007  0.1240213E+04  0.7818608E-02  0.9078368E-01
          1   -1    0    0  501    0  0.00000000000E+00  0.00000000000E+00  0.15813227640E+04  0.15813227640E+04  0.00000000000E+00 0.  1.
         -1   -1    0    0    0  501 -0.00000000000E+00 -0.00000000000E+00 -0.24317127533E+03  0.24317127533E+03  0.00000000000E+00 0. -1.
         23    2    1    2    0    0 -0.87557578747E+02 -0.40234804237E+01  0.62461166997E+03  0.63730319918E+03  0.91285877553E+02 0.  0.
        254    2    1    2    0    0  0.87557578747E+02  0.40234804237E+01  0.71353981873E+03  0.11871908402E+04  0.94477537017E+03 0.  0.
        -24    2    4    4    0    0  0.31661729358E+03  0.11433846476E+03 -0.75713418995E+02  0.35421799317E+03  0.80112856324E+02 0.  0.
         24    2    4    4    0    0 -0.22905971484E+03 -0.11031498433E+03  0.78925323773E+03  0.83297284701E+03  0.79280147945E+02 0.  0.
         13    1    3    3    0    0 -0.38501981741E+02 -0.46662144630E+02  0.34243751893E+03  0.34774015114E+03  0.00000000000E+00 0. -1.
        -13    1    3    3    0    0 -0.49055597006E+02  0.42638664206E+02  0.28217415103E+03  0.28956304805E+03  0.00000000000E+00 0.  1.
          2    1    6    6  502    0 -0.14676769021E+03 -0.46109585421E+02  0.56584487288E+03  0.58638491533E+03  0.00000000000E+00 0. -1.
          1    1    5    5  503    0  0.29424770387E+03  0.80335023185E+02 -0.61888565164E+02  0.31123242389E+03  0.00000000000E+00 0. -1.
         -2    1    5    5    0  503  0.22369589717E+02  0.34003441572E+02 -0.13824853832E+02  0.42985569280E+02  0.00000000000E+00 0.  1.
         -1    1    6    6    0  502 -0.82292024630E+02 -0.64205398913E+02  0.22340836484E+03  0.24658793168E+03  0.00000000000E+00 0.  1.
<mgrwt>
<rscale>  0 0.12402133E+04</rscale>
<asrwt>0</asrwt>
<pdfrwt beam="1">  1        1 0.24328042E+00 0.12402133E+04</pdfrwt>
<pdfrwt beam="2">  1       -1 0.37410966E-01 0.12402133E+04</pdfrwt>
<totfact> 0.39028383E+01</totfact>
</mgrwt>
</event>
<event>
12    1  0.1556559E-007  0.2488409E+04  0.7818608E-02  0.8407126E-01
         -2   -1    0    0    0  501 -0.00000000000E+00  0.00000000000E+00  0.13667038990E+04  0.13667038990E+04  0.00000000000E+00 0.  1.
          2   -1    0    0  501    0  0.00000000000E+00 -0.00000000000E+00 -0.11326852585E+04  0.11326852585E+04  0.00000000000E+00 0. -1.
         23    2    1    2    0    0  0.46825544728E+03 -0.32814277935E+03  0.10208620829E+04  0.11737456776E+04  0.92621141337E+02 0.  0.
        254    2    1    2    0    0 -0.46825544728E+03  0.32814277935E+03 -0.78684344238E+03  0.13256434799E+04  0.90070371673E+03 0.  0.
        -24    2    4    4    0    0  0.11777554261E+03 -0.23010940643E+02 -0.59348872690E+03  0.61117361896E+03  0.83088758139E+02 0.  0.
         24    2    4    4    0    0 -0.58603098990E+03  0.35115371999E+03 -0.19335471549E+03  0.71446986091E+03  0.79623363162E+02 0.  0.
         13    1    3    3    0    0  0.23556545301E+03 -0.20123691311E+03  0.62136903863E+03  0.69432475112E+03  0.00000000000E+00 0.  1.
        -13    1    3    3    0    0  0.23268999428E+03 -0.12690586624E+03  0.39949304423E+03  0.47942092645E+03  0.00000000000E+00 0. -1.
          4    1    6    6  502    0 -0.45198591371E+03  0.23365269347E+03 -0.12848823113E+03  0.52478002334E+03  0.00000000000E+00 0. -1.
          1    1    5    5  503    0  0.50571477768E+02 -0.11081662717E+02 -0.44196103283E+03  0.44498295715E+03  0.00000000000E+00 0. -1.
         -2    1    5    5    0  503  0.67204064842E+02 -0.11929277927E+02 -0.15152769406E+03  0.16619066181E+03  0.00000000000E+00 0.  1.
         -3    1    6    6    0  502 -0.13404507619E+03  0.11750102652E+03 -0.64866484360E+02  0.18968983757E+03  0.00000000000E+00 0.  1.
<mgrwt>
<rscale>  0 0.24884094E+04</rscale>
<asrwt>0</asrwt>
<pdfrwt beam="1">  1        2 0.17425927E+00 0.24884094E+04</pdfrwt>
<pdfrwt beam="2">  1       -2 0.21026214E+00 0.24884094E+04</pdfrwt>
<totfact> 0.21180334E+00</totfact>
</mgrwt>
</event>
<event>
12    1  0.1556559E-007  0.1940656E+04  0.7818608E-02  0.8634880E-01
         -2   -1    0    0    0  501 -0.00000000000E+00  0.00000000000E+00  0.33339350933E+03  0.33339350933E+03  0.00000000000E+00 0. -1.
          2   -1    0    0  501    0  0.00000000000E+00 -0.00000000000E+00 -0.28240990741E+04  0.28240990741E+04  0.00000000000E+00 0.  1.
         23    2    1    2    0    0  0.25438500010E+03 -0.51496925025E+03 -0.16730284010E+03  0.60556016065E+03  0.93849938073E+02 0.  0.
        254    2    1    2    0    0 -0.25438500010E+03  0.51496925025E+03 -0.23234027247E+04  0.25519324228E+04  0.88558105922E+03 0.  0.
        -24    2    4    4    0    0  0.23145359515E+03  0.39652045114E+03 -0.62488992618E+03  0.77970370708E+03  0.81554988263E+02 0.  0.
         24    2    4    4    0    0 -0.48583859525E+03  0.11844879911E+03 -0.16985127985E+04  0.17722287157E+04  0.76023913854E+02 0.  0.
         13    1    3    3    0    0  0.59734911629E+02 -0.73361226526E+02 -0.57210733191E+02  0.11055856917E+03  0.00000000000E+00 0.  1.
        -13    1    3    3    0    0  0.19465008847E+03 -0.44160802372E+03 -0.11009210691E+03  0.49500159147E+03  0.00000000000E+00 0. -1.
          4    1    6    6  502    0 -0.22797792242E+03  0.46182108345E+02 -0.91975883708E+03  0.94871652174E+03  0.00000000000E+00 0. -1.
          3    1    5    5  503    0  0.69287151634E+02  0.12814511263E+03 -0.13855403572E+03  0.20104502005E+03  0.00000000000E+00 0. -1.
         -4    1    5    5    0  503  0.16216644351E+03  0.26837533851E+03 -0.48633589046E+03  0.57865868703E+03  0.00000000000E+00 0.  1.
         -3    1    6    6    0  502 -0.25786067283E+03  0.72266690764E+02 -0.77875396141E+03  0.82351219396E+03  0.00000000000E+00 0.  1.
<mgrwt>
<rscale>  0 0.19406559E+04</rscale>
<asrwt>0</asrwt>
<pdfrwt beam="1">  1        2 0.43447677E+00 0.19406559E+04</pdfrwt>
<pdfrwt beam="2">  1       -2 0.51291310E-01 0.19406559E+04</pdfrwt>
<totfact> 0.75108214E+00</totfact>
</mgrwt>
</event>
<event>
12    1  0.1556559E-007  0.1906561E+04  0.7818608E-02  0.8651598E-01
         -2   -1    0    0    0  501 -0.00000000000E+00  0.00000000000E+00  0.39450718457E+03  0.39450718457E+03  0.00000000000E+00 0.  1.
          2   -1    0    0  501    0  0.00000000000E+00 -0.00000000000E+00 -0.23034897889E+04  0.23034897889E+04  0.00000000000E+00 0. -1.
         23    2    1    2    0    0 -0.50192614954E+03 -0.16448589187E+03 -0.25981404497E+02  0.54386903340E+03  0.12701584111E+03 0.  0.
        254    2    1    2    0    0  0.50192614954E+03  0.16448589187E+03 -0.18830011999E+04  0.21541279401E+04  0.90309921683E+03 0.  0.
        -24    2    4    4    0    0 -0.25493072646E+03  0.32238744841E+02 -0.40698343705E+03  0.48814248511E+03  0.81354506778E+02 0.  0.
         24    2    4    4    0    0  0.75685687600E+03  0.13224714703E+03 -0.14760177628E+04  0.16659854550E+04  0.80978154216E+02 0.  0.
         13    1    3    3    0    0 -0.41676896107E+03 -0.10999628904E+03  0.22747588996E+02  0.43163990005E+03  0.00000000000E+00 0.  1.
        -13    1    3    3    0    0 -0.85157188473E+02 -0.54489602824E+02 -0.48728993493E+02  0.11222913334E+03  0.00000000000E+00 0. -1.
          4    1    6    6  502    0  0.59258186223E+02 -0.66922120179E+01 -0.14600546216E+03  0.15771465790E+03  0.00000000000E+00 0. -1.
          3    1    5    5  503    0 -0.16442074569E+03 -0.17712961003E+02 -0.26822839741E+03  0.31511014547E+03  0.00000000000E+00 0. -1.
         -4    1    5    5    0  503 -0.90509980772E+02  0.49951705844E+02 -0.13875503965E+03  0.17303233965E+03  0.00000000000E+00 0.  1.
         -3    1    6    6    0  502  0.69759868978E+03  0.13893935904E+03 -0.13300123007E+04  0.15082707971E+04  0.00000000000E+00 0.  1.
<mgrwt>
<rscale>  0 0.19065605E+04</rscale>
<asrwt>0</asrwt>
<pdfrwt beam="1">  1        2 0.35438304E+00 0.19065605E+04</pdfrwt>
<pdfrwt beam="2">  1       -2 0.60693413E-01 0.19065605E+04</pdfrwt>
<totfact> 0.10681152E+01</totfact>
</mgrwt>
</event>
<event>
12    1  0.1556559E-007  0.2311578E+04  0.7818608E-02  0.8473370E-01
         -1   -1    0    0    0  501 -0.00000000000E+00  0.00000000000E+00  0.11665171209E+04  0.11665171209E+04  0.00000000000E+00 0.  1.
          1   -1    0    0  501    0  0.00000000000E+00 -0.00000000000E+00 -0.11451599514E+04  0.11451599514E+04  0.00000000000E+00 0. -1.
         23    2    1    2    0    0 -0.32322412779E+03  0.91027017465E+03  0.15789198340E+03  0.98298928645E+03  0.90952906557E+02 0.  0.
        254    2    1    2    0    0  0.32322412779E+03 -0.91027017465E+03 -0.13653481391E+03  0.13286877859E+04  0.90205534718E+03 0.  0.
        -24    2    4    4    0    0 -0.22962621711E+03 -0.37365321411E+03 -0.29955351164E+03  0.53717573003E+03  0.80501767646E+02 0.  0.
         24    2    4    4    0    0  0.55285034490E+03 -0.53661696054E+03  0.16301869773E+03  0.79151205588E+03  0.79466801933E+02 0.  0.
         11    1    3    3    0    0 -0.25758501620E+03  0.69532222179E+03  0.83188508650E+02  0.74615237094E+03  0.00000000000E+00 0. -1.
        -11    1    3    3    0    0 -0.65639111583E+02  0.21494795285E+03  0.74703474752E+02  0.23683691550E+03  0.00000000000E+00 0.  1.
          4    1    6    6  502    0  0.30157533231E+02 -0.35285500747E+02  0.29661086651E+02  0.55084693290E+02  0.00000000000E+00 0. -1.
          3    1    5    5  503    0 -0.19563834892E+02 -0.92083584263E+02 -0.73510511288E+02  0.11944004938E+03  0.00000000000E+00 0. -1.
         -4    1    5    5    0  503 -0.21006238222E+03 -0.28156962984E+03 -0.22604300035E+03  0.41773568064E+03  0.00000000000E+00 0.  1.
         -3    1    6    6    0  502  0.52269281167E+03 -0.50133145979E+03  0.13335761108E+03  0.73642736259E+03  0.00000000000E+00 0.  1.
<mgrwt>
<rscale>  0 0.23115784E+04</rscale>
<asrwt>0</asrwt>
<pdfrwt beam="1">  1        1 0.17617845E+00 0.23115784E+04</pdfrwt>
<pdfrwt beam="2">  1       -1 0.17946417E+00 0.23115784E+04</pdfrwt>
<totfact> 0.22238814E+00</totfact>
</mgrwt>
</event>
<event>
12    1  0.1556559E-007  0.1664625E+04  0.7818608E-02  0.8781801E-01
          1   -1    0    0  501    0  0.00000000000E+00  0.00000000000E+00  0.41154903112E+03  0.41154903112E+03  0.00000000000E+00 0. -1.
         -1   -1    0    0    0  501 -0.00000000000E+00 -0.00000000000E+00 -0.16832597190E+04  0.16832597190E+04  0.00000000000E+00 0.  1.
         23    2    1    2    0    0 -0.55669209355E+03 -0.14920923428E+02 -0.35349014325E+03  0.66538734295E+03  0.87500364640E+02 0.  0.
        254    2    1    2    0    0  0.55669209355E+03  0.14920923428E+02 -0.91822054459E+03  0.14294214071E+04  0.94339168412E+03 0.  0.
        -24    2    4    4    0    0  0.40029620001E+03  0.31762987855E+03 -0.94582131727E+03  0.10783099616E+04  0.83956070125E+02 0.  0.
         24    2    4    4    0    0  0.15639589354E+03 -0.30270895512E+03  0.27600772677E+02  0.35111144548E+03  0.80156456187E+02 0.  0.
         13    1    3    3    0    0 -0.39488940742E+03  0.57780585075E+01 -0.20578475841E+03  0.44532953736E+03  0.00000000000E+00 0. -1.
        -13    1    3    3    0    0 -0.16180268613E+03 -0.20698981936E+02 -0.14770538484E+03  0.22005780559E+03  0.00000000000E+00 0.  1.
          2    1    6    6  502    0  0.13316238588E+02  0.17929483213E+01 -0.88636255542E+00  0.13465604791E+02  0.00000000000E+00 0. -1.
          1    1    5    5  503    0  0.75006359247E+02  0.26327242267E+02 -0.11616883410E+03  0.14076318989E+03  0.00000000000E+00 0. -1.
         -4    1    5    5    0  503  0.32528984076E+03  0.29130263628E+03 -0.82965248317E+03  0.93754677176E+03  0.00000000000E+00 0.  1.
         -1    1    6    6    0  502  0.14307965495E+03 -0.30450190344E+03  0.28487135233E+02  0.33764584069E+03  0.00000000000E+00 0.  1.
<mgrwt>
<rscale>  0 0.16646248E+04</rscale>
<asrwt>0</asrwt>
<pdfrwt beam="1">  1        1 0.63315235E-01 0.16646248E+04</pdfrwt>
<pdfrwt beam="2">  1       -1 0.25896303E+00 0.16646248E+04</pdfrwt>
<totfact> 0.33608554E+00</totfact>
</mgrwt>
</event>
<event>
12    1  0.1556559E-007  0.1612215E+04  0.7818608E-02  0.8813079E-01
          2   -1    0    0  501    0  0.00000000000E+00  0.00000000000E+00  0.20892348701E+04  0.20892348701E+04  0.00000000000E+00 0. -1.
         -2   -1    0    0    0  501 -0.00000000000E+00 -0.00000000000E+00 -0.31102722182E+03  0.31102722182E+03  0.00000000000E+00 0.  1.
         23    2    1    2    0    0  0.48847184210E+03 -0.95613857826E+02  0.31989824446E+03  0.59715233520E+03  0.80680073672E+02 0.  0.
        254    2    1    2    0    0 -0.48847184210E+03  0.95613857826E+02  0.14583094038E+04  0.18031097567E+04  0.93637157536E+03 0.  0.
        -24    2    4    4    0    0 -0.54985921305E+03  0.18409616766E+03  0.34010287275E+03  0.67690669645E+03  0.79348336666E+02 0.  0.
         24    2    4    4    0    0  0.61387370944E+02 -0.88482309834E+02  0.11182065311E+04  0.11262030603E+04  0.79686625810E+02 0.  0.
         11    1    3    3    0    0  0.17464493366E+01 -0.49906265809E+01 -0.29918763832E+01  0.60751759849E+01  0.00000000000E+00 0.  1.
        -11    1    3    3    0    0  0.48672539277E+03 -0.90623231246E+02  0.32289012084E+03  0.59107715922E+03  0.00000000000E+00 0. -1.
          2    1    6    6  502    0  0.51802465451E+02 -0.21665975316E+02  0.73130316272E+03  0.73345567400E+03  0.00000000000E+00 0. -1.
          1    1    5    5  503    0 -0.43638191519E+03  0.11526032030E+03  0.24432554999E+03  0.51323395417E+03  0.00000000000E+00 0. -1.
         -2    1    5    5    0  503 -0.11347729786E+03  0.68835847356E+02  0.95777322753E+02  0.16367274228E+03  0.00000000000E+00 0.  1.
         -1    1    6    6    0  502  0.95849054929E+01 -0.66816334518E+02  0.38690336836E+03  0.39274738627E+03  0.00000000000E+00 0.  1.
<mgrwt>
<rscale>  0 0.16122145E+04</rscale>
<asrwt>0</asrwt>
<pdfrwt beam="1">  1        2 0.32142074E+00 0.16122145E+04</pdfrwt>
<pdfrwt beam="2">  1       -2 0.47850343E-01 0.16122145E+04</pdfrwt>
<totfact> 0.23629883E+01</totfact>
</mgrwt>
</event>
<event>
12    1  0.1556559E-007  0.1863531E+04  0.7818608E-02  0.8673225E-01
          2   -1    0    0  501    0  0.00000000000E+00  0.00000000000E+00  0.22324005794E+04  0.22324005794E+04  0.00000000000E+00 0.  1.
         -2   -1    0    0    0  501 -0.00000000000E+00 -0.00000000000E+00 -0.38890270718E+03  0.38890270718E+03  0.00000000000E+00 0. -1.
         23    2    1    2    0    0 -0.26624233348E+03 -0.30395633505E+03 -0.11352142098E+03  0.42962808417E+03  0.91753713447E+02 0.  0.
        254    2    1    2    0    0  0.26624233348E+03  0.30395633505E+03  0.19570192932E+04  0.21916752024E+04  0.90013401507E+03 0.  0.
        -24    2    4    4    0    0 -0.10459241316E+03 -0.91232106306E+02  0.14043651298E+04  0.14134238875E+04  0.79137840170E+02 0.  0.
         24    2    4    4    0    0  0.37083474664E+03  0.39518844136E+03  0.55265416341E+03  0.77825131494E+03  0.80970188169E+02 0.  0.
         13    1    3    3    0    0 -0.13865224154E+03 -0.14522995144E+03 -0.96565330328E+01  0.20102097281E+03  0.00000000000E+00 0.  1.
        -13    1    3    3    0    0 -0.12759009194E+03 -0.15872638361E+03 -0.10386488795E+03  0.22860711136E+03  0.00000000000E+00 0. -1.
          2    1    6    6  502    0  0.14094118245E+03  0.20666460493E+03  0.23614754021E+03  0.34400630312E+03  0.00000000000E+00 0. -1.
          3    1    5    5  503    0 -0.71911300767E+02 -0.10006143933E+03  0.98122910093E+03  0.98893582974E+03  0.00000000000E+00 0. -1.
         -4    1    5    5    0  503 -0.32681112398E+02  0.88293330230E+01  0.42313602885E+03  0.42448805771E+03  0.00000000000E+00 0.  1.
         -1    1    6    6    0  502  0.22989356419E+03  0.18852383643E+03  0.31650662321E+03  0.43424501183E+03  0.00000000000E+00 0.  1.
<mgrwt>
<rscale>  0 0.18635307E+04</rscale>
<asrwt>0</asrwt>
<pdfrwt beam="1">  1        2 0.34344624E+00 0.18635307E+04</pdfrwt>
<pdfrwt beam="2">  1       -2 0.59831187E-01 0.18635307E+04</pdfrwt>
<totfact> 0.12119734E+01</totfact>
</mgrwt>
</event>
<event>
12    1  0.1556559E-007  0.3481870E+04  0.7818608E-02  0.8118100E-01
          2   -1    0    0  501    0  0.00000000000E+00  0.00000000000E+00  0.11410018265E+04  0.11410018265E+04  0.00000000000E+00 0. -1.
         -2   -1    0    0    0  501 -0.00000000000E+00 -0.00000000000E+00 -0.26563096514E+04  0.26563096514E+04  0.00000000000E+00 0.  1.
         23    2    1    2    0    0  0.13380046149E+04  0.59881047173E+03 -0.14634491715E+04  0.20732930705E+04  0.89612208715E+02 0.  0.
        254    2    1    2    0    0 -0.13380046149E+04 -0.59881047173E+03 -0.51858653285E+02  0.17240184074E+04  0.90593588007E+03 0.  0.
        -24    2    4    4    0    0 -0.93316611542E+03 -0.43787685819E+03  0.38382685784E+03  0.11028445225E+04  0.80048997629E+02 0.  0.
         24    2    4    4    0    0 -0.40483849944E+03 -0.16093361354E+03 -0.43568551112E+03  0.62117388496E+03  0.79001849137E+02 0.  0.
         13    1    3    3    0    0  0.13391776576E+04  0.59810134765E+03 -0.14595349816E+04  0.20691458101E+04  0.00000000000E+00 0.  1.
        -13    1    3    3    0    0 -0.11730427485E+01  0.70912408216E+00 -0.39141899159E+01  0.41472604152E+01  0.00000000000E+00 0. -1.
          4    1    6    6  502    0 -0.35605214156E+03 -0.16528624843E+03 -0.40101600480E+03  0.56116531213E+03  0.00000000000E+00 0. -1.
          1    1    5    5  503    0 -0.88599555519E+03 -0.40313189634E+03  0.37703206766E+03  0.10438661934E+04  0.00000000000E+00 0. -1.
         -2    1    5    5    0  503 -0.47170560231E+02 -0.34744961846E+02  0.67947901747E+01  0.58978329069E+02  0.00000000000E+00 0.  1.
         -3    1    6    6    0  502 -0.48786357875E+02  0.43526348908E+01 -0.34669506324E+02  0.60008572837E+02  0.00000000000E+00 0.  1.
<mgrwt>
<rscale>  0 0.34818697E+04</rscale>
<asrwt>0</asrwt>
<pdfrwt beam="1">  1        2 0.17553874E+00 0.34818697E+04</pdfrwt>
<pdfrwt beam="2">  1       -2 0.40866302E+00 0.34818697E+04</pdfrwt>
<totfact> 0.11008088E-01</totfact>
</mgrwt>
</event>
<event>
12    1  0.1556559E-007  0.1358341E+04  0.7818608E-02  0.8984538E-01
         -1   -1    0    0    0  501 -0.00000000000E+00  0.00000000000E+00  0.10149908423E+04  0.10149908423E+04  0.00000000000E+00 0.  1.
          1   -1    0    0  501    0  0.00000000000E+00 -0.00000000000E+00 -0.45446001223E+03  0.45446001223E+03  0.00000000000E+00 0. -1.
         23    2    1    2    0    0  0.77708185193E+02 -0.12443766708E+03 -0.21302440746E+03  0.27428204280E+03  0.91257579386E+02 0.  0.
        254    2    1    2    0    0 -0.77708185193E+02  0.12443766708E+03  0.77355523753E+03  0.11951688117E+04  0.89917600501E+03 0.  0.
        -24    2    4    4    0    0  0.21619561843E+03 -0.25971869749E+03  0.96229580007E+02  0.35902732561E+03  0.73797975656E+02 0.  0.
         24    2    4    4    0    0 -0.29390380362E+03  0.38415636457E+03  0.67732565752E+03  0.83614148612E+03  0.80043614671E+02 0.  0.
         13    1    3    3    0    0  0.67672935805E+02 -0.13919706002E+03 -0.18734606103E+03  0.24301027621E+03  0.00000000000E+00 0. -1.
        -13    1    3    3    0    0  0.10035249387E+02  0.14759392945E+02 -0.25678346432E+02  0.31271766593E+02  0.00000000000E+00 0.  1.
          2    1    6    6  502    0 -0.20257011411E+02  0.34184389830E+02  0.25134223226E+02  0.47017530736E+02  0.00000000000E+00 0. -1.
          3    1    5    5  503    0  0.60445516520E+02 -0.12383521932E+03  0.54364308428E+02  0.14813608622E+03  0.00000000000E+00 0. -1.
         -4    1    5    5    0  503  0.15575010191E+03 -0.13588347818E+03  0.41865271579E+02  0.21089123939E+03  0.00000000000E+00 0.  1.
         -1    1    6    6    0  502 -0.27364679221E+03  0.34997197474E+03  0.65219143430E+03  0.78912395538E+03  0.00000000000E+00 0.  1.
<mgrwt>
<rscale>  0 0.13583413E+04</rscale>
<asrwt>0</asrwt>
<pdfrwt beam="1">  1        1 0.69916925E-01 0.13583413E+04</pdfrwt>
<pdfrwt beam="2">  1       -1 0.15615244E+00 0.13583413E+04</pdfrwt>
<totfact> 0.15453287E+01</totfact>
</mgrwt>
</event>
<event>
12    1  0.1556559E-007  0.1822403E+04  0.7818608E-02  0.8694476E-01
         -2   -1    0    0    0  501 -0.00000000000E+00  0.00000000000E+00  0.32550001508E+03  0.32550001508E+03  0.00000000000E+00 0.  1.
          2   -1    0    0  501    0  0.00000000000E+00 -0.00000000000E+00 -0.25508096032E+04  0.25508096032E+04  0.00000000000E+00 0. -1.
         23    2    1    2    0    0 -0.16169245764E+03 -0.32309302585E+03 -0.17591677964E+04  0.17981626342E+04  0.90465291728E+02 0.  0.
        254    2    1    2    0    0  0.16169245764E+03  0.32309302585E+03 -0.46614179167E+03  0.10781469840E+04  0.90254041184E+03 0.  0.
        -24    2    4    4    0    0  0.69785381882E+02  0.22971500978E+03  0.24442913596E+03  0.35112309924E+03  0.76829962078E+02 0.  0.
         24    2    4    4    0    0  0.91907075755E+02  0.93378016067E+02 -0.71057092763E+03  0.72702388478E+03  0.80537701644E+02 0.  0.
         13    1    3    3    0    0 -0.61417149769E+02 -0.11172824788E+03 -0.42770956996E+03  0.44630790257E+03  0.00000000000E+00 0.  1.
        -13    1    3    3    0    0 -0.10027530787E+03 -0.21136477797E+03 -0.13314582264E+04  0.13518547317E+04  0.00000000000E+00 0. -1.
          4    1    6    6  502    0  0.10971040866E+02  0.46954646860E+02 -0.39547290705E+03  0.39840171035E+03  0.00000000000E+00 0. -1.
          3    1    5    5  503    0  0.42293625321E+02  0.80277752279E+02  0.47587905234E+02  0.10245914785E+03  0.00000000000E+00 0. -1.
         -4    1    5    5    0  503  0.27491756561E+02  0.14943725750E+03  0.19684123072E+03  0.24866395139E+03  0.00000000000E+00 0.  1.
         -3    1    6    6    0  502  0.80936034889E+02  0.46423369207E+02 -0.31509802058E+03  0.32862217443E+03  0.00000000000E+00 0.  1.
<mgrwt>
<rscale>  0 0.18224034E+04</rscale>
<asrwt>0</asrwt>
<pdfrwt beam="1">  1        2 0.39243224E+00 0.18224034E+04</pdfrwt>
<pdfrwt beam="2">  1       -2 0.50076926E-01 0.18224034E+04</pdfrwt>
<totfact> 0.11575694E+01</totfact>
</mgrwt>
</event>
<event>
12    1  0.1729343E-007  0.2002690E+04  0.7818608E-02  0.8605364E-01
         -2   -1    0    0    0  501 -0.00000000000E+00  0.00000000000E+00  0.61096272718E+03  0.61096272718E+03  0.00000000000E+00 0.  1.
          2   -1    0    0  501    0  0.00000000000E+00 -0.00000000000E+00 -0.16411666010E+04  0.16411666010E+04  0.00000000000E+00 0. -1.
         23    2    1    2    0    0  0.26080302836E+03  0.17156358239E+03 -0.12304434527E+04  0.12725953803E+04  0.89753157583E+02 0.  0.
        254    2    1    2    0    0 -0.26080302836E+03 -0.17156358239E+03  0.20023957892E+03  0.97953394782E+03  0.90660828563E+03 0.  0.
        -24    2    4    4    0    0 -0.34895529119E+03  0.23072324610E+03 -0.13169359070E+03  0.44509827486E+03  0.75935900022E+02 0.  0.
         24    2    4    4    0    0  0.88152262833E+02 -0.40228682849E+03  0.33193316961E+03  0.53443567296E+03  0.76395979155E+02 0.  0.
         13    1    3    3    0    0  0.25332241679E+03  0.15707556702E+03 -0.12113698613E+04  0.12475022732E+04  0.00000000000E+00 0. -1.
        -13    1    3    3    0    0  0.74806115702E+01  0.14488015366E+02 -0.19073591367E+02  0.25093107149E+02  0.00000000000E+00 0.  1.
          4    1    6    6  502    0  0.18318289585E+02 -0.21201645758E+02  0.42181972217E+02  0.50639789655E+02  0.00000000000E+00 0. -1.
          1    1    5    5  503    0 -0.82009714777E+01 -0.60812001922E+01 -0.33919913641E+01  0.10758370433E+02  0.00000000000E+00 0. -1.
         -2    1    5    5    0  503 -0.34075431971E+03  0.23680444629E+03 -0.12830159933E+03  0.43433990443E+03  0.00000000000E+00 0.  1.
         -3    1    6    6    0  502  0.69833973248E+02 -0.38108518273E+03  0.28975119740E+03  0.48379588331E+03  0.00000000000E+00 0.  1.
<mgrwt>
<rscale>  0 0.20026898E+04</rscale>
<asrwt>0</asrwt>
<pdfrwt beam="1">  1        2 0.25248717E+00 0.20026898E+04</pdfrwt>
<pdfrwt beam="2">  1       -2 0.93994266E-01 0.20026898E+04</pdfrwt>
<totfact> 0.93867132E+00</totfact>
</mgrwt>
</event>
<event>
12    1  0.1556559E-007  0.3127004E+04  0.7818608E-02  0.8208366E-01
          1   -1    0    0  501    0  0.00000000000E+00  0.00000000000E+00  0.26927628195E+04  0.26927628195E+04  0.00000000000E+00 0. -1.
         -1   -1    0    0    0  501 -0.00000000000E+00 -0.00000000000E+00 -0.90781775050E+03  0.90781775050E+03  0.00000000000E+00 0.  1.
         23    2    1    2    0    0  0.35030639582E+03  0.12402210222E+04  0.12989247488E+03  0.12985205679E+04  0.91765219825E+02 0.  0.
        254    2    1    2    0    0 -0.35030639582E+03 -0.12402210222E+04  0.16550525941E+04  0.23020600021E+04  0.94837672317E+03 0.  0.
        -24    2    4    4    0    0 -0.46685458027E+03 -0.70011713818E+03  0.15010944346E+04  0.17228306063E+04  0.82119365441E+02 0.  0.
         24    2    4    4    0    0  0.11654818445E+03 -0.54010388397E+03  0.15395815949E+03  0.57922939572E+03  0.80671514276E+02 0.  0.
         11    1    3    3    0    0  0.48816295897E+02  0.16050571448E+03 -0.13795694230E+02  0.16833132894E+03  0.00000000000E+00 0. -1.
        -11    1    3    3    0    0  0.30149009992E+03  0.10797153077E+04  0.14368816911E+03  0.11301892390E+04  0.00000000000E+00 0.  1.
          2    1    6    6  502    0  0.60180866753E+02 -0.14713897291E+03  0.68755874778E+02  0.17320214891E+03  0.00000000000E+00 0. -1.
          3    1    5    5  503    0 -0.26421531367E+02 -0.22481330522E+02  0.93355510639E+02  0.99592966160E+02  0.00000000000E+00 0. -1.
         -4    1    5    5    0  503 -0.44043304890E+03 -0.67763580766E+03  0.14077389240E+04  0.16232376402E+04  0.00000000000E+00 0.  1.
         -1    1    6    6    0  502  0.56367317695E+02 -0.39296491106E+03  0.85202284711E+02  0.40602724681E+03  0.00000000000E+00 0.  1.
<mgrwt>
<rscale>  0 0.31270036E+04</rscale>
<asrwt>0</asrwt>
<pdfrwt beam="1">  1        1 0.41427120E+00 0.31270036E+04</pdfrwt>
<pdfrwt beam="2">  1       -1 0.13966427E+00 0.31270036E+04</pdfrwt>
<totfact> 0.35243383E-01</totfact>
</mgrwt>
</event>
<event>
12    1  0.1556559E-007  0.1797286E+04  0.7818608E-02  0.8707744E-01
         -1   -1    0    0    0  501 -0.00000000000E+00  0.00000000000E+00  0.88495674657E+03  0.88495674657E+03  0.00000000000E+00 0.  1.
          1   -1    0    0  501    0  0.00000000000E+00 -0.00000000000E+00 -0.91254098341E+03  0.91254098341E+03  0.00000000000E+00 0. -1.
         23    2    1    2    0    0 -0.67139554022E+03 -0.21054921602E+02 -0.14088435497E+02  0.67608310301E+03  0.75329921037E+02 0.  0.
        254    2    1    2    0    0  0.67139554022E+03  0.21054921602E+02 -0.13495801343E+02  0.11214146270E+04  0.89787156531E+03 0.  0.
        -24    2    4    4    0    0  0.30391022753E+03 -0.33123946614E+03 -0.28687423122E+03  0.53818846843E+03  0.72587827372E+02 0.  0.
         24    2    4    4    0    0  0.36748531269E+03  0.35229438774E+03  0.27337842988E+03  0.58322615855E+03  0.79121396708E+02 0.  0.
         13    1    3    3    0    0 -0.50039631236E+03 -0.36401171074E+02 -0.35977697243E+02  0.50300686812E+03  0.00000000000E+00 0. -1.
        -13    1    3    3    0    0 -0.17099922786E+03  0.15346249472E+02  0.21889261745E+02  0.17307623488E+03  0.00000000000E+00 0.  1.
          2    1    6    6  502    0  0.60804050422E+02  0.48490171651E+02  0.12311912772E+02  0.78740158055E+02  0.00000000000E+00 0. -1.
          1    1    5    5  503    0  0.14943290154E+03 -0.15460074873E+03 -0.17967031798E+03  0.28020172507E+03  0.00000000000E+00 0. -1.
         -2    1    5    5    0  503  0.15447732599E+03 -0.17663871741E+03 -0.10720391325E+03  0.25798674336E+03  0.00000000000E+00 0.  1.
         -1    1    6    6    0  502  0.30668126227E+03  0.30380421609E+03  0.26106651711E+03  0.50448600050E+03  0.00000000000E+00 0.  1.
<mgrwt>
<rscale>  0 0.17972861E+04</rscale>
<asrwt>0</asrwt>
<pdfrwt beam="1">  1        1 0.14039092E+00 0.17972861E+04</pdfrwt>
<pdfrwt beam="2">  1       -1 0.13614719E+00 0.17972861E+04</pdfrwt>
<totfact> 0.75611601E+00</totfact>
</mgrwt>
</event>
<event>
12    1  0.1556559E-007  0.1434867E+04  0.7818608E-02  0.8928959E-01
          2   -1    0    0  501    0  0.00000000000E+00  0.00000000000E+00  0.88050571387E+03  0.88050571387E+03  0.00000000000E+00 0. -1.
         -2   -1    0    0    0  501 -0.00000000000E+00 -0.00000000000E+00 -0.58456293868E+03  0.58456293868E+03  0.00000000000E+00 0.  1.
         23    2    1    2    0    0  0.25105132779E+03  0.96114126166E+02  0.43000021590E+03  0.51534710401E+03  0.91748337845E+02 0.  0.
        254    2    1    2    0    0 -0.25105132779E+03 -0.96114126166E+02 -0.13405744071E+03  0.94972154854E+03  0.90096333328E+03 0.  0.
        -24    2    4    4    0    0  0.14419950232E+03  0.49009002532E+02 -0.40685361757E+03  0.44160111263E+03  0.79286176238E+02 0.  0.
         24    2    4    4    0    0 -0.39525083012E+03 -0.14512312870E+03  0.27279617686E+03  0.50812043592E+03  0.80527523823E+02 0.  0.
         11    1    3    3    0    0  0.83392385761E+02  0.43189507493E+02  0.23348404918E+03  0.25166331632E+03  0.00000000000E+00 0. -1.
        -11    1    3    3    0    0  0.16765894203E+03  0.52924618673E+02  0.19651616672E+03  0.26368378769E+03  0.00000000000E+00 0.  1.
          4    1    6    6  502    0 -0.36229972978E+03 -0.10613210934E+03  0.24394050709E+03  0.44947979913E+03  0.00000000000E+00 0. -1.
          3    1    5    5  503    0  0.90737205583E+02 -0.78784824508E+01 -0.25646818890E+03  0.27216032569E+03  0.00000000000E+00 0. -1.
         -4    1    5    5    0  503  0.53462296742E+02  0.56887484983E+02 -0.15038542867E+03  0.16944078693E+03  0.00000000000E+00 0.  1.
         -3    1    6    6    0  502 -0.32951100342E+02 -0.38991019359E+02  0.28855669767E+02  0.58640636781E+02  0.00000000000E+00 0.  1.
<mgrwt>
<rscale>  0 0.14348673E+04</rscale>
<asrwt>0</asrwt>
<pdfrwt beam="1">  1        2 0.13546242E+00 0.14348673E+04</pdfrwt>
<pdfrwt beam="2">  1       -2 0.89932760E-01 0.14348673E+04</pdfrwt>
<totfact> 0.31081522E+01</totfact>
</mgrwt>
</event>
<event>
12    1  0.1556559E-007  0.1194939E+04  0.7818608E-02  0.9117298E-01
          3   -1    0    0  501    0  0.00000000000E+00  0.00000000000E+00  0.41548003632E+03  0.41548003632E+03  0.00000000000E+00 0. -1.
         -3   -1    0    0    0  501 -0.00000000000E+00 -0.00000000000E+00 -0.85917445519E+03  0.85917445519E+03  0.00000000000E+00 0.  1.
         23    2    1    2    0    0 -0.94264317852E+02  0.35004244604E+02 -0.32383776641E+03  0.35152256130E+03  0.92661498976E+02 0.  0.
        254    2    1    2    0    0  0.94264317852E+02 -0.35004244604E+02 -0.11985665247E+03  0.92313193021E+03  0.90977793151E+03 0.  0.
        -24    2    4    4    0    0  0.21703424700E+03 -0.33327637352E+03 -0.33593459146E+03  0.52664882533E+03  0.79560856970E+02 0.  0.
         24    2    4    4    0    0 -0.12276992915E+03  0.29827212891E+03  0.21607793899E+03  0.39648310488E+03  0.80439159291E+02 0.  0.
         13    1    3    3    0    0  0.17860333095E+02  0.47007170424E+01 -0.26463692385E+02  0.32270966109E+02  0.00000000000E+00 0. -1.
        -13    1    3    3    0    0 -0.11212465095E+03  0.30303527562E+02 -0.29737407402E+03  0.31925159519E+03  0.00000000000E+00 0.  1.
          4    1    6    6  502    0 -0.68546668032E+02  0.12854859424E+03  0.14226548917E+03  0.20362430157E+03  0.00000000000E+00 0. -1.
          1    1    5    5  503    0  0.11561042672E+03 -0.10837538021E+03 -0.11980491915E+03  0.19865601540E+03  0.00000000000E+00 0. -1.
         -2    1    5    5    0  503  0.10142382029E+03 -0.22490099331E+03 -0.21612967231E+03  0.32799280993E+03  0.00000000000E+00 0.  1.
         -3    1    6    6    0  502 -0.54223261117E+02  0.16972353467E+03  0.73812449825E+02  0.19285880331E+03  0.00000000000E+00 0.  1.
<mgrwt>
<rscale>  0 0.11949391E+04</rscale>
<asrwt>0</asrwt>
<pdfrwt beam="1">  1        3 0.63920006E-01 0.11949391E+04</pdfrwt>
<pdfrwt beam="2">  1       -3 0.13218068E+00 0.11949391E+04</pdfrwt>
<totfact> 0.27340573E+00</totfact>
</mgrwt>
</event>
<event>
12    1  0.1556559E-007  0.2716167E+04  0.7818608E-02  0.8329778E-01
         -1   -1    0    0    0  501 -0.00000000000E+00  0.00000000000E+00  0.62542221398E+03  0.62542221398E+03  0.00000000000E+00 0.  1.
          1   -1    0    0  501    0  0.00000000000E+00 -0.00000000000E+00 -0.29490337122E+04  0.29490337122E+04  0.00000000000E+00 0. -1.
         23    2    1    2    0    0 -0.10771000727E+04 -0.14839261937E+03 -0.17209287830E+04  0.20377051858E+04  0.92095669298E+02 0.  0.
        254    2    1    2    0    0  0.10771000727E+04  0.14839261937E+03 -0.60268271524E+03  0.15367507403E+04  0.90344421337E+03 0.  0.
        -24    2    4    4    0    0  0.18849381979E+03  0.13087160099E+03 -0.59734668148E+03  0.64432079575E+03  0.75292323129E+02 0.  0.
         24    2    4    4    0    0  0.88860625287E+03  0.17521018386E+02 -0.53360337568E+01  0.89242994458E+03  0.80465358980E+02 0.  0.
         11    1    3    3    0    0 -0.70979398818E+03 -0.12285469320E+03 -0.12043709221E+04  0.14033567256E+04  0.00000000000E+00 0.  1.
        -11    1    3    3    0    0 -0.36730608448E+03 -0.25537926178E+02 -0.51655786090E+03  0.63434846026E+03  0.00000000000E+00 0. -1.
          4    1    6    6  502    0  0.68043257916E+03  0.47248542664E+02  0.21779889152E+00  0.68207108647E+03  0.00000000000E+00 0. -1.
          3    1    5    5  503    0  0.18855912271E+03  0.10782437637E+03 -0.51808709445E+03  0.56177831601E+03  0.00000000000E+00 0. -1.
         -4    1    5    5    0  503 -0.65302921719E-01  0.23047224620E+02 -0.79259587028E+02  0.82542479748E+02  0.00000000000E+00 0.  1.
         -3    1    6    6    0  502  0.20817367372E+03 -0.29727524277E+02 -0.55538326484E+01  0.21035885811E+03  0.00000000000E+00 0.  1.
<mgrwt>
<rscale>  0 0.27161673E+04</rscale>
<asrwt>0</asrwt>
<pdfrwt beam="1">  1        1 0.45369749E+00 0.27161673E+04</pdfrwt>
<pdfrwt beam="2">  1       -1 0.96218802E-01 0.27161673E+04</pdfrwt>
<totfact> 0.59034817E-01</totfact>
</mgrwt>
</event>
<event>
12    1  0.1556559E-007  0.2005772E+04  0.7818608E-02  0.8603927E-01
         -1   -1    0    0    0  501 -0.00000000000E+00  0.00000000000E+00  0.84461164233E+03  0.84461164233E+03  0.00000000000E+00 0.  1.
          1   -1    0    0  501    0  0.00000000000E+00 -0.00000000000E+00 -0.11908198339E+04  0.11908198339E+04  0.00000000000E+00 0. -1.
         23    2    1    2    0    0  0.69436107449E+03  0.37929051638E+03 -0.24603281127E+03  0.83379426255E+03  0.93177950518E+02 0.  0.
        254    2    1    2    0    0 -0.69436107449E+03 -0.37929051638E+03 -0.10017538034E+03  0.12016372137E+04  0.89883162436E+03 0.  0.
        -24    2    4    4    0    0 -0.11903307508E+03 -0.56742007302E+03 -0.77171377840E+02  0.59034540282E+03  0.80111552550E+02 0.  0.
         24    2    4    4    0    0 -0.57532799940E+03  0.18812955663E+03 -0.23004002495E+02  0.61129181088E+03  0.82179419195E+02 0.  0.
         13    1    3    3    0    0  0.37294535467E+03  0.16419587504E+03 -0.93681573957E+02  0.41812050925E+03  0.00000000000E+00 0.  1.
        -13    1    3    3    0    0  0.32141571982E+03  0.21509464134E+03 -0.15235123731E+03  0.41567375331E+03  0.00000000000E+00 0. -1.
          2    1    6    6  502    0 -0.49457420733E+03  0.18865780174E+03 -0.30340679233E+02  0.53020370570E+03  0.00000000000E+00 0. -1.
          1    1    5    5  503    0 -0.97307016743E+02 -0.52660134213E+03 -0.52902073949E+02  0.53812290275E+03  0.00000000000E+00 0. -1.
         -2    1    5    5    0  503 -0.21726058341E+02 -0.40818730888E+02 -0.24269303891E+02  0.52222500072E+02  0.00000000000E+00 0.  1.
         -1    1    6    6    0  502 -0.80753792070E+02 -0.52824510670E+00  0.73366767380E+01  0.81088105183E+02  0.00000000000E+00 0.  1.
<mgrwt>
<rscale>  0 0.20057720E+04</rscale>
<asrwt>0</asrwt>
<pdfrwt beam="1">  1        1 0.18320305E+00 0.20057720E+04</pdfrwt>
<pdfrwt beam="2">  1       -1 0.12994025E+00 0.20057720E+04</pdfrwt>
<totfact> 0.51094951E+00</totfact>
</mgrwt>
</event>
<event>
12    1  0.1556559E-007  0.2666338E+04  0.7818608E-02  0.8346011E-01
          2   -1    0    0  501    0  0.00000000000E+00  0.00000000000E+00  0.97238372337E+03  0.97238372337E+03  0.00000000000E+00 0. -1.
         -2   -1    0    0    0  501 -0.00000000000E+00 -0.00000000000E+00 -0.18278167573E+04  0.18278167573E+04  0.00000000000E+00 0.  1.
         23    2    1    2    0    0  0.10818392624E+04 -0.13649286166E+03 -0.86018967808E+03  0.13917830648E+04  0.90151684184E+02 0.  0.
        254    2    1    2    0    0 -0.10818392624E+04  0.13649286166E+03  0.47566441503E+01  0.14084174159E+04  0.89140927782E+03 0.  0.
        -24    2    4    4    0    0 -0.67488387079E+03 -0.27617811104E+03 -0.24337825012E+03  0.77286564019E+03  0.79660134848E+02 0.  0.
         24    2    4    4    0    0 -0.40695539166E+03  0.41267097270E+03  0.24813489427E+03  0.63555177568E+03  0.80281450549E+02 0.  0.
         11    1    3    3    0    0  0.53317069116E+03 -0.66700648981E+02 -0.36659186443E+03  0.65046872143E+03  0.00000000000E+00 0. -1.
        -11    1    3    3    0    0  0.54866857128E+03 -0.69792212678E+02 -0.49359781364E+03  0.74131434338E+03  0.00000000000E+00 0.  1.
          2    1    6    6  502    0 -0.40601284454E+03  0.41485019605E+03  0.24186033845E+03  0.62884301571E+03  0.00000000000E+00 0. -1.
          3    1    5    5  503    0 -0.40935123250E+03 -0.12578864898E+03 -0.14954133904E+03  0.45360095662E+03  0.00000000000E+00 0. -1.
         -4    1    5    5    0  503 -0.26553263828E+03 -0.15038946206E+03 -0.93836911078E+02  0.31926468357E+03  0.00000000000E+00 0.  1.
         -1    1    6    6    0  502 -0.94254711403E+00 -0.21792233500E+01  0.62745558227E+01  0.67087599632E+01  0.00000000000E+00 0.  1.
<mgrwt>
<rscale>  0 0.26663378E+04</rscale>
<asrwt>0</asrwt>
<pdfrwt beam="1">  1        2 0.14959750E+00 0.26663378E+04</pdfrwt>
<pdfrwt beam="2">  1       -2 0.28120258E+00 0.26663378E+04</pdfrwt>
<totfact> 0.95610909E-01</totfact>
</mgrwt>
</event>
<event>
12    1  0.1556559E-007  0.1223471E+04  0.7818608E-02  0.9092557E-01
          2   -1    0    0  501    0  0.00000000000E+00  0.00000000000E+00  0.27341953173E+03  0.27341953173E+03  0.00000000000E+00 0. -1.
         -2   -1    0    0    0  501 -0.00000000000E+00 -0.00000000000E+00 -0.13686680529E+04  0.13686680529E+04  0.00000000000E+00 0.  1.
         23    2    1    2    0    0 -0.30410061296E+02 -0.54002100141E+02 -0.61889918122E+03  0.62868535120E+03  0.91477186491E+02 0.  0.
        254    2    1    2    0    0  0.30410061296E+02  0.54002100141E+02 -0.47634933998E+03  0.10134022335E+04  0.89231967054E+03 0.  0.
        -24    2    4    4    0    0  0.11453055943E+03  0.34325343098E+03  0.77281944171E+02  0.37778884066E+03  0.76234784096E+02 0.  0.
         24    2    4    4    0    0 -0.84120498134E+02 -0.28925133084E+03 -0.55363128415E+03  0.63561339280E+03  0.82183914000E+02 0.  0.
         13    1    3    3    0    0 -0.46011537989E+02 -0.16558599313E+02 -0.51231065189E+03  0.51463914822E+03  0.00000000000E+00 0.  1.
        -13    1    3    3    0    0  0.15601476693E+02 -0.37443500827E+02 -0.10658852933E+03  0.11404620298E+03  0.00000000000E+00 0. -1.
          2    1    6    6  502    0  0.79849321218E+01 -0.11240239357E+03 -0.20983564940E+03  0.23817862411E+03  0.00000000000E+00 0. -1.
          1    1    5    5  503    0  0.45285358590E+02  0.47673184119E+02  0.21061733428E+02  0.69044136620E+02  0.00000000000E+00 0. -1.
         -2    1    5    5    0  503  0.69245200840E+02  0.29558024686E+03  0.56220210743E+02  0.30874470404E+03  0.00000000000E+00 0.  1.
         -1    1    6    6    0  502 -0.92105430256E+02 -0.17684893727E+03 -0.34379563474E+03  0.39743476869E+03  0.00000000000E+00 0.  1.
<mgrwt>
<rscale>  0 0.12234714E+04</rscale>
<asrwt>0</asrwt>
<pdfrwt beam="1">  1        2 0.42064543E-01 0.12234714E+04</pdfrwt>
<pdfrwt beam="2">  1       -2 0.21056432E+00 0.12234714E+04</pdfrwt>
<totfact> 0.13620646E+01</totfact>
</mgrwt>
</event>
<event>
12    1  0.1556559E-007  0.1006929E+04  0.7818608E-02  0.9300978E-01
          3   -1    0    0  501    0  0.00000000000E+00  0.00000000000E+00  0.20241065005E+03  0.20241065005E+03  0.00000000000E+00 0. -1.
         -3   -1    0    0    0  501 -0.00000000000E+00 -0.00000000000E+00 -0.12522878351E+04  0.12522878351E+04  0.00000000000E+00 0.  1.
         23    2    1    2    0    0  0.14059006888E+03 -0.56091965851E+02 -0.27090928048E+03  0.32324077297E+03  0.90448233590E+02 0.  0.
        254    2    1    2    0    0 -0.14059006888E+03  0.56091965851E+02 -0.77896790456E+03  0.11314577122E+04  0.80653188529E+03 0.  0.
        -24    2    4    4    0    0 -0.29571447043E+03  0.88735687916E+02 -0.87463492263E+03  0.93094708341E+03  0.79719219129E+02 0.  0.
         24    2    4    4    0    0  0.15512440155E+03 -0.32643722064E+02  0.95667018068E+02  0.20051062876E+03  0.76961947442E+02 0.  0.
         11    1    3    3    0    0 -0.11806165533E+02 -0.11160840493E+02 -0.15551214687E+02  0.22489779531E+02  0.00000000000E+00 0. -1.
        -11    1    3    3    0    0  0.15239623441E+03 -0.44931125359E+02 -0.25535806579E+03  0.30075099344E+03  0.00000000000E+00 0.  1.
          4    1    6    6  502    0  0.13196148576E+03 -0.55193903308E+02  0.85395465816E+02  0.16659107500E+03  0.00000000000E+00 0. -1.
          1    1    5    5  503    0 -0.12629148618E+03  0.79414945426E+02 -0.40735288161E+03  0.43381176009E+03  0.00000000000E+00 0. -1.
         -2    1    5    5    0  503 -0.16942298424E+03  0.93207424893E+01 -0.46728204102E+03  0.49713532332E+03  0.00000000000E+00 0.  1.
         -3    1    6    6    0  502  0.23162915789E+02  0.22550181244E+02  0.10271552252E+02  0.33919553765E+02  0.00000000000E+00 0.  1.
<mgrwt>
<rscale>  0 0.10069288E+04</rscale>
<asrwt>0</asrwt>
<pdfrwt beam="1">  1        3 0.31140100E-01 0.10069288E+04</pdfrwt>
<pdfrwt beam="2">  1       -3 0.19265967E+00 0.10069288E+04</pdfrwt>
<totfact> 0.43212200E+00</totfact>
</mgrwt>
</event>
<event>
12    1  0.1556559E-007  0.2050225E+04  0.7818608E-02  0.8583492E-01
         -2   -1    0    0    0  501 -0.00000000000E+00  0.00000000000E+00  0.17095044500E+04  0.17095044500E+04  0.00000000000E+00 0.  1.
          2   -1    0    0  501    0  0.00000000000E+00 -0.00000000000E+00 -0.61471361563E+03  0.61471361563E+03  0.00000000000E+00 0. -1.
         23    2    1    2    0    0 -0.73643299136E+03  0.32232448439E+03  0.65333958006E+03  0.10400753172E+04  0.93152748426E+02 0.  0.
        254    2    1    2    0    0  0.73643299136E+03 -0.32232448439E+03  0.44145125426E+03  0.12841427484E+04  0.89884190176E+03 0.  0.
        -24    2    4    4    0    0  0.81492681560E+03 -0.13480444014E+02  0.12569241702E+03  0.82844896082E+03  0.79004176008E+02 0.  0.
         24    2    4    4    0    0 -0.78493824239E+02 -0.30884404038E+03  0.31575883724E+03  0.45569378757E+03  0.80045380969E+02 0.  0.
         11    1    3    3    0    0 -0.35230423785E+03  0.18832738615E+03  0.27934923007E+03  0.48746432969E+03  0.00000000000E+00 0. -1.
        -11    1    3    3    0    0 -0.38412875352E+03  0.13399709824E+03  0.37399034999E+03  0.55261098750E+03  0.00000000000E+00 0.  1.
          2    1    6    6  502    0 -0.65352505891E+02 -0.30806991487E+03  0.29783841286E+03  0.43345789028E+03  0.00000000000E+00 0. -1.
          1    1    5    5  503    0  0.53609724136E+03 -0.46252825769E+02  0.85389881592E+02  0.54482199658E+03  0.00000000000E+00 0. -1.
         -2    1    5    5    0  503  0.27882957425E+03  0.32772381755E+02  0.40302535424E+02  0.28362696424E+03  0.00000000000E+00 0.  1.
         -1    1    6    6    0  502 -0.13141318348E+02 -0.77412551067E+00  0.17920424387E+02  0.22235897293E+02  0.00000000000E+00 0.  1.
<mgrwt>
<rscale>  0 0.20502250E+04</rscale>
<asrwt>0</asrwt>
<pdfrwt beam="1">  1        2 0.94571327E-01 0.20502250E+04</pdfrwt>
<pdfrwt beam="2">  1       -2 0.26300068E+00 0.20502250E+04</pdfrwt>
<totfact> 0.23832418E+00</totfact>
</mgrwt>
</event>
<event>
12    1  0.1556559E-007  0.4103995E+04  0.7818608E-02  0.7983890E-01
         -2   -1    0    0    0  501 -0.00000000000E+00  0.00000000000E+00  0.11035582231E+04  0.11035582231E+04  0.00000000000E+00 0.  1.
          2   -1    0    0  501    0  0.00000000000E+00 -0.00000000000E+00 -0.38155609408E+04  0.38155609408E+04  0.00000000000E+00 0. -1.
         23    2    1    2    0    0 -0.17898106333E+04 -0.39038728185E+03 -0.48314859708E+03  0.18966426689E+04  0.89423228706E+02 0.  0.
        254    2    1    2    0    0  0.17898106333E+04  0.39038728185E+03 -0.22288541206E+04  0.30224764950E+04  0.90097121993E+03 0.  0.
        -24    2    4    4    0    0  0.17164814863E+04  0.88281494058E+02 -0.18634306278E+04  0.25362781060E+04  0.78934220440E+02 0.  0.
         24    2    4    4    0    0  0.73329146965E+02  0.30210578780E+03 -0.36542349278E+03  0.48619838902E+03  0.78800213185E+02 0.  0.
         11    1    3    3    0    0 -0.29367761290E+03 -0.56263183455E+02 -0.11251217856E+03  0.31948564359E+03  0.00000000000E+00 0. -1.
        -11    1    3    3    0    0 -0.14961330204E+04 -0.33412409840E+03 -0.37063641851E+03  0.15771570253E+04  0.00000000000E+00 0.  1.
          4    1    6    6  502    0  0.47779257750E+02  0.95750806173E+02 -0.16982037396E+03  0.20072377479E+03  0.00000000000E+00 0. -1.
          3    1    5    5  503    0  0.10907419792E+04  0.20044924109E+02 -0.11635961760E+04  0.15950159639E+04  0.00000000000E+00 0. -1.
         -4    1    5    5    0  503  0.62573950710E+03  0.68236569949E+02 -0.69983445184E+03  0.94126214213E+03  0.00000000000E+00 0.  1.
         -3    1    6    6    0  502  0.25549889215E+02  0.20635498162E+03 -0.19560311883E+03  0.28547461424E+03  0.00000000000E+00 0.  1.
<mgrwt>
<rscale>  0 0.41039950E+04</rscale>
<asrwt>0</asrwt>
<pdfrwt beam="1">  1        2 0.58700938E+00 0.41039950E+04</pdfrwt>
<pdfrwt beam="2">  1       -2 0.16977819E+00 0.41039950E+04</pdfrwt>
<totfact> 0.79731444E-02</totfact>
</mgrwt>
</event>
<event>
12    1  0.1556559E-007  0.1555058E+04  0.7818608E-02  0.8848644E-01
         -1   -1    0    0    0  501 -0.00000000000E+00  0.00000000000E+00  0.21800334897E+04  0.21800334897E+04  0.00000000000E+00 0.  1.
          1   -1    0    0  501    0  0.00000000000E+00 -0.00000000000E+00 -0.27731271844E+03  0.27731271844E+03  0.00000000000E+00 0. -1.
         23    2    1    2    0    0  0.77999334731E+02 -0.43417716470E+03  0.22438127597E+03  0.50329834527E+03  0.91479838079E+02 0.  0.
        254    2    1    2    0    0 -0.77999334731E+02  0.43417716470E+03  0.16783394953E+04  0.19540478629E+04  0.89826826858E+03 0.  0.
        -24    2    4    4    0    0 -0.14352439216E+03  0.64306104525E+03  0.77177704062E+03  0.10179932991E+04  0.80893742170E+02 0.  0.
         24    2    4    4    0    0  0.65525057431E+02 -0.20888388055E+03  0.90656245467E+03  0.93605456376E+03  0.80104016253E+02 0.  0.
         11    1    3    3    0    0  0.67950452929E+02 -0.43318126207E+03  0.21119445974E+03  0.48668919208E+03  0.00000000000E+00 0.  1.
        -11    1    3    3    0    0  0.10048881802E+02 -0.99590263603E+00  0.13186816222E+02  0.16609153187E+02  0.00000000000E+00 0. -1.
          2    1    6    6  502    0  0.73112862645E+02 -0.20523237295E+03  0.89797860355E+03  0.92402997247E+03  0.00000000000E+00 0. -1.
          1    1    5    5  503    0 -0.10279733954E+03  0.55962192299E+03  0.63434691984E+03  0.85213848899E+03  0.00000000000E+00 0. -1.
         -2    1    5    5    0  503 -0.40727052623E+02  0.83439122254E+02  0.13743012079E+03  0.16585481011E+03  0.00000000000E+00 0.  1.
         -1    1    6    6    0  502 -0.75878052145E+01 -0.36515075988E+01  0.85838511238E+01  0.12024591296E+02  0.00000000000E+00 0.  1.
<mgrwt>
<rscale>  0 0.15550576E+04</rscale>
<asrwt>0</asrwt>
<pdfrwt beam="1">  1        1 0.42663497E-01 0.15550576E+04</pdfrwt>
<pdfrwt beam="2">  1       -1 0.33538976E+00 0.15550576E+04</pdfrwt>
<totfact> 0.18224111E+00</totfact>
</mgrwt>
</event>
<event>
12    1  0.1556559E-007  0.1612965E+04  0.7818608E-02  0.8812622E-01
         -2   -1    0    0    0  501 -0.00000000000E+00  0.00000000000E+00  0.70758716600E+03  0.70758716600E+03  0.00000000000E+00 0.  1.
          2   -1    0    0  501    0  0.00000000000E+00 -0.00000000000E+00 -0.91920005675E+03  0.91920005675E+03  0.00000000000E+00 0. -1.
         23    2    1    2    0    0  0.39979289106E+03 -0.34521147820E+03 -0.23275799935E+03  0.58442494819E+03  0.91492695839E+02 0.  0.
        254    2    1    2    0    0 -0.39979289106E+03  0.34521147820E+03  0.21145108605E+02  0.10423622746E+04  0.89836889716E+03 0.  0.
        -24    2    4    4    0    0 -0.37183690210E+03  0.95391420102E+02  0.41402849805E+03  0.56911352707E+03  0.71473104725E+02 0.  0.
         24    2    4    4    0    0 -0.27955988956E+02  0.24982005810E+03 -0.39288338945E+03  0.47324874749E+03  0.80096320473E+02 0.  0.
         13    1    3    3    0    0  0.15763296916E+02 -0.44962593235E+02 -0.11083001716E+02  0.48917780480E+02  0.00000000000E+00 0. -1.
        -13    1    3    3    0    0  0.38402959414E+03 -0.30024888496E+03 -0.22167499763E+03  0.53550716771E+03  0.00000000000E+00 0.  1.
          2    1    6    6  502    0 -0.38569106761E+02  0.51818268378E+02 -0.79972293043E+02  0.10280212346E+03  0.00000000000E+00 0. -1.
          3    1    5    5  503    0 -0.10777000343E+02 -0.92509708566E+01  0.19984023304E+02  0.24517042758E+02  0.00000000000E+00 0. -1.
         -4    1    5    5    0  503 -0.36105990176E+03  0.10464239096E+03  0.39404447475E+03  0.54459648431E+03  0.00000000000E+00 0.  1.
         -1    1    6    6    0  502  0.10613117805E+02  0.19800178972E+03 -0.31291109641E+03  0.37044662403E+03  0.00000000000E+00 0.  1.
<mgrwt>
<rscale>  0 0.16129652E+04</rscale>
<asrwt>0</asrwt>
<pdfrwt beam="1">  1        2 0.14141539E+00 0.16129652E+04</pdfrwt>
<pdfrwt beam="2">  1       -2 0.10885956E+00 0.16129652E+04</pdfrwt>
<totfact> 0.18373664E+01</totfact>
</mgrwt>
</event>
<event>
12    1  0.1556559E-007  0.2223170E+04  0.7818608E-02  0.8508846E-01
         -2   -1    0    0    0  501 -0.00000000000E+00  0.00000000000E+00  0.18198518647E+04  0.18198518647E+04  0.00000000000E+00 0.  1.
          2   -1    0    0  501    0  0.00000000000E+00 -0.00000000000E+00 -0.67896773770E+03  0.67896773770E+03  0.00000000000E+00 0. -1.
         23    2    1    2    0    0  0.23194944825E+03  0.81895106998E+02  0.14808460382E+04  0.15055755150E+04  0.11552180479E+03 0.  0.
        254    2    1    2    0    0 -0.23194944825E+03 -0.81895106998E+02 -0.33996191123E+03  0.99324408738E+03  0.90025127655E+03 0.  0.
        -24    2    4    4    0    0 -0.11301759637E+03 -0.14040687008E+02  0.30172070777E+03  0.33227024055E+03  0.79987556990E+02 0.  0.
         24    2    4    4    0    0 -0.11893185189E+03 -0.67854419990E+02 -0.64168261901E+03  0.66097384684E+03  0.79880128713E+02 0.  0.
         11    1    3    3    0    0  0.17372088667E+03  0.10012171427E+03  0.93052170365E+03  0.95187916518E+03  0.00000000000E+00 0.  1.
        -11    1    3    3    0    0  0.58228561588E+02 -0.18226607271E+02  0.55032433454E+03  0.55369634980E+03  0.00000000000E+00 0. -1.
          2    1    6    6  502    0 -0.12774452947E+03 -0.73324863729E+02 -0.57914697961E+03  0.59758382210E+03  0.00000000000E+00 0. -1.
          3    1    5    5  503    0 -0.76860461965E+02 -0.35579165254E+02  0.25816622758E+03  0.27170426694E+03  0.00000000000E+00 0. -1.
         -4    1    5    5    0  503 -0.36157134404E+02  0.21538478246E+02  0.43554480197E+02  0.60565973605E+02  0.00000000000E+00 0.  1.
         -1    1    6    6    0  502  0.88126775833E+01  0.54704437394E+01 -0.62535639396E+02  0.63390024732E+02  0.00000000000E+00 0.  1.
<mgrwt>
<rscale>  0 0.22231695E+04</rscale>
<asrwt>0</asrwt>
<pdfrwt beam="1">  1        2 0.10445658E+00 0.22231695E+04</pdfrwt>
<pdfrwt beam="2">  1       -2 0.27997721E+00 0.22231695E+04</pdfrwt>
<totfact> 0.16367710E+00</totfact>
</mgrwt>
</event>
<event>
12    1  0.1556559E-007  0.2235412E+04  0.7818608E-02  0.8503832E-01
          2   -1    0    0  501    0  0.00000000000E+00  0.00000000000E+00  0.14602369784E+04  0.14602369784E+04  0.00000000000E+00 0. -1.
         -2   -1    0    0    0  501 -0.00000000000E+00 -0.00000000000E+00 -0.85552327607E+03  0.85552327607E+03  0.00000000000E+00 0.  1.
         23    2    1    2    0    0  0.47048557075E+03 -0.30382261314E+03 -0.52018460674E+03  0.77005413380E+03  0.93415691127E+02 0.  0.
        254    2    1    2    0    0 -0.47048557075E+03  0.30382261314E+03  0.11248983091E+04  0.15457061207E+04  0.90008130367E+03 0.  0.
        -24    2    4    4    0    0 -0.10707411116E+03  0.48606007863E+03  0.21909750791E+03  0.54967019961E+03  0.80089606408E+02 0.  0.
         24    2    4    4    0    0 -0.36341145958E+03 -0.18223746549E+03  0.90580080121E+03  0.99603592110E+03  0.79586945314E+02 0.  0.
         13    1    3    3    0    0  0.18560506080E+03 -0.17501335011E+03 -0.22910234753E+03  0.34288014955E+03  0.00000000000E+00 0. -1.
        -13    1    3    3    0    0  0.28488050994E+03 -0.12880926303E+03 -0.29108225921E+03  0.42717398425E+03  0.00000000000E+00 0.  1.
          4    1    6    6  502    0 -0.18770733775E+03 -0.56910493040E+02  0.37921569633E+03  0.42693956622E+03  0.00000000000E+00 0. -1.
          1    1    5    5  503    0 -0.43937133708E-01  0.15275894890E+03  0.84887027599E+02  0.17476013806E+03  0.00000000000E+00 0. -1.
         -2    1    5    5    0  503 -0.10703017403E+03  0.33330112973E+03  0.13421048031E+03  0.37491006155E+03  0.00000000000E+00 0.  1.
         -3    1    6    6    0  502 -0.17570412183E+03 -0.12532697245E+03  0.52658510488E+03  0.56909635488E+03  0.00000000000E+00 0.  1.
<mgrwt>
<rscale>  0 0.22354120E+04</rscale>
<asrwt>0</asrwt>
<pdfrwt beam="1">  1        2 0.22465184E+00 0.22354120E+04</pdfrwt>
<pdfrwt beam="2">  1       -2 0.13161897E+00 0.22354120E+04</pdfrwt>
<totfact> 0.51292876E+00</totfact>
</mgrwt>
</event>
<event>
12    1  0.1569212E-007  0.2608558E+04  0.7818608E-02  0.8365300E-01
         -2   -1    0    0    0  501 -0.00000000000E+00  0.00000000000E+00  0.13398822630E+04  0.13398822630E+04  0.00000000000E+00 0.  1.
          2   -1    0    0  501    0  0.00000000000E+00 -0.00000000000E+00 -0.12696215119E+04  0.12696215119E+04  0.00000000000E+00 0. -1.
         23    2    1    2    0    0 -0.45802886253E+03  0.57003326686E+03 -0.85279893751E+03  0.11271342514E+04  0.91854387983E+02 0.  0.
        254    2    1    2    0    0  0.45802886253E+03 -0.57003326686E+03  0.92305968869E+03  0.14823695235E+04  0.90036206670E+03 0.  0.
        -24    2    4    4    0    0  0.17489256870E+03 -0.66823654072E+03  0.94094547474E+03  0.11701110126E+04  0.81571505550E+02 0.  0.
         24    2    4    4    0    0  0.28313629383E+03  0.98203273857E+02 -0.17885786050E+02  0.31225851089E+03  0.85880337688E+02 0.  0.
         13    1    3    3    0    0 -0.38819480395E+03  0.49455753938E+03 -0.68045224297E+03  0.92644353337E+03  0.00000000000E+00 0. -1.
        -13    1    3    3    0    0 -0.69834058578E+02  0.75475727478E+02 -0.17234669454E+03  0.20069071801E+03  0.00000000000E+00 0.  1.
          2    1    6    6  502    0  0.28143446006E+03  0.89626868525E+02 -0.34503353823E+01  0.29538150871E+03  0.00000000000E+00 0. -1.
          3    1    5    5  503    0  0.12974624184E+03 -0.53722164513E+03  0.80103401075E+03  0.97318891775E+03  0.00000000000E+00 0. -1.
         -4    1    5    5    0  503  0.45146326863E+02 -0.13101489559E+03  0.13991146399E+03  0.19692209488E+03  0.00000000000E+00 0.  1.
         -1    1    6    6    0  502  0.17018337629E+01  0.85764053326E+01 -0.14435450668E+02  0.16877002179E+02  0.00000000000E+00 0.  1.
<mgrwt>
<rscale>  0 0.26085577E+04</rscale>
<asrwt>0</asrwt>
<pdfrwt beam="1">  1        2 0.19532639E+00 0.26085577E+04</pdfrwt>
<pdfrwt beam="2">  1       -2 0.20613573E+00 0.26085577E+04</pdfrwt>
<totfact> 0.18464497E+00</totfact>
</mgrwt>
</event>
<event>
12    1  0.1556559E-007  0.1556929E+04  0.7818608E-02  0.8847454E-01
         -1   -1    0    0    0  501 -0.00000000000E+00  0.00000000000E+00  0.73063073213E+03  0.73063073213E+03  0.00000000000E+00 0.  1.
          1   -1    0    0  501    0  0.00000000000E+00 -0.00000000000E+00 -0.82942955674E+03  0.82942955674E+03  0.00000000000E+00 0. -1.
         23    2    1    2    0    0 -0.93751995175E+02  0.27179370037E+03 -0.46065081205E+03  0.55004841046E+03  0.87708785431E+02 0.  0.
        254    2    1    2    0    0  0.93751995175E+02 -0.27179370037E+03  0.36185198744E+03  0.10100118784E+04  0.89806786022E+03 0.  0.
        -24    2    4    4    0    0  0.42168441230E+03 -0.15635693956E+03 -0.58071675737E+02  0.45894599918E+03  0.70667351114E+02 0.  0.
         24    2    4    4    0    0 -0.32793241713E+03 -0.11543676080E+03  0.41992366318E+03  0.55106587923E+03  0.80451254840E+02 0.  0.
         11    1    3    3    0    0 -0.56681946812E+02  0.15727040568E+03 -0.34378773325E+03  0.38227847066E+03  0.00000000000E+00 0. -1.
        -11    1    3    3    0    0 -0.37070048362E+02  0.11452329469E+03 -0.11686307881E+03  0.16776993980E+03  0.00000000000E+00 0.  1.
          2    1    6    6  502    0 -0.25767510893E+03 -0.61479817191E+02  0.34548164615E+03  0.43535479498E+03  0.00000000000E+00 0. -1.
          1    1    5    5  503    0  0.17361775989E+03 -0.43364377873E+02 -0.51752319924E+02  0.18628445570E+03  0.00000000000E+00 0. -1.
         -2    1    5    5    0  503  0.24806665241E+03 -0.11299256169E+03 -0.63193558128E+01  0.27266154348E+03  0.00000000000E+00 0.  1.
         -1    1    6    6    0  502 -0.70257308193E+02 -0.53956943614E+02  0.74442017028E+02  0.11571108425E+03  0.00000000000E+00 0.  1.
<mgrwt>
<rscale>  0 0.15569287E+04</rscale>
<asrwt>0</asrwt>
<pdfrwt beam="1">  1        1 0.12760455E+00 0.15569287E+04</pdfrwt>
<pdfrwt beam="2">  1       -1 0.11240473E+00 0.15569287E+04</pdfrwt>
<totfact> 0.14559864E+01</totfact>
</mgrwt>
</event>
<event>
12    1  0.1556559E-007  0.2468970E+04  0.7818608E-02  0.8414124E-01
         -2   -1    0    0    0  501 -0.00000000000E+00  0.00000000000E+00  0.49549171102E+03  0.49549171102E+03  0.00000000000E+00 0.  1.
          2   -1    0    0  501    0  0.00000000000E+00 -0.00000000000E+00 -0.30756376327E+04  0.30756376327E+04  0.00000000000E+00 0. -1.
         23    2    1    2    0    0  0.15324733575E+03  0.21092923957E+03  0.37869218040E+03  0.46940532258E+03  0.94645123235E+02 0.  0.
        254    2    1    2    0    0 -0.15324733575E+03 -0.21092923957E+03 -0.29588381020E+04  0.31017240211E+04  0.89330459471E+03 0.  0.
        -24    2    4    4    0    0  0.22371576732E+03 -0.15739555660E+02 -0.23084476210E+04  0.23206886709E+04  0.79806078963E+02 0.  0.
         24    2    4    4    0    0 -0.37696310307E+03 -0.19518968391E+03 -0.65039048108E+03  0.78103535023E+03  0.82512099923E+02 0.  0.
         13    1    3    3    0    0  0.70311837209E+01  0.78020233059E+02  0.12989877426E+03  0.15169141658E+03  0.00000000000E+00 0. -1.
        -13    1    3    3    0    0  0.14621615203E+03  0.13290900651E+03  0.24879340614E+03  0.31771390600E+03  0.00000000000E+00 0.  1.
          2    1    6    6  502    0 -0.28376893910E+03 -0.17955203364E+03 -0.47352175868E+03  0.58050546899E+03  0.00000000000E+00 0. -1.
          3    1    5    5  503    0  0.22757198057E+03 -0.63052368738E+01 -0.21887711660E+04  0.22005790101E+04  0.00000000000E+00 0. -1.
         -4    1    5    5    0  503 -0.38562132464E+01 -0.94343187860E+01 -0.11967645492E+03  0.12010966078E+03  0.00000000000E+00 0.  1.
         -3    1    6    6    0  502 -0.93194163974E+02 -0.15637650276E+02 -0.17686872240E+03  0.20052988124E+03  0.00000000000E+00 0.  1.
<mgrwt>
<rscale>  0 0.24689698E+04</rscale>
<asrwt>0</asrwt>
<pdfrwt beam="1">  1        2 0.47317501E+00 0.24689698E+04</pdfrwt>
<pdfrwt beam="2">  1       -2 0.76229495E-01 0.24689698E+04</pdfrwt>
<totfact> 0.21486801E+00</totfact>
</mgrwt>
</event>
<event>
12    1  0.1556559E-007  0.1440068E+04  0.7818608E-02  0.8925315E-01
         -2   -1    0    0    0  501 -0.00000000000E+00  0.00000000000E+00  0.31082116629E+03  0.31082116629E+03  0.00000000000E+00 0.  1.
          2   -1    0    0  501    0  0.00000000000E+00 -0.00000000000E+00 -0.16679974555E+04  0.16679974555E+04  0.00000000000E+00 0. -1.
         23    2    1    2    0    0  0.20520105763E+03 -0.17005691723E+03  0.45706444816E+02  0.28571174404E+03  0.92278342179E+02 0.  0.
        254    2    1    2    0    0 -0.20520105763E+03  0.17005691723E+03 -0.14028827340E+04  0.16931068777E+04  0.90967252620E+03 0.  0.
        -24    2    4    4    0    0 -0.43990290804E+03  0.36353640609E+03 -0.11626811284E+04  0.12975841912E+04  0.78892584390E+02 0.  0.
         24    2    4    4    0    0  0.23470185041E+03 -0.19347948886E+03 -0.24020160562E+03  0.39552268655E+03  0.78880371687E+02 0.  0.
         11    1    3    3    0    0  0.19713032237E+03 -0.18069594348E+03  0.49209246211E+02  0.27190611965E+03  0.00000000000E+00 0.  1.
        -11    1    3    3    0    0  0.80707352627E+01  0.10639026255E+02 -0.35028013951E+01  0.13805624395E+02  0.00000000000E+00 0. -1.
          4    1    6    6  502    0  0.15134585375E+03 -0.80481148342E+02 -0.10757799274E+03  0.20237541157E+03  0.00000000000E+00 0. -1.
          1    1    5    5  503    0 -0.17628416443E+03  0.13089977587E+03 -0.53184795356E+03  0.57538952342E+03  0.00000000000E+00 0. -1.
         -2    1    5    5    0  503 -0.26361874361E+03  0.23263663021E+03 -0.63083317483E+03  0.72219466778E+03  0.00000000000E+00 0.  1.
         -3    1    6    6    0  502  0.83355996658E+02 -0.11299834052E+03 -0.13262361288E+03  0.19314727498E+03  0.00000000000E+00 0.  1.
<mgrwt>
<rscale>  0 0.14400679E+04</rscale>
<asrwt>0</asrwt>
<pdfrwt beam="1">  1        2 0.25661500E+00 0.14400679E+04</pdfrwt>
<pdfrwt beam="2">  1       -2 0.47818641E-01 0.14400679E+04</pdfrwt>
<totfact> 0.41084476E+01</totfact>
</mgrwt>
</event>
<event>
12    1  0.1556559E-007  0.2070710E+04  0.7818608E-02  0.8574257E-01
          2   -1    0    0  501    0  0.00000000000E+00  0.00000000000E+00  0.15567710901E+04  0.15567710901E+04  0.00000000000E+00 0. -1.
         -2   -1    0    0    0  501 -0.00000000000E+00 -0.00000000000E+00 -0.68857891932E+03  0.68857891932E+03  0.00000000000E+00 0.  1.
         23    2    1    2    0    0 -0.31116998106E+03 -0.60247610891E+03 -0.18294089942E+03  0.70807419017E+03  0.89985927685E+02 0.  0.
        254    2    1    2    0    0  0.31116998106E+03  0.60247610891E+03  0.10511330702E+04  0.15372758192E+04  0.89360617399E+03 0.  0.
        -24    2    4    4    0    0  0.51814310589E+03  0.70016459713E+02  0.37568476165E+03  0.64886478830E+03  0.80696285808E+02 0.  0.
         24    2    4    4    0    0 -0.20697312483E+03  0.53245964920E+03  0.67544830853E+03  0.88841103091E+03  0.81808251003E+02 0.  0.
         11    1    3    3    0    0 -0.37458320184E+01 -0.96396299633E+01 -0.17100104403E+02  0.19984176089E+02  0.00000000000E+00 0. -1.
        -11    1    3    3    0    0 -0.30742414904E+03 -0.59283647895E+03 -0.16584079502E+03  0.68809001408E+03  0.00000000000E+00 0.  1.
          4    1    6    6  502    0 -0.14556222900E+03  0.43504693423E+03  0.50020330768E+03  0.67871757493E+03  0.00000000000E+00 0. -1.
          3    1    5    5  503    0  0.48543937213E+03  0.81543496831E+02  0.36424005710E+03  0.61234920192E+03  0.00000000000E+00 0. -1.
         -4    1    5    5    0  503  0.32703733759E+02 -0.11527037118E+02  0.11444704549E+02  0.36515586381E+02  0.00000000000E+00 0.  1.
         -3    1    6    6    0  502 -0.61410895832E+02  0.97412714967E+02  0.17524500084E+03  0.20969345599E+03  0.00000000000E+00 0.  1.
<mgrwt>
<rscale>  0 0.20707098E+04</rscale>
<asrwt>0</asrwt>
<pdfrwt beam="1">  1        2 0.23950324E+00 0.20707098E+04</pdfrwt>
<pdfrwt beam="2">  1       -2 0.10593522E+00 0.20707098E+04</pdfrwt>
<totfact> 0.78393104E+00</totfact>
</mgrwt>
</event>
<event>
12    1  0.1556559E-007  0.1660492E+04  0.7818608E-02  0.8784224E-01
         -2   -1    0    0    0  501 -0.00000000000E+00  0.00000000000E+00  0.73763153352E+03  0.73763153352E+03  0.00000000000E+00 0. -1.
          2   -1    0    0  501    0  0.00000000000E+00 -0.00000000000E+00 -0.93448830194E+03  0.93448830194E+03  0.00000000000E+00 0.  1.
         23    2    1    2    0    0  0.53652099996E+03  0.61504179877E+02  0.12272900633E+03  0.56165720969E+03  0.93588806253E+02 0.  0.
        254    2    1    2    0    0 -0.53652099996E+03 -0.61504179877E+02 -0.31958577475E+03  0.11104626258E+04  0.91616299219E+03 0.  0.
        -24    2    4    4    0    0 -0.22325196234E+02 -0.15183363759E+01 -0.53674858912E+03  0.54334895524E+03  0.81414491983E+02 0.  0.
         24    2    4    4    0    0 -0.51419580373E+03 -0.59985843501E+02  0.21716281437E+03  0.56711367052E+03  0.80390306382E+02 0.  0.
         11    1    3    3    0    0 -0.51580527987E+00 -0.10260270571E+01  0.91110536958E+01  0.91831414045E+01  0.00000000000E+00 0.  1.
        -11    1    3    3    0    0  0.53703680524E+03  0.62530206934E+02  0.11361795264E+03  0.55247406828E+03  0.00000000000E+00 0. -1.
          2    1    6    6  502    0 -0.25559723451E+03 -0.83561583043E+01  0.14382644125E+03  0.29340384604E+03  0.00000000000E+00 0. -1.
          1    1    5    5  503    0 -0.23110901430E+02 -0.32681508722E+02 -0.14689063927E+03  0.15224669022E+03  0.00000000000E+00 0. -1.
         -2    1    5    5    0  503  0.78570519550E+00  0.31163172346E+02 -0.38985794985E+03  0.39110226503E+03  0.00000000000E+00 0.  1.
         -1    1    6    6    0  502 -0.25859856922E+03 -0.51629685197E+02  0.73336373118E+02  0.27370982448E+03  0.00000000000E+00 0.  1.
<mgrwt>
<rscale>  0 0.16604915E+04</rscale>
<asrwt>0</asrwt>
<pdfrwt beam="1">  1        2 0.14376743E+00 0.16604915E+04</pdfrwt>
<pdfrwt beam="2">  1       -2 0.11348177E+00 0.16604915E+04</pdfrwt>
<totfact> 0.16163096E+01</totfact>
</mgrwt>
</event>
<event>
12    1  0.1556559E-007  0.1761530E+04  0.7818608E-02  0.8727029E-01
         -2   -1    0    0    0  501 -0.00000000000E+00  0.00000000000E+00  0.45811317316E+03  0.45811317316E+03  0.00000000000E+00 0.  1.
          2   -1    0    0  501    0  0.00000000000E+00 -0.00000000000E+00 -0.16933528755E+04  0.16933528755E+04  0.00000000000E+00 0. -1.
         23    2    1    2    0    0 -0.24228290444E+03 -0.53999010958E+03 -0.75130596305E+03  0.96087762683E+03  0.92384194550E+02 0.  0.
        254    2    1    2    0    0  0.24228290444E+03  0.53999010958E+03 -0.48393373932E+03  0.11905884219E+04  0.91269852743E+03 0.  0.
        -24    2    4    4    0    0  0.26758417371E+03  0.66325431493E+03 -0.38241537922E+02  0.72063393477E+03  0.79644688626E+02 0.  0.
         24    2    4    4    0    0 -0.25301269270E+02 -0.12326420535E+03 -0.44569220139E+03  0.46995448708E+03  0.79884059720E+02 0.  0.
         11    1    3    3    0    0 -0.37948449303E+02 -0.10502274633E+03 -0.90138480648E+02  0.14350891172E+03  0.00000000000E+00 0.  1.
        -11    1    3    3    0    0 -0.20433445514E+03 -0.43496736325E+03 -0.66116748240E+03  0.81736871511E+03  0.00000000000E+00 0. -1.
          2    1    6    6  502    0 -0.27165046242E+02 -0.98335385066E+02 -0.42624175768E+03  0.43828053081E+03  0.00000000000E+00 0. -1.
          3    1    5    5  503    0  0.16716278162E+03  0.43174670786E+03  0.12885789420E+02  0.46315727229E+03  0.00000000000E+00 0. -1.
         -2    1    5    5    0  503  0.10042139208E+03  0.23150760708E+03 -0.51127327342E+02  0.25747666248E+03  0.00000000000E+00 0.  1.
         -1    1    6    6    0  502  0.18637769718E+01 -0.24928820287E+02 -0.19450443714E+02  0.31673956276E+02  0.00000000000E+00 0.  1.
<mgrwt>
<rscale>  0 0.17615303E+04</rscale>
<asrwt>0</asrwt>
<pdfrwt beam="1">  1        2 0.26051583E+00 0.17615303E+04</pdfrwt>
<pdfrwt beam="2">  1       -2 0.70478948E-01 0.17615303E+04</pdfrwt>
<totfact> 0.17151396E+01</totfact>
</mgrwt>
</event>
<event>
12    1  0.1556559E-007  0.1900672E+04  0.7818608E-02  0.8654522E-01
          1   -1    0    0  501    0  0.00000000000E+00  0.00000000000E+00  0.11541055153E+04  0.11541055153E+04  0.00000000000E+00 0. -1.
         -1   -1    0    0    0  501 -0.00000000000E+00 -0.00000000000E+00 -0.78254447773E+03  0.78254447773E+03  0.00000000000E+00 0.  1.
         23    2    1    2    0    0 -0.64662947024E+02 -0.14046041344E+02 -0.56984097969E+03  0.57973436860E+03  0.83633773105E+02 0.  0.
        254    2    1    2    0    0  0.64662947024E+02  0.14046041344E+02  0.94140201723E+03  0.13569156244E+04  0.97498905927E+03 0.  0.
        -24    2    4    4    0    0 -0.15911187497E+03  0.35441891510E+03  0.84149893924E+03  0.92992634125E+03  0.75585575845E+02 0.  0.
         24    2    4    4    0    0  0.22377482200E+03 -0.34037287375E+03  0.99903077987E+02  0.42698928314E+03  0.80064716199E+02 0.  0.
         13    1    3    3    0    0 -0.47264007703E+02 -0.31783785646E+02 -0.52806617495E+03  0.53112896794E+03  0.00000000000E+00 0.  1.
        -13    1    3    3    0    0 -0.17398939321E+02  0.17737744302E+02 -0.41774804740E+02  0.48605400661E+02  0.00000000000E+00 0. -1.
          2    1    6    6  502    0  0.12335492428E+03 -0.11609519185E+03  0.39299448546E+02  0.17389358116E+03  0.00000000000E+00 0. -1.
          3    1    5    5  503    0  0.58218667900E+01  0.33413398311E+02  0.55698620934E+02  0.65212619128E+02  0.00000000000E+00 0. -1.
         -4    1    5    5    0  503 -0.16493374176E+03  0.32100551679E+03  0.78580031831E+03  0.86471372212E+03  0.00000000000E+00 0.  1.
         -1    1    6    6    0  502  0.10041989772E+03 -0.22427768191E+03  0.60603629441E+02  0.25309570198E+03  0.00000000000E+00 0.  1.
<mgrwt>
<rscale>  0 0.19006724E+04</rscale>
<asrwt>0</asrwt>
<pdfrwt beam="1">  1        1 0.17755470E+00 0.19006724E+04</pdfrwt>
<pdfrwt beam="2">  1       -1 0.12039146E+00 0.19006724E+04</pdfrwt>
<totfact> 0.66377099E+00</totfact>
</mgrwt>
</event>
<event>
12    1  0.1556559E-007  0.4076084E+04  0.7818608E-02  0.7989372E-01
         -1   -1    0    0    0  501 -0.00000000000E+00  0.00000000000E+00  0.20538511913E+04  0.20538511913E+04  0.00000000000E+00 0.  1.
          1   -1    0    0  501    0  0.00000000000E+00 -0.00000000000E+00 -0.20223541727E+04  0.20223541727E+04  0.00000000000E+00 0. -1.
         23    2    1    2    0    0  0.34660616781E+03  0.34790078756E+03  0.18873422936E+04  0.19522949422E+04  0.90685249688E+02 0.  0.
        254    2    1    2    0    0 -0.34660616781E+03 -0.34790078756E+03 -0.18558452749E+04  0.21239104218E+04  0.90866000345E+03 0.  0.
        -24    2    4    4    0    0  0.22728028438E+03  0.56147834128E+02 -0.18121656084E+03  0.30639819691E+03  0.78939889807E+02 0.  0.
         24    2    4    4    0    0 -0.57388645219E+03 -0.40404862169E+03 -0.16746287141E+04  0.18175122249E+04  0.79802311549E+02 0.  0.
         13    1    3    3    0    0  0.14894180241E+02  0.48810477937E+01  0.14323029106E+03  0.14408531331E+03  0.00000000000E+00 0. -1.
        -13    1    3    3    0    0  0.33171198757E+03  0.34301973977E+03  0.17441120025E+04  0.18082096289E+04  0.00000000000E+00 0.  1.
          4    1    6    6  502    0 -0.47483161694E+03 -0.34097152952E+03 -0.14633301964E+04  0.15757734330E+04  0.00000000000E+00 0. -1.
          3    1    5    5  503    0  0.19915688013E+02 -0.10253371956E+02  0.10771561792E+01  0.22426023520E+02  0.00000000000E+00 0. -1.
         -2    1    5    5    0  503  0.20736459637E+03  0.66401206084E+02 -0.18229371702E+03  0.28397217339E+03  0.00000000000E+00 0.  1.
         -3    1    6    6    0  502 -0.99054835248E+02 -0.63077092172E+02 -0.21129851767E+03  0.24173879190E+03  0.00000000000E+00 0.  1.
<mgrwt>
<rscale>  0 0.40760837E+04</rscale>
<asrwt>0</asrwt>
<pdfrwt beam="1">  1        1 0.31113141E+00 0.40760837E+04</pdfrwt>
<pdfrwt beam="2">  1       -1 0.31597711E+00 0.40760837E+04</pdfrwt>
<totfact> 0.58188468E-02</totfact>
</mgrwt>
</event>
<event>
12    1  0.1556559E-007  0.1862134E+04  0.7818608E-02  0.8673937E-01
         -2   -1    0    0    0  501 -0.00000000000E+00  0.00000000000E+00  0.10568934924E+04  0.10568934924E+04  0.00000000000E+00 0.  1.
          2   -1    0    0  501    0  0.00000000000E+00 -0.00000000000E+00 -0.82022097905E+03  0.82022097905E+03  0.00000000000E+00 0. -1.
         23    2    1    2    0    0  0.16105784985E+03  0.25856042231E+03  0.72401754571E+03  0.79063384882E+03  0.90040843060E+02 0.  0.
        254    2    1    2    0    0 -0.16105784985E+03 -0.25856042231E+03 -0.48734503234E+03  0.10864806226E+04  0.92203136597E+03 0.  0.
        -24    2    4    4    0    0 -0.38708448776E+03  0.17521689057E+03 -0.38813732763E+03  0.58085383298E+03  0.78773287243E+02 0.  0.
         24    2    4    4    0    0  0.22602663791E+03 -0.43377731289E+03 -0.99207704719E+02  0.50562678966E+03  0.81027671388E+02 0.  0.
         11    1    3    3    0    0 -0.31248895211E+01  0.57997157363E+02  0.11825565852E+03  0.13174914029E+03  0.00000000000E+00 0. -1.
        -11    1    3    3    0    0  0.16418273937E+03  0.20056326495E+03  0.60576188719E+03  0.65888470852E+03  0.00000000000E+00 0.  1.
          2    1    6    6  502    0  0.19955467279E+03 -0.36244652027E+03 -0.11160605626E+03  0.42853874887E+03  0.00000000000E+00 0. -1.
          1    1    5    5  503    0 -0.22122814449E+03  0.14230173156E+03 -0.23684409150E+03  0.35395875239E+03  0.00000000000E+00 0. -1.
         -2    1    5    5    0  503 -0.16585634327E+03  0.32915159018E+02 -0.15129323613E+03  0.22689508058E+03  0.00000000000E+00 0.  1.
         -1    1    6    6    0  502  0.26471965124E+02 -0.71330792615E+02  0.12398351544E+02  0.77088040795E+02  0.00000000000E+00 0.  1.
<mgrwt>
<rscale>  0 0.18621345E+04</rscale>
<asrwt>0</asrwt>
<pdfrwt beam="1">  1        2 0.12618784E+00 0.18621345E+04</pdfrwt>
<pdfrwt beam="2">  1       -2 0.16259900E+00 0.18621345E+04</pdfrwt>
<totfact> 0.75398081E+00</totfact>
</mgrwt>
</event>
<event>
12    1  0.1556559E-007  0.2001346E+04  0.7818608E-02  0.8605992E-01
         -1   -1    0    0    0  501 -0.00000000000E+00  0.00000000000E+00  0.34365317874E+03  0.34365317874E+03  0.00000000000E+00 0.  1.
          1   -1    0    0  501    0  0.00000000000E+00 -0.00000000000E+00 -0.29138275059E+04  0.29138275059E+04  0.00000000000E+00 0. -1.
         23    2    1    2    0    0  0.24048724883E+03  0.58552973576E+03 -0.17885812534E+04  0.18997311144E+04  0.96313127663E+02 0.  0.
        254    2    1    2    0    0 -0.24048724883E+03 -0.58552973576E+03 -0.78159307377E+03  0.13577495703E+04  0.91209482750E+03 0.  0.
        -24    2    4    4    0    0  0.31808714705E+03 -0.17909243746E+03 -0.45660911157E+03  0.59004717545E+03  0.80064063158E+02 0.  0.
         24    2    4    4    0    0 -0.55857439588E+03 -0.40643729830E+03 -0.32498396220E+03  0.76770239484E+03  0.80967636646E+02 0.  0.
         11    1    3    3    0    0  0.19313265689E+03  0.54128531016E+03 -0.15776269848E+04  0.16790464298E+04  0.00000000000E+00 0. -1.
        -11    1    3    3    0    0  0.47354591939E+02  0.44244425604E+02 -0.21095426858E+03  0.22068468458E+03  0.00000000000E+00 0.  1.
          2    1    6    6  502    0 -0.25647973313E+03 -0.13984979127E+03 -0.15087102337E+03  0.32878850849E+03  0.00000000000E+00 0. -1.
          1    1    5    5  503    0  0.12359544429E+02  0.84326471740E+01 -0.15758722500E+02  0.21730283286E+02  0.00000000000E+00 0. -1.
         -4    1    5    5    0  503  0.30572760262E+03 -0.18752508464E+03 -0.44085038907E+03  0.56831689216E+03  0.00000000000E+00 0.  1.
         -1    1    6    6    0  502 -0.30209466275E+03 -0.26658750702E+03 -0.17411293883E+03  0.43891388635E+03  0.00000000000E+00 0.  1.
<mgrwt>
<rscale>  0 0.20013456E+04</rscale>
<asrwt>0</asrwt>
<pdfrwt beam="1">  1        1 0.44828118E+00 0.20013456E+04</pdfrwt>
<pdfrwt beam="2">  1       -1 0.52869717E-01 0.20013456E+04</pdfrwt>
<totfact> 0.23132963E+00</totfact>
</mgrwt>
</event>
<event>
12    1  0.1556559E-007  0.1392217E+04  0.7818608E-02  0.8959471E-01
          2   -1    0    0  501    0  0.00000000000E+00  0.00000000000E+00  0.29457482555E+03  0.29457482555E+03  0.00000000000E+00 0.  1.
         -2   -1    0    0    0  501 -0.00000000000E+00 -0.00000000000E+00 -0.16449716584E+04  0.16449716584E+04  0.00000000000E+00 0. -1.
         23    2    1    2    0    0  0.69254954269E+02 -0.34787284915E+03 -0.11717570865E+03  0.38197956443E+03  0.79790181577E+02 0.  0.
        254    2    1    2    0    0 -0.69254954269E+02  0.34787284915E+03 -0.12332211242E+04  0.15575669195E+04  0.88281855428E+03 0.  0.
        -24    2    4    4    0    0 -0.41020449296E+03  0.28972041874E+03 -0.38615498287E+03  0.63919458591E+03  0.85137540438E+02 0.  0.
         24    2    4    4    0    0  0.34094953869E+03  0.58152430413E+02 -0.84706614135E+03  0.91837233363E+03  0.79110064241E+02 0.  0.
         13    1    3    3    0    0  0.28680470278E+02 -0.37474188535E+02 -0.33742477416E+02  0.58012403535E+02  0.00000000000E+00 0. -1.
        -13    1    3    3    0    0  0.40574483991E+02 -0.31039866062E+03 -0.83433231238E+02  0.32396716090E+03  0.00000000000E+00 0.  1.
          2    1    6    6  502    0  0.26299583050E+03  0.76997587633E+02 -0.63274427401E+03  0.68953662097E+03  0.00000000000E+00 0. -1.
          3    1    5    5  503    0 -0.41174756663E+03  0.27667694722E+03 -0.37352297835E+03  0.62097150265E+03  0.00000000000E+00 0. -1.
         -4    1    5    5    0  503  0.15430736681E+01  0.13043471520E+02 -0.12632004513E+02  0.18223083264E+02  0.00000000000E+00 0.  1.
         -1    1    6    6    0  502  0.77953708191E+02 -0.18845157220E+02 -0.21432186734E+03  0.22883571266E+03  0.00000000000E+00 0.  1.
<mgrwt>
<rscale>  0 0.13922173E+04</rscale>
<asrwt>0</asrwt>
<pdfrwt beam="1">  1        2 0.45319204E-01 0.13922173E+04</pdfrwt>
<pdfrwt beam="2">  1       -2 0.25307256E+00 0.13922173E+04</pdfrwt>
<totfact> 0.67228474E+00</totfact>
</mgrwt>
</event>
<event>
12    1  0.1556559E-007  0.1226282E+04  0.7818608E-02  0.9090158E-01
         -1   -1    0    0    0  501 -0.00000000000E+00  0.00000000000E+00  0.64768550649E+03  0.64768550649E+03  0.00000000000E+00 0.  1.
          1   -1    0    0  501    0  0.00000000000E+00 -0.00000000000E+00 -0.58043899163E+03  0.58043899163E+03  0.00000000000E+00 0. -1.
         23    2    1    2    0    0 -0.11679758646E+03  0.11580794303E+01 -0.22398704592E+03  0.26851303813E+03  0.91027674662E+02 0.  0.
        254    2    1    2    0    0  0.11679758646E+03 -0.11580794303E+01  0.29123356078E+03  0.95961146000E+03  0.90685949843E+03 0.  0.
        -24    2    4    4    0    0  0.76063034396E+02  0.28845176145E+03 -0.21013124732E+03  0.37342859527E+03  0.79396289481E+02 0.  0.
         24    2    4    4    0    0  0.40734552068E+02 -0.28960984088E+03  0.50136480810E+03  0.58618286473E+03  0.81917741879E+02 0.  0.
         13    1    3    3    0    0 -0.33187651178E+02 -0.42366125046E+02 -0.82673289382E+02  0.98646751185E+02  0.00000000000E+00 0.  1.
        -13    1    3    3    0    0 -0.83609935286E+02  0.43524204476E+02 -0.14131375654E+03  0.16986628694E+03  0.00000000000E+00 0. -1.
          4    1    6    6  502    0  0.29250414072E+02 -0.26263638419E+03  0.48571962167E+03  0.55295298886E+03  0.00000000000E+00 0. -1.
          3    1    5    5  503    0  0.87632356957E+02  0.28028652193E+03 -0.20587394573E+03  0.35864194664E+03  0.00000000000E+00 0. -1.
         -4    1    5    5    0  503 -0.11569322560E+02  0.81652395188E+01 -0.42573015909E+01  0.14786648631E+02  0.00000000000E+00 0.  1.
         -3    1    6    6    0  502  0.11484137995E+02 -0.26973456692E+02  0.15645186432E+02  0.33229875863E+02  0.00000000000E+00 0.  1.
<mgrwt>
<rscale>  0 0.12262821E+04</rscale>
<asrwt>0</asrwt>
<pdfrwt beam="1">  1        1 0.89298306E-01 0.12262821E+04</pdfrwt>
<pdfrwt beam="2">  1       -1 0.99643925E-01 0.12262821E+04</pdfrwt>
<totfact> 0.34121031E+01</totfact>
</mgrwt>
</event>
<event>
12    1  0.1556559E-007  0.1267044E+04  0.7818608E-02  0.9056116E-01
         -2   -1    0    0    0  501 -0.00000000000E+00  0.00000000000E+00  0.12696819425E+03  0.12696819425E+03  0.00000000000E+00 0. -1.
          2   -1    0    0  501    0  0.00000000000E+00 -0.00000000000E+00 -0.31610298588E+04  0.31610298588E+04  0.00000000000E+00 0.  1.
         23    2    1    2    0    0 -0.16235946468E+03 -0.75331183731E+01 -0.13304714593E+04  0.13436414801E+04  0.93812469001E+02 0.  0.
        254    2    1    2    0    0  0.16235946468E+03  0.75331183731E+01 -0.17035902052E+04  0.19443565729E+04  0.92297646326E+03 0.  0.
        -24    2    4    4    0    0 -0.14792418883E+03  0.39787069259E+03 -0.76798749081E+03  0.88121684078E+03  0.80967158637E+02 0.  0.
         24    2    4    4    0    0  0.31028365352E+03 -0.39033757422E+03 -0.93560271436E+03  0.10631397321E+04  0.79210374069E+02 0.  0.
         13    1    3    3    0    0 -0.37626880321E+01 -0.10705329765E+02 -0.36882682323E+03  0.36900133800E+03  0.00000000000E+00 0. -1.
        -13    1    3    3    0    0 -0.15859677665E+03  0.31722113915E+01 -0.96164463611E+03  0.97464014213E+03  0.00000000000E+00 0.  1.
          4    1    6    6  502    0  0.19864736075E+02 -0.49025100132E+02 -0.14510920328E+03  0.15444982700E+03  0.00000000000E+00 0. -1.
          1    1    5    5  503    0 -0.32502903821E+02  0.10184164698E+03 -0.12857497634E+03  0.16721149589E+03  0.00000000000E+00 0. -1.
         -2    1    5    5    0  503 -0.11542128501E+03  0.29602904561E+03 -0.63941251447E+03  0.71400534490E+03  0.00000000000E+00 0.  1.
         -3    1    6    6    0  502  0.29041891744E+03 -0.34131247409E+03 -0.79049351108E+03  0.90868990510E+03  0.00000000000E+00 0.  1.
<mgrwt>
<rscale>  0 0.12670442E+04</rscale>
<asrwt>0</asrwt>
<pdfrwt beam="1">  1        2 0.48631226E+00 0.12670442E+04</pdfrwt>
<pdfrwt beam="2">  1       -2 0.19533569E-01 0.12670442E+04</pdfrwt>
<totfact> 0.30548643E+01</totfact>
</mgrwt>
</event>
<event>
12    1  0.1556559E-007  0.1203129E+04  0.7818608E-02  0.9110122E-01
          1   -1    0    0  501    0  0.00000000000E+00  0.00000000000E+00  0.79524124176E+03  0.79524124176E+03  0.00000000000E+00 0. -1.
         -1   -1    0    0    0  501 -0.00000000000E+00 -0.00000000000E+00 -0.45505688600E+03  0.45505688600E+03  0.00000000000E+00 0.  1.
         23    2    1    2    0    0 -0.81511242042E+02 -0.22368537757E+03  0.15939441041E+03  0.30083947311E+03  0.91752818986E+02 0.  0.
        254    2    1    2    0    0  0.81511242042E+02  0.22368537757E+03  0.18078994536E+03  0.94945865465E+03  0.90117007375E+03 0.  0.
        -24    2    4    4    0    0  0.92144733371E+02  0.38485332694E+03  0.46342018512E+03  0.61427909719E+03  0.77316273369E+02 0.  0.
         24    2    4    4    0    0 -0.10633491329E+02 -0.16116794937E+03 -0.28263023976E+03  0.33517955746E+03  0.79858025710E+02 0.  0.
         13    1    3    3    0    0  0.18080731357E+02 -0.67648788870E+02  0.42644358130E+02  0.81986662100E+02  0.00000000000E+00 0.  1.
        -13    1    3    3    0    0 -0.99591973399E+02 -0.15603658870E+03  0.11675005228E+03  0.21885281101E+03  0.00000000000E+00 0. -1.
          2    1    6    6  502    0 -0.28055387674E+02 -0.47887957982E+02 -0.14972745225E+03  0.15968303371E+03  0.00000000000E+00 0. -1.
          3    1    5    5  503    0  0.76351422083E+02  0.15623320138E+03  0.19149677487E+03  0.25866845121E+03  0.00000000000E+00 0. -1.
         -4    1    5    5    0  503  0.15793311289E+02  0.22862012556E+03  0.27192341025E+03  0.35561064598E+03  0.00000000000E+00 0.  1.
         -1    1    6    6    0  502  0.17421896345E+02 -0.11327999138E+03 -0.13290278751E+03  0.17549652375E+03  0.00000000000E+00 0.  1.
<mgrwt>
<rscale>  0 0.12031293E+04</rscale>
<asrwt>0</asrwt>
<pdfrwt beam="1">  1        1 0.12234481E+00 0.12031293E+04</pdfrwt>
<pdfrwt beam="2">  1       -1 0.70008752E-01 0.12031293E+04</pdfrwt>
<totfact> 0.45575195E+01</totfact>
</mgrwt>
</event>
<event>
12    1  0.1556559E-007  0.1329887E+04  0.7818608E-02  0.9006194E-01
          2   -1    0    0  501    0  0.00000000000E+00  0.00000000000E+00  0.15937559362E+04  0.15937559362E+04  0.00000000000E+00 0. -1.
         -2   -1    0    0    0  501 -0.00000000000E+00 -0.00000000000E+00 -0.27742652582E+03  0.27742652582E+03  0.00000000000E+00 0.  1.
         23    2    1    2    0    0  0.29692763946E+03 -0.37191459074E+02  0.10960954389E+03  0.33166653508E+03  0.91865176644E+02 0.  0.
        254    2    1    2    0    0 -0.29692763946E+03  0.37191459074E+02  0.12067198665E+04  0.15395159269E+04  0.90795772223E+03 0.  0.
        -24    2    4    4    0    0 -0.23445711056E+03  0.14722249527E+03  0.13207161204E+04  0.13517678488E+04  0.79628177347E+02 0.  0.
         24    2    4    4    0    0 -0.62470528896E+02 -0.11003103619E+03 -0.11399625392E+03  0.18774807809E+03  0.79024040721E+02 0.  0.
         13    1    3    3    0    0  0.13475483420E+02  0.67626359936E+01 -0.12820642266E+02  0.19791179022E+02  0.00000000000E+00 0. -1.
        -13    1    3    3    0    0  0.28345215604E+03 -0.43954095067E+02  0.12243018616E+03  0.31187535606E+03  0.00000000000E+00 0.  1.
          4    1    6    6  502    0 -0.38940624454E+02 -0.35839446596E+02 -0.93210545817E+02  0.10718695824E+03  0.00000000000E+00 0. -1.
          1    1    5    5  503    0 -0.15011942104E+03  0.13581636226E+03  0.96612882213E+03  0.98711034124E+03  0.00000000000E+00 0. -1.
         -2    1    5    5    0  503 -0.84337689526E+02  0.11406133005E+02  0.35458729824E+03  0.36465750756E+03  0.00000000000E+00 0.  1.
         -3    1    6    6    0  502 -0.23529904442E+02 -0.74191589598E+02 -0.20785708104E+02  0.80561119850E+02  0.00000000000E+00 0.  1.
<mgrwt>
<rscale>  0 0.13298875E+04</rscale>
<asrwt>0</asrwt>
<pdfrwt beam="1">  1        2 0.24519322E+00 0.13298875E+04</pdfrwt>
<pdfrwt beam="2">  1       -2 0.42681005E-01 0.13298875E+04</pdfrwt>
<totfact> 0.57209894E+01</totfact>
</mgrwt>
</event>
<event>
12    1  0.1556559E-007  0.1475347E+04  0.7818608E-02  0.8901015E-01
         -2   -1    0    0    0  501 -0.00000000000E+00  0.00000000000E+00  0.79017764628E+03  0.79017764628E+03  0.00000000000E+00 0.  1.
          2   -1    0    0  501    0  0.00000000000E+00 -0.00000000000E+00 -0.68865775933E+03  0.68865775933E+03  0.00000000000E+00 0. -1.
         23    2    1    2    0    0 -0.35276222023E+03 -0.28434133856E+03 -0.69840618438E+02  0.46717641856E+03  0.89916145609E+02 0.  0.
        254    2    1    2    0    0  0.35276222023E+03  0.28434133856E+03  0.17136050538E+03  0.10116589870E+04  0.88814317676E+03 0.  0.
        -24    2    4    4    0    0  0.28040611699E+03 -0.26817277066E+03 -0.64585254201E+02  0.40110520271E+03  0.78548731400E+02 0.  0.
         24    2    4    4    0    0  0.72356103236E+02  0.55251410923E+03  0.23594575958E+03  0.61055378434E+03  0.81229770005E+02 0.  0.
         13    1    3    3    0    0 -0.32077725586E+03 -0.27820134916E+03 -0.81917963555E+02  0.43244027484E+03  0.00000000000E+00 0. -1.
        -13    1    3    3    0    0 -0.31984964369E+02 -0.61399894001E+01  0.12077345116E+02  0.34736143720E+02  0.00000000000E+00 0.  1.
          2    1    6    6  502    0  0.88387826031E+02  0.49649201662E+03  0.20307295299E+03  0.54365002952E+03  0.00000000000E+00 0. -1.
          1    1    5    5  503    0  0.23484156795E+03 -0.23114083561E+03 -0.25341972154E+02  0.33048277334E+03  0.00000000000E+00 0. -1.
         -2    1    5    5    0  503  0.45564549042E+02 -0.37031935056E+02 -0.39243282046E+02  0.70622429363E+02  0.00000000000E+00 0.  1.
         -1    1    6    6    0  502 -0.16031722796E+02  0.56022092605E+02  0.32872806598E+02  0.66903754822E+02  0.00000000000E+00 0.  1.
<mgrwt>
<rscale>  0 0.14753467E+04</rscale>
<asrwt>0</asrwt>
<pdfrwt beam="1">  1        2 0.10594735E+00 0.14753467E+04</pdfrwt>
<pdfrwt beam="2">  1       -2 0.12156579E+00 0.14753467E+04</pdfrwt>
<totfact> 0.20812747E+01</totfact>
</mgrwt>
</event>
<event>
12    1  0.1556559E-007  0.1969590E+04  0.7818608E-02  0.8620972E-01
         -1   -1    0    0    0  501 -0.00000000000E+00  0.00000000000E+00  0.76640879640E+03  0.76640879640E+03  0.00000000000E+00 0.  1.
          1   -1    0    0  501    0  0.00000000000E+00 -0.00000000000E+00 -0.12654100604E+04  0.12654100604E+04  0.00000000000E+00 0. -1.
         23    2    1    2    0    0 -0.42326911680E+03 -0.60773665043E+03 -0.44412433446E+03  0.86855737089E+03  0.92977957429E+02 0.  0.
        254    2    1    2    0    0  0.42326911680E+03  0.60773665043E+03 -0.54876929508E+02  0.11632614859E+04  0.89535759649E+03 0.  0.
        -24    2    4    4    0    0  0.40554815738E+03  0.79871438396E+03  0.98367634314E+02  0.90468084276E+03  0.79732431732E+02 0.  0.
         24    2    4    4    0    0  0.17720959420E+02 -0.19097773353E+03 -0.15324456382E+03  0.25858064311E+03  0.81200526734E+02 0.  0.
         11    1    3    3    0    0 -0.42041712266E+03 -0.56899301684E+03 -0.41762485602E+03  0.82153157614E+03  0.00000000000E+00 0. -1.
        -11    1    3    3    0    0 -0.28519941378E+01 -0.38743633590E+02 -0.26499478439E+02  0.47025794750E+02  0.00000000000E+00 0.  1.
          4    1    6    6  502    0 -0.24137836593E+02 -0.12771435846E+03 -0.11537366532E+03  0.17379492272E+03  0.00000000000E+00 0. -1.
          3    1    5    5  503    0  0.18063139961E+03  0.27676769407E+03  0.21998310917E+02  0.33122799502E+03  0.00000000000E+00 0. -1.
         -4    1    5    5    0  503  0.22491675777E+03  0.52194668989E+03  0.76369323397E+02  0.57345284773E+03  0.00000000000E+00 0.  1.
         -3    1    6    6    0  502  0.41858796013E+02 -0.63263375074E+02 -0.37870898498E+02  0.84785720393E+02  0.00000000000E+00 0.  1.
<mgrwt>
<rscale>  0 0.19695902E+04</rscale>
<asrwt>0</asrwt>
<pdfrwt beam="1">  1        1 0.19467847E+00 0.19695902E+04</pdfrwt>
<pdfrwt beam="2">  1       -1 0.11790905E+00 0.19695902E+04</pdfrwt>
<totfact> 0.57574697E+00</totfact>
</mgrwt>
</event>
<event>
12    1  0.1556559E-007  0.2316124E+04  0.7818608E-02  0.8471591E-01
         -2   -1    0    0    0  501 -0.00000000000E+00  0.00000000000E+00  0.81900809842E+03  0.81900809842E+03  0.00000000000E+00 0.  1.
          2   -1    0    0  501    0  0.00000000000E+00 -0.00000000000E+00 -0.16374780820E+04  0.16374780820E+04  0.00000000000E+00 0. -1.
         23    2    1    2    0    0 -0.12067824311E+03 -0.60714782149E+03 -0.11483106451E+04  0.13078850154E+04  0.93563670027E+02 0.  0.
        254    2    1    2    0    0  0.12067824311E+03  0.60714782149E+03  0.32984066152E+03  0.11486011650E+04  0.90955926622E+03 0.  0.
        -24    2    4    4    0    0  0.35184917268E+02  0.36391298118E+03 -0.28944065204E+03  0.47291783771E+03  0.78770260243E+02 0.  0.
         24    2    4    4    0    0  0.85493325846E+02  0.24323484031E+03  0.61928131356E+03  0.67568332730E+03  0.81032815319E+02 0.  0.
         11    1    3    3    0    0 -0.14047586066E+02 -0.74181970334E+01 -0.18980504197E+02  0.24751239587E+02  0.00000000000E+00 0.  1.
        -11    1    3    3    0    0 -0.10663065705E+03 -0.59972962446E+03 -0.11293301409E+04  0.12831337758E+04  0.00000000000E+00 0. -1.
          4    1    6    6  502    0  0.64503989462E+02  0.22526935716E+03  0.48563156154E+03  0.53920780920E+03  0.00000000000E+00 0. -1.
          1    1    5    5  503    0 -0.22347302806E+02  0.57712619299E+02 -0.57819440641E+02  0.84694959030E+02  0.00000000000E+00 0. -1.
         -2    1    5    5    0  503  0.57532220073E+02  0.30620036188E+03 -0.23162121140E+03  0.38822287868E+03  0.00000000000E+00 0.  1.
         -3    1    6    6    0  502  0.20989336384E+02  0.17965483150E+02  0.13364975202E+03  0.13647551810E+03  0.00000000000E+00 0.  1.
<mgrwt>
<rscale>  0 0.23161242E+04</rscale>
<asrwt>0</asrwt>
<pdfrwt beam="1">  1        2 0.25191970E+00 0.23161242E+04</pdfrwt>
<pdfrwt beam="2">  1       -2 0.12600125E+00 0.23161242E+04</pdfrwt>
<totfact> 0.45223555E+00</totfact>
</mgrwt>
</event>
<event>
12    1  0.1556559E-007  0.1076015E+04  0.7818608E-02  0.9228889E-01
          2   -1    0    0  501    0  0.00000000000E+00  0.00000000000E+00  0.89250252689E+03  0.89250252689E+03  0.00000000000E+00 0. -1.
         -2   -1    0    0    0  501 -0.00000000000E+00 -0.00000000000E+00 -0.32431532349E+03  0.32431532349E+03  0.00000000000E+00 0.  1.
         23    2    1    2    0    0  0.87236806934E+02 -0.48635908207E+02  0.19097693095E+03  0.23468283783E+03  0.92887750348E+02 0.  0.
        254    2    1    2    0    0 -0.87236806934E+02  0.48635908207E+02  0.37721027245E+03  0.98213501256E+03  0.90129122996E+03 0.  0.
        -24    2    4    4    0    0 -0.42637826392E+03  0.18657983034E+03  0.33771818422E+02  0.47369290118E+03  0.81449198127E+02 0.  0.
         24    2    4    4    0    0  0.33914145699E+03 -0.13794392213E+03  0.34343845403E+03  0.50844211138E+03  0.80733855446E+02 0.  0.
         11    1    3    3    0    0  0.38716816729E+02 -0.16039149947E+02  0.16584197384E+03  0.17105498098E+03  0.00000000000E+00 0. -1.
        -11    1    3    3    0    0  0.48519990205E+02 -0.32596758260E+02  0.25134957103E+02  0.63627856849E+02  0.00000000000E+00 0.  1.
          2    1    6    6  502    0  0.24137458934E+03 -0.66605454238E+02  0.26292520844E+03  0.36308076808E+03  0.00000000000E+00 0. -1.
          3    1    5    5  503    0 -0.10421785314E+03  0.39368000433E+02 -0.26213490367E+02  0.11444801199E+03  0.00000000000E+00 0. -1.
         -4    1    5    5    0  503 -0.32216041078E+03  0.14721182991E+03  0.59985308789E+02  0.35924488919E+03  0.00000000000E+00 0.  1.
         -1    1    6    6    0  502  0.97766867644E+02 -0.71338467894E+02  0.80513245588E+02  0.14536134330E+03  0.00000000000E+00 0.  1.
<mgrwt>
<rscale>  0 0.10760153E+04</rscale>
<asrwt>0</asrwt>
<pdfrwt beam="1">  1        2 0.13730808E+00 0.10760153E+04</pdfrwt>
<pdfrwt beam="2">  1       -2 0.49894665E-01 0.10760153E+04</pdfrwt>
<totfact> 0.11209242E+02</totfact>
</mgrwt>
</event>
