<event>
12    1  0.1201209E-007  0.5788267E+04  0.7818608E-02  0.7717223E-01
          1   -1    0    0  501    0  0.00000000000E+00  0.00000000000E+00  0.33657374588E+04  0.33657374588E+04  0.00000000000E+00 0. -1.
         -1   -1    0    0    0  501 -0.00000000000E+00 -0.00000000000E+00 -0.24886103735E+04  0.24886103735E+04  0.00000000000E+00 0.  1.
         23    2    1    2    0    0 -0.25916463824E+04  0.22799824871E+03 -0.68129074042E+03  0.26908876742E+04  0.90029048654E+02 0.  0.
        254    2    1    2    0    0  0.25916463824E+04 -0.22799824871E+03  0.15584178257E+04  0.31634601581E+04  0.90011103732E+03 0.  0.
        -24    2    4    4    0    0  0.74673838409E+03 -0.19093662948E+03  0.46506256862E+02  0.77653836083E+03  0.82304211105E+02 0.  0.
         24    2    4    4    0    0  0.18449079983E+04 -0.37061619236E+02  0.15119115689E+04  0.23869217972E+04  0.80374052645E+02 0.  0.
         11    1    3    3    0    0 -0.79558205730E+03  0.47613083171E+02 -0.17260163899E+03  0.81548092643E+03  0.00000000000E+00 0.  1.
        -11    1    3    3    0    0 -0.17960643251E+04  0.18038516554E+03 -0.50868910143E+03  0.18754067478E+04  0.00000000000E+00 0. -1.
          2    1    6    6  502    0  0.40074018627E+03 -0.32642677528E+02  0.30084645817E+03  0.50216215776E+03  0.00000000000E+00 0. -1.
          3    1    5    5  503    0  0.12390201985E+03 -0.52743968904E+02  0.31900582133E+02  0.13838816394E+03  0.00000000000E+00 0. -1.
         -4    1    5    5    0  503  0.62283636424E+03 -0.13819266057E+03  0.14605674728E+02  0.63815019689E+03  0.00000000000E+00 0.  1.
         -1    1    6    6    0  502  0.14441678120E+04 -0.44189417075E+01  0.12110651107E+04  0.18847596395E+04  0.00000000000E+00 0.  1.
<mgrwt>
<rscale>  0 0.57882672E+04</rscale>
<asrwt>0</asrwt>
<pdfrwt beam="1">  1        1 0.51780576E+00 0.57882672E+04</pdfrwt>
<pdfrwt beam="2">  1       -1 0.38286313E+00 0.57882672E+04</pdfrwt>
<totfact> 0.20194829E-03</totfact>
</mgrwt>
</event>
<event>
12    1  0.1201209E-007  0.1975104E+04  0.7818608E-02  0.8618350E-01
         -1   -1    0    0    0  501 -0.00000000000E+00  0.00000000000E+00  0.63165068434E+03  0.63165068434E+03  0.00000000000E+00 0.  1.
          1   -1    0    0  501    0  0.00000000000E+00 -0.00000000000E+00 -0.15439838927E+04  0.15439838927E+04  0.00000000000E+00 0. -1.
         23    2    1    2    0    0 -0.54509818806E+03  0.54320757659E+03 -0.41728519654E+03  0.88023539854E+03  0.92091887296E+02 0.  0.
        254    2    1    2    0    0  0.54509818806E+03 -0.54320757659E+03 -0.49504801180E+03  0.12953991785E+04  0.91694056062E+03 0.  0.
        -24    2    4    4    0    0 -0.11133877332E+03  0.12091289439E+03  0.75621423355E+02  0.19824171650E+03  0.81024243380E+02 0.  0.
         24    2    4    4    0    0  0.65643696137E+03 -0.66412047099E+03 -0.57066943515E+03  0.10971574620E+04  0.78264985271E+02 0.  0.
         11    1    3    3    0    0 -0.52262381155E+03  0.48722658039E+03 -0.39014285297E+03  0.81408650324E+03  0.00000000000E+00 0.  1.
        -11    1    3    3    0    0 -0.22474376511E+02  0.55980996201E+02 -0.27142343567E+02  0.66148895301E+02  0.00000000000E+00 0. -1.
          4    1    6    6  502    0  0.43011152829E+03 -0.48466603257E+03 -0.40596586462E+03  0.76466029917E+03  0.00000000000E+00 0. -1.
          1    1    5    5  503    0 -0.75624337846E+02  0.12244937940E+03  0.75440975602E+02  0.16249379000E+03  0.00000000000E+00 0. -1.
         -2    1    5    5    0  503 -0.35714435471E+02 -0.15364850067E+01  0.18044775286E+00  0.35747926493E+02  0.00000000000E+00 0.  1.
         -3    1    6    6    0  502  0.22632543309E+03 -0.17945443842E+03 -0.16470357053E+03  0.33249716281E+03  0.00000000000E+00 0.  1.
<mgrwt>
<rscale>  0 0.19751035E+04</rscale>
<asrwt>0</asrwt>
<pdfrwt beam="1">  1        1 0.23753598E+00 0.19751035E+04</pdfrwt>
<pdfrwt beam="2">  1       -1 0.97177030E-01 0.19751035E+04</pdfrwt>
<totfact> 0.57676840E+00</totfact>
</mgrwt>
</event>
<event>
12    1  0.1201209E-007  0.2024088E+04  0.7818608E-02  0.8595441E-01
         -2   -1    0    0    0  501 -0.00000000000E+00  0.00000000000E+00  0.21517048988E+04  0.21517048988E+04  0.00000000000E+00 0.  1.
          2   -1    0    0  501    0  0.00000000000E+00 -0.00000000000E+00 -0.47601000903E+03  0.47601000903E+03  0.00000000000E+00 0. -1.
         23    2    1    2    0    0 -0.40628039573E+03  0.71624487459E+02 -0.22884003085E+03  0.48050877710E+03  0.91252934172E+02 0.  0.
        254    2    1    2    0    0  0.40628039573E+03 -0.71624487459E+02  0.19045349207E+04  0.21472061308E+04  0.90169123142E+03 0.  0.
        -24    2    4    4    0    0 -0.24450208372E+03 -0.19206292743E+03  0.70496734609E+03  0.77467203360E+03  0.80426137305E+02 0.  0.
         24    2    4    4    0    0  0.65078247945E+03  0.12043843997E+03  0.11995675746E+04  0.13725340972E+04  0.82850639780E+02 0.  0.
         11    1    3    3    0    0 -0.13161624296E+03  0.59432813518E+02 -0.10727673415E+03  0.17989828355E+03  0.00000000000E+00 0.  1.
        -11    1    3    3    0    0 -0.27466415277E+03  0.12191673941E+02 -0.12156329669E+03  0.30061049355E+03  0.00000000000E+00 0. -1.
          2    1    6    6  502    0  0.16843765451E+03  0.37999443405E+02  0.24342125677E+03  0.29844448295E+03  0.00000000000E+00 0. -1.
          1    1    5    5  503    0 -0.17967280405E+03 -0.16755343071E+03  0.60547539418E+03  0.65341940713E+03  0.00000000000E+00 0. -1.
         -4    1    5    5    0  503 -0.64829279672E+02 -0.24509496722E+02  0.99491951903E+02  0.12125262647E+03  0.00000000000E+00 0.  1.
         -1    1    6    6    0  502  0.48234482495E+03  0.82438996566E+02  0.95614631781E+03  0.10740896142E+04  0.00000000000E+00 0.  1.
<mgrwt>
<rscale>  0 0.20240880E+04</rscale>
<asrwt>0</asrwt>
<pdfrwt beam="1">  1        2 0.73232310E-01 0.20240880E+04</pdfrwt>
<pdfrwt beam="2">  1       -2 0.33103152E+00 0.20240880E+04</pdfrwt>
<totfact> 0.12387257E+00</totfact>
</mgrwt>
</event>
<event>
12    1  0.1201209E-007  0.1156702E+04  0.7818608E-02  0.9151623E-01
          2   -1    0    0  501    0  0.00000000000E+00  0.00000000000E+00  0.27135497033E+04  0.27135497033E+04  0.00000000000E+00 0. -1.
         -2   -1    0    0    0  501 -0.00000000000E+00 -0.00000000000E+00 -0.12326648876E+03  0.12326648876E+03  0.00000000000E+00 0.  1.
         23    2    1    2    0    0 -0.19660523489E+03  0.52152752938E+02  0.38329595697E+03  0.44360733986E+03  0.92185428993E+02 0.  0.
        254    2    1    2    0    0  0.19660523489E+03 -0.52152752938E+02  0.22069872575E+04  0.23932088522E+04  0.90292985727E+03 0.  0.
        -24    2    4    4    0    0 -0.12717218409E+03 -0.13777168997E+03  0.19573599879E+04  0.19679665005E+04  0.80499826441E+02 0.  0.
         24    2    4    4    0    0  0.32377741899E+03  0.85618937034E+02  0.24962726969E+03  0.42524235168E+03  0.79717403787E+02 0.  0.
         13    1    3    3    0    0 -0.24695370915E+02  0.19629073459E+02  0.13116685517E+02  0.34164445092E+02  0.00000000000E+00 0. -1.
        -13    1    3    3    0    0 -0.17190986398E+03  0.32523679479E+02  0.37017927145E+03  0.40944289476E+03  0.00000000000E+00 0.  1.
          2    1    6    6  502    0  0.81563982491E+01 -0.52878330343E+01 -0.37473969258E+01  0.10417820997E+02  0.00000000000E+00 0. -1.
          1    1    5    5  503    0 -0.36727992490E+01 -0.55302842232E+02  0.50293394344E+03  0.50597870042E+03  0.00000000000E+00 0. -1.
         -2    1    5    5    0  503 -0.12349938484E+03 -0.82468847740E+02  0.14544260444E+04  0.14619878001E+04  0.00000000000E+00 0.  1.
         -1    1    6    6    0  502  0.31562102074E+03  0.90906770069E+02  0.25337466661E+03  0.41482453068E+03  0.00000000000E+00 0.  1.
<mgrwt>
<rscale>  0 0.11567018E+04</rscale>
<asrwt>0</asrwt>
<pdfrwt beam="1">  1        2 0.41746914E+00 0.11567018E+04</pdfrwt>
<pdfrwt beam="2">  1       -2 0.18964077E-01 0.11567018E+04</pdfrwt>
<totfact> 0.61167706E+01</totfact>
</mgrwt>
</event>
<event>
12    1  0.1201209E-007  0.1062380E+04  0.7818608E-02  0.9242655E-01
          1   -1    0    0  501    0  0.00000000000E+00  0.00000000000E+00  0.13576090349E+04  0.13576090349E+04  0.00000000000E+00 0. -1.
         -1   -1    0    0    0  501 -0.00000000000E+00 -0.00000000000E+00 -0.20783798156E+03  0.20783798156E+03  0.00000000000E+00 0.  1.
         23    2    1    2    0    0 -0.12153268726E+03  0.21614786160E+02  0.24553351073E+03  0.28966660776E+03  0.91556789512E+02 0.  0.
        254    2    1    2    0    0  0.12153268726E+03 -0.21614786160E+02  0.90423754263E+03  0.12757804087E+04  0.89147783188E+03 0.  0.
        -24    2    4    4    0    0 -0.19441498632E+03 -0.97395008030E+02  0.91242301650E+03  0.94134319903E+03  0.79550504835E+02 0.  0.
         24    2    4    4    0    0  0.31594767358E+03  0.75780221870E+02 -0.81854738778E+01  0.33443720969E+03  0.78839525455E+02 0.  0.
         11    1    3    3    0    0 -0.12889692368E+03  0.22771843255E+02  0.17395037647E+03  0.21769636481E+03  0.00000000000E+00 0.  1.
        -11    1    3    3    0    0  0.73642364176E+01 -0.11570570952E+01  0.71583134260E+02  0.71970242946E+02  0.00000000000E+00 0. -1.
          4    1    6    6  502    0  0.17048221095E+03  0.16750976925E+02 -0.35897118300E+02  0.17502394859E+03  0.00000000000E+00 0. -1.
          3    1    5    5  503    0 -0.54309302104E+02 -0.18699312624E+02  0.40582532767E+03  0.40986993201E+03  0.00000000000E+00 0. -1.
         -2    1    5    5    0  503 -0.14010568422E+03 -0.78695695406E+02  0.50659768884E+03  0.53147326703E+03  0.00000000000E+00 0.  1.
         -3    1    6    6    0  502  0.14546546264E+03  0.59029244944E+02  0.27711644422E+02  0.15941326110E+03  0.00000000000E+00 0.  1.
<mgrwt>
<rscale>  0 0.10623798E+04</rscale>
<asrwt>0</asrwt>
<pdfrwt beam="1">  1        1 0.20886292E+00 0.10623798E+04</pdfrwt>
<pdfrwt beam="2">  1       -1 0.31975075E-01 0.10623798E+04</pdfrwt>
<totfact> 0.74908828E+01</totfact>
</mgrwt>
</event>
<event>
12    1  0.1201209E-007  0.1650284E+04  0.7818608E-02  0.8790238E-01
          2   -1    0    0  501    0  0.00000000000E+00  0.00000000000E+00  0.34869795784E+03  0.34869795784E+03  0.00000000000E+00 0. -1.
         -2   -1    0    0    0  501 -0.00000000000E+00 -0.00000000000E+00 -0.19525762345E+04  0.19525762345E+04  0.00000000000E+00 0.  1.
         23    2    1    2    0    0  0.17720693083E+03  0.53461037149E+03 -0.38489594261E+03  0.68791073931E+03  0.88689080411E+02 0.  0.
        254    2    1    2    0    0 -0.17720693083E+03 -0.53461037149E+03 -0.12189823340E+04  0.16133634530E+04  0.89432273545E+03 0.  0.
        -24    2    4    4    0    0 -0.42146049195E+03 -0.66390633721E+02 -0.23237291375E+03  0.49154979931E+03  0.74748723321E+02 0.  0.
         24    2    4    4    0    0  0.24425356111E+03 -0.46821973776E+03 -0.98660942025E+03  0.11218136537E+04  0.78601529696E+02 0.  0.
         13    1    3    3    0    0  0.13229199063E+03  0.48684266435E+03 -0.34448661971E+03  0.61089113742E+03  0.00000000000E+00 0. -1.
        -13    1    3    3    0    0  0.44914940200E+02  0.47767707133E+02 -0.40409322905E+02  0.77019601892E+02  0.00000000000E+00 0.  1.
          2    1    6    6  502    0  0.23224521958E+03 -0.44176938946E+03 -0.96191343401E+03  0.10836860662E+04  0.00000000000E+00 0. -1.
          1    1    5    5  503    0 -0.38264219690E+03 -0.43927306419E+02 -0.22511163130E+03  0.44611647095E+03  0.00000000000E+00 0. -1.
         -2    1    5    5    0  503 -0.38818295044E+02 -0.22463327301E+02 -0.72612824490E+01  0.45433328366E+02  0.00000000000E+00 0.  1.
         -1    1    6    6    0  502  0.12008341536E+02 -0.26450348304E+02 -0.24695986245E+02  0.38127587498E+02  0.00000000000E+00 0.  1.
<mgrwt>
<rscale>  0 0.16502840E+04</rscale>
<asrwt>0</asrwt>
<pdfrwt beam="1">  1        2 0.53645840E-01 0.16502840E+04</pdfrwt>
<pdfrwt beam="2">  1       -2 0.30039634E+00 0.16502840E+04</pdfrwt>
<totfact> 0.28088858E+00</totfact>
</mgrwt>
</event>
<event>
12    1  0.1201209E-007  0.2208488E+04  0.7818608E-02  0.8514903E-01
         -1   -1    0    0    0  501 -0.00000000000E+00  0.00000000000E+00  0.66504656278E+03  0.66504656278E+03  0.00000000000E+00 0.  1.
          1   -1    0    0  501    0  0.00000000000E+00 -0.00000000000E+00 -0.18334884164E+04  0.18334884164E+04  0.00000000000E+00 0. -1.
         23    2    1    2    0    0 -0.33214885621E+03  0.82885245981E+03 -0.25726326960E+03  0.93314234772E+03  0.85152735778E+02 0.  0.
        254    2    1    2    0    0  0.33214885621E+03 -0.82885245981E+03 -0.91117858403E+03  0.15653926315E+04  0.90713197268E+03 0.  0.
        -24    2    4    4    0    0 -0.15103105223E+03 -0.25644213195E+03 -0.72734553361E+03  0.78996590555E+03  0.80259958233E+02 0.  0.
         24    2    4    4    0    0  0.48317990844E+03 -0.57241032786E+03 -0.18383305042E+03  0.77542672592E+03  0.79847413758E+02 0.  0.
         11    1    3    3    0    0  0.27656355583E+01  0.10003589084E+02 -0.10308873504E+02  0.14628513510E+02  0.00000000000E+00 0.  1.
        -11    1    3    3    0    0 -0.33491449177E+03  0.81884887073E+03 -0.24695439610E+03  0.91851383421E+03  0.00000000000E+00 0. -1.
          2    1    6    6  502    0  0.41144242257E+03 -0.44750363913E+03 -0.12994444241E+03  0.62163488660E+03  0.00000000000E+00 0. -1.
          1    1    5    5  503    0 -0.93151822798E+02 -0.20098174185E+03 -0.45485201620E+03  0.50592615991E+03  0.00000000000E+00 0. -1.
         -2    1    5    5    0  503 -0.57879229432E+02 -0.55460390099E+02 -0.27249351741E+03  0.28403974563E+03  0.00000000000E+00 0.  1.
         -1    1    6    6    0  502  0.71737485873E+02 -0.12490668873E+03 -0.53888608010E+02  0.15379183932E+03  0.00000000000E+00 0.  1.
<mgrwt>
<rscale>  0 0.22084883E+04</rscale>
<asrwt>0</asrwt>
<pdfrwt beam="1">  1        1 0.28207514E+00 0.22084883E+04</pdfrwt>
<pdfrwt beam="2">  1       -1 0.10231486E+00 0.22084883E+04</pdfrwt>
<totfact> 0.31841058E+00</totfact>
</mgrwt>
</event>
<event>
12    1  0.1201209E-007  0.2411843E+04  0.7818608E-02  0.8435083E-01
          2   -1    0    0  501    0  0.00000000000E+00  0.00000000000E+00  0.11717895496E+04  0.11717895496E+04  0.00000000000E+00 0. -1.
         -2   -1    0    0    0  501 -0.00000000000E+00 -0.00000000000E+00 -0.12410471512E+04  0.12410471512E+04  0.00000000000E+00 0.  1.
         23    2    1    2    0    0  0.50237606883E+03  0.59986623612E+03 -0.70567928911E+03  0.10575296884E+04  0.90357993018E+02 0.  0.
        254    2    1    2    0    0 -0.50237606883E+03 -0.59986623612E+03  0.63642168751E+03  0.13553070124E+04  0.90531945624E+03 0.  0.
        -24    2    4    4    0    0 -0.21715712896E+03 -0.13205252715E+03  0.74406410818E+03  0.79031479054E+03  0.79818434470E+02 0.  0.
         24    2    4    4    0    0 -0.28521893987E+03 -0.46781370898E+03 -0.10764242067E+03  0.56499222189E+03  0.86196346216E+02 0.  0.
         13    1    3    3    0    0  0.11506679767E+03  0.17895162684E+03 -0.23283136991E+03  0.31539578230E+03  0.00000000000E+00 0. -1.
        -13    1    3    3    0    0  0.38730927116E+03  0.42091460928E+03 -0.47284791920E+03  0.74213390606E+03  0.00000000000E+00 0.  1.
          2    1    6    6  502    0 -0.89569863361E+02 -0.18286793549E+03 -0.22671012808E+01  0.20363836083E+03  0.00000000000E+00 0. -1.
          3    1    5    5  503    0 -0.61252782462E+02 -0.63325064982E+01  0.11963509262E+03  0.13455318422E+03  0.00000000000E+00 0. -1.
         -4    1    5    5    0  503 -0.15590434650E+03 -0.12572002065E+03  0.62442901556E+03  0.65576160632E+03  0.00000000000E+00 0.  1.
         -1    1    6    6    0  502 -0.19564907651E+03 -0.28494577348E+03 -0.10537531939E+03  0.36135386106E+03  0.00000000000E+00 0.  1.
<mgrwt>
<rscale>  0 0.24118425E+04</rscale>
<asrwt>0</asrwt>
<pdfrwt beam="1">  1        2 0.18027532E+00 0.24118425E+04</pdfrwt>
<pdfrwt beam="2">  1       -2 0.19093033E+00 0.24118425E+04</pdfrwt>
<totfact> 0.27031979E+00</totfact>
</mgrwt>
</event>
<event>
12    1  0.1201209E-007  0.1181251E+04  0.7818608E-02  0.9129427E-01
          1   -1    0    0  501    0  0.00000000000E+00  0.00000000000E+00  0.22653546077E+04  0.22653546077E+04  0.00000000000E+00 0. -1.
         -1   -1    0    0    0  501 -0.00000000000E+00 -0.00000000000E+00 -0.15398850625E+03  0.15398850625E+03  0.00000000000E+00 0.  1.
         23    2    1    2    0    0  0.23706249582E+02 -0.22566063801E+03  0.50856664257E+03  0.56362662130E+03  0.86892050808E+02 0.  0.
        254    2    1    2    0    0 -0.23706249582E+02  0.22566063801E+03  0.16027994588E+04  0.18557164926E+04  0.90732182043E+03 0.  0.
        -24    2    4    4    0    0  0.14972997193E+03  0.25908432702E+03  0.16316439081E+04  0.16608129200E+04  0.80585107806E+02 0.  0.
         24    2    4    4    0    0 -0.17343622151E+03 -0.33423689014E+02 -0.28844449235E+02  0.19490357256E+03  0.77188952749E+02 0.  0.
         11    1    3    3    0    0 -0.18194059124E+02 -0.49554229491E+02  0.19024452981E+03  0.19743258740E+03  0.00000000000E+00 0.  1.
        -11    1    3    3    0    0  0.41900308706E+02 -0.17610640852E+03  0.31832211276E+03  0.36619403390E+03  0.00000000000E+00 0. -1.
          2    1    6    6  502    0 -0.18132946482E+03 -0.28918036208E+02 -0.26556512684E+02  0.18553133427E+03  0.00000000000E+00 0. -1.
          3    1    5    5  503    0  0.99901051215E+02  0.17416513166E+03  0.12797241621E+04  0.12953793437E+04  0.00000000000E+00 0. -1.
         -4    1    5    5    0  503  0.49828920715E+02  0.84919195362E+02  0.35191974603E+03  0.36543357635E+03  0.00000000000E+00 0.  1.
         -1    1    6    6    0  502  0.78932433031E+01 -0.45056528057E+01 -0.22879365509E+01  0.93722382977E+01  0.00000000000E+00 0.  1.
<mgrwt>
<rscale>  0 0.11812512E+04</rscale>
<asrwt>0</asrwt>
<pdfrwt beam="1">  1        1 0.34851607E+00 0.11812512E+04</pdfrwt>
<pdfrwt beam="2">  1       -1 0.23690541E-01 0.11812512E+04</pdfrwt>
<totfact> 0.30048049E+01</totfact>
</mgrwt>
</event>
<event>
12    1  0.1201209E-007  0.1666172E+04  0.7818608E-02  0.8780896E-01
          2   -1    0    0  501    0  0.00000000000E+00  0.00000000000E+00  0.40789459716E+04  0.40789459716E+04  0.00000000000E+00 0.  1.
         -2   -1    0    0    0  501 -0.00000000000E+00 -0.00000000000E+00 -0.17014997408E+03  0.17014997408E+03  0.00000000000E+00 0. -1.
         23    2    1    2    0    0 -0.23407158675E+03 -0.15560031414E+03  0.81370652877E+02  0.30633575713E+03  0.90661168437E+02 0.  0.
        254    2    1    2    0    0  0.23407158675E+03  0.15560031414E+03  0.38274253447E+04  0.39427601886E+04  0.90397575750E+03 0.  0.
        -24    2    4    4    0    0  0.15793828992E+03  0.15466414022E+03  0.18574627074E+03  0.29939992229E+03  0.79203135544E+02 0.  0.
         24    2    4    4    0    0  0.76133296831E+02  0.93617392013E+00  0.36416790739E+04  0.36433602663E+04  0.80314364784E+02 0.  0.
         11    1    3    3    0    0 -0.88776066605E+02 -0.80321906012E+02  0.77569673370E+02  0.14265291029E+03  0.00000000000E+00 0. -1.
        -11    1    3    3    0    0 -0.14529552014E+03 -0.75278408126E+02  0.38009795064E+01  0.16368284684E+03  0.00000000000E+00 0.  1.
          2    1    6    6  502    0  0.50844743342E+02  0.13017054710E+02  0.33325722342E+04  0.33329854977E+04  0.00000000000E+00 0. -1.
          1    1    5    5  503    0  0.15377119159E+03  0.15989375103E+03  0.18947809042E+03  0.29174224537E+03  0.00000000000E+00 0. -1.
         -2    1    5    5    0  503  0.41670983259E+01 -0.52296108148E+01 -0.37318196767E+01  0.76576769213E+01  0.00000000000E+00 0.  1.
         -3    1    6    6    0  502  0.25288553489E+02 -0.12080880790E+02  0.30910683972E+03  0.31037476859E+03  0.00000000000E+00 0.  1.
<mgrwt>
<rscale>  0 0.16661723E+04</rscale>
<asrwt>0</asrwt>
<pdfrwt beam="1">  1        2 0.62753008E+00 0.16661723E+04</pdfrwt>
<pdfrwt beam="2">  1       -2 0.26176922E-01 0.16661723E+04</pdfrwt>
<totfact> 0.37826075E+00</totfact>
</mgrwt>
</event>
<event>
12    1  0.1201209E-007  0.2178429E+04  0.7818608E-02  0.8527461E-01
          3   -1    0    0  501    0  0.00000000000E+00  0.00000000000E+00  0.81378104372E+03  0.81378104372E+03  0.00000000000E+00 0. -1.
         -3   -1    0    0    0  501 -0.00000000000E+00 -0.00000000000E+00 -0.14578712238E+04  0.14578712238E+04  0.00000000000E+00 0.  1.
         23    2    1    2    0    0  0.74114810636E+03  0.16311272312E+03 -0.77727065936E+03  0.10902192180E+04  0.92314622265E+02 0.  0.
        254    2    1    2    0    0 -0.74114810636E+03 -0.16311272312E+03  0.13318047926E+03  0.11814330495E+04  0.89562309841E+03 0.  0.
        -24    2    4    4    0    0 -0.38542868670E+03 -0.52168189408E+03  0.14731753555E+03  0.66983345343E+03  0.79165193794E+02 0.  0.
         24    2    4    4    0    0 -0.35571941965E+03  0.35856917096E+03 -0.14137056288E+02  0.51159959608E+03  0.80163173996E+02 0.  0.
         13    1    3    3    0    0  0.34620546666E+03  0.11357384027E+03 -0.41173449636E+03  0.54980227157E+03  0.00000000000E+00 0. -1.
        -13    1    3    3    0    0  0.39494263970E+03  0.49538882859E+02 -0.36553616300E+03  0.54041694647E+03  0.00000000000E+00 0.  1.
          4    1    6    6  502    0 -0.35430488196E+03  0.33444676275E+03 -0.12582290966E+02  0.48738578205E+03  0.00000000000E+00 0. -1.
          3    1    5    5  503    0 -0.36504603393E+03 -0.48116596457E+03  0.15568870836E+03  0.62371328851E+03  0.00000000000E+00 0. -1.
         -4    1    5    5    0  503 -0.20382652769E+02 -0.40515929513E+02 -0.83711728136E+01  0.46120164922E+02  0.00000000000E+00 0.  1.
         -3    1    6    6    0  502 -0.14145376917E+01  0.24122408208E+02 -0.15547653220E+01  0.24213814029E+02  0.00000000000E+00 0.  1.
<mgrwt>
<rscale>  0 0.21784288E+04</rscale>
<asrwt>0</asrwt>
<pdfrwt beam="1">  1        3 0.12519709E+00 0.21784288E+04</pdfrwt>
<pdfrwt beam="2">  1       -3 0.22428788E+00 0.21784288E+04</pdfrwt>
<totfact> 0.12653892E-01</totfact>
</mgrwt>
</event>
<event>
12    1  0.1201209E-007  0.1895171E+04  0.7818608E-02  0.8657264E-01
         -2   -1    0    0    0  501 -0.00000000000E+00  0.00000000000E+00  0.50899722928E+03  0.50899722928E+03  0.00000000000E+00 0. -1.
          2   -1    0    0  501    0  0.00000000000E+00 -0.00000000000E+00 -0.17640917749E+04  0.17640917749E+04  0.00000000000E+00 0.  1.
         23    2    1    2    0    0 -0.47397390043E+03  0.37665766602E+03  0.17345175139E+00  0.61148099963E+03  0.85946071206E+02 0.  0.
        254    2    1    2    0    0  0.47397390043E+03 -0.37665766602E+03 -0.12552679973E+04  0.16616080045E+04  0.90483211694E+03 0.  0.
        -24    2    4    4    0    0  0.22127730478E+03  0.95432384078E+02 -0.10538561729E+04  0.10840200475E+04  0.80097718959E+02 0.  0.
         24    2    4    4    0    0  0.25269659565E+03 -0.47209005010E+03 -0.20141182442E+03  0.57758795704E+03  0.79476664758E+02 0.  0.
         13    1    3    3    0    0 -0.17692419165E+02  0.20946864063E+02 -0.17729463467E+02  0.32651595441E+02  0.00000000000E+00 0.  1.
        -13    1    3    3    0    0 -0.45628148127E+03  0.35571080196E+03  0.17902915219E+02  0.57882940419E+03  0.00000000000E+00 0. -1.
          2    1    6    6  502    0  0.19129696269E+03 -0.39433878319E+03 -0.19056172504E+03  0.47792402630E+03  0.00000000000E+00 0. -1.
          3    1    5    5  503    0  0.20765192754E+03  0.73267402938E+02 -0.10030933209E+04  0.10269779189E+04  0.00000000000E+00 0. -1.
         -4    1    5    5    0  503  0.13625377241E+02  0.22164981139E+02 -0.50762851978E+02  0.57042128596E+02  0.00000000000E+00 0.  1.
         -1    1    6    6    0  502  0.61399632964E+02 -0.77751266910E+02 -0.10850099381E+02  0.99663930741E+02  0.00000000000E+00 0.  1.
<mgrwt>
<rscale>  0 0.18951705E+04</rscale>
<asrwt>0</asrwt>
<pdfrwt beam="1">  1        2 0.27139873E+00 0.18951705E+04</pdfrwt>
<pdfrwt beam="2">  1       -2 0.78307268E-01 0.18951705E+04</pdfrwt>
<totfact> 0.12275019E+01</totfact>
</mgrwt>
</event>
<event>
12    1  0.1201209E-007  0.1445063E+04  0.7818608E-02  0.8921830E-01
          1   -1    0    0  501    0  0.00000000000E+00  0.00000000000E+00  0.61347967638E+03  0.61347967638E+03  0.00000000000E+00 0. -1.
         -1   -1    0    0    0  501 -0.00000000000E+00 -0.00000000000E+00 -0.85096817796E+03  0.85096817796E+03  0.00000000000E+00 0.  1.
         23    2    1    2    0    0  0.26376483637E+03  0.32630245324E+03  0.52712252051E+02  0.43201683584E+03  0.88401272838E+02 0.  0.
        254    2    1    2    0    0 -0.26376483637E+03 -0.32630245324E+03 -0.29020075363E+03  0.10324310185E+04  0.89758127802E+03 0.  0.
        -24    2    4    4    0    0 -0.52124385067E+03 -0.44778525318E+03 -0.16283795944E+03  0.71055317086E+03  0.78503648022E+02 0.  0.
         24    2    4    4    0    0  0.25747901430E+03  0.12148279994E+03 -0.12736279419E+03  0.32187784764E+03  0.79564778454E+02 0.  0.
         11    1    3    3    0    0  0.19457302616E+03  0.17525620528E+03  0.44954450810E+02  0.26569588376E+03  0.00000000000E+00 0.  1.
        -11    1    3    3    0    0  0.69191810216E+02  0.15104624796E+03  0.77578012403E+01  0.16632095209E+03  0.00000000000E+00 0. -1.
          2    1    6    6  502    0  0.85068981080E+02  0.83191786202E+02 -0.52647948853E+02  0.13011307141E+03  0.00000000000E+00 0. -1.
          1    1    5    5  503    0 -0.61874661503E+02 -0.24244430683E+02 -0.22507404874E+02  0.70163020385E+02  0.00000000000E+00 0. -1.
         -2    1    5    5    0  503 -0.45936918917E+03 -0.42354082250E+03 -0.14033055457E+03  0.64039015047E+03  0.00000000000E+00 0.  1.
         -1    1    6    6    0  502  0.17241003322E+03  0.38291013739E+02 -0.74714845332E+02  0.19176477623E+03  0.00000000000E+00 0.  1.
<mgrwt>
<rscale>  0 0.14450629E+04</rscale>
<asrwt>0</asrwt>
<pdfrwt beam="1">  1        1 0.94381488E-01 0.14450629E+04</pdfrwt>
<pdfrwt beam="2">  1       -1 0.13091818E+00 0.14450629E+04</pdfrwt>
<totfact> 0.16055082E+01</totfact>
</mgrwt>
</event>
<event>
12    1  0.1201209E-007  0.2824717E+04  0.7818608E-02  0.8295635E-01
          2   -1    0    0  501    0  0.00000000000E+00  0.00000000000E+00  0.28660020004E+04  0.28660020004E+04  0.00000000000E+00 0. -1.
         -2   -1    0    0    0  501 -0.00000000000E+00 -0.00000000000E+00 -0.69600677944E+03  0.69600677944E+03  0.00000000000E+00 0.  1.
         23    2    1    2    0    0 -0.36857013088E+03 -0.15322344178E+03  0.24833877383E+04  0.25168849291E+04  0.90408646679E+02 0.  0.
        254    2    1    2    0    0  0.36857013088E+03  0.15322344178E+03 -0.31339251729E+03  0.10451238507E+04  0.91364524243E+03 0.  0.
        -24    2    4    4    0    0  0.48752493232E+03  0.57544469289E+02  0.17482358538E+03  0.52757722951E+03  0.82356065424E+02 0.  0.
         24    2    4    4    0    0 -0.11895480144E+03  0.95678972488E+02 -0.48821610267E+03  0.51754662123E+03  0.78707252993E+02 0.  0.
         13    1    3    3    0    0 -0.35974337902E+03 -0.13860972757E+03  0.24398296212E+04  0.24701005112E+04  0.00000000000E+00 0. -1.
        -13    1    3    3    0    0 -0.88267518591E+01 -0.14613714202E+02  0.43558117115E+02  0.46784417895E+02  0.00000000000E+00 0.  1.
          2    1    6    6  502    0 -0.26746286011E+02 -0.12368262063E+02 -0.94710367479E+02  0.99188665833E+02  0.00000000000E+00 0. -1.
          1    1    5    5  503    0  0.23516991141E+03  0.59854742317E+02  0.58101444156E+02  0.24952606121E+03  0.00000000000E+00 0. -1.
         -2    1    5    5    0  503  0.25235502091E+03 -0.23102730281E+01  0.11672214123E+03  0.27805116830E+03  0.00000000000E+00 0.  1.
         -1    1    6    6    0  502 -0.92208515430E+02  0.10804723455E+03 -0.39350573520E+03  0.41835795540E+03  0.00000000000E+00 0.  1.
<mgrwt>
<rscale>  0 0.28247172E+04</rscale>
<asrwt>0</asrwt>
<pdfrwt beam="1">  1        2 0.44092338E+00 0.28247172E+04</pdfrwt>
<pdfrwt beam="2">  1       -2 0.10707797E+00 0.28247172E+04</pdfrwt>
<totfact> 0.12831023E+00</totfact>
</mgrwt>
</event>
<event>
12    1  0.1201209E-007  0.1848964E+04  0.7818608E-02  0.8680686E-01
          1   -1    0    0  501    0  0.00000000000E+00  0.00000000000E+00  0.12373388622E+04  0.12373388622E+04  0.00000000000E+00 0.  1.
         -1   -1    0    0    0  501 -0.00000000000E+00 -0.00000000000E+00 -0.69072968782E+03  0.69072968782E+03  0.00000000000E+00 0. -1.
         23    2    1    2    0    0 -0.11256790075E+03 -0.65726631270E+03 -0.11648248740E+02  0.67634594459E+03  0.11241715606E+03 0.  0.
        254    2    1    2    0    0  0.11256790075E+03  0.65726631270E+03  0.55825742317E+03  0.12517226055E+04  0.90027084394E+03 0.  0.
        -24    2    4    4    0    0  0.39081269343E+03  0.11603043554E+03  0.47767325582E+03  0.63284773750E+03  0.78274492726E+02 0.  0.
         24    2    4    4    0    0 -0.27824479268E+03  0.54123587716E+03  0.80584167342E+02  0.61887486797E+03  0.78459255653E+02 0.  0.
         13    1    3    3    0    0 -0.87148779318E+02 -0.44423793351E+03 -0.59315183449E+02  0.45657479375E+03  0.00000000000E+00 0. -1.
        -13    1    3    3    0    0 -0.25419121431E+02 -0.21302837919E+03  0.47666934709E+02  0.21977115084E+03  0.00000000000E+00 0.  1.
          4    1    6    6  502    0  0.32994033700E+01 -0.24003997099E+00  0.46463067888E+00  0.33405932787E+01  0.00000000000E+00 0. -1.
          3    1    5    5  503    0  0.61508058475E+02  0.33813086814E+02  0.46861204242E+02  0.84395133510E+02  0.00000000000E+00 0. -1.
         -4    1    5    5    0  503  0.32930463496E+03  0.82217348723E+02  0.43081205158E+03  0.54845260399E+03  0.00000000000E+00 0.  1.
         -3    1    6    6    0  502 -0.28154419605E+03  0.54147591713E+03  0.80119536663E+02  0.61553427469E+03  0.00000000000E+00 0.  1.
<mgrwt>
<rscale>  0 0.18489637E+04</rscale>
<asrwt>0</asrwt>
<pdfrwt beam="1">  1        1 0.19035982E+00 0.18489637E+04</pdfrwt>
<pdfrwt beam="2">  1       -1 0.10626611E+00 0.18489637E+04</pdfrwt>
<totfact> 0.78081563E+00</totfact>
</mgrwt>
</event>
<event>
12    1  0.1201209E-007  0.1666200E+04  0.7818608E-02  0.8780880E-01
         -1   -1    0    0    0  501 -0.00000000000E+00  0.00000000000E+00  0.28032921574E+03  0.28032921574E+03  0.00000000000E+00 0.  1.
          1   -1    0    0  501    0  0.00000000000E+00 -0.00000000000E+00 -0.24758584152E+04  0.24758584152E+04  0.00000000000E+00 0. -1.
         23    2    1    2    0    0  0.21642978368E+03 -0.18615045224E+03 -0.16006573489E+04  0.16285245337E+04  0.92164884395E+02 0.  0.
        254    2    1    2    0    0 -0.21642978368E+03  0.18615045224E+03 -0.59487185047E+03  0.11276630972E+04  0.91447126812E+03 0.  0.
        -24    2    4    4    0    0 -0.43215442285E+03  0.28547078473E+03 -0.68371211777E+03  0.86153668379E+03  0.80821924052E+02 0.  0.
         24    2    4    4    0    0  0.21572463916E+03 -0.99320332491E+02  0.88840267299E+02  0.26612641343E+03  0.80802391316E+02 0.  0.
         13    1    3    3    0    0  0.20771310892E+03 -0.13518284429E+03 -0.13562994847E+04  0.13787557540E+04  0.00000000000E+00 0. -1.
        -13    1    3    3    0    0  0.87166747682E+01 -0.50967607954E+02 -0.24435786429E+03  0.24976877971E+03  0.00000000000E+00 0.  1.
          2    1    6    6  502    0  0.15509311308E+02 -0.20531301514E+02  0.36558007578E+02  0.44705268115E+02  0.00000000000E+00 0. -1.
          3    1    5    5  503    0 -0.97439330647E+02  0.64959251264E+02 -0.10320038213E+03  0.15609114758E+03  0.00000000000E+00 0. -1.
         -4    1    5    5    0  503 -0.33471509220E+03  0.22051153347E+03 -0.58051173564E+03  0.70544553621E+03  0.00000000000E+00 0.  1.
         -1    1    6    6    0  502  0.20021532786E+03 -0.78789030977E+02  0.52282259721E+02  0.22142114531E+03  0.00000000000E+00 0.  1.
<mgrwt>
<rscale>  0 0.16661998E+04</rscale>
<asrwt>0</asrwt>
<pdfrwt beam="1">  1        1 0.38090129E+00 0.16661998E+04</pdfrwt>
<pdfrwt beam="2">  1       -1 0.43127572E-01 0.16661998E+04</pdfrwt>
<totfact> 0.71342008E+00</totfact>
</mgrwt>
</event>
<event>
12    1  0.1201209E-007  0.1176089E+04  0.7818608E-02  0.9134048E-01
          1   -1    0    0  501    0  0.00000000000E+00  0.00000000000E+00  0.35133152085E+04  0.35133152085E+04  0.00000000000E+00 0. -1.
         -1   -1    0    0    0  501 -0.00000000000E+00 -0.00000000000E+00 -0.98424429092E+02  0.98424429092E+02  0.00000000000E+00 0.  1.
         23    2    1    2    0    0  0.14251742840E+03 -0.14342735818E+02  0.16868493199E+03  0.24028075159E+03  0.93612508963E+02 0.  0.
        254    2    1    2    0    0 -0.14251742840E+03  0.14342735818E+02  0.32462058475E+04  0.33714588860E+04  0.89909158863E+03 0.  0.
        -24    2    4    4    0    0  0.91462047123E+02 -0.36896640751E+03  0.88104794910E+03  0.96277182218E+03  0.78629364891E+02 0.  0.
         24    2    4    4    0    0 -0.23397947552E+03  0.38330914333E+03  0.23651578984E+04  0.24086870639E+04  0.78289163818E+02 0.  0.
         13    1    3    3    0    0  0.40293199834E+02  0.19234492881E+02  0.10773259547E+03  0.11661826528E+03  0.00000000000E+00 0. -1.
        -13    1    3    3    0    0  0.10222422857E+03 -0.33577228698E+02  0.60952336515E+02  0.12366248631E+03  0.00000000000E+00 0.  1.
          2    1    6    6  502    0 -0.22302029542E+03  0.38468047434E+03  0.22974187888E+04  0.23400534632E+04  0.00000000000E+00 0. -1.
          1    1    5    5  503    0  0.91036805868E+02 -0.27429977271E+03  0.72178909631E+03  0.77750084559E+03  0.00000000000E+00 0. -1.
         -2    1    5    5    0  503  0.42524125482E+00 -0.94666634801E+02  0.15925885279E+03  0.18527097659E+03  0.00000000000E+00 0.  1.
         -1    1    6    6    0  502 -0.10959180105E+02 -0.13713310117E+01  0.67739109550E+02  0.68633600662E+02  0.00000000000E+00 0.  1.
<mgrwt>
<rscale>  0 0.11760885E+04</rscale>
<asrwt>0</asrwt>
<pdfrwt beam="1">  1        1 0.54050994E+00 0.11760885E+04</pdfrwt>
<pdfrwt beam="2">  1       -1 0.15142223E-01 0.11760885E+04</pdfrwt>
<totfact> 0.80258568E+00</totfact>
</mgrwt>
</event>
<event>
12    1  0.1201209E-007  0.2754359E+04  0.7818608E-02  0.8317580E-01
         -1   -1    0    0    0  501 -0.00000000000E+00  0.00000000000E+00  0.20339833393E+04  0.20339833393E+04  0.00000000000E+00 0.  1.
          1   -1    0    0  501    0  0.00000000000E+00 -0.00000000000E+00 -0.93246724268E+03  0.93246724268E+03  0.00000000000E+00 0. -1.
         23    2    1    2    0    0 -0.10975988960E+04 -0.28532539558E+03  0.99708979926E+03  0.15132484689E+04  0.97974196199E+02 0.  0.
        254    2    1    2    0    0  0.10975988960E+04  0.28532539558E+03  0.10442629735E+03  0.14532021130E+04  0.90263924789E+03 0.  0.
        -24    2    4    4    0    0  0.55059741248E+03  0.40880243058E+03 -0.30460347890E+03  0.75471773084E+03  0.80861832790E+02 0.  0.
         24    2    4    4    0    0  0.54700148352E+03 -0.12347703500E+03  0.40902977624E+03  0.69848438218E+03  0.78216834180E+02 0.  0.
         11    1    3    3    0    0 -0.69149900389E+03 -0.15566111064E+03  0.56698904981E+03  0.90767716527E+03  0.00000000000E+00 0.  1.
        -11    1    3    3    0    0 -0.40609989211E+03 -0.12966428494E+03  0.43010074945E+03  0.60557130368E+03  0.00000000000E+00 0. -1.
          2    1    6    6  502    0  0.22764204523E+03 -0.68582877253E+02  0.21654266197E+03  0.32158239420E+03  0.00000000000E+00 0. -1.
          1    1    5    5  503    0  0.20250607234E+03  0.10464696792E+03 -0.11142372266E+03  0.25372217720E+03  0.00000000000E+00 0. -1.
         -2    1    5    5    0  503  0.34809134014E+03  0.30415546266E+03 -0.19317975623E+03  0.50099555364E+03  0.00000000000E+00 0.  1.
         -1    1    6    6    0  502  0.31935943828E+03 -0.54894157751E+02  0.19248711428E+03  0.37690198797E+03  0.00000000000E+00 0.  1.
<mgrwt>
<rscale>  0 0.27543586E+04</rscale>
<asrwt>0</asrwt>
<pdfrwt beam="1">  1        1 0.14345650E+00 0.27543586E+04</pdfrwt>
<pdfrwt beam="2">  1       -1 0.31292051E+00 0.27543586E+04</pdfrwt>
<totfact> 0.40501572E-01</totfact>
</mgrwt>
</event>
<event>
12    1  0.1201209E-007  0.1754918E+04  0.7818608E-02  0.8730648E-01
          1   -1    0    0  501    0  0.00000000000E+00  0.00000000000E+00  0.36597336718E+03  0.36597336718E+03  0.00000000000E+00 0. -1.
         -1   -1    0    0    0  501 -0.00000000000E+00 -0.00000000000E+00 -0.21037981424E+04  0.21037981424E+04  0.00000000000E+00 0.  1.
         23    2    1    2    0    0 -0.53228316569E+03  0.25556931592E+03 -0.98519968898E+03  0.11521845290E+04  0.90937989289E+02 0.  0.
        254    2    1    2    0    0  0.53228316569E+03 -0.25556931592E+03 -0.75262508619E+03  0.13175869806E+04  0.90606284953E+03 0.  0.
        -24    2    4    4    0    0  0.49709287555E+03  0.18672452703E+03 -0.13625022521E+03  0.55392420094E+03  0.79375818750E+02 0.  0.
         24    2    4    4    0    0  0.35190290143E+02 -0.44229384295E+03 -0.61637486098E+03  0.76366277964E+03  0.80004198177E+02 0.  0.
         13    1    3    3    0    0 -0.80537043299E+02  0.22610405793E+02 -0.20052549283E+03  0.21727383429E+03  0.00000000000E+00 0. -1.
        -13    1    3    3    0    0 -0.45174612239E+03  0.23295891013E+03 -0.78467419615E+03  0.93491069467E+03  0.00000000000E+00 0.  1.
          4    1    6    6  502    0 -0.16978070775E+02 -0.27966520430E+02 -0.55054559129E+02  0.64042061437E+02  0.00000000000E+00 0. -1.
          1    1    5    5  503    0  0.11186192222E+03  0.71693642097E+02 -0.54776269443E+02  0.14371328280E+03  0.00000000000E+00 0. -1.
         -2    1    5    5    0  503  0.38523095333E+03  0.11503088493E+03 -0.81473955768E+02  0.41021091814E+03  0.00000000000E+00 0.  1.
         -3    1    6    6    0  502  0.52168360918E+02 -0.41432732252E+03 -0.56132030186E+03  0.69962071820E+03  0.00000000000E+00 0.  1.
<mgrwt>
<rscale>  0 0.17549178E+04</rscale>
<asrwt>0</asrwt>
<pdfrwt beam="1">  1        1 0.56303597E-01 0.17549178E+04</pdfrwt>
<pdfrwt beam="2">  1       -1 0.32366124E+00 0.17549178E+04</pdfrwt>
<totfact> 0.14844383E+00</totfact>
</mgrwt>
</event>
<event>
12    1  0.1201209E-007  0.1576523E+04  0.7818608E-02  0.8835102E-01
         -1   -1    0    0    0  501 -0.00000000000E+00  0.00000000000E+00  0.12712045489E+04  0.12712045489E+04  0.00000000000E+00 0.  1.
          1   -1    0    0  501    0  0.00000000000E+00 -0.00000000000E+00 -0.48879342960E+03  0.48879342960E+03  0.00000000000E+00 0. -1.
         23    2    1    2    0    0 -0.12512963581E+03 -0.51139087996E+03  0.12241925546E+03  0.54822235651E+03  0.91559926843E+02 0.  0.
        254    2    1    2    0    0  0.12512963581E+03  0.51139087996E+03  0.65999186387E+03  0.12117756220E+04  0.86927144201E+03 0.  0.
        -24    2    4    4    0    0  0.34196858747E+03  0.15614009238E+03  0.68664139477E+03  0.78689407910E+03  0.80022768292E+02 0.  0.
         24    2    4    4    0    0 -0.21683895166E+03  0.35525078758E+03 -0.26649530899E+02  0.42488154293E+03  0.81190362664E+02 0.  0.
         11    1    3    3    0    0 -0.53674643388E+02 -0.16476322675E+03  0.82938218695E+02  0.19211100008E+03  0.00000000000E+00 0. -1.
        -11    1    3    3    0    0 -0.71454992423E+02 -0.34662765321E+03  0.39481036766E+02  0.35611135643E+03  0.00000000000E+00 0.  1.
          2    1    6    6  502    0 -0.13036032786E+03  0.14262276511E+03  0.42512760759E+01  0.19326960846E+03  0.00000000000E+00 0. -1.
          1    1    5    5  503    0  0.21979581661E+03  0.82295219202E+02  0.35191935503E+03  0.42300110703E+03  0.00000000000E+00 0. -1.
         -2    1    5    5    0  503  0.12217277086E+03  0.73844873175E+02  0.33472203974E+03  0.36389297207E+03  0.00000000000E+00 0.  1.
         -1    1    6    6    0  502 -0.86478623800E+02  0.21262802247E+03 -0.30900806974E+02  0.23161193447E+03  0.00000000000E+00 0.  1.
<mgrwt>
<rscale>  0 0.15765233E+04</rscale>
<asrwt>0</asrwt>
<pdfrwt beam="1">  1        1 0.75198989E-01 0.15765233E+04</pdfrwt>
<pdfrwt beam="2">  1       -1 0.19556993E+00 0.15765233E+04</pdfrwt>
<totfact> 0.71005201E+00</totfact>
</mgrwt>
</event>
<event>
12    1  0.1201209E-007  0.1242489E+04  0.7818608E-02  0.9076458E-01
         -1   -1    0    0    0  501 -0.00000000000E+00  0.00000000000E+00  0.31191411277E+03  0.31191411277E+03  0.00000000000E+00 0.  1.
          1   -1    0    0  501    0  0.00000000000E+00 -0.00000000000E+00 -0.12373435115E+04  0.12373435115E+04  0.00000000000E+00 0. -1.
         23    2    1    2    0    0 -0.27560930456E+03  0.29777731115E+01 -0.29976499700E+03  0.42020809077E+03  0.10366499034E+03 0.  0.
        254    2    1    2    0    0  0.27560930456E+03 -0.29777731115E+01 -0.62566440170E+03  0.11290495335E+04  0.89851407868E+03 0.  0.
        -24    2    4    4    0    0  0.52417933418E+03  0.75213307030E+02 -0.11096165120E+03  0.54653142360E+03  0.77221065868E+02 0.  0.
         24    2    4    4    0    0 -0.24857002962E+03 -0.78191080141E+02 -0.51470275050E+03  0.58251810987E+03  0.80669215436E+02 0.  0.
         11    1    3    3    0    0 -0.33922370326E+02 -0.33165994609E+02 -0.29607192591E+02  0.55922234041E+02  0.00000000000E+00 0. -1.
        -11    1    3    3    0    0 -0.24168693424E+03  0.36143767721E+02 -0.27015780441E+03  0.36428585672E+03  0.00000000000E+00 0.  1.
          4    1    6    6  502    0 -0.24626905892E+03 -0.64039254961E+02 -0.45705842143E+03  0.52311745924E+03  0.00000000000E+00 0. -1.
          1    1    5    5  503    0  0.15931145364E+03  0.52519576496E+00 -0.61747715555E+02  0.17086016349E+03  0.00000000000E+00 0. -1.
         -2    1    5    5    0  503  0.36486788054E+03  0.74688111265E+02 -0.49213935645E+02  0.37567126011E+03  0.00000000000E+00 0.  1.
         -3    1    6    6    0  502 -0.23009706967E+01 -0.14151825180E+02 -0.57644329067E+02  0.59400650633E+02  0.00000000000E+00 0.  1.
<mgrwt>
<rscale>  0 0.12424893E+04</rscale>
<asrwt>0</asrwt>
<pdfrwt beam="1">  1        1 0.19036054E+00 0.12424893E+04</pdfrwt>
<pdfrwt beam="2">  1       -1 0.47986786E-01 0.12424893E+04</pdfrwt>
<totfact> 0.42964042E+01</totfact>
</mgrwt>
</event>
<event>
12    1  0.1201209E-007  0.2107646E+04  0.7818608E-02  0.8557883E-01
         -2   -1    0    0    0  501 -0.00000000000E+00  0.00000000000E+00  0.10780110794E+04  0.10780110794E+04  0.00000000000E+00 0.  1.
          2   -1    0    0  501    0  0.00000000000E+00 -0.00000000000E+00 -0.10301778975E+04  0.10301778975E+04  0.00000000000E+00 0. -1.
         23    2    1    2    0    0  0.57454097485E+03 -0.19260557748E+03 -0.58764508866E+03  0.84908907588E+03  0.91821938032E+02 0.  0.
        254    2    1    2    0    0 -0.57454097485E+03  0.19260557748E+03  0.63547827060E+03  0.12590999010E+04  0.90238887855E+03 0.  0.
        -24    2    4    4    0    0  0.23506315818E+02 -0.27371317729E+03  0.33292295728E+03  0.43895484479E+03  0.79826123413E+02 0.  0.
         24    2    4    4    0    0 -0.59804729067E+03  0.46631875477E+03  0.30255531333E+03  0.82014505624E+03  0.77359244642E+02 0.  0.
         13    1    3    3    0    0  0.76975087328E+02  0.38328442404E+01 -0.59567519136E+02  0.97407104978E+02  0.00000000000E+00 0.  1.
        -13    1    3    3    0    0  0.49756588752E+03 -0.19643842172E+03 -0.52807756952E+03  0.75168197091E+03  0.00000000000E+00 0. -1.
          4    1    6    6  502    0 -0.55627474618E+03  0.40570905355E+03  0.27855554005E+03  0.74272109049E+03  0.00000000000E+00 0. -1.
          1    1    5    5  503    0  0.42304238044E+01 -0.22942942554E+03  0.30947462181E+03  0.38526653025E+03  0.00000000000E+00 0. -1.
         -2    1    5    5    0  503  0.19275892014E+02 -0.44283751750E+02  0.23448335469E+02  0.53688314541E+02  0.00000000000E+00 0.  1.
         -3    1    6    6    0  502 -0.41772544482E+02  0.60609701221E+02  0.23999773281E+02  0.77423965748E+02  0.00000000000E+00 0.  1.
<mgrwt>
<rscale>  0 0.21076463E+04</rscale>
<asrwt>0</asrwt>
<pdfrwt beam="1">  1        2 0.15848891E+00 0.21076463E+04</pdfrwt>
<pdfrwt beam="2">  1       -2 0.16584786E+00 0.21076463E+04</pdfrwt>
<totfact> 0.50645666E+00</totfact>
</mgrwt>
</event>
<event>
12    1  0.1201209E-007  0.1318623E+04  0.7818608E-02  0.9014926E-01
          1   -1    0    0  501    0  0.00000000000E+00  0.00000000000E+00  0.95627261437E+03  0.95627261437E+03  0.00000000000E+00 0. -1.
         -1   -1    0    0    0  501 -0.00000000000E+00 -0.00000000000E+00 -0.45456905220E+03  0.45456905220E+03  0.00000000000E+00 0.  1.
         23    2    1    2    0    0 -0.16972977757E+02  0.11417663579E+03  0.47767973890E+03  0.49924825392E+03  0.88014203135E+02 0.  0.
        254    2    1    2    0    0  0.16972977757E+02 -0.11417663579E+03  0.24023823263E+02  0.91159341264E+03  0.90393640250E+03 0.  0.
        -24    2    4    4    0    0  0.24502246245E+03  0.49127448752E+02 -0.35005701022E+03  0.43714951935E+03  0.78168270665E+02 0.  0.
         24    2    4    4    0    0 -0.22804948469E+03 -0.16330408454E+03  0.37408083348E+03  0.47444389330E+03  0.80534131985E+02 0.  0.
         11    1    3    3    0    0  0.21262666376E+02  0.96853167778E+02  0.27668789683E+03  0.29391976684E+03  0.00000000000E+00 0. -1.
        -11    1    3    3    0    0 -0.38235644133E+02  0.17323468013E+02  0.20099184208E+03  0.20532848708E+03  0.00000000000E+00 0.  1.
          4    1    6    6  502    0 -0.17825073247E+03 -0.81391327344E+02  0.25268469924E+03  0.31976151899E+03  0.00000000000E+00 0. -1.
          1    1    5    5  503    0  0.74447576492E+02 -0.44718328882E+01 -0.57057694393E+02  0.93904309935E+02  0.00000000000E+00 0. -1.
         -2    1    5    5    0  503  0.17057488595E+03  0.53599281640E+02 -0.29299931583E+03  0.34324520941E+03  0.00000000000E+00 0.  1.
         -3    1    6    6    0  502 -0.49798752215E+02 -0.81912757199E+02  0.12139613424E+03  0.15468237431E+03  0.00000000000E+00 0.  1.
<mgrwt>
<rscale>  0 0.13186234E+04</rscale>
<asrwt>0</asrwt>
<pdfrwt beam="1">  1        1 0.14711886E+00 0.13186234E+04</pdfrwt>
<pdfrwt beam="2">  1       -1 0.69933701E-01 0.13186234E+04</pdfrwt>
<totfact> 0.33239240E+01</totfact>
</mgrwt>
</event>
<event>
12    1  0.1201209E-007  0.2553499E+04  0.7818608E-02  0.8384170E-01
         -2   -1    0    0    0  501 -0.00000000000E+00  0.00000000000E+00  0.46852835856E+03  0.46852835856E+03  0.00000000000E+00 0.  1.
          2   -1    0    0  501    0  0.00000000000E+00 -0.00000000000E+00 -0.34791696797E+04  0.34791696797E+04  0.00000000000E+00 0. -1.
         23    2    1    2    0    0 -0.44917396203E+03 -0.85126577804E+03 -0.43712214107E+03  0.10610013276E+04  0.90760001246E+02 0.  0.
        254    2    1    2    0    0  0.44917396203E+03  0.85126577804E+03 -0.25735191800E+04  0.28866967107E+04  0.88521537289E+03 0.  0.
        -24    2    4    4    0    0  0.68072095382E+02  0.27653181263E+03 -0.92455377917E+02  0.31033407757E+03  0.81581794726E+02 0.  0.
         24    2    4    4    0    0  0.38110186665E+03  0.57473396541E+03 -0.24810638021E+04  0.25763626331E+04  0.80056625637E+02 0.  0.
         13    1    3    3    0    0 -0.21578715356E+03 -0.33662423540E+03 -0.21345006154E+03  0.45325588829E+03  0.00000000000E+00 0.  1.
        -13    1    3    3    0    0 -0.23338680847E+03 -0.51464154265E+03 -0.22367207953E+03  0.60774543927E+03  0.00000000000E+00 0. -1.
          2    1    6    6  502    0  0.26034867208E+02  0.87347506350E+02 -0.33967994544E+03  0.35169570158E+03  0.00000000000E+00 0. -1.
          3    1    5    5  503    0  0.25671985443E+02  0.21032501884E+02  0.50987887301E+01  0.33576995378E+02  0.00000000000E+00 0. -1.
         -4    1    5    5    0  503  0.42400109939E+02  0.25549931075E+03 -0.97554166647E+02  0.27675708220E+03  0.00000000000E+00 0.  1.
         -1    1    6    6    0  502  0.35506699944E+03  0.48738645906E+03 -0.21413838567E+04  0.22246669315E+04  0.00000000000E+00 0.  1.
<mgrwt>
<rscale>  0 0.25534993E+04</rscale>
<asrwt>0</asrwt>
<pdfrwt beam="1">  1        2 0.53525689E+00 0.25534993E+04</pdfrwt>
<pdfrwt beam="2">  1       -2 0.72081283E-01 0.25534993E+04</pdfrwt>
<totfact> 0.13025031E+00</totfact>
</mgrwt>
</event>
<event>
12    1  0.1201209E-007  0.1448850E+04  0.7818608E-02  0.8919198E-01
          1   -1    0    0  501    0  0.00000000000E+00  0.00000000000E+00  0.42559109270E+03  0.42559109270E+03  0.00000000000E+00 0. -1.
         -1   -1    0    0    0  501 -0.00000000000E+00 -0.00000000000E+00 -0.12330886069E+04  0.12330886069E+04  0.00000000000E+00 0.  1.
         23    2    1    2    0    0 -0.25437736173E+03 -0.28327471130E+03 -0.49165490959E+03  0.62849417513E+03  0.91257732966E+02 0.  0.
        254    2    1    2    0    0  0.25437736173E+03  0.28327471130E+03 -0.31584260457E+03  0.10301855244E+04  0.90364443210E+03 0.  0.
        -24    2    4    4    0    0  0.47045320919E+03  0.14860186435E+03  0.12443251094E+03  0.51425467939E+03  0.74603547969E+02 0.  0.
         24    2    4    4    0    0 -0.21607584746E+03  0.13467284695E+03 -0.44027511551E+03  0.51593084504E+03  0.86700126688E+02 0.  0.
         13    1    3    3    0    0 -0.24019076339E+03 -0.22157037594E+03 -0.43041226541E+03  0.54040702487E+03  0.00000000000E+00 0.  1.
        -13    1    3    3    0    0 -0.14186598334E+02 -0.61704335360E+02 -0.61242644174E+02  0.88087150255E+02  0.00000000000E+00 0. -1.
          2    1    6    6  502    0 -0.81690504805E+02  0.99840045440E+02 -0.23581717285E+03  0.26879567009E+03  0.00000000000E+00 0. -1.
          3    1    5    5  503    0  0.49773974748E+02 -0.42699037267E+01  0.10577163253E+01  0.49967983788E+02  0.00000000000E+00 0. -1.
         -4    1    5    5    0  503  0.42067923444E+03  0.15287176808E+03  0.12337479462E+03  0.46428669560E+03  0.00000000000E+00 0.  1.
         -1    1    6    6    0  502 -0.13438534265E+03  0.34832801508E+02 -0.20445794266E+03  0.24713517495E+03  0.00000000000E+00 0.  1.
<mgrwt>
<rscale>  0 0.14488499E+04</rscale>
<asrwt>0</asrwt>
<pdfrwt beam="1">  1        1 0.65475553E-01 0.14488499E+04</pdfrwt>
<pdfrwt beam="2">  1       -1 0.18970594E+00 0.14488499E+04</pdfrwt>
<totfact> 0.95198440E+00</totfact>
</mgrwt>
</event>
<event>
12    1  0.1201209E-007  0.1640409E+04  0.7818608E-02  0.8796101E-01
          1   -1    0    0  501    0  0.00000000000E+00  0.00000000000E+00  0.63986384873E+03  0.63986384873E+03  0.00000000000E+00 0. -1.
         -1   -1    0    0    0  501 -0.00000000000E+00 -0.00000000000E+00 -0.10513731543E+04  0.10513731543E+04  0.00000000000E+00 0.  1.
         23    2    1    2    0    0 -0.27264666893E+03  0.26333756506E+03 -0.58611952351E+03  0.70375799112E+03  0.89757088667E+02 0.  0.
        254    2    1    2    0    0  0.27264666893E+03 -0.26333756506E+03  0.17461021797E+03  0.98747901189E+03  0.89495429574E+03 0.  0.
        -24    2    4    4    0    0  0.13765382674E+03 -0.26002714014E+03 -0.33599236495E+03  0.45333156447E+03  0.77819974420E+02 0.  0.
         24    2    4    4    0    0  0.13499284220E+03 -0.33104249185E+01  0.51060258292E+03  0.53414744742E+03  0.79777638150E+02 0.  0.
         11    1    3    3    0    0 -0.59076886138E+02  0.40077835816E+02 -0.17875069439E+03  0.19247888753E+03  0.00000000000E+00 0. -1.
        -11    1    3    3    0    0 -0.21356978280E+03  0.22325972924E+03 -0.40736882913E+03  0.51127910359E+03  0.00000000000E+00 0.  1.
          4    1    6    6  502    0  0.10017477762E+03 -0.15205081850E+02  0.46313887696E+03  0.47409260692E+03  0.00000000000E+00 0. -1.
          1    1    5    5  503    0  0.86641769733E+02 -0.20883179694E+03 -0.28978957192E+03  0.36755341336E+03  0.00000000000E+00 0. -1.
         -2    1    5    5    0  503  0.51012057004E+02 -0.51195343203E+02 -0.46202793022E+02  0.85778151114E+02  0.00000000000E+00 0.  1.
         -3    1    6    6    0  502  0.34818064581E+02  0.11894656931E+02  0.47463705960E+02  0.60054840506E+02  0.00000000000E+00 0.  1.
<mgrwt>
<rscale>  0 0.16404093E+04</rscale>
<asrwt>0</asrwt>
<pdfrwt beam="1">  1        1 0.98440593E-01 0.16404093E+04</pdfrwt>
<pdfrwt beam="2">  1       -1 0.16174971E+00 0.16404093E+04</pdfrwt>
<totfact> 0.84508654E+00</totfact>
</mgrwt>
</event>
<event>
12    1  0.1201209E-007  0.1623704E+04  0.7818608E-02  0.8806116E-01
         -1   -1    0    0    0  501 -0.00000000000E+00  0.00000000000E+00  0.27754289249E+03  0.27754289249E+03  0.00000000000E+00 0.  1.
          1   -1    0    0  501    0  0.00000000000E+00 -0.00000000000E+00 -0.23747821101E+04  0.23747821101E+04  0.00000000000E+00 0. -1.
         23    2    1    2    0    0 -0.24685446796E+03 -0.39785253495E+03 -0.12053810468E+04  0.12963716651E+04  0.91718364065E+02 0.  0.
        254    2    1    2    0    0  0.24685446796E+03  0.39785253495E+03 -0.89185817084E+03  0.13559533375E+04  0.90773051540E+03 0.  0.
        -24    2    4    4    0    0  0.49232501479E+02 -0.45461642962E+02 -0.85464978455E+03  0.86121523930E+03  0.82309379724E+02 0.  0.
         24    2    4    4    0    0  0.19762196648E+03  0.44331417791E+03 -0.37208386291E+02  0.49473809817E+03  0.88314323855E+02 0.  0.
         11    1    3    3    0    0 -0.51405752427E+02 -0.96551330147E+02 -0.18856217813E+03  0.21799175617E+03  0.00000000000E+00 0.  1.
        -11    1    3    3    0    0 -0.19544871553E+03 -0.30130120480E+03 -0.10168188687E+04  0.10783799090E+04  0.00000000000E+00 0. -1.
          2    1    6    6  502    0  0.15135964389E+03  0.40789540951E+03 -0.32730538205E+02  0.43630229776E+03  0.00000000000E+00 0. -1.
          3    1    5    5  503    0  0.69697732073E+02 -0.47564206639E+02 -0.63007876656E+03  0.63570384589E+03  0.00000000000E+00 0. -1.
         -4    1    5    5    0  503 -0.20465230594E+02  0.21025636769E+01 -0.22457101799E+03  0.22551139341E+03  0.00000000000E+00 0.  1.
         -1    1    6    6    0  502  0.46262322584E+02  0.35418768399E+02 -0.44778480856E+01  0.58435800407E+02  0.00000000000E+00 0.  1.
<mgrwt>
<rscale>  0 0.16237043E+04</rscale>
<asrwt>0</asrwt>
<pdfrwt beam="1">  1        1 0.36535109E+00 0.16237043E+04</pdfrwt>
<pdfrwt beam="2">  1       -1 0.42698906E-01 0.16237043E+04</pdfrwt>
<totfact> 0.85634859E+00</totfact>
</mgrwt>
</event>
<event>
12    1  0.1201209E-007  0.1814014E+04  0.7818608E-02  0.8698882E-01
         -1   -1    0    0    0  501 -0.00000000000E+00  0.00000000000E+00  0.47898950362E+03  0.47898950362E+03  0.00000000000E+00 0.  1.
          1   -1    0    0  501    0  0.00000000000E+00 -0.00000000000E+00 -0.17174941112E+04  0.17174941112E+04  0.00000000000E+00 0. -1.
         23    2    1    2    0    0 -0.63831071073E+02  0.40845833819E+03 -0.11487171821E+04  0.12250741608E+04  0.10170012502E+03 0.  0.
        254    2    1    2    0    0  0.63831071073E+02 -0.40845833819E+03 -0.89787425479E+02  0.97140945399E+03  0.87444949874E+03 0.  0.
        -24    2    4    4    0    0 -0.43561508574E+02 -0.46828406359E+03  0.29410242059E+03  0.56019924325E+03  0.78354253867E+02 0.  0.
         24    2    4    4    0    0  0.10739257965E+03  0.59825725397E+02 -0.38388984607E+03  0.41121021074E+03  0.81302766963E+02 0.  0.
         13    1    3    3    0    0 -0.49647314503E+01  0.18393281735E+02 -0.13720471920E+02  0.23477919862E+02  0.00000000000E+00 0.  1.
        -13    1    3    3    0    0 -0.58866339622E+02  0.39006505645E+03 -0.11349967101E+04  0.12015962409E+04  0.00000000000E+00 0. -1.
          2    1    6    6  502    0  0.86216886610E+02  0.15396581311E+02 -0.31219866809E+03  0.32425054296E+03  0.00000000000E+00 0. -1.
          1    1    5    5  503    0  0.49622839115E+01 -0.25977912907E+03  0.13045200749E+03  0.29073621450E+03  0.00000000000E+00 0. -1.
         -2    1    5    5    0  503 -0.48523792486E+02 -0.20850493452E+03  0.16365041311E+03  0.26946302875E+03  0.00000000000E+00 0.  1.
         -1    1    6    6    0  502  0.21175693037E+02  0.44429144086E+02 -0.71691177987E+02  0.86959667783E+02  0.00000000000E+00 0.  1.
<mgrwt>
<rscale>  0 0.18140139E+04</rscale>
<asrwt>0</asrwt>
<pdfrwt beam="1">  1        1 0.26422986E+00 0.18140139E+04</pdfrwt>
<pdfrwt beam="2">  1       -1 0.73690693E-01 0.18140139E+04</pdfrwt>
<totfact> 0.81056265E+00</totfact>
</mgrwt>
</event>
<event>
12    1  0.1201209E-007  0.1530707E+04  0.7818608E-02  0.8864286E-01
         -2   -1    0    0    0  501 -0.00000000000E+00  0.00000000000E+00  0.14954646062E+03  0.14954646062E+03  0.00000000000E+00 0.  1.
          2   -1    0    0  501    0  0.00000000000E+00 -0.00000000000E+00 -0.39169512565E+04  0.39169512565E+04  0.00000000000E+00 0. -1.
         23    2    1    2    0    0 -0.34312555513E+02  0.46925397391E+03 -0.17494919921E+04  0.18137862191E+04  0.87872490906E+02 0.  0.
        254    2    1    2    0    0  0.34312555513E+02 -0.46925397391E+03 -0.20179128038E+04  0.22527114980E+04  0.88394590679E+03 0.  0.
        -24    2    4    4    0    0  0.55480868694E+01 -0.64877330458E+03 -0.86960247473E+03  0.10879015968E+04  0.79898924651E+02 0.  0.
         24    2    4    4    0    0  0.28764468644E+02  0.17951933067E+03 -0.11483103290E+04  0.11648099013E+04  0.71490625464E+02 0.  0.
         13    1    3    3    0    0 -0.11902687061E+01  0.63696902528E+02 -0.37333049879E+03  0.37872730752E+03  0.00000000000E+00 0. -1.
        -13    1    3    3    0    0 -0.33122286807E+02  0.40555707138E+03 -0.13761614933E+04  0.14350589116E+04  0.00000000000E+00 0.  1.
          2    1    6    6  502    0 -0.11156342106E+02  0.22599642089E+02 -0.69758904729E+02  0.74172181987E+02  0.00000000000E+00 0. -1.
          1    1    5    5  503    0  0.14209672937E+02 -0.30154770045E+02 -0.63839408619E+02  0.72018713222E+02  0.00000000000E+00 0. -1.
         -2    1    5    5    0  503 -0.86615860681E+01 -0.61861853454E+03 -0.80576306611E+03  0.10158828835E+04  0.00000000000E+00 0.  1.
         -1    1    6    6    0  502  0.39920810750E+02  0.15691968858E+03 -0.10785514243E+04  0.10906377193E+04  0.00000000000E+00 0.  1.
<mgrwt>
<rscale>  0 0.15307073E+04</rscale>
<asrwt>0</asrwt>
<pdfrwt beam="1">  1        2 0.60260783E+00 0.15307073E+04</pdfrwt>
<pdfrwt beam="2">  1       -2 0.23007150E-01 0.15307073E+04</pdfrwt>
<totfact> 0.65394552E+00</totfact>
</mgrwt>
</event>
<event>
12    1  0.1201209E-007  0.2330621E+04  0.7818608E-02  0.8465944E-01
          2   -1    0    0  501    0  0.00000000000E+00  0.00000000000E+00  0.39976940308E+04  0.39976940308E+04  0.00000000000E+00 0. -1.
         -2   -1    0    0    0  501 -0.00000000000E+00 -0.00000000000E+00 -0.33968307310E+03  0.33968307310E+03  0.00000000000E+00 0.  1.
         23    2    1    2    0    0 -0.70334840977E+03  0.44138617362E+03  0.25652726292E+04  0.26978432484E+04  0.90629966913E+02 0.  0.
        254    2    1    2    0    0  0.70334840977E+03 -0.44138617362E+03  0.10927383286E+04  0.16395338556E+04  0.89692445005E+03 0.  0.
        -24    2    4    4    0    0  0.46112507165E+03  0.99008209305E+02  0.11329196847E+03  0.49200729840E+03  0.82444856374E+02 0.  0.
         24    2    4    4    0    0  0.24222333812E+03 -0.54039438292E+03  0.97944636008E+03  0.11475265572E+04  0.82485104834E+02 0.  0.
         11    1    3    3    0    0 -0.61966411699E+03  0.39661018039E+03  0.23525317584E+04  0.24648912607E+04  0.00000000000E+00 0. -1.
        -11    1    3    3    0    0 -0.83684292781E+02  0.44775993224E+02  0.21274087081E+03  0.23295198763E+03  0.00000000000E+00 0.  1.
          4    1    6    6  502    0  0.21886604544E+03 -0.47589938250E+03  0.80877672476E+03  0.96358827236E+03  0.00000000000E+00 0. -1.
          3    1    5    5  503    0  0.45445916881E+03  0.87625141276E+02  0.11860718870E+03  0.47778548190E+03  0.00000000000E+00 0. -1.
         -4    1    5    5    0  503  0.66659028372E+01  0.11383068029E+02 -0.53152202326E+01  0.14221816498E+02  0.00000000000E+00 0.  1.
         -3    1    6    6    0  502  0.23357292680E+02 -0.64495000420E+02  0.17066963532E+03  0.18393828481E+03  0.00000000000E+00 0.  1.
<mgrwt>
<rscale>  0 0.23306214E+04</rscale>
<asrwt>0</asrwt>
<pdfrwt beam="1">  1        2 0.61502982E+00 0.23306214E+04</pdfrwt>
<pdfrwt beam="2">  1       -2 0.52258937E-01 0.23306214E+04</pdfrwt>
<totfact> 0.10797860E+00</totfact>
</mgrwt>
</event>
<event>
12    1  0.1201209E-007  0.3573027E+04  0.7818608E-02  0.8096698E-01
          1   -1    0    0  501    0  0.00000000000E+00  0.00000000000E+00  0.14155619768E+04  0.14155619768E+04  0.00000000000E+00 0. -1.
         -1   -1    0    0    0  501 -0.00000000000E+00 -0.00000000000E+00 -0.22546737460E+04  0.22546737460E+04  0.00000000000E+00 0.  1.
         23    2    1    2    0    0 -0.82568720147E+03 -0.10887170348E+04 -0.13775953903E+04  0.19421893700E+04  0.85242906270E+02 0.  0.
        254    2    1    2    0    0  0.82568720147E+03  0.10887170348E+04  0.53848362119E+03  0.17280463527E+04  0.91055776882E+03 0.  0.
        -24    2    4    4    0    0  0.38166514051E+03  0.16259345009E+03  0.55452345718E+03  0.69738457186E+03  0.82122268667E+02 0.  0.
         24    2    4    4    0    0  0.44402206096E+03  0.92612358474E+03 -0.16039835998E+02  0.10306617809E+04  0.84533693919E+02 0.  0.
         11    1    3    3    0    0 -0.76190872982E+03 -0.10306732323E+04 -0.12707158767E+04  0.18048576297E+04  0.00000000000E+00 0.  1.
        -11    1    3    3    0    0 -0.63778471658E+02 -0.58043802487E+02 -0.10687951366E+03  0.13733174030E+03  0.00000000000E+00 0. -1.
          2    1    6    6  502    0  0.19229811578E+03  0.34532955516E+03  0.27148555421E+02  0.39619201287E+03  0.00000000000E+00 0. -1.
          3    1    5    5  503    0  0.11684515896E+03  0.16904479794E+02  0.19195875876E+03  0.22535908607E+03  0.00000000000E+00 0. -1.
         -4    1    5    5    0  503  0.26481998156E+03  0.14568897030E+03  0.36256469843E+03  0.47202548580E+03  0.00000000000E+00 0.  1.
         -1    1    6    6    0  502  0.25172394518E+03  0.58079402958E+03 -0.43188391419E+02  0.63446976801E+03  0.00000000000E+00 0.  1.
<mgrwt>
<rscale>  0 0.35730270E+04</rscale>
<asrwt>0</asrwt>
<pdfrwt beam="1">  1        1 0.21777877E+00 0.35730270E+04</pdfrwt>
<pdfrwt beam="2">  1       -1 0.34687288E+00 0.35730270E+04</pdfrwt>
<totfact> 0.98962229E-02</totfact>
</mgrwt>
</event>
<event>
12    1  0.1201209E-007  0.2179378E+04  0.7818608E-02  0.8527061E-01
         -2   -1    0    0    0  501 -0.00000000000E+00  0.00000000000E+00  0.42810162656E+03  0.42810162656E+03  0.00000000000E+00 0.  1.
          2   -1    0    0  501    0  0.00000000000E+00 -0.00000000000E+00 -0.27736928757E+04  0.27736928757E+04  0.00000000000E+00 0. -1.
         23    2    1    2    0    0 -0.62926286737E+02  0.95082523109E+02 -0.23022453908E+04  0.23069615853E+04  0.93474663096E+02 0.  0.
        254    2    1    2    0    0  0.62926286737E+02 -0.95082523109E+02 -0.43345858361E+02  0.89483291702E+03  0.88647993896E+03 0.  0.
        -24    2    4    4    0    0 -0.15248697673E+03 -0.22721308707E+03  0.32976079820E+03  0.43578144741E+03  0.79279384907E+02 0.  0.
         24    2    4    4    0    0  0.21541326346E+03  0.13213056396E+03 -0.37310665656E+03  0.45905146961E+03  0.87511796775E+02 0.  0.
         11    1    3    3    0    0  0.45060033420E+01  0.72119932163E+02 -0.89396171491E+03  0.89687743667E+03  0.00000000000E+00 0.  1.
        -11    1    3    3    0    0 -0.67432290079E+02  0.22962590946E+02 -0.14082836759E+04  0.14100841486E+04  0.00000000000E+00 0. -1.
          2    1    6    6  502    0  0.18594228280E+03  0.11538735134E+03 -0.36268432023E+03  0.42359023776E+03  0.00000000000E+00 0. -1.
          1    1    5    5  503    0 -0.99273664820E+02 -0.13396292391E+03  0.25603295515E+03  0.30553919492E+03  0.00000000000E+00 0. -1.
         -2    1    5    5    0  503 -0.53213311906E+02 -0.93250163154E+02  0.73727843046E+02  0.13024225249E+03  0.00000000000E+00 0.  1.
         -1    1    6    6    0  502  0.29470980662E+02  0.16743212621E+02 -0.10422336330E+02  0.35461231854E+02  0.00000000000E+00 0.  1.
<mgrwt>
<rscale>  0 0.21793783E+04</rscale>
<asrwt>0</asrwt>
<pdfrwt beam="1">  1        2 0.42672200E+00 0.21793783E+04</pdfrwt>
<pdfrwt beam="2">  1       -2 0.65861786E-01 0.21793783E+04</pdfrwt>
<totfact> 0.46634452E+00</totfact>
</mgrwt>
</event>
<event>
12    1  0.1230945E-007  0.1905594E+04  0.7818608E-02  0.8652077E-01
          2   -1    0    0  501    0  0.00000000000E+00  0.00000000000E+00  0.20544552255E+04  0.20544552255E+04  0.00000000000E+00 0. -1.
         -2   -1    0    0    0  501 -0.00000000000E+00 -0.00000000000E+00 -0.44187977504E+03  0.44187977504E+03  0.00000000000E+00 0.  1.
         23    2    1    2    0    0 -0.13244101055E+02 -0.10078817871E+03  0.14794059052E+04  0.14857120885E+04  0.91459904967E+02 0.  0.
        254    2    1    2    0    0  0.13244101055E+02  0.10078817871E+03  0.13316954528E+03  0.10106229121E+04  0.99663979427E+03 0.  0.
        -24    2    4    4    0    0 -0.30295951820E+03  0.96940959806E+02 -0.31602674718E+03  0.45544327816E+03  0.79835176063E+02 0.  0.
         24    2    4    4    0    0  0.31620361925E+03  0.38472189043E+01  0.44919629245E+03  0.55517963395E+03  0.80296867162E+02 0.  0.
         11    1    3    3    0    0  0.18697733492E+02  0.75755320318E-01  0.73866206088E+02  0.76195980068E+02  0.00000000000E+00 0.  1.
        -11    1    3    3    0    0 -0.31941834548E+02 -0.10086393403E+03  0.14055396991E+04  0.14095161084E+04  0.00000000000E+00 0. -1.
          2    1    6    6  502    0  0.24772849527E+03 -0.24044265469E+02  0.37766540057E+03  0.45230375729E+03  0.00000000000E+00 0. -1.
          3    1    5    5  503    0 -0.27900683170E+03  0.92438592552E+02 -0.31531514961E+03  0.43106072553E+03  0.00000000000E+00 0. -1.
         -4    1    5    5    0  503 -0.23952686504E+02  0.45023672538E+01 -0.71159757029E+00  0.24382552629E+02  0.00000000000E+00 0.  1.
         -1    1    6    6    0  502  0.68475123979E+02  0.27891484373E+02  0.71530891888E+02  0.10287587666E+03  0.00000000000E+00 0.  1.
<mgrwt>
<rscale>  0 0.19055941E+04</rscale>
<asrwt>0</asrwt>
<pdfrwt beam="1">  1        2 0.31607003E+00 0.19055941E+04</pdfrwt>
<pdfrwt beam="2">  1       -2 0.67981505E-01 0.19055941E+04</pdfrwt>
<totfact> 0.11555830E+01</totfact>
</mgrwt>
</event>
<event>
12    1  0.1201209E-007  0.2136099E+04  0.7818608E-02  0.8545506E-01
         -1   -1    0    0    0  501 -0.00000000000E+00  0.00000000000E+00  0.70349521418E+03  0.70349521418E+03  0.00000000000E+00 0.  1.
          1   -1    0    0  501    0  0.00000000000E+00 -0.00000000000E+00 -0.16215178248E+04  0.16215178248E+04  0.00000000000E+00 0. -1.
         23    2    1    2    0    0 -0.56326799322E+03 -0.96683939854E+02  0.34411907946E+03  0.67305828930E+03  0.89279916738E+02 0.  0.
        254    2    1    2    0    0  0.56326799322E+03  0.96683939854E+02 -0.12621416901E+04  0.16519547497E+04  0.89963005328E+03 0.  0.
        -24    2    4    4    0    0  0.14127570181E+03 -0.33684047488E+03 -0.81096475669E+03  0.89302801668E+03  0.80092899438E+02 0.  0.
         24    2    4    4    0    0  0.42199229141E+03  0.43352441473E+03 -0.45117693343E+03  0.75892673304E+03  0.79926520506E+02 0.  0.
         11    1    3    3    0    0 -0.26391636906E+03 -0.48646447249E+02  0.11011997771E+03  0.29007712109E+03  0.00000000000E+00 0.  1.
        -11    1    3    3    0    0 -0.29935162415E+03 -0.48037492605E+02  0.23399910175E+03  0.38298116821E+03  0.00000000000E+00 0. -1.
          2    1    6    6  502    0  0.19104960558E+03  0.16358645248E+03 -0.14753172098E+03  0.29159233173E+03  0.00000000000E+00 0. -1.
          3    1    5    5  503    0  0.10324966774E+03 -0.19719441312E+03 -0.57025539978E+03  0.61215794648E+03  0.00000000000E+00 0. -1.
         -4    1    5    5    0  503  0.38026034068E+02 -0.13964606176E+03 -0.24070935691E+03  0.28087007020E+03  0.00000000000E+00 0.  1.
         -1    1    6    6    0  502  0.23094268583E+03  0.26993796225E+03 -0.30364521245E+03  0.46733440131E+03  0.00000000000E+00 0.  1.
<mgrwt>
<rscale>  0 0.21360993E+04</rscale>
<asrwt>0</asrwt>
<pdfrwt beam="1">  1        1 0.24946428E+00 0.21360993E+04</pdfrwt>
<pdfrwt beam="2">  1       -1 0.10823003E+00 0.21360993E+04</pdfrwt>
<totfact> 0.39208364E+00</totfact>
</mgrwt>
</event>
<event>
12    1  0.1201209E-007  0.1092536E+04  0.7818608E-02  0.9212497E-01
         -1   -1    0    0    0  501 -0.00000000000E+00  0.00000000000E+00  0.26816930551E+03  0.26816930551E+03  0.00000000000E+00 0.  1.
          1   -1    0    0  501    0  0.00000000000E+00 -0.00000000000E+00 -0.11127633996E+04  0.11127633996E+04  0.00000000000E+00 0. -1.
         23    2    1    2    0    0 -0.15536063351E+02  0.13693431012E+03 -0.40323433512E+02  0.17302559888E+03  0.96537578317E+02 0.  0.
        254    2    1    2    0    0  0.15536063351E+02 -0.13693431012E+03 -0.80427066056E+03  0.12079071062E+04  0.89061546542E+03 0.  0.
        -24    2    4    4    0    0  0.78283538512E+02  0.29438276188E+03 -0.31176807844E+02  0.31648875573E+03  0.80022598434E+02 0.  0.
         24    2    4    4    0    0 -0.62747475161E+02 -0.43131707200E+03 -0.77309385272E+03  0.89141835049E+03  0.83551829629E+02 0.  0.
         11    1    3    3    0    0  0.16893010374E+02  0.11495856688E+03 -0.58213428690E+02  0.12996018305E+03  0.00000000000E+00 0.  1.
        -11    1    3    3    0    0 -0.32429073724E+02  0.21975743236E+02  0.17889995178E+02  0.43065415833E+02  0.00000000000E+00 0. -1.
          2    1    6    6  502    0 -0.72070560043E+02 -0.38578107791E+03 -0.64340718425E+03  0.75365377358E+03  0.00000000000E+00 0. -1.
          1    1    5    5  503    0  0.36288982670E+02  0.49798940283E+02 -0.29510049692E+02  0.68320331889E+02  0.00000000000E+00 0. -1.
         -2    1    5    5    0  503  0.41994555842E+02  0.24458382160E+03 -0.16667581513E+01  0.24816842384E+03  0.00000000000E+00 0.  1.
         -1    1    6    6    0  502  0.93230848819E+01 -0.45535994091E+02 -0.12968666847E+03  0.13776457690E+03  0.00000000000E+00 0.  1.
<mgrwt>
<rscale>  0 0.10925365E+04</rscale>
<asrwt>0</asrwt>
<pdfrwt beam="1">  1        1 0.17119437E+00 0.10925365E+04</pdfrwt>
<pdfrwt beam="2">  1       -1 0.41256817E-01 0.10925365E+04</pdfrwt>
<totfact> 0.71093428E+01</totfact>
</mgrwt>
</event>
<event>
12    1  0.1201209E-007  0.1372143E+04  0.7818608E-02  0.8974234E-01
         -2   -1    0    0    0  501 -0.00000000000E+00  0.00000000000E+00  0.73259973727E+03  0.73259973727E+03  0.00000000000E+00 0.  1.
          2   -1    0    0  501    0  0.00000000000E+00 -0.00000000000E+00 -0.64249802728E+03  0.64249802728E+03  0.00000000000E+00 0. -1.
         23    2    1    2    0    0  0.21051501964E+03  0.31046664170E+03 -0.16277822770E+02  0.39668946919E+03  0.12802913085E+03 0.  0.
        254    2    1    2    0    0 -0.21051501964E+03 -0.31046664170E+03  0.10637953276E+03  0.97840829536E+03  0.89736284653E+03 0.  0.
        -24    2    4    4    0    0  0.22044738718E+02 -0.59318779719E+03  0.72866116438E+02  0.60316416931E+03  0.78356945912E+02 0.  0.
         24    2    4    4    0    0 -0.23255975836E+03  0.28272115549E+03  0.33513416322E+02  0.37524412605E+03  0.75297490615E+02 0.  0.
         13    1    3    3    0    0  0.68620052461E+02  0.26972273138E+02 -0.29447052817E+02  0.79393601994E+02  0.00000000000E+00 0.  1.
        -13    1    3    3    0    0  0.14189496718E+03  0.28349436856E+03  0.13169230048E+02  0.31729586719E+03  0.00000000000E+00 0. -1.
          4    1    6    6  502    0 -0.65283636700E+02  0.35246501069E+02  0.16813648056E+02  0.76072122485E+02  0.00000000000E+00 0. -1.
          3    1    5    5  503    0 -0.23570632309E+02 -0.28417645796E+03  0.15445904356E+02  0.28557032396E+03  0.00000000000E+00 0. -1.
         -4    1    5    5    0  503  0.45615371027E+02 -0.30901133923E+03  0.57420212082E+02  0.31759384534E+03  0.00000000000E+00 0.  1.
         -3    1    6    6    0  502 -0.16727612166E+03  0.24747465442E+03  0.16699768265E+02  0.29917200357E+03  0.00000000000E+00 0.  1.
<mgrwt>
<rscale>  0 0.13721427E+04</rscale>
<asrwt>0</asrwt>
<pdfrwt beam="1">  1        2 0.98845851E-01 0.13721427E+04</pdfrwt>
<pdfrwt beam="2">  1       -2 0.11270765E+00 0.13721427E+04</pdfrwt>
<totfact> 0.27549870E+01</totfact>
</mgrwt>
</event>
<event>
12    1  0.1201209E-007  0.1016433E+04  0.7818608E-02  0.9290703E-01
         -1   -1    0    0    0  501 -0.00000000000E+00  0.00000000000E+00  0.32832888447E+03  0.32832888447E+03  0.00000000000E+00 0.  1.
          1   -1    0    0  501    0  0.00000000000E+00 -0.00000000000E+00 -0.78666262030E+03  0.78666262030E+03  0.00000000000E+00 0. -1.
         23    2    1    2    0    0  0.45877152520E+01 -0.28381303810E+02  0.10909634638E+02  0.94565890490E+02  0.89426740850E+02 0.  0.
        254    2    1    2    0    0 -0.45877152520E+01  0.28381303810E+02 -0.46924337047E+03  0.10204256143E+04  0.90567794939E+03 0.  0.
        -24    2    4    4    0    0 -0.29871340466E+03 -0.29432619188E+03 -0.37242004631E+03  0.56643644886E+03  0.79347050081E+02 0.  0.
         24    2    4    4    0    0  0.29412568941E+03  0.32270749569E+03 -0.96823324157E+02  0.45398916542E+03  0.77983057636E+02 0.  0.
         13    1    3    3    0    0 -0.17979430410E+02 -0.53970145412E+02 -0.46320381894E+01  0.57074445170E+02  0.00000000000E+00 0.  1.
        -13    1    3    3    0    0  0.22567145662E+02  0.25588841602E+02  0.15541672828E+02  0.37491445320E+02  0.00000000000E+00 0. -1.
          2    1    6    6  502    0  0.96458856865E+02  0.55993794649E+02 -0.26814710857E+02  0.11471113645E+03  0.00000000000E+00 0. -1.
          3    1    5    5  503    0 -0.37813158240E+02 -0.67272901691E+01 -0.36736138653E+02  0.53147297694E+02  0.00000000000E+00 0. -1.
         -4    1    5    5    0  503 -0.26090024642E+03 -0.28759890171E+03 -0.33568390766E+03  0.51328915117E+03  0.00000000000E+00 0.  1.
         -1    1    6    6    0  502  0.19766683254E+03  0.26671370104E+03 -0.70008613300E+02  0.33927802897E+03  0.00000000000E+00 0.  1.
<mgrwt>
<rscale>  0 0.10164331E+04</rscale>
<asrwt>0</asrwt>
<pdfrwt beam="1">  1        1 0.12102502E+00 0.10164331E+04</pdfrwt>
<pdfrwt beam="2">  1       -1 0.50512137E-01 0.10164331E+04</pdfrwt>
<totfact> 0.89532342E+01</totfact>
</mgrwt>
</event>
<event>
12    1  0.1425221E-007  0.1870026E+04  0.7818608E-02  0.8669922E-01
         -1   -1    0    0    0  501 -0.00000000000E+00  0.00000000000E+00  0.11491226908E+04  0.11491226908E+04  0.00000000000E+00 0.  1.
          1   -1    0    0  501    0  0.00000000000E+00 -0.00000000000E+00 -0.76079684888E+03  0.76079684888E+03  0.00000000000E+00 0. -1.
         23    2    1    2    0    0  0.74003672170E+02 -0.55152182909E+03  0.61056688539E+03  0.83111545887E+03  0.91148850720E+02 0.  0.
        254    2    1    2    0    0 -0.74003672170E+02  0.55152182909E+03 -0.22224104347E+03  0.10788040808E+04  0.89709213123E+03 0.  0.
        -24    2    4    4    0    0  0.10566287117E+03  0.43817052620E+03  0.27366078461E+03  0.53355241047E+03  0.81424181356E+02 0.  0.
         24    2    4    4    0    0 -0.17966654334E+03  0.11335130288E+03 -0.49590182809E+03  0.54525167034E+03  0.79070704076E+02 0.  0.
         13    1    3    3    0    0  0.46428995439E+02 -0.51832055098E+03  0.57102969344E+03  0.77258446527E+03  0.00000000000E+00 0.  1.
        -13    1    3    3    0    0  0.27574676731E+02 -0.33201278101E+02  0.39537191952E+02  0.58530993600E+02  0.00000000000E+00 0. -1.
          2    1    6    6  502    0 -0.39991901335E+02  0.23642521848E+02 -0.44653249066E+02  0.64437827895E+02  0.00000000000E+00 0. -1.
          3    1    5    5  503    0  0.18985949963E+02  0.80366367313E+02  0.15800872673E+02  0.84076672557E+02  0.00000000000E+00 0. -1.
         -4    1    5    5    0  503  0.86676921208E+02  0.35780415889E+03  0.25785991194E+03  0.44947573792E+03  0.00000000000E+00 0.  1.
         -1    1    6    6    0  502 -0.13967464201E+03  0.89708781034E+02 -0.45124857902E+03  0.48081384244E+03  0.00000000000E+00 0.  1.
<mgrwt>
<rscale>  0 0.18700256E+04</rscale>
<asrwt>0</asrwt>
<pdfrwt beam="1">  1        1 0.11704567E+00 0.18700256E+04</pdfrwt>
<pdfrwt beam="2">  1       -1 0.17678811E+00 0.18700256E+04</pdfrwt>
<totfact> 0.49312426E+00</totfact>
</mgrwt>
</event>
<event>
12    1  0.1201209E-007  0.3107167E+04  0.7818608E-02  0.8213774E-01
         -2   -1    0    0    0  501 -0.00000000000E+00  0.00000000000E+00  0.62318476145E+03  0.62318476145E+03  0.00000000000E+00 0. -1.
          2   -1    0    0  501    0  0.00000000000E+00 -0.00000000000E+00 -0.38730444900E+04  0.38730444900E+04  0.00000000000E+00 0.  1.
         23    2    1    2    0    0 -0.76192261458E+03 -0.13366368354E+03 -0.32186903510E+04  0.33115697223E+04  0.90190903125E+02 0.  0.
        254    2    1    2    0    0  0.76192261458E+03  0.13366368354E+03 -0.31169377553E+02  0.11846595292E+04  0.89669092727E+03 0.  0.
        -24    2    4    4    0    0  0.86971049056E+01 -0.26997897930E+03 -0.15147606676E+03  0.31787049621E+03  0.71640523889E+02 0.  0.
         24    2    4    4    0    0  0.75322550967E+03  0.40364266285E+03  0.12030668921E+03  0.86678903296E+03  0.81076880160E+02 0.  0.
         11    1    3    3    0    0 -0.61583396526E+03 -0.78756370275E+02 -0.24751584352E+04  0.25518352842E+04  0.00000000000E+00 0.  1.
        -11    1    3    3    0    0 -0.14608864932E+03 -0.54907313270E+02 -0.74353191582E+03  0.75973443805E+03  0.00000000000E+00 0. -1.
          4    1    6    6  502    0  0.60561228567E+03  0.30112813032E+03  0.68809637907E+02  0.67983759655E+03  0.00000000000E+00 0. -1.
          3    1    5    5  503    0 -0.12298621246E+02 -0.24584653464E+03 -0.12360910652E+03  0.27544688398E+03  0.00000000000E+00 0. -1.
         -4    1    5    5    0  503  0.20995726151E+02 -0.24132444660E+02 -0.27866960238E+02  0.42423612232E+02  0.00000000000E+00 0.  1.
         -3    1    6    6    0  502  0.14761322401E+03  0.10251453253E+03  0.51497051301E+02  0.18695143640E+03  0.00000000000E+00 0.  1.
<mgrwt>
<rscale>  0 0.31071674E+04</rscale>
<asrwt>0</asrwt>
<pdfrwt beam="1">  1        2 0.59585300E+00 0.31071674E+04</pdfrwt>
<pdfrwt beam="2">  1       -2 0.95874578E-01 0.31071674E+04</pdfrwt>
<totfact> 0.33360072E-01</totfact>
</mgrwt>
</event>
<event>
12    1  0.1201209E-007  0.1882424E+04  0.7818608E-02  0.8663655E-01
         -1   -1    0    0    0  501 -0.00000000000E+00  0.00000000000E+00  0.97801224822E+03  0.97801224822E+03  0.00000000000E+00 0.  1.
          1   -1    0    0  501    0  0.00000000000E+00 -0.00000000000E+00 -0.90579691086E+03  0.90579691086E+03  0.00000000000E+00 0. -1.
         23    2    1    2    0    0  0.58640482408E+03  0.41585905547E+03  0.10716609052E+03  0.73279373991E+03  0.93234771267E+02 0.  0.
        254    2    1    2    0    0 -0.58640482408E+03 -0.41585905547E+03 -0.34950753168E+02  0.11510154192E+04  0.89822356254E+03 0.  0.
        -24    2    4    4    0    0  0.16971950651E+03 -0.32048587873E+03  0.70301816924E+02  0.37747332591E+03  0.77639274608E+02 0.  0.
         24    2    4    4    0    0 -0.75612433059E+03 -0.95373176741E+02 -0.10525257009E+03  0.77354209326E+03  0.80431463863E+02 0.  0.
         13    1    3    3    0    0  0.21494937238E+03  0.13624676738E+03 -0.49247252195E+01  0.25454010927E+03  0.00000000000E+00 0. -1.
        -13    1    3    3    0    0  0.37145545171E+03  0.27961228808E+03  0.11209081574E+03  0.47825363064E+03  0.00000000000E+00 0.  1.
          4    1    6    6  502    0 -0.23447121033E+03  0.66365400173E+01 -0.41333529797E+02  0.23817903523E+03  0.00000000000E+00 0. -1.
          3    1    5    5  503    0  0.13245724868E+03 -0.27570616875E+03  0.84858317962E+02  0.31742676059E+03  0.00000000000E+00 0. -1.
         -4    1    5    5    0  503  0.37262257833E+02 -0.44779709976E+02 -0.14556501038E+02  0.60046565321E+02  0.00000000000E+00 0.  1.
         -3    1    6    6    0  502 -0.52165312026E+03 -0.10200971676E+03 -0.63919040295E+02  0.53536305803E+03  0.00000000000E+00 0.  1.
<mgrwt>
<rscale>  0 0.18824245E+04</rscale>
<asrwt>0</asrwt>
<pdfrwt beam="1">  1        1 0.13935337E+00 0.18824245E+04</pdfrwt>
<pdfrwt beam="2">  1       -1 0.15046342E+00 0.18824245E+04</pdfrwt>
<totfact> 0.58357964E+00</totfact>
</mgrwt>
</event>
<event>
12    1  0.1201209E-007  0.1876171E+04  0.7818608E-02  0.8666809E-01
          2   -1    0    0  501    0  0.00000000000E+00  0.00000000000E+00  0.56884831634E+03  0.56884831634E+03  0.00000000000E+00 0. -1.
         -2   -1    0    0    0  501 -0.00000000000E+00 -0.00000000000E+00 -0.15469934091E+04  0.15469934091E+04  0.00000000000E+00 0.  1.
         23    2    1    2    0    0  0.12126852702E+03 -0.37505835889E+02 -0.11656908591E+04  0.11762241893E+04  0.92495519766E+02 0.  0.
        254    2    1    2    0    0 -0.12126852702E+03  0.37505835889E+02  0.18754576630E+03  0.93961753615E+03  0.91191828385E+03 0.  0.
        -24    2    4    4    0    0 -0.39325974238E+03 -0.25642464092E+03 -0.29414385337E+02  0.47705399527E+03  0.79425983767E+02 0.  0.
         24    2    4    4    0    0  0.27199121535E+03  0.29393047680E+03  0.21696015164E+03  0.46256354088E+03  0.80740172964E+02 0.  0.
         11    1    3    3    0    0 -0.11724008789E+01 -0.17930182444E+02 -0.41281026918E+03  0.41320114267E+03  0.00000000000E+00 0. -1.
        -11    1    3    3    0    0  0.12244092790E+03 -0.19575653444E+02 -0.75288058993E+03  0.76302304666E+03  0.00000000000E+00 0.  1.
          4    1    6    6  502    0  0.71491378939E+02  0.99212349045E+02  0.10606402306E+03  0.16187552148E+03  0.00000000000E+00 0. -1.
          1    1    5    5  503    0 -0.13203630753E+03 -0.67617365417E+02 -0.43015103036E+02  0.15445385622E+03  0.00000000000E+00 0. -1.
         -2    1    5    5    0  503 -0.26122343485E+03 -0.18880727550E+03  0.13600717699E+02  0.32260013905E+03  0.00000000000E+00 0.  1.
         -3    1    6    6    0  502  0.20049983641E+03  0.19471812776E+03  0.11089612858E+03  0.30068801941E+03  0.00000000000E+00 0.  1.
<mgrwt>
<rscale>  0 0.18761712E+04</rscale>
<asrwt>0</asrwt>
<pdfrwt beam="1">  1        2 0.87515128E-01 0.18761712E+04</pdfrwt>
<pdfrwt beam="2">  1       -2 0.23799898E+00 0.18761712E+04</pdfrwt>
<totfact> 0.37810485E+00</totfact>
</mgrwt>
</event>
<event>
12    1  0.1201209E-007  0.1419697E+04  0.7818608E-02  0.8939683E-01
          2   -1    0    0  501    0  0.00000000000E+00  0.00000000000E+00  0.52662183737E+03  0.52662183737E+03  0.00000000000E+00 0. -1.
         -2   -1    0    0    0  501 -0.00000000000E+00 -0.00000000000E+00 -0.95682521797E+03  0.95682521797E+03  0.00000000000E+00 0.  1.
         23    2    1    2    0    0 -0.34559550013E+03  0.16853421852E+03 -0.30943673331E+03  0.50194382048E+03  0.91413754298E+02 0.  0.
        254    2    1    2    0    0  0.34559550013E+03 -0.16853421852E+03 -0.12076664728E+03  0.98150323486E+03  0.89494356494E+03 0.  0.
        -24    2    4    4    0    0  0.46246628295E+03 -0.45541733445E+03 -0.95315392129E+02  0.66077580750E+03  0.79117838820E+02 0.  0.
         24    2    4    4    0    0 -0.11687078282E+03  0.28688311593E+03 -0.25451255156E+02  0.32072742736E+03  0.79105083194E+02 0.  0.
         11    1    3    3    0    0 -0.33784646082E+03  0.15356858485E+03 -0.26963972687E+03  0.45872554283E+03  0.00000000000E+00 0.  1.
        -11    1    3    3    0    0 -0.77490393137E+01  0.14965633671E+02 -0.39797006440E+02  0.43218277650E+02  0.00000000000E+00 0. -1.
          2    1    6    6  502    0 -0.56330007663E+02  0.18069472601E+03 -0.50632033614E+02  0.19592666127E+03  0.00000000000E+00 0. -1.
          1    1    5    5  503    0  0.41583208344E+02 -0.76453191892E+02 -0.41260882420E+01  0.87127942538E+02  0.00000000000E+00 0. -1.
         -2    1    5    5    0  503  0.42088307461E+03 -0.37896414256E+03 -0.91189303887E+02  0.57364786497E+03  0.00000000000E+00 0.  1.
         -1    1    6    6    0  502 -0.60540775158E+02  0.10618838993E+03  0.25180778458E+02  0.12480076609E+03  0.00000000000E+00 0.  1.
<mgrwt>
<rscale>  0 0.14196972E+04</rscale>
<asrwt>0</asrwt>
<pdfrwt beam="1">  1        2 0.81018745E-01 0.14196972E+04</pdfrwt>
<pdfrwt beam="2">  1       -2 0.14720388E+00 0.14196972E+04</pdfrwt>
<totfact> 0.17723075E+01</totfact>
</mgrwt>
</event>
<event>
12    1  0.1201209E-007  0.1788074E+04  0.7818608E-02  0.8712667E-01
          1   -1    0    0  501    0  0.00000000000E+00  0.00000000000E+00  0.74970630933E+03  0.74970630933E+03  0.00000000000E+00 0. -1.
         -1   -1    0    0    0  501 -0.00000000000E+00 -0.00000000000E+00 -0.10661540727E+04  0.10661540727E+04  0.00000000000E+00 0.  1.
         23    2    1    2    0    0 -0.24873599968E+03  0.10036178076E+03  0.50854400551E+03  0.58270910835E+03  0.94819907400E+02 0.  0.
        254    2    1    2    0    0  0.24873599968E+03 -0.10036178076E+03 -0.82499176885E+03  0.12331512737E+04  0.87641802838E+03 0.  0.
        -24    2    4    4    0    0  0.23381451313E+03 -0.47251150286E+03 -0.43839631372E+03  0.69035587556E+03  0.80396269480E+02 0.  0.
         24    2    4    4    0    0  0.14921486547E+02  0.37214972210E+03 -0.38659545512E+03  0.54279539809E+03  0.80328897954E+02 0.  0.
         11    1    3    3    0    0 -0.22972820368E+03  0.10656113726E+03  0.40804446879E+03  0.48024016081E+03  0.00000000000E+00 0. -1.
        -11    1    3    3    0    0 -0.19007795992E+02 -0.61993564945E+01  0.10049953672E+03  0.10246894754E+03  0.00000000000E+00 0.  1.
          4    1    6    6  502    0 -0.31215321471E+02  0.94731057492E+02 -0.10479453633E+03  0.14467295668E+03  0.00000000000E+00 0. -1.
          1    1    5    5  503    0  0.54953109757E+02 -0.55656652943E+02 -0.47134820764E+02  0.91319212749E+02  0.00000000000E+00 0. -1.
         -2    1    5    5    0  503  0.17886140337E+03 -0.41685484992E+03 -0.39126149296E+03  0.59903666281E+03  0.00000000000E+00 0.  1.
         -3    1    6    6    0  502  0.46136808018E+02  0.27741866461E+03 -0.28180091879E+03  0.39812244141E+03  0.00000000000E+00 0.  1.
<mgrwt>
<rscale>  0 0.17880743E+04</rscale>
<asrwt>0</asrwt>
<pdfrwt beam="1">  1        1 0.11533943E+00 0.17880743E+04</pdfrwt>
<pdfrwt beam="2">  1       -1 0.16402370E+00 0.17880743E+04</pdfrwt>
<totfact> 0.63087760E+00</totfact>
</mgrwt>
</event>
<event>
12    1  0.1201209E-007  0.2084559E+04  0.7818608E-02  0.8568076E-01
         -2   -1    0    0    0  501 -0.00000000000E+00  0.00000000000E+00  0.78068151358E+03  0.78068151358E+03  0.00000000000E+00 0.  1.
          2   -1    0    0  501    0  0.00000000000E+00 -0.00000000000E+00 -0.13915357151E+04  0.13915357151E+04  0.00000000000E+00 0. -1.
         23    2    1    2    0    0 -0.41768754425E+02 -0.83144031814E+03 -0.41581602644E+03  0.93407838204E+03  0.81005089136E+02 0.  0.
        254    2    1    2    0    0  0.41768754425E+02  0.83144031814E+03 -0.19503817512E+03  0.12381388467E+04  0.89549443462E+03 0.  0.
        -24    2    4    4    0    0  0.14690398742E+03  0.22601183197E+03  0.32472254179E+03  0.42988355266E+03  0.81810818268E+02 0.  0.
         24    2    4    4    0    0 -0.10513523300E+03  0.60542848617E+03 -0.51976071691E+03  0.80825529403E+03  0.74352864120E+02 0.  0.
         13    1    3    3    0    0 -0.10881649032E+02 -0.73612485919E+03 -0.36810859576E+03  0.82310519186E+03  0.00000000000E+00 0. -1.
        -13    1    3    3    0    0 -0.30887105393E+02 -0.95315458954E+02 -0.47707430686E+02  0.11097319018E+03  0.00000000000E+00 0.  1.
          4    1    6    6  502    0  0.79146654784E+01  0.80665501735E+02 -0.85291171293E+02  0.11766116182E+03  0.00000000000E+00 0. -1.
          1    1    5    5  503    0  0.95993910920E+01  0.80658006708E+02  0.10592703078E+03  0.13348557302E+03  0.00000000000E+00 0. -1.
         -2    1    5    5    0  503  0.13730459633E+03  0.14535382527E+03  0.21879551101E+03  0.29639797963E+03  0.00000000000E+00 0.  1.
         -3    1    6    6    0  502 -0.11304989848E+03  0.52476298443E+03 -0.43446954561E+03  0.69059413221E+03  0.00000000000E+00 0.  1.
<mgrwt>
<rscale>  0 0.20845587E+04</rscale>
<asrwt>0</asrwt>
<pdfrwt beam="1">  1        2 0.21408242E+00 0.20845587E+04</pdfrwt>
<pdfrwt beam="2">  1       -2 0.12010485E+00 0.20845587E+04</pdfrwt>
<totfact> 0.71554425E+00</totfact>
</mgrwt>
</event>
<event>
12    1  0.1201209E-007  0.2234403E+04  0.7818608E-02  0.8504244E-01
          2   -1    0    0  501    0  0.00000000000E+00  0.00000000000E+00  0.14174179101E+04  0.14174179101E+04  0.00000000000E+00 0. -1.
         -2   -1    0    0    0  501 -0.00000000000E+00 -0.00000000000E+00 -0.88057249251E+03  0.88057249251E+03  0.00000000000E+00 0.  1.
         23    2    1    2    0    0  0.61768971430E+03  0.49734991588E+03  0.72839183866E+03  0.10804841001E+04  0.89407482560E+02 0.  0.
        254    2    1    2    0    0 -0.61768971430E+03 -0.49734991588E+03 -0.19154642112E+03  0.12175063025E+04  0.90373339163E+03 0.  0.
        -24    2    4    4    0    0 -0.57424152501E+03  0.97475777803E+02 -0.17897773265E+03  0.61539624906E+03  0.86166456735E+02 0.  0.
         24    2    4    4    0    0 -0.43448189286E+02 -0.59482569368E+03 -0.12568688468E+02  0.60211005342E+03  0.81689616719E+02 0.  0.
         11    1    3    3    0    0  0.55542955874E+03  0.44889305157E+03  0.61568430731E+03  0.94290727685E+03  0.00000000000E+00 0. -1.
        -11    1    3    3    0    0  0.62260155560E+02  0.48456864311E+02  0.11270753135E+03  0.13757682324E+03  0.00000000000E+00 0.  1.
          4    1    6    6  502    0  0.15687571874E+02 -0.37055826139E+02  0.71385878452E+01  0.40868002136E+02  0.00000000000E+00 0. -1.
          3    1    5    5  503    0 -0.25032193816E+03  0.12175291828E+00 -0.67450720362E+02  0.25925024055E+03  0.00000000000E+00 0. -1.
         -4    1    5    5    0  503 -0.32391958685E+03  0.97354024885E+02 -0.11152701229E+03  0.35614600851E+03  0.00000000000E+00 0.  1.
         -3    1    6    6    0  502 -0.59135761160E+02 -0.55776986754E+03 -0.19707276314E+02  0.56124205128E+03  0.00000000000E+00 0.  1.
<mgrwt>
<rscale>  0 0.22344030E+04</rscale>
<asrwt>0</asrwt>
<pdfrwt beam="1">  1        2 0.21806429E+00 0.22344030E+04</pdfrwt>
<pdfrwt beam="2">  1       -2 0.13547269E+00 0.22344030E+04</pdfrwt>
<totfact> 0.50410237E+00</totfact>
</mgrwt>
</event>
<event>
12    1  0.1201209E-007  0.2465500E+04  0.7818608E-02  0.8415380E-01
         -2   -1    0    0    0  501 -0.00000000000E+00  0.00000000000E+00  0.10551288474E+04  0.10551288474E+04  0.00000000000E+00 0.  1.
          2   -1    0    0  501    0  0.00000000000E+00 -0.00000000000E+00 -0.14402720480E+04  0.14402720480E+04  0.00000000000E+00 0. -1.
         23    2    1    2    0    0  0.90964866487E+03  0.42602832408E+03 -0.52475226514E+03  0.11368732137E+04  0.90304694079E+02 0.  0.
        254    2    1    2    0    0 -0.90964866487E+03 -0.42602832408E+03  0.13960906457E+03  0.13585276818E+04  0.90396125180E+03 0.  0.
        -24    2    4    4    0    0 -0.82946689786E+03  0.42559173953E+02 -0.60348753019E+02  0.83667530444E+03  0.80975151416E+02 0.  0.
         24    2    4    4    0    0 -0.80181767016E+02 -0.46858749804E+03  0.19995781758E+03  0.52185237731E+03  0.79645563683E+02 0.  0.
         13    1    3    3    0    0  0.10651040726E+03  0.25716474873E+02 -0.37907467848E+02  0.11594300347E+03  0.00000000000E+00 0.  1.
        -13    1    3    3    0    0  0.80313825761E+03  0.40031184921E+03 -0.48684479729E+03  0.10209302102E+04  0.00000000000E+00 0. -1.
          4    1    6    6  502    0 -0.15108111682E+02 -0.31313458114E+03  0.12948706626E+03  0.33918788492E+03  0.00000000000E+00 0. -1.
          3    1    5    5  503    0 -0.74167100957E+03  0.22786224332E+02 -0.33566676645E+02  0.74277979256E+03  0.00000000000E+00 0. -1.
         -4    1    5    5    0  503 -0.87795888286E+02  0.19772949621E+02 -0.26782076374E+02  0.93895511882E+02  0.00000000000E+00 0.  1.
         -3    1    6    6    0  502 -0.65073655334E+02 -0.15545291689E+03  0.70470751323E+02  0.18266449239E+03  0.00000000000E+00 0.  1.
<mgrwt>
<rscale>  0 0.24655000E+04</rscale>
<asrwt>0</asrwt>
<pdfrwt beam="1">  1        2 0.22158031E+00 0.24655000E+04</pdfrwt>
<pdfrwt beam="2">  1       -2 0.16232752E+00 0.24655000E+04</pdfrwt>
<totfact> 0.29727293E+00</totfact>
</mgrwt>
</event>
<event>
12    1  0.1201209E-007  0.1340719E+04  0.7818608E-02  0.8997883E-01
          1   -1    0    0  501    0  0.00000000000E+00  0.00000000000E+00  0.19514420637E+04  0.19514420637E+04  0.00000000000E+00 0. -1.
         -1   -1    0    0    0  501 -0.00000000000E+00 -0.00000000000E+00 -0.23028209071E+03  0.23028209071E+03  0.00000000000E+00 0.  1.
         23    2    1    2    0    0 -0.22211048239E+03 -0.85587315307E+01  0.91360103485E+03  0.94464214040E+03  0.90970348261E+02 0.  0.
        254    2    1    2    0    0  0.22211048239E+03  0.85587315307E+01  0.80755893813E+03  0.12370820140E+04  0.91039230696E+03 0.  0.
        -24    2    4    4    0    0 -0.33598898546E+03 -0.49282482939E+01  0.45784147186E+03  0.57347486008E+03  0.79634890626E+02 0.  0.
         24    2    4    4    0    0  0.55809946785E+03  0.13486979825E+02  0.34971746627E+03  0.66360715393E+03  0.80095155262E+02 0.  0.
         11    1    3    3    0    0 -0.17540770470E+02 -0.26536155846E+02  0.79371974389E+02  0.85508809571E+02  0.00000000000E+00 0.  1.
        -11    1    3    3    0    0 -0.20456971192E+03  0.17977424315E+02  0.83422906046E+03  0.85913333082E+03  0.00000000000E+00 0. -1.
          4    1    6    6  502    0  0.58409020394E+02 -0.11254403884E+02  0.14011460452E+02  0.61111343416E+02  0.00000000000E+00 0. -1.
          1    1    5    5  503    0 -0.25579325131E+03 -0.10750649811E+02  0.28661983454E+03  0.38431327513E+03  0.00000000000E+00 0. -1.
         -2    1    5    5    0  503 -0.80195734154E+02  0.58224015166E+01  0.17122163732E+03  0.18916158495E+03  0.00000000000E+00 0.  1.
         -3    1    6    6    0  502  0.49969044746E+03  0.24741383709E+02  0.33570600582E+03  0.60249581051E+03  0.00000000000E+00 0.  1.
<mgrwt>
<rscale>  0 0.13407194E+04</rscale>
<asrwt>0</asrwt>
<pdfrwt beam="1">  1        1 0.30022185E+00 0.13407194E+04</pdfrwt>
<pdfrwt beam="2">  1       -1 0.35428015E-01 0.13407194E+04</pdfrwt>
<totfact> 0.23930778E+01</totfact>
</mgrwt>
</event>
<event>
12    1  0.1201209E-007  0.2189942E+04  0.7818608E-02  0.8522626E-01
         -1   -1    0    0    0  501 -0.00000000000E+00  0.00000000000E+00  0.36307868660E+03  0.36307868660E+03  0.00000000000E+00 0.  1.
          1   -1    0    0  501    0  0.00000000000E+00 -0.00000000000E+00 -0.33022080720E+04  0.33022080720E+04  0.00000000000E+00 0. -1.
         23    2    1    2    0    0 -0.18604510580E+03  0.23932595100E+03  0.20617055043E+03  0.37746861424E+03  0.89925339362E+02 0.  0.
        254    2    1    2    0    0  0.18604510580E+03 -0.23932595100E+03 -0.31452999358E+04  0.32878181443E+04  0.90826580461E+03 0.  0.
        -24    2    4    4    0    0 -0.53614107040E+02  0.11993602545E+03 -0.50122394713E+02  0.16159348583E+03  0.79630883057E+02 0.  0.
         24    2    4    4    0    0  0.23965921284E+03 -0.35926197645E+03 -0.30951775411E+04  0.31262246585E+04  0.81553041168E+02 0.  0.
         11    1    3    3    0    0 -0.34365401228E+02  0.87379152287E+02  0.26637169791E+02  0.97599364088E+02  0.00000000000E+00 0. -1.
        -11    1    3    3    0    0 -0.15167970457E+03  0.15194679871E+03  0.17953338064E+03  0.27986925015E+03  0.00000000000E+00 0.  1.
          2    1    6    6  502    0  0.10715578184E+03 -0.23155543676E+03 -0.18567641809E+04  0.18742127695E+04  0.00000000000E+00 0. -1.
          1    1    5    5  503    0  0.19003789030E+02  0.41213893212E+02 -0.24060051222E+02  0.51367451328E+02  0.00000000000E+00 0. -1.
         -2    1    5    5    0  503 -0.72617896070E+02  0.78722132242E+02 -0.26062343491E+02  0.11022603450E+03  0.00000000000E+00 0.  1.
         -1    1    6    6    0  502  0.13250343100E+03 -0.12770653969E+03 -0.12384133602E+04  0.12520118890E+04  0.00000000000E+00 0.  1.
<mgrwt>
<rscale>  0 0.21899419E+04</rscale>
<asrwt>0</asrwt>
<pdfrwt beam="1">  1        1 0.50803202E+00 0.21899419E+04</pdfrwt>
<pdfrwt beam="2">  1       -1 0.55858258E-01 0.21899419E+04</pdfrwt>
<totfact> 0.10544411E+00</totfact>
</mgrwt>
</event>
<event>
12    1  0.1201209E-007  0.2287194E+04  0.7818608E-02  0.8482987E-01
          2   -1    0    0  501    0  0.00000000000E+00  0.00000000000E+00  0.10761890347E+04  0.10761890347E+04  0.00000000000E+00 0. -1.
         -2   -1    0    0    0  501 -0.00000000000E+00 -0.00000000000E+00 -0.12152272893E+04  0.12152272893E+04  0.00000000000E+00 0.  1.
         23    2    1    2    0    0 -0.64083559874E+03 -0.39658910088E+03 -0.65803355631E+03  0.10047664063E+04  0.92704856576E+02 0.  0.
        254    2    1    2    0    0  0.64083559874E+03  0.39658910088E+03  0.51899530165E+03  0.12866499177E+04  0.90452125910E+03 0.  0.
        -24    2    4    4    0    0  0.18465271570E+03 -0.10062367911E+03  0.56207729662E+03  0.60567842877E+03  0.81815166606E+02 0.  0.
         24    2    4    4    0    0  0.45618288304E+03  0.49721277999E+03 -0.43081994974E+02  0.68097148897E+03  0.80887200157E+02 0.  0.
         13    1    3    3    0    0 -0.40599011572E+03 -0.20911824595E+03 -0.35971018004E+03  0.58133452373E+03  0.00000000000E+00 0.  1.
        -13    1    3    3    0    0 -0.23484548301E+03 -0.18747085493E+03 -0.29832337627E+03  0.42343188256E+03  0.00000000000E+00 0. -1.
          2    1    6    6  502    0  0.21727540899E+03  0.24565740727E+03 -0.61007932423E+02  0.33358377196E+03  0.00000000000E+00 0. -1.
          1    1    5    5  503    0  0.13751602294E+03 -0.31685291351E+02  0.38017519838E+03  0.40552163410E+03  0.00000000000E+00 0. -1.
         -2    1    5    5    0  503  0.47136692758E+02 -0.68938387756E+02  0.18190209824E+03  0.20015679467E+03  0.00000000000E+00 0.  1.
         -1    1    6    6    0  502  0.23890747405E+03  0.25155537271E+03  0.17925937449E+02  0.34738771701E+03  0.00000000000E+00 0.  1.
<mgrwt>
<rscale>  0 0.22871942E+04</rscale>
<asrwt>0</asrwt>
<pdfrwt beam="1">  1        2 0.16556754E+00 0.22871942E+04</pdfrwt>
<pdfrwt beam="2">  1       -2 0.18695804E+00 0.22871942E+04</pdfrwt>
<totfact> 0.33237631E+00</totfact>
</mgrwt>
</event>
<event>
12    1  0.1201209E-007  0.1639276E+04  0.7818608E-02  0.8796776E-01
          1   -1    0    0  501    0  0.00000000000E+00  0.00000000000E+00  0.65359063426E+03  0.65359063426E+03  0.00000000000E+00 0. -1.
         -1   -1    0    0    0  501 -0.00000000000E+00 -0.00000000000E+00 -0.10278704980E+04  0.10278704980E+04  0.00000000000E+00 0.  1.
         23    2    1    2    0    0 -0.55021511676E+03 -0.70050378190E+02 -0.25696079792E+03  0.61789483237E+03  0.90119043487E+02 0.  0.
        254    2    1    2    0    0  0.55021511676E+03  0.70050378190E+02 -0.11731906582E+03  0.10635662999E+04  0.89986986884E+03 0.  0.
        -24    2    4    4    0    0  0.59225635311E+03 -0.40092587332E+02 -0.41869047860E+03  0.73056671364E+03  0.77788192168E+02 0.  0.
         24    2    4    4    0    0 -0.42041236352E+02  0.11014296552E+03  0.30137141279E+03  0.33299958624E+03  0.78517880678E+02 0.  0.
         13    1    3    3    0    0 -0.17927382577E+03 -0.37901570968E+02 -0.42082419603E+02  0.18800681830E+03  0.00000000000E+00 0.  1.
        -13    1    3    3    0    0 -0.37094129099E+03 -0.32148807222E+02 -0.21487837831E+03  0.42988801406E+03  0.00000000000E+00 0. -1.
          2    1    6    6  502    0 -0.32849634680E+02  0.23378931743E+02  0.37445121808E+02  0.55025540390E+02  0.00000000000E+00 0. -1.
          3    1    5    5  503    0  0.46080732921E+03 -0.63420993440E+02 -0.32848562733E+03  0.56944571684E+03  0.00000000000E+00 0. -1.
         -4    1    5    5    0  503  0.13144902390E+03  0.23328406108E+02 -0.90204851277E+02  0.16112099680E+03  0.00000000000E+00 0.  1.
         -1    1    6    6    0  502 -0.91916016720E+01  0.86764033779E+02  0.26392629098E+03  0.27797404585E+03  0.00000000000E+00 0.  1.
<mgrwt>
<rscale>  0 0.16392761E+04</rscale>
<asrwt>0</asrwt>
<pdfrwt beam="1">  1        1 0.10055241E+00 0.16392761E+04</pdfrwt>
<pdfrwt beam="2">  1       -1 0.15813392E+00 0.16392761E+04</pdfrwt>
<totfact> 0.87240494E+00</totfact>
</mgrwt>
</event>
<event>
12    1  0.1201209E-007  0.1720055E+04  0.7818608E-02  0.8750008E-01
          1   -1    0    0  501    0  0.00000000000E+00  0.00000000000E+00  0.16062133979E+04  0.16062133979E+04  0.00000000000E+00 0. -1.
         -1   -1    0    0    0  501 -0.00000000000E+00 -0.00000000000E+00 -0.46049104969E+03  0.46049104969E+03  0.00000000000E+00 0.  1.
         23    2    1    2    0    0 -0.60721508785E+03 -0.12884411865E+03  0.46417075225E+03  0.78064728360E+03  0.92977009734E+02 0.  0.
        254    2    1    2    0    0  0.60721508785E+03  0.12884411865E+03  0.68155159592E+03  0.12860571639E+04  0.89672709405E+03 0.  0.
        -24    2    4    4    0    0  0.66553173605E+03 -0.21028866144E+03  0.59934626478E+03  0.92339956715E+03  0.79353655814E+02 0.  0.
         24    2    4    4    0    0 -0.58316648200E+02  0.33913278009E+03  0.82205331133E+02  0.36265759679E+03  0.79692797994E+02 0.  0.
         13    1    3    3    0    0 -0.29755911428E+03 -0.43464760150E+02  0.27717511844E+03  0.40897024115E+03  0.00000000000E+00 0. -1.
        -13    1    3    3    0    0 -0.30965597357E+03 -0.85379358504E+02  0.18699563381E+03  0.37167704246E+03  0.00000000000E+00 0.  1.
          2    1    6    6  502    0 -0.36140882165E+02  0.64658772386E+02 -0.37988326372E+01  0.74171095041E+02  0.00000000000E+00 0. -1.
          1    1    5    5  503    0  0.16028646790E+03 -0.82983978536E+02  0.13381802889E+03  0.22468946869E+03  0.00000000000E+00 0. -1.
         -2    1    5    5    0  503  0.50524526814E+03 -0.12730468290E+03  0.46552823590E+03  0.69871009846E+03  0.00000000000E+00 0.  1.
         -1    1    6    6    0  502 -0.22175766035E+02  0.27447400770E+03  0.86004163770E+02  0.28848650175E+03  0.00000000000E+00 0.  1.
<mgrwt>
<rscale>  0 0.17200545E+04</rscale>
<asrwt>0</asrwt>
<pdfrwt beam="1">  1        1 0.24710975E+00 0.17200545E+04</pdfrwt>
<pdfrwt beam="2">  1       -1 0.70844778E-01 0.17200545E+04</pdfrwt>
<totfact> 0.10565589E+01</totfact>
</mgrwt>
</event>
<event>
12    1  0.1201209E-007  0.5105859E+04  0.7818608E-02  0.7812382E-01
          2   -1    0    0  501    0  0.00000000000E+00  0.00000000000E+00  0.39443664843E+04  0.39443664843E+04  0.00000000000E+00 0. -1.
         -2   -1    0    0    0  501 -0.00000000000E+00 -0.00000000000E+00 -0.16523438620E+04  0.16523438620E+04  0.00000000000E+00 0.  1.
         23    2    1    2    0    0 -0.42438213783E+03  0.17809993107E+04  0.29323621515E+04  0.34581838773E+04  0.90714930619E+02 0.  0.
        254    2    1    2    0    0  0.42438213783E+03 -0.17809993107E+04 -0.64033952913E+03  0.21385264689E+04  0.90066753142E+03 0.  0.
        -24    2    4    4    0    0 -0.13361058895E+03 -0.43893112938E+03  0.14094511416E+03  0.48648100030E+03  0.79283747573E+02 0.  0.
         24    2    4    4    0    0  0.55799272679E+03 -0.13420681813E+04 -0.78128464329E+03  0.16520454686E+04  0.79659589155E+02 0.  0.
         13    1    3    3    0    0 -0.66131617890E+02  0.39606322774E+03  0.69186170678E+03  0.79994505596E+03  0.00000000000E+00 0.  1.
        -13    1    3    3    0    0 -0.35825051994E+03  0.13849360830E+04  0.22405004447E+04  0.26582388214E+04  0.00000000000E+00 0. -1.
          4    1    6    6  502    0  0.87411807922E+02 -0.15146795540E+03 -0.10848659189E+03  0.20579773152E+03  0.00000000000E+00 0. -1.
          3    1    5    5  503    0 -0.65023596785E+02 -0.16090118103E+03  0.16767574385E+02  0.17435139732E+03  0.00000000000E+00 0. -1.
         -4    1    5    5    0  503 -0.68586992169E+02 -0.27802994834E+03  0.12417753978E+03  0.31212960298E+03  0.00000000000E+00 0.  1.
         -3    1    6    6    0  502  0.47058091887E+03 -0.11906002259E+04 -0.67279805141E+03  0.14462477371E+04  0.00000000000E+00 0.  1.
<mgrwt>
<rscale>  0 0.51058593E+04</rscale>
<asrwt>0</asrwt>
<pdfrwt beam="1">  1        2 0.60682561E+00 0.51058593E+04</pdfrwt>
<pdfrwt beam="2">  1       -2 0.25420675E+00 0.51058593E+04</pdfrwt>
<totfact> 0.16502864E-02</totfact>
</mgrwt>
</event>
<event>
12    1  0.1201209E-007  0.1617721E+04  0.7818608E-02  0.8809735E-01
         -2   -1    0    0    0  501 -0.00000000000E+00  0.00000000000E+00  0.48873169034E+03  0.48873169034E+03  0.00000000000E+00 0.  1.
          2   -1    0    0  501    0  0.00000000000E+00 -0.00000000000E+00 -0.13386794229E+04  0.13386794229E+04  0.00000000000E+00 0. -1.
         23    2    1    2    0    0 -0.10233973051E+03  0.45047014965E+03  0.45051136751E+02  0.47302587489E+03  0.91252929961E+02 0.  0.
        254    2    1    2    0    0  0.10233973051E+03 -0.45047014965E+03 -0.89499886930E+03  0.13543852383E+04  0.90550517482E+03 0.  0.
        -24    2    4    4    0    0  0.11965867643E+03 -0.69892480900E+03 -0.46705495467E+03  0.85277899444E+03  0.79231276540E+02 0.  0.
         24    2    4    4    0    0 -0.17318945913E+02  0.24845465935E+03 -0.42794391463E+03  0.50160624391E+03  0.80269335495E+02 0.  0.
         11    1    3    3    0    0 -0.33110810330E+02  0.29705791151E+03  0.57035564607E+02  0.30429062454E+03  0.00000000000E+00 0. -1.
        -11    1    3    3    0    0 -0.69228920182E+02  0.15341223814E+03 -0.11984427856E+02  0.16873525035E+03  0.00000000000E+00 0.  1.
          4    1    6    6  502    0 -0.16192057472E+02  0.42694788984E+01 -0.37836201486E+02  0.41376192649E+02  0.00000000000E+00 0. -1.
          1    1    5    5  503    0  0.27273427462E+02 -0.42100819130E+02 -0.30178418425E+02  0.58541060424E+02  0.00000000000E+00 0. -1.
         -2    1    5    5    0  503  0.92385248964E+02 -0.65682398987E+03 -0.43687653625E+03  0.79423793401E+03  0.00000000000E+00 0.  1.
         -3    1    6    6    0  502 -0.11268884417E+01  0.24418518045E+03 -0.39010771314E+03  0.46023005126E+03  0.00000000000E+00 0.  1.
<mgrwt>
<rscale>  0 0.16177207E+04</rscale>
<asrwt>0</asrwt>
<pdfrwt beam="1">  1        2 0.20595068E+00 0.16177207E+04</pdfrwt>
<pdfrwt beam="2">  1       -2 0.75189491E-01 0.16177207E+04</pdfrwt>
<totfact> 0.23869746E+01</totfact>
</mgrwt>
</event>
<event>
12    1  0.1201209E-007  0.1350085E+04  0.7818608E-02  0.8990764E-01
          1   -1    0    0  501    0  0.00000000000E+00  0.00000000000E+00  0.85236823432E+03  0.85236823432E+03  0.00000000000E+00 0. -1.
         -1   -1    0    0    0  501 -0.00000000000E+00 -0.00000000000E+00 -0.53460708353E+03  0.53460708353E+03  0.00000000000E+00 0.  1.
         23    2    1    2    0    0 -0.15263180534E+03 -0.85960909883E+02  0.42561067184E+03  0.46937187657E+03  0.92085658492E+02 0.  0.
        254    2    1    2    0    0  0.15263180534E+03  0.85960909883E+02 -0.10784952106E+03  0.91760344128E+03  0.89424762243E+03 0.  0.
        -24    2    4    4    0    0 -0.24803420597E+03 -0.26591326106E+03 -0.50353700756E+02  0.37556336053E+03  0.79255995722E+02 0.  0.
         24    2    4    4    0    0  0.40066601131E+03  0.35187417094E+03 -0.57495820303E+02  0.54204008075E+03  0.78441028745E+02 0.  0.
         13    1    3    3    0    0 -0.50093290673E+02 -0.69858072732E+02  0.26078491079E+03  0.27458743197E+03  0.00000000000E+00 0. -1.
        -13    1    3    3    0    0 -0.10253851467E+03 -0.16102837151E+02  0.16482576105E+03  0.19478444461E+03  0.00000000000E+00 0.  1.
          4    1    6    6  502    0  0.33251862594E+03  0.25657079944E+03 -0.26416917019E+02  0.42082664510E+03  0.00000000000E+00 0. -1.
          1    1    5    5  503    0 -0.19879505620E+03 -0.23593855752E+03 -0.66688760760E+02  0.31564832980E+03  0.00000000000E+00 0. -1.
         -2    1    5    5    0  503 -0.49239149772E+02 -0.29974703535E+02  0.16335060004E+02  0.59915030732E+02  0.00000000000E+00 0.  1.
         -3    1    6    6    0  502  0.68147385372E+02  0.95303371499E+02 -0.31078903284E+02  0.12121343565E+03  0.00000000000E+00 0.  1.
<mgrwt>
<rscale>  0 0.13500846E+04</rscale>
<asrwt>0</asrwt>
<pdfrwt beam="1">  1        1 0.13113357E+00 0.13500846E+04</pdfrwt>
<pdfrwt beam="2">  1       -1 0.82247244E-01 0.13500846E+04</pdfrwt>
<totfact> 0.28696355E+01</totfact>
</mgrwt>
</event>
<event>
12    1  0.1201209E-007  0.1825815E+04  0.7818608E-02  0.8692690E-01
         -2   -1    0    0    0  501 -0.00000000000E+00  0.00000000000E+00  0.60328393271E+03  0.60328393271E+03  0.00000000000E+00 0.  1.
          2   -1    0    0  501    0  0.00000000000E+00 -0.00000000000E+00 -0.13814394684E+04  0.13814394684E+04  0.00000000000E+00 0. -1.
         23    2    1    2    0    0  0.83811991468E+02 -0.23004089644E+02 -0.10365439874E+04  0.10440412526E+04  0.89694265739E+02 0.  0.
        254    2    1    2    0    0 -0.83811991468E+02  0.23004089644E+02  0.25838845174E+03  0.94068214847E+03  0.90031365335E+03 0.  0.
        -24    2    4    4    0    0  0.35335999941E+03  0.19744259316E+03  0.37302344919E+02  0.41457097598E+03  0.81429493501E+02 0.  0.
         24    2    4    4    0    0 -0.43717199087E+03 -0.17443850351E+03  0.22108610682E+03  0.52611117249E+03  0.79785700975E+02 0.  0.
         13    1    3    3    0    0  0.43485051207E+02 -0.22410275594E+02 -0.17944135299E+03  0.18599023978E+03  0.00000000000E+00 0.  1.
        -13    1    3    3    0    0  0.40326940261E+02 -0.59381404954E+00 -0.85710263439E+03  0.85805101282E+03  0.00000000000E+00 0. -1.
          4    1    6    6  502    0 -0.21584118439E+03 -0.12723662492E+03  0.10362756988E+03  0.27113695588E+03  0.00000000000E+00 0. -1.
          1    1    5    5  503    0  0.87903979328E+02  0.90435765926E+02  0.21371173377E+02  0.12791584887E+03  0.00000000000E+00 0. -1.
         -2    1    5    5    0  503  0.26545602008E+03  0.10700682723E+03  0.15931171541E+02  0.28665512711E+03  0.00000000000E+00 0.  1.
         -3    1    6    6    0  502 -0.22133080648E+03 -0.47201878592E+02  0.11745853694E+03  0.25497421662E+03  0.00000000000E+00 0.  1.
<mgrwt>
<rscale>  0 0.18258151E+04</rscale>
<asrwt>0</asrwt>
<pdfrwt beam="1">  1        2 0.21252915E+00 0.18258151E+04</pdfrwt>
<pdfrwt beam="2">  1       -2 0.92812914E-01 0.18258151E+04</pdfrwt>
<totfact> 0.13750255E+01</totfact>
</mgrwt>
</event>
<event>
12    1  0.1201209E-007  0.3131100E+04  0.7818608E-02  0.8207254E-01
          2   -1    0    0  501    0  0.00000000000E+00  0.00000000000E+00  0.18358019428E+04  0.18358019428E+04  0.00000000000E+00 0. -1.
         -2   -1    0    0    0  501 -0.00000000000E+00 -0.00000000000E+00 -0.13350823169E+04  0.13350823169E+04  0.00000000000E+00 0.  1.
         23    2    1    2    0    0  0.14351090381E+03  0.43366991773E+03  0.16071656243E+04  0.16733265493E+04  0.91517319274E+02 0.  0.
        254    2    1    2    0    0 -0.14351090381E+03 -0.43366991773E+03 -0.11064459983E+04  0.14975577104E+04  0.89988408797E+03 0.  0.
        -24    2    4    4    0    0 -0.28592836057E+03 -0.38127935512E+03 -0.12301253655E+03  0.49921899637E+03  0.83417912698E+02 0.  0.
         24    2    4    4    0    0  0.14241745677E+03 -0.52390562607E+02 -0.98343346176E+03  0.99833871405E+03  0.80692696202E+02 0.  0.
         11    1    3    3    0    0  0.15590546127E+03  0.40575236524E+03  0.14775838327E+04  0.15401933247E+04  0.00000000000E+00 0. -1.
        -11    1    3    3    0    0 -0.12394557462E+02  0.27917552486E+02  0.12958179153E+03  0.13313322459E+03  0.00000000000E+00 0.  1.
          2    1    6    6  502    0  0.64058909278E+02 -0.51909301872E+02 -0.67877428403E+03  0.68376359083E+03  0.00000000000E+00 0. -1.
          1    1    5    5  503    0 -0.32555935297E+02 -0.99412946391E+02 -0.32709969117E+02  0.10960275960E+03  0.00000000000E+00 0. -1.
         -2    1    5    5    0  503 -0.25337242528E+03 -0.28186640873E+03 -0.90302567438E+02  0.38961623676E+03  0.00000000000E+00 0.  1.
         -1    1    6    6    0  502  0.78358547490E+02 -0.48126073494E+00 -0.30465917772E+03  0.31457512322E+03  0.00000000000E+00 0.  1.
<mgrwt>
<rscale>  0 0.31310999E+04</rscale>
<asrwt>0</asrwt>
<pdfrwt beam="1">  1        2 0.28243107E+00 0.31310999E+04</pdfrwt>
<pdfrwt beam="2">  1       -2 0.20539728E+00 0.31310999E+04</pdfrwt>
<totfact> 0.85608545E-01</totfact>
</mgrwt>
</event>
<event>
12    1  0.1201209E-007  0.1944400E+04  0.7818608E-02  0.8633066E-01
          2   -1    0    0  501    0  0.00000000000E+00  0.00000000000E+00  0.68883653504E+03  0.68883653504E+03  0.00000000000E+00 0. -1.
         -2   -1    0    0    0  501 -0.00000000000E+00 -0.00000000000E+00 -0.13721293959E+04  0.13721293959E+04  0.00000000000E+00 0.  1.
         23    2    1    2    0    0 -0.86559180169E+02 -0.13534357490E+03  0.51784709083E+03  0.54957472602E+03  0.89757423446E+02 0.  0.
        254    2    1    2    0    0  0.86559180169E+02  0.13534357490E+03 -0.12011399517E+04  0.15113912050E+04  0.90319201495E+03 0.  0.
        -24    2    4    4    0    0  0.95820436940E+02  0.45980585879E+03 -0.33422907296E+03  0.58223605776E+03  0.81772671630E+02 0.  0.
         24    2    4    4    0    0 -0.92612567715E+01 -0.32446228389E+03 -0.86691087876E+03  0.92915514720E+03  0.80207676200E+02 0.  0.
         11    1    3    3    0    0  0.68680508582E+01 -0.61370343745E+02  0.13172234039E+03  0.14547942869E+03  0.00000000000E+00 0.  1.
        -11    1    3    3    0    0 -0.93427231027E+02 -0.73973231158E+02  0.38612475044E+03  0.40409529733E+03  0.00000000000E+00 0. -1.
          4    1    6    6  502    0 -0.56422342319E+01 -0.27740128037E+03 -0.80384578786E+03  0.85038306416E+03  0.00000000000E+00 0. -1.
          3    1    5    5  503    0 -0.84960216223E+01  0.40433263447E+02 -0.11533094554E+02  0.42895727600E+02  0.00000000000E+00 0. -1.
         -4    1    5    5    0  503  0.10431645856E+03  0.41937259534E+03 -0.32269597841E+03  0.53934033016E+03  0.00000000000E+00 0.  1.
         -3    1    6    6    0  502 -0.36190225396E+01 -0.47061003516E+02 -0.63065090898E+02  0.78772083038E+02  0.00000000000E+00 0.  1.
<mgrwt>
<rscale>  0 0.19444000E+04</rscale>
<asrwt>0</asrwt>
<pdfrwt beam="1">  1        2 0.10597485E+00 0.19444000E+04</pdfrwt>
<pdfrwt beam="2">  1       -2 0.21109683E+00 0.19444000E+04</pdfrwt>
<totfact> 0.43936713E+00</totfact>
</mgrwt>
</event>
<event>
12    1  0.1201209E-007  0.1633326E+04  0.7818608E-02  0.8800332E-01
          2   -1    0    0  501    0  0.00000000000E+00  0.00000000000E+00  0.37632598472E+03  0.37632598472E+03  0.00000000000E+00 0. -1.
         -2   -1    0    0    0  501 -0.00000000000E+00 -0.00000000000E+00 -0.17722354173E+04  0.17722354173E+04  0.00000000000E+00 0.  1.
         23    2    1    2    0    0  0.30537548056E+03  0.27827344774E+02 -0.11056596820E+04  0.11500803654E+04  0.78568246187E+02 0.  0.
        254    2    1    2    0    0 -0.30537548056E+03 -0.27827344774E+02 -0.29024975057E+03  0.99848103657E+03  0.90481540518E+03 0.  0.
        -24    2    4    4    0    0  0.42269161185E+02 -0.13219081757E+03 -0.53114502021E+03  0.55477089657E+03  0.79966373934E+02 0.  0.
         24    2    4    4    0    0 -0.34764464174E+03  0.10436347279E+03  0.24089526964E+03  0.44371014000E+03  0.84259278508E+02 0.  0.
         13    1    3    3    0    0  0.13433873598E+03  0.22467458253E+02 -0.35668453913E+03  0.38180563527E+03  0.00000000000E+00 0.  1.
        -13    1    3    3    0    0  0.17103674458E+03  0.53598865206E+01 -0.74897514283E+03  0.76827473013E+03  0.00000000000E+00 0. -1.
          2    1    6    6  502    0 -0.20976499859E+03  0.93949577633E+02  0.11633963365E+03  0.25760975939E+03  0.00000000000E+00 0. -1.
          3    1    5    5  503    0  0.24458013417E+02 -0.44954521345E+02 -0.80325906370E+02  0.95243659336E+02  0.00000000000E+00 0. -1.
         -4    1    5    5    0  503  0.17811147767E+02 -0.87236296221E+02 -0.45081911384E+03  0.45952723724E+03  0.00000000000E+00 0.  1.
         -1    1    6    6    0  502 -0.13787964315E+03  0.10413895160E+02  0.12455563599E+03  0.18610038061E+03  0.00000000000E+00 0.  1.
<mgrwt>
<rscale>  0 0.16333257E+04</rscale>
<asrwt>0</asrwt>
<pdfrwt beam="1">  1        2 0.57896306E-01 0.16333257E+04</pdfrwt>
<pdfrwt beam="2">  1       -2 0.27265160E+00 0.16333257E+04</pdfrwt>
<totfact> 0.38088839E+00</totfact>
</mgrwt>
</event>
<event>
12    1  0.1201209E-007  0.2204154E+04  0.7818608E-02  0.8516701E-01
          2   -1    0    0  501    0  0.00000000000E+00  0.00000000000E+00  0.29779537277E+04  0.29779537277E+04  0.00000000000E+00 0. -1.
         -2   -1    0    0    0  501 -0.00000000000E+00 -0.00000000000E+00 -0.40785522133E+03  0.40785522133E+03  0.00000000000E+00 0.  1.
         23    2    1    2    0    0 -0.42759505221E+01  0.30169368108E+03 -0.25434083226E+03  0.40500474774E+03  0.91116550518E+02 0.  0.
        254    2    1    2    0    0  0.42759505221E+01 -0.30169368108E+03  0.28244393387E+04  0.29808042013E+04  0.90371386390E+03 0.  0.
        -24    2    4    4    0    0 -0.32682748577E+03 -0.28109065839E+03  0.23816915407E+04  0.24218084995E+04  0.82907473663E+02 0.  0.
         24    2    4    4    0    0  0.33110343629E+03 -0.20603022695E+02  0.44274779793E+03  0.55899570185E+03  0.79978822451E+02 0.  0.
         13    1    3    3    0    0  0.60904707790E+01 -0.40633065505E+01 -0.14578281079E+02  0.16313508931E+02  0.00000000000E+00 0. -1.
        -13    1    3    3    0    0 -0.10366421301E+02  0.30575698763E+03 -0.23976255119E+03  0.38869123881E+03  0.00000000000E+00 0.  1.
          2    1    6    6  502    0  0.48328217021E+02 -0.31580042778E+02  0.63786969371E+02  0.86033093190E+02  0.00000000000E+00 0. -1.
          3    1    5    5  503    0 -0.25537920469E+03 -0.18104038437E+03  0.18303033651E+04  0.18568803320E+04  0.00000000000E+00 0. -1.
         -4    1    5    5    0  503 -0.71448281084E+02 -0.10005027401E+03  0.55138817562E+03  0.56492816748E+03  0.00000000000E+00 0.  1.
         -1    1    6    6    0  502  0.28277521927E+03  0.10977020083E+02  0.37896082856E+03  0.47296260866E+03  0.00000000000E+00 0.  1.
<mgrwt>
<rscale>  0 0.22041542E+04</rscale>
<asrwt>0</asrwt>
<pdfrwt beam="1">  1        2 0.45814671E+00 0.22041542E+04</pdfrwt>
<pdfrwt beam="2">  1       -2 0.62746959E-01 0.22041542E+04</pdfrwt>
<totfact> 0.38716055E+00</totfact>
</mgrwt>
</event>
<event>
12    1  0.1201209E-007  0.1591793E+04  0.7818608E-02  0.8825606E-01
         -2   -1    0    0    0  501 -0.00000000000E+00  0.00000000000E+00  0.33118763575E+03  0.33118763575E+03  0.00000000000E+00 0.  1.
          2   -1    0    0  501    0  0.00000000000E+00 -0.00000000000E+00 -0.19126659035E+04  0.19126659035E+04  0.00000000000E+00 0. -1.
         23    2    1    2    0    0  0.15043312122E+03 -0.45452216025E+03 -0.85238091086E+03  0.98157169251E+03  0.87802347463E+02 0.  0.
        254    2    1    2    0    0 -0.15043312122E+03  0.45452216025E+03 -0.72909735689E+03  0.12622818467E+04  0.91244286761E+03 0.  0.
        -24    2    4    4    0    0  0.21938733539E+03 -0.13268395154E+03 -0.42212421321E+03  0.49925492449E+03  0.73012288855E+02 0.  0.
         24    2    4    4    0    0 -0.36982045660E+03  0.58720611180E+03 -0.30697314368E+03  0.76302692224E+03  0.79996157851E+02 0.  0.
         11    1    3    3    0    0  0.91072826380E+02 -0.28120277316E+03 -0.60902970565E+03  0.67696856773E+03  0.00000000000E+00 0. -1.
        -11    1    3    3    0    0  0.59360294837E+02 -0.17331938710E+03 -0.24335120521E+03  0.30460312478E+03  0.00000000000E+00 0.  1.
          4    1    6    6  502    0 -0.97363485591E+02  0.21300496252E+03 -0.79972424787E+02  0.24748000144E+03  0.00000000000E+00 0. -1.
          3    1    5    5  503    0  0.24887228770E+02 -0.44908325153E+01 -0.12935323072E+02  0.28405357162E+02  0.00000000000E+00 0. -1.
         -4    1    5    5    0  503  0.19450010662E+03 -0.12819311903E+03 -0.40918889014E+03  0.47084956733E+03  0.00000000000E+00 0.  1.
         -3    1    6    6    0  502 -0.27245697101E+03  0.37420114927E+03 -0.22700071890E+03  0.51554692080E+03  0.00000000000E+00 0.  1.
<mgrwt>
<rscale>  0 0.15917931E+04</rscale>
<asrwt>0</asrwt>
<pdfrwt beam="1">  1        2 0.29425630E+00 0.15917931E+04</pdfrwt>
<pdfrwt beam="2">  1       -2 0.50951943E-01 0.15917931E+04</pdfrwt>
<totfact> 0.26104388E+01</totfact>
</mgrwt>
</event>
<event>
12    1  0.1201209E-007  0.1082579E+04  0.7818608E-02  0.9222340E-01
         -3   -1    0    0    0  501 -0.00000000000E+00  0.00000000000E+00  0.29327888578E+03  0.29327888578E+03  0.00000000000E+00 0.  1.
          3   -1    0    0  501    0  0.00000000000E+00 -0.00000000000E+00 -0.99902978195E+03  0.99902978195E+03  0.00000000000E+00 0. -1.
         23    2    1    2    0    0  0.11102307576E+03  0.65968578327E+02 -0.20300968963E+03  0.25745547194E+03  0.91610093720E+02 0.  0.
        254    2    1    2    0    0 -0.11102307576E+03 -0.65968578327E+02 -0.50274120653E+03  0.10348531958E+04  0.89526221824E+03 0.  0.
        -24    2    4    4    0    0  0.27306123910E+03  0.25819000572E+03 -0.13409705664E+03  0.40667165626E+03  0.78583051967E+02 0.  0.
         24    2    4    4    0    0 -0.38408431486E+03 -0.32415858405E+03 -0.36864414989E+03  0.62818153952E+03  0.78191999705E+02 0.  0.
         11    1    3    3    0    0 -0.13037736836E+02  0.11496647187E+02 -0.50721359736E+02  0.53617271581E+02  0.00000000000E+00 0. -1.
        -11    1    3    3    0    0  0.12406081260E+03  0.54471931140E+02 -0.15228832989E+03  0.20383820036E+03  0.00000000000E+00 0.  1.
          2    1    6    6  502    0 -0.10037598953E+03 -0.65556167117E+02 -0.12663049098E+03  0.17437956179E+03  0.00000000000E+00 0. -1.
          3    1    5    5  503    0  0.13913970264E+03  0.84862909227E+02 -0.77360314714E+02  0.18040562215E+03  0.00000000000E+00 0. -1.
         -4    1    5    5    0  503  0.13392153646E+03  0.17332709649E+03 -0.56736741930E+02  0.22626603411E+03  0.00000000000E+00 0.  1.
         -1    1    6    6    0  502 -0.28370832533E+03 -0.25860241693E+03 -0.24201365891E+03  0.45380197774E+03  0.00000000000E+00 0.  1.
<mgrwt>
<rscale>  0 0.10825790E+04</rscale>
<asrwt>0</asrwt>
<pdfrwt beam="1">  1        3 0.15369689E+00 0.10825790E+04</pdfrwt>
<pdfrwt beam="2">  1       -3 0.45119828E-01 0.10825790E+04</pdfrwt>
<totfact> 0.38687833E+00</totfact>
</mgrwt>
</event>
<event>
12    1  0.1201209E-007  0.2950404E+04  0.7818608E-02  0.8258037E-01
         -2   -1    0    0    0  501 -0.00000000000E+00  0.00000000000E+00  0.21661745800E+04  0.21661745800E+04  0.00000000000E+00 0. -1.
          2   -1    0    0  501    0  0.00000000000E+00 -0.00000000000E+00 -0.10046374968E+04  0.10046374968E+04  0.00000000000E+00 0.  1.
         23    2    1    2    0    0 -0.15392750421E+03 -0.39465159144E+02 -0.89875216782E+03  0.91713891569E+03  0.90206187071E+02 0.  0.
        254    2    1    2    0    0  0.15392750421E+03  0.39465159144E+02  0.20602892510E+04  0.22536731611E+04  0.89944413062E+03 0.  0.
        -24    2    4    4    0    0 -0.31474301043E+03 -0.19984376621E+03  0.82815156483E+03  0.91167451787E+03  0.79465204273E+02 0.  0.
         24    2    4    4    0    0  0.46867051463E+03  0.23930892535E+03  0.12321376861E+04  0.13419986432E+04  0.76656818541E+02 0.  0.
         13    1    3    3    0    0 -0.11277525404E+03  0.29797790624E+01 -0.42523188273E+03  0.43994237247E+03  0.00000000000E+00 0. -1.
        -13    1    3    3    0    0 -0.41152250169E+02 -0.42444938207E+02 -0.47352028508E+03  0.47719654322E+03  0.00000000000E+00 0.  1.
          2    1    6    6  502    0  0.43048464231E+02  0.16237663156E+02  0.63459016188E+02  0.78382898090E+02  0.00000000000E+00 0. -1.
          3    1    5    5  503    0 -0.26259589262E+02  0.44620375079E+01  0.42495628680E+02  0.50153307606E+02  0.00000000000E+00 0. -1.
         -4    1    5    5    0  503 -0.28848342116E+03 -0.20430580372E+03  0.78565593615E+03  0.86152121026E+03  0.00000000000E+00 0.  1.
         -1    1    6    6    0  502  0.42562205040E+03  0.22307126220E+03  0.11686786700E+04  0.12636157452E+04  0.00000000000E+00 0.  1.
<mgrwt>
<rscale>  0 0.29504035E+04</rscale>
<asrwt>0</asrwt>
<pdfrwt beam="1">  1        2 0.15455962E+00 0.29504035E+04</pdfrwt>
<pdfrwt beam="2">  1       -2 0.33325763E+00 0.29504035E+04</pdfrwt>
<totfact> 0.42591995E-01</totfact>
</mgrwt>
</event>
<event>
12    1  0.1201209E-007  0.1370516E+04  0.7818608E-02  0.8975442E-01
         -1   -1    0    0    0  501 -0.00000000000E+00  0.00000000000E+00  0.39397026210E+03  0.39397026210E+03  0.00000000000E+00 0.  1.
          1   -1    0    0  501    0  0.00000000000E+00 -0.00000000000E+00 -0.11919134651E+04  0.11919134651E+04  0.00000000000E+00 0. -1.
         23    2    1    2    0    0 -0.22484634506E+03 -0.19390239910E+03  0.63393447144E+02  0.31609683889E+03  0.88002631523E+02 0.  0.
        254    2    1    2    0    0  0.22484634506E+03  0.19390239910E+03 -0.86133665018E+03  0.12697868883E+04  0.88447945006E+03 0.  0.
        -24    2    4    4    0    0 -0.13985573048E+03 -0.10884738618E+03 -0.75184891897E+03  0.77763051829E+03  0.89582627765E+02 0.  0.
         24    2    4    4    0    0  0.36470207554E+03  0.30274978528E+03 -0.10948773121E+03  0.49215637004E+03  0.74600890724E+02 0.  0.
         11    1    3    3    0    0 -0.44992352273E+02 -0.50137342106E+02  0.52817625890E+02  0.85602374039E+02  0.00000000000E+00 0. -1.
        -11    1    3    3    0    0 -0.17985399279E+03 -0.14376505699E+03  0.10575821254E+02  0.23049446485E+03  0.00000000000E+00 0.  1.
          2    1    6    6  502    0  0.32542215508E+03  0.27771297754E+03 -0.75331754695E+02  0.43439492421E+03  0.00000000000E+00 0. -1.
          1    1    5    5  503    0  0.12803151202E+02 -0.61255865621E+01 -0.67567196649E+02  0.69041795707E+02  0.00000000000E+00 0. -1.
         -2    1    5    5    0  503 -0.15265888168E+03 -0.10272179962E+03 -0.68428172232E+03  0.70858872258E+03  0.00000000000E+00 0.  1.
         -1    1    6    6    0  502  0.39279920453E+02  0.25036807742E+02 -0.34155976517E+02  0.57761445831E+02  0.00000000000E+00 0.  1.
<mgrwt>
<rscale>  0 0.13705159E+04</rscale>
<asrwt>0</asrwt>
<pdfrwt beam="1">  1        1 0.18337130E+00 0.13705159E+04</pdfrwt>
<pdfrwt beam="2">  1       -1 0.60610809E-01 0.13705159E+04</pdfrwt>
<totfact> 0.29222800E+01</totfact>
</mgrwt>
</event>
<event>
12    1  0.1201209E-007  0.1269858E+04  0.7818608E-02  0.9053815E-01
         -2   -1    0    0    0  501 -0.00000000000E+00  0.00000000000E+00  0.20471132209E+04  0.20471132209E+04  0.00000000000E+00 0.  1.
          2   -1    0    0  501    0  0.00000000000E+00 -0.00000000000E+00 -0.19692852185E+03  0.19692852185E+03  0.00000000000E+00 0. -1.
         23    2    1    2    0    0 -0.64761774886E+02 -0.23030580749E+03  0.83203583218E+03  0.87057860502E+03  0.91589459263E+02 0.  0.
        254    2    1    2    0    0  0.64761774886E+02  0.23030580749E+03  0.10181488669E+04  0.13734631377E+04  0.89024660805E+03 0.  0.
        -24    2    4    4    0    0 -0.56395033490E+02 -0.30091736012E+03  0.61489852554E+03  0.69138218515E+03  0.78596894370E+02 0.  0.
         24    2    4    4    0    0  0.12115680838E+03  0.53122316762E+03  0.40325034131E+03  0.68208095256E+03  0.75806081925E+02 0.  0.
         13    1    3    3    0    0 -0.33361636754E+02 -0.21964751659E+03  0.74578773075E+03  0.77817566763E+03  0.00000000000E+00 0.  1.
        -13    1    3    3    0    0 -0.31400138132E+02 -0.10658290903E+02  0.86248101430E+02  0.92402937399E+02  0.00000000000E+00 0. -1.
          4    1    6    6  502    0  0.22916076407E+01  0.10062343606E+03  0.48912079144E+02  0.11190495447E+03  0.00000000000E+00 0. -1.
          3    1    5    5  503    0  0.17452087025E+01 -0.15671026159E+02  0.67557993258E+01  0.17154230931E+02  0.00000000000E+00 0. -1.
         -4    1    5    5    0  503 -0.58140242192E+02 -0.28524633396E+03  0.60814272621E+03  0.67422795422E+03  0.00000000000E+00 0.  1.
         -3    1    6    6    0  502  0.11886520074E+03  0.43059973156E+03  0.35433826217E+03  0.57017599809E+03  0.00000000000E+00 0.  1.
<mgrwt>
<rscale>  0 0.12698582E+04</rscale>
<asrwt>0</asrwt>
<pdfrwt beam="1">  1        2 0.30296697E-01 0.12698582E+04</pdfrwt>
<pdfrwt beam="2">  1       -2 0.31494048E+00 0.12698582E+04</pdfrwt>
<totfact> 0.44881939E+00</totfact>
</mgrwt>
</event>
<event>
12    1  0.1201209E-007  0.1555880E+04  0.7818608E-02  0.8848121E-01
          1   -1    0    0  501    0  0.00000000000E+00  0.00000000000E+00  0.91704955210E+03  0.91704955210E+03  0.00000000000E+00 0. -1.
         -1   -1    0    0    0  501 -0.00000000000E+00 -0.00000000000E+00 -0.65993207680E+03  0.65993207680E+03  0.00000000000E+00 0.  1.
         23    2    1    2    0    0 -0.22871365415E+03  0.35398203862E+03 -0.20420318527E+03  0.47839086439E+03  0.97701888429E+02 0.  0.
        254    2    1    2    0    0  0.22871365415E+03 -0.35398203862E+03  0.46132066057E+03  0.10985907645E+04  0.90358823407E+03 0.  0.
        -24    2    4    4    0    0 -0.25684290632E+03  0.13680550840E+03  0.15603014242E+03  0.33966174105E+03  0.79628307391E+02 0.  0.
         24    2    4    4    0    0  0.48555656047E+03 -0.49078754702E+03  0.30529051815E+03  0.75892902346E+03  0.78315850556E+02 0.  0.
         11    1    3    3    0    0 -0.46955635861E+02  0.28563528922E+02 -0.52366292806E+02  0.75914000987E+02  0.00000000000E+00 0. -1.
        -11    1    3    3    0    0 -0.18175801829E+03  0.32541850969E+03 -0.15183689246E+03  0.40247686340E+03  0.00000000000E+00 0.  1.
          2    1    6    6  502    0  0.42462017102E+03 -0.42641449497E+03  0.29341916050E+03  0.66949713584E+03  0.00000000000E+00 0. -1.
          3    1    5    5  503    0 -0.24764085327E+03  0.11767518828E+03  0.16087116908E+03  0.31788830615E+03  0.00000000000E+00 0. -1.
         -4    1    5    5    0  503 -0.92020530436E+01  0.19130320123E+02 -0.48410266647E+01  0.21773434901E+02  0.00000000000E+00 0.  1.
         -3    1    6    6    0  502  0.60936389452E+02 -0.64373052050E+02  0.11871357654E+02  0.89431887614E+02  0.00000000000E+00 0.  1.
<mgrwt>
<rscale>  0 0.15558797E+04</rscale>
<asrwt>0</asrwt>
<pdfrwt beam="1">  1        1 0.14108455E+00 0.15558797E+04</pdfrwt>
<pdfrwt beam="2">  1       -1 0.10152801E+00 0.15558797E+04</pdfrwt>
<totfact> 0.15623953E+01</totfact>
</mgrwt>
</event>
<event>
12    1  0.1201209E-007  0.2357364E+04  0.7818608E-02  0.8455641E-01
          1   -1    0    0  501    0  0.00000000000E+00  0.00000000000E+00  0.66628482859E+03  0.66628482859E+03  0.00000000000E+00 0.  1.
         -1   -1    0    0    0  501 -0.00000000000E+00 -0.00000000000E+00 -0.20851303125E+04  0.20851303125E+04  0.00000000000E+00 0. -1.
         23    2    1    2    0    0  0.46817891529E+03  0.46732994524E+03  0.27584985014E+03  0.72234439005E+03  0.89997242031E+02 0.  0.
        254    2    1    2    0    0 -0.46817891529E+03 -0.46732994524E+03 -0.16946953341E+04  0.20290707511E+04  0.89863622399E+03 0.  0.
        -24    2    4    4    0    0 -0.12041748646E+03  0.26479104504E+03 -0.48604939873E+03  0.57172333497E+03  0.77516999162E+02 0.  0.
         24    2    4    4    0    0 -0.34776142883E+03 -0.73212099028E+03 -0.12086459353E+04  0.14573474161E+04  0.78085455871E+02 0.  0.
         11    1    3    3    0    0  0.19841609578E+02  0.53836706640E+02  0.30085533546E+02  0.64785953580E+02  0.00000000000E+00 0. -1.
        -11    1    3    3    0    0  0.44833730571E+03  0.41349323860E+03  0.24576431659E+03  0.65755843647E+03  0.00000000000E+00 0.  1.
          2    1    6    6  502    0 -0.34176472646E+03 -0.73241004029E+03 -0.12009397224E+04  0.14475786032E+04  0.00000000000E+00 0. -1.
          1    1    5    5  503    0 -0.98590002976E+02  0.19786343785E+03 -0.42270971698E+03  0.47702561100E+03  0.00000000000E+00 0. -1.
         -2    1    5    5    0  503 -0.21827483488E+02  0.66927607191E+02 -0.63339681758E+02  0.94697723969E+02  0.00000000000E+00 0.  1.
         -1    1    6    6    0  502 -0.59967023628E+01  0.28905001490E+00 -0.77062129106E+01  0.97688129557E+01  0.00000000000E+00 0.  1.
<mgrwt>
<rscale>  0 0.23573635E+04</rscale>
<asrwt>0</asrwt>
<pdfrwt beam="1">  1        1 0.10250536E+00 0.23573635E+04</pdfrwt>
<pdfrwt beam="2">  1       -1 0.32078928E+00 0.23573635E+04</pdfrwt>
<totfact> 0.63878269E-01</totfact>
</mgrwt>
</event>
<event>
12    1  0.1201209E-007  0.1021080E+04  0.7818608E-02  0.9285722E-01
          1   -1    0    0  501    0  0.00000000000E+00  0.00000000000E+00  0.82390002542E+03  0.82390002542E+03  0.00000000000E+00 0. -1.
         -1   -1    0    0    0  501 -0.00000000000E+00 -0.00000000000E+00 -0.31636280567E+03  0.31636280567E+03  0.00000000000E+00 0.  1.
         23    2    1    2    0    0  0.30471726011E+02 -0.63753085564E+02  0.56069608501E+02  0.13117259131E+03  0.95233742492E+02 0.  0.
        254    2    1    2    0    0 -0.30471726011E+02  0.63753085564E+02  0.45146761125E+03  0.10090902398E+04  0.89969279536E+03 0.  0.
        -24    2    4    4    0    0 -0.36908547134E+03  0.27388116428E+03  0.11276990093E+03  0.47999701378E+03  0.80281413645E+02 0.  0.
         24    2    4    4    0    0  0.33861374533E+03 -0.21012807872E+03  0.33869771032E+03  0.52909322601E+03  0.80065128735E+02 0.  0.
         11    1    3    3    0    0  0.17480418545E+02 -0.61813309976E+02  0.80768056051E+02  0.10319849418E+03  0.00000000000E+00 0. -1.
        -11    1    3    3    0    0  0.12991307465E+02 -0.19397755881E+01 -0.24698447550E+02  0.27974097132E+02  0.00000000000E+00 0.  1.
          4    1    6    6  502    0  0.16706601689E+03 -0.88279444284E+02  0.20973483960E+03  0.28229951687E+03  0.00000000000E+00 0. -1.
          3    1    5    5  503    0 -0.17396872172E+03  0.13507636362E+03  0.13134116314E+02  0.22064279992E+03  0.00000000000E+00 0. -1.
         -4    1    5    5    0  503 -0.19511674962E+03  0.13880480066E+03  0.99635784614E+02  0.25935421385E+03  0.00000000000E+00 0.  1.
         -3    1    6    6    0  502  0.17154772844E+03 -0.12184863443E+03  0.12896287072E+03  0.24679370914E+03  0.00000000000E+00 0.  1.
<mgrwt>
<rscale>  0 0.10210805E+04</rscale>
<asrwt>0</asrwt>
<pdfrwt beam="1">  1        1 0.12675385E+00 0.10210805E+04</pdfrwt>
<pdfrwt beam="2">  1       -1 0.48671201E-01 0.10210805E+04</pdfrwt>
<totfact> 0.89146423E+01</totfact>
</mgrwt>
</event>
<event>
12    1  0.1201209E-007  0.1423327E+04  0.7818608E-02  0.8937104E-01
         -2   -1    0    0    0  501 -0.00000000000E+00  0.00000000000E+00  0.38183480719E+03  0.38183480719E+03  0.00000000000E+00 0.  1.
          2   -1    0    0  501    0  0.00000000000E+00 -0.00000000000E+00 -0.13263982910E+04  0.13263982910E+04  0.00000000000E+00 0. -1.
         23    2    1    2    0    0  0.80312797230E+02  0.10789257790E+03 -0.76278477876E+03  0.77999807506E+03  0.92007742228E+02 0.  0.
        254    2    1    2    0    0 -0.80312797230E+02 -0.10789257790E+03 -0.18177870500E+03  0.92823502309E+03  0.90026985217E+03 0.  0.
        -24    2    4    4    0    0  0.12874320675E+03 -0.32633678973E+03  0.21749522574E+03  0.42075099552E+03  0.81588684219E+02 0.  0.
         24    2    4    4    0    0 -0.20905600398E+03  0.21844421183E+03 -0.39927393075E+03  0.50748402757E+03  0.81841798504E+02 0.  0.
         13    1    3    3    0    0  0.97588753249E+02  0.10003960149E+03 -0.59746260580E+03  0.61359029650E+03  0.00000000000E+00 0. -1.
        -13    1    3    3    0    0 -0.17275956019E+02  0.78529764083E+01 -0.16532217295E+03  0.16640777856E+03  0.00000000000E+00 0.  1.
          4    1    6    6  502    0 -0.18665275650E+03  0.22213509418E+03 -0.37648360642E+03  0.47531374636E+03  0.00000000000E+00 0. -1.
          3    1    5    5  503    0  0.12563116743E+03 -0.30355919716E+03  0.22305933708E+03  0.39709802854E+03  0.00000000000E+00 0. -1.
         -4    1    5    5    0  503  0.31120393162E+01 -0.22777592573E+02 -0.55641113341E+01  0.23652966983E+02  0.00000000000E+00 0.  1.
         -3    1    6    6    0  502 -0.22403247484E+02 -0.36908823494E+01 -0.22790324328E+02  0.32170281213E+02  0.00000000000E+00 0.  1.
<mgrwt>
<rscale>  0 0.14233271E+04</rscale>
<asrwt>0</asrwt>
<pdfrwt beam="1">  1        2 0.20406128E+00 0.14233271E+04</pdfrwt>
<pdfrwt beam="2">  1       -2 0.58743816E-01 0.14233271E+04</pdfrwt>
<totfact> 0.41987393E+01</totfact>
</mgrwt>
</event>
<event>
12    1  0.1201209E-007  0.2427036E+04  0.7818608E-02  0.8429450E-01
          2   -1    0    0  501    0  0.00000000000E+00  0.00000000000E+00  0.50481992125E+03  0.50481992125E+03  0.00000000000E+00 0. -1.
         -2   -1    0    0    0  501 -0.00000000000E+00 -0.00000000000E+00 -0.29171321602E+04  0.29171321602E+04  0.00000000000E+00 0.  1.
         23    2    1    2    0    0 -0.14506377369E+03 -0.63945259582E+03  0.10482291601E+03  0.67078550968E+03  0.94985449110E+02 0.  0.
        254    2    1    2    0    0  0.14506377369E+03  0.63945259582E+03 -0.25171351549E+04  0.27511665717E+04  0.89610546061E+03 0.  0.
        -24    2    4    4    0    0  0.23949709627E+03  0.83618800240E+03 -0.20839970126E+04  0.22596620204E+04  0.80372033347E+02 0.  0.
         24    2    4    4    0    0 -0.94433322575E+02 -0.19673540658E+03 -0.43313814235E+03  0.49150455129E+03  0.79659280462E+02 0.  0.
         11    1    3    3    0    0 -0.12786960782E+03 -0.62751888114E+03  0.94171025591E+02  0.64730113924E+03  0.00000000000E+00 0. -1.
        -11    1    3    3    0    0 -0.17194165868E+02 -0.11933714678E+02  0.10651890415E+02  0.23484370448E+02  0.00000000000E+00 0.  1.
          4    1    6    6  502    0 -0.76398508475E+02 -0.80588168381E+02 -0.25443002652E+03  0.27760731867E+03  0.00000000000E+00 0. -1.
          1    1    5    5  503    0  0.11708551738E+02  0.14037861260E+03 -0.30886467450E+03  0.33947110660E+03  0.00000000000E+00 0. -1.
         -2    1    5    5    0  503  0.22778854453E+03  0.69580938981E+03 -0.17751323380E+04  0.19201909138E+04  0.00000000000E+00 0.  1.
         -3    1    6    6    0  502 -0.18034814099E+02 -0.11614723820E+03 -0.17870811583E+03  0.21389723263E+03  0.00000000000E+00 0.  1.
<mgrwt>
<rscale>  0 0.24270364E+04</rscale>
<asrwt>0</asrwt>
<pdfrwt beam="1">  1        2 0.77664604E-01 0.24270364E+04</pdfrwt>
<pdfrwt beam="2">  1       -2 0.44878956E+00 0.24270364E+04</pdfrwt>
<totfact> 0.19305326E-01</totfact>
</mgrwt>
</event>
<event>
12    1  0.1201209E-007  0.1525500E+04  0.7818608E-02  0.8867671E-01
         -2   -1    0    0    0  501 -0.00000000000E+00  0.00000000000E+00  0.24699267564E+04  0.24699267564E+04  0.00000000000E+00 0. -1.
          2   -1    0    0  501    0  0.00000000000E+00 -0.00000000000E+00 -0.23554835718E+03  0.23554835718E+03  0.00000000000E+00 0.  1.
         23    2    1    2    0    0 -0.10536193477E+03  0.21459164879E+03 -0.28468410161E+02  0.25786353678E+03  0.92371208688E+02 0.  0.
        254    2    1    2    0    0  0.10536193477E+03 -0.21459164879E+03  0.22628468093E+04  0.24476115768E+04  0.90176273774E+03 0.  0.
        -24    2    4    4    0    0 -0.16674270211E+03  0.29542728684E+03  0.89229789145E+03  0.95806594451E+03  0.81329062616E+02 0.  0.
         24    2    4    4    0    0  0.27210463688E+03 -0.51001893563E+03  0.13705489179E+04  0.14895456323E+04  0.78623190963E+02 0.  0.
         11    1    3    3    0    0 -0.11047016608E+03  0.21103909907E+03 -0.10042714958E+02  0.23841563508E+03  0.00000000000E+00 0.  1.
        -11    1    3    3    0    0  0.51082313111E+01  0.35525497239E+01 -0.18425695203E+02  0.19447901696E+02  0.00000000000E+00 0. -1.
          4    1    6    6  502    0  0.74123696714E+01 -0.66093024006E+02  0.15131297430E+03  0.16528414091E+03  0.00000000000E+00 0. -1.
          3    1    5    5  503    0 -0.73650913327E+02  0.12355423141E+03  0.49198391749E+03  0.51258002322E+03  0.00000000000E+00 0. -1.
         -4    1    5    5    0  503 -0.93091788784E+02  0.17187305542E+03  0.40031397396E+03  0.44548592129E+03  0.00000000000E+00 0.  1.
         -3    1    6    6    0  502  0.26469226721E+03 -0.44392591162E+03  0.12192359436E+04  0.13242614914E+04  0.00000000000E+00 0.  1.
<mgrwt>
<rscale>  0 0.15254995E+04</rscale>
<asrwt>0</asrwt>
<pdfrwt beam="1">  1        2 0.36238211E-01 0.15254995E+04</pdfrwt>
<pdfrwt beam="2">  1       -2 0.37998871E+00 0.15254995E+04</pdfrwt>
<totfact> 0.14010623E+00</totfact>
</mgrwt>
</event>
<event>
12    1  0.1201209E-007  0.3486206E+04  0.7818608E-02  0.8117067E-01
         -2   -1    0    0    0  501 -0.00000000000E+00  0.00000000000E+00  0.12022522838E+04  0.12022522838E+04  0.00000000000E+00 0.  1.
          2   -1    0    0  501    0  0.00000000000E+00 -0.00000000000E+00 -0.25272639710E+04  0.25272639710E+04  0.00000000000E+00 0. -1.
         23    2    1    2    0    0  0.10529468146E+04  0.12342589197E+04 -0.57613547492E+03  0.17240243009E+04  0.90750369467E+02 0.  0.
        254    2    1    2    0    0 -0.10529468146E+04 -0.12342589197E+04 -0.74887621229E+03  0.20054919538E+04  0.91054396945E+03 0.  0.
        -24    2    4    4    0    0 -0.93529002164E+03 -0.13106703810E+04 -0.84194898097E+03  0.18187369792E+04  0.79384134374E+02 0.  0.
         24    2    4    4    0    0 -0.11765679298E+03  0.76411461290E+02  0.93072768680E+02  0.18675497463E+03  0.80827272190E+02 0.  0.
         11    1    3    3    0    0  0.24310399989E+03  0.25226670574E+03 -0.15729796918E+03  0.38403215581E+03  0.00000000000E+00 0.  1.
        -11    1    3    3    0    0  0.80984281473E+03  0.98199221395E+03 -0.41883750574E+03  0.13399921451E+04  0.00000000000E+00 0. -1.
          4    1    6    6  502    0 -0.70725681871E+02  0.27306892444E+02  0.56201530866E+01  0.76022197888E+02  0.00000000000E+00 0. -1.
          3    1    5    5  503    0 -0.11888039574E+03 -0.17306093373E+03 -0.14042459933E+03  0.25258999064E+03  0.00000000000E+00 0. -1.
         -4    1    5    5    0  503 -0.81640962590E+03 -0.11376094472E+04 -0.70152438164E+03  0.15661469886E+04  0.00000000000E+00 0.  1.
         -3    1    6    6    0  502 -0.46931111108E+02  0.49104568847E+02  0.87452615593E+02  0.11073277674E+03  0.00000000000E+00 0.  1.
<mgrwt>
<rscale>  0 0.34862065E+04</rscale>
<asrwt>0</asrwt>
<pdfrwt beam="1">  1        2 0.38880984E+00 0.34862065E+04</pdfrwt>
<pdfrwt beam="2">  1       -2 0.18496189E+00 0.34862065E+04</pdfrwt>
<totfact> 0.46284044E-01</totfact>
</mgrwt>
</event>
<event>
12    1  0.1201209E-007  0.2388622E+04  0.7818608E-02  0.8443776E-01
          2   -1    0    0  501    0  0.00000000000E+00  0.00000000000E+00  0.80922155881E+03  0.80922155881E+03  0.00000000000E+00 0. -1.
         -2   -1    0    0    0  501 -0.00000000000E+00 -0.00000000000E+00 -0.17626554603E+04  0.17626554603E+04  0.00000000000E+00 0.  1.
         23    2    1    2    0    0 -0.74523287664E+02  0.63608213292E+03  0.43697206703E+03  0.78092384902E+03  0.93505456421E+02 0.  0.
        254    2    1    2    0    0  0.74523287664E+02 -0.63608213292E+03 -0.13904059685E+04  0.17909531701E+04  0.92958609067E+03 0.  0.
        -24    2    4    4    0    0 -0.27943781537E+03 -0.70190250870E+03 -0.96478847731E+03  0.12279679723E+04  0.79598433190E+02 0.  0.
         24    2    4    4    0    0  0.35396110303E+03  0.65820375779E+02 -0.42561749121E+03  0.56298519784E+03  0.78621242900E+02 0.  0.
         11    1    3    3    0    0  0.21277095934E+02  0.73960987976E+02  0.49313030837E+02  0.91404144130E+02  0.00000000000E+00 0.  1.
        -11    1    3    3    0    0 -0.95800383598E+02  0.56212114494E+03  0.38765903619E+03  0.68951970489E+03  0.00000000000E+00 0. -1.
          4    1    6    6  502    0  0.29212024132E+01 -0.12528770279E+01  0.33697834813E+01  0.46323390524E+01  0.00000000000E+00 0. -1.
          1    1    5    5  503    0 -0.34943832817E+02 -0.17499423120E+03 -0.24265455963E+03  0.30120638724E+03  0.00000000000E+00 0. -1.
         -2    1    5    5    0  503 -0.24449398255E+03 -0.52690827750E+03 -0.72213391768E+03  0.92676158502E+03  0.00000000000E+00 0.  1.
         -3    1    6    6    0  502  0.35103990062E+03  0.67073252807E+02 -0.42898727470E+03  0.55835285879E+03  0.00000000000E+00 0.  1.
<mgrwt>
<rscale>  0 0.23886220E+04</rscale>
<asrwt>0</asrwt>
<pdfrwt beam="1">  1        2 0.12449563E+00 0.23886220E+04</pdfrwt>
<pdfrwt beam="2">  1       -2 0.27117776E+00 0.23886220E+04</pdfrwt>
<totfact> 0.14555035E+00</totfact>
</mgrwt>
</event>
<event>
12    1  0.1201209E-007  0.1526216E+04  0.7818608E-02  0.8867204E-01
          1   -1    0    0  501    0  0.00000000000E+00  0.00000000000E+00  0.17982429741E+04  0.17982429741E+04  0.00000000000E+00 0. -1.
         -1   -1    0    0    0  501 -0.00000000000E+00 -0.00000000000E+00 -0.32383486896E+03  0.32383486896E+03  0.00000000000E+00 0.  1.
         23    2    1    2    0    0  0.32686733107E+02 -0.32148015167E+03  0.10036082488E+04  0.10584007480E+04  0.92545749943E+02 0.  0.
        254    2    1    2    0    0 -0.32686733107E+02  0.32148015167E+03  0.47079985629E+03  0.10636770950E+04  0.89740656748E+03 0.  0.
        -24    2    4    4    0    0  0.38758495055E+03  0.11775904641E+03  0.41747137998E+03  0.58717885347E+03  0.80046024007E+02 0.  0.
         24    2    4    4    0    0 -0.42027168365E+03  0.20372110526E+03  0.53328476305E+02  0.47649824155E+03  0.77949156523E+02 0.  0.
         13    1    3    3    0    0 -0.11423023133E+01 -0.24852926970E+03  0.84165973290E+03  0.87758715165E+03  0.00000000000E+00 0. -1.
        -13    1    3    3    0    0  0.33829035420E+02 -0.72950881978E+02  0.16194851593E+03  0.18081359636E+03  0.00000000000E+00 0.  1.
          2    1    6    6  502    0 -0.57017382670E+02  0.59094572836E+02  0.16719369767E+02  0.83801478451E+02  0.00000000000E+00 0. -1.
          1    1    5    5  503    0  0.12025864589E+02  0.18025659010E+01 -0.20115125212E+01  0.12325455187E+02  0.00000000000E+00 0. -1.
         -2    1    5    5    0  503  0.37555908596E+03  0.11595648051E+03  0.41948289250E+03  0.57485339829E+03  0.00000000000E+00 0.  1.
         -1    1    6    6    0  502 -0.36325430098E+03  0.14462653243E+03  0.36609106538E+02  0.39269676310E+03  0.00000000000E+00 0.  1.
<mgrwt>
<rscale>  0 0.15262159E+04</rscale>
<asrwt>0</asrwt>
<pdfrwt beam="1">  1        1 0.27665276E+00 0.15262159E+04</pdfrwt>
<pdfrwt beam="2">  1       -1 0.49820750E-01 0.15262159E+04</pdfrwt>
<totfact> 0.15940034E+01</totfact>
</mgrwt>
</event>
<event>
12    1  0.1201209E-007  0.1890083E+04  0.7818608E-02  0.8659808E-01
          2   -1    0    0  501    0  0.00000000000E+00  0.00000000000E+00  0.26491748379E+04  0.26491748379E+04  0.00000000000E+00 0. -1.
         -2   -1    0    0    0  501 -0.00000000000E+00 -0.00000000000E+00 -0.33712514986E+03  0.33712514986E+03  0.00000000000E+00 0.  1.
         23    2    1    2    0    0  0.48869070577E+03  0.43562887367E+03  0.39297898843E+03  0.76611890796E+03  0.62566559019E+02 0.  0.
        254    2    1    2    0    0 -0.48869070577E+03 -0.43562887367E+03  0.19190706996E+04  0.22201810798E+04  0.90431220027E+03 0.  0.
        -24    2    4    4    0    0 -0.73377768952E+03 -0.31521170582E+03  0.11759777170E+04  0.14238168411E+04  0.80886889642E+02 0.  0.
         24    2    4    4    0    0  0.24508698375E+03 -0.12041716785E+03  0.74309298264E+03  0.79636423876E+03  0.86260628396E+02 0.  0.
         13    1    3    3    0    0  0.11567835810E+03  0.80315738103E+02  0.62507616717E+02  0.15407563879E+03  0.00000000000E+00 0. -1.
        -13    1    3    3    0    0  0.37301234767E+03  0.35531313556E+03  0.33047137172E+03  0.61204326918E+03  0.00000000000E+00 0.  1.
          4    1    6    6  502    0 -0.68690325026E+00 -0.76210925695E+01  0.78332612323E+02  0.78705470212E+02  0.00000000000E+00 0. -1.
          1    1    5    5  503    0 -0.52042452945E+03 -0.18360164775E+03  0.79539128364E+03  0.96809015592E+03  0.00000000000E+00 0. -1.
         -2    1    5    5    0  503 -0.21335316008E+03 -0.13161005807E+03  0.38058643336E+03  0.45572668515E+03  0.00000000000E+00 0.  1.
         -3    1    6    6    0  502  0.24577388700E+03 -0.11279607528E+03  0.66476037032E+03  0.71765876855E+03  0.00000000000E+00 0.  1.
<mgrwt>
<rscale>  0 0.18900830E+04</rscale>
<asrwt>0</asrwt>
<pdfrwt beam="1">  1        2 0.40756534E+00 0.18900830E+04</pdfrwt>
<pdfrwt beam="2">  1       -2 0.51865410E-01 0.18900830E+04</pdfrwt>
<totfact> 0.93795924E+00</totfact>
</mgrwt>
</event>
<event>
12    1  0.1201209E-007  0.1982885E+04  0.7818608E-02  0.8614664E-01
          1   -1    0    0  501    0  0.00000000000E+00  0.00000000000E+00  0.16269198520E+04  0.16269198520E+04  0.00000000000E+00 0. -1.
         -1   -1    0    0    0  501 -0.00000000000E+00 -0.00000000000E+00 -0.60418383417E+03  0.60418383417E+03  0.00000000000E+00 0.  1.
         23    2    1    2    0    0 -0.67826331012E+03  0.40974589802E+03  0.44322802702E+03  0.91108982833E+03  0.75503460543E+02 0.  0.
        254    2    1    2    0    0  0.67826331012E+03 -0.40974589802E+03  0.57950799077E+03  0.13200138578E+04  0.88242521191E+03 0.  0.
        -24    2    4    4    0    0  0.15686745801E+03 -0.45435986780E+03 -0.58663243404E+02  0.49079921777E+03  0.79951280050E+02 0.  0.
         24    2    4    4    0    0  0.52139585211E+03  0.44613969786E+02  0.63817123417E+03  0.82921464003E+03  0.80562734681E+02 0.  0.
         11    1    3    3    0    0 -0.56478839947E+02  0.20373680061E+02  0.16068954857E+02  0.62154304044E+02  0.00000000000E+00 0. -1.
        -11    1    3    3    0    0 -0.62178447017E+03  0.38937221796E+03  0.42715907216E+03  0.84893552428E+03  0.00000000000E+00 0.  1.
          4    1    6    6  502    0  0.47959132576E+02  0.18964440358E+02  0.36508344071E+02  0.63186925723E+02  0.00000000000E+00 0. -1.
          1    1    5    5  503    0  0.10957722951E+03 -0.20836505866E+03 -0.46741725273E+02  0.24001657397E+03  0.00000000000E+00 0. -1.
         -2    1    5    5    0  503  0.47290228500E+02 -0.24599480914E+03 -0.11921518131E+02  0.25078264380E+03  0.00000000000E+00 0.  1.
         -3    1    6    6    0  502  0.47343671953E+03  0.25649529429E+02  0.60166289010E+03  0.76602771431E+03  0.00000000000E+00 0.  1.
<mgrwt>
<rscale>  0 0.19828854E+04</rscale>
<asrwt>0</asrwt>
<pdfrwt beam="1">  1        1 0.25029536E+00 0.19828854E+04</pdfrwt>
<pdfrwt beam="2">  1       -1 0.92951359E-01 0.19828854E+04</pdfrwt>
<totfact> 0.55854567E+00</totfact>
</mgrwt>
</event>
<event>
12    1  0.1201209E-007  0.1278116E+04  0.7818608E-02  0.9047102E-01
         -2   -1    0    0    0  501 -0.00000000000E+00  0.00000000000E+00  0.24113034680E+03  0.24113034680E+03  0.00000000000E+00 0. -1.
          2   -1    0    0  501    0  0.00000000000E+00 -0.00000000000E+00 -0.16936687757E+04  0.16936687757E+04  0.00000000000E+00 0.  1.
         23    2    1    2    0    0 -0.10640211924E+03 -0.22317149554E+03 -0.75309249151E+02  0.27390267694E+03  0.90687739128E+02 0.  0.
        254    2    1    2    0    0  0.10640211924E+03  0.22317149554E+03 -0.13772291798E+04  0.16608964456E+04  0.89481275244E+03 0.  0.
        -24    2    4    4    0    0 -0.21748542288E+03  0.50727829741E+02 -0.12378489420E+04  0.12604988565E+04  0.81939868007E+02 0.  0.
         24    2    4    4    0    0  0.32388754212E+03  0.17244366580E+03 -0.13938023771E+03  0.40039758910E+03  0.79065927378E+02 0.  0.
         13    1    3    3    0    0 -0.10688691893E+03 -0.23150715035E+03 -0.72610372067E+02  0.26512759237E+03  0.00000000000E+00 0. -1.
        -13    1    3    3    0    0  0.48479969092E+00  0.83356548089E+01 -0.26988770836E+01  0.87750845778E+01  0.00000000000E+00 0.  1.
          4    1    6    6  502    0  0.81391096470E+02  0.81508223988E+02 -0.57738067095E+02  0.12884791638E+03  0.00000000000E+00 0. -1.
          3    1    5    5  503    0 -0.56678585412E+02 -0.18091941420E+02 -0.22921330105E+03  0.23680903228E+03  0.00000000000E+00 0. -1.
         -4    1    5    5    0  503 -0.16080683747E+03  0.68819771161E+02 -0.10086356410E+04  0.10236898242E+04  0.00000000000E+00 0.  1.
         -3    1    6    6    0  502  0.24249644565E+03  0.90935441813E+02 -0.81642170615E+02  0.27154967272E+03  0.00000000000E+00 0.  1.
<mgrwt>
<rscale>  0 0.12781157E+04</rscale>
<asrwt>0</asrwt>
<pdfrwt beam="1">  1        2 0.26056442E+00 0.12781157E+04</pdfrwt>
<pdfrwt beam="2">  1       -2 0.37096978E-01 0.12781157E+04</pdfrwt>
<totfact> 0.66459221E+01</totfact>
</mgrwt>
</event>
<event>
12    1  0.1201209E-007  0.1826442E+04  0.7818608E-02  0.8692363E-01
         -1   -1    0    0    0  501 -0.00000000000E+00  0.00000000000E+00  0.44435950348E+03  0.44435950348E+03  0.00000000000E+00 0.  1.
          1   -1    0    0  501    0  0.00000000000E+00 -0.00000000000E+00 -0.18767970447E+04  0.18767970447E+04  0.00000000000E+00 0. -1.
         23    2    1    2    0    0  0.24282108860E+03  0.18676906192E+03 -0.13315917403E+04  0.13693799169E+04  0.90664384258E+02 0.  0.
        254    2    1    2    0    0 -0.24282108860E+03 -0.18676906192E+03 -0.10084580092E+03  0.95177663122E+03  0.89546865753E+03 0.  0.
        -24    2    4    4    0    0 -0.57358918824E+02 -0.25075711318E+03  0.35703169364E+03  0.44729774377E+03  0.80215122896E+02 0.  0.
         24    2    4    4    0    0 -0.18546216977E+03  0.63988051259E+02 -0.45787749456E+03  0.50447888745E+03  0.79727415233E+02 0.  0.
         11    1    3    3    0    0  0.23940538639E+03  0.15656109278E+03 -0.12498884987E+04  0.12822041858E+04  0.00000000000E+00 0. -1.
        -11    1    3    3    0    0  0.34157022080E+01  0.30207969135E+02 -0.81703241529E+02  0.87175731124E+02  0.00000000000E+00 0.  1.
          2    1    6    6  502    0 -0.15603346280E+03  0.61014391698E+02 -0.29781147790E+03  0.34170290294E+03  0.00000000000E+00 0. -1.
          3    1    5    5  503    0  0.48226936150E+01 -0.32976259122E+02  0.13788667376E+02  0.36066873823E+02  0.00000000000E+00 0. -1.
         -4    1    5    5    0  503 -0.62181612439E+02 -0.21778085405E+03  0.34324302626E+03  0.41123086995E+03  0.00000000000E+00 0.  1.
         -1    1    6    6    0  502 -0.29428706977E+02  0.29736595611E+01 -0.16006601666E+03  0.16277598452E+03  0.00000000000E+00 0.  1.
<mgrwt>
<rscale>  0 0.18264420E+04</rscale>
<asrwt>0</asrwt>
<pdfrwt beam="1">  1        1 0.28873801E+00 0.18264420E+04</pdfrwt>
<pdfrwt beam="2">  1       -1 0.68363000E-01 0.18264420E+04</pdfrwt>
<totfact> 0.73667420E+00</totfact>
</mgrwt>
</event>
<event>
12    1  0.1201209E-007  0.1303080E+04  0.7818608E-02  0.9027127E-01
         -2   -1    0    0    0  501 -0.00000000000E+00  0.00000000000E+00  0.48335212450E+03  0.48335212450E+03  0.00000000000E+00 0.  1.
          2   -1    0    0  501    0  0.00000000000E+00 -0.00000000000E+00 -0.87825016849E+03  0.87825016849E+03  0.00000000000E+00 0. -1.
         23    2    1    2    0    0  0.62251764679E+02 -0.84893677213E+02 -0.41069263114E+03  0.43725138796E+03  0.10694914852E+03 0.  0.
        254    2    1    2    0    0 -0.62251764679E+02  0.84893677213E+02  0.15794587149E+02  0.92435090503E+03  0.91820090831E+03 0.  0.
        -24    2    4    4    0    0  0.13411443594E+03 -0.13059578812E+03  0.39069706309E+03  0.44192530626E+03  0.87245856095E+02 0.  0.
         24    2    4    4    0    0 -0.19636620062E+03  0.21548946533E+03 -0.37490247594E+03  0.48242559877E+03  0.84777340545E+02 0.  0.
         13    1    3    3    0    0  0.65988061091E+02 -0.12108081677E+02 -0.27673268071E+03  0.28474902357E+03  0.00000000000E+00 0. -1.
        -13    1    3    3    0    0 -0.37362964119E+01 -0.72785595536E+02 -0.13395995042E+03  0.15250236439E+03  0.00000000000E+00 0.  1.
          4    1    6    6  502    0 -0.13162311879E+03  0.15333717624E+03 -0.31594816917E+03  0.37504690456E+03  0.00000000000E+00 0. -1.
          3    1    5    5  503    0  0.12741864059E+03 -0.82297123697E+02  0.33598378889E+03  0.36863726472E+03  0.00000000000E+00 0. -1.
         -4    1    5    5    0  503  0.66957953509E+01 -0.48298664420E+02  0.54713274194E+02  0.73288041543E+02  0.00000000000E+00 0.  1.
         -3    1    6    6    0  502 -0.64743081830E+02  0.62152289095E+02 -0.58954306771E+02  0.10737869422E+03  0.00000000000E+00 0.  1.
<mgrwt>
<rscale>  0 0.13030796E+04</rscale>
<asrwt>0</asrwt>
<pdfrwt beam="1">  1        2 0.13511541E+00 0.13030796E+04</pdfrwt>
<pdfrwt beam="2">  1       -2 0.74361865E-01 0.13030796E+04</pdfrwt>
<totfact> 0.48403230E+01</totfact>
</mgrwt>
</event>
<event>
12    1  0.1201209E-007  0.1306522E+04  0.7818608E-02  0.9024409E-01
         -1   -1    0    0    0  501 -0.00000000000E+00  0.00000000000E+00  0.14119691700E+04  0.14119691700E+04  0.00000000000E+00 0.  1.
          1   -1    0    0  501    0  0.00000000000E+00 -0.00000000000E+00 -0.30223723855E+03  0.30223723855E+03  0.00000000000E+00 0. -1.
         23    2    1    2    0    0  0.33355819814E+03  0.45751561151E+02  0.33088775742E+03  0.47932348326E+03  0.83126510193E+02 0.  0.
        254    2    1    2    0    0 -0.33355819814E+03 -0.45751561151E+02  0.77884417403E+03  0.12348829253E+04  0.89720862392E+03 0.  0.
        -24    2    4    4    0    0 -0.51676647817E+02 -0.35544386865E+02 -0.19396096962E+03  0.21891216432E+03  0.79798487359E+02 0.  0.
         24    2    4    4    0    0 -0.28188155032E+03 -0.10207174286E+02  0.97280514365E+03  0.10159707610E+04  0.79280166429E+02 0.  0.
         11    1    3    3    0    0  0.31149364998E+03  0.21993948313E+02  0.28259205851E+03  0.42115353409E+03  0.00000000000E+00 0. -1.
        -11    1    3    3    0    0  0.22064548159E+02  0.23757612838E+02  0.48295698912E+02  0.58169949171E+02  0.00000000000E+00 0.  1.
          2    1    6    6  502    0 -0.69968871254E+02  0.30064736427E+02  0.21633620876E+03  0.22934883157E+03  0.00000000000E+00 0. -1.
          1    1    5    5  503    0 -0.26700171255E+02 -0.57334787423E+02 -0.91563188295E+02  0.11128339699E+03  0.00000000000E+00 0. -1.
         -2    1    5    5    0  503 -0.24976476562E+02  0.21790400558E+02 -0.10239778133E+03  0.10762876734E+03  0.00000000000E+00 0.  1.
         -1    1    6    6    0  502 -0.21191267907E+03 -0.40271910713E+02  0.75646893489E+03  0.78662192939E+03  0.00000000000E+00 0.  1.
<mgrwt>
<rscale>  0 0.13065216E+04</rscale>
<asrwt>0</asrwt>
<pdfrwt beam="1">  1        1 0.46498037E-01 0.13065216E+04</pdfrwt>
<pdfrwt beam="2">  1       -1 0.21722602E+00 0.13065216E+04</pdfrwt>
<totfact> 0.97987779E+00</totfact>
</mgrwt>
</event>
<event>
12    1  0.1201209E-007  0.1488880E+04  0.7818608E-02  0.8891882E-01
          2   -1    0    0  501    0  0.00000000000E+00  0.00000000000E+00  0.23792055975E+04  0.23792055975E+04  0.00000000000E+00 0.  1.
         -2   -1    0    0    0  501 -0.00000000000E+00 -0.00000000000E+00 -0.23293099386E+03  0.23293099386E+03  0.00000000000E+00 0. -1.
         23    2    1    2    0    0  0.10383496429E+03 -0.25856594522E+03  0.29729591047E+02  0.29511627882E+03  0.92583592529E+02 0.  0.
        254    2    1    2    0    0 -0.10383496429E+03  0.25856594522E+03  0.21165450126E+04  0.23170203125E+04  0.90065658856E+03 0.  0.
        -24    2    4    4    0    0  0.13531368752E+03 -0.25499646039E+03  0.35386577051E+03  0.46370572351E+03  0.80430253199E+02 0.  0.
         24    2    4    4    0    0 -0.23914865181E+03  0.51356240561E+03  0.17626792421E+04  0.18533145890E+04  0.82452612528E+02 0.  0.
         11    1    3    3    0    0  0.63349762619E+02 -0.20823214590E+03  0.57008371804E+02  0.22499727435E+03  0.00000000000E+00 0. -1.
        -11    1    3    3    0    0  0.40485201676E+02 -0.50333799322E+02 -0.27278780757E+02  0.70119004475E+02  0.00000000000E+00 0.  1.
          2    1    6    6  502    0 -0.10329219722E+02  0.60372887043E+02  0.26285253518E+03  0.26989448591E+03  0.00000000000E+00 0. -1.
          1    1    5    5  503    0  0.90375360091E+02 -0.20190967330E+03  0.21543416137E+03  0.30878325694E+03  0.00000000000E+00 0. -1.
         -2    1    5    5    0  503  0.44938327426E+02 -0.53086787091E+02  0.13843160914E+03  0.15492246656E+03  0.00000000000E+00 0.  1.
         -1    1    6    6    0  502 -0.22881943209E+03  0.45318951857E+03  0.14998267069E+04  0.15834201031E+04  0.00000000000E+00 0.  1.
<mgrwt>
<rscale>  0 0.14888797E+04</rscale>
<asrwt>0</asrwt>
<pdfrwt beam="1">  1        2 0.36603161E+00 0.14888797E+04</pdfrwt>
<pdfrwt beam="2">  1       -2 0.35835539E-01 0.14888797E+04</pdfrwt>
<totfact> 0.28989499E+01</totfact>
</mgrwt>
</event>
<event>
12    1  0.1201209E-007  0.2828099E+04  0.7818608E-02  0.8294597E-01
          2   -1    0    0  501    0  0.00000000000E+00  0.00000000000E+00  0.25514081901E+04  0.25514081901E+04  0.00000000000E+00 0. -1.
         -2   -1    0    0    0  501 -0.00000000000E+00 -0.00000000000E+00 -0.78369913526E+03  0.78369913526E+03  0.00000000000E+00 0.  1.
         23    2    1    2    0    0 -0.11498617085E+04 -0.51029898006E+03  0.95313225200E+03  0.15805635978E+04  0.84458267852E+02 0.  0.
        254    2    1    2    0    0  0.11498617085E+04  0.51029898006E+03  0.81457680280E+03  0.17545437276E+04  0.91230550063E+03 0.  0.
        -24    2    4    4    0    0  0.98474970723E+02  0.34448862579E+03 -0.63272280797E+02  0.37241758494E+03  0.79509388757E+02 0.  0.
         24    2    4    4    0    0  0.10513867378E+04  0.16581035427E+03  0.87784908360E+03  0.13821261426E+04  0.82137168983E+02 0.  0.
         13    1    3    3    0    0 -0.17352057518E+03 -0.11039786740E+03  0.16336713249E+03  0.26265166878E+03  0.00000000000E+00 0.  1.
        -13    1    3    3    0    0 -0.97634113333E+03 -0.39990111266E+03  0.78976511952E+03  0.13179119290E+04  0.00000000000E+00 0. -1.
          2    1    6    6  502    0  0.56246060636E+03  0.52498282582E+02  0.43886844945E+03  0.71534852995E+03  0.00000000000E+00 0. -1.
          1    1    5    5  503    0  0.78626168662E+02  0.28803654290E+03 -0.21317239204E+02  0.29933517857E+03  0.00000000000E+00 0. -1.
         -2    1    5    5    0  503  0.19848802060E+02  0.56452082892E+02 -0.41955041593E+02  0.73082406372E+02  0.00000000000E+00 0.  1.
         -1    1    6    6    0  502  0.48892613143E+03  0.11331207169E+03  0.43898063415E+03  0.66677761266E+03  0.00000000000E+00 0.  1.
<mgrwt>
<rscale>  0 0.28280993E+04</rscale>
<asrwt>0</asrwt>
<pdfrwt beam="1">  1        2 0.39252433E+00 0.28280993E+04</pdfrwt>
<pdfrwt beam="2">  1       -2 0.12056910E+00 0.28280993E+04</pdfrwt>
<totfact> 0.14800217E+00</totfact>
</mgrwt>
</event>
<event>
12    1  0.1201209E-007  0.2966360E+04  0.7818608E-02  0.8253403E-01
          2   -1    0    0  501    0  0.00000000000E+00  0.00000000000E+00  0.24045223036E+04  0.24045223036E+04  0.00000000000E+00 0. -1.
         -2   -1    0    0    0  501 -0.00000000000E+00 -0.00000000000E+00 -0.91486895549E+03  0.91486895549E+03  0.00000000000E+00 0.  1.
         23    2    1    2    0    0 -0.56061440946E+03 -0.21875901345E+03 -0.66977947992E+03  0.90518688212E+03  0.92815503955E+02 0.  0.
        254    2    1    2    0    0  0.56061440946E+03  0.21875901345E+03  0.21594328280E+04  0.24142043769E+04  0.89615211482E+03 0.  0.
        -24    2    4    4    0    0  0.69224220756E+03  0.11116419787E+03  0.21036752025E+04  0.22187748874E+04  0.77174416042E+02 0.  0.
         24    2    4    4    0    0 -0.13162779809E+03  0.10759481558E+03  0.55757625546E+02  0.19542948959E+03  0.78620932468E+02 0.  0.
         11    1    3    3    0    0 -0.20604058703E+03 -0.85842592667E+02 -0.31664933788E+03  0.38741254162E+03  0.00000000000E+00 0. -1.
        -11    1    3    3    0    0 -0.35457382243E+03 -0.13291642079E+03 -0.35313014204E+03  0.51777434050E+03  0.00000000000E+00 0.  1.
          2    1    6    6  502    0 -0.92698725637E+02  0.99165074689E+02  0.70495864057E+02  0.15295892462E+03  0.00000000000E+00 0. -1.
          3    1    5    5  503    0  0.74088243165E+02  0.35402545635E+02  0.27165842339E+03  0.28379694680E+03  0.00000000000E+00 0. -1.
         -4    1    5    5    0  503  0.61815396439E+03  0.75761652236E+02  0.18320167791E+04  0.19349779406E+04  0.00000000000E+00 0.  1.
         -1    1    6    6    0  502 -0.38929072456E+02  0.84297408942E+01 -0.14738238511E+02  0.42470564962E+02  0.00000000000E+00 0.  1.
<mgrwt>
<rscale>  0 0.29663599E+04</rscale>
<asrwt>0</asrwt>
<pdfrwt beam="1">  1        2 0.36992651E+00 0.29663599E+04</pdfrwt>
<pdfrwt beam="2">  1       -2 0.14074907E+00 0.29663599E+04</pdfrwt>
<totfact> 0.12013480E+00</totfact>
</mgrwt>
</event>
<event>
12    1  0.1201209E-007  0.1539875E+04  0.7818608E-02  0.8858361E-01
          2   -1    0    0  501    0  0.00000000000E+00  0.00000000000E+00  0.35873512299E+03  0.35873512299E+03  0.00000000000E+00 0.  1.
         -2   -1    0    0    0  501 -0.00000000000E+00 -0.00000000000E+00 -0.16524822342E+04  0.16524822342E+04  0.00000000000E+00 0. -1.
         23    2    1    2    0    0  0.44002251525E+03 -0.21917962302E+02 -0.11834661563E+03  0.46656645546E+03  0.97867895300E+02 0.  0.
        254    2    1    2    0    0 -0.44002251525E+03  0.21917962302E+02 -0.11754004955E+04  0.15446509017E+04  0.90015547112E+03 0.  0.
        -24    2    4    4    0    0 -0.46013067435E+02  0.27730341577E+03 -0.99181284909E+03  0.10339896178E+04  0.80171162936E+02 0.  0.
         24    2    4    4    0    0 -0.39400944781E+03 -0.25538545346E+03 -0.18358764646E+03  0.51066128388E+03  0.81273292748E+02 0.  0.
         13    1    3    3    0    0  0.14743828267E+02 -0.77383563841E+01 -0.26428640272E+02  0.31236767728E+02  0.00000000000E+00 0. -1.
        -13    1    3    3    0    0  0.42527868698E+03 -0.14179605918E+02 -0.91917975355E+02  0.43532968773E+03  0.00000000000E+00 0.  1.
          2    1    6    6  502    0 -0.12463900684E+03 -0.39355661198E+02 -0.61132131425E+02  0.14429444753E+03  0.00000000000E+00 0. -1.
          1    1    5    5  503    0  0.10909010687E+02  0.60937818250E+02 -0.31908268318E+03  0.32503258746E+03  0.00000000000E+00 0. -1.
         -2    1    5    5    0  503 -0.56922078122E+02  0.21636559752E+03 -0.67273016592E+03  0.70895703036E+03  0.00000000000E+00 0.  1.
         -1    1    6    6    0  502 -0.26937044097E+03 -0.21602979227E+03 -0.12245551503E+03  0.36636683635E+03  0.00000000000E+00 0.  1.
<mgrwt>
<rscale>  0 0.15398746E+04</rscale>
<asrwt>0</asrwt>
<pdfrwt beam="1">  1        2 0.55190019E-01 0.15398746E+04</pdfrwt>
<pdfrwt beam="2">  1       -2 0.25422804E+00 0.15398746E+04</pdfrwt>
<totfact> 0.52447319E+00</totfact>
</mgrwt>
</event>
<event>
12    1  0.1201209E-007  0.1193367E+04  0.7818608E-02  0.9118682E-01
          1   -1    0    0  501    0  0.00000000000E+00  0.00000000000E+00  0.93257759872E+03  0.93257759872E+03  0.00000000000E+00 0. -1.
         -1   -1    0    0    0  501 -0.00000000000E+00 -0.00000000000E+00 -0.38177123423E+03  0.38177123423E+03  0.00000000000E+00 0.  1.
         23    2    1    2    0    0 -0.18814916386E+03 -0.89581569469E+02  0.26395815027E+03  0.34865671577E+03  0.91992580722E+02 0.  0.
        254    2    1    2    0    0  0.18814916386E+03  0.89581569469E+02  0.28684821422E+03  0.96569211717E+03  0.89825074546E+03 0.  0.
        -24    2    4    4    0    0 -0.15380077918E+03  0.27535027767E+03  0.43265173236E+03  0.54251673986E+03  0.87546767073E+02 0.  0.
         24    2    4    4    0    0  0.34194994304E+03 -0.18576870820E+03 -0.14580351814E+03  0.42317537731E+03  0.79868376508E+02 0.  0.
         13    1    3    3    0    0 -0.15900389359E+03 -0.10286954572E+03  0.19097223576E+03  0.26895125292E+03  0.00000000000E+00 0. -1.
        -13    1    3    3    0    0 -0.29145270268E+02  0.13287976253E+02  0.72985914505E+02  0.79705462849E+02  0.00000000000E+00 0.  1.
          4    1    6    6  502    0  0.10093625513E+03 -0.87838064374E+02 -0.75749048264E+02  0.15375815902E+03  0.00000000000E+00 0. -1.
          3    1    5    5  503    0  0.52406530131E+01  0.55466348088E+02  0.66220119828E+02  0.86539496672E+02  0.00000000000E+00 0. -1.
         -4    1    5    5    0  503 -0.15904143219E+03  0.21988392958E+03  0.36643161253E+03  0.45597724319E+03  0.00000000000E+00 0.  1.
         -3    1    6    6    0  502  0.24101368791E+03 -0.97930643831E+02 -0.70054469876E+02  0.26941721829E+03  0.00000000000E+00 0.  1.
<mgrwt>
<rscale>  0 0.11933672E+04</rscale>
<asrwt>0</asrwt>
<pdfrwt beam="1">  1        1 0.14347348E+00 0.11933672E+04</pdfrwt>
<pdfrwt beam="2">  1       -1 0.58734036E-01 0.11933672E+04</pdfrwt>
<totfact> 0.49796924E+01</totfact>
</mgrwt>
</event>
<event>
12    1  0.1201209E-007  0.1837861E+04  0.7818608E-02  0.8686421E-01
          2   -1    0    0  501    0  0.00000000000E+00  0.00000000000E+00  0.37256809805E+04  0.37256809805E+04  0.00000000000E+00 0. -1.
         -2   -1    0    0    0  501 -0.00000000000E+00 -0.00000000000E+00 -0.22665200131E+03  0.22665200131E+03  0.00000000000E+00 0.  1.
         23    2    1    2    0    0 -0.21944442287E+02 -0.65344936218E+03  0.10694781680E+04  0.12570799165E+04  0.94808950380E+02 0.  0.
        254    2    1    2    0    0  0.21944442287E+02  0.65344936218E+03  0.24295508111E+04  0.26952530653E+04  0.96653728051E+03 0.  0.
        -24    2    4    4    0    0  0.27994043068E+03  0.76121600429E+03  0.13475612125E+04  0.15748309077E+04  0.79716475293E+02 0.  0.
         24    2    4    4    0    0 -0.25799598839E+03 -0.10776664210E+03  0.10819895986E+04  0.11204221576E+04  0.80428480990E+02 0.  0.
         13    1    3    3    0    0 -0.47838982387E+02 -0.59240129870E+03  0.96451699453E+03  0.11329258138E+04  0.00000000000E+00 0.  1.
        -13    1    3    3    0    0  0.25894540100E+02 -0.61048063486E+02  0.10496117350E+03  0.12415410265E+03  0.00000000000E+00 0. -1.
          2    1    6    6  502    0 -0.20700552843E+03 -0.48233758415E+02  0.78892380845E+03  0.81705480832E+03  0.00000000000E+00 0. -1.
          1    1    5    5  503    0  0.19315300101E+03  0.41579405169E+03  0.78093708398E+03  0.90556916044E+03  0.00000000000E+00 0. -1.
         -2    1    5    5    0  503  0.86787429672E+02  0.34542195260E+03  0.56662412854E+03  0.66926174725E+03  0.00000000000E+00 0.  1.
         -1    1    6    6    0  502 -0.50990459964E+02 -0.59532883690E+02  0.29306579015E+03  0.30336734928E+03  0.00000000000E+00 0.  1.
<mgrwt>
<rscale>  0 0.18378608E+04</rscale>
<asrwt>0</asrwt>
<pdfrwt beam="1">  1        2 0.57318164E+00 0.18378608E+04</pdfrwt>
<pdfrwt beam="2">  1       -2 0.34869542E-01 0.18378608E+04</pdfrwt>
<totfact> 0.40983770E+00</totfact>
</mgrwt>
</event>
<event>
12    1  0.1201209E-007  0.2261209E+04  0.7818608E-02  0.8493375E-01
          2   -1    0    0  501    0  0.00000000000E+00  0.00000000000E+00  0.10945916159E+04  0.10945916159E+04  0.00000000000E+00 0.  1.
         -2   -1    0    0    0  501 -0.00000000000E+00 -0.00000000000E+00 -0.11678024143E+04  0.11678024143E+04  0.00000000000E+00 0. -1.
         23    2    1    2    0    0 -0.31712085875E+03 -0.12518122292E+03  0.85315358192E+03  0.92335684823E+03  0.92091569659E+02 0.  0.
        254    2    1    2    0    0  0.31712085875E+03  0.12518122292E+03 -0.92636438033E+03  0.13390371820E+04  0.90478374878E+03 0.  0.
        -24    2    4    4    0    0  0.15919797722E+03  0.18296647713E+03 -0.10732502889E+04  0.11029584000E+04  0.76356543768E+02 0.  0.
         24    2    4    4    0    0  0.15792288152E+03 -0.57785254201E+02  0.14688590857E+03  0.23607878203E+03  0.76674305174E+02 0.  0.
         13    1    3    3    0    0 -0.26773299943E+03 -0.75254910106E+02  0.73568979118E+03  0.78650094045E+03  0.00000000000E+00 0.  1.
        -13    1    3    3    0    0 -0.49387859316E+02 -0.49926312818E+02  0.11746379075E+03  0.13685590779E+03  0.00000000000E+00 0. -1.
          2    1    6    6  502    0  0.12058369062E+02 -0.32886379252E+02  0.15934488439E+02  0.38481503694E+02  0.00000000000E+00 0. -1.
          1    1    5    5  503    0  0.70940124830E+02  0.12452051484E+03 -0.50538826226E+03  0.52531433976E+03  0.00000000000E+00 0. -1.
         -2    1    5    5    0  503  0.88257852393E+02  0.58445962281E+02 -0.56786202665E+03  0.57764406023E+03  0.00000000000E+00 0.  1.
         -1    1    6    6    0  502  0.14586451246E+03 -0.24898874949E+02  0.13095142013E+03  0.19759727833E+03  0.00000000000E+00 0.  1.
<mgrwt>
<rscale>  0 0.22612092E+04</rscale>
<asrwt>0</asrwt>
<pdfrwt beam="1">  1        2 0.16839871E+00 0.22612092E+04</pdfrwt>
<pdfrwt beam="2">  1       -2 0.17966191E+00 0.22612092E+04</pdfrwt>
<totfact> 0.36398575E+00</totfact>
</mgrwt>
</event>
<event>
12    1  0.1201209E-007  0.1435676E+04  0.7818608E-02  0.8928392E-01
         -2   -1    0    0    0  501 -0.00000000000E+00  0.00000000000E+00  0.38854197507E+03  0.38854197507E+03  0.00000000000E+00 0.  1.
          2   -1    0    0  501    0  0.00000000000E+00 -0.00000000000E+00 -0.13262175768E+04  0.13262175768E+04  0.00000000000E+00 0. -1.
         23    2    1    2    0    0 -0.63791416674E+00 -0.16446669973E+03 -0.76028080380E+03  0.78330146308E+03  0.92111775447E+02 0.  0.
        254    2    1    2    0    0  0.63791416674E+00  0.16446669973E+03 -0.17739479793E+03  0.93145808879E+03  0.89949738998E+03 0.  0.
        -24    2    4    4    0    0  0.41723834950E+03 -0.54301972054E+02 -0.15008074125E+03  0.45327788732E+03  0.76811911686E+02 0.  0.
         24    2    4    4    0    0 -0.41660043534E+03  0.21876867179E+03 -0.27314056687E+02  0.47818020147E+03  0.80589037102E+02 0.  0.
         11    1    3    3    0    0  0.38429735044E+02 -0.44218930067E+02 -0.17589863985E+03  0.18539819258E+03  0.00000000000E+00 0.  1.
        -11    1    3    3    0    0 -0.39067649211E+02 -0.12024776967E+03 -0.58438216395E+03  0.59790327050E+03  0.00000000000E+00 0. -1.
          2    1    6    6  502    0 -0.16636277400E+02  0.30795912003E+02 -0.75374571245E+01  0.35804569285E+02  0.00000000000E+00 0. -1.
          3    1    5    5  503    0  0.18862403966E+03 -0.62972674852E+02 -0.65586001852E+02  0.20939462686E+03  0.00000000000E+00 0. -1.
         -4    1    5    5    0  503  0.22861430984E+03  0.86707027974E+01 -0.84494739394E+02  0.24388326047E+03  0.00000000000E+00 0.  1.
         -1    1    6    6    0  502 -0.39996415794E+03  0.18797275979E+03 -0.19776599562E+02  0.44237563218E+03  0.00000000000E+00 0.  1.
<mgrwt>
<rscale>  0 0.14356757E+04</rscale>
<asrwt>0</asrwt>
<pdfrwt beam="1">  1        2 0.20403347E+00 0.14356757E+04</pdfrwt>
<pdfrwt beam="2">  1       -2 0.59775689E-01 0.14356757E+04</pdfrwt>
<totfact> 0.40445349E+01</totfact>
</mgrwt>
</event>
<event>
12    1  0.1201209E-007  0.2533675E+04  0.7818608E-02  0.8391086E-01
         -2   -1    0    0    0  501 -0.00000000000E+00  0.00000000000E+00  0.89729488316E+03  0.89729488316E+03  0.00000000000E+00 0.  1.
          2   -1    0    0  501    0  0.00000000000E+00 -0.00000000000E+00 -0.17885734098E+04  0.17885734098E+04  0.00000000000E+00 0. -1.
         23    2    1    2    0    0 -0.52933508197E+03 -0.25885230657E+02 -0.14305145906E+04  0.15282340339E+04  0.90893312998E+02 0.  0.
        254    2    1    2    0    0  0.52933508197E+03  0.25885230657E+02  0.53923606395E+03  0.11576342591E+04  0.87662755541E+03 0.  0.
        -24    2    4    4    0    0  0.19940261503E+03 -0.31157919525E+03 -0.67851795129E+02  0.38452102777E+03  0.80059708341E+02 0.  0.
         24    2    4    4    0    0  0.32993246694E+03  0.33746442590E+03  0.60708785908E+03  0.77311323129E+03  0.80067023607E+02 0.  0.
         13    1    3    3    0    0 -0.14921703513E+03  0.28661960335E+02 -0.46311279017E+03  0.48740197780E+03  0.00000000000E+00 0.  1.
        -13    1    3    3    0    0 -0.38011804684E+03 -0.54547190992E+02 -0.96740180043E+03  0.10408320561E+04  0.00000000000E+00 0. -1.
          2    1    6    6  502    0  0.28387349636E+03  0.28538669258E+03  0.55787365124E+03  0.68793367194E+03  0.00000000000E+00 0. -1.
          1    1    5    5  503    0  0.18113226170E+03 -0.30160195763E+03 -0.46796028410E+02  0.35491196845E+03  0.00000000000E+00 0. -1.
         -2    1    5    5    0  503  0.18270353330E+02 -0.99772376143E+01 -0.21055766719E+02  0.29609059312E+02  0.00000000000E+00 0.  1.
         -1    1    6    6    0  502  0.46058970574E+02  0.52077733327E+02  0.49214207839E+02  0.85179559355E+02  0.00000000000E+00 0.  1.
<mgrwt>
<rscale>  0 0.25336754E+04</rscale>
<asrwt>0</asrwt>
<pdfrwt beam="1">  1        2 0.27516514E+00 0.25336754E+04</pdfrwt>
<pdfrwt beam="2">  1       -2 0.13804537E+00 0.25336754E+04</pdfrwt>
<totfact> 0.29012933E+00</totfact>
</mgrwt>
</event>
<event>
12    1  0.1201209E-007  0.2246158E+04  0.7818608E-02  0.8499458E-01
         -1   -1    0    0    0  501 -0.00000000000E+00  0.00000000000E+00  0.92640786040E+03  0.92640786040E+03  0.00000000000E+00 0.  1.
          1   -1    0    0  501    0  0.00000000000E+00 -0.00000000000E+00 -0.13615017734E+04  0.13615017734E+04  0.00000000000E+00 0. -1.
         23    2    1    2    0    0  0.65354343345E+03 -0.66447382779E+03 -0.28212114223E+03  0.97827021234E+03  0.93679145093E+02 0.  0.
        254    2    1    2    0    0 -0.65354343345E+03  0.66447382779E+03 -0.15297277076E+03  0.13096394215E+04  0.90725424132E+03 0.  0.
        -24    2    4    4    0    0 -0.44179556209E+03  0.83454117787E+03 -0.29475200256E+03  0.99231808555E+03  0.78575719284E+02 0.  0.
         24    2    4    4    0    0 -0.21174787136E+03 -0.17006735007E+03  0.14177923180E+03  0.31732133590E+03  0.82652374816E+02 0.  0.
         11    1    3    3    0    0  0.16313267056E+03 -0.20244090304E+03 -0.11367904756E+03  0.28375608060E+03  0.00000000000E+00 0. -1.
        -11    1    3    3    0    0  0.49041076289E+03 -0.46203292476E+03 -0.16844209467E+03  0.69451413173E+03  0.00000000000E+00 0.  1.
          2    1    6    6  502    0 -0.13790427416E+03 -0.63897801159E+02  0.55251717670E+02  0.16171972709E+03  0.00000000000E+00 0. -1.
          1    1    5    5  503    0 -0.29877571855E+02  0.88554258964E+02 -0.10720381872E+02  0.94071529530E+02  0.00000000000E+00 0. -1.
         -2    1    5    5    0  503 -0.41191799023E+03  0.74598691890E+03 -0.28403162069E+03  0.89824655602E+03  0.00000000000E+00 0.  1.
         -1    1    6    6    0  502 -0.73843597203E+02 -0.10616954891E+03  0.86527514128E+02  0.15560160881E+03  0.00000000000E+00 0.  1.
<mgrwt>
<rscale>  0 0.22461576E+04</rscale>
<asrwt>0</asrwt>
<pdfrwt beam="1">  1        1 0.20946181E+00 0.22461576E+04</pdfrwt>
<pdfrwt beam="2">  1       -1 0.14252429E+00 0.22461576E+04</pdfrwt>
<totfact> 0.29703292E+00</totfact>
</mgrwt>
</event>
<event>
12    1  0.1201209E-007  0.4959922E+04  0.7818608E-02  0.7834719E-01
         -1   -1    0    0    0  501 -0.00000000000E+00  0.00000000000E+00  0.22315038646E+04  0.22315038646E+04  0.00000000000E+00 0.  1.
          1   -1    0    0  501    0  0.00000000000E+00 -0.00000000000E+00 -0.27560817203E+04  0.27560817203E+04  0.00000000000E+00 0. -1.
         23    2    1    2    0    0 -0.35668711687E+03  0.54577831924E+03 -0.25744246675E+04  0.26570602253E+04  0.84894045330E+02 0.  0.
        254    2    1    2    0    0  0.35668711687E+03 -0.54577831924E+03  0.20498468118E+04  0.23305253596E+04  0.89687057424E+03 0.  0.
        -24    2    4    4    0    0  0.44582839414E+03 -0.63881123487E+03  0.20323946817E+04  0.21782041924E+04  0.84276988205E+02 0.  0.
         24    2    4    4    0    0 -0.89141277271E+02  0.93032915630E+02  0.17452130056E+02  0.15232116720E+03  0.79346521212E+02 0.  0.
         11    1    3    3    0    0 -0.16175525888E+03  0.29413454252E+03 -0.14580581715E+04  0.14961996940E+04  0.00000000000E+00 0.  1.
        -11    1    3    3    0    0 -0.19493185799E+03  0.25164377672E+03 -0.11163664960E+04  0.11608605312E+04  0.00000000000E+00 0. -1.
          2    1    6    6  502    0 -0.42945505029E+02  0.80237836562E+02  0.39924408860E+02  0.99380004233E+02  0.00000000000E+00 0. -1.
          3    1    5    5  503    0  0.51360204954E+02 -0.12397498293E+03  0.31332080580E+03  0.34084834515E+03  0.00000000000E+00 0. -1.
         -4    1    5    5    0  503  0.39446818919E+03 -0.51483625194E+03  0.17190738759E+04  0.18373558473E+04  0.00000000000E+00 0.  1.
         -1    1    6    6    0  502 -0.46195772241E+02  0.12795079068E+02 -0.22472278804E+02  0.52941162964E+02  0.00000000000E+00 0.  1.
<mgrwt>
<rscale>  0 0.49599222E+04</rscale>
<asrwt>0</asrwt>
<pdfrwt beam="1">  1        1 0.42401257E+00 0.49599222E+04</pdfrwt>
<pdfrwt beam="2">  1       -1 0.34330829E+00 0.49599222E+04</pdfrwt>
<totfact> 0.11161682E-02</totfact>
</mgrwt>
</event>
<event>
12    1  0.1201209E-007  0.1606891E+04  0.7818608E-02  0.8816326E-01
          2   -1    0    0  501    0  0.00000000000E+00  0.00000000000E+00  0.28996302806E+04  0.28996302806E+04  0.00000000000E+00 0. -1.
         -2   -1    0    0    0  501 -0.00000000000E+00 -0.00000000000E+00 -0.22262301253E+03  0.22262301253E+03  0.00000000000E+00 0.  1.
         23    2    1    2    0    0 -0.27520906999E+03 -0.46147981200E+03  0.72147951779E+03  0.90416932647E+03  0.91026519476E+02 0.  0.
        254    2    1    2    0    0  0.27520906999E+03  0.46147981200E+03  0.19555277502E+04  0.22180839666E+04  0.89838969937E+03 0.  0.
        -24    2    4    4    0    0  0.29275131759E+03 -0.75527923425E+02  0.17918118131E+03  0.36053686287E+03  0.80455780310E+02 0.  0.
         24    2    4    4    0    0 -0.17542247597E+02  0.53700773543E+03  0.17763465689E+04  0.18575471038E+04  0.79931666733E+02 0.  0.
         13    1    3    3    0    0 -0.34255252358E+02 -0.10096099639E+03  0.19367705890E+03  0.22108222056E+03  0.00000000000E+00 0. -1.
        -13    1    3    3    0    0 -0.24095381763E+03 -0.36051881561E+03  0.52780245889E+03  0.68308710590E+03  0.00000000000E+00 0.  1.
          4    1    6    6  502    0 -0.40610957551E+02  0.44476936372E+03  0.14086359100E+04  0.14777429288E+04  0.00000000000E+00 0. -1.
          3    1    5    5  503    0  0.20118055043E+03 -0.50120465807E+02  0.77446898414E+02  0.22132260851E+03  0.00000000000E+00 0. -1.
         -4    1    5    5    0  503  0.91570767161E+02 -0.25407457618E+02  0.10173428289E+03  0.13921425436E+03  0.00000000000E+00 0.  1.
         -3    1    6    6    0  502  0.23068709955E+02  0.92238371711E+02  0.36771065894E+03  0.37980417492E+03  0.00000000000E+00 0.  1.
<mgrwt>
<rscale>  0 0.16068907E+04</rscale>
<asrwt>0</asrwt>
<pdfrwt beam="1">  1        2 0.44609694E+00 0.16068907E+04</pdfrwt>
<pdfrwt beam="2">  1       -2 0.34249696E-01 0.16068907E+04</pdfrwt>
<totfact> 0.15460120E+01</totfact>
</mgrwt>
</event>
<event>
12    1  0.1201209E-007  0.1284962E+04  0.7818608E-02  0.9041576E-01
         -1   -1    0    0    0  501 -0.00000000000E+00  0.00000000000E+00  0.21197555645E+03  0.21197555645E+03  0.00000000000E+00 0.  1.
          1   -1    0    0  501    0  0.00000000000E+00 -0.00000000000E+00 -0.19473085854E+04  0.19473085854E+04  0.00000000000E+00 0. -1.
         23    2    1    2    0    0 -0.24109915245E+03 -0.37824755957E+02 -0.10681267866E+03  0.28135116211E+03  0.90498699568E+02 0.  0.
        254    2    1    2    0    0  0.24109915245E+03  0.37824755957E+02 -0.16285203503E+04  0.18779329797E+04  0.90277030945E+03 0.  0.
        -24    2    4    4    0    0  0.23666985944E+03  0.17259210058E+02 -0.37650451938E+01  0.25083002473E+03  0.81185115874E+02 0.  0.
         24    2    4    4    0    0  0.44292930129E+01  0.20565545899E+02 -0.16247553051E+04  0.16271029550E+04  0.84803681928E+02 0.  0.
         11    1    3    3    0    0 -0.16994788184E+02  0.18084367801E+02 -0.27733366739E+02  0.37215679691E+02  0.00000000000E+00 0. -1.
        -11    1    3    3    0    0 -0.22410436427E+03 -0.55909123758E+02 -0.79079311920E+02  0.24413548242E+03  0.00000000000E+00 0.  1.
          2    1    6    6  502    0  0.48346520924E+01  0.27163461149E+02 -0.16154667479E+04  0.16157023368E+04  0.00000000000E+00 0. -1.
          1    1    5    5  503    0  0.71136962424E+02 -0.15639058992E+01  0.35717664414E+02  0.79615731961E+02  0.00000000000E+00 0. -1.
         -2    1    5    5    0  503  0.16553289702E+03  0.18823115958E+02 -0.39482709608E+02  0.17121429277E+03  0.00000000000E+00 0.  1.
         -1    1    6    6    0  502 -0.40535907951E+00 -0.65979152509E+01 -0.92885572208E+01  0.11400618268E+02  0.00000000000E+00 0.  1.
<mgrwt>
<rscale>  0 0.12849620E+04</rscale>
<asrwt>0</asrwt>
<pdfrwt beam="1">  1        1 0.29958593E+00 0.12849620E+04</pdfrwt>
<pdfrwt beam="2">  1       -1 0.32611624E-01 0.12849620E+04</pdfrwt>
<totfact> 0.28052583E+01</totfact>
</mgrwt>
</event>
<event>
12    1  0.1201209E-007  0.1845824E+04  0.7818608E-02  0.8682303E-01
          2   -1    0    0  501    0  0.00000000000E+00  0.00000000000E+00  0.28282340060E+04  0.28282340060E+04  0.00000000000E+00 0. -1.
         -2   -1    0    0    0  501 -0.00000000000E+00 -0.00000000000E+00 -0.30116551749E+03  0.30116551749E+03  0.00000000000E+00 0.  1.
         23    2    1    2    0    0  0.49692494916E+03  0.19324274106E+03  0.19416275188E+03  0.57442405129E+03  0.89368083848E+02 0.  0.
        254    2    1    2    0    0 -0.49692494916E+03 -0.19324274106E+03  0.23329057366E+04  0.25549754722E+04  0.89508285957E+03 0.  0.
        -24    2    4    4    0    0  0.32839135770E+02  0.28674163310E+03  0.46152209738E+03  0.55011115830E+03  0.79501365489E+02 0.  0.
         24    2    4    4    0    0 -0.52976408493E+03 -0.47998437416E+03  0.18713836392E+04  0.20048643139E+04  0.79807310586E+02 0.  0.
         13    1    3    3    0    0  0.57659523308E+02 -0.38109918691E+01  0.84166212101E+01  0.58395066570E+02  0.00000000000E+00 0. -1.
        -13    1    3    3    0    0  0.43926542585E+03  0.19705373293E+03  0.18574613067E+03  0.51602898472E+03  0.00000000000E+00 0.  1.
          2    1    6    6  502    0 -0.38751829625E+03 -0.39301437579E+03  0.14003933063E+04  0.15052349125E+04  0.00000000000E+00 0. -1.
          1    1    5    5  503    0  0.38772605809E+02  0.27607308380E+03  0.45989641452E+03  0.53779584849E+03  0.00000000000E+00 0. -1.
         -2    1    5    5    0  503 -0.59334700389E+01  0.10668549300E+02  0.16256828627E+01  0.12315309807E+02  0.00000000000E+00 0.  1.
         -1    1    6    6    0  502 -0.14224578868E+03 -0.86969998372E+02  0.47099033292E+03  0.49962940138E+03  0.00000000000E+00 0.  1.
<mgrwt>
<rscale>  0 0.18458240E+04</rscale>
<asrwt>0</asrwt>
<pdfrwt beam="1">  1        2 0.43511291E+00 0.18458240E+04</pdfrwt>
<pdfrwt beam="2">  1       -2 0.46333158E-01 0.18458240E+04</pdfrwt>
<totfact> 0.92571205E+00</totfact>
</mgrwt>
</event>
<event>
12    1  0.1201209E-007  0.2779665E+04  0.7818608E-02  0.8309609E-01
         -1   -1    0    0    0  501 -0.00000000000E+00  0.00000000000E+00  0.13870332794E+04  0.13870332794E+04  0.00000000000E+00 0.  1.
          1   -1    0    0  501    0  0.00000000000E+00 -0.00000000000E+00 -0.13926377963E+04  0.13926377963E+04  0.00000000000E+00 0. -1.
         23    2    1    2    0    0 -0.84360073339E+03  0.90849019369E+03 -0.47496030526E+02  0.12441047420E+04  0.92326088927E+02 0.  0.
        254    2    1    2    0    0  0.84360073339E+03 -0.90849019369E+03  0.41891513616E+02  0.15355663338E+04  0.90509250195E+03 0.  0.
        -24    2    4    4    0    0  0.64053145370E+03 -0.55154406418E+03 -0.38933573570E+03  0.93434284869E+03  0.83263712948E+02 0.  0.
         24    2    4    4    0    0  0.20306927969E+03 -0.35694612951E+03  0.43122724932E+03  0.60122348508E+03  0.82855698214E+02 0.  0.
         11    1    3    3    0    0 -0.75154641739E+03  0.76934011422E+03 -0.56804167397E+02  0.10770018302E+04  0.00000000000E+00 0.  1.
        -11    1    3    3    0    0 -0.92054315999E+02  0.13915007947E+03  0.93081368707E+01  0.16710291177E+03  0.00000000000E+00 0. -1.
          2    1    6    6  502    0  0.56650764730E+02 -0.38979772130E+02  0.65594934062E+02  0.95033821108E+02  0.00000000000E+00 0. -1.
          1    1    5    5  503    0  0.26266413583E+03 -0.23776773356E+03 -0.20759651585E+03  0.41063640458E+03  0.00000000000E+00 0. -1.
         -2    1    5    5    0  503  0.37786731786E+03 -0.31377633062E+03 -0.18173921986E+03  0.52370644411E+03  0.00000000000E+00 0.  1.
         -1    1    6    6    0  502  0.14641851496E+03 -0.31796635738E+03  0.36563231526E+03  0.50618966397E+03  0.00000000000E+00 0.  1.
<mgrwt>
<rscale>  0 0.27796654E+04</rscale>
<asrwt>0</asrwt>
<pdfrwt beam="1">  1        1 0.21425197E+00 0.27796654E+04</pdfrwt>
<pdfrwt beam="2">  1       -1 0.21338974E+00 0.27796654E+04</pdfrwt>
<totfact> 0.82217892E-01</totfact>
</mgrwt>
</event>
<event>
12    1  0.1201209E-007  0.2786790E+04  0.7818608E-02  0.8307381E-01
         -2   -1    0    0    0  501 -0.00000000000E+00  0.00000000000E+00  0.12699690653E+04  0.12699690653E+04  0.00000000000E+00 0. -1.
          2   -1    0    0  501    0  0.00000000000E+00 -0.00000000000E+00 -0.15288161768E+04  0.15288161768E+04  0.00000000000E+00 0.  1.
         23    2    1    2    0    0 -0.10062686503E+04 -0.38720056163E+03  0.50838946126E+03  0.11957144548E+04  0.93660779897E+02 0.  0.
        254    2    1    2    0    0  0.10062686503E+04  0.38720056163E+03 -0.76723657271E+03  0.16030707872E+04  0.90481109572E+03 0.  0.
        -24    2    4    4    0    0  0.23476120081E+03 -0.10107138454E+03  0.14861747993E+03  0.30748368830E+03  0.84444165304E+02 0.  0.
         24    2    4    4    0    0  0.77150744947E+03  0.48827194618E+03 -0.91585405264E+03  0.12955870989E+04  0.78256291655E+02 0.  0.
         11    1    3    3    0    0 -0.19781661645E+02 -0.16896907186E+02  0.55087876344E+00  0.26021588677E+02  0.00000000000E+00 0.  1.
        -11    1    3    3    0    0 -0.98648698863E+03 -0.37030365445E+03  0.50783858250E+03  0.11696928661E+04  0.00000000000E+00 0. -1.
          2    1    6    6  502    0  0.61953418239E+03  0.41905252987E+03 -0.77584661707E+03  0.10776667384E+04  0.00000000000E+00 0. -1.
          1    1    5    5  503    0  0.12154278925E+03 -0.74309506700E+01  0.58168746285E+02  0.13494988585E+03  0.00000000000E+00 0. -1.
         -2    1    5    5    0  503  0.11321841156E+03 -0.93640433873E+02  0.90448733645E+02  0.17253380246E+03  0.00000000000E+00 0.  1.
         -1    1    6    6    0  502  0.15197326707E+03  0.69219416309E+02 -0.14000743557E+03  0.21792036049E+03  0.00000000000E+00 0.  1.
<mgrwt>
<rscale>  0 0.27867897E+04</rscale>
<asrwt>0</asrwt>
<pdfrwt beam="1">  1        2 0.23520249E+00 0.27867897E+04</pdfrwt>
<pdfrwt beam="2">  1       -2 0.19537986E+00 0.27867897E+04</pdfrwt>
<totfact> 0.15199500E+00</totfact>
</mgrwt>
</event>
<event>
12    1  0.1201209E-007  0.2791473E+04  0.7818608E-02  0.8305921E-01
          1   -1    0    0  501    0  0.00000000000E+00  0.00000000000E+00  0.15807080074E+04  0.15807080074E+04  0.00000000000E+00 0. -1.
         -1   -1    0    0    0  501 -0.00000000000E+00 -0.00000000000E+00 -0.12324101137E+04  0.12324101137E+04  0.00000000000E+00 0.  1.
         23    2    1    2    0    0 -0.10831857717E+04  0.34852035571E+03  0.67366046644E+03  0.13254025360E+04  0.90086647895E+02 0.  0.
        254    2    1    2    0    0  0.10831857717E+04 -0.34852035571E+03 -0.32536257276E+03  0.14877155851E+04  0.90148710694E+03 0.  0.
        -24    2    4    4    0    0  0.49032306235E+03  0.28017804424E+03 -0.22846393271E+03  0.61475645880E+03  0.82542674679E+02 0.  0.
         24    2    4    4    0    0  0.59286270936E+03 -0.62869839995E+03 -0.96898640049E+02  0.87295912629E+03  0.76944262173E+02 0.  0.
         13    1    3    3    0    0 -0.33025736465E+03  0.96665606703E+02  0.25136884128E+03  0.42614605571E+03  0.00000000000E+00 0.  1.
        -13    1    3    3    0    0 -0.75292840706E+03  0.25185474901E+03  0.42229162516E+03  0.89925648034E+03  0.00000000000E+00 0. -1.
          4    1    6    6  502    0  0.32004940504E+03 -0.35920866680E+03 -0.17931770117E+02  0.48143954590E+03  0.00000000000E+00 0. -1.
          3    1    5    5  503    0  0.46371838172E+03  0.26732209863E+03 -0.19391852401E+03  0.56929802030E+03  0.00000000000E+00 0. -1.
         -4    1    5    5    0  503  0.26604680634E+02  0.12855945605E+02 -0.34545408701E+02  0.45458438506E+02  0.00000000000E+00 0.  1.
         -3    1    6    6    0  502  0.27281330432E+03 -0.26948973314E+03 -0.78966869931E+02  0.39151958039E+03  0.00000000000E+00 0.  1.
<mgrwt>
<rscale>  0 0.27914731E+04</rscale>
<asrwt>0</asrwt>
<pdfrwt beam="1">  1        1 0.24318585E+00 0.27914731E+04</pdfrwt>
<pdfrwt beam="2">  1       -1 0.18960156E+00 0.27914731E+04</pdfrwt>
<totfact> 0.88647947E-01</totfact>
</mgrwt>
</event>
<event>
12    1  0.1201209E-007  0.1808210E+04  0.7818608E-02  0.8701946E-01
         -1   -1    0    0    0  501 -0.00000000000E+00  0.00000000000E+00  0.30318827894E+04  0.30318827894E+04  0.00000000000E+00 0.  1.
          1   -1    0    0  501    0  0.00000000000E+00 -0.00000000000E+00 -0.26960345310E+03  0.26960345310E+03  0.00000000000E+00 0. -1.
         23    2    1    2    0    0 -0.65365756128E+03 -0.14560397551E+03  0.10768388919E+04  0.12712884036E+04  0.90130355294E+02 0.  0.
        254    2    1    2    0    0  0.65365756128E+03  0.14560397551E+03  0.16854404444E+04  0.20301978389E+04  0.91242810582E+03 0.  0.
        -24    2    4    4    0    0  0.30180198682E+03  0.15119457313E+03  0.43986187037E+02  0.34957291285E+03  0.79512254139E+02 0.  0.
         24    2    4    4    0    0  0.35185557445E+03 -0.55905976131E+01  0.16414542573E+04  0.16806249260E+04  0.79337651368E+02 0.  0.
         11    1    3    3    0    0 -0.48432252971E+03 -0.96486122591E+02  0.86118434405E+03  0.99273176592E+03  0.00000000000E+00 0.  1.
        -11    1    3    3    0    0 -0.16933503157E+03 -0.49117852923E+02  0.21565454787E+03  0.27855663771E+03  0.00000000000E+00 0. -1.
          2    1    6    6  502    0  0.41498705919E+02 -0.26075108936E+02  0.26142412414E+03  0.26597862053E+03  0.00000000000E+00 0. -1.
          3    1    5    5  503    0  0.37399119788E+02 -0.78582849334E+01  0.61082364362E+01  0.38700870215E+02  0.00000000000E+00 0. -1.
         -4    1    5    5    0  503  0.26440286703E+03  0.15905285806E+03  0.37877950601E+02  0.31087204264E+03  0.00000000000E+00 0.  1.
         -1    1    6    6    0  502  0.31035686854E+03  0.20484511323E+02  0.13800301332E+04  0.14146463055E+04  0.00000000000E+00 0.  1.
<mgrwt>
<rscale>  0 0.18082102E+04</rscale>
<asrwt>0</asrwt>
<pdfrwt beam="1">  1        1 0.41477456E-01 0.18082102E+04</pdfrwt>
<pdfrwt beam="2">  1       -1 0.46644348E+00 0.18082102E+04</pdfrwt>
<totfact> 0.23734156E-01</totfact>
</mgrwt>
</event>
<event>
12    1  0.1201209E-007  0.2691937E+04  0.7818608E-02  0.8337626E-01
         -2   -1    0    0    0  501 -0.00000000000E+00  0.00000000000E+00  0.52583118412E+03  0.52583118412E+03  0.00000000000E+00 0.  1.
          2   -1    0    0  501    0  0.00000000000E+00 -0.00000000000E+00 -0.34452726092E+04  0.34452726092E+04  0.00000000000E+00 0. -1.
         23    2    1    2    0    0  0.45280717897E+03 -0.19999980732E+03  0.30160896389E+03  0.58679741411E+03  0.91263211963E+02 0.  0.
        254    2    1    2    0    0 -0.45280717897E+03  0.19999980732E+03 -0.32210503889E+04  0.33843063792E+04  0.91286899161E+03 0.  0.
        -24    2    4    4    0    0 -0.36672486184E+03  0.40518542593E+03 -0.93331920920E+03  0.10843873813E+04  0.78414876425E+02 0.  0.
         24    2    4    4    0    0 -0.86082317126E+02 -0.20518561861E+03 -0.22877311797E+04  0.22999189978E+04  0.80013389790E+02 0.  0.
         13    1    3    3    0    0  0.12260920153E+03 -0.41479866014E+02  0.35991807835E+02  0.13434658840E+03  0.00000000000E+00 0. -1.
        -13    1    3    3    0    0  0.33019797744E+03 -0.15851994131E+03  0.26561715605E+03  0.45245082571E+03  0.00000000000E+00 0.  1.
          4    1    6    6  502    0 -0.90190309124E+02 -0.11665086286E+03 -0.13648724053E+04  0.13728140436E+04  0.00000000000E+00 0. -1.
          1    1    5    5  503    0 -0.19654033086E+03  0.27135005407E+03 -0.54332772881E+03  0.63832904868E+03  0.00000000000E+00 0. -1.
         -2    1    5    5    0  503 -0.17018453098E+03  0.13383537186E+03 -0.38999148039E+03  0.44605833265E+03  0.00000000000E+00 0.  1.
         -3    1    6    6    0  502  0.41079919988E+01 -0.88534755743E+02 -0.92285877443E+03  0.92710495421E+03  0.00000000000E+00 0.  1.
<mgrwt>
<rscale>  0 0.26919374E+04</rscale>
<asrwt>0</asrwt>
<pdfrwt beam="1">  1        2 0.53004195E+00 0.26919374E+04</pdfrwt>
<pdfrwt beam="2">  1       -2 0.80897103E-01 0.26919374E+04</pdfrwt>
<totfact> 0.10503770E+00</totfact>
</mgrwt>
</event>
<event>
12    1  0.1201209E-007  0.4189081E+04  0.7818608E-02  0.7967453E-01
          1   -1    0    0  501    0  0.00000000000E+00  0.00000000000E+00  0.22874559989E+04  0.22874559989E+04  0.00000000000E+00 0. -1.
         -1   -1    0    0    0  501 -0.00000000000E+00 -0.00000000000E+00 -0.19178944930E+04  0.19178944930E+04  0.00000000000E+00 0.  1.
         23    2    1    2    0    0 -0.11102482843E+04  0.12308277686E+04  0.12898753193E+04  0.21021096736E+04  0.86593830952E+02 0.  0.
        254    2    1    2    0    0  0.11102482843E+04 -0.12308277686E+04 -0.92031381343E+03  0.21032408183E+04  0.91052521963E+03 0.  0.
        -24    2    4    4    0    0 -0.13407803995E+03 -0.27257489788E+03 -0.99483690703E+02  0.32945704745E+03  0.79818203742E+02 0.  0.
         24    2    4    4    0    0  0.12443263243E+04 -0.95825287074E+03 -0.82083012272E+03  0.17737837708E+04  0.77137601942E+02 0.  0.
         13    1    3    3    0    0 -0.79805659509E+03  0.86766286328E+03  0.86900754054E+03  0.14645501968E+04  0.00000000000E+00 0. -1.
        -13    1    3    3    0    0 -0.31219168925E+03  0.36316490534E+03  0.42086777875E+03  0.63755947683E+03  0.00000000000E+00 0.  1.
          2    1    6    6  502    0  0.44681962686E+03 -0.31123923230E+03 -0.31376786906E+03  0.62846472799E+03  0.00000000000E+00 0. -1.
          3    1    5    5  503    0 -0.67931420622E+02 -0.21794279382E+03 -0.71678506778E+02  0.23927295630E+03  0.00000000000E+00 0. -1.
         -4    1    5    5    0  503 -0.66146619332E+02 -0.54632104063E+02 -0.27805183924E+02  0.90184091150E+02  0.00000000000E+00 0.  1.
         -1    1    6    6    0  502  0.79750669744E+03 -0.64701363843E+03 -0.50706225366E+03  0.11453190428E+04  0.00000000000E+00 0.  1.
<mgrwt>
<rscale>  0 0.41890807E+04</rscale>
<asrwt>0</asrwt>
<pdfrwt beam="1">  1        1 0.35191631E+00 0.41890807E+04</pdfrwt>
<pdfrwt beam="2">  1       -1 0.29506069E+00 0.41890807E+04</pdfrwt>
<totfact> 0.52015138E-02</totfact>
</mgrwt>
</event>
<event>
12    1  0.1201209E-007  0.1491565E+04  0.7818608E-02  0.8890082E-01
          1   -1    0    0  501    0  0.00000000000E+00  0.00000000000E+00  0.22016627361E+04  0.22016627361E+04  0.00000000000E+00 0. -1.
         -1   -1    0    0    0  501 -0.00000000000E+00 -0.00000000000E+00 -0.25262340687E+03  0.25262340687E+03  0.00000000000E+00 0.  1.
         23    2    1    2    0    0 -0.29048331393E+03 -0.22635435898E+03  0.14659963592E+03  0.40613607823E+03  0.88533661877E+02 0.  0.
        254    2    1    2    0    0  0.29048331393E+03  0.22635435898E+03  0.18024396933E+04  0.20481500647E+04  0.90028494834E+03 0.  0.
        -24    2    4    4    0    0 -0.97167254344E+02 -0.14225278818E+03  0.12880926202E+04  0.13017439856E+04  0.75349019642E+02 0.  0.
         24    2    4    4    0    0  0.38765056827E+03  0.36860714716E+03  0.51434707307E+03  0.74640607911E+03  0.80155669459E+02 0.  0.
         11    1    3    3    0    0 -0.29496878904E+03 -0.22788905830E+03  0.14035501859E+03  0.39829579541E+03  0.00000000000E+00 0.  1.
        -11    1    3    3    0    0  0.44854751139E+01  0.15346993162E+01  0.62446173319E+01  0.78402828144E+01  0.00000000000E+00 0. -1.
          4    1    6    6  502    0  0.19438006548E+03  0.20580227042E+03  0.22040333573E+03  0.35876986323E+03  0.00000000000E+00 0. -1.
          3    1    5    5  503    0 -0.31170039657E+02 -0.17143785718E+02  0.48394461822E+03  0.48525032125E+03  0.00000000000E+00 0. -1.
         -4    1    5    5    0  503 -0.65997214688E+02 -0.12510900246E+03  0.80414800199E+03  0.81649366436E+03  0.00000000000E+00 0.  1.
         -3    1    6    6    0  502  0.19327050280E+03  0.16280487674E+03  0.29394373734E+03  0.38763621588E+03  0.00000000000E+00 0.  1.
<mgrwt>
<rscale>  0 0.14915650E+04</rscale>
<asrwt>0</asrwt>
<pdfrwt beam="1">  1        1 0.33871733E+00 0.14915650E+04</pdfrwt>
<pdfrwt beam="2">  1       -1 0.38865141E-01 0.14915650E+04</pdfrwt>
<totfact> 0.13521325E+01</totfact>
</mgrwt>
</event>
<event>
12    1  0.1201209E-007  0.2649519E+04  0.7818608E-02  0.8351573E-01
         -1   -1    0    0    0  501 -0.00000000000E+00  0.00000000000E+00  0.60464078150E+03  0.60464078150E+03  0.00000000000E+00 0.  1.
          1   -1    0    0  501    0  0.00000000000E+00 -0.00000000000E+00 -0.29025297034E+04  0.29025297034E+04  0.00000000000E+00 0. -1.
         23    2    1    2    0    0  0.88266227609E+03 -0.48599607342E+03 -0.22958233157E+03  0.10375190939E+04  0.91939905942E+02 0.  0.
        254    2    1    2    0    0 -0.88266227609E+03  0.48599607342E+03 -0.20683065903E+04  0.24696513909E+04  0.89777556452E+03 0.  0.
        -24    2    4    4    0    0 -0.88734604841E+03  0.68941283506E+03 -0.16594942433E+04  0.20059714736E+04  0.85599897569E+02 0.  0.
         24    2    4    4    0    0  0.46837723152E+01 -0.20341676164E+03 -0.40881234694E+03  0.46367991731E+03  0.80443856626E+02 0.  0.
         11    1    3    3    0    0  0.76146812307E+03 -0.45330375396E+03 -0.19648204938E+03  0.90770214913E+03  0.00000000000E+00 0.  1.
        -11    1    3    3    0    0  0.12119415303E+03 -0.32692319457E+02 -0.33100282192E+02  0.12981694481E+03  0.00000000000E+00 0. -1.
          4    1    6    6  502    0  0.37230042720E+02 -0.52869323843E+02 -0.12760456463E+03  0.14305301954E+03  0.00000000000E+00 0. -1.
          3    1    5    5  503    0 -0.75238518347E+03  0.56102989994E+03 -0.13365346330E+04  0.16331450756E+04  0.00000000000E+00 0. -1.
         -4    1    5    5    0  503 -0.13496086494E+03  0.12838293512E+03 -0.32295961037E+03  0.37282639797E+03  0.00000000000E+00 0.  1.
         -1    1    6    6    0  502 -0.32546270405E+02 -0.15054743780E+03 -0.28120778231E+03  0.32062689778E+03  0.00000000000E+00 0.  1.
<mgrwt>
<rscale>  0 0.26495191E+04</rscale>
<asrwt>0</asrwt>
<pdfrwt beam="1">  1        1 0.44654302E+00 0.26495191E+04</pdfrwt>
<pdfrwt beam="2">  1       -1 0.93021661E-01 0.26495191E+04</pdfrwt>
<totfact> 0.69224425E-01</totfact>
</mgrwt>
</event>
<event>
12    1  0.1201209E-007  0.1700901E+04  0.7818608E-02  0.8760851E-01
         -2   -1    0    0    0  501 -0.00000000000E+00  0.00000000000E+00  0.29859631822E+03  0.29859631822E+03  0.00000000000E+00 0.  1.
          2   -1    0    0  501    0  0.00000000000E+00 -0.00000000000E+00 -0.24222208003E+04  0.24222208003E+04  0.00000000000E+00 0. -1.
         23    2    1    2    0    0 -0.15402375102E+03 -0.47077935178E+03 -0.13011845501E+04  0.13950608415E+04  0.88073855763E+02 0.  0.
        254    2    1    2    0    0  0.15402375102E+03  0.47077935178E+03 -0.82243993198E+03  0.13257562770E+04  0.91425693895E+03 0.  0.
        -24    2    4    4    0    0 -0.20216515117E+02  0.67889851074E+03 -0.77976171146E+03  0.10372141897E+04  0.80455287618E+02 0.  0.
         24    2    4    4    0    0  0.17424026614E+03 -0.20811915896E+03 -0.42678220516E+02  0.28854208731E+03  0.88101367612E+02 0.  0.
         13    1    3    3    0    0 -0.15749836997E+03 -0.45021054206E+03 -0.12767512869E+04  0.13629340106E+04  0.00000000000E+00 0. -1.
        -13    1    3    3    0    0  0.34746189551E+01 -0.20568809722E+02 -0.24433263228E+02  0.32126830878E+02  0.00000000000E+00 0.  1.
          4    1    6    6  502    0  0.82233831985E+02 -0.10983535490E+03 -0.65419265170E+02  0.15200621225E+03  0.00000000000E+00 0. -1.
          1    1    5    5  503    0 -0.49148735195E+02  0.48669265143E+03 -0.54164949869E+03  0.72984211619E+03  0.00000000000E+00 0. -1.
         -2    1    5    5    0  503  0.28932220078E+02  0.19220585931E+03 -0.23811221277E+03  0.30737207352E+03  0.00000000000E+00 0.  1.
         -3    1    6    6    0  502  0.92006434152E+02 -0.98283804066E+02  0.22741044654E+02  0.13653587506E+03  0.00000000000E+00 0.  1.
<mgrwt>
<rscale>  0 0.17009012E+04</rscale>
<asrwt>0</asrwt>
<pdfrwt beam="1">  1        2 0.37264935E+00 0.17009012E+04</pdfrwt>
<pdfrwt beam="2">  1       -2 0.45937896E-01 0.17009012E+04</pdfrwt>
<totfact> 0.16525472E+01</totfact>
</mgrwt>
</event>
<event>
12    1  0.1201209E-007  0.3217714E+04  0.7818608E-02  0.8184155E-01
          2   -1    0    0  501    0  0.00000000000E+00  0.00000000000E+00  0.24051507035E+04  0.24051507035E+04  0.00000000000E+00 0.  1.
         -2   -1    0    0    0  501 -0.00000000000E+00 -0.00000000000E+00 -0.10761988168E+04  0.10761988168E+04  0.00000000000E+00 0. -1.
         23    2    1    2    0    0 -0.13614842942E+04 -0.41715691119E+03  0.10547763241E+04  0.17744054280E+04  0.91116172631E+02 0.  0.
        254    2    1    2    0    0  0.13614842942E+04  0.41715691119E+03  0.27417556249E+03  0.17069440924E+04  0.90045906260E+03 0.  0.
        -24    2    4    4    0    0  0.16780369530E+03  0.42365210436E+03  0.21259203850E+03  0.50894509716E+03  0.78680057203E+02 0.  0.
         24    2    4    4    0    0  0.11936805989E+04 -0.64951931691E+01  0.61583523984E+02  0.11979989952E+04  0.80582270357E+02 0.  0.
         13    1    3    3    0    0 -0.10044415098E+03 -0.44391519601E+02  0.10818882327E+03  0.15415724426E+03  0.00000000000E+00 0. -1.
        -13    1    3    3    0    0 -0.12610401432E+04 -0.37276539159E+03  0.94658750086E+03  0.16202481837E+04  0.00000000000E+00 0.  1.
          2    1    6    6  502    0  0.63359926383E+03 -0.43630265180E+02  0.34297586923E+02  0.63602511872E+03  0.00000000000E+00 0. -1.
          3    1    5    5  503    0  0.14420573752E+03  0.27220207730E+03  0.12526561578E+03  0.33253682520E+03  0.00000000000E+00 0. -1.
         -2    1    5    5    0  503  0.23597957777E+02  0.15145002707E+03  0.87326422726E+02  0.17640827196E+03  0.00000000000E+00 0.  1.
         -1    1    6    6    0  502  0.56008133508E+03  0.37135072011E+02  0.27285937061E+02  0.56197387647E+03  0.00000000000E+00 0.  1.
<mgrwt>
<rscale>  0 0.32177137E+04</rscale>
<asrwt>0</asrwt>
<pdfrwt beam="1">  1        2 0.37002318E+00 0.32177137E+04</pdfrwt>
<pdfrwt beam="2">  1       -2 0.16556905E+00 0.32177137E+04</pdfrwt>
<totfact> 0.76130133E-01</totfact>
</mgrwt>
</event>
<event>
12    1  0.1201209E-007  0.2670823E+04  0.7818608E-02  0.8344534E-01
          2   -1    0    0  501    0  0.00000000000E+00  0.00000000000E+00  0.16768639580E+04  0.16768639580E+04  0.00000000000E+00 0. -1.
         -2   -1    0    0    0  501 -0.00000000000E+00 -0.00000000000E+00 -0.10634872839E+04  0.10634872839E+04  0.00000000000E+00 0.  1.
         23    2    1    2    0    0 -0.18286476912E+03 -0.62689290491E+03  0.12788806412E+04  0.14386556571E+04  0.88091811910E+02 0.  0.
        254    2    1    2    0    0  0.18286476912E+03  0.62689290491E+03 -0.66550396712E+03  0.13016955848E+04  0.90834003941E+03 0.  0.
        -24    2    4    4    0    0 -0.12835694466E+03  0.70978035237E+03 -0.24548732242E+03  0.76641591459E+03  0.82859367672E+02 0.  0.
         24    2    4    4    0    0  0.31122171378E+03 -0.82887447461E+02 -0.42001664470E+03  0.53527967020E+03  0.79881533735E+02 0.  0.
         11    1    3    3    0    0 -0.17427705891E+03 -0.49223251622E+03  0.97087586130E+03  0.11023907117E+04  0.00000000000E+00 0. -1.
        -11    1    3    3    0    0 -0.85877102082E+01 -0.13466038870E+03  0.30800477992E+03  0.33626494540E+03  0.00000000000E+00 0.  1.
          2    1    6    6  502    0  0.19432148353E+02 -0.10475645766E+02 -0.47033555937E+01  0.22571422146E+02  0.00000000000E+00 0. -1.
          3    1    5    5  503    0 -0.14664904555E+02  0.21891997273E+02 -0.21778579815E+02  0.34185165042E+02  0.00000000000E+00 0. -1.
         -4    1    5    5    0  503 -0.11369204010E+03  0.68788835510E+03 -0.22370874261E+03  0.73223074955E+03  0.00000000000E+00 0.  1.
         -1    1    6    6    0  502  0.29178956542E+03 -0.72411801695E+02 -0.41531328911E+03  0.51270824805E+03  0.00000000000E+00 0.  1.
<mgrwt>
<rscale>  0 0.26708227E+04</rscale>
<asrwt>0</asrwt>
<pdfrwt beam="1">  1        2 0.25797907E+00 0.26708227E+04</pdfrwt>
<pdfrwt beam="2">  1       -2 0.16361343E+00 0.26708227E+04</pdfrwt>
<totfact> 0.21054678E+00</totfact>
</mgrwt>
</event>
<event>
12    1  0.1201209E-007  0.3584119E+04  0.7818608E-02  0.8094139E-01
          1   -1    0    0  501    0  0.00000000000E+00  0.00000000000E+00  0.17307315175E+04  0.17307315175E+04  0.00000000000E+00 0. -1.
         -1   -1    0    0    0  501 -0.00000000000E+00 -0.00000000000E+00 -0.18555610289E+04  0.18555610289E+04  0.00000000000E+00 0.  1.
         23    2    1    2    0    0 -0.14899244954E+04 -0.45938104965E+03 -0.68462517237E+03  0.17052530390E+04  0.90941462411E+02 0.  0.
        254    2    1    2    0    0  0.14899244954E+04  0.45938104965E+03  0.55979566101E+03  0.18810395074E+04  0.89108501044E+03 0.  0.
        -24    2    4    4    0    0  0.70111274563E+03 -0.46941344769E+02 -0.12390404596E+03  0.71807451165E+03  0.80723105319E+02 0.  0.
         24    2    4    4    0    0  0.78881174972E+03  0.50632239442E+03  0.68369970697E+03  0.11629649958E+04  0.80348917431E+02 0.  0.
         13    1    3    3    0    0 -0.71365728043E+03 -0.23495531991E+03 -0.28278948932E+03  0.80279549796E+03  0.00000000000E+00 0.  1.
        -13    1    3    3    0    0 -0.77626721492E+03 -0.22442572974E+03 -0.40183568305E+03  0.90245754099E+03  0.00000000000E+00 0. -1.
          4    1    6    6  502    0  0.29688269389E+03  0.23456898682E+03  0.29176498095E+03  0.47779571746E+03  0.00000000000E+00 0. -1.
          3    1    5    5  503    0  0.12644902217E+03  0.22383812624E+02 -0.26073286346E+02  0.13103513474E+03  0.00000000000E+00 0. -1.
         -4    1    5    5    0  503  0.57466372346E+03 -0.69325157393E+02 -0.97830759618E+02  0.58703937691E+03  0.00000000000E+00 0.  1.
         -3    1    6    6    0  502  0.49192905583E+03  0.27175340759E+03  0.39193472602E+03  0.68516927833E+03  0.00000000000E+00 0.  1.
<mgrwt>
<rscale>  0 0.35841194E+04</rscale>
<asrwt>0</asrwt>
<pdfrwt beam="1">  1        1 0.26626639E+00 0.35841194E+04</pdfrwt>
<pdfrwt beam="2">  1       -1 0.28547093E+00 0.35841194E+04</pdfrwt>
<totfact> 0.15091144E-01</totfact>
</mgrwt>
</event>
<event>
12    1  0.1201209E-007  0.1463869E+04  0.7818608E-02  0.8908841E-01
         -1   -1    0    0    0  501 -0.00000000000E+00  0.00000000000E+00  0.97972403570E+03  0.97972403570E+03  0.00000000000E+00 0.  1.
          1   -1    0    0  501    0  0.00000000000E+00 -0.00000000000E+00 -0.54681542434E+03  0.54681542434E+03  0.00000000000E+00 0. -1.
         23    2    1    2    0    0  0.25415530544E+03  0.36217034735E+03  0.21368182679E+03  0.50041557613E+03  0.94834307886E+02 0.  0.
        254    2    1    2    0    0 -0.25415530544E+03 -0.36217034735E+03  0.21922678457E+03  0.10261238839E+04  0.89950406462E+03 0.  0.
        -24    2    4    4    0    0 -0.35160534950E+03 -0.16371671584E+03 -0.27261271450E+03  0.48068246572E+03  0.79425788613E+02 0.  0.
         24    2    4    4    0    0  0.97450044056E+02 -0.19845363151E+03  0.49183949907E+03  0.54544141819E+03  0.81974952811E+02 0.  0.
         11    1    3    3    0    0  0.12560512232E+03  0.12412671813E+03  0.12252818862E+03  0.21493544592E+03  0.00000000000E+00 0. -1.
        -11    1    3    3    0    0  0.12855018313E+03  0.23804362923E+03  0.91153638163E+02  0.28548013022E+03  0.00000000000E+00 0.  1.
          2    1    6    6  502    0  0.61977885574E+02 -0.12605996649E+03  0.21274451668E+03  0.25493646823E+03  0.00000000000E+00 0. -1.
          1    1    5    5  503    0 -0.32577877118E+03 -0.13171181140E+03 -0.26168082149E+03  0.43812858997E+03  0.00000000000E+00 0. -1.
         -2    1    5    5    0  503 -0.25826578322E+02 -0.32004904445E+02 -0.10931893008E+02  0.42553875747E+02  0.00000000000E+00 0.  1.
         -1    1    6    6    0  502  0.35472158482E+02 -0.72393665015E+02  0.27909498239E+03  0.29050494997E+03  0.00000000000E+00 0.  1.
<mgrwt>
<rscale>  0 0.14638691E+04</rscale>
<asrwt>0</asrwt>
<pdfrwt beam="1">  1        1 0.84125450E-01 0.14638691E+04</pdfrwt>
<pdfrwt beam="2">  1       -1 0.15072677E+00 0.14638691E+04</pdfrwt>
<totfact> 0.13067621E+01</totfact>
</mgrwt>
</event>
<event>
12    1  0.1201209E-007  0.3521156E+04  0.7818608E-02  0.8108795E-01
         -1   -1    0    0    0  501 -0.00000000000E+00  0.00000000000E+00  0.11545822374E+04  0.11545822374E+04  0.00000000000E+00 0. -1.
          1   -1    0    0  501    0  0.00000000000E+00 -0.00000000000E+00 -0.26846370357E+04  0.26846370357E+04  0.00000000000E+00 0.  1.
         23    2    1    2    0    0  0.53486113130E+03 -0.12450804899E+04 -0.17674346842E+04  0.22290395700E+04  0.92142201246E+02 0.  0.
        254    2    1    2    0    0 -0.53486113130E+03  0.12450804899E+04  0.23737988593E+03  0.16101797031E+04  0.83667652634E+03 0.  0.
        -24    2    4    4    0    0 -0.52234649615E+03  0.23416581560E+03  0.90473152684E+02  0.58534140261E+03  0.82217242871E+02 0.  0.
         24    2    4    4    0    0 -0.12514635154E+02  0.10109146743E+04  0.14690673325E+03  0.10248383005E+04  0.81282586805E+02 0.  0.
         13    1    3    3    0    0  0.63141878621E+02 -0.22272175303E+03 -0.27342659832E+03  0.35826523802E+03  0.00000000000E+00 0. -1.
        -13    1    3    3    0    0  0.47171925268E+03 -0.10223587369E+04 -0.14940080859E+04  0.18707743319E+04  0.00000000000E+00 0.  1.
          4    1    6    6  502    0 -0.30020203350E+02  0.14347436805E+03  0.17449217309E+02  0.14761633406E+03  0.00000000000E+00 0. -1.
          1    1    5    5  503    0 -0.17895893852E+03  0.68617641263E+02  0.68364969571E+02  0.20349066669E+03  0.00000000000E+00 0. -1.
         -2    1    5    5    0  503 -0.34338755763E+03  0.16554817434E+03  0.22108183113E+02  0.38185073592E+03  0.00000000000E+00 0.  1.
         -3    1    6    6    0  502  0.17505568196E+02  0.86744030629E+03  0.12945751594E+03  0.87722196639E+03  0.00000000000E+00 0.  1.
<mgrwt>
<rscale>  0 0.35211556E+04</rscale>
<asrwt>0</asrwt>
<pdfrwt beam="1">  1        1 0.41302108E+00 0.35211556E+04</pdfrwt>
<pdfrwt beam="2">  1       -1 0.17762804E+00 0.35211556E+04</pdfrwt>
<totfact> 0.17732520E-01</totfact>
</mgrwt>
</event>
<event>
12    1  0.1201209E-007  0.1577022E+04  0.7818608E-02  0.8834790E-01
         -2   -1    0    0    0  501 -0.00000000000E+00  0.00000000000E+00  0.65828614773E+03  0.65828614773E+03  0.00000000000E+00 0.  1.
          2   -1    0    0  501    0  0.00000000000E+00 -0.00000000000E+00 -0.94449720800E+03  0.94449720800E+03  0.00000000000E+00 0. -1.
         23    2    1    2    0    0 -0.34460053577E+03  0.24305239055E+03 -0.41547049499E+03  0.59969401919E+03  0.95881127643E+02 0.  0.
        254    2    1    2    0    0  0.34460053577E+03 -0.24305239055E+03  0.12925943472E+03  0.10030893365E+04  0.90091965336E+03 0.  0.
        -24    2    4    4    0    0 -0.25960073798E+03  0.10054075144E+03 -0.10909571283E+02  0.28953679413E+03  0.78813390688E+02 0.  0.
         24    2    4    4    0    0  0.60420127375E+03 -0.34359314199E+03  0.14016900600E+03  0.71355254240E+03  0.79965330632E+02 0.  0.
         13    1    3    3    0    0 -0.14043948031E+03  0.94736078740E+02 -0.10381682841E+03  0.19868594844E+03  0.00000000000E+00 0.  1.
        -13    1    3    3    0    0 -0.20416105545E+03  0.14831631181E+03 -0.31165366658E+03  0.40100807075E+03  0.00000000000E+00 0. -1.
          4    1    6    6  502    0  0.14967234912E+03 -0.77220029593E+02  0.68718198389E+02  0.18189814692E+03  0.00000000000E+00 0. -1.
          3    1    5    5  503    0 -0.31206427273E+02  0.44172100625E+02 -0.18834889387E+01  0.54116200045E+02  0.00000000000E+00 0. -1.
         -4    1    5    5    0  503 -0.22839431071E+03  0.56368650811E+02 -0.90260823439E+01  0.23542059409E+03  0.00000000000E+00 0.  1.
         -3    1    6    6    0  502  0.45452892463E+03 -0.26637311240E+03  0.71450807615E+02  0.53165439549E+03  0.00000000000E+00 0.  1.
<mgrwt>
<rscale>  0 0.15770218E+04</rscale>
<asrwt>0</asrwt>
<pdfrwt beam="1">  1        2 0.14530726E+00 0.15770218E+04</pdfrwt>
<pdfrwt beam="2">  1       -2 0.10127479E+00 0.15770218E+04</pdfrwt>
<totfact> 0.21082515E+01</totfact>
</mgrwt>
</event>
<event>
12    1  0.1201209E-007  0.1385623E+04  0.7818608E-02  0.8964291E-01
          1   -1    0    0  501    0  0.00000000000E+00  0.00000000000E+00  0.90208113258E+03  0.90208113258E+03  0.00000000000E+00 0. -1.
         -1   -1    0    0    0  501 -0.00000000000E+00 -0.00000000000E+00 -0.53208944773E+03  0.53208944773E+03  0.00000000000E+00 0.  1.
         23    2    1    2    0    0  0.21728189628E+02 -0.33941223239E+02 -0.29013217119E+03  0.30660642853E+03  0.90590862685E+02 0.  0.
        254    2    1    2    0    0 -0.21728189628E+02  0.33941223239E+02  0.66012385604E+03  0.11275641518E+04  0.91324328094E+03 0.  0.
        -24    2    4    4    0    0 -0.36913810283E+03 -0.22982278901E+03  0.46997978186E+03  0.64513002322E+03  0.78932237938E+02 0.  0.
         24    2    4    4    0    0  0.34740991320E+03  0.26376401225E+03  0.19014407418E+03  0.48243412856E+03  0.79516146169E+02 0.  0.
         13    1    3    3    0    0 -0.22588025210E+01 -0.62107193087E+02 -0.18354197607E+03  0.19377838528E+03  0.00000000000E+00 0.  1.
        -13    1    3    3    0    0  0.23986992149E+02  0.28165969848E+02 -0.10659019512E+03  0.11282804326E+03  0.00000000000E+00 0. -1.
          4    1    6    6  502    0  0.32351089889E+03  0.23082598817E+03  0.19267608520E+03  0.44166051705E+03  0.00000000000E+00 0. -1.
          1    1    5    5  503    0 -0.26142923572E+03 -0.18483971768E+03  0.29879906629E+03  0.43794046232E+03  0.00000000000E+00 0. -1.
         -2    1    5    5    0  503 -0.10770886711E+03 -0.44983071333E+02  0.17118071558E+03  0.20718956090E+03  0.00000000000E+00 0.  1.
         -3    1    6    6    0  502  0.23899014311E+02  0.32938024081E+02 -0.25320110172E+01  0.40773611506E+02  0.00000000000E+00 0.  1.
<mgrwt>
<rscale>  0 0.13856231E+04</rscale>
<asrwt>0</asrwt>
<pdfrwt beam="1">  1        1 0.13878171E+00 0.13856231E+04</pdfrwt>
<pdfrwt beam="2">  1       -1 0.81859915E-01 0.13856231E+04</pdfrwt>
<totfact> 0.26282912E+01</totfact>
</mgrwt>
</event>
<event>
12    1  0.1201209E-007  0.2745557E+04  0.7818608E-02  0.8320373E-01
          1   -1    0    0  501    0  0.00000000000E+00  0.00000000000E+00  0.14810464928E+04  0.14810464928E+04  0.00000000000E+00 0. -1.
         -1   -1    0    0    0  501 -0.00000000000E+00 -0.00000000000E+00 -0.12724248588E+04  0.12724248588E+04  0.00000000000E+00 0.  1.
         23    2    1    2    0    0  0.13042704864E+03 -0.58994051528E+03  0.11509598903E+04  0.13029781594E+04  0.89456068193E+02 0.  0.
        254    2    1    2    0    0 -0.13042704864E+03  0.58994051528E+03 -0.94233825628E+03  0.14504931923E+04  0.92243595178E+03 0.  0.
        -24    2    4    4    0    0 -0.13511529942E+02  0.50821991643E+03 -0.21414243575E+02  0.51498984754E+03  0.79283846708E+02 0.  0.
         24    2    4    4    0    0 -0.11691551870E+03  0.81720598855E+02 -0.92092401270E+03  0.93550334478E+03  0.81963260866E+02 0.  0.
         13    1    3    3    0    0  0.91975707322E+02 -0.50772746678E+03  0.91992560155E+03  0.10547558123E+04  0.00000000000E+00 0. -1.
        -13    1    3    3    0    0  0.38451341318E+02 -0.82213048503E+02  0.23103428873E+03  0.24822234703E+03  0.00000000000E+00 0.  1.
          2    1    6    6  502    0 -0.62533505949E+02  0.77592053857E+02 -0.73564398196E+03  0.74236314186E+03  0.00000000000E+00 0. -1.
          1    1    5    5  503    0 -0.40208573005E+01  0.28962650213E+03  0.26961309693E+02  0.29090649743E+03  0.00000000000E+00 0. -1.
         -2    1    5    5    0  503 -0.94906726414E+01  0.21859341430E+03 -0.48375553268E+02  0.22408335011E+03  0.00000000000E+00 0.  1.
         -1    1    6    6    0  502 -0.54382012749E+02  0.41285449986E+01 -0.18528003074E+03  0.19314020292E+03  0.00000000000E+00 0.  1.
<mgrwt>
<rscale>  0 0.27455567E+04</rscale>
<asrwt>0</asrwt>
<pdfrwt beam="1">  1        1 0.22785331E+00 0.27455567E+04</pdfrwt>
<pdfrwt beam="2">  1       -1 0.19575767E+00 0.27455567E+04</pdfrwt>
<totfact> 0.94457505E-01</totfact>
</mgrwt>
</event>
<event>
12    1  0.1201209E-007  0.1452542E+04  0.7818608E-02  0.8916640E-01
          2   -1    0    0  501    0  0.00000000000E+00  0.00000000000E+00  0.27661937335E+04  0.27661937335E+04  0.00000000000E+00 0. -1.
         -2   -1    0    0    0  501 -0.00000000000E+00 -0.00000000000E+00 -0.19068432472E+03  0.19068432472E+03  0.00000000000E+00 0.  1.
         23    2    1    2    0    0  0.38249954564E+03 -0.97886748419E+02  0.11118657923E+04  0.11834252139E+04  0.91443856236E+02 0.  0.
        254    2    1    2    0    0 -0.38249954564E+03  0.97886748419E+02  0.14636436164E+04  0.17734528443E+04  0.92032311557E+03 0.  0.
        -24    2    4    4    0    0 -0.63771830957E+03 -0.11964204091E+03  0.10159859686E+04  0.12081070860E+04  0.79349748388E+02 0.  0.
         24    2    4    4    0    0  0.25521876393E+03  0.21752878933E+03  0.44765764787E+03  0.56534575830E+03  0.82237856776E+02 0.  0.
         13    1    3    3    0    0  0.25890263179E+03 -0.61032508673E+02  0.61434646735E+03  0.66946032131E+03  0.00000000000E+00 0. -1.
        -13    1    3    3    0    0  0.12359691385E+03 -0.36854239746E+02  0.49751932499E+03  0.51396489261E+03  0.00000000000E+00 0.  1.
          2    1    6    6  502    0  0.16862852572E+03  0.11104929969E+03  0.31708299683E+03  0.37591109790E+03  0.00000000000E+00 0. -1.
          1    1    5    5  503    0 -0.19456180510E+03 -0.14869122049E+02  0.25217899137E+03  0.31885675543E+03  0.00000000000E+00 0. -1.
         -2    1    5    5    0  503 -0.44315650447E+03 -0.10477291886E+03  0.76380697718E+03  0.88925033055E+03  0.00000000000E+00 0.  1.
         -1    1    6    6    0  502  0.86590238211E+02  0.10647948964E+03  0.13057465104E+03  0.18943466040E+03  0.00000000000E+00 0.  1.
<mgrwt>
<rscale>  0 0.14525423E+04</rscale>
<asrwt>0</asrwt>
<pdfrwt beam="1">  1        2 0.42556824E+00 0.14525423E+04</pdfrwt>
<pdfrwt beam="2">  1       -2 0.29336052E-01 0.14525423E+04</pdfrwt>
<totfact> 0.25265264E+01</totfact>
</mgrwt>
</event>
<event>
12    1  0.1201209E-007  0.1720344E+04  0.7818608E-02  0.8749846E-01
         -1   -1    0    0    0  501 -0.00000000000E+00  0.00000000000E+00  0.58053918577E+03  0.58053918577E+03  0.00000000000E+00 0.  1.
          1   -1    0    0  501    0  0.00000000000E+00 -0.00000000000E+00 -0.12744972751E+04  0.12744972751E+04  0.00000000000E+00 0. -1.
         23    2    1    2    0    0  0.39264341174E+03  0.52052253726E+03 -0.36905069454E+03  0.75426197426E+03  0.87178839782E+02 0.  0.
        254    2    1    2    0    0 -0.39264341174E+03 -0.52052253726E+03 -0.32490739485E+03  0.11007744867E+04  0.82524365776E+03 0.  0.
        -24    2    4    4    0    0  0.18109343652E+03 -0.34908009629E+03  0.26340843785E+02  0.40199009102E+03  0.79059767582E+02 0.  0.
         24    2    4    4    0    0 -0.57373684826E+03 -0.17144244097E+03 -0.35124823863E+03  0.69878439564E+03  0.79735969484E+02 0.  0.
         11    1    3    3    0    0  0.17979164336E+02  0.12698774454E+02 -0.31936214984E+02  0.38786995893E+02  0.00000000000E+00 0.  1.
        -11    1    3    3    0    0  0.37466424740E+03  0.50782376280E+03 -0.33711447955E+03  0.71547497837E+03  0.00000000000E+00 0. -1.
          4    1    6    6  502    0 -0.21255111024E+03 -0.10081660484E+03 -0.15477289827E+03  0.28159654174E+03  0.00000000000E+00 0. -1.
          1    1    5    5  503    0  0.23455464970E+02 -0.59205165382E+02  0.33481549018E+02  0.71947373611E+02  0.00000000000E+00 0. -1.
         -4    1    5    5    0  503  0.15763797155E+03 -0.28987493091E+03 -0.71407052325E+01  0.33004271741E+03  0.00000000000E+00 0.  1.
         -3    1    6    6    0  502 -0.36118573801E+03 -0.70625836126E+02 -0.19647534036E+03  0.41718785390E+03  0.00000000000E+00 0.  1.
<mgrwt>
<rscale>  0 0.17203437E+04</rscale>
<asrwt>0</asrwt>
<pdfrwt beam="1">  1        1 0.19607650E+00 0.17203437E+04</pdfrwt>
<pdfrwt beam="2">  1       -1 0.89313721E-01 0.17203437E+04</pdfrwt>
<totfact> 0.11012134E+01</totfact>
</mgrwt>
</event>
<event>
12    1  0.1201209E-007  0.1374606E+04  0.7818608E-02  0.8972408E-01
         -2   -1    0    0    0  501 -0.00000000000E+00  0.00000000000E+00  0.44479959460E+03  0.44479959460E+03  0.00000000000E+00 0. -1.
          2   -1    0    0  501    0  0.00000000000E+00 -0.00000000000E+00 -0.10620181067E+04  0.10620181067E+04  0.00000000000E+00 0.  1.
         23    2    1    2    0    0 -0.92891988311E+02  0.45135422282E+01  0.22649127410E+03  0.26844254551E+03  0.11006275228E+03 0.  0.
        254    2    1    2    0    0  0.92891988311E+02 -0.45135422282E+01 -0.84370978620E+03  0.12383751558E+04  0.90170811774E+03 0.  0.
        -24    2    4    4    0    0  0.31327268535E+03  0.16631031885E+03 -0.19206601370E+02  0.36423758997E+03  0.80630210608E+02 0.  0.
         24    2    4    4    0    0 -0.22038069704E+03 -0.17082386108E+03 -0.82450318483E+03  0.87413756583E+03  0.81009499737E+02 0.  0.
         13    1    3    3    0    0 -0.23012232445E+01  0.12967854760E+02 -0.90228247744E+01  0.15964718989E+02  0.00000000000E+00 0.  1.
        -13    1    3    3    0    0 -0.90590765067E+02 -0.84543125317E+01  0.23551409887E+03  0.25247782652E+03  0.00000000000E+00 0. -1.
          4    1    6    6  502    0 -0.97808575819E+02 -0.27524110859E+02 -0.30377538332E+03  0.32031793221E+03  0.00000000000E+00 0. -1.
          1    1    5    5  503    0  0.28656099974E+03  0.12555432932E+03 -0.30103708321E+02  0.31430451705E+03  0.00000000000E+00 0. -1.
         -2    1    5    5    0  503  0.26711685613E+02  0.40755989530E+02  0.10897106951E+02  0.49933072915E+02  0.00000000000E+00 0.  1.
         -3    1    6    6    0  502 -0.12257212122E+03 -0.14329975022E+03 -0.52072780151E+03  0.55381963362E+03  0.00000000000E+00 0.  1.
<mgrwt>
<rscale>  0 0.13746057E+04</rscale>
<asrwt>0</asrwt>
<pdfrwt beam="1">  1        2 0.16338740E+00 0.13746057E+04</pdfrwt>
<pdfrwt beam="2">  1       -2 0.68430708E-01 0.13746057E+04</pdfrwt>
<totfact> 0.43820240E+01</totfact>
</mgrwt>
</event>
<event>
12    1  0.1201209E-007  0.1730873E+04  0.7818608E-02  0.8743949E-01
         -1   -1    0    0    0  501 -0.00000000000E+00  0.00000000000E+00  0.10102185031E+04  0.10102185031E+04  0.00000000000E+00 0.  1.
          1   -1    0    0  501    0  0.00000000000E+00 -0.00000000000E+00 -0.74140461607E+03  0.74140461607E+03  0.00000000000E+00 0. -1.
         23    2    1    2    0    0 -0.34174545593E+03  0.24770665108E+03 -0.37046240876E+03  0.56886079355E+03  0.90618234907E+02 0.  0.
        254    2    1    2    0    0  0.34174545593E+03 -0.24770665108E+03  0.63927629579E+03  0.11827623256E+04  0.90116812798E+03 0.  0.
        -24    2    4    4    0    0  0.57356106961E+03 -0.39268685980E+03  0.37573532824E+03  0.79427217503E+03  0.80721624769E+02 0.  0.
         24    2    4    4    0    0 -0.23181561368E+03  0.14498020873E+03  0.26354096755E+03  0.38849015057E+03  0.81932996091E+02 0.  0.
         13    1    3    3    0    0 -0.31663596733E+02  0.22296052260E+02 -0.47017746082E+01  0.39010306189E+02  0.00000000000E+00 0.  1.
        -13    1    3    3    0    0 -0.31008185920E+03  0.22541059882E+03 -0.36576063415E+03  0.52985048736E+03  0.00000000000E+00 0. -1.
          2    1    6    6  502    0 -0.99036959497E+02  0.60541190873E+02  0.16866397912E+03  0.20474641143E+03  0.00000000000E+00 0. -1.
          1    1    5    5  503    0  0.19298846316E+03 -0.13748640519E+03  0.85687523532E+02  0.25197105035E+03  0.00000000000E+00 0. -1.
         -2    1    5    5    0  503  0.38057260646E+03 -0.25520045462E+03  0.29004780471E+03  0.54230112469E+03  0.00000000000E+00 0.  1.
         -1    1    6    6    0  502 -0.13277865419E+03  0.84439017852E+02  0.94876988423E+02  0.18374373915E+03  0.00000000000E+00 0.  1.
<mgrwt>
<rscale>  0 0.17308734E+04</rscale>
<asrwt>0</asrwt>
<pdfrwt beam="1">  1        1 0.11406225E+00 0.17308734E+04</pdfrwt>
<pdfrwt beam="2">  1       -1 0.15541823E+00 0.17308734E+04</pdfrwt>
<totfact> 0.74979196E+00</totfact>
</mgrwt>
</event>
<event>
12    1  0.1201209E-007  0.2445779E+04  0.7818608E-02  0.8422561E-01
          1   -1    0    0  501    0  0.00000000000E+00  0.00000000000E+00  0.30204713168E+04  0.30204713168E+04  0.00000000000E+00 0. -1.
         -1   -1    0    0    0  501 -0.00000000000E+00 -0.00000000000E+00 -0.49510761674E+03  0.49510761674E+03  0.00000000000E+00 0.  1.
         23    2    1    2    0    0  0.33260852836E+03  0.18602715567E+01  0.25303960573E+04  0.25538204719E+04  0.91994033264E+02 0.  0.
        254    2    1    2    0    0 -0.33260852836E+03 -0.18602715567E+01 -0.50323572570E+01  0.96175846162E+03  0.90239798322E+03 0.  0.
        -24    2    4    4    0    0 -0.36100606902E+03  0.27616638267E+03  0.29220007797E+03  0.54619333927E+03  0.79705868740E+02 0.  0.
         24    2    4    4    0    0  0.28397540661E+02 -0.27802665422E+03 -0.29723243522E+03  0.41556512235E+03  0.79006389536E+02 0.  0.
         11    1    3    3    0    0  0.33214704594E+03 -0.10321516520E+02  0.24085561769E+04  0.24313722568E+04  0.00000000000E+00 0. -1.
        -11    1    3    3    0    0  0.46148241870E+00  0.12181788077E+02  0.12183988045E+03  0.12244821515E+03  0.00000000000E+00 0.  1.
          2    1    6    6  502    0  0.23645352611E+02 -0.16458917166E+03 -0.11989508839E+03  0.20499641545E+03  0.00000000000E+00 0. -1.
          3    1    5    5  503    0 -0.23663898061E+03  0.20010783983E+03  0.15715781131E+03  0.34747623280E+03  0.00000000000E+00 0. -1.
         -4    1    5    5    0  503 -0.12436708841E+03  0.76058542833E+02  0.13504226666E+03  0.19871710647E+03  0.00000000000E+00 0.  1.
         -1    1    6    6    0  502  0.47521880502E+01 -0.11343748257E+03 -0.17733734684E+03  0.21056870690E+03  0.00000000000E+00 0.  1.
<mgrwt>
<rscale>  0 0.24457787E+04</rscale>
<asrwt>0</asrwt>
<pdfrwt beam="1">  1        1 0.46468788E+00 0.24457787E+04</pdfrwt>
<pdfrwt beam="2">  1       -1 0.76170405E-01 0.24457787E+04</pdfrwt>
<totfact> 0.89224342E-01</totfact>
</mgrwt>
</event>
<event>
12    1  0.1201209E-007  0.1633610E+04  0.7818608E-02  0.8800162E-01
          1   -1    0    0  501    0  0.00000000000E+00  0.00000000000E+00  0.20277284199E+04  0.20277284199E+04  0.00000000000E+00 0. -1.
         -1   -1    0    0    0  501 -0.00000000000E+00 -0.00000000000E+00 -0.32902340357E+03  0.32902340357E+03  0.00000000000E+00 0.  1.
         23    2    1    2    0    0 -0.97500097620E+02  0.19128589577E+03 -0.15537844684E+03  0.28265588873E+03  0.98261522158E+02 0.  0.
        254    2    1    2    0    0  0.97500097620E+02 -0.19128589577E+03  0.18540834631E+04  0.20740959347E+04  0.90451749299E+03 0.  0.
        -24    2    4    4    0    0 -0.66483989080E+02  0.20116691528E+03  0.14926249490E+04  0.15098655986E+04  0.82925500793E+02 0.  0.
         24    2    4    4    0    0  0.16398408670E+03 -0.39245281105E+03  0.36145851409E+03  0.56423033612E+03  0.82423450523E+02 0.  0.
         11    1    3    3    0    0 -0.57466001232E+02  0.18643684952E+03 -0.13666901906E+03  0.23820046374E+03  0.00000000000E+00 0.  1.
        -11    1    3    3    0    0 -0.40034096388E+02  0.48490462472E+01 -0.18709427784E+02  0.44455424991E+02  0.00000000000E+00 0. -1.
          2    1    6    6  502    0  0.42987183037E+02 -0.35659477096E+02  0.36736441516E+02  0.66851045971E+02  0.00000000000E+00 0. -1.
          1    1    5    5  503    0 -0.35729019346E+02  0.25877039397E+02  0.45038559772E+03  0.45254101541E+03  0.00000000000E+00 0. -1.
         -2    1    5    5    0  503 -0.30754969734E+02  0.17528987589E+03  0.10422393513E+04  0.10573245832E+04  0.00000000000E+00 0.  1.
         -1    1    6    6    0  502  0.12099690366E+03 -0.35679333395E+03  0.32472207258E+03  0.49737929015E+03  0.00000000000E+00 0.  1.
<mgrwt>
<rscale>  0 0.16336096E+04</rscale>
<asrwt>0</asrwt>
<pdfrwt beam="1">  1        1 0.31195821E+00 0.16336096E+04</pdfrwt>
<pdfrwt beam="2">  1       -1 0.50618986E-01 0.16336096E+04</pdfrwt>
<totfact> 0.10710140E+01</totfact>
</mgrwt>
</event>
<event>
12    1  0.1201209E-007  0.2020559E+04  0.7818608E-02  0.8597069E-01
          1   -1    0    0  501    0  0.00000000000E+00  0.00000000000E+00  0.14827581849E+04  0.14827581849E+04  0.00000000000E+00 0. -1.
         -1   -1    0    0    0  501 -0.00000000000E+00 -0.00000000000E+00 -0.68835535436E+03  0.68835535436E+03  0.00000000000E+00 0.  1.
         23    2    1    2    0    0  0.47398487579E+03  0.61162614043E+03  0.85902408663E+02  0.78388575572E+03  0.91375358146E+02 0.  0.
        254    2    1    2    0    0 -0.47398487579E+03 -0.61162614043E+03  0.70850042192E+03  0.13872277836E+04  0.90756811181E+03 0.  0.
        -24    2    4    4    0    0  0.45353269816E+02 -0.40308332334E+03  0.71032201804E+03  0.82189310953E+03  0.80111357190E+02 0.  0.
         24    2    4    4    0    0 -0.51933814561E+03 -0.20854281709E+03 -0.18215961166E+01  0.56533467406E+03  0.79985995284E+02 0.  0.
         13    1    3    3    0    0  0.30798449446E+02  0.72558961924E+02 -0.10042124422E+02  0.79461888391E+02  0.00000000000E+00 0. -1.
        -13    1    3    3    0    0  0.44318642634E+03  0.53906717850E+03  0.95944533085E+02  0.70442386733E+03  0.00000000000E+00 0.  1.
          4    1    6    6  502    0 -0.49300015681E+03 -0.21542284756E+03  0.52959651920E+00  0.53801155968E+03  0.00000000000E+00 0. -1.
          1    1    5    5  503    0  0.55173935023E+02 -0.31913769234E+03  0.50591726978E+03  0.60070401500E+03  0.00000000000E+00 0. -1.
         -2    1    5    5    0  503 -0.98206652069E+01 -0.83945630997E+02  0.20440474826E+03  0.22118909453E+03  0.00000000000E+00 0.  1.
         -3    1    6    6    0  502 -0.26337988792E+02  0.68800304740E+01 -0.23511926358E+01  0.27323114386E+02  0.00000000000E+00 0.  1.
<mgrwt>
<rscale>  0 0.20205589E+04</rscale>
<asrwt>0</asrwt>
<pdfrwt beam="1">  1        1 0.22811664E+00 0.20205589E+04</pdfrwt>
<pdfrwt beam="2">  1       -1 0.10590082E+00 0.20205589E+04</pdfrwt>
<totfact> 0.51965764E+00</totfact>
</mgrwt>
</event>
<event>
12    1  0.1201209E-007  0.1141705E+04  0.7818608E-02  0.9165470E-01
         -2   -1    0    0    0  501 -0.00000000000E+00  0.00000000000E+00  0.13839703967E+03  0.13839703967E+03  0.00000000000E+00 0.  1.
          2   -1    0    0  501    0  0.00000000000E+00 -0.00000000000E+00 -0.23546212520E+04  0.23546212520E+04  0.00000000000E+00 0. -1.
         23    2    1    2    0    0 -0.22103691768E+03 -0.26582069090E+02 -0.31557226385E+03  0.39685872188E+03  0.91362279128E+02 0.  0.
        254    2    1    2    0    0  0.22103691768E+03  0.26582069090E+02 -0.19006519484E+04  0.20961595698E+04  0.85547833836E+03 0.  0.
        -24    2    4    4    0    0 -0.27657992020E+03  0.17498681829E+03 -0.97784373782E+03  0.10342209974E+04  0.79484948416E+02 0.  0.
         24    2    4    4    0    0  0.49761683788E+03 -0.14840474920E+03 -0.92280821062E+03  0.10619385724E+04  0.80573264505E+02 0.  0.
         11    1    3    3    0    0 -0.22705062071E+03 -0.20722176781E+02 -0.31442067780E+03  0.38838351613E+03  0.00000000000E+00 0. -1.
        -11    1    3    3    0    0  0.60137030334E+01 -0.58598923086E+01 -0.11515860516E+01  0.84752057483E+01  0.00000000000E+00 0.  1.
          2    1    6    6  502    0  0.24379367943E+03 -0.73600555491E+02 -0.53414693603E+03  0.59174770737E+03  0.00000000000E+00 0. -1.
          3    1    5    5  503    0 -0.20750566183E+03  0.12807481046E+03 -0.60817124952E+03  0.65523585487E+03  0.00000000000E+00 0. -1.
         -4    1    5    5    0  503 -0.69074258376E+02  0.46912007830E+02 -0.36967248830E+03  0.37898514253E+03  0.00000000000E+00 0.  1.
         -1    1    6    6    0  502  0.25382315845E+03 -0.74804193712E+02 -0.38866127459E+03  0.47019086500E+03  0.00000000000E+00 0.  1.
<mgrwt>
<rscale>  0 0.11417051E+04</rscale>
<asrwt>0</asrwt>
<pdfrwt beam="1">  1        2 0.36224943E+00 0.11417051E+04</pdfrwt>
<pdfrwt beam="2">  1       -2 0.21291852E-01 0.11417051E+04</pdfrwt>
<totfact> 0.80440477E+01</totfact>
</mgrwt>
</event>
<event>
12    1  0.1201209E-007  0.1604231E+04  0.7818608E-02  0.8817953E-01
         -1   -1    0    0    0  501 -0.00000000000E+00  0.00000000000E+00  0.22671138564E+04  0.22671138564E+04  0.00000000000E+00 0.  1.
          1   -1    0    0  501    0  0.00000000000E+00 -0.00000000000E+00 -0.28379208913E+03  0.28379208913E+03  0.00000000000E+00 0. -1.
         23    2    1    2    0    0  0.43997245485E+03 -0.25414487787E+03  0.35659528635E+03  0.62600819352E+03  0.80998025478E+02 0.  0.
        254    2    1    2    0    0 -0.43997245485E+03  0.25414487787E+03  0.16267264810E+04  0.19248977520E+04  0.89488934066E+03 0.  0.
        -24    2    4    4    0    0  0.45003862534E+01  0.24345841888E+03  0.20368794245E+02  0.25618885036E+03  0.76977815432E+02 0.  0.
         24    2    4    4    0    0 -0.44447284111E+03  0.10686458988E+02  0.16063576867E+04  0.16687089017E+04  0.80833619552E+02 0.  0.
         13    1    3    3    0    0  0.12802232049E+03 -0.91205563127E+02  0.69703570821E+02  0.17194986791E+03  0.00000000000E+00 0.  1.
        -13    1    3    3    0    0  0.31195013437E+03 -0.16293931474E+03  0.28689171552E+03  0.45405832561E+03  0.00000000000E+00 0. -1.
          2    1    6    6  502    0 -0.13792911118E+03 -0.33403388223E+02  0.47810921040E+03  0.49872702265E+03  0.00000000000E+00 0. -1.
          1    1    5    5  503    0  0.33022069520E+02  0.19855106262E+03  0.24824095938E+02  0.20280339563E+03  0.00000000000E+00 0. -1.
         -2    1    5    5    0  503 -0.28521683266E+02  0.44907356266E+02 -0.44553016928E+01  0.53385454726E+02  0.00000000000E+00 0.  1.
         -1    1    6    6    0  502 -0.30654372993E+03  0.44089847211E+02  0.11282484763E+04  0.11699818790E+04  0.00000000000E+00 0.  1.
<mgrwt>
<rscale>  0 0.16042306E+04</rscale>
<asrwt>0</asrwt>
<pdfrwt beam="1">  1        1 0.43660323E-01 0.16042306E+04</pdfrwt>
<pdfrwt beam="2">  1       -1 0.34878674E+00 0.16042306E+04</pdfrwt>
<totfact> 0.14368587E+00</totfact>
</mgrwt>
</event>
<event>
12    1  0.1201209E-007  0.1633303E+04  0.7818608E-02  0.8800346E-01
         -2   -1    0    0    0  501 -0.00000000000E+00  0.00000000000E+00  0.33493467195E+03  0.33493467195E+03  0.00000000000E+00 0.  1.
          2   -1    0    0  501    0  0.00000000000E+00 -0.00000000000E+00 -0.19911941575E+04  0.19911941575E+04  0.00000000000E+00 0. -1.
         23    2    1    2    0    0  0.37749520474E+03 -0.12542248098E+03 -0.11444634091E+04  0.12151813888E+04  0.92929461150E+02 0.  0.
        254    2    1    2    0    0 -0.37749520474E+03  0.12542248098E+03 -0.51179607652E+03  0.11109474406E+04  0.90223919422E+03 0.  0.
        -24    2    4    4    0    0 -0.30327326599E+03  0.38121194767E+03 -0.63738511829E+03  0.80604150454E+03  0.78395759470E+02 0.  0.
         24    2    4    4    0    0 -0.74221938753E+02 -0.25578946670E+03  0.12558904178E+03  0.30490593610E+03  0.79106731631E+02 0.  0.
         13    1    3    3    0    0  0.15435895374E+03 -0.88592930697E+02 -0.59343204610E+03  0.61954579113E+03  0.00000000000E+00 0.  1.
        -13    1    3    3    0    0  0.22313625100E+03 -0.36829550280E+02 -0.55103136297E+03  0.59563559771E+03  0.00000000000E+00 0. -1.
          4    1    6    6  502    0 -0.68697480187E+02 -0.25730616510E+03  0.13120392609E+03  0.29688428151E+03  0.00000000000E+00 0. -1.
          1    1    5    5  503    0 -0.25568986907E+03  0.35896626262E+03 -0.56316037249E+03  0.71511096481E+03  0.00000000000E+00 0. -1.
         -2    1    5    5    0  503 -0.47583396922E+02  0.22245685050E+02 -0.74224745803E+02  0.90930539730E+02  0.00000000000E+00 0.  1.
         -3    1    6    6    0  502 -0.55244585660E+01  0.15166984064E+01 -0.56148843167E+01  0.80216545920E+01  0.00000000000E+00 0.  1.
<mgrwt>
<rscale>  0 0.16333034E+04</rscale>
<asrwt>0</asrwt>
<pdfrwt beam="1">  1        2 0.30633756E+00 0.16333034E+04</pdfrwt>
<pdfrwt beam="2">  1       -2 0.51528412E-01 0.16333034E+04</pdfrwt>
<totfact> 0.22998110E+01</totfact>
</mgrwt>
</event>
<event>
12    1  0.1201209E-007  0.3860035E+04  0.7818608E-02  0.8033393E-01
          3   -1    0    0  501    0  0.00000000000E+00  0.00000000000E+00  0.25708421746E+04  0.25708421746E+04  0.00000000000E+00 0.  1.
         -3   -1    0    0    0  501 -0.00000000000E+00 -0.00000000000E+00 -0.14489291183E+04  0.14489291183E+04  0.00000000000E+00 0. -1.
         23    2    1    2    0    0  0.14912836075E+04  0.10468290852E+04  0.70439015118E+03  0.19550878170E+04  0.80155819846E+02 0.  0.
        254    2    1    2    0    0 -0.14912836075E+04 -0.10468290852E+04  0.41752290511E+03  0.20646834758E+04  0.87682070425E+03 0.  0.
        -24    2    4    4    0    0 -0.61600704639E+02 -0.45221134049E+03  0.17545069744E+03  0.49538173850E+03  0.79563662128E+02 0.  0.
         24    2    4    4    0    0 -0.14296829029E+04 -0.59461774468E+03  0.24207220768E+03  0.15693017373E+04  0.80904412310E+02 0.  0.
         13    1    3    3    0    0  0.50135502763E+03  0.39218114890E+03  0.22520486448E+03  0.67518897226E+03  0.00000000000E+00 0.  1.
        -13    1    3    3    0    0  0.98992857989E+03  0.65464793628E+03  0.47918528670E+03  0.12798988447E+04  0.00000000000E+00 0. -1.
          4    1    6    6  502    0 -0.12984205024E+04 -0.53909080159E+03  0.19580223498E+03  0.14194552506E+04  0.00000000000E+00 0. -1.
          3    1    5    5  503    0 -0.99093027612E+01 -0.25950819374E+03  0.66586049297E+02  0.26809774124E+03  0.00000000000E+00 0. -1.
         -4    1    5    5    0  503 -0.51691401878E+02 -0.19270314676E+03  0.10886464814E+03  0.22728399726E+03  0.00000000000E+00 0.  1.
         -3    1    6    6    0  502 -0.13126240053E+03 -0.55526943086E+02  0.46269972699E+02  0.14984648669E+03  0.00000000000E+00 0.  1.
<mgrwt>
<rscale>  0 0.38600353E+04</rscale>
<asrwt>0</asrwt>
<pdfrwt beam="1">  1        3 0.39551418E+00 0.38600353E+04</pdfrwt>
<pdfrwt beam="2">  1       -3 0.22291217E+00 0.38600353E+04</pdfrwt>
<totfact> 0.25563934E-03</totfact>
</mgrwt>
</event>
<event>
12    1  0.1201209E-007  0.3878311E+04  0.7818608E-02  0.8029555E-01
          1   -1    0    0  501    0  0.00000000000E+00  0.00000000000E+00  0.16466563212E+04  0.16466563212E+04  0.00000000000E+00 0. -1.
         -1   -1    0    0    0  501 -0.00000000000E+00 -0.00000000000E+00 -0.22836121339E+04  0.22836121339E+04  0.00000000000E+00 0.  1.
         23    2    1    2    0    0 -0.15180501455E+04  0.14375959096E+03 -0.13275995488E+04  0.20238265855E+04  0.90611378694E+02 0.  0.
        254    2    1    2    0    0  0.15180501455E+04 -0.14375959096E+03  0.69064373605E+03  0.19064418697E+04  0.91235342274E+03 0.  0.
        -24    2    4    4    0    0  0.86042019896E+03  0.87248396439E+01  0.84574959518E+03  0.12091827507E+04  0.80196666661E+02 0.  0.
         24    2    4    4    0    0  0.65762994654E+03 -0.15248443060E+03 -0.15510585913E+03  0.69725911891E+03  0.79898705932E+02 0.  0.
         11    1    3    3    0    0 -0.11246337958E+04  0.14259490475E+03 -0.96327042888E+03  0.14876237430E+04  0.00000000000E+00 0.  1.
        -11    1    3    3    0    0 -0.39341634966E+03  0.11646862086E+01 -0.36432911987E+03  0.53620284246E+03  0.00000000000E+00 0. -1.
          4    1    6    6  502    0  0.60307281704E+03 -0.11749463568E+03 -0.14855331694E+03  0.63211541671E+03  0.00000000000E+00 0. -1.
          3    1    5    5  503    0  0.82910625841E+03  0.46838563746E+01  0.83249047719E+03  0.11749380924E+04  0.00000000000E+00 0. -1.
         -4    1    5    5    0  503  0.31313940547E+02  0.40409832693E+01  0.13259117988E+02  0.34244658389E+02  0.00000000000E+00 0.  1.
         -3    1    6    6    0  502  0.54557129501E+02 -0.34989794919E+02 -0.65525421843E+01  0.65143702205E+02  0.00000000000E+00 0.  1.
<mgrwt>
<rscale>  0 0.38783112E+04</rscale>
<asrwt>0</asrwt>
<pdfrwt beam="1">  1        1 0.25333174E+00 0.38783112E+04</pdfrwt>
<pdfrwt beam="2">  1       -1 0.35132494E+00 0.38783112E+04</pdfrwt>
<totfact> 0.62366088E-02</totfact>
</mgrwt>
</event>
<event>
12    1  0.1201209E-007  0.3028415E+04  0.7818608E-02  0.8235663E-01
          1   -1    0    0  501    0  0.00000000000E+00  0.00000000000E+00  0.18911196471E+04  0.18911196471E+04  0.00000000000E+00 0. -1.
         -1   -1    0    0    0  501 -0.00000000000E+00 -0.00000000000E+00 -0.12124161203E+04  0.12124161203E+04  0.00000000000E+00 0.  1.
         23    2    1    2    0    0  0.28931731797E+03  0.68783791246E+03  0.14950522230E+04  0.16733664031E+04  0.90268849090E+02 0.  0.
        254    2    1    2    0    0 -0.28931731797E+03 -0.68783791246E+03 -0.81634869621E+03  0.14301693644E+04  0.90671589411E+03 0.  0.
        -24    2    4    4    0    0 -0.39773995991E+03  0.63700437133E+02 -0.27973736961E+03  0.49715136149E+03  0.81557702740E+02 0.  0.
         24    2    4    4    0    0  0.10842264194E+03 -0.75153834959E+03 -0.53661132660E+03  0.93301800286E+03  0.77495274958E+02 0.  0.
         11    1    3    3    0    0  0.15597470904E+03  0.45316663449E+03  0.10202716770E+04  0.11272277514E+04  0.00000000000E+00 0. -1.
        -11    1    3    3    0    0  0.13334260893E+03  0.23467127797E+03  0.47478054597E+03  0.54613865171E+03  0.00000000000E+00 0.  1.
          2    1    6    6  502    0  0.42209991963E+02 -0.26587335703E+03 -0.23612858995E+03  0.35808802883E+03  0.00000000000E+00 0. -1.
          3    1    5    5  503    0 -0.36719113716E+03  0.47945527267E+02 -0.22746292845E+03  0.43458887309E+03  0.00000000000E+00 0. -1.
         -4    1    5    5    0  503 -0.30548822746E+02  0.15754909865E+02 -0.52274441161E+02  0.62562488400E+02  0.00000000000E+00 0.  1.
         -1    1    6    6    0  502  0.66212649975E+02 -0.48566499256E+03 -0.30048273664E+03  0.57492997403E+03  0.00000000000E+00 0.  1.
<mgrwt>
<rscale>  0 0.30284147E+04</rscale>
<asrwt>0</asrwt>
<pdfrwt beam="1">  1        1 0.29094148E+00 0.30284147E+04</pdfrwt>
<pdfrwt beam="2">  1       -1 0.18652556E+00 0.30284147E+04</pdfrwt>
<totfact> 0.56076043E-01</totfact>
</mgrwt>
</event>
<event>
12    1  0.1201209E-007  0.2420901E+04  0.7818608E-02  0.8431720E-01
          2   -1    0    0  501    0  0.00000000000E+00  0.00000000000E+00  0.18321634050E+04  0.18321634050E+04  0.00000000000E+00 0. -1.
         -2   -1    0    0    0  501 -0.00000000000E+00 -0.00000000000E+00 -0.79970496544E+03  0.79970496544E+03  0.00000000000E+00 0.  1.
         23    2    1    2    0    0 -0.63637839292E+03 -0.39842683110E+02 -0.44845454852E+03  0.78486597904E+03  0.91313879574E+02 0.  0.
        254    2    1    2    0    0  0.63637839292E+03  0.39842683110E+02  0.14809129881E+04  0.18470023914E+04  0.90097150742E+03 0.  0.
        -24    2    4    4    0    0  0.77056758598E+03 -0.48559413426E+02  0.69930772542E+03  0.10449970187E+04  0.82795248268E+02 0.  0.
         24    2    4    4    0    0 -0.13418919306E+03  0.88402096536E+02  0.78160526265E+03  0.80200537265E+03  0.80524288020E+02 0.  0.
         11    1    3    3    0    0 -0.10752141099E+03  0.78232883307E+01 -0.40169508343E+02  0.11504628226E+03  0.00000000000E+00 0. -1.
        -11    1    3    3    0    0 -0.52885698193E+03 -0.47665971441E+02 -0.40828504018E+03  0.66981969679E+03  0.00000000000E+00 0.  1.
          4    1    6    6  502    0 -0.13001395610E+03  0.49775100815E+02  0.65223720978E+03  0.66692920708E+03  0.00000000000E+00 0. -1.
          3    1    5    5  503    0  0.65404996059E+03 -0.16399089396E+02  0.61212728788E+03  0.89596322338E+03  0.00000000000E+00 0. -1.
         -4    1    5    5    0  503  0.11651762538E+03 -0.32160324030E+02  0.87180437537E+02  0.14903379535E+03  0.00000000000E+00 0.  1.
         -3    1    6    6    0  502 -0.41752369630E+01  0.38626995720E+02  0.12936805287E+03  0.13507616557E+03  0.00000000000E+00 0.  1.
<mgrwt>
<rscale>  0 0.24209008E+04</rscale>
<asrwt>0</asrwt>
<pdfrwt beam="1">  1        2 0.28187129E+00 0.24209008E+04</pdfrwt>
<pdfrwt beam="2">  1       -2 0.12303153E+00 0.24209008E+04</pdfrwt>
<totfact> 0.37094803E+00</totfact>
</mgrwt>
</event>
<event>
12    1  0.1201209E-007  0.2071714E+04  0.7818608E-02  0.8573807E-01
          2   -1    0    0  501    0  0.00000000000E+00  0.00000000000E+00  0.28786383070E+04  0.28786383070E+04  0.00000000000E+00 0.  1.
         -2   -1    0    0    0  501 -0.00000000000E+00 -0.00000000000E+00 -0.37274549430E+03  0.37274549430E+03  0.00000000000E+00 0. -1.
         23    2    1    2    0    0  0.13940211104E+03  0.82263305291E+03  0.10335215896E+04  0.13315024631E+04  0.92595058664E+02 0.  0.
        254    2    1    2    0    0 -0.13940211104E+03 -0.82263305291E+03  0.14723712232E+04  0.19198813382E+04  0.90659210548E+03 0.  0.
        -24    2    4    4    0    0 -0.48869098380E+03 -0.24838453219E+03  0.70394220627E+03  0.89586138209E+03  0.80741765296E+02 0.  0.
         24    2    4    4    0    0  0.34928887276E+03 -0.57424852071E+03  0.76842901691E+03  0.10240199561E+04  0.79810001597E+02 0.  0.
         11    1    3    3    0    0  0.80408782498E+02  0.57098115093E+03  0.64862245278E+03  0.86786873044E+03  0.00000000000E+00 0.  1.
        -11    1    3    3    0    0  0.58993328541E+02  0.25165190198E+03  0.38489913677E+03  0.46363373267E+03  0.00000000000E+00 0. -1.
          4    1    6    6  502    0  0.13496552472E+03 -0.18461693616E+03  0.21310657714E+03  0.31259161729E+03  0.00000000000E+00 0. -1.
          1    1    5    5  503    0 -0.38919288470E+03 -0.20363541891E+03  0.61123951271E+03  0.75269663692E+03  0.00000000000E+00 0. -1.
         -2    1    5    5    0  503 -0.99498099104E+02 -0.44749113284E+02  0.92702693559E+02  0.14316474516E+03  0.00000000000E+00 0.  1.
         -3    1    6    6    0  502  0.21432334804E+03 -0.38963158455E+03  0.55532243977E+03  0.71142833885E+03  0.00000000000E+00 0.  1.
<mgrwt>
<rscale>  0 0.20717137E+04</rscale>
<asrwt>0</asrwt>
<pdfrwt beam="1">  1        2 0.44286742E+00 0.20717137E+04</pdfrwt>
<pdfrwt beam="2">  1       -2 0.57345463E-01 0.20717137E+04</pdfrwt>
<totfact> 0.54574232E+00</totfact>
</mgrwt>
</event>
<event>
12    1  0.1201209E-007  0.2144828E+04  0.7818608E-02  0.8541750E-01
          1   -1    0    0  501    0  0.00000000000E+00  0.00000000000E+00  0.21129603310E+04  0.21129603310E+04  0.00000000000E+00 0. -1.
         -1   -1    0    0    0  501 -0.00000000000E+00 -0.00000000000E+00 -0.54429387709E+03  0.54429387709E+03  0.00000000000E+00 0.  1.
         23    2    1    2    0    0  0.21849023094E+03  0.65040394617E+03 -0.39563572707E+02  0.69165759093E+03  0.77856743991E+02 0.  0.
        254    2    1    2    0    0 -0.21849023094E+03 -0.65040394617E+03  0.16082300266E+04  0.19655966171E+04  0.89799942575E+03 0.  0.
        -24    2    4    4    0    0 -0.44303348125E+03 -0.52513126021E+03  0.15404352542E+04  0.16886329615E+04  0.80616376512E+02 0.  0.
         24    2    4    4    0    0  0.22454325030E+03 -0.12527268597E+03  0.67794772358E+02  0.27696365565E+03  0.77458493967E+02 0.  0.
         13    1    3    3    0    0  0.17608342264E+01  0.29722375324E+02 -0.16004454383E+02  0.33803294102E+02  0.00000000000E+00 0.  1.
        -13    1    3    3    0    0  0.21672939671E+03  0.62068157085E+03 -0.23559118323E+02  0.65785429682E+03  0.00000000000E+00 0. -1.
          4    1    6    6  502    0  0.11324841387E+03 -0.86765017073E+02  0.33255975025E+01  0.14270399795E+03  0.00000000000E+00 0. -1.
          1    1    5    5  503    0 -0.31199229391E+03 -0.41266873441E+03  0.12050004989E+04  0.13113584095E+04  0.00000000000E+00 0. -1.
         -2    1    5    5    0  503 -0.13104118733E+03 -0.11246252579E+03  0.33543475537E+03  0.37727455201E+03  0.00000000000E+00 0.  1.
         -3    1    6    6    0  502  0.11129483643E+03 -0.38507668892E+02  0.64469174855E+02  0.13425965770E+03  0.00000000000E+00 0.  1.
<mgrwt>
<rscale>  0 0.21448276E+04</rscale>
<asrwt>0</asrwt>
<pdfrwt beam="1">  1        1 0.32507081E+00 0.21448276E+04</pdfrwt>
<pdfrwt beam="2">  1       -1 0.83737521E-01 0.21448276E+04</pdfrwt>
<totfact> 0.32349375E+00</totfact>
</mgrwt>
</event>
<event>
12    1  0.1201209E-007  0.1884386E+04  0.7818608E-02  0.8662668E-01
          2   -1    0    0  501    0  0.00000000000E+00  0.00000000000E+00  0.11353257758E+04  0.11353257758E+04  0.00000000000E+00 0. -1.
         -2   -1    0    0    0  501 -0.00000000000E+00 -0.00000000000E+00 -0.78191464543E+03  0.78191464543E+03  0.00000000000E+00 0.  1.
         23    2    1    2    0    0 -0.21912490149E+03  0.33820719402E+03  0.75130760146E+03  0.85771890362E+03  0.93908344027E+02 0.  0.
        254    2    1    2    0    0  0.21912490149E+03 -0.33820719402E+03 -0.39789647110E+03  0.10595215176E+04  0.89546882470E+03 0.  0.
        -24    2    4    4    0    0  0.52365508286E+03 -0.38319645747E+03 -0.33479817691E+03  0.73528522615E+03  0.86604697951E+02 0.  0.
         24    2    4    4    0    0 -0.30453018138E+03  0.44989263454E+02 -0.63098294184E+02  0.32423629144E+03  0.79906900615E+02 0.  0.
         13    1    3    3    0    0 -0.89351721663E+02  0.13659936072E+03  0.40362118132E+03  0.43537704754E+03  0.00000000000E+00 0. -1.
        -13    1    3    3    0    0 -0.12977317982E+03  0.20160783330E+03  0.34768642014E+03  0.42234185608E+03  0.00000000000E+00 0.  1.
          4    1    6    6  502    0 -0.21748885497E+03  0.64505688857E+02 -0.28829591432E+02  0.22867778920E+03  0.00000000000E+00 0. -1.
          3    1    5    5  503    0  0.36442265953E+03 -0.30890932463E+03 -0.22475586996E+03  0.52796216408E+03  0.00000000000E+00 0. -1.
         -4    1    5    5    0  503  0.15923242333E+03 -0.74287132843E+02 -0.11004230695E+03  0.20732306207E+03  0.00000000000E+00 0.  1.
         -3    1    6    6    0  502 -0.87041326408E+02 -0.19516425403E+02 -0.34268702752E+02  0.95558502247E+02  0.00000000000E+00 0.  1.
<mgrwt>
<rscale>  0 0.18843862E+04</rscale>
<asrwt>0</asrwt>
<pdfrwt beam="1">  1        2 0.17466550E+00 0.18843862E+04</pdfrwt>
<pdfrwt beam="2">  1       -2 0.12029456E+00 0.18843862E+04</pdfrwt>
<totfact> 0.10258156E+01</totfact>
</mgrwt>
</event>
<event>
12    1  0.1201209E-007  0.2260083E+04  0.7818608E-02  0.8493828E-01
          2   -1    0    0  501    0  0.00000000000E+00  0.00000000000E+00  0.31432325190E+04  0.31432325190E+04  0.00000000000E+00 0. -1.
         -2   -1    0    0    0  501 -0.00000000000E+00 -0.00000000000E+00 -0.40626762107E+03  0.40626762107E+03  0.00000000000E+00 0.  1.
         23    2    1    2    0    0 -0.15285011510E+03 -0.39208368209E+03  0.24853087275E+04  0.25218382629E+04  0.76262587052E+02 0.  0.
        254    2    1    2    0    0  0.15285011510E+03  0.39208368209E+03  0.25165617047E+03  0.10276618771E+04  0.90314192358E+03 0.  0.
        -24    2    4    4    0    0 -0.37165712490E+03  0.21801881523E+03  0.12089531521E+03  0.45438635403E+03  0.78676929315E+02 0.  0.
         24    2    4    4    0    0  0.52450724000E+03  0.17406486686E+03  0.13076085526E+03  0.57327552310E+03  0.78358161231E+02 0.  0.
         11    1    3    3    0    0 -0.32779610127E+01 -0.34130723630E+02  0.11537792429E+03  0.12036493151E+03  0.00000000000E+00 0.  1.
        -11    1    3    3    0    0 -0.14957215409E+03 -0.35795295846E+03  0.23699308032E+04  0.24014733314E+04  0.00000000000E+00 0. -1.
          4    1    6    6  502    0  0.66604825681E+02  0.25049334953E+01 -0.16731847415E+01  0.66672910863E+02  0.00000000000E+00 0. -1.
          3    1    5    5  503    0 -0.29984459208E+02 -0.71570702686E+00  0.20891289471E+02  0.36551689514E+02  0.00000000000E+00 0. -1.
         -4    1    5    5    0  503 -0.34167266569E+03  0.21873452226E+03  0.10000402574E+03  0.41783466452E+03  0.00000000000E+00 0.  1.
         -3    1    6    6    0  502  0.45790241432E+03  0.17155993336E+03  0.13243404000E+03  0.50660261224E+03  0.00000000000E+00 0.  1.
<mgrwt>
<rscale>  0 0.22600828E+04</rscale>
<asrwt>0</asrwt>
<pdfrwt beam="1">  1        2 0.48357422E+00 0.22600828E+04</pdfrwt>
<pdfrwt beam="2">  1       -2 0.62502713E-01 0.22600828E+04</pdfrwt>
<totfact> 0.30530138E+00</totfact>
</mgrwt>
</event>
<event>
12    1  0.1359309E-007  0.1929428E+04  0.7818608E-02  0.8640346E-01
          2   -1    0    0  501    0  0.00000000000E+00  0.00000000000E+00  0.22698663892E+04  0.22698663892E+04  0.00000000000E+00 0. -1.
         -2   -1    0    0    0  501 -0.00000000000E+00 -0.00000000000E+00 -0.41001207825E+03  0.41001207825E+03  0.00000000000E+00 0.  1.
         23    2    1    2    0    0 -0.36435322034E+03 -0.60728608361E+03  0.39052615889E+03  0.81419137153E+03  0.94059833012E+02 0.  0.
        254    2    1    2    0    0  0.36435322034E+03  0.60728608361E+03  0.14693281520E+04  0.18656870959E+04  0.90571157931E+03 0.  0.
        -24    2    4    4    0    0  0.58819163295E+03  0.51075387692E+03  0.68894996007E+03  0.10434371968E+04  0.85265563205E+02 0.  0.
         24    2    4    4    0    0 -0.22383841261E+03  0.96532206690E+02  0.78037819196E+03  0.82224989911E+03  0.87650854088E+02 0.  0.
         13    1    3    3    0    0 -0.22705486071E+02 -0.10158688435E+03  0.54014340258E+02  0.11727311338E+03  0.00000000000E+00 0. -1.
        -13    1    3    3    0    0 -0.34164773427E+03 -0.50569919926E+03  0.33651181864E+03  0.69691825815E+03  0.00000000000E+00 0.  1.
          2    1    6    6  502    0 -0.35958932260E+01 -0.65496908431E+01  0.35913264419E+01  0.82901461896E+01  0.00000000000E+00 0. -1.
          3    1    5    5  503    0  0.20171796354E+03  0.12340537480E+03  0.20639291090E+03  0.31387426943E+03  0.00000000000E+00 0. -1.
         -4    1    5    5    0  503  0.38647366942E+03  0.38734850212E+03  0.48255704917E+03  0.72956292734E+03  0.00000000000E+00 0.  1.
         -1    1    6    6    0  502 -0.22024251939E+03  0.10308189753E+03  0.77678686551E+03  0.81395975292E+03  0.00000000000E+00 0.  1.
<mgrwt>
<rscale>  0 0.19294275E+04</rscale>
<asrwt>0</asrwt>
<pdfrwt beam="1">  1        2 0.34921021E+00 0.19294275E+04</pdfrwt>
<pdfrwt beam="2">  1       -2 0.63078783E-01 0.19294275E+04</pdfrwt>
<totfact> 0.10260667E+01</totfact>
</mgrwt>
</event>
<event>
12    1  0.1201209E-007  0.2230507E+04  0.7818608E-02  0.8505837E-01
         -2   -1    0    0    0  501 -0.00000000000E+00  0.00000000000E+00  0.13745215067E+04  0.13745215067E+04  0.00000000000E+00 0.  1.
          2   -1    0    0  501    0  0.00000000000E+00 -0.00000000000E+00 -0.90489004380E+03  0.90489004380E+03  0.00000000000E+00 0. -1.
         23    2    1    2    0    0  0.50170117355E+03  0.55732353231E+03  0.76046693515E+03  0.10720836307E+04  0.93486707878E+02 0.  0.
        254    2    1    2    0    0 -0.50170117355E+03 -0.55732353231E+03 -0.29083547229E+03  0.12073279198E+04  0.90041204272E+03 0.  0.
        -24    2    4    4    0    0 -0.38300974745E+03 -0.76238902578E+03 -0.47904474405E+02  0.85837137748E+03  0.81074593616E+02 0.  0.
         24    2    4    4    0    0 -0.11869142610E+03  0.20506549347E+03 -0.24293099789E+03  0.34895654228E+03  0.81336876163E+02 0.  0.
         13    1    3    3    0    0  0.42818390053E+03  0.51868293333E+03  0.67339722543E+03  0.95175483251E+03  0.00000000000E+00 0.  1.
        -13    1    3    3    0    0  0.73517273021E+02  0.38640598986E+02  0.87069709720E+02  0.12032879819E+03  0.00000000000E+00 0. -1.
          4    1    6    6  502    0 -0.13448396404E+02  0.71213092576E+02 -0.35828376764E+02  0.80844520542E+02  0.00000000000E+00 0. -1.
          3    1    5    5  503    0 -0.31935679720E+03 -0.66668791525E+03 -0.65371512359E+02  0.74211520324E+03  0.00000000000E+00 0. -1.
         -4    1    5    5    0  503 -0.63652950248E+02 -0.95701110538E+02  0.17467037954E+02  0.11625617424E+03  0.00000000000E+00 0.  1.
         -3    1    6    6    0  502 -0.10524302969E+03  0.13385240090E+03 -0.20710262113E+03  0.26811202174E+03  0.00000000000E+00 0.  1.
<mgrwt>
<rscale>  0 0.22305074E+04</rscale>
<asrwt>0</asrwt>
<pdfrwt beam="1">  1        2 0.13921385E+00 0.22305074E+04</pdfrwt>
<pdfrwt beam="2">  1       -2 0.21146485E+00 0.22305074E+04</pdfrwt>
<totfact> 0.29718452E+00</totfact>
</mgrwt>
</event>
<event>
12    1  0.1201209E-007  0.3464773E+04  0.7818608E-02  0.8122189E-01
         -2   -1    0    0    0  501 -0.00000000000E+00  0.00000000000E+00  0.14365778624E+04  0.14365778624E+04  0.00000000000E+00 0.  1.
          2   -1    0    0  501    0  0.00000000000E+00 -0.00000000000E+00 -0.20891053637E+04  0.20891053637E+04  0.00000000000E+00 0. -1.
         23    2    1    2    0    0  0.84998184502E+03 -0.12312911417E+04 -0.91933456380E+03  0.17582565840E+04  0.87995241433E+02 0.  0.
        254    2    1    2    0    0 -0.84998184502E+03  0.12312911417E+04  0.26680706247E+03  0.17674266420E+04  0.90225490503E+03 0.  0.
        -24    2    4    4    0    0 -0.60416414401E+03  0.13372274951E+04  0.23400532969E+03  0.14880598711E+04  0.79824802274E+02 0.  0.
         24    2    4    4    0    0 -0.24581770101E+03 -0.10593635333E+03  0.32801732774E+02  0.27936677093E+03  0.72945088515E+02 0.  0.
         13    1    3    3    0    0  0.39861114344E+03 -0.64031101790E+03 -0.43278998614E+03  0.86959543204E+03  0.00000000000E+00 0. -1.
        -13    1    3    3    0    0  0.45137070158E+03 -0.59098012385E+03 -0.48654457766E+03  0.88866115200E+03  0.00000000000E+00 0.  1.
          2    1    6    6  502    0 -0.12092395015E+03 -0.91492309046E+02  0.21106628780E+02  0.15309779265E+03  0.00000000000E+00 0. -1.
          3    1    5    5  503    0 -0.45938897573E+03  0.10040833677E+04  0.21040744389E+03  0.11240520151E+04  0.00000000000E+00 0. -1.
         -4    1    5    5    0  503 -0.14477516828E+03  0.33314412738E+03  0.23597885803E+02  0.36400785592E+03  0.00000000000E+00 0.  1.
         -1    1    6    6    0  502 -0.12489375086E+03 -0.14444044286E+02  0.11695103994E+02  0.12626897828E+03  0.00000000000E+00 0.  1.
<mgrwt>
<rscale>  0 0.34647727E+04</rscale>
<asrwt>0</asrwt>
<pdfrwt beam="1">  1        2 0.32140082E+00 0.34647727E+04</pdfrwt>
<pdfrwt beam="2">  1       -2 0.22101198E+00 0.34647727E+04</pdfrwt>
<totfact> 0.47825031E-01</totfact>
</mgrwt>
</event>
<event>
12    1  0.1201209E-007  0.1744545E+04  0.7818608E-02  0.8736359E-01
         -1   -1    0    0    0  501 -0.00000000000E+00  0.00000000000E+00  0.40137392636E+03  0.40137392636E+03  0.00000000000E+00 0.  1.
          1   -1    0    0  501    0  0.00000000000E+00 -0.00000000000E+00 -0.18956371275E+04  0.18956371275E+04  0.00000000000E+00 0. -1.
         23    2    1    2    0    0  0.39312195821E+03  0.35390813560E+03 -0.10138068357E+04  0.11471214715E+04  0.91035859587E+02 0.  0.
        254    2    1    2    0    0 -0.39312195821E+03 -0.35390813560E+03 -0.48045636548E+03  0.11498895824E+04  0.90089504947E+03 0.  0.
        -24    2    4    4    0    0 -0.52952700321E+03 -0.56326339081E+03 -0.30798398946E+03  0.83580441165E+03  0.77784202891E+02 0.  0.
         24    2    4    4    0    0  0.13640504500E+03  0.20935525521E+03 -0.17247237602E+03  0.31408517077E+03  0.80416508393E+02 0.  0.
         11    1    3    3    0    0  0.34182319472E+03  0.28447278771E+03 -0.77975247428E+03  0.89765348801E+03  0.00000000000E+00 0. -1.
        -11    1    3    3    0    0  0.51298763491E+02  0.69435347885E+02 -0.23405436140E+03  0.24946798344E+03  0.00000000000E+00 0.  1.
          4    1    6    6  502    0  0.11344454945E+03  0.10499886267E+03 -0.11573370173E+03  0.19310286554E+03  0.00000000000E+00 0. -1.
          3    1    5    5  503    0 -0.24953346507E+03 -0.21195140739E+03 -0.11743958852E+03  0.34782525244E+03  0.00000000000E+00 0. -1.
         -4    1    5    5    0  503 -0.27999353814E+03 -0.35131198342E+03 -0.19054440094E+03  0.48797915921E+03  0.00000000000E+00 0.  1.
         -1    1    6    6    0  502  0.22960495549E+02  0.10435639254E+03 -0.56738674297E+02  0.12098230524E+03  0.00000000000E+00 0.  1.
<mgrwt>
<rscale>  0 0.17445450E+04</rscale>
<asrwt>0</asrwt>
<pdfrwt beam="1">  1        1 0.29163648E+00 0.17445450E+04</pdfrwt>
<pdfrwt beam="2">  1       -1 0.61749835E-01 0.17445450E+04</pdfrwt>
<totfact> 0.88471091E+00</totfact>
</mgrwt>
</event>
<event>
12    1  0.1201209E-007  0.2360963E+04  0.7818608E-02  0.8454265E-01
          1   -1    0    0  501    0  0.00000000000E+00  0.00000000000E+00  0.14864014557E+04  0.14864014557E+04  0.00000000000E+00 0. -1.
         -1   -1    0    0    0  501 -0.00000000000E+00 -0.00000000000E+00 -0.93752366916E+03  0.93752366916E+03  0.00000000000E+00 0.  1.
         23    2    1    2    0    0  0.35865356048E+03 -0.82400755744E+03  0.69997681016E+03  0.11428205395E+04  0.91926164084E+02 0.  0.
        254    2    1    2    0    0 -0.35865356048E+03  0.82400755744E+03 -0.15109902363E+03  0.12811045853E+04  0.90043168114E+03 0.  0.
        -24    2    4    4    0    0  0.17813652983E+03  0.22456576958E+03 -0.33946962514E+03  0.45025089198E+03  0.72964588728E+02 0.  0.
         24    2    4    4    0    0 -0.53679009031E+03  0.59944178786E+03  0.18837060151E+03  0.83085369333E+03  0.85792296414E+02 0.  0.
         13    1    3    3    0    0  0.11835278286E+03 -0.33591636079E+03  0.32425284281E+03  0.48165038018E+03  0.00000000000E+00 0. -1.
        -13    1    3    3    0    0  0.24030077762E+03 -0.48809119665E+03  0.37572396735E+03  0.66117015935E+03  0.00000000000E+00 0.  1.
          2    1    6    6  502    0 -0.19981113238E+02  0.54667386642E+02  0.10184267443E+02  0.59088809024E+02  0.00000000000E+00 0. -1.
          1    1    5    5  503    0  0.57363507411E+02  0.12817661605E+03 -0.14481837934E+03  0.20172302764E+03  0.00000000000E+00 0. -1.
         -2    1    5    5    0  503  0.12077302242E+03  0.96389153527E+02 -0.19465124580E+03  0.24852786434E+03  0.00000000000E+00 0.  1.
         -1    1    6    6    0  502 -0.51680897707E+03  0.54477440122E+03  0.17818633406E+03  0.77176488431E+03  0.00000000000E+00 0.  1.
<mgrwt>
<rscale>  0 0.23609630E+04</rscale>
<asrwt>0</asrwt>
<pdfrwt beam="1">  1        1 0.22867715E+00 0.23609630E+04</pdfrwt>
<pdfrwt beam="2">  1       -1 0.14423441E+00 0.23609630E+04</pdfrwt>
<totfact> 0.23293839E+00</totfact>
</mgrwt>
</event>
<event>
12    1  0.1201209E-007  0.1407527E+04  0.7818608E-02  0.8948388E-01
         -2   -1    0    0    0  501 -0.00000000000E+00  0.00000000000E+00  0.56024179445E+03  0.56024179445E+03  0.00000000000E+00 0.  1.
          2   -1    0    0  501    0  0.00000000000E+00 -0.00000000000E+00 -0.88405233386E+03  0.88405233386E+03  0.00000000000E+00 0. -1.
         23    2    1    2    0    0  0.85950402271E+02  0.12800942182E+03 -0.40573039428E+03  0.44321803187E+03  0.89728408009E+02 0.  0.
        254    2    1    2    0    0 -0.85950402271E+02 -0.12800942182E+03  0.81919854871E+02  0.10010760964E+04  0.98573252179E+03 0.  0.
        -24    2    4    4    0    0  0.28622066841E+03  0.11299408797E+03 -0.28017727187E+03  0.42310062689E+03  0.76321044657E+02 0.  0.
         24    2    4    4    0    0 -0.37217107068E+03 -0.24100350979E+03  0.36209712675E+03  0.57797546955E+03  0.79670048480E+02 0.  0.
         13    1    3    3    0    0  0.87288583280E+02  0.10922443847E+03 -0.39969082297E+03  0.42344070269E+03  0.00000000000E+00 0. -1.
        -13    1    3    3    0    0 -0.13381810092E+01  0.18784983350E+02 -0.60395713189E+01  0.19777329182E+02  0.00000000000E+00 0.  1.
          4    1    6    6  502    0 -0.29432094688E+02  0.32104662168E+01  0.21954404543E+02  0.36858529133E+02  0.00000000000E+00 0. -1.
          3    1    5    5  503    0  0.14047300775E+03  0.59783290281E+02 -0.88378853114E+02  0.17640161388E+03  0.00000000000E+00 0. -1.
         -4    1    5    5    0  503  0.14574766066E+03  0.53210797689E+02 -0.19179841876E+03  0.24669901300E+03  0.00000000000E+00 0.  1.
         -3    1    6    6    0  502 -0.34273897599E+03 -0.24421397600E+03  0.34014272220E+03  0.54111694042E+03  0.00000000000E+00 0.  1.
<mgrwt>
<rscale>  0 0.14075270E+04</rscale>
<asrwt>0</asrwt>
<pdfrwt beam="1">  1        2 0.13600805E+00 0.14075270E+04</pdfrwt>
<pdfrwt beam="2">  1       -2 0.86191046E-01 0.14075270E+04</pdfrwt>
<totfact> 0.34147169E+01</totfact>
</mgrwt>
</event>
<event>
12    1  0.1201209E-007  0.3136031E+04  0.7818608E-02  0.8205919E-01
          1   -1    0    0  501    0  0.00000000000E+00  0.00000000000E+00  0.18624749738E+04  0.18624749738E+04  0.00000000000E+00 0. -1.
         -1   -1    0    0    0  501 -0.00000000000E+00 -0.00000000000E+00 -0.13201104600E+04  0.13201104600E+04  0.00000000000E+00 0.  1.
         23    2    1    2    0    0  0.12001273205E+03 -0.14315956325E+04  0.31551449135E+03  0.14736366785E+04  0.90479583555E+02 0.  0.
        254    2    1    2    0    0 -0.12001273205E+03  0.14315956325E+04  0.22685002239E+03  0.17089487554E+04  0.89731588914E+03 0.  0.
        -24    2    4    4    0    0 -0.25982235208E+03  0.10223633772E+04  0.52163427132E+03  0.11794281832E+04  0.78828906885E+02 0.  0.
         24    2    4    4    0    0  0.13980962002E+03  0.40923225529E+03 -0.29478424893E+03  0.52952057217E+03  0.80476793614E+02 0.  0.
         11    1    3    3    0    0  0.92566790679E+02 -0.95651099869E+03  0.16909131579E+03  0.97574267839E+03  0.00000000000E+00 0. -1.
        -11    1    3    3    0    0  0.27445941375E+02 -0.47508463381E+03  0.14642317555E+03  0.49789400008E+03  0.00000000000E+00 0.  1.
          2    1    6    6  502    0  0.65548606098E+02  0.93359429378E+02 -0.59086000574E+02  0.12846695404E+03  0.00000000000E+00 0. -1.
          1    1    5    5  503    0 -0.18903814568E+03  0.61725315202E+03  0.29348050162E+03  0.70913163731E+03  0.00000000000E+00 0. -1.
         -2    1    5    5    0  503 -0.70784206402E+02  0.40511022519E+03  0.22815376971E+03  0.47029654587E+03  0.00000000000E+00 0.  1.
         -1    1    6    6    0  502  0.74261013925E+02  0.31587282592E+03 -0.23569824836E+03  0.40105361814E+03  0.00000000000E+00 0.  1.
<mgrwt>
<rscale>  0 0.31360311E+04</rscale>
<asrwt>0</asrwt>
<pdfrwt beam="1">  1        1 0.28653461E+00 0.31360311E+04</pdfrwt>
<pdfrwt beam="2">  1       -1 0.20309392E+00 0.31360311E+04</pdfrwt>
<totfact> 0.44540539E-01</totfact>
</mgrwt>
</event>
<event>
12    1  0.1201209E-007  0.2488102E+04  0.7818608E-02  0.8407237E-01
          3   -1    0    0  501    0  0.00000000000E+00  0.00000000000E+00  0.12951714500E+04  0.12951714500E+04  0.00000000000E+00 0. -1.
         -3   -1    0    0    0  501 -0.00000000000E+00 -0.00000000000E+00 -0.11949479535E+04  0.11949479535E+04  0.00000000000E+00 0.  1.
         23    2    1    2    0    0 -0.31274936980E+03 -0.37665870854E+03  0.10087748545E+04  0.11249566244E+04  0.90646283401E+02 0.  0.
        254    2    1    2    0    0  0.31274936980E+03  0.37665870854E+03 -0.90855135802E+03  0.13651627791E+04  0.89359940258E+03 0.  0.
        -24    2    4    4    0    0  0.43816400073E+03  0.57991617768E+03 -0.82058423464E+03  0.10989802531E+04  0.78157827331E+02 0.  0.
         24    2    4    4    0    0 -0.12541463093E+03 -0.20325746914E+03 -0.87967123389E+02  0.26618252598E+03  0.77926208217E+02 0.  0.
         13    1    3    3    0    0 -0.26126924373E+03 -0.26435377186E+03  0.80490152088E+03  0.88657260996E+03  0.00000000000E+00 0. -1.
        -13    1    3    3    0    0 -0.51480126075E+02 -0.11230493668E+03  0.20387333363E+03  0.23838401445E+03  0.00000000000E+00 0.  1.
          2    1    6    6  502    0  0.75685643444E+01 -0.17317407293E+02 -0.20392661197E+02  0.27803532011E+02  0.00000000000E+00 0. -1.
          1    1    5    5  503    0  0.41995954791E+02  0.55262370995E+02 -0.47252444629E+02  0.83966561143E+02  0.00000000000E+00 0. -1.
         -2    1    5    5    0  503  0.39616804594E+03  0.52465380669E+03 -0.77333179001E+03  0.10150136920E+04  0.00000000000E+00 0.  1.
         -1    1    6    6    0  502 -0.13298319528E+03 -0.18594006185E+03 -0.67574462193E+02  0.23837899397E+03  0.00000000000E+00 0.  1.
<mgrwt>
<rscale>  0 0.24881017E+04</rscale>
<asrwt>0</asrwt>
<pdfrwt beam="1">  1        3 0.19925715E+00 0.24881017E+04</pdfrwt>
<pdfrwt beam="2">  1       -3 0.18383815E+00 0.24881017E+04</pdfrwt>
<totfact> 0.64507541E-02</totfact>
</mgrwt>
</event>
<event>
12    1  0.1201209E-007  0.1974050E+04  0.7818608E-02  0.8618850E-01
          1   -1    0    0  501    0  0.00000000000E+00  0.00000000000E+00  0.15230109076E+04  0.15230109076E+04  0.00000000000E+00 0. -1.
         -1   -1    0    0    0  501 -0.00000000000E+00 -0.00000000000E+00 -0.63966630915E+03  0.63966630915E+03  0.00000000000E+00 0.  1.
         23    2    1    2    0    0  0.74509305309E+02 -0.65930394642E+03 -0.97508189224E+02  0.67670122882E+03  0.90462012903E+02 0.  0.
        254    2    1    2    0    0 -0.74509305309E+02  0.65930394642E+03  0.98085278764E+03  0.14859759879E+04  0.89767428128E+03 0.  0.
        -24    2    4    4    0    0  0.24167200658E+03 -0.10162479374E+03  0.34851299663E+03  0.44426277823E+03  0.84706256190E+02 0.  0.
         24    2    4    4    0    0 -0.31618131189E+03  0.76092874015E+03  0.63233979102E+03  0.10417132097E+04  0.79558973888E+02 0.  0.
         13    1    3    3    0    0  0.90149918452E+02 -0.50090730515E+03 -0.93575000535E+02  0.51748566828E+03  0.00000000000E+00 0.  1.
        -13    1    3    3    0    0 -0.15640613142E+02 -0.15839664127E+03 -0.39331886890E+01  0.15921556054E+03  0.00000000000E+00 0. -1.
          2    1    6    6  502    0 -0.77470644855E+02  0.15426473085E+03  0.17155713212E+03  0.24337452122E+03  0.00000000000E+00 0. -1.
          1    1    5    5  503    0  0.15697103106E+03 -0.27080495194E+02  0.16902590915E+03  0.23225635788E+03  0.00000000000E+00 0. -1.
         -2    1    5    5    0  503  0.84700975523E+02 -0.74544298541E+02  0.17948708748E+03  0.21200642035E+03  0.00000000000E+00 0.  1.
         -1    1    6    6    0  502 -0.23871066704E+03  0.60666400931E+03  0.46078265890E+03  0.79833868846E+03  0.00000000000E+00 0.  1.
<mgrwt>
<rscale>  0 0.19740504E+04</rscale>
<asrwt>0</asrwt>
<pdfrwt beam="1">  1        1 0.23430937E+00 0.19740504E+04</pdfrwt>
<pdfrwt beam="2">  1       -1 0.98410201E-01 0.19740504E+04</pdfrwt>
<totfact> 0.57957335E+00</totfact>
</mgrwt>
</event>
<event>
12    1  0.1201209E-007  0.2459575E+04  0.7818608E-02  0.8417530E-01
          2   -1    0    0  501    0  0.00000000000E+00  0.00000000000E+00  0.18045217671E+04  0.18045217671E+04  0.00000000000E+00 0. -1.
         -2   -1    0    0    0  501 -0.00000000000E+00 -0.00000000000E+00 -0.83810407416E+03  0.83810407416E+03  0.00000000000E+00 0.  1.
         23    2    1    2    0    0  0.56159910600E+03  0.81863858186E+03  0.23637034335E+02  0.99816621661E+03  0.10106632980E+03 0.  0.
        254    2    1    2    0    0 -0.56159910600E+03 -0.81863858186E+03  0.94278065856E+03  0.16444596246E+04  0.91096070345E+03 0.  0.
        -24    2    4    4    0    0 -0.64345020803E+03 -0.15178280086E+03  0.39908654224E+03  0.77650190217E+03  0.81356911365E+02 0.  0.
         24    2    4    4    0    0  0.81851102035E+02 -0.66685578100E+03  0.54369411632E+03  0.86795772243E+03  0.79693665050E+02 0.  0.
         13    1    3    3    0    0  0.28450916654E+03  0.35448318633E+03 -0.26263459380E+02  0.45529503021E+03  0.00000000000E+00 0. -1.
        -13    1    3    3    0    0  0.27708993946E+03  0.46415539553E+03  0.49900493714E+02  0.54287118640E+03  0.00000000000E+00 0.  1.
          4    1    6    6  502    0  0.36561705816E+02 -0.17692757896E+03  0.10622062252E+03  0.20957802170E+03  0.00000000000E+00 0. -1.
          3    1    5    5  503    0 -0.18352052090E+01  0.24796316466E+01 -0.25370606725E+01  0.39941492359E+01  0.00000000000E+00 0. -1.
         -4    1    5    5    0  503 -0.64161500282E+03 -0.15426243251E+03  0.40162360291E+03  0.77250775294E+03  0.00000000000E+00 0.  1.
         -3    1    6    6    0  502  0.45289396219E+02 -0.48992820203E+03  0.43747349380E+03  0.65837970073E+03  0.00000000000E+00 0.  1.
<mgrwt>
<rscale>  0 0.24595748E+04</rscale>
<asrwt>0</asrwt>
<pdfrwt beam="1">  1        2 0.27761873E+00 0.24595748E+04</pdfrwt>
<pdfrwt beam="2">  1       -2 0.12893909E+00 0.24595748E+04</pdfrwt>
<totfact> 0.34043612E+00</totfact>
</mgrwt>
</event>
<event>
12    1  0.1201209E-007  0.1196538E+04  0.7818608E-02  0.9115892E-01
          1   -1    0    0  501    0  0.00000000000E+00  0.00000000000E+00  0.67861632617E+03  0.67861632617E+03  0.00000000000E+00 0. -1.
         -1   -1    0    0    0  501 -0.00000000000E+00 -0.00000000000E+00 -0.52743456273E+03  0.52743456273E+03  0.00000000000E+00 0.  1.
         23    2    1    2    0    0  0.61638543491E+02 -0.85808311061E+02  0.26216905804E+03  0.29955541138E+03  0.99188977248E+02 0.  0.
        254    2    1    2    0    0 -0.61638543491E+02  0.85808311061E+02 -0.11098729459E+03  0.90649547752E+03  0.89345033153E+03 0.  0.
        -24    2    4    4    0    0 -0.41128042189E+03  0.24685757949E+03  0.29554263074E+02  0.48883737468E+03  0.89433072364E+02 0.  0.
         24    2    4    4    0    0  0.34964187840E+03 -0.16104926843E+03 -0.14054155767E+03  0.41765810285E+03  0.80622896569E+02 0.  0.
         13    1    3    3    0    0  0.84441458368E+02 -0.60966166759E+02  0.23201291050E+03  0.25431717209E+03  0.00000000000E+00 0. -1.
        -13    1    3    3    0    0 -0.22802914877E+02 -0.24842144302E+02  0.30156147537E+02  0.45238239297E+02  0.00000000000E+00 0.  1.
          4    1    6    6  502    0  0.10416689733E+03 -0.63966646422E+02 -0.82216475726E+02  0.14731606577E+03  0.00000000000E+00 0. -1.
          1    1    5    5  503    0 -0.21454933734E+03  0.15789182107E+03  0.53162189101E+02  0.27163847972E+03  0.00000000000E+00 0. -1.
         -2    1    5    5    0  503 -0.19673108455E+03  0.88965758421E+02 -0.23607926026E+02  0.21719889496E+03  0.00000000000E+00 0.  1.
         -3    1    6    6    0  502  0.24547498107E+03 -0.97082622005E+02 -0.58325081941E+02  0.27034203708E+03  0.00000000000E+00 0.  1.
<mgrwt>
<rscale>  0 0.11965378E+04</rscale>
<asrwt>0</asrwt>
<pdfrwt beam="1">  1        1 0.10440251E+00 0.11965378E+04</pdfrwt>
<pdfrwt beam="2">  1       -1 0.81143779E-01 0.11965378E+04</pdfrwt>
<totfact> 0.42800153E+01</totfact>
</mgrwt>
</event>
<event>
12    1  0.1201209E-007  0.1813280E+04  0.7818608E-02  0.8699269E-01
         -4   -1    0    0    0  501 -0.00000000000E+00  0.00000000000E+00  0.12470166715E+04  0.12470166715E+04  0.00000000000E+00 0.  1.
          4   -1    0    0  501    0  0.00000000000E+00 -0.00000000000E+00 -0.65916972658E+03  0.65916972658E+03  0.00000000000E+00 0. -1.
         23    2    1    2    0    0 -0.26143192962E+03  0.10157828908E+03  0.87281838915E+03  0.92186017077E+03  0.96692457672E+02 0.  0.
        254    2    1    2    0    0  0.26143192962E+03 -0.10157828908E+03 -0.28497144422E+03  0.98432622732E+03  0.89945794517E+03 0.  0.
        -24    2    4    4    0    0 -0.14696114063E+03  0.15372076064E+03 -0.42027180068E+03  0.47807723049E+03  0.81864539071E+02 0.  0.
         24    2    4    4    0    0  0.40839307025E+03 -0.25529904972E+03  0.13530035647E+03  0.50624899683E+03  0.77584506895E+02 0.  0.
         13    1    3    3    0    0 -0.12651984152E+03  0.97182831080E+02  0.41703542692E+03  0.44650903715E+03  0.00000000000E+00 0. -1.
        -13    1    3    3    0    0 -0.13491208811E+03  0.43954579981E+01  0.45578296223E+03  0.47535113361E+03  0.00000000000E+00 0.  1.
          2    1    6    6  502    0  0.82566715963E+02 -0.37687079835E+02  0.55519829726E+02  0.10639562991E+03  0.00000000000E+00 0. -1.
          1    1    5    5  503    0 -0.23731983994E+02  0.25860162408E+02 -0.15451770668E+03  0.15845402090E+03  0.00000000000E+00 0. -1.
         -2    1    5    5    0  503 -0.12322915664E+03  0.12786059823E+03 -0.26575409401E+03  0.31962320959E+03  0.00000000000E+00 0.  1.
         -1    1    6    6    0  502  0.32582635429E+03 -0.21761196988E+03  0.79780526740E+02  0.39985336692E+03  0.00000000000E+00 0.  1.
<mgrwt>
<rscale>  0 0.18132795E+04</rscale>
<asrwt>0</asrwt>
<pdfrwt beam="1">  1        4 0.10141073E+00 0.18132795E+04</pdfrwt>
<pdfrwt beam="2">  1       -4 0.19184872E+00 0.18132795E+04</pdfrwt>
<totfact> 0.22471255E-01</totfact>
</mgrwt>
</event>
<event>
12    1  0.1201209E-007  0.1819059E+04  0.7818608E-02  0.8696229E-01
         -2   -1    0    0    0  501 -0.00000000000E+00  0.00000000000E+00  0.68130279990E+03  0.68130279990E+03  0.00000000000E+00 0.  1.
          2   -1    0    0  501    0  0.00000000000E+00 -0.00000000000E+00 -0.12142086842E+04  0.12142086842E+04  0.00000000000E+00 0. -1.
         23    2    1    2    0    0 -0.58336132257E+02  0.33610404834E+03 -0.81494610530E+03  0.88813173511E+03  0.90949374541E+02 0.  0.
        254    2    1    2    0    0  0.58336132257E+02 -0.33610404834E+03  0.28204022096E+03  0.10073797490E+04  0.90492996242E+03 0.  0.
        -24    2    4    4    0    0  0.16330971717E+03  0.25546301101E+03 -0.48231988400E+02  0.31715136454E+03  0.79544010512E+02 0.  0.
         24    2    4    4    0    0 -0.10497358491E+03 -0.59156705935E+03  0.33027220936E+03  0.69022838449E+03  0.79777510840E+02 0.  0.
         13    1    3    3    0    0 -0.25195865898E+01  0.74477148288E+02 -0.28381199287E+03  0.29343217484E+03  0.00000000000E+00 0.  1.
        -13    1    3    3    0    0 -0.55816545667E+02  0.26162690005E+03 -0.53113411243E+03  0.59469956027E+03  0.00000000000E+00 0. -1.
          2    1    6    6  502    0  0.26820921887E+01 -0.74389615901E+02  0.66301096030E+02  0.99683719369E+02  0.00000000000E+00 0. -1.
          1    1    5    5  503    0  0.77081773264E+02  0.54633682620E+02 -0.70081235791E+01  0.94739394352E+02  0.00000000000E+00 0. -1.
         -2    1    5    5    0  503  0.86227943904E+02  0.20082932839E+03 -0.41223864821E+02  0.22241197019E+03  0.00000000000E+00 0.  1.
         -1    1    6    6    0  502 -0.10765567710E+03 -0.51717744345E+03  0.26397111333E+03  0.59054466512E+03  0.00000000000E+00 0.  1.
<mgrwt>
<rscale>  0 0.18190589E+04</rscale>
<asrwt>0</asrwt>
<pdfrwt beam="1">  1        2 0.18680133E+00 0.18190589E+04</pdfrwt>
<pdfrwt beam="2">  1       -2 0.10481582E+00 0.18190589E+04</pdfrwt>
<totfact> 0.12927052E+01</totfact>
</mgrwt>
</event>
<event>
12    1  0.1201209E-007  0.1270210E+04  0.7818608E-02  0.9053529E-01
         -2   -1    0    0    0  501 -0.00000000000E+00  0.00000000000E+00  0.15785545694E+03  0.15785545694E+03  0.00000000000E+00 0.  1.
          2   -1    0    0  501    0  0.00000000000E+00 -0.00000000000E+00 -0.25552371531E+04  0.25552371531E+04  0.00000000000E+00 0. -1.
         23    2    1    2    0    0 -0.18735409494E+03  0.22456991855E+03 -0.41048278022E+03  0.51232936211E+03  0.91935070687E+02 0.  0.
        254    2    1    2    0    0  0.18735409494E+03 -0.22456991855E+03 -0.19868989160E+04  0.22007632480E+04  0.90003242501E+03 0.  0.
        -24    2    4    4    0    0 -0.26252069932E+03 -0.13886891546E+03 -0.14817239566E+04  0.15133072012E+04  0.79944409733E+02 0.  0.
         24    2    4    4    0    0  0.44987479426E+03 -0.85701003094E+02 -0.50517495943E+03  0.68745604673E+03  0.87533331456E+02 0.  0.
         13    1    3    3    0    0 -0.11560433782E+02  0.23728290889E+01 -0.62430538914E+02  0.63536179742E+02  0.00000000000E+00 0. -1.
        -13    1    3    3    0    0 -0.17579366116E+03  0.22219708946E+03 -0.34805224130E+03  0.44879318237E+03  0.00000000000E+00 0.  1.
          2    1    6    6  502    0  0.25693287520E+03 -0.92480041149E+02 -0.28808810478E+03  0.39694057047E+03  0.00000000000E+00 0. -1.
          3    1    5    5  503    0 -0.21274416197E+03 -0.76896046049E+02 -0.11651308393E+04  0.11868879278E+04  0.00000000000E+00 0. -1.
         -4    1    5    5    0  503 -0.49776537348E+02 -0.61972869410E+02 -0.31659311725E+03  0.32641927349E+03  0.00000000000E+00 0.  1.
         -1    1    6    6    0  502  0.19294191905E+03  0.67790380556E+01 -0.21708685466E+03  0.29051547627E+03  0.00000000000E+00 0.  1.
<mgrwt>
<rscale>  0 0.12702096E+04</rscale>
<asrwt>0</asrwt>
<pdfrwt beam="1">  1        2 0.39311342E+00 0.12702096E+04</pdfrwt>
<pdfrwt beam="2">  1       -2 0.24285454E-01 0.12702096E+04</pdfrwt>
<totfact> 0.48286533E+01</totfact>
</mgrwt>
</event>
<event>
12    1  0.1201209E-007  0.1579809E+04  0.7818608E-02  0.8833049E-01
         -2   -1    0    0    0  501 -0.00000000000E+00  0.00000000000E+00  0.29290668233E+03  0.29290668233E+03  0.00000000000E+00 0.  1.
          2   -1    0    0  501    0  0.00000000000E+00 -0.00000000000E+00 -0.21301981968E+04  0.21301981968E+04  0.00000000000E+00 0. -1.
         23    2    1    2    0    0  0.47687943688E+03  0.18662019525E+03 -0.40418312991E+03  0.65902900151E+03  0.93349492400E+02 0.  0.
        254    2    1    2    0    0 -0.47687943688E+03 -0.18662019525E+03 -0.14331083846E+04  0.17640758776E+04  0.89214514823E+03 0.  0.
        -24    2    4    4    0    0 -0.41093037498E+03  0.31046019493E+03 -0.72137575567E+03  0.88984691537E+03  0.78709886376E+02 0.  0.
         24    2    4    4    0    0 -0.65949061901E+02 -0.49708039018E+03 -0.71173262889E+03  0.87422896225E+03  0.79213321745E+02 0.  0.
         13    1    3    3    0    0  0.30959997809E+03  0.72781337208E+02 -0.25479390606E+03  0.40751589422E+03  0.00000000000E+00 0.  1.
        -13    1    3    3    0    0  0.16727945879E+03  0.11383885805E+03 -0.14938922385E+03  0.25151310728E+03  0.00000000000E+00 0. -1.
          4    1    6    6  502    0 -0.38428014355E+02 -0.43027644838E+03 -0.57063563290E+03  0.71570913076E+03  0.00000000000E+00 0. -1.
          3    1    5    5  503    0 -0.36537611508E+03  0.26745735565E+03 -0.58498289776E+03  0.73975545502E+03  0.00000000000E+00 0. -1.
         -4    1    5    5    0  503 -0.45554259896E+02  0.43002839277E+02 -0.13639285791E+03  0.15009146035E+03  0.00000000000E+00 0.  1.
         -3    1    6    6    0  502 -0.27521047546E+02 -0.66803941803E+02 -0.14109699600E+03  0.15851983150E+03  0.00000000000E+00 0.  1.
<mgrwt>
<rscale>  0 0.15798092E+04</rscale>
<asrwt>0</asrwt>
<pdfrwt beam="1">  1        2 0.32772280E+00 0.15798092E+04</pdfrwt>
<pdfrwt beam="2">  1       -2 0.45062566E-01 0.15798092E+04</pdfrwt>
<totfact> 0.25363795E+01</totfact>
</mgrwt>
</event>
<event>
12    1  0.1201209E-007  0.1097620E+04  0.7818608E-02  0.9207515E-01
         -2   -1    0    0    0  501 -0.00000000000E+00  0.00000000000E+00  0.89157191516E+02  0.89157191516E+02  0.00000000000E+00 0.  1.
          2   -1    0    0  501    0  0.00000000000E+00 -0.00000000000E+00 -0.33782155889E+04  0.33782155889E+04  0.00000000000E+00 0. -1.
         23    2    1    2    0    0 -0.15723515219E+03  0.14033401591E+01 -0.41109475807E+03  0.44969445382E+03  0.92202707322E+02 0.  0.
        254    2    1    2    0    0  0.15723515219E+03 -0.14033401591E+01 -0.28779636393E+04  0.30176783266E+04  0.89385844021E+03 0.  0.
        -24    2    4    4    0    0 -0.29154518749E+03 -0.11594991495E+03 -0.19587166886E+04  0.19852671517E+04  0.79193548924E+02 0.  0.
         24    2    4    4    0    0  0.44878033969E+03  0.11454657479E+03 -0.91924695069E+03  0.10324111749E+04  0.79581195090E+02 0.  0.
         13    1    3    3    0    0 -0.21190387282E+02  0.35159888297E+02 -0.11473322028E+03  0.12185631742E+03  0.00000000000E+00 0. -1.
        -13    1    3    3    0    0 -0.13604476491E+03 -0.33756548138E+02 -0.29636153779E+03  0.32783813640E+03  0.00000000000E+00 0.  1.
          2    1    6    6  502    0  0.36802728719E+03  0.61611220769E+02 -0.74359176422E+03  0.83196678928E+03  0.00000000000E+00 0. -1.
          1    1    5    5  503    0 -0.20893378905E+03 -0.10915948838E+03 -0.15876518071E+04  0.16050568160E+04  0.00000000000E+00 0. -1.
         -2    1    5    5    0  503 -0.82611398441E+02 -0.67904265718E+01 -0.37106488154E+03  0.38021033568E+03  0.00000000000E+00 0.  1.
         -1    1    6    6    0  502  0.80753052497E+02  0.52935354025E+02 -0.17565518647E+03  0.20044438562E+03  0.00000000000E+00 0.  1.
<mgrwt>
<rscale>  0 0.10976196E+04</rscale>
<asrwt>0</asrwt>
<pdfrwt beam="1">  1        2 0.51972553E+00 0.10976196E+04</pdfrwt>
<pdfrwt beam="2">  1       -2 0.13716489E-01 0.10976196E+04</pdfrwt>
<totfact> 0.41158062E+01</totfact>
</mgrwt>
</event>
<event>
12    1  0.1201209E-007  0.1728911E+04  0.7818608E-02  0.8745045E-01
          2   -1    0    0  501    0  0.00000000000E+00  0.00000000000E+00  0.41282774024E+04  0.41282774024E+04  0.00000000000E+00 0.  1.
         -2   -1    0    0    0  501 -0.00000000000E+00 -0.00000000000E+00 -0.18101578606E+03  0.18101578606E+03  0.00000000000E+00 0. -1.
         23    2    1    2    0    0 -0.51607991033E+03  0.28997288905E+03  0.19720672929E+04  0.20607555061E+04  0.85094641848E+02 0.  0.
        254    2    1    2    0    0  0.51607991033E+03 -0.28997288905E+03  0.19751943235E+04  0.22485376824E+04  0.89671976857E+03 0.  0.
        -24    2    4    4    0    0 -0.13779943217E+03 -0.22394919947E+03  0.16386545341E+03  0.32000452016E+03  0.80056721469E+02 0.  0.
         24    2    4    4    0    0  0.65387934250E+03 -0.66023689578E+02  0.18113288701E+04  0.19285331622E+04  0.80065973527E+02 0.  0.
         13    1    3    3    0    0 -0.21094957405E+03  0.14888209205E+03  0.74508022834E+03  0.78854939401E+03  0.00000000000E+00 0. -1.
        -13    1    3    3    0    0 -0.30513033628E+03  0.14109079700E+03  0.12269870646E+04  0.12722061121E+04  0.00000000000E+00 0.  1.
          4    1    6    6  502    0  0.58522737126E+03 -0.83655824861E+02  0.16201365371E+04  0.17246251106E+04  0.00000000000E+00 0. -1.
          3    1    5    5  503    0 -0.11627129234E+03 -0.14552844825E+03  0.78601605574E+02  0.20217753355E+03  0.00000000000E+00 0. -1.
         -4    1    5    5    0  503 -0.21528139829E+02 -0.78420751219E+02  0.85263847840E+02  0.11782698661E+03  0.00000000000E+00 0.  1.
         -3    1    6    6    0  502  0.68651971234E+02  0.17632135283E+02  0.19119233296E+03  0.20390805166E+03  0.00000000000E+00 0.  1.
<mgrwt>
<rscale>  0 0.17289111E+04</rscale>
<asrwt>0</asrwt>
<pdfrwt beam="1">  1        2 0.63511953E+00 0.17289111E+04</pdfrwt>
<pdfrwt beam="2">  1       -2 0.27848585E-01 0.17289111E+04</pdfrwt>
<totfact> 0.30508483E+00</totfact>
</mgrwt>
</event>
<event>
12    1  0.1201209E-007  0.1312389E+04  0.7818608E-02  0.9019798E-01
         -3   -1    0    0    0  501 -0.00000000000E+00  0.00000000000E+00  0.49442578632E+03  0.49442578632E+03  0.00000000000E+00 0.  1.
          3   -1    0    0  501    0  0.00000000000E+00 -0.00000000000E+00 -0.87089151222E+03  0.87089151222E+03  0.00000000000E+00 0. -1.
         23    2    1    2    0    0 -0.29269076674E+03  0.98020748424E+02 -0.24431019435E+03  0.40395612960E+03  0.90648395020E+02 0.  0.
        254    2    1    2    0    0  0.29269076674E+03 -0.98020748424E+02 -0.13215553155E+03  0.96136116894E+03  0.90081866132E+03 0.  0.
        -24    2    4    4    0    0  0.26639512478E+02  0.34154113463E+03  0.13498932269E+03  0.37683979741E+03  0.80162992725E+02 0.  0.
         24    2    4    4    0    0  0.26605125427E+03 -0.43956188306E+03 -0.26714485424E+03  0.58452137153E+03  0.79378471275E+02 0.  0.
         13    1    3    3    0    0 -0.19338006647E+03  0.79288136125E+02 -0.11094496189E+03  0.23662468850E+03  0.00000000000E+00 0. -1.
        -13    1    3    3    0    0 -0.99310700272E+02  0.18732612299E+02 -0.13336523246E+03  0.16733144110E+03  0.00000000000E+00 0.  1.
          4    1    6    6  502    0  0.11891238691E+03 -0.12443662779E+03 -0.88852271107E+02  0.19369913830E+03  0.00000000000E+00 0. -1.
          1    1    5    5  503    0  0.80743953157E+01 -0.15214682305E+01  0.41464833810E+01  0.92034803047E+01  0.00000000000E+00 0. -1.
         -2    1    5    5    0  503  0.18565117163E+02  0.34306260286E+03  0.13084283931E+03  0.36763631711E+03  0.00000000000E+00 0.  1.
         -3    1    6    6    0  502  0.14713886736E+03 -0.31512525526E+03 -0.17829258313E+03  0.39082223324E+03  0.00000000000E+00 0.  1.
<mgrwt>
<rscale>  0 0.13123890E+04</rscale>
<asrwt>0</asrwt>
<pdfrwt beam="1">  1        3 0.13398331E+00 0.13123890E+04</pdfrwt>
<pdfrwt beam="2">  1       -3 0.76065506E-01 0.13123890E+04</pdfrwt>
<totfact> 0.18010937E+00</totfact>
</mgrwt>
</event>
<event>
12    1  0.1201209E-007  0.1348466E+04  0.7818608E-02  0.8991990E-01
          2   -1    0    0  501    0  0.00000000000E+00  0.00000000000E+00  0.61524219884E+03  0.61524219884E+03  0.00000000000E+00 0. -1.
         -2   -1    0    0    0  501 -0.00000000000E+00 -0.00000000000E+00 -0.73888015105E+03  0.73888015105E+03  0.00000000000E+00 0.  1.
         23    2    1    2    0    0  0.58200223869E+02  0.26477636168E+03  0.19502156697E+03  0.34625955830E+03  0.91479409545E+02 0.  0.
        254    2    1    2    0    0 -0.58200223869E+02 -0.26477636168E+03 -0.31865951918E+03  0.10078627916E+04  0.91692405888E+03 0.  0.
        -24    2    4    4    0    0 -0.27287506636E+03 -0.50161971887E+03 -0.42083836242E+02  0.57813378130E+03  0.79902913592E+02 0.  0.
         24    2    4    4    0    0  0.21467484249E+03  0.23684335720E+03 -0.27657568293E+03  0.42972901029E+03  0.77413500440E+02 0.  0.
         11    1    3    3    0    0  0.65080400429E+02  0.14421609929E+03  0.71858208971E+02  0.17377383005E+03  0.00000000000E+00 0.  1.
        -11    1    3    3    0    0 -0.68801765606E+01  0.12056026239E+03  0.12316335800E+03  0.17248572825E+03  0.00000000000E+00 0. -1.
          2    1    6    6  502    0  0.16564730281E+03  0.21886962651E+03 -0.24937216528E+03  0.37084959101E+03  0.00000000000E+00 0. -1.
          1    1    5    5  503    0 -0.25688338816E+03 -0.48169240692E+03 -0.56452503999E+02  0.54882013010E+03  0.00000000000E+00 0. -1.
         -2    1    5    5    0  503 -0.15991678200E+02 -0.19927311956E+02  0.14368667757E+02  0.29313651198E+02  0.00000000000E+00 0.  1.
         -1    1    6    6    0  502  0.49027539685E+02  0.17973730685E+02 -0.27203517653E+02  0.58879419282E+02  0.00000000000E+00 0.  1.
<mgrwt>
<rscale>  0 0.13484662E+04</rscale>
<asrwt>0</asrwt>
<pdfrwt beam="1">  1        2 0.94652646E-01 0.13484662E+04</pdfrwt>
<pdfrwt beam="2">  1       -2 0.11367387E+00 0.13484662E+04</pdfrwt>
<totfact> 0.28504186E+01</totfact>
</mgrwt>
</event>
<event>
12    1  0.1201209E-007  0.2194997E+04  0.7818608E-02  0.8520513E-01
         -2   -1    0    0    0  501 -0.00000000000E+00  0.00000000000E+00  0.15926975252E+04  0.15926975252E+04  0.00000000000E+00 0.  1.
          2   -1    0    0  501    0  0.00000000000E+00 -0.00000000000E+00 -0.75626581714E+03  0.75626581714E+03  0.00000000000E+00 0. -1.
         23    2    1    2    0    0 -0.58754129562E+03 -0.58050786032E+03  0.76968178643E+03  0.11324898114E+04  0.89044768000E+02 0.  0.
        254    2    1    2    0    0  0.58754129562E+03  0.58050786032E+03  0.66749921639E+02  0.12164735309E+04  0.89059426754E+03 0.  0.
        -24    2    4    4    0    0  0.70663065044E+03  0.11450727118E+03  0.10459131657E+03  0.72773079930E+03  0.78828811016E+02 0.  0.
         24    2    4    4    0    0 -0.11908935482E+03  0.46600058914E+03 -0.37841394931E+02  0.48874273160E+03  0.78093937051E+02 0.  0.
         13    1    3    3    0    0 -0.37631619889E+03 -0.39333852701E+03  0.45199917702E+03  0.70755376785E+03  0.00000000000E+00 0.  1.
        -13    1    3    3    0    0 -0.21122509673E+03 -0.18716933332E+03  0.31768260941E+03  0.42493604359E+03  0.00000000000E+00 0. -1.
          2    1    6    6  502    0 -0.25455071587E+02  0.53293456340E+02  0.18320312765E+02  0.61836777229E+02  0.00000000000E+00 0. -1.
          1    1    5    5  503    0  0.96507993752E+02 -0.89221085033E+01  0.25699456412E+02  0.10026893307E+03  0.00000000000E+00 0. -1.
         -2    1    5    5    0  503  0.61012265669E+03  0.12342937968E+03  0.78891860157E+02  0.62746186623E+03  0.00000000000E+00 0.  1.
         -1    1    6    6    0  502 -0.93634283235E+02  0.41270713280E+03 -0.56161707696E+02  0.42690595437E+03  0.00000000000E+00 0.  1.
<mgrwt>
<rscale>  0 0.21949968E+04</rscale>
<asrwt>0</asrwt>
<pdfrwt beam="1">  1        2 0.11634859E+00 0.21949968E+04</pdfrwt>
<pdfrwt beam="2">  1       -2 0.24503039E+00 0.21949968E+04</pdfrwt>
<totfact> 0.23385305E+00</totfact>
</mgrwt>
</event>
<event>
12    1  0.1201209E-007  0.2126190E+04  0.7818608E-02  0.8549793E-01
          2   -1    0    0  501    0  0.00000000000E+00  0.00000000000E+00  0.20449970966E+04  0.20449970966E+04  0.00000000000E+00 0. -1.
         -2   -1    0    0    0  501 -0.00000000000E+00 -0.00000000000E+00 -0.55265167605E+03  0.55265167605E+03  0.00000000000E+00 0.  1.
         23    2    1    2    0    0  0.72383534547E+03 -0.72191040884E+01  0.12047443635E+04  0.14082642053E+04  0.88370626475E+02 0.  0.
        254    2    1    2    0    0 -0.72383534547E+03  0.72191040884E+01  0.28760105701E+03  0.11893845674E+04  0.89885013114E+03 0.  0.
        -24    2    4    4    0    0  0.35964461043E+02 -0.31197217632E+03  0.49430116958E+02  0.32783516259E+03  0.80077937764E+02 0.  0.
         24    2    4    4    0    0 -0.75979980652E+03  0.31919128041E+03  0.23817094005E+03  0.86154940476E+03  0.79769422006E+02 0.  0.
         11    1    3    3    0    0  0.52467365495E+03  0.27292826097E+02  0.91223630807E+03  0.10527119380E+04  0.00000000000E+00 0. -1.
        -11    1    3    3    0    0  0.19916169052E+03 -0.34511930186E+02  0.29250805547E+03  0.35555226734E+03  0.00000000000E+00 0.  1.
          4    1    6    6  502    0 -0.74296474489E+02  0.58332206899E+02  0.30369929490E+02  0.99221696722E+02  0.00000000000E+00 0. -1.
          1    1    5    5  503    0  0.20120103370E+02 -0.13279596609E+03 -0.18460312407E+02  0.13557422434E+03  0.00000000000E+00 0. -1.
         -2    1    5    5    0  503  0.15844357673E+02 -0.17917621022E+03  0.67890429365E+02  0.19226093826E+03  0.00000000000E+00 0.  1.
         -3    1    6    6    0  502 -0.68550333203E+03  0.26085907351E+03  0.20780101056E+03  0.76232770804E+03  0.00000000000E+00 0.  1.
<mgrwt>
<rscale>  0 0.21261901E+04</rscale>
<asrwt>0</asrwt>
<pdfrwt beam="1">  1        2 0.31461493E+00 0.21261901E+04</pdfrwt>
<pdfrwt beam="2">  1       -2 0.85023336E-01 0.21261901E+04</pdfrwt>
<totfact> 0.69826022E+00</totfact>
</mgrwt>
</event>
<event>
12    1  0.1201209E-007  0.1943933E+04  0.7818608E-02  0.8633292E-01
         -2   -1    0    0    0  501 -0.00000000000E+00  0.00000000000E+00  0.10841787660E+04  0.10841787660E+04  0.00000000000E+00 0.  1.
          2   -1    0    0  501    0  0.00000000000E+00 -0.00000000000E+00 -0.87136843510E+03  0.87136843510E+03  0.00000000000E+00 0. -1.
         23    2    1    2    0    0 -0.64881825351E+03  0.22083797983E+03  0.39705230015E+03  0.79716533163E+03  0.89930514645E+02 0.  0.
        254    2    1    2    0    0  0.64881825351E+03 -0.22083797983E+03 -0.18424196920E+03  0.11583818695E+04  0.91551565415E+03 0.  0.
        -24    2    4    4    0    0  0.33731995214E+03  0.15911369737E+03 -0.45347917694E+03  0.59255427610E+03  0.79845396896E+02 0.  0.
         24    2    4    4    0    0  0.31149830137E+03 -0.37995167719E+03  0.26923720774E+03  0.56582759342E+03  0.79232081158E+02 0.  0.
         11    1    3    3    0    0 -0.61585010355E+03  0.20922202620E+03  0.35018355536E+03  0.73869731875E+03  0.00000000000E+00 0.  1.
        -11    1    3    3    0    0 -0.32968149962E+02  0.11615953625E+02  0.46868744795E+02  0.58468012872E+02  0.00000000000E+00 0. -1.
          2    1    6    6  502    0  0.11637843017E+03 -0.89463245443E+02  0.95634544900E+02  0.17519582607E+03  0.00000000000E+00 0. -1.
          1    1    5    5  503    0  0.89608347819E+02  0.51126344201E+02 -0.75182305405E+02  0.12765554479E+03  0.00000000000E+00 0. -1.
         -2    1    5    5    0  503  0.24771160432E+03  0.10798735316E+03 -0.37829687153E+03  0.46489873131E+03  0.00000000000E+00 0.  1.
         -1    1    6    6    0  502  0.19511987120E+03 -0.29048843175E+03  0.17360266284E+03  0.39063176735E+03  0.00000000000E+00 0.  1.
<mgrwt>
<rscale>  0 0.19439333E+04</rscale>
<asrwt>0</asrwt>
<pdfrwt beam="1">  1        2 0.13405668E+00 0.19439333E+04</pdfrwt>
<pdfrwt beam="2">  1       -2 0.16679673E+00 0.19439333E+04</pdfrwt>
<totfact> 0.64298513E+00</totfact>
</mgrwt>
</event>
<event>
12    1  0.1201209E-007  0.1985655E+04  0.7818608E-02  0.8613357E-01
         -2   -1    0    0    0  501 -0.00000000000E+00  0.00000000000E+00  0.42002391275E+03  0.42002391275E+03  0.00000000000E+00 0.  1.
          2   -1    0    0  501    0  0.00000000000E+00 -0.00000000000E+00 -0.23467865752E+04  0.23467865752E+04  0.00000000000E+00 0. -1.
         23    2    1    2    0    0  0.38323670054E+03 -0.69257566777E+03 -0.97956939753E+03  0.12621015212E+04  0.82538603526E+02 0.  0.
        254    2    1    2    0    0 -0.38323670054E+03  0.69257566777E+03 -0.94719326496E+03  0.15047089668E+04  0.86048972639E+03 0.  0.
        -24    2    4    4    0    0 -0.44181712424E+03  0.85648374346E+03 -0.85933109104E+03  0.12936888279E+04  0.80087985466E+02 0.  0.
         24    2    4    4    0    0  0.58580423697E+02 -0.16390807568E+03 -0.87862173922E+02  0.21102013883E+03  0.80698290369E+02 0.  0.
         13    1    3    3    0    0  0.27240775496E+03 -0.42567533946E+03 -0.65943162381E+03  0.83081619271E+03  0.00000000000E+00 0.  1.
        -13    1    3    3    0    0  0.11082894558E+03 -0.26690032831E+03 -0.32013777373E+03  0.43128532852E+03  0.00000000000E+00 0. -1.
          2    1    6    6  502    0 -0.91889797849E+00  0.29218318194E+01  0.87440388970E+01  0.92649711768E+01  0.00000000000E+00 0. -1.
          3    1    5    5  503    0 -0.26183971345E+03  0.43810180555E+03 -0.48635797038E+03  0.70500872542E+03  0.00000000000E+00 0. -1.
         -4    1    5    5    0  503 -0.17997741078E+03  0.41838193791E+03 -0.37297312066E+03  0.58868010251E+03  0.00000000000E+00 0.  1.
         -1    1    6    6    0  502  0.59499321676E+02 -0.16682990750E+03 -0.96606212819E+02  0.20175516765E+03  0.00000000000E+00 0.  1.
<mgrwt>
<rscale>  0 0.19856550E+04</rscale>
<asrwt>0</asrwt>
<pdfrwt beam="1">  1        2 0.36104409E+00 0.19856550E+04</pdfrwt>
<pdfrwt beam="2">  1       -2 0.64619064E-01 0.19856550E+04</pdfrwt>
<totfact> 0.87711063E+00</totfact>
</mgrwt>
</event>
<event>
12    1  0.1201209E-007  0.1783325E+04  0.7818608E-02  0.8715218E-01
         -1   -1    0    0    0  501 -0.00000000000E+00  0.00000000000E+00  0.34301192438E+03  0.34301192438E+03  0.00000000000E+00 0.  1.
          1   -1    0    0  501    0  0.00000000000E+00 -0.00000000000E+00 -0.23178841379E+04  0.23178841379E+04  0.00000000000E+00 0. -1.
         23    2    1    2    0    0  0.11827944737E+03  0.24868413305E+03 -0.16423232428E+04  0.16675989154E+04  0.88468543656E+02 0.  0.
        254    2    1    2    0    0 -0.11827944737E+03 -0.24868413305E+03 -0.33254897073E+03  0.99329714685E+03  0.89454825376E+03 0.  0.
        -24    2    4    4    0    0  0.15836209151E+03 -0.51480523359E+03 -0.18525027680E+03  0.57510408264E+03  0.79523960248E+02 0.  0.
         24    2    4    4    0    0 -0.27664153888E+03  0.26612110054E+03 -0.14729869393E+03  0.41819306422E+03  0.76403877804E+02 0.  0.
         11    1    3    3    0    0  0.12227634715E+03  0.17143497548E+03 -0.11271784481E+04  0.11466789916E+04  0.00000000000E+00 0. -1.
        -11    1    3    3    0    0 -0.39968997804E+01  0.77249157576E+02 -0.51514479467E+03  0.52091992382E+03  0.00000000000E+00 0.  1.
          2    1    6    6  502    0 -0.15127239773E+03  0.15031715930E+03 -0.12191712205E+03  0.24564684273E+03  0.00000000000E+00 0. -1.
          1    1    5    5  503    0  0.79142872653E+02 -0.14639682627E+03 -0.39297377089E+02  0.17099680956E+03  0.00000000000E+00 0. -1.
         -2    1    5    5    0  503  0.79219218856E+02 -0.36840840732E+03 -0.14595289971E+03  0.40410727308E+03  0.00000000000E+00 0.  1.
         -1    1    6    6    0  502 -0.12536914115E+03  0.11580394124E+03 -0.25381571877E+02  0.17254622148E+03  0.00000000000E+00 0.  1.
<mgrwt>
<rscale>  0 0.17833249E+04</rscale>
<asrwt>0</asrwt>
<pdfrwt beam="1">  1        1 0.35659756E+00 0.17833249E+04</pdfrwt>
<pdfrwt beam="2">  1       -1 0.52771066E-01 0.17833249E+04</pdfrwt>
<totfact> 0.61926981E+00</totfact>
</mgrwt>
</event>
<event>
12    1  0.1222793E-007  0.2296730E+04  0.7818608E-02  0.8479211E-01
         -2   -1    0    0    0  501 -0.00000000000E+00  0.00000000000E+00  0.67751926949E+03  0.67751926949E+03  0.00000000000E+00 0.  1.
          2   -1    0    0  501    0  0.00000000000E+00 -0.00000000000E+00 -0.19464279709E+04  0.19464279709E+04  0.00000000000E+00 0. -1.
         23    2    1    2    0    0  0.68539219035E+03 -0.41550678436E+03 -0.11617973378E+04  0.14144837772E+04  0.92644261542E+02 0.  0.
        254    2    1    2    0    0 -0.68539219035E+03  0.41550678436E+03 -0.10711136357E+03  0.12094634632E+04  0.89940017915E+03 0.  0.
        -24    2    4    4    0    0 -0.28959038653E+03 -0.21301459187E+03 -0.25568371121E+03  0.44778172725E+03  0.76788715056E+02 0.  0.
         24    2    4    4    0    0 -0.39580180382E+03  0.62852137622E+03  0.14857234764E+03  0.76168173598E+03  0.79919560651E+02 0.  0.
         11    1    3    3    0    0  0.11901758183E+03 -0.90787070400E+02 -0.27750824235E+03  0.31530667850E+03  0.00000000000E+00 0.  1.
        -11    1    3    3    0    0  0.56637460852E+03 -0.32471971396E+03 -0.88428909550E+03  0.10991770987E+04  0.00000000000E+00 0. -1.
          4    1    6    6  502    0 -0.33554590078E+03  0.51176796277E+03  0.15083552044E+03  0.63027680703E+03  0.00000000000E+00 0. -1.
          3    1    5    5  503    0 -0.25652548506E+03 -0.17137539620E+03 -0.24402362280E+03  0.39334765716E+03  0.00000000000E+00 0. -1.
         -4    1    5    5    0  503 -0.33064901466E+02 -0.41639195666E+02 -0.11660088417E+02  0.54434070090E+02  0.00000000000E+00 0.  1.
         -3    1    6    6    0  502 -0.60255903034E+02  0.11675341345E+03 -0.22631727951E+01  0.13140492896E+03  0.00000000000E+00 0.  1.
<mgrwt>
<rscale>  0 0.22967302E+04</rscale>
<asrwt>0</asrwt>
<pdfrwt beam="1">  1        2 0.29945045E+00 0.22967302E+04</pdfrwt>
<pdfrwt beam="2">  1       -2 0.10423373E+00 0.22967302E+04</pdfrwt>
<totfact> 0.48545255E+00</totfact>
</mgrwt>
</event>
<event>
12    1  0.1201209E-007  0.2250948E+04  0.7818608E-02  0.8497516E-01
         -1   -1    0    0    0  501 -0.00000000000E+00  0.00000000000E+00  0.11017053886E+04  0.11017053886E+04  0.00000000000E+00 0.  1.
          1   -1    0    0  501    0  0.00000000000E+00 -0.00000000000E+00 -0.11497558827E+04  0.11497558827E+04  0.00000000000E+00 0. -1.
         23    2    1    2    0    0  0.35624546048E+03  0.82379417717E+03 -0.30852783162E+03  0.95319791065E+03  0.88595482528E+02 0.  0.
        254    2    1    2    0    0 -0.35624546048E+03 -0.82379417717E+03  0.26047733756E+03  0.12982633606E+04  0.90116127060E+03 0.  0.
        -24    2    4    4    0    0  0.16297464091E+03 -0.55486716387E+03  0.37940476446E+03  0.69624854582E+03  0.79848350915E+02 0.  0.
         24    2    4    4    0    0 -0.51922010139E+03 -0.26892701330E+03 -0.11892742690E+03  0.60201481478E+03  0.79792557098E+02 0.  0.
         11    1    3    3    0    0  0.32691576270E+03  0.69572023926E+03 -0.24178958895E+03  0.80583048623E+03  0.00000000000E+00 0. -1.
        -11    1    3    3    0    0  0.29329697783E+02  0.12807393791E+03 -0.66738242670E+02  0.14736742442E+03  0.00000000000E+00 0.  1.
          2    1    6    6  502    0 -0.67842822393E+02 -0.83577976205E+01 -0.22631383370E+02  0.72004727932E+02  0.00000000000E+00 0. -1.
          3    1    5    5  503    0  0.23543454489E+02 -0.19612905380E+02  0.18269270820E+02  0.35675293454E+02  0.00000000000E+00 0. -1.
         -4    1    5    5    0  503  0.13943118642E+03 -0.53525425849E+03  0.36113549364E+03  0.66057325237E+03  0.00000000000E+00 0.  1.
         -1    1    6    6    0  502 -0.45137727900E+03 -0.26056921568E+03 -0.96296043527E+02  0.53001008685E+03  0.00000000000E+00 0.  1.
<mgrwt>
<rscale>  0 0.22509485E+04</rscale>
<asrwt>0</asrwt>
<pdfrwt beam="1">  1        1 0.17688552E+00 0.22509485E+04</pdfrwt>
<pdfrwt beam="2">  1       -1 0.16949314E+00 0.22509485E+04</pdfrwt>
<totfact> 0.26218166E+00</totfact>
</mgrwt>
</event>
<event>
12    1  0.1201209E-007  0.2090396E+04  0.7818608E-02  0.8565486E-01
         -2   -1    0    0    0  501 -0.00000000000E+00  0.00000000000E+00  0.11909146403E+04  0.11909146403E+04  0.00000000000E+00 0. -1.
          2   -1    0    0  501    0  0.00000000000E+00 -0.00000000000E+00 -0.91731047127E+03  0.91731047127E+03  0.00000000000E+00 0.  1.
         23    2    1    2    0    0 -0.24020081253E+02 -0.43141577314E+03 -0.62640141565E+03  0.76640425878E+03  0.91105547227E+02 0.  0.
        254    2    1    2    0    0  0.24020081253E+02  0.43141577314E+03  0.90000558470E+03  0.13418208528E+04  0.89653589717E+03 0.  0.
        -24    2    4    4    0    0  0.27797257537E+03  0.14730518703E+01  0.76577707905E+03  0.81857824048E+03  0.79905434401E+02 0.  0.
         24    2    4    4    0    0 -0.25395249412E+03  0.42994272127E+03  0.13422850565E+03  0.52324261232E+03  0.80143164279E+02 0.  0.
         13    1    3    3    0    0  0.21350027583E+02 -0.14973429711E+03 -0.27411351626E+03  0.31307252068E+03  0.00000000000E+00 0. -1.
        -13    1    3    3    0    0 -0.45370108836E+02 -0.28168147603E+03 -0.35228789939E+03  0.45333173810E+03  0.00000000000E+00 0.  1.
          2    1    6    6  502    0 -0.13812487105E+03  0.15775747188E+03  0.63743133850E+02  0.21915539476E+03  0.00000000000E+00 0. -1.
          3    1    5    5  503    0  0.28068104073E+03  0.30388719455E+01  0.76561085699E+03  0.81544531742E+03  0.00000000000E+00 0. -1.
         -4    1    5    5    0  503 -0.27084653591E+01 -0.15658200752E+01  0.16622206298E+00  0.31329230574E+01  0.00000000000E+00 0.  1.
         -1    1    6    6    0  502 -0.11582762306E+03  0.27218524939E+03  0.70485371797E+02  0.30408721757E+03  0.00000000000E+00 0.  1.
<mgrwt>
<rscale>  0 0.20903956E+04</rscale>
<asrwt>0</asrwt>
<pdfrwt beam="1">  1        2 0.14112469E+00 0.20903956E+04</pdfrwt>
<pdfrwt beam="2">  1       -2 0.18321764E+00 0.20903956E+04</pdfrwt>
<totfact> 0.45347146E+00</totfact>
</mgrwt>
</event>
<event>
12    1  0.1201209E-007  0.2484704E+04  0.7818608E-02  0.8408455E-01
         -1   -1    0    0    0  501 -0.00000000000E+00  0.00000000000E+00  0.14087967691E+04  0.14087967691E+04  0.00000000000E+00 0.  1.
          1   -1    0    0  501    0  0.00000000000E+00 -0.00000000000E+00 -0.10955725106E+04  0.10955725106E+04  0.00000000000E+00 0. -1.
         23    2    1    2    0    0 -0.83455463124E+03 -0.48705400701E+03 -0.33843309437E+03  0.10282561054E+04  0.95239805773E+02 0.  0.
        254    2    1    2    0    0  0.83455463124E+03  0.48705400701E+03  0.65165735292E+03  0.14761131743E+04  0.90584201686E+03 0.  0.
        -24    2    4    4    0    0  0.13855166865E+03  0.21661782872E+03 -0.20402520276E+03  0.33763204296E+03  0.79052289434E+02 0.  0.
         24    2    4    4    0    0  0.69600296259E+03  0.27043617829E+03  0.85568255569E+03  0.11384811314E+04  0.79942478619E+02 0.  0.
         13    1    3    3    0    0 -0.37902663790E+03 -0.20529167761E+03 -0.10309482417E+03  0.44320921460E+03  0.00000000000E+00 0. -1.
        -13    1    3    3    0    0 -0.45552799334E+03 -0.28176232940E+03 -0.23533827020E+03  0.58504689078E+03  0.00000000000E+00 0.  1.
          4    1    6    6  502    0  0.62529852365E+03  0.23253787167E+03  0.79537262199E+03  0.10381183522E+04  0.00000000000E+00 0. -1.
          3    1    5    5  503    0  0.78840385679E+02  0.17215036540E+03 -0.17466096429E+03  0.25760047975E+03  0.00000000000E+00 0. -1.
         -4    1    5    5    0  503  0.59711282971E+02  0.44467463319E+02 -0.29364238471E+02  0.80031563206E+02  0.00000000000E+00 0.  1.
         -3    1    6    6    0  502  0.70704438938E+02  0.37898306615E+02  0.60309933698E+02  0.10036277912E+03  0.00000000000E+00 0.  1.
<mgrwt>
<rscale>  0 0.24847044E+04</rscale>
<asrwt>0</asrwt>
<pdfrwt beam="1">  1        1 0.16854962E+00 0.24847044E+04</pdfrwt>
<pdfrwt beam="2">  1       -1 0.21673797E+00 0.24847044E+04</pdfrwt>
<totfact> 0.13155485E+00</totfact>
</mgrwt>
</event>
<event>
12    1  0.1201209E-007  0.1626021E+04  0.7818608E-02  0.8804720E-01
         -2   -1    0    0    0  501 -0.00000000000E+00  0.00000000000E+00  0.25780847527E+03  0.25780847527E+03  0.00000000000E+00 0. -1.
          2   -1    0    0  501    0  0.00000000000E+00 -0.00000000000E+00 -0.25638646185E+04  0.25638646185E+04  0.00000000000E+00 0.  1.
         23    2    1    2    0    0 -0.31164006069E+02 -0.54439649685E+03 -0.59464988260E+03  0.81212233096E+03  0.92711684925E+02 0.  0.
        254    2    1    2    0    0  0.31164006069E+02  0.54439649685E+03 -0.17114062606E+04  0.20095507628E+04  0.90113491682E+03 0.  0.
        -24    2    4    4    0    0 -0.31226929276E+03  0.61257735810E+03 -0.10659944654E+04  0.12711355896E+04  0.81721208638E+02 0.  0.
         24    2    4    4    0    0  0.34343329883E+03 -0.68180861252E+02 -0.64541179514E+03  0.73841517316E+03  0.78137840169E+02 0.  0.
         13    1    3    3    0    0 -0.28134631975E+02 -0.37743684899E+03 -0.47159871025E+03  0.60469453115E+03  0.00000000000E+00 0. -1.
        -13    1    3    3    0    0 -0.30293740931E+01 -0.16695964785E+03 -0.12305117235E+03  0.20742779981E+03  0.00000000000E+00 0.  1.
          4    1    6    6  502    0  0.61798076072E+01 -0.46058053924E+01 -0.32075749840E+00  0.77140359571E+01  0.00000000000E+00 0. -1.
          1    1    5    5  503    0 -0.24230241195E+03  0.53110102586E+03 -0.92682529428E+03  0.10953464678E+04  0.00000000000E+00 0. -1.
         -2    1    5    5    0  503 -0.69966880811E+02  0.81476332240E+02 -0.13916917117E+03  0.17578912176E+03  0.00000000000E+00 0.  1.
         -3    1    6    6    0  502  0.33725349122E+03 -0.63575055860E+02 -0.64509103764E+03  0.73070113721E+03  0.00000000000E+00 0.  1.
<mgrwt>
<rscale>  0 0.16260209E+04</rscale>
<asrwt>0</asrwt>
<pdfrwt beam="1">  1        2 0.39444069E+00 0.16260209E+04</pdfrwt>
<pdfrwt beam="2">  1       -2 0.39662844E-01 0.16260209E+04</pdfrwt>
<totfact> 0.18432117E+01</totfact>
</mgrwt>
</event>
<event>
12    1  0.1201209E-007  0.1273815E+04  0.7818608E-02  0.9050592E-01
          1   -1    0    0  501    0  0.00000000000E+00  0.00000000000E+00  0.93193165719E+03  0.93193165719E+03  0.00000000000E+00 0. -1.
         -1   -1    0    0    0  501 -0.00000000000E+00 -0.00000000000E+00 -0.43527971774E+03  0.43527971774E+03  0.00000000000E+00 0.  1.
         23    2    1    2    0    0  0.17864589936E+03  0.24824416109E+02 -0.11498399464E+03  0.23300532866E+03  0.92409713593E+02 0.  0.
        254    2    1    2    0    0 -0.17864589936E+03 -0.24824416109E+02  0.61163593409E+03  0.11342060463E+04  0.93797347006E+03 0.  0.
        -24    2    4    4    0    0 -0.39221736650E+03 -0.20008321726E+03  0.70208532465E+03  0.83262450551E+03  0.80448789151E+02 0.  0.
         24    2    4    4    0    0  0.21357146714E+03  0.17525880115E+03 -0.90449390564E+02  0.30158154076E+03  0.80261538229E+02 0.  0.
         11    1    3    3    0    0  0.10037976512E+03  0.28873055537E+02 -0.11401865761E+03  0.15462860299E+03  0.00000000000E+00 0.  1.
        -11    1    3    3    0    0  0.78266134243E+02 -0.40486394277E+01 -0.96533703260E+00  0.78376725666E+02  0.00000000000E+00 0. -1.
          2    1    6    6  502    0  0.20240208719E+03  0.17659573522E+03 -0.68955722957E+02  0.27732210572E+03  0.00000000000E+00 0. -1.
          3    1    5    5  503    0 -0.34376847454E+03 -0.19093373688E+03  0.57780781343E+03  0.69892369056E+03  0.00000000000E+00 0. -1.
         -4    1    5    5    0  503 -0.48448891959E+02 -0.91494803825E+01  0.12427751122E+03  0.13370081495E+03  0.00000000000E+00 0.  1.
         -1    1    6    6    0  502  0.11169379949E+02 -0.13369340649E+01 -0.21493667608E+02  0.24259435038E+02  0.00000000000E+00 0.  1.
<mgrwt>
<rscale>  0 0.12738147E+04</rscale>
<asrwt>0</asrwt>
<pdfrwt beam="1">  1        1 0.14337410E+00 0.12738147E+04</pdfrwt>
<pdfrwt beam="2">  1       -1 0.66966111E-01 0.12738147E+04</pdfrwt>
<totfact> 0.38120526E+01</totfact>
</mgrwt>
</event>
<event>
12    1  0.1201209E-007  0.2110452E+04  0.7818608E-02  0.8556653E-01
         -1   -1    0    0    0  501 -0.00000000000E+00  0.00000000000E+00  0.39772264784E+03  0.39772264784E+03  0.00000000000E+00 0.  1.
          1   -1    0    0  501    0  0.00000000000E+00 -0.00000000000E+00 -0.27996934464E+04  0.27996934464E+04  0.00000000000E+00 0. -1.
         23    2    1    2    0    0  0.11838666130E+03  0.18638684456E+03  0.27445647684E+03  0.36426695365E+03  0.92782533076E+02 0.  0.
        254    2    1    2    0    0 -0.11838666130E+03 -0.18638684456E+03 -0.26764272754E+04  0.28331491406E+04  0.90261599530E+03 0.  0.
        -24    2    4    4    0    0 -0.34993834270E+03 -0.38155577340E+03 -0.22096450762E+04  0.22709318709E+04  0.80984861339E+02 0.  0.
         24    2    4    4    0    0  0.23155168141E+03  0.19516892884E+03 -0.46678219923E+03  0.56221726969E+03  0.80594943195E+02 0.  0.
         11    1    3    3    0    0  0.11204782987E+03  0.15240518865E+03  0.26962583292E+03  0.32936324549E+03  0.00000000000E+00 0.  1.
        -11    1    3    3    0    0  0.63388314234E+01  0.33981655913E+02  0.48306439236E+01  0.34903708157E+02  0.00000000000E+00 0. -1.
          2    1    6    6  502    0  0.27674245240E+02  0.52280167282E+02 -0.13518946795E+03  0.14756446721E+03  0.00000000000E+00 0. -1.
          3    1    5    5  503    0 -0.75887808199E+02 -0.40432659556E+02 -0.32876423657E+03  0.33982301664E+03  0.00000000000E+00 0. -1.
         -4    1    5    5    0  503 -0.27405053450E+03 -0.34112311385E+03 -0.18808808396E+04  0.19311088543E+04  0.00000000000E+00 0.  1.
         -1    1    6    6    0  502  0.20387743617E+03  0.14288876156E+03 -0.33159273129E+03  0.41465280247E+03  0.00000000000E+00 0.  1.
<mgrwt>
<rscale>  0 0.21104516E+04</rscale>
<asrwt>0</asrwt>
<pdfrwt beam="1">  1        1 0.43072206E+00 0.21104516E+04</pdfrwt>
<pdfrwt beam="2">  1       -1 0.61188102E-01 0.21104516E+04</pdfrwt>
<totfact> 0.20770373E+00</totfact>
</mgrwt>
</event>
<event>
12    1  0.1201209E-007  0.1929687E+04  0.7818608E-02  0.8640219E-01
         -2   -1    0    0    0  501 -0.00000000000E+00  0.00000000000E+00  0.72442675366E+03  0.72442675366E+03  0.00000000000E+00 0.  1.
          2   -1    0    0  501    0  0.00000000000E+00 -0.00000000000E+00 -0.12850471545E+04  0.12850471545E+04  0.00000000000E+00 0. -1.
         23    2    1    2    0    0 -0.11672817852E+03 -0.69765805930E+03 -0.52732222427E+03  0.88686059739E+03  0.90004197838E+02 0.  0.
        254    2    1    2    0    0  0.11672817852E+03  0.69765805930E+03 -0.33298176544E+02  0.11226133107E+04  0.87109106385E+03 0.  0.
        -24    2    4    4    0    0  0.31676516759E+02 -0.10802058535E+02 -0.33258456083E+03  0.34498132162E+03  0.85320196786E+02 0.  0.
         24    2    4    4    0    0  0.85051661757E+02  0.70846011783E+03  0.29928638429E+03  0.77763198912E+03  0.77392809420E+02 0.  0.
         13    1    3    3    0    0 -0.11202084210E+03 -0.67958244364E+03 -0.52848498791E+03  0.86814592622E+03  0.00000000000E+00 0. -1.
        -13    1    3    3    0    0 -0.47073364210E+01 -0.18075615663E+02  0.11627636406E+01  0.18714671171E+02  0.00000000000E+00 0.  1.
          2    1    6    6  502    0  0.52734502581E+02  0.63830575038E+03  0.26843474511E+03  0.69445832928E+03  0.00000000000E+00 0. -1.
          3    1    5    5  503    0  0.55931643184E+02 -0.19752223333E+02 -0.28202030095E+03  0.28819082078E+03  0.00000000000E+00 0. -1.
         -4    1    5    5    0  503 -0.24255126424E+02  0.89501647977E+01 -0.50564259884E+02  0.56790500837E+02  0.00000000000E+00 0.  1.
         -1    1    6    6    0  502  0.32317159176E+02  0.70154367458E+02  0.30851639180E+02  0.83173659838E+02  0.00000000000E+00 0.  1.
<mgrwt>
<rscale>  0 0.19296865E+04</rscale>
<asrwt>0</asrwt>
<pdfrwt beam="1">  1        2 0.19769956E+00 0.19296865E+04</pdfrwt>
<pdfrwt beam="2">  1       -2 0.11145027E+00 0.19296865E+04</pdfrwt>
<totfact> 0.10032528E+01</totfact>
</mgrwt>
</event>
<event>
12    1  0.1201209E-007  0.2323620E+04  0.7818608E-02  0.8468666E-01
         -2   -1    0    0    0  501 -0.00000000000E+00  0.00000000000E+00  0.83179171184E+03  0.83179171184E+03  0.00000000000E+00 0.  1.
          2   -1    0    0  501    0  0.00000000000E+00 -0.00000000000E+00 -0.16227653253E+04  0.16227653253E+04  0.00000000000E+00 0. -1.
         23    2    1    2    0    0  0.43386964252E+03  0.12091723865E+03 -0.12878401779E+04  0.13673597994E+04  0.90976106905E+02 0.  0.
        254    2    1    2    0    0 -0.43386964252E+03 -0.12091723865E+03  0.49686656444E+03  0.10871972377E+04  0.85572051832E+03 0.  0.
        -24    2    4    4    0    0 -0.32979790547E+03 -0.33120180421E+02 -0.18430830867E+03  0.38793976942E+03  0.81633983396E+02 0.  0.
         24    2    4    4    0    0 -0.10407173704E+03 -0.87797058232E+02  0.68117487311E+03  0.69925746827E+03  0.80140809108E+02 0.  0.
         11    1    3    3    0    0  0.20670007594E+03  0.18433753779E+02 -0.66039821484E+03  0.69223588959E+03  0.00000000000E+00 0.  1.
        -11    1    3    3    0    0  0.22716956658E+03  0.10248348487E+03 -0.62744196301E+03  0.67512390981E+03  0.00000000000E+00 0. -1.
          4    1    6    6  502    0 -0.36766820270E+02 -0.77355674366E+02  0.45728730909E+03  0.46523905950E+03  0.00000000000E+00 0. -1.
          1    1    5    5  503    0 -0.11706543647E+03  0.27215320598E+02 -0.68113331154E+02  0.13814635707E+03  0.00000000000E+00 0. -1.
         -4    1    5    5    0  503 -0.21273246901E+03 -0.60335501020E+02 -0.11619497752E+03  0.24979341235E+03  0.00000000000E+00 0.  1.
         -3    1    6    6    0  502 -0.67304916774E+02 -0.10441383866E+02  0.22388756402E+03  0.23401840877E+03  0.00000000000E+00 0.  1.
<mgrwt>
<rscale>  0 0.23236202E+04</rscale>
<asrwt>0</asrwt>
<pdfrwt beam="1">  1        2 0.24965620E+00 0.23236202E+04</pdfrwt>
<pdfrwt beam="2">  1       -2 0.12796796E+00 0.23236202E+04</pdfrwt>
<totfact> 0.44296047E+00</totfact>
</mgrwt>
</event>
<event>
12    1  0.1201209E-007  0.1693606E+04  0.7818608E-02  0.8765020E-01
          1   -1    0    0  501    0  0.00000000000E+00  0.00000000000E+00  0.28779879567E+04  0.28779879567E+04  0.00000000000E+00 0. -1.
         -1   -1    0    0    0  501 -0.00000000000E+00 -0.00000000000E+00 -0.24915851041E+03  0.24915851041E+03  0.00000000000E+00 0.  1.
         23    2    1    2    0    0  0.58572633072E+03 -0.70869355817E+02  0.11490905929E+04  0.12947701598E+04  0.89009976559E+02 0.  0.
        254    2    1    2    0    0 -0.58572633072E+03  0.70869355817E+02  0.14797388534E+04  0.18323763073E+04  0.90547117972E+03 0.  0.
        -24    2    4    4    0    0  0.44899713612E+02  0.35957788854E+03  0.39190739767E+03  0.53972103456E+03  0.79969647967E+02 0.  0.
         24    2    4    4    0    0 -0.63062604433E+03 -0.28870853272E+03  0.10878314557E+04  0.12926552728E+04  0.80861322414E+02 0.  0.
         13    1    3    3    0    0  0.26365412340E+03 -0.75027213580E+02  0.55355243504E+03  0.61770776092E+03  0.00000000000E+00 0.  1.
        -13    1    3    3    0    0  0.32207220733E+03  0.41578577634E+01  0.59553815785E+03  0.67706239887E+03  0.00000000000E+00 0. -1.
          2    1    6    6  502    0 -0.45687011135E+03 -0.23684294181E+03  0.84898290661E+03  0.99277230695E+03  0.00000000000E+00 0. -1.
          1    1    5    5  503    0  0.17773257836E+01  0.19244905068E+03  0.15788694205E+03  0.24893389175E+03  0.00000000000E+00 0. -1.
         -2    1    5    5    0  503  0.43122387828E+02  0.16712883786E+03  0.23402045561E+03  0.29078714281E+03  0.00000000000E+00 0.  1.
         -1    1    6    6    0  502 -0.17375593298E+03 -0.51865590916E+02  0.23884854912E+03  0.29988296581E+03  0.00000000000E+00 0.  1.
<mgrwt>
<rscale>  0 0.16936058E+04</rscale>
<asrwt>0</asrwt>
<pdfrwt beam="1">  1        1 0.44276735E+00 0.16936058E+04</pdfrwt>
<pdfrwt beam="2">  1       -1 0.38332081E-01 0.16936058E+04</pdfrwt>
<totfact> 0.46086189E+00</totfact>
</mgrwt>
</event>
<event>
12    1  0.1201209E-007  0.3406479E+04  0.7818608E-02  0.8136318E-01
          2   -1    0    0  501    0  0.00000000000E+00  0.00000000000E+00  0.25653665269E+04  0.25653665269E+04  0.00000000000E+00 0. -1.
         -2   -1    0    0    0  501 -0.00000000000E+00 -0.00000000000E+00 -0.11308424751E+04  0.11308424751E+04  0.00000000000E+00 0.  1.
         23    2    1    2    0    0  0.44257099240E+03 -0.63751612931E+03 -0.83013619633E+03  0.11397632330E+04  0.87396935576E+02 0.  0.
        254    2    1    2    0    0 -0.44257099240E+03  0.63751612931E+03  0.22646602481E+04  0.25564457691E+04  0.89690190788E+03 0.  0.
        -24    2    4    4    0    0 -0.40513950145E+03  0.53504229735E+02  0.32330815628E+03  0.52728515605E+03  0.80627251235E+02 0.  0.
         24    2    4    4    0    0 -0.37431490957E+02  0.58401189957E+03  0.19413520919E+04  0.20291606130E+04  0.78573746131E+02 0.  0.
         11    1    3    3    0    0  0.91521723382E+02 -0.17865602159E+03 -0.17540362244E+03  0.26657199903E+03  0.00000000000E+00 0.  1.
        -11    1    3    3    0    0  0.35104926902E+03 -0.45886010772E+03 -0.65473257389E+03  0.87319123395E+03  0.00000000000E+00 0. -1.
          2    1    6    6  502    0 -0.47105223605E+01  0.44436774793E+02  0.89674303544E+02  0.10019130048E+03  0.00000000000E+00 0. -1.
          1    1    5    5  503    0 -0.56475900772E+01  0.94554329276E+01  0.23223577749E+02  0.25702821810E+02  0.00000000000E+00 0. -1.
         -2    1    5    5    0  503 -0.39949191137E+03  0.44048796807E+02  0.30008457853E+03  0.50158233424E+03  0.00000000000E+00 0.  1.
         -1    1    6    6    0  502 -0.32720968596E+02  0.53957512478E+03  0.18516777883E+04  0.19289693126E+04  0.00000000000E+00 0.  1.
<mgrwt>
<rscale>  0 0.34064794E+04</rscale>
<asrwt>0</asrwt>
<pdfrwt beam="1">  1        2 0.39467177E+00 0.34064794E+04</pdfrwt>
<pdfrwt beam="2">  1       -2 0.17397577E+00 0.34064794E+04</pdfrwt>
<totfact> 0.52736447E-01</totfact>
</mgrwt>
</event>
<event>
12    1  0.1201209E-007  0.2124536E+04  0.7818608E-02  0.8550511E-01
         -2   -1    0    0    0  501 -0.00000000000E+00  0.00000000000E+00  0.69130768121E+03  0.69130768121E+03  0.00000000000E+00 0.  1.
          2   -1    0    0  501    0  0.00000000000E+00 -0.00000000000E+00 -0.16322879884E+04  0.16322879884E+04  0.00000000000E+00 0. -1.
         23    2    1    2    0    0 -0.23730245689E+03  0.51965571527E+03  0.33767517295E+03  0.67030797555E+03  0.94518470171E+02 0.  0.
        254    2    1    2    0    0  0.23730245689E+03 -0.51965571527E+03 -0.12786554801E+04  0.16532876940E+04  0.87866139322E+03 0.  0.
        -24    2    4    4    0    0  0.52907872319E+03 -0.27675716581E+03 -0.49764460398E+03  0.78130063830E+03  0.79130976064E+02 0.  0.
         24    2    4    4    0    0 -0.29177626630E+03 -0.24289854947E+03 -0.78101087614E+03  0.87198705574E+03  0.79059103327E+02 0.  0.
         13    1    3    3    0    0 -0.20863094808E+03  0.44044365281E+03  0.24641891553E+03  0.54611332682E+03  0.00000000000E+00 0.  1.
        -13    1    3    3    0    0 -0.28671508816E+02  0.79212062459E+02  0.91256257412E+02  0.12419464873E+03  0.00000000000E+00 0. -1.
          4    1    6    6  502    0 -0.19666938638E+03 -0.19370235960E+03 -0.49786269131E+03  0.56926857550E+03  0.00000000000E+00 0. -1.
          1    1    5    5  503    0  0.31312469629E+03 -0.12054849292E+03 -0.26599078521E+03  0.42817065802E+03  0.00000000000E+00 0. -1.
         -2    1    5    5    0  503  0.21595402690E+03 -0.15620867289E+03 -0.23165381877E+03  0.35312998028E+03  0.00000000000E+00 0.  1.
         -1    1    6    6    0  502 -0.95106879919E+02 -0.49196189865E+02 -0.28314818483E+03  0.30271848024E+03  0.00000000000E+00 0.  1.
<mgrwt>
<rscale>  0 0.21245359E+04</rscale>
<asrwt>0</asrwt>
<pdfrwt beam="1">  1        2 0.25112123E+00 0.21245359E+04</pdfrwt>
<pdfrwt beam="2">  1       -2 0.10635503E+00 0.21245359E+04</pdfrwt>
<totfact> 0.70132476E+00</totfact>
</mgrwt>
</event>
<event>
12    1  0.1201209E-007  0.2066881E+04  0.7818608E-02  0.8575975E-01
         -1   -1    0    0    0  501 -0.00000000000E+00  0.00000000000E+00  0.10435312635E+04  0.10435312635E+04  0.00000000000E+00 0.  1.
          1   -1    0    0  501    0  0.00000000000E+00 -0.00000000000E+00 -0.10234470330E+04  0.10234470330E+04  0.00000000000E+00 0. -1.
         23    2    1    2    0    0 -0.67583211896E+03 -0.35417508552E+03 -0.32917565721E+03  0.83566100184E+03  0.88225010507E+02 0.  0.
        254    2    1    2    0    0  0.67583211896E+03  0.35417508552E+03  0.34925988770E+03  0.12313172946E+04  0.90109420520E+03 0.  0.
        -24    2    4    4    0    0  0.61113953784E+03  0.56462135952E+03  0.47881332655E+03  0.96331777733E+03  0.80188054625E+02 0.  0.
         24    2    4    4    0    0  0.64692581115E+02 -0.21044627399E+03 -0.12955343885E+03  0.26799951729E+03  0.81036309506E+02 0.  0.
         11    1    3    3    0    0 -0.43754900148E+03 -0.25906419465E+03 -0.18326336560E+03  0.54050795259E+03  0.00000000000E+00 0. -1.
        -11    1    3    3    0    0 -0.23828311748E+03 -0.95110890872E+02 -0.14591229161E+03  0.29515304925E+03  0.00000000000E+00 0.  1.
          2    1    6    6  502    0  0.70952061134E+02 -0.93010199797E+02 -0.62890111022E+02  0.13281663416E+03  0.00000000000E+00 0. -1.
          3    1    5    5  503    0  0.50003591205E+03  0.42414059707E+03  0.35545928377E+03  0.74584345666E+03  0.00000000000E+00 0. -1.
         -4    1    5    5    0  503  0.11110362579E+03  0.14048076245E+03  0.12335404278E+03  0.21747432067E+03  0.00000000000E+00 0.  1.
         -1    1    6    6    0  502 -0.62594800187E+01 -0.11743607420E+03 -0.66663327826E+02  0.13518288312E+03  0.00000000000E+00 0.  1.
<mgrwt>
<rscale>  0 0.20668807E+04</rscale>
<asrwt>0</asrwt>
<pdfrwt beam="1">  1        1 0.15745339E+00 0.20668807E+04</pdfrwt>
<pdfrwt beam="2">  1       -1 0.16054327E+00 0.20668807E+04</pdfrwt>
<totfact> 0.38737028E+00</totfact>
</mgrwt>
</event>
<event>
12    1  0.1201209E-007  0.2786710E+04  0.7818608E-02  0.8307406E-01
         -2   -1    0    0    0  501 -0.00000000000E+00  0.00000000000E+00  0.14811701166E+04  0.14811701166E+04  0.00000000000E+00 0.  1.
          2   -1    0    0  501    0  0.00000000000E+00 -0.00000000000E+00 -0.13107464781E+04  0.13107464781E+04  0.00000000000E+00 0. -1.
         23    2    1    2    0    0 -0.26820148644E+03 -0.68778237826E+03  0.10234100143E+04  0.12651692309E+04  0.91150908391E+02 0.  0.
        254    2    1    2    0    0  0.26820148644E+03  0.68778237826E+03 -0.85298637588E+03  0.15267473638E+04  0.10287833194E+04 0.  0.
        -24    2    4    4    0    0  0.39797817694E+03  0.36552849601E+02  0.41756597120E+02  0.40971763736E+03  0.80013678988E+02 0.  0.
         24    2    4    4    0    0 -0.12977669049E+03  0.65122952866E+03 -0.89474297300E+03  0.11170297265E+04  0.79047667364E+02 0.  0.
         13    1    3    3    0    0 -0.23605859804E+03 -0.61524158632E+03  0.95568132109E+03  0.11608499725E+04  0.00000000000E+00 0.  1.
        -13    1    3    3    0    0 -0.32142888400E+02 -0.72540791940E+02  0.67728693257E+02  0.10431925834E+03  0.00000000000E+00 0. -1.
          4    1    6    6  502    0 -0.16050299786E+02  0.26344690898E+03 -0.37817079706E+03  0.46116703885E+03  0.00000000000E+00 0. -1.
          1    1    5    5  503    0  0.16347303829E+03 -0.29797350790E+01  0.52325087577E+02  0.17166894844E+03  0.00000000000E+00 0. -1.
         -2    1    5    5    0  503  0.23450513865E+03  0.39532584680E+02 -0.10568490457E+02  0.23804868892E+03  0.00000000000E+00 0.  1.
         -3    1    6    6    0  502 -0.11372639071E+03  0.38778261968E+03 -0.51657217595E+03  0.65586268764E+03  0.00000000000E+00 0.  1.
<mgrwt>
<rscale>  0 0.27867103E+04</rscale>
<asrwt>0</asrwt>
<pdfrwt beam="1">  1        2 0.20165331E+00 0.27867103E+04</pdfrwt>
<pdfrwt beam="2">  1       -2 0.22787232E+00 0.27867103E+04</pdfrwt>
<totfact> 0.12514582E+00</totfact>
</mgrwt>
</event>
<event>
12    1  0.1201209E-007  0.1629910E+04  0.7818608E-02  0.8802381E-01
          2   -1    0    0  501    0  0.00000000000E+00  0.00000000000E+00  0.92125328885E+03  0.92125328885E+03  0.00000000000E+00 0. -1.
         -2   -1    0    0    0  501 -0.00000000000E+00 -0.00000000000E+00 -0.72092178808E+03  0.72092178808E+03  0.00000000000E+00 0.  1.
         23    2    1    2    0    0 -0.15302064070E+03  0.44977737460E+03 -0.23551804411E+03  0.53805967669E+03  0.91238497296E+02 0.  0.
        254    2    1    2    0    0  0.15302064070E+03 -0.44977737460E+03  0.43584954488E+03  0.11041154002E+04  0.89632080645E+03 0.  0.
        -24    2    4    4    0    0  0.41217832640E+03 -0.54994589900E+03  0.43090809414E+03  0.81491609576E+03  0.77942241221E+02 0.  0.
         24    2    4    4    0    0 -0.25915768570E+03  0.10016852439E+03  0.49414507393E+01  0.28919930447E+03  0.80096070051E+02 0.  0.
         11    1    3    3    0    0  0.10924467946E+02  0.37122807661E+02 -0.28981276442E+02  0.48346263896E+02  0.00000000000E+00 0. -1.
        -11    1    3    3    0    0 -0.16394510865E+03  0.41265456694E+03 -0.20653676766E+03  0.48971341279E+03  0.00000000000E+00 0.  1.
          2    1    6    6  502    0 -0.34632008185E+02  0.34235678154E+02  0.24243070237E+02  0.54398383285E+02  0.00000000000E+00 0. -1.
          1    1    5    5  503    0  0.36037858800E+03 -0.51361771122E+03  0.40339068846E+03  0.74592219937E+03  0.00000000000E+00 0. -1.
         -2    1    5    5    0  503  0.51799738396E+02 -0.36328187777E+02  0.27517405674E+02  0.68993896397E+02  0.00000000000E+00 0.  1.
         -1    1    6    6    0  502 -0.22452567751E+03  0.65932846239E+02 -0.19301619497E+02  0.23480092119E+03  0.00000000000E+00 0.  1.
<mgrwt>
<rscale>  0 0.16299099E+04</rscale>
<asrwt>0</asrwt>
<pdfrwt beam="1">  1        2 0.14173128E+00 0.16299099E+04</pdfrwt>
<pdfrwt beam="2">  1       -2 0.11091104E+00 0.16299099E+04</pdfrwt>
<totfact> 0.17482255E+01</totfact>
</mgrwt>
</event>
<event>
12    1  0.1201209E-007  0.1691798E+04  0.7818608E-02  0.8766056E-01
          1   -1    0    0  501    0  0.00000000000E+00  0.00000000000E+00  0.14289849442E+04  0.14289849442E+04  0.00000000000E+00 0. -1.
         -1   -1    0    0    0  501 -0.00000000000E+00 -0.00000000000E+00 -0.50073656324E+03  0.50073656324E+03  0.00000000000E+00 0.  1.
         23    2    1    2    0    0 -0.25469759329E+03 -0.77046863271E+02 -0.28138646388E+03  0.39888273707E+03  0.95509228374E+02 0.  0.
        254    2    1    2    0    0  0.25469759329E+03  0.77046863271E+02  0.12096348448E+04  0.15308387703E+04  0.89969094683E+03 0.  0.
        -24    2    4    4    0    0  0.44499442922E+03 -0.19656149552E+03  0.34570139637E+03  0.60147828976E+03  0.74901362071E+02 0.  0.
         24    2    4    4    0    0 -0.19029683593E+03  0.27360835879E+03  0.86393344844E+03  0.92936048057E+03  0.79091590833E+02 0.  0.
         13    1    3    3    0    0 -0.33642121609E+02 -0.21823183796E+02 -0.99704266754E+02  0.10746620169E+03  0.00000000000E+00 0. -1.
        -13    1    3    3    0    0 -0.22105547168E+03 -0.55223679475E+02 -0.18168219713E+03  0.29141653537E+03  0.00000000000E+00 0.  1.
          4    1    6    6  502    0 -0.79755559499E+02  0.16882301626E+03  0.40891540400E+03  0.44952638156E+03  0.00000000000E+00 0. -1.
          1    1    5    5  503    0  0.17817648078E+03 -0.97980368266E+02  0.18428385071E+03  0.27442220847E+03  0.00000000000E+00 0. -1.
         -2    1    5    5    0  503  0.26681794844E+03 -0.98581127258E+02  0.16141754565E+03  0.32705608129E+03  0.00000000000E+00 0.  1.
         -3    1    6    6    0  502 -0.11054127643E+03  0.10478534254E+03  0.45501804444E+03  0.47983409901E+03  0.00000000000E+00 0.  1.
<mgrwt>
<rscale>  0 0.16917979E+04</rscale>
<asrwt>0</asrwt>
<pdfrwt beam="1">  1        1 0.21984384E+00 0.16917979E+04</pdfrwt>
<pdfrwt beam="2">  1       -1 0.77036395E-01 0.16917979E+04</pdfrwt>
<totfact> 0.11798123E+01</totfact>
</mgrwt>
</event>
<event>
12    1  0.1201209E-007  0.1973301E+04  0.7818608E-02  0.8619206E-01
          1   -1    0    0  501    0  0.00000000000E+00  0.00000000000E+00  0.26815495749E+04  0.26815495749E+04  0.00000000000E+00 0. -1.
         -1   -1    0    0    0  501 -0.00000000000E+00 -0.00000000000E+00 -0.36302878114E+03  0.36302878114E+03  0.00000000000E+00 0.  1.
         23    2    1    2    0    0  0.17444893001E+03  0.50998884565E+03  0.17804433757E+04  0.18624657047E+04  0.90988104477E+02 0.  0.
        254    2    1    2    0    0 -0.17444893001E+03 -0.50998884565E+03  0.53807741806E+03  0.11821126514E+04  0.90406966590E+03 0.  0.
        -24    2    4    4    0    0 -0.13902387560E+03 -0.34082457473E+03  0.78561587839E+03  0.87132474011E+03  0.80780354188E+02 0.  0.
         24    2    4    4    0    0 -0.35425054418E+02 -0.16916427091E+03 -0.24753846033E+03  0.31078791125E+03  0.73772294277E+02 0.  0.
         13    1    3    3    0    0  0.13141352985E+02  0.60353078121E+02  0.31923432036E+03  0.32515494843E+03  0.00000000000E+00 0.  1.
        -13    1    3    3    0    0  0.16130757703E+03  0.44963576753E+03  0.14612090553E+04  0.15373107562E+04  0.00000000000E+00 0. -1.
          4    1    6    6  502    0 -0.46159101929E+02 -0.13001675916E+03 -0.22613039683E+03  0.26489616215E+03  0.00000000000E+00 0. -1.
          3    1    5    5  503    0 -0.10700061419E+03 -0.17895190682E+03  0.49519982097E+03  0.53730417743E+03  0.00000000000E+00 0. -1.
         -4    1    5    5    0  503 -0.32023261406E+02 -0.16187266791E+03  0.29041605742E+03  0.33402056268E+03  0.00000000000E+00 0.  1.
         -3    1    6    6    0  502  0.10734047512E+02 -0.39147511752E+02 -0.21408063502E+02  0.45891749098E+02  0.00000000000E+00 0.  1.
<mgrwt>
<rscale>  0 0.19733015E+04</rscale>
<asrwt>0</asrwt>
<pdfrwt beam="1">  1        1 0.41254608E+00 0.19733015E+04</pdfrwt>
<pdfrwt beam="2">  1       -1 0.55850583E-01 0.19733015E+04</pdfrwt>
<totfact> 0.30519461E+00</totfact>
</mgrwt>
</event>
<event>
12    1  0.1201209E-007  0.1325441E+04  0.7818608E-02  0.9009630E-01
         -2   -1    0    0    0  501 -0.00000000000E+00  0.00000000000E+00  0.11919232406E+04  0.11919232406E+04  0.00000000000E+00 0.  1.
          2   -1    0    0  501    0  0.00000000000E+00 -0.00000000000E+00 -0.36847904714E+03  0.36847904714E+03  0.00000000000E+00 0. -1.
         23    2    1    2    0    0 -0.96489294795E+02  0.85383805451E+02 -0.16588588110E+03  0.21682939303E+03  0.53817115210E+02 0.  0.
        254    2    1    2    0    0  0.96489294795E+02 -0.85383805451E+02  0.98933007455E+03  0.13435728947E+04  0.89989640999E+03 0.  0.
        -24    2    4    4    0    0 -0.13518541121E+03  0.29812026045E+03  0.76409623472E+03  0.83531197300E+03  0.82172083035E+02 0.  0.
         24    2    4    4    0    0  0.23167470600E+03 -0.38350406590E+03  0.22523383984E+03  0.50826092170E+03  0.82766804672E+02 0.  0.
         13    1    3    3    0    0 -0.75568889731E+02  0.74727539924E+02 -0.16089533612E+03  0.19282679146E+03  0.00000000000E+00 0. -1.
        -13    1    3    3    0    0 -0.20920405064E+02  0.10656265527E+02 -0.49905449805E+01  0.24002601573E+02  0.00000000000E+00 0.  1.
          4    1    6    6  502    0  0.74127156788E+02 -0.20152406368E+03  0.11375793183E+03  0.24299722359E+03  0.00000000000E+00 0. -1.
          1    1    5    5  503    0 -0.65028021862E+02  0.21045739483E+03  0.56996638180E+03  0.61105043577E+03  0.00000000000E+00 0. -1.
         -2    1    5    5    0  503 -0.70157389344E+02  0.87662865625E+02  0.19412985291E+03  0.22426153723E+03  0.00000000000E+00 0.  1.
         -3    1    6    6    0  502  0.15754754921E+03 -0.18198000222E+03  0.11147590801E+03  0.26526369811E+03  0.00000000000E+00 0.  1.
<mgrwt>
<rscale>  0 0.13254414E+04</rscale>
<asrwt>0</asrwt>
<pdfrwt beam="1">  1        2 0.56689085E-01 0.13254414E+04</pdfrwt>
<pdfrwt beam="2">  1       -2 0.18337280E+00 0.13254414E+04</pdfrwt>
<totfact> 0.14653056E+01</totfact>
</mgrwt>
</event>
<event>
12    1  0.1201209E-007  0.2274419E+04  0.7818608E-02  0.8488076E-01
         -2   -1    0    0    0  501 -0.00000000000E+00  0.00000000000E+00  0.98296247190E+03  0.98296247190E+03  0.00000000000E+00 0.  1.
          2   -1    0    0  501    0  0.00000000000E+00 -0.00000000000E+00 -0.13156611606E+04  0.13156611606E+04  0.00000000000E+00 0. -1.
         23    2    1    2    0    0  0.16419151683E+03  0.70507209564E+03 -0.76719862538E+03  0.10580759289E+04  0.82737090796E+02 0.  0.
        254    2    1    2    0    0 -0.16419151683E+03 -0.70507209564E+03  0.43449993668E+03  0.12405477036E+04  0.90889102526E+03 0.  0.
        -24    2    4    4    0    0 -0.86148876492E+02 -0.88820210408E+03  0.19136057919E+03  0.91639504629E+03  0.82682543328E+02 0.  0.
         24    2    4    4    0    0 -0.78042640337E+02  0.18313000845E+03  0.24313935749E+03  0.32415265736E+03  0.79567231994E+02 0.  0.
         13    1    3    3    0    0  0.14856194242E+03  0.63498259725E+03 -0.65082147885E+03  0.92132629772E+03  0.00000000000E+00 0. -1.
        -13    1    3    3    0    0  0.15629574411E+02  0.70089498390E+02 -0.11637714652E+03  0.13674963113E+03  0.00000000000E+00 0.  1.
          2    1    6    6  502    0 -0.27500669847E+02  0.12171387520E+03  0.98066125637E+02  0.15870576315E+03  0.00000000000E+00 0. -1.
          1    1    5    5  503    0 -0.25548162553E+02 -0.73935733041E+02  0.31748611234E+02  0.84422600916E+02  0.00000000000E+00 0. -1.
         -2    1    5    5    0  503 -0.60600713939E+02 -0.81426637104E+03  0.15961196796E+03  0.83197244537E+03  0.00000000000E+00 0.  1.
         -1    1    6    6    0  502 -0.50541970490E+02  0.61416133244E+02  0.14507323185E+03  0.16544689421E+03  0.00000000000E+00 0.  1.
<mgrwt>
<rscale>  0 0.22744191E+04</rscale>
<asrwt>0</asrwt>
<pdfrwt beam="1">  1        2 0.20240941E+00 0.22744191E+04</pdfrwt>
<pdfrwt beam="2">  1       -2 0.15122500E+00 0.22744191E+04</pdfrwt>
<totfact> 0.43127020E+00</totfact>
</mgrwt>
</event>
<event>
12    1  0.1201209E-007  0.1968146E+04  0.7818608E-02  0.8621660E-01
         -1   -1    0    0    0  501 -0.00000000000E+00  0.00000000000E+00  0.95477966542E+03  0.95477966542E+03  0.00000000000E+00 0.  1.
          1   -1    0    0  501    0  0.00000000000E+00 -0.00000000000E+00 -0.10142655371E+04  0.10142655371E+04  0.00000000000E+00 0. -1.
         23    2    1    2    0    0  0.44195909658E+03 -0.61181045297E+03  0.14674941764E+03  0.77929927335E+03  0.12701217444E+03 0.  0.
        254    2    1    2    0    0 -0.44195909658E+03  0.61181045297E+03 -0.20623528930E+03  0.11897459291E+04  0.89628260495E+03 0.  0.
        -24    2    4    4    0    0  0.14775404784E+03  0.19265673713E+03  0.22791977439E+03  0.34229887960E+03  0.79203676667E+02 0.  0.
         24    2    4    4    0    0 -0.58971314443E+03  0.41915371583E+03 -0.43415506369E+03  0.84744704954E+03  0.78895197784E+02 0.  0.
         13    1    3    3    0    0  0.24442837265E+03 -0.31226340460E+03  0.13962641107E+03  0.42041550623E+03  0.00000000000E+00 0. -1.
        -13    1    3    3    0    0  0.19753072393E+03 -0.29954704837E+03  0.71230065752E+01  0.35888376712E+03  0.00000000000E+00 0.  1.
          2    1    6    6  502    0 -0.53415454792E+03  0.35381314624E+03 -0.39876561365E+03  0.75466471903E+03  0.00000000000E+00 0. -1.
          1    1    5    5  503    0  0.11020211666E+03  0.81703590317E+02  0.13841859310E+03  0.19488378615E+03  0.00000000000E+00 0. -1.
         -2    1    5    5    0  503  0.37551931180E+02  0.11095314682E+03  0.89501181296E+02  0.14741509345E+03  0.00000000000E+00 0.  1.
         -1    1    6    6    0  502 -0.55558596508E+02  0.65340569592E+02 -0.35389450044E+02  0.92782330510E+02  0.00000000000E+00 0.  1.
<mgrwt>
<rscale>  0 0.19681464E+04</rscale>
<asrwt>0</asrwt>
<pdfrwt beam="1">  1        1 0.15604085E+00 0.19681464E+04</pdfrwt>
<pdfrwt beam="2">  1       -1 0.14688918E+00 0.19681464E+04</pdfrwt>
<totfact> 0.50641027E+00</totfact>
</mgrwt>
</event>
<event>
12    1  0.1201209E-007  0.1507663E+04  0.7818608E-02  0.8879373E-01
          2   -1    0    0  501    0  0.00000000000E+00  0.00000000000E+00  0.12358141695E+04  0.12358141695E+04  0.00000000000E+00 0. -1.
         -2   -1    0    0    0  501 -0.00000000000E+00 -0.00000000000E+00 -0.45982787153E+03  0.45982787153E+03  0.00000000000E+00 0.  1.
         23    2    1    2    0    0  0.29341143500E+03 -0.25504530026E+03 -0.62919670190E+02  0.40464041775E+03  0.92933349285E+02 0.  0.
        254    2    1    2    0    0 -0.29341143500E+03  0.25504530026E+03  0.83890596820E+03  0.12910016233E+04  0.90099033988E+03 0.  0.
        -24    2    4    4    0    0 -0.15380836447E+03 -0.30992336056E+03  0.14861945149E+03  0.38446499835E+03  0.77563465587E+02 0.  0.
         24    2    4    4    0    0 -0.13960307054E+03  0.56496866082E+03  0.69028651671E+03  0.90653662496E+03  0.81452883553E+02 0.  0.
         11    1    3    3    0    0  0.74825270009E+02 -0.54894267843E+02 -0.55576122881E+02  0.10817073129E+03  0.00000000000E+00 0. -1.
        -11    1    3    3    0    0  0.21858616499E+03 -0.20015103241E+03 -0.73435473093E+01  0.29646968646E+03  0.00000000000E+00 0.  1.
          4    1    6    6  502    0 -0.47967719666E+02  0.26047820938E+03  0.25664631914E+03  0.36880500650E+03  0.00000000000E+00 0. -1.
          3    1    5    5  503    0 -0.16054809363E+03 -0.27268826762E+03  0.13751707989E+03  0.34502975079E+03  0.00000000000E+00 0. -1.
         -4    1    5    5    0  503  0.67397291601E+01 -0.37235092940E+02  0.11102371600E+02  0.39435247565E+02  0.00000000000E+00 0.  1.
         -3    1    6    6    0  502 -0.91635350869E+02  0.30449045144E+03  0.43364019758E+03  0.53773161847E+03  0.00000000000E+00 0.  1.
<mgrwt>
<rscale>  0 0.15076628E+04</rscale>
<asrwt>0</asrwt>
<pdfrwt beam="1">  1        2 0.19012526E+00 0.15076628E+04</pdfrwt>
<pdfrwt beam="2">  1       -2 0.70742750E-01 0.15076628E+04</pdfrwt>
<totfact> 0.31632709E+01</totfact>
</mgrwt>
</event>
<event>
12    1  0.1201209E-007  0.1716252E+04  0.7818608E-02  0.8752149E-01
         -2   -1    0    0    0  501 -0.00000000000E+00  0.00000000000E+00  0.11259508466E+04  0.11259508466E+04  0.00000000000E+00 0. -1.
          2   -1    0    0  501    0  0.00000000000E+00 -0.00000000000E+00 -0.65400738346E+03  0.65400738346E+03  0.00000000000E+00 0.  1.
         23    2    1    2    0    0  0.20734565518E+03  0.19048434062E+03  0.74193336310E+03  0.79868557735E+03  0.90316285602E+02 0.  0.
        254    2    1    2    0    0 -0.20734565518E+03 -0.19048434062E+03 -0.26998990000E+03  0.98127265267E+03  0.90040266994E+03 0.  0.
        -24    2    4    4    0    0 -0.26933401645E+03 -0.22577324110E+03 -0.56278666452E+03  0.66849091513E+03  0.81467202142E+02 0.  0.
         24    2    4    4    0    0  0.61988361270E+02  0.35288900488E+02  0.29279676453E+03  0.31278173754E+03  0.83753248255E+02 0.  0.
         11    1    3    3    0    0  0.10842177747E+03  0.15759835749E+03  0.46783957872E+03  0.50543683634E+03  0.00000000000E+00 0. -1.
        -11    1    3    3    0    0  0.98923877714E+02  0.32885983122E+02  0.27409378438E+03  0.29324874101E+03  0.00000000000E+00 0.  1.
          2    1    6    6  502    0  0.68430081209E+02  0.24336467168E+02  0.12548114030E+03  0.14498433095E+03  0.00000000000E+00 0. -1.
          3    1    5    5  503    0 -0.17605659793E+03 -0.17714839971E+03 -0.44711584169E+03  0.51214261401E+03  0.00000000000E+00 0. -1.
         -4    1    5    5    0  503 -0.93277418526E+02 -0.48624841393E+02 -0.11567082283E+03  0.15634830111E+03  0.00000000000E+00 0.  1.
         -1    1    6    6    0  502 -0.64417199391E+01  0.10952433320E+02  0.16731562422E+03  0.16779740660E+03  0.00000000000E+00 0.  1.
<mgrwt>
<rscale>  0 0.17162519E+04</rscale>
<asrwt>0</asrwt>
<pdfrwt beam="1">  1        2 0.10061652E+00 0.17162519E+04</pdfrwt>
<pdfrwt beam="2">  1       -2 0.17322321E+00 0.17162519E+04</pdfrwt>
<totfact> 0.85683779E+00</totfact>
</mgrwt>
</event>
<event>
12    1  0.1201209E-007  0.1522666E+04  0.7818608E-02  0.8869518E-01
         -1   -1    0    0    0  501 -0.00000000000E+00  0.00000000000E+00  0.19141902005E+03  0.19141902005E+03  0.00000000000E+00 0.  1.
          1   -1    0    0  501    0  0.00000000000E+00 -0.00000000000E+00 -0.30280597736E+04  0.30280597736E+04  0.00000000000E+00 0. -1.
         23    2    1    2    0    0  0.17486909227E+03  0.44633487703E+03 -0.74071752146E+03  0.88730567951E+03  0.94100480403E+02 0.  0.
        254    2    1    2    0    0 -0.17486909227E+03 -0.44633487703E+03 -0.20959232320E+04  0.23321731141E+04  0.90351713742E+03 0.  0.
        -24    2    4    4    0    0 -0.53003111911E+03 -0.23141705455E+03 -0.14138534986E+04  0.15296348448E+04  0.79461958051E+02 0.  0.
         24    2    4    4    0    0  0.35516202683E+03 -0.21491782248E+03 -0.68206973347E+03  0.80253826925E+03  0.80739188578E+02 0.  0.
         13    1    3    3    0    0  0.11132461205E+03  0.30494896658E+03 -0.57556057554E+03  0.66080028570E+03  0.00000000000E+00 0.  1.
        -13    1    3    3    0    0  0.63544480226E+02  0.14138591045E+03 -0.16515694592E+03  0.22650539381E+03  0.00000000000E+00 0. -1.
          2    1    6    6  502    0  0.31967829774E+03 -0.20424400875E+03 -0.57168518663E+03  0.68610041668E+03  0.00000000000E+00 0. -1.
          3    1    5    5  503    0 -0.32859561845E+03 -0.13641890748E+03 -0.96655396594E+03  0.10299571680E+04  0.00000000000E+00 0. -1.
         -4    1    5    5    0  503 -0.20143550065E+03 -0.94998147066E+02 -0.44729953264E+03  0.49967767687E+03  0.00000000000E+00 0.  1.
         -1    1    6    6    0  502  0.35483729090E+02 -0.10673813726E+02 -0.11038454684E+03  0.11643785257E+03  0.00000000000E+00 0.  1.
<mgrwt>
<rscale>  0 0.15226664E+04</rscale>
<asrwt>0</asrwt>
<pdfrwt beam="1">  1        1 0.46585534E+00 0.15226664E+04</pdfrwt>
<pdfrwt beam="2">  1       -1 0.29449081E-01 0.15226664E+04</pdfrwt>
<totfact> 0.58389905E+00</totfact>
</mgrwt>
</event>
<event>
12    1  0.1201209E-007  0.1993393E+04  0.7818608E-02  0.8609716E-01
         -2   -1    0    0    0  501 -0.00000000000E+00  0.00000000000E+00  0.52981159017E+03  0.52981159017E+03  0.00000000000E+00 0.  1.
          2   -1    0    0  501    0  0.00000000000E+00 -0.00000000000E+00 -0.18750131001E+04  0.18750131001E+04  0.00000000000E+00 0. -1.
         23    2    1    2    0    0  0.12484584181E+03 -0.76535390191E+03 -0.35513732013E+03  0.85777569500E+03  0.91123802592E+02 0.  0.
        254    2    1    2    0    0 -0.12484584181E+03  0.76535390191E+03 -0.99006418983E+03  0.15470489953E+04  0.90098857622E+03 0.  0.
        -24    2    4    4    0    0  0.35162210775E+03  0.53116572732E+03 -0.43821650479E+03  0.77713721990E+03  0.78316134679E+02 0.  0.
         24    2    4    4    0    0 -0.47646794957E+03  0.23418817459E+03 -0.55184768505E+03  0.76991177540E+03  0.79765069560E+02 0.  0.
         13    1    3    3    0    0  0.41951547804E+02 -0.31079607781E+03 -0.19224926572E+03  0.36785039692E+03  0.00000000000E+00 0. -1.
        -13    1    3    3    0    0  0.82894294010E+02 -0.45455782410E+03 -0.16288805441E+03  0.48992529808E+03  0.00000000000E+00 0.  1.
          4    1    6    6  502    0 -0.26739384972E+03  0.16094893396E+03 -0.36382392091E+03  0.47934525724E+03  0.00000000000E+00 0. -1.
          1    1    5    5  503    0  0.63244080463E+01  0.93431142300E+01 -0.24603929820E+02  0.27067421067E+02  0.00000000000E+00 0. -1.
         -2    1    5    5    0  503  0.34529769971E+03  0.52182261309E+03 -0.41361257497E+03  0.75006979884E+03  0.00000000000E+00 0.  1.
         -3    1    6    6    0  502 -0.20907409985E+03  0.73239240633E+02 -0.18802376413E+03  0.29056651816E+03  0.00000000000E+00 0.  1.
<mgrwt>
<rscale>  0 0.19933928E+04</rscale>
<asrwt>0</asrwt>
<pdfrwt beam="1">  1        2 0.28846356E+00 0.19933928E+04</pdfrwt>
<pdfrwt beam="2">  1       -2 0.81509474E-01 0.19933928E+04</pdfrwt>
<totfact> 0.96569765E+00</totfact>
</mgrwt>
</event>
<event>
12    1  0.1201209E-007  0.2247897E+04  0.7818608E-02  0.8498753E-01
          1   -1    0    0  501    0  0.00000000000E+00  0.00000000000E+00  0.17302199143E+04  0.17302199143E+04  0.00000000000E+00 0. -1.
         -1   -1    0    0    0  501 -0.00000000000E+00 -0.00000000000E+00 -0.73011516065E+03  0.73011516065E+03  0.00000000000E+00 0.  1.
         23    2    1    2    0    0  0.82334802079E+03 -0.25735965018E+02 -0.80701093022E+02  0.83330119726E+03  0.96508630175E+02 0.  0.
        254    2    1    2    0    0 -0.82334802079E+03  0.25735965018E+02  0.10808058467E+04  0.16270338777E+04  0.89472546502E+03 0.  0.
        -24    2    4    4    0    0 -0.33663724477E+03 -0.42387363418E+03  0.44557207612E+03  0.70582975763E+03  0.81655859717E+02 0.  0.
         24    2    4    4    0    0 -0.48671077602E+03  0.44960959919E+03  0.63523377056E+03  0.92120412008E+03  0.77839041647E+02 0.  0.
         13    1    3    3    0    0  0.28370781853E+03  0.31236880386E+02 -0.54952834773E+01  0.28547516028E+03  0.00000000000E+00 0.  1.
        -13    1    3    3    0    0  0.53964020226E+03 -0.56972845404E+02 -0.75205809544E+02  0.54782603698E+03  0.00000000000E+00 0. -1.
          4    1    6    6  502    0 -0.40753419543E+03  0.40377036847E+03  0.52198740099E+03  0.77561941549E+03  0.00000000000E+00 0. -1.
          1    1    5    5  503    0 -0.21534316838E+03 -0.23850495266E+03  0.21842105832E+03  0.38854221306E+03  0.00000000000E+00 0. -1.
         -2    1    5    5    0  503 -0.12129407639E+03 -0.18536868151E+03  0.22715101780E+03  0.31728754457E+03  0.00000000000E+00 0.  1.
         -3    1    6    6    0  502 -0.79176580591E+02  0.45839230720E+02  0.11324636957E+03  0.14558470458E+03  0.00000000000E+00 0.  1.
<mgrwt>
<rscale>  0 0.22478966E+04</rscale>
<asrwt>0</asrwt>
<pdfrwt beam="1">  1        1 0.26618768E+00 0.22478966E+04</pdfrwt>
<pdfrwt beam="2">  1       -1 0.11232541E+00 0.22478966E+04</pdfrwt>
<totfact> 0.29963513E+00</totfact>
</mgrwt>
</event>
<event>
12    1  0.1201209E-007  0.1933975E+04  0.7818608E-02  0.8638127E-01
         -2   -1    0    0    0  501 -0.00000000000E+00  0.00000000000E+00  0.69435134610E+03  0.69435134610E+03  0.00000000000E+00 0.  1.
          2   -1    0    0  501    0  0.00000000000E+00 -0.00000000000E+00 -0.13466734359E+04  0.13466734359E+04  0.00000000000E+00 0. -1.
         23    2    1    2    0    0 -0.34420260246E+03  0.22898455709E+03  0.40956565554E+03  0.58915832113E+03  0.91946409564E+02 0.  0.
        254    2    1    2    0    0  0.34420260246E+03 -0.22898455709E+03 -0.10618877454E+04  0.14518664609E+04  0.89966731496E+03 0.  0.
        -24    2    4    4    0    0  0.18755960756E+03  0.33875484592E+03 -0.44395763877E+03  0.59445605839E+03  0.79662841472E+02 0.  0.
         24    2    4    4    0    0  0.15664299490E+03 -0.56773940301E+03 -0.61793010659E+03  0.85741040251E+03  0.80311419565E+02 0.  0.
         13    1    3    3    0    0 -0.29367970991E+03  0.22988686325E+03  0.36282939675E+03  0.52032769776E+03  0.00000000000E+00 0.  1.
        -13    1    3    3    0    0 -0.50522892550E+02 -0.90230615962E+00  0.46736258787E+02  0.68830623369E+02  0.00000000000E+00 0. -1.
          2    1    6    6  502    0  0.87379459779E+02 -0.34973622789E+03 -0.32180757796E+03  0.48322946550E+03  0.00000000000E+00 0. -1.
          1    1    5    5  503    0  0.16522379287E+03  0.23276634874E+03 -0.29746090254E+03  0.41226455508E+03  0.00000000000E+00 0. -1.
         -2    1    5    5    0  503  0.22335814695E+02  0.10598849718E+03 -0.14649673623E+03  0.18219150331E+03  0.00000000000E+00 0.  1.
         -1    1    6    6    0  502  0.69263535122E+02 -0.21800317512E+03 -0.29612252863E+03  0.37418093701E+03  0.00000000000E+00 0.  1.
<mgrwt>
<rscale>  0 0.19339747E+04</rscale>
<asrwt>0</asrwt>
<pdfrwt beam="1">  1        2 0.20718052E+00 0.19339747E+04</pdfrwt>
<pdfrwt beam="2">  1       -2 0.10682329E+00 0.19339747E+04</pdfrwt>
<totfact> 0.10231901E+01</totfact>
</mgrwt>
</event>
<event>
12    1  0.1201209E-007  0.1398830E+04  0.7818608E-02  0.8954666E-01
         -1   -1    0    0    0  501 -0.00000000000E+00  0.00000000000E+00  0.91457466442E+03  0.91457466442E+03  0.00000000000E+00 0.  1.
          1   -1    0    0  501    0  0.00000000000E+00 -0.00000000000E+00 -0.53487320839E+03  0.53487320839E+03  0.00000000000E+00 0. -1.
         23    2    1    2    0    0  0.17849533521E+03 -0.11961697609E+03 -0.21103656039E+03  0.31467690225E+03  0.91193844814E+02 0.  0.
        254    2    1    2    0    0 -0.17849533521E+03  0.11961697609E+03  0.59073801642E+03  0.11347709706E+04  0.94475655379E+03 0.  0.
        -24    2    4    4    0    0 -0.26757160269E+03 -0.24092755889E+03  0.65307227919E+03  0.74991751523E+03  0.78944452646E+02 0.  0.
         24    2    4    4    0    0  0.89076267486E+02  0.36054453498E+03 -0.62334262771E+02  0.38485345533E+03  0.79370514841E+02 0.  0.
         11    1    3    3    0    0  0.69892317427E+02 -0.55328753998E+02 -0.30124387885E+02  0.94094026377E+02  0.00000000000E+00 0. -1.
        -11    1    3    3    0    0  0.10860301778E+03 -0.64288222090E+02 -0.18091217250E+03  0.22058287588E+03  0.00000000000E+00 0.  1.
          2    1    6    6  502    0  0.23116322714E+02  0.23253636514E+02 -0.20419447675E+02  0.38627060855E+02  0.00000000000E+00 0. -1.
          1    1    5    5  503    0 -0.13192949757E+02  0.18817007515E+01  0.89524408723E+01  0.16054311527E+02  0.00000000000E+00 0. -1.
         -2    1    5    5    0  503 -0.25437865294E+03 -0.24280925965E+03  0.64411983832E+03  0.73386320371E+03  0.00000000000E+00 0.  1.
         -1    1    6    6    0  502  0.65959944772E+02  0.33729089847E+03 -0.41914815097E+02  0.34622639447E+03  0.00000000000E+00 0.  1.
<mgrwt>
<rscale>  0 0.13988302E+04</rscale>
<asrwt>0</asrwt>
<pdfrwt beam="1">  1        1 0.82288186E-01 0.13988302E+04</pdfrwt>
<pdfrwt beam="2">  1       -1 0.14070379E+00 0.13988302E+04</pdfrwt>
<totfact> 0.16278703E+01</totfact>
</mgrwt>
</event>
<event>
12    1  0.1201209E-007  0.1358847E+04  0.7818608E-02  0.8984158E-01
         -1   -1    0    0    0  501 -0.00000000000E+00  0.00000000000E+00  0.32261239310E+03  0.32261239310E+03  0.00000000000E+00 0.  1.
          1   -1    0    0  501    0  0.00000000000E+00 -0.00000000000E+00 -0.14308705144E+04  0.14308705144E+04  0.00000000000E+00 0. -1.
         23    2    1    2    0    0  0.29022060747E+02 -0.10197694575E+03  0.14915018462E+03  0.20249821239E+03  0.86707387090E+02 0.  0.
        254    2    1    2    0    0 -0.29022060747E+02  0.10197694575E+03 -0.12574083059E+04  0.15509846951E+04  0.90179615167E+03 0.  0.
        -24    2    4    4    0    0  0.37381380379E+03  0.15081421160E+03 -0.30246810119E+03  0.51033774995E+03  0.80473476769E+02 0.  0.
         24    2    4    4    0    0 -0.40283586454E+03 -0.48837265853E+02 -0.95494020470E+03  0.10406469451E+04  0.79833937275E+02 0.  0.
         11    1    3    3    0    0  0.43894720868E+01  0.15011813870E+02  0.81528506241E+01  0.17637771803E+02  0.00000000000E+00 0. -1.
        -11    1    3    3    0    0  0.24632588660E+02 -0.11698875962E+03  0.14099733399E+03  0.18486044059E+03  0.00000000000E+00 0.  1.
          2    1    6    6  502    0 -0.26280001362E+03 -0.26354384071E+02 -0.71101204938E+03  0.75848304864E+03  0.00000000000E+00 0. -1.
          1    1    5    5  503    0  0.13964939682E+03  0.72768401659E+02 -0.73960718694E+02  0.17397523451E+03  0.00000000000E+00 0. -1.
         -2    1    5    5    0  503  0.23416440698E+03  0.78045809943E+02 -0.22850738249E+03  0.33636251545E+03  0.00000000000E+00 0.  1.
         -1    1    6    6    0  502 -0.14003585092E+03 -0.22482881782E+02 -0.24392815532E+03  0.28216389648E+03  0.00000000000E+00 0.  1.
<mgrwt>
<rscale>  0 0.13588474E+04</rscale>
<asrwt>0</asrwt>
<pdfrwt beam="1">  1        1 0.22013392E+00 0.13588474E+04</pdfrwt>
<pdfrwt beam="2">  1       -1 0.49632676E-01 0.13588474E+04</pdfrwt>
<totfact> 0.29099482E+01</totfact>
</mgrwt>
</event>
<event>
12    1  0.1201209E-007  0.1655042E+04  0.7818608E-02  0.8787429E-01
         -2   -1    0    0    0  501 -0.00000000000E+00  0.00000000000E+00  0.19509341645E+03  0.19509341645E+03  0.00000000000E+00 0.  1.
          2   -1    0    0  501    0  0.00000000000E+00 -0.00000000000E+00 -0.35100661821E+04  0.35100661821E+04  0.00000000000E+00 0. -1.
         23    2    1    2    0    0 -0.44884507705E+03 -0.16407737533E+03 -0.44589406335E+03  0.66016506581E+03  0.92806842944E+02 0.  0.
        254    2    1    2    0    0  0.44884507705E+03  0.16407737533E+03 -0.28690787023E+04  0.30449945327E+04  0.90110810455E+03 0.  0.
        -24    2    4    4    0    0  0.36127336355E+03  0.22874086455E+02 -0.31726254130E+03  0.48654419901E+03  0.70908888322E+02 0.  0.
         24    2    4    4    0    0  0.87571713508E+02  0.14120328888E+03 -0.25518161610E+04  0.25584503337E+04  0.79342402032E+02 0.  0.
         11    1    3    3    0    0 -0.36644520117E+03 -0.17043310982E+03 -0.36708659412E+03  0.54596895330E+03  0.00000000000E+00 0.  1.
        -11    1    3    3    0    0 -0.82399875882E+02  0.63557344920E+01 -0.78807469222E+02  0.11419611251E+03  0.00000000000E+00 0. -1.
          4    1    6    6  502    0  0.25448831505E+02 -0.29916320795E+01 -0.25892230233E+03  0.26018714713E+03  0.00000000000E+00 0. -1.
          1    1    5    5  503    0  0.21356334896E+03  0.45204876488E+02 -0.16896525957E+03  0.27604717680E+03  0.00000000000E+00 0. -1.
         -2    1    5    5    0  503  0.14771001458E+03 -0.22330790033E+02 -0.14829728174E+03  0.21049702222E+03  0.00000000000E+00 0.  1.
         -3    1    6    6    0  502  0.62122882003E+02  0.14419492096E+03 -0.22928938587E+04  0.22982631866E+04  0.00000000000E+00 0.  1.
<mgrwt>
<rscale>  0 0.16550418E+04</rscale>
<asrwt>0</asrwt>
<pdfrwt beam="1">  1        2 0.54001018E+00 0.16550418E+04</pdfrwt>
<pdfrwt beam="2">  1       -2 0.30014372E-01 0.16550418E+04</pdfrwt>
<totfact> 0.79110630E+00</totfact>
</mgrwt>
</event>
<event>
12    1  0.1201209E-007  0.1567158E+04  0.7818608E-02  0.8840982E-01
          2   -1    0    0  501    0  0.00000000000E+00  0.00000000000E+00  0.48349247500E+03  0.48349247500E+03  0.00000000000E+00 0. -1.
         -2   -1    0    0    0  501 -0.00000000000E+00 -0.00000000000E+00 -0.12699179867E+04  0.12699179867E+04  0.00000000000E+00 0.  1.
         23    2    1    2    0    0  0.15244641144E+03 -0.10210312865E+02  0.28990620461E+03  0.34087611596E+03  0.93844339773E+02 0.  0.
        254    2    1    2    0    0 -0.15244641144E+03  0.10210312865E+02 -0.10763317163E+04  0.14125343458E+04  0.90189753050E+03 0.  0.
        -24    2    4    4    0    0 -0.30903657720E+03  0.22083424335E+03 -0.10699747148E+04  0.11382487812E+04  0.80579330709E+02 0.  0.
         24    2    4    4    0    0  0.15659016576E+03 -0.21062393049E+03 -0.63570015008E+01  0.27428556452E+03  0.79430720291E+02 0.  0.
         11    1    3    3    0    0 -0.40114711787E+01  0.52340895144E+01  0.71310427286E+02  0.71614695655E+02  0.00000000000E+00 0.  1.
        -11    1    3    3    0    0  0.15645788261E+03 -0.15444402379E+02  0.21859577733E+03  0.26926142030E+03  0.00000000000E+00 0. -1.
          2    1    6    6  502    0  0.15956026105E+03 -0.20349661740E+03  0.71895738170E+01  0.25869294573E+03  0.00000000000E+00 0. -1.
          1    1    5    5  503    0 -0.19103142339E+03  0.87821119476E+02 -0.56060751442E+03  0.59873728711E+03  0.00000000000E+00 0. -1.
         -2    1    5    5    0  503 -0.11800515381E+03  0.13301312388E+03 -0.50936720041E+03  0.53951149414E+03  0.00000000000E+00 0.  1.
         -1    1    6    6    0  502 -0.29700952819E+01 -0.71273130897E+01 -0.13546575318E+02  0.15592618789E+02  0.00000000000E+00 0.  1.
<mgrwt>
<rscale>  0 0.15671577E+04</rscale>
<asrwt>0</asrwt>
<pdfrwt beam="1">  1        2 0.74383458E-01 0.15671577E+04</pdfrwt>
<pdfrwt beam="2">  1       -2 0.19537200E+00 0.15671577E+04</pdfrwt>
<totfact> 0.87746526E+00</totfact>
</mgrwt>
</event>
<event>
12    1  0.1201209E-007  0.2440363E+04  0.7818608E-02  0.8424545E-01
         -2   -1    0    0    0  501 -0.00000000000E+00  0.00000000000E+00  0.11324640827E+04  0.11324640827E+04  0.00000000000E+00 0.  1.
          2   -1    0    0  501    0  0.00000000000E+00 -0.00000000000E+00 -0.13146928447E+04  0.13146928447E+04  0.00000000000E+00 0. -1.
         23    2    1    2    0    0  0.10359890304E+04  0.17502933730E+03 -0.13748059279E+03  0.10636531306E+04  0.92458254743E+02 0.  0.
        254    2    1    2    0    0 -0.10359890304E+04 -0.17502933730E+03 -0.44748169165E+02  0.13835037968E+04  0.89898376904E+03 0.  0.
        -24    2    4    4    0    0 -0.90675826472E+03 -0.28630953450E+03  0.29184891228E+03  0.99790671656E+03  0.80363718093E+02 0.  0.
         24    2    4    4    0    0 -0.12923076567E+03  0.11128019720E+03 -0.33659708145E+03  0.38559708019E+03  0.79395465405E+02 0.  0.
         11    1    3    3    0    0  0.65917310849E+03  0.11877701959E+03 -0.13172021145E+03  0.68261803481E+03  0.00000000000E+00 0.  1.
        -11    1    3    3    0    0  0.37681592189E+03  0.56252317708E+02 -0.57603813434E+01  0.38103509580E+03  0.00000000000E+00 0. -1.
          2    1    6    6  502    0 -0.98400133812E+02  0.11016033035E+03 -0.31507724475E+03  0.34798211862E+03  0.00000000000E+00 0. -1.
          1    1    5    5  503    0 -0.70295723769E+03 -0.18982658445E+03  0.20704495594E+03  0.75700107263E+03  0.00000000000E+00 0. -1.
         -2    1    5    5    0  503 -0.20380102703E+03 -0.96482950051E+02  0.84803956338E+02  0.24090564393E+03  0.00000000000E+00 0.  1.
         -1    1    6    6    0  502 -0.30830631855E+02  0.11198668419E+01 -0.21519836693E+02  0.37614961566E+02  0.00000000000E+00 0.  1.
<mgrwt>
<rscale>  0 0.24403626E+04</rscale>
<asrwt>0</asrwt>
<pdfrwt beam="1">  1        2 0.20226044E+00 0.24403626E+04</pdfrwt>
<pdfrwt beam="2">  1       -2 0.17422524E+00 0.24403626E+04</pdfrwt>
<totfact> 0.28905508E+00</totfact>
</mgrwt>
</event>
<event>
12    1  0.1201209E-007  0.1377971E+04  0.7818608E-02  0.8969920E-01
          2   -1    0    0  501    0  0.00000000000E+00  0.00000000000E+00  0.19885528348E+04  0.19885528348E+04  0.00000000000E+00 0.  1.
         -2   -1    0    0    0  501 -0.00000000000E+00 -0.00000000000E+00 -0.23871695602E+03  0.23871695602E+03  0.00000000000E+00 0. -1.
         23    2    1    2    0    0 -0.49359378973E+02 -0.38159559633E+03  0.42333589072E+03  0.57861037091E+03  0.86747550516E+02 0.  0.
        254    2    1    2    0    0  0.49359378973E+02  0.38159559633E+03  0.13264999881E+04  0.16486594199E+04  0.90023558978E+03 0.  0.
        -24    2    4    4    0    0 -0.35870430676E+03 -0.19808563312E+02  0.31736950072E+03  0.48578750957E+03  0.78771477033E+02 0.  0.
         24    2    4    4    0    0  0.40806368574E+03  0.40140415964E+03  0.10091304874E+04  0.11628719104E+04  0.79280945894E+02 0.  0.
         13    1    3    3    0    0  0.21271675174E+00 -0.38745570111E+02  0.11422785695E+02  0.40394857156E+02  0.00000000000E+00 0.  1.
        -13    1    3    3    0    0 -0.49572095724E+02 -0.34285002622E+03  0.41191310502E+03  0.53821551375E+03  0.00000000000E+00 0. -1.
          2    1    6    6  502    0  0.37657167804E+03  0.36963975245E+03  0.96605524123E+03  0.11007735936E+04  0.00000000000E+00 0. -1.
          1    1    5    5  503    0 -0.15223188679E+03 -0.44000607896E+02  0.11618645693E+03  0.19649400405E+03  0.00000000000E+00 0. -1.
         -2    1    5    5    0  503 -0.20647241997E+03  0.24192044583E+02  0.20118304378E+03  0.28929350552E+03  0.00000000000E+00 0.  1.
         -1    1    6    6    0  502  0.31492007692E+02  0.31764407192E+02  0.43075246131E+02  0.62098316741E+02  0.00000000000E+00 0.  1.
<mgrwt>
<rscale>  0 0.13779714E+04</rscale>
<asrwt>0</asrwt>
<pdfrwt beam="1">  1        2 0.30593119E+00 0.13779714E+04</pdfrwt>
<pdfrwt beam="2">  1       -2 0.36725687E-01 0.13779714E+04</pdfrwt>
<totfact> 0.46184953E+01</totfact>
</mgrwt>
</event>
<event>
12    1  0.1201209E-007  0.2010553E+04  0.7818608E-02  0.8601703E-01
          1   -1    0    0  501    0  0.00000000000E+00  0.00000000000E+00  0.86701545544E+03  0.86701545544E+03  0.00000000000E+00 0. -1.
         -1   -1    0    0    0  501 -0.00000000000E+00 -0.00000000000E+00 -0.11655858136E+04  0.11655858136E+04  0.00000000000E+00 0.  1.
         23    2    1    2    0    0 -0.30405063781E+03 -0.43500698567E+03 -0.73020679796E+03  0.90810604093E+03  0.98877428420E+02 0.  0.
        254    2    1    2    0    0  0.30405063781E+03  0.43500698567E+03  0.43163643984E+03  0.11244952281E+04  0.89246940218E+03 0.  0.
        -24    2    4    4    0    0  0.12021200374E+03 -0.35039125234E+02 -0.23909636146E+03  0.28170104390E+03  0.80682971762E+02 0.  0.
         24    2    4    4    0    0  0.18383863407E+03  0.47004611090E+03  0.67073280131E+03  0.84279418417E+03  0.75362831472E+02 0.  0.
         13    1    3    3    0    0 -0.23931073827E+03 -0.39510504672E+03 -0.59861865361E+03  0.75612295286E+03  0.00000000000E+00 0.  1.
        -13    1    3    3    0    0 -0.64739899539E+02 -0.39901938943E+02 -0.13158814435E+03  0.15198308807E+03  0.00000000000E+00 0. -1.
          4    1    6    6  502    0  0.58139255181E+01  0.44678628623E+02  0.95171654885E+02  0.10529779427E+03  0.00000000000E+00 0. -1.
          3    1    5    5  503    0  0.63467711009E+02  0.18998844410E+02 -0.76439237571E+02  0.10115366266E+03  0.00000000000E+00 0. -1.
         -2    1    5    5    0  503  0.56744292731E+02 -0.54037969644E+02 -0.16265712389E+03  0.18054738124E+03  0.00000000000E+00 0.  1.
         -1    1    6    6    0  502  0.17802470855E+03  0.42536748228E+03  0.57556114642E+03  0.73749638989E+03  0.00000000000E+00 0.  1.
<mgrwt>
<rscale>  0 0.20105531E+04</rscale>
<asrwt>0</asrwt>
<pdfrwt beam="1">  1        1 0.13338699E+00 0.20105531E+04</pdfrwt>
<pdfrwt beam="2">  1       -1 0.17932089E+00 0.20105531E+04</pdfrwt>
<totfact> 0.37799250E+00</totfact>
</mgrwt>
</event>
<event>
12    1  0.1201209E-007  0.1429932E+04  0.7818608E-02  0.8932433E-01
         -2   -1    0    0    0  501 -0.00000000000E+00  0.00000000000E+00  0.30590830563E+03  0.30590830563E+03  0.00000000000E+00 0. -1.
          2   -1    0    0  501    0  0.00000000000E+00 -0.00000000000E+00 -0.16710117050E+04  0.16710117050E+04  0.00000000000E+00 0.  1.
         23    2    1    2    0    0 -0.16595752097E+03  0.38586327129E+03 -0.41158784517E+03  0.59500429188E+03  0.90516242565E+02 0.  0.
        254    2    1    2    0    0  0.16595752097E+03 -0.38586327129E+03 -0.95351555418E+03  0.13819157187E+04  0.90778123945E+03 0.  0.
        -24    2    4    4    0    0 -0.19772689168E+03 -0.26520147932E+03 -0.92936128174E+03  0.98969233803E+03  0.79691804091E+02 0.  0.
         24    2    4    4    0    0  0.36368441265E+03 -0.12066179196E+03 -0.24154272443E+02  0.39222338069E+03  0.80188100345E+02 0.  0.
         11    1    3    3    0    0 -0.69651820377E+02  0.10392782359E+03 -0.76597843970E+02  0.14669559741E+03  0.00000000000E+00 0.  1.
        -11    1    3    3    0    0 -0.96305700595E+02  0.28193544770E+03 -0.33499000120E+03  0.44830869447E+03  0.00000000000E+00 0. -1.
          4    1    6    6  502    0  0.65078967763E+02  0.48819038472E+01  0.11767285249E+02  0.66314206867E+02  0.00000000000E+00 0. -1.
          1    1    5    5  503    0  0.50706907744E+01 -0.16318925630E+02 -0.27334962564E+02  0.32236926296E+02  0.00000000000E+00 0. -1.
         -2    1    5    5    0  503 -0.20279758245E+03 -0.24888255369E+03 -0.90202631917E+03  0.95745541174E+03  0.00000000000E+00 0.  1.
         -3    1    6    6    0  502  0.29860544489E+03 -0.12554369581E+03 -0.35921557691E+02  0.32590917382E+03  0.00000000000E+00 0.  1.
<mgrwt>
<rscale>  0 0.14299320E+04</rscale>
<asrwt>0</asrwt>
<pdfrwt beam="1">  1        2 0.25707872E+00 0.14299320E+04</pdfrwt>
<pdfrwt beam="2">  1       -2 0.47062816E-01 0.14299320E+04</pdfrwt>
<totfact> 0.42297528E+01</totfact>
</mgrwt>
</event>
<event>
12    1  0.1201209E-007  0.2017964E+04  0.7818608E-02  0.8598268E-01
         -1   -1    0    0    0  501 -0.00000000000E+00  0.00000000000E+00  0.78852358397E+03  0.78852358397E+03  0.00000000000E+00 0.  1.
          1   -1    0    0  501    0  0.00000000000E+00 -0.00000000000E+00 -0.12910765050E+04  0.12910765050E+04  0.00000000000E+00 0. -1.
         23    2    1    2    0    0  0.65475920579E+03 -0.30570876299E+03  0.16175658570E+03  0.74608901647E+03  0.91192993923E+02 0.  0.
        254    2    1    2    0    0 -0.65475920579E+03  0.30570876299E+03 -0.66430950669E+03  0.13335110725E+04  0.90265009521E+03 0.  0.
        -24    2    4    4    0    0 -0.76623450076E+03  0.17373349702E+02 -0.66062620179E+03  0.10149088046E+04  0.78713148690E+02 0.  0.
         24    2    4    4    0    0  0.11147529497E+03  0.28833541329E+03 -0.36833049014E+01  0.31860226785E+03  0.77005106329E+02 0.  0.
         11    1    3    3    0    0  0.61517358903E+03 -0.30658670718E+03  0.16327368005E+03  0.70646461218E+03  0.00000000000E+00 0.  1.
        -11    1    3    3    0    0  0.39585616759E+02  0.87794418923E+00 -0.15170943493E+01  0.39624404291E+02  0.00000000000E+00 0. -1.
          2    1    6    6  502    0  0.10854733867E+03  0.18138790555E+03  0.29833135679E+01  0.21140718335E+03  0.00000000000E+00 0. -1.
          1    1    5    5  503    0 -0.56416547644E+03 -0.15142239557E+02 -0.45695073683E+03  0.72616523472E+03  0.00000000000E+00 0. -1.
         -2    1    5    5    0  503 -0.20206902431E+03  0.32515589259E+02 -0.20367546495E+03  0.28874356990E+03  0.00000000000E+00 0.  1.
         -1    1    6    6    0  502  0.29279562969E+01  0.10694750774E+03 -0.66666184693E+01  0.10719508450E+03  0.00000000000E+00 0.  1.
<mgrwt>
<rscale>  0 0.20179636E+04</rscale>
<asrwt>0</asrwt>
<pdfrwt beam="1">  1        1 0.19862716E+00 0.20179636E+04</pdfrwt>
<pdfrwt beam="2">  1       -1 0.12131132E+00 0.20179636E+04</pdfrwt>
<totfact> 0.51252264E+00</totfact>
</mgrwt>
</event>
<event>
12    1  0.1201209E-007  0.1873892E+04  0.7818608E-02  0.8667962E-01
         -2   -1    0    0    0  501 -0.00000000000E+00  0.00000000000E+00  0.12605026641E+04  0.12605026641E+04  0.00000000000E+00 0.  1.
          2   -1    0    0  501    0  0.00000000000E+00 -0.00000000000E+00 -0.69644265735E+03  0.69644265735E+03  0.00000000000E+00 0. -1.
         23    2    1    2    0    0  0.52522405231E+03  0.41633913954E+03  0.48730553750E+03  0.83396521194E+03  0.93982464393E+02 0.  0.
        254    2    1    2    0    0 -0.52522405231E+03 -0.41633913954E+03  0.76754469280E+02  0.11229801095E+04  0.89777196081E+03 0.  0.
        -24    2    4    4    0    0 -0.73915270472E+03 -0.26485209927E+03 -0.10151585148E+03  0.79575641708E+03  0.80183862750E+02 0.  0.
         24    2    4    4    0    0  0.21392865241E+03 -0.15148704027E+03  0.17827032076E+03  0.32722369245E+03  0.81124878718E+02 0.  0.
         11    1    3    3    0    0  0.65229757477E+02  0.55679703389E+02  0.10475867258E+03  0.13538659502E+03  0.00000000000E+00 0. -1.
        -11    1    3    3    0    0  0.45999429483E+03  0.36065943615E+03  0.38254686493E+03  0.69857861693E+03  0.00000000000E+00 0.  1.
          2    1    6    6  502    0  0.39194689653E+02 -0.33309288935E+02  0.78556709961E+02  0.93898291285E+02  0.00000000000E+00 0. -1.
          1    1    5    5  503    0 -0.13971440460E+03 -0.82872357979E+02 -0.11233466384E+02  0.16283161038E+03  0.00000000000E+00 0. -1.
         -2    1    5    5    0  503 -0.59943830012E+03 -0.18197974129E+03 -0.90282385092E+02  0.63292480670E+03  0.00000000000E+00 0.  1.
         -1    1    6    6    0  502  0.17473396276E+03 -0.11817775134E+03  0.99713610794E+02  0.23332540117E+03  0.00000000000E+00 0.  1.
<mgrwt>
<rscale>  0 0.18738920E+04</rscale>
<asrwt>0</asrwt>
<pdfrwt beam="1">  1        2 0.10714502E+00 0.18738920E+04</pdfrwt>
<pdfrwt beam="2">  1       -2 0.19392349E+00 0.18738920E+04</pdfrwt>
<totfact> 0.56430444E+00</totfact>
</mgrwt>
</event>
<event>
12    1  0.1201209E-007  0.1977463E+04  0.7818608E-02  0.8617231E-01
         -2   -1    0    0    0  501 -0.00000000000E+00  0.00000000000E+00  0.70987830587E+03  0.70987830587E+03  0.00000000000E+00 0.  1.
          2   -1    0    0  501    0  0.00000000000E+00 -0.00000000000E+00 -0.13771230274E+04  0.13771230274E+04  0.00000000000E+00 0. -1.
         23    2    1    2    0    0 -0.43102372205E+03 -0.64926966808E+03 -0.29179943293E+03  0.83751826376E+03  0.94643447777E+02 0.  0.
        254    2    1    2    0    0  0.43102372205E+03  0.64926966808E+03 -0.37544528861E+03  0.12494830695E+04  0.90161866964E+03 0.  0.
        -24    2    4    4    0    0 -0.65315068735E+02  0.66500039826E+03 -0.11363092351E+03  0.68244419379E+03  0.79539317135E+02 0.  0.
         24    2    4    4    0    0  0.49633879079E+03 -0.15730730185E+02 -0.26181436510E+03  0.56703887574E+03  0.79916667302E+02 0.  0.
         11    1    3    3    0    0 -0.10240215336E+03 -0.14746027475E+03 -0.11080000702E+03  0.21096771127E+03  0.00000000000E+00 0. -1.
        -11    1    3    3    0    0 -0.32862156869E+03 -0.50180939332E+03 -0.18099942591E+03  0.62655055248E+03  0.00000000000E+00 0.  1.
          2    1    6    6  502    0  0.36502873726E+03 -0.23255840251E+02 -0.22879326230E+03  0.43143153571E+03  0.00000000000E+00 0. -1.
          3    1    5    5  503    0 -0.58837001930E+01  0.70582813059E+02  0.12421842912E+02  0.71908647662E+02  0.00000000000E+00 0. -1.
         -2    1    5    5    0  503 -0.59431368542E+02  0.59441758520E+03 -0.12605276643E+03  0.61053554613E+03  0.00000000000E+00 0.  1.
         -1    1    6    6    0  502  0.13131005353E+03  0.75251100658E+01 -0.33021102797E+02  0.13560734003E+03  0.00000000000E+00 0.  1.
<mgrwt>
<rscale>  0 0.19774628E+04</rscale>
<asrwt>0</asrwt>
<pdfrwt beam="1">  1        2 0.21186508E+00 0.19774628E+04</pdfrwt>
<pdfrwt beam="2">  1       -2 0.10921205E+00 0.19774628E+04</pdfrwt>
<totfact> 0.92825980E+00</totfact>
</mgrwt>
</event>
<event>
12    1  0.1201209E-007  0.2130787E+04  0.7818608E-02  0.8547802E-01
         -1   -1    0    0    0  501 -0.00000000000E+00  0.00000000000E+00  0.82257572449E+03  0.82257572449E+03  0.00000000000E+00 0.  1.
          1   -1    0    0  501    0  0.00000000000E+00 -0.00000000000E+00 -0.13798886034E+04  0.13798886034E+04  0.00000000000E+00 0. -1.
         23    2    1    2    0    0 -0.99456243105E+02  0.26813762039E+03 -0.10838432671E+04  0.11246251103E+04  0.90972980384E+02 0.  0.
        254    2    1    2    0    0  0.99456243105E+02 -0.26813762039E+03  0.52653038828E+03  0.10778392176E+04  0.89594296771E+03 0.  0.
        -24    2    4    4    0    0 -0.63563352397E+02 -0.11988894714E+01  0.70307356443E+03  0.71039321327E+03  0.79399895154E+02 0.  0.
         24    2    4    4    0    0  0.16301959550E+03 -0.26693873092E+03 -0.17654317615E+03  0.36744600430E+03  0.77571892133E+02 0.  0.
         11    1    3    3    0    0 -0.91014645996E+02  0.25007159284E+03 -0.10628958295E+04  0.10957038887E+04  0.00000000000E+00 0. -1.
        -11    1    3    3    0    0 -0.84415971089E+01  0.18066027549E+02 -0.20947437607E+02  0.28921221542E+02  0.00000000000E+00 0.  1.
          4    1    6    6  502    0  0.11709102648E+03 -0.23895166185E+03 -0.16274593661E+03  0.31192057493E+03  0.00000000000E+00 0. -1.
          1    1    5    5  503    0 -0.47930631182E+02  0.32733703455E+02  0.53919415654E+03  0.54230911775E+03  0.00000000000E+00 0. -1.
         -2    1    5    5    0  503 -0.15632721215E+02 -0.33932592926E+02  0.16387940789E+03  0.16808409552E+03  0.00000000000E+00 0.  1.
         -3    1    6    6    0  502  0.45928569023E+02 -0.27987069070E+02 -0.13797239535E+02  0.55525429367E+02  0.00000000000E+00 0.  1.
<mgrwt>
<rscale>  0 0.21307866E+04</rscale>
<asrwt>0</asrwt>
<pdfrwt beam="1">  1        1 0.21229055E+00 0.21307866E+04</pdfrwt>
<pdfrwt beam="2">  1       -1 0.12655011E+00 0.21307866E+04</pdfrwt>
<totfact> 0.39510398E+00</totfact>
</mgrwt>
</event>
<event>
12    1  0.1201209E-007  0.1909340E+04  0.7818608E-02  0.8650221E-01
          1   -1    0    0  501    0  0.00000000000E+00  0.00000000000E+00  0.33827265782E+04  0.33827265782E+04  0.00000000000E+00 0. -1.
         -1   -1    0    0    0  501 -0.00000000000E+00 -0.00000000000E+00 -0.26942599690E+03  0.26942599690E+03  0.00000000000E+00 0.  1.
         23    2    1    2    0    0  0.71674728889E+03  0.48978848737E+02  0.15758931565E+04  0.17343975350E+04  0.92574105779E+02 0.  0.
        254    2    1    2    0    0 -0.71674728889E+03 -0.48978848737E+02  0.15374074248E+04  0.19177550400E+04  0.89332927864E+03 0.  0.
        -24    2    4    4    0    0  0.19506324605E+03 -0.90088613227E+02  0.27513507616E+03  0.35792567253E+03  0.79030682195E+02 0.  0.
         24    2    4    4    0    0 -0.91181053494E+03  0.41109764490E+02  0.12622723486E+04  0.15598293675E+04  0.81533485863E+02 0.  0.
         11    1    3    3    0    0  0.29056767432E+03  0.29688922741E+02  0.53640893108E+03  0.61077454665E+03  0.00000000000E+00 0.  1.
        -11    1    3    3    0    0  0.42617961457E+03  0.19289925996E+02  0.10394842254E+04  0.11236229884E+04  0.00000000000E+00 0. -1.
          4    1    6    6  502    0 -0.20880534224E+02 -0.59785016234E-01  0.55103425870E+02  0.58926970279E+02  0.00000000000E+00 0. -1.
          1    1    5    5  503    0  0.69273866001E+02  0.32333534699E+01  0.59283934875E+02  0.91235453743E+02  0.00000000000E+00 0. -1.
         -2    1    5    5    0  503  0.12578938004E+03 -0.93321966697E+02  0.21585114129E+03  0.26669021878E+03  0.00000000000E+00 0.  1.
         -3    1    6    6    0  502 -0.89093000071E+03  0.41169549506E+02  0.12071689227E+04  0.15009023972E+04  0.00000000000E+00 0.  1.
<mgrwt>
<rscale>  0 0.19093397E+04</rscale>
<asrwt>0</asrwt>
<pdfrwt beam="1">  1        1 0.52041944E+00 0.19093397E+04</pdfrwt>
<pdfrwt beam="2">  1       -1 0.41450156E-01 0.19093397E+04</pdfrwt>
<totfact> 0.16530209E+00</totfact>
</mgrwt>
</event>
<event>
12    1  0.1201209E-007  0.1757158E+04  0.7818608E-02  0.8729420E-01
         -1   -1    0    0    0  501 -0.00000000000E+00  0.00000000000E+00  0.29586762411E+03  0.29586762411E+03  0.00000000000E+00 0.  1.
          1   -1    0    0  501    0  0.00000000000E+00 -0.00000000000E+00 -0.26089414602E+04  0.26089414602E+04  0.00000000000E+00 0. -1.
         23    2    1    2    0    0  0.22379299392E+03  0.52205734945E+03 -0.33669288827E+03  0.66654835791E+03  0.91090241943E+02 0.  0.
        254    2    1    2    0    0 -0.22379299392E+03 -0.52205734945E+03 -0.19763809478E+04  0.22382607264E+04  0.88379989149E+03 0.  0.
        -24    2    4    4    0    0 -0.37161068642E+02 -0.43005255171E+03 -0.26572388108E+03  0.51312915878E+03  0.79788535256E+02 0.  0.
         24    2    4    4    0    0 -0.18663192528E+03 -0.92004797744E+02 -0.17106570668E+04  0.17251315676E+04  0.80218247815E+02 0.  0.
         11    1    3    3    0    0  0.12448932467E+03  0.25569957864E+03 -0.21872130962E+03  0.35877413195E+03  0.00000000000E+00 0.  1.
        -11    1    3    3    0    0  0.99303669251E+02  0.26635777081E+03 -0.11797157865E+03  0.30777422596E+03  0.00000000000E+00 0. -1.
          2    1    6    6  502    0 -0.11154977308E+03 -0.26490133565E+02 -0.11487563210E+04  0.11544635829E+04  0.00000000000E+00 0. -1.
          3    1    5    5  503    0 -0.27218487471E+02 -0.24207293696E+03 -0.10366852559E+03  0.26474009153E+03  0.00000000000E+00 0. -1.
         -4    1    5    5    0  503 -0.99425811706E+01 -0.18797961475E+03 -0.16205535550E+03  0.24838906724E+03  0.00000000000E+00 0.  1.
         -1    1    6    6    0  502 -0.75082152197E+02 -0.65514664180E+02 -0.56190074572E+03  0.57066798477E+03  0.00000000000E+00 0.  1.
<mgrwt>
<rscale>  0 0.17571583E+04</rscale>
<asrwt>0</asrwt>
<pdfrwt beam="1">  1        1 0.40137560E+00 0.17571583E+04</pdfrwt>
<pdfrwt beam="2">  1       -1 0.45518097E-01 0.17571583E+04</pdfrwt>
<totfact> 0.51717562E+00</totfact>
</mgrwt>
</event>
<event>
12    1  0.1201209E-007  0.1593538E+04  0.7818608E-02  0.8824528E-01
         -1   -1    0    0    0  501 -0.00000000000E+00  0.00000000000E+00  0.38399578483E+03  0.38399578483E+03  0.00000000000E+00 0.  1.
          1   -1    0    0  501    0  0.00000000000E+00 -0.00000000000E+00 -0.16532501528E+04  0.16532501528E+04  0.00000000000E+00 0. -1.
         23    2    1    2    0    0 -0.48614296534E+03 -0.23421700394E+03 -0.46913341945E+03  0.72092762659E+03  0.91966786701E+02 0.  0.
        254    2    1    2    0    0  0.48614296534E+03  0.23421700394E+03 -0.80012094850E+03  0.13163183110E+04  0.89515796148E+03 0.  0.
        -24    2    4    4    0    0 -0.14606466125E+03  0.11557164572E+02 -0.58397312687E+03  0.60741803472E+03  0.80396534064E+02 0.  0.
         24    2    4    4    0    0  0.63220762658E+03  0.22265983937E+03 -0.21614782164E+03  0.70890027629E+03  0.80968103290E+02 0.  0.
         11    1    3    3    0    0 -0.46693082156E+03 -0.20449631501E+03 -0.42064123157E+03  0.66089498460E+03  0.00000000000E+00 0. -1.
        -11    1    3    3    0    0 -0.19212143781E+02 -0.29720688930E+02 -0.48492187880E+02  0.60032641992E+02  0.00000000000E+00 0.  1.
          4    1    6    6  502    0  0.61875413367E+03  0.22785643577E+03 -0.20449124496E+03  0.69035635907E+03  0.00000000000E+00 0. -1.
          1    1    5    5  503    0 -0.13421800960E+03  0.36429220651E+02 -0.50382127206E+03  0.52266378906E+03  0.00000000000E+00 0. -1.
         -4    1    5    5    0  503 -0.11846651649E+02 -0.24872056079E+02 -0.80151854806E+02  0.84754245662E+02  0.00000000000E+00 0.  1.
         -3    1    6    6    0  502  0.13453492916E+02 -0.51965964014E+01 -0.11656576682E+02  0.18543917216E+02  0.00000000000E+00 0.  1.
<mgrwt>
<rscale>  0 0.15935383E+04</rscale>
<asrwt>0</asrwt>
<pdfrwt beam="1">  1        1 0.25434618E+00 0.15935383E+04</pdfrwt>
<pdfrwt beam="2">  1       -1 0.59076274E-01 0.15935383E+04</pdfrwt>
<totfact> 0.14303814E+01</totfact>
</mgrwt>
</event>
<event>
12    1  0.1201209E-007  0.1454253E+04  0.7818608E-02  0.8915457E-01
         -2   -1    0    0    0  501 -0.00000000000E+00  0.00000000000E+00  0.41156984732E+03  0.41156984732E+03  0.00000000000E+00 0.  1.
          2   -1    0    0  501    0  0.00000000000E+00 -0.00000000000E+00 -0.12846251275E+04  0.12846251275E+04  0.00000000000E+00 0. -1.
         23    2    1    2    0    0 -0.40094741544E+03  0.17377091863E+03 -0.35622832655E+03  0.57106487363E+03  0.90891733123E+02 0.  0.
        254    2    1    2    0    0  0.40094741544E+03 -0.17377091863E+03 -0.51682695363E+03  0.11251301012E+04  0.89880614289E+03 0.  0.
        -24    2    4    4    0    0  0.67285635140E+03 -0.19979184599E+03 -0.43368277736E+03  0.82901628608E+03  0.80838108989E+02 0.  0.
         24    2    4    4    0    0 -0.27190893595E+03  0.26020927360E+02 -0.83144176268E+02  0.29611381512E+03  0.78478527918E+02 0.  0.
         13    1    3    3    0    0 -0.10787126872E+03  0.42961436053E+02 -0.14954112120E+03  0.18932628589E+03  0.00000000000E+00 0.  1.
        -13    1    3    3    0    0 -0.29307614673E+03  0.13080948258E+03 -0.20668720535E+03  0.38173858774E+03  0.00000000000E+00 0. -1.
          2    1    6    6  502    0 -0.17890670217E+03  0.52093710473E+02 -0.41339564449E+02  0.19086728987E+03  0.00000000000E+00 0. -1.
          1    1    5    5  503    0  0.47214678125E+03 -0.15361823068E+03 -0.26500222079E+03  0.56280309245E+03  0.00000000000E+00 0. -1.
         -2    1    5    5    0  503  0.20070957014E+03 -0.46173615305E+02 -0.16868055657E+03  0.26621319363E+03  0.00000000000E+00 0.  1.
         -1    1    6    6    0  502 -0.93002233780E+02 -0.26072783113E+02 -0.41804611819E+02  0.10524652525E+03  0.00000000000E+00 0.  1.
<mgrwt>
<rscale>  0 0.14542530E+04</rscale>
<asrwt>0</asrwt>
<pdfrwt beam="1">  1        2 0.19763463E+00 0.14542530E+04</pdfrwt>
<pdfrwt beam="2">  1       -2 0.63318439E-01 0.14542530E+04</pdfrwt>
<totfact> 0.37787597E+01</totfact>
</mgrwt>
</event>
<event>
12    1  0.1201209E-007  0.2282194E+04  0.7818608E-02  0.8484975E-01
          2   -1    0    0  501    0  0.00000000000E+00  0.00000000000E+00  0.15928345170E+04  0.15928345170E+04  0.00000000000E+00 0. -1.
         -2   -1    0    0    0  501 -0.00000000000E+00 -0.00000000000E+00 -0.81747492562E+03  0.81747492562E+03  0.00000000000E+00 0.  1.
         23    2    1    2    0    0  0.93708660426E+02 -0.86164446483E+03 -0.11015144440E+03  0.87839959376E+03  0.90774494236E+02 0.  0.
        254    2    1    2    0    0 -0.93708660426E+02  0.86164446483E+03  0.88551103575E+03  0.15319098488E+04  0.90078049141E+03 0.  0.
        -24    2    4    4    0    0 -0.12412284265E+03 -0.10321783223E+03  0.42027496844E+03  0.45741477056E+03  0.80850617028E+02 0.  0.
         24    2    4    4    0    0  0.30414182222E+02  0.96486229706E+03  0.46523606731E+03  0.10744950783E+04  0.78808629800E+02 0.  0.
         11    1    3    3    0    0 -0.14094246949E+02 -0.43134978816E+02 -0.12479321515E+02  0.47063867882E+02  0.00000000000E+00 0. -1.
        -11    1    3    3    0    0  0.10780290737E+03 -0.81850948601E+03 -0.97672122883E+02  0.83133572588E+03  0.00000000000E+00 0.  1.
          4    1    6    6  502    0  0.47270134363E+02  0.79026569552E+03  0.40320320885E+03  0.88844086058E+03  0.00000000000E+00 0. -1.
          1    1    5    5  503    0 -0.13203438959E+03 -0.10646845230E+03  0.37839393062E+03  0.41466923939E+03  0.00000000000E+00 0. -1.
         -4    1    5    5    0  503  0.79115469471E+01  0.32506200654E+01  0.41881037822E+02  0.42745531169E+02  0.00000000000E+00 0.  1.
         -1    1    6    6    0  502 -0.16855952141E+02  0.17459660154E+03  0.62032858462E+02  0.18605421770E+03  0.00000000000E+00 0.  1.
<mgrwt>
<rscale>  0 0.22821939E+04</rscale>
<asrwt>0</asrwt>
<pdfrwt beam="1">  1        2 0.24505146E+00 0.22821939E+04</pdfrwt>
<pdfrwt beam="2">  1       -2 0.12576537E+00 0.22821939E+04</pdfrwt>
<totfact> 0.48260321E+00</totfact>
</mgrwt>
</event>
<event>
12    1  0.1201209E-007  0.2035392E+04  0.7818608E-02  0.8590250E-01
         -2   -1    0    0    0  501 -0.00000000000E+00  0.00000000000E+00  0.42621804667E+03  0.42621804667E+03  0.00000000000E+00 0.  1.
          2   -1    0    0  501    0  0.00000000000E+00 -0.00000000000E+00 -0.24299881201E+04  0.24299881201E+04  0.00000000000E+00 0. -1.
         23    2    1    2    0    0 -0.20091488175E+03  0.24083486587E+03  0.24783078757E+03  0.41172215358E+03  0.98624592018E+02 0.  0.
        254    2    1    2    0    0  0.20091488175E+03 -0.24083486587E+03 -0.22516008610E+04  0.24444840132E+04  0.89856965851E+03 0.  0.
        -24    2    4    4    0    0 -0.17558844667E+03 -0.42995228028E+01 -0.17827366278E+04  0.17934935846E+04  0.87290121472E+02 0.  0.
         24    2    4    4    0    0  0.37650332842E+03 -0.23653534307E+03 -0.46886423313E+03  0.65099042856E+03  0.79064177304E+02 0.  0.
         13    1    3    3    0    0 -0.16151698543E+03  0.15102262015E+03  0.12319132092E+03  0.25312382331E+03  0.00000000000E+00 0.  1.
        -13    1    3    3    0    0 -0.39397896328E+02  0.89812245716E+02  0.12463946665E+03  0.15859833026E+03  0.00000000000E+00 0. -1.
          2    1    6    6  502    0  0.39012617720E+02 -0.12415333968E+02 -0.17636082061E+02  0.44577530768E+02  0.00000000000E+00 0. -1.
          3    1    5    5  503    0  0.57688762119E+01 -0.85748283338E+01 -0.22363661524E+03  0.22387528513E+03  0.00000000000E+00 0. -1.
         -4    1    5    5    0  503 -0.18135732288E+03  0.42753055310E+01 -0.15591000126E+04  0.15696182995E+04  0.00000000000E+00 0.  1.
         -1    1    6    6    0  502  0.33749071070E+03 -0.22412000910E+03 -0.45122815107E+03  0.60641289779E+03  0.00000000000E+00 0.  1.
<mgrwt>
<rscale>  0 0.20353916E+04</rscale>
<asrwt>0</asrwt>
<pdfrwt beam="1">  1        2 0.37384432E+00 0.20353916E+04</pdfrwt>
<pdfrwt beam="2">  1       -2 0.65572008E-01 0.20353916E+04</pdfrwt>
<totfact> 0.75855441E+00</totfact>
</mgrwt>
</event>
<event>
12    1  0.1201209E-007  0.2818133E+04  0.7818608E-02  0.8297661E-01
         -2   -1    0    0    0  501 -0.00000000000E+00  0.00000000000E+00  0.22222593249E+04  0.22222593249E+04  0.00000000000E+00 0.  1.
          2   -1    0    0  501    0  0.00000000000E+00 -0.00000000000E+00 -0.89344579419E+03  0.89344579419E+03  0.00000000000E+00 0. -1.
         23    2    1    2    0    0  0.11406836492E+04 -0.50404014271E+03  0.71356222062E+03  0.14395724614E+04  0.89343023328E+02 0.  0.
        254    2    1    2    0    0 -0.11406836492E+04  0.50404014271E+03  0.61525131010E+03  0.16761326577E+04  0.93577286702E+03 0.  0.
        -24    2    4    4    0    0 -0.39590370787E+03  0.61788647991E+03  0.67430424698E+02  0.74123617113E+03  0.79754318071E+02 0.  0.
         24    2    4    4    0    0 -0.74477994134E+03 -0.11384633721E+03  0.54782088541E+03  0.93489648659E+03  0.79155344952E+02 0.  0.
         11    1    3    3    0    0  0.43853264038E+03 -0.18619307759E+03  0.32235018090E+03  0.57522897871E+03  0.00000000000E+00 0. -1.
        -11    1    3    3    0    0  0.70215100884E+03 -0.31784706511E+03  0.39121203973E+03  0.86434348267E+03  0.00000000000E+00 0.  1.
          4    1    6    6  502    0 -0.36879948308E+02 -0.23989970621E+02  0.31393112139E+02  0.54047911776E+02  0.00000000000E+00 0. -1.
          1    1    5    5  503    0 -0.78765554302E+02  0.75398401105E+02  0.21804523581E+02  0.11119518282E+03  0.00000000000E+00 0. -1.
         -2    1    5    5    0  503 -0.31713815357E+03  0.54248807881E+03  0.45625901117E+02  0.63004098831E+03  0.00000000000E+00 0.  1.
         -3    1    6    6    0  502 -0.70789999303E+03 -0.89856366586E+02  0.51642777327E+03  0.88084857482E+03  0.00000000000E+00 0.  1.
<mgrwt>
<rscale>  0 0.28181329E+04</rscale>
<asrwt>0</asrwt>
<pdfrwt beam="1">  1        2 0.13745320E+00 0.28181329E+04</pdfrwt>
<pdfrwt beam="2">  1       -2 0.34188605E+00 0.28181329E+04</pdfrwt>
<totfact> 0.45036214E-01</totfact>
</mgrwt>
</event>
<event>
12    1  0.1201209E-007  0.1193025E+04  0.7818608E-02  0.9118983E-01
         -1   -1    0    0    0  501 -0.00000000000E+00  0.00000000000E+00  0.11597535556E+03  0.11597535556E+03  0.00000000000E+00 0.  1.
          1   -1    0    0  501    0  0.00000000000E+00 -0.00000000000E+00 -0.30681290392E+04  0.30681290392E+04  0.00000000000E+00 0. -1.
         23    2    1    2    0    0  0.30954390483E+02  0.16723331614E+03 -0.11707906040E+04  0.11865390404E+04  0.90548880478E+02 0.  0.
        254    2    1    2    0    0 -0.30954390483E+02 -0.16723331614E+03 -0.17813630796E+04  0.19975653543E+04  0.88774307485E+03 0.  0.
        -24    2    4    4    0    0  0.22290369613E+03  0.23046821717E+03 -0.11992298996E+04  0.12440974707E+04  0.82610578150E+02 0.  0.
         24    2    4    4    0    0 -0.25385808661E+03 -0.39770153332E+03 -0.58213318003E+03  0.75346788361E+03  0.78894705821E+02 0.  0.
         13    1    3    3    0    0  0.20946258485E+02  0.47716016432E+02 -0.15139996502E+03  0.16011718639E+03  0.00000000000E+00 0.  1.
        -13    1    3    3    0    0  0.10008131998E+02  0.11951729971E+03 -0.10193906390E+04  0.10264218541E+04  0.00000000000E+00 0. -1.
          4    1    6    6  502    0 -0.10691978379E+03 -0.22019954188E+03 -0.34290196148E+03  0.42130919002E+03  0.00000000000E+00 0. -1.
          1    1    5    5  503    0  0.18035696299E+03  0.21078396132E+03 -0.91847204602E+03  0.95945266260E+03  0.00000000000E+00 0. -1.
         -2    1    5    5    0  503  0.42546733135E+02  0.19684255850E+02 -0.28075785357E+03  0.28464480809E+03  0.00000000000E+00 0.  1.
         -3    1    6    6    0  502 -0.14693830282E+03 -0.17750199144E+03 -0.23923121854E+03  0.33215869359E+03  0.00000000000E+00 0.  1.
<mgrwt>
<rscale>  0 0.11930253E+04</rscale>
<asrwt>0</asrwt>
<pdfrwt beam="1">  1        1 0.47201984E+00 0.11930253E+04</pdfrwt>
<pdfrwt beam="2">  1       -1 0.17842363E-01 0.11930253E+04</pdfrwt>
<totfact> 0.13243290E+01</totfact>
</mgrwt>
</event>
<event>
12    1  0.1201209E-007  0.1479158E+04  0.7818608E-02  0.8898432E-01
          2   -1    0    0  501    0  0.00000000000E+00  0.00000000000E+00  0.11602097822E+04  0.11602097822E+04  0.00000000000E+00 0. -1.
         -2   -1    0    0    0  501 -0.00000000000E+00 -0.00000000000E+00 -0.47144641601E+03  0.47144641601E+03  0.00000000000E+00 0.  1.
         23    2    1    2    0    0  0.38920070751E+03 -0.18450066091E+03  0.46078642629E+03  0.63711052285E+03  0.89822063423E+02 0.  0.
        254    2    1    2    0    0 -0.38920070751E+03  0.18450066091E+03  0.22797693991E+03  0.99454567536E+03  0.86696593396E+03 0.  0.
        -24    2    4    4    0    0  0.10291116447E+02 -0.31130429777E+03  0.12159872283E+03  0.34383646153E+03  0.80131080086E+02 0.  0.
         24    2    4    4    0    0 -0.39949182395E+03  0.49580495868E+03  0.10637821708E+03  0.65070921383E+03  0.81791695426E+02 0.  0.
         11    1    3    3    0    0  0.38654604827E+03 -0.17758380955E+03  0.46359676504E+03  0.62918663162E+03  0.00000000000E+00 0. -1.
        -11    1    3    3    0    0  0.26546592358E+01 -0.69168513592E+01 -0.28103387543E+01  0.79238912345E+01  0.00000000000E+00 0.  1.
          4    1    6    6  502    0 -0.17033985767E+03  0.26082442049E+03  0.24801471163E+02  0.31250625339E+03  0.00000000000E+00 0. -1.
          3    1    5    5  503    0  0.31874981338E+02 -0.25700149810E+03  0.76534328434E+02  0.27004312227E+03  0.00000000000E+00 0. -1.
         -4    1    5    5    0  503 -0.21583864891E+02 -0.54302799671E+02  0.45064394397E+02  0.73793339253E+02  0.00000000000E+00 0.  1.
         -3    1    6    6    0  502 -0.22915196628E+03  0.23498053819E+03  0.81576745913E+02  0.33820296044E+03  0.00000000000E+00 0.  1.
<mgrwt>
<rscale>  0 0.14791575E+04</rscale>
<asrwt>0</asrwt>
<pdfrwt beam="1">  1        2 0.17849381E+00 0.14791575E+04</pdfrwt>
<pdfrwt beam="2">  1       -2 0.72530218E-01 0.14791575E+04</pdfrwt>
<totfact> 0.33308847E+01</totfact>
</mgrwt>
</event>
<event>
12    1  0.1201209E-007  0.1559994E+04  0.7818608E-02  0.8845509E-01
         -2   -1    0    0    0  501 -0.00000000000E+00  0.00000000000E+00  0.13512726505E+04  0.13512726505E+04  0.00000000000E+00 0.  1.
          2   -1    0    0  501    0  0.00000000000E+00 -0.00000000000E+00 -0.45023860122E+03  0.45023860122E+03  0.00000000000E+00 0. -1.
         23    2    1    2    0    0 -0.41623503368E+03 -0.29376494367E+03  0.38053640865E+03  0.64307185925E+03  0.95833253442E+02 0.  0.
        254    2    1    2    0    0  0.41623503368E+03  0.29376494367E+03  0.52049764066E+03  0.11584393925E+04  0.90084104411E+03 0.  0.
        -24    2    4    4    0    0  0.46805040610E+03 -0.20112686359E+03  0.16351833459E+03  0.54032632075E+03  0.75439308331E+02 0.  0.
         24    2    4    4    0    0 -0.51815372417E+02  0.49489180726E+03  0.35697930607E+03  0.61811307174E+03  0.83826074619E+02 0.  0.
         13    1    3    3    0    0 -0.20695924334E+03 -0.18683892794E+03  0.24863085305E+03  0.37357491148E+03  0.00000000000E+00 0. -1.
        -13    1    3    3    0    0 -0.20927579034E+03 -0.10692601573E+03  0.13190555559E+03  0.26949694777E+03  0.00000000000E+00 0.  1.
          2    1    6    6  502    0 -0.20735031026E+02  0.44364047604E+03  0.30493090968E+03  0.53872968469E+03  0.00000000000E+00 0. -1.
          1    1    5    5  503    0  0.41467262891E+03 -0.17622599180E+03  0.16889689626E+03  0.48118099601E+03  0.00000000000E+00 0. -1.
         -2    1    5    5    0  503  0.53377777186E+02 -0.24900871795E+02 -0.53785616633E+01  0.59145324744E+02  0.00000000000E+00 0.  1.
         -1    1    6    6    0  502 -0.31080341391E+02  0.51251331228E+02  0.52048396390E+02  0.79383387055E+02  0.00000000000E+00 0.  1.
<mgrwt>
<rscale>  0 0.15599937E+04</rscale>
<asrwt>0</asrwt>
<pdfrwt beam="1">  1        2 0.69267478E-01 0.15599937E+04</pdfrwt>
<pdfrwt beam="2">  1       -2 0.20788810E+00 0.15599937E+04</pdfrwt>
<totfact> 0.78921435E+00</totfact>
</mgrwt>
</event>
<event>
12    1  0.1201209E-007  0.1202501E+04  0.7818608E-02  0.9110670E-01
          1   -1    0    0  501    0  0.00000000000E+00  0.00000000000E+00  0.21572894682E+04  0.21572894682E+04  0.00000000000E+00 0. -1.
         -1   -1    0    0    0  501 -0.00000000000E+00 -0.00000000000E+00 -0.16757242057E+03  0.16757242057E+03  0.00000000000E+00 0.  1.
         23    2    1    2    0    0  0.22603800962E+03 -0.11190097580E+03  0.50709827360E+03  0.57263531335E+03  0.84543082727E+02 0.  0.
        254    2    1    2    0    0 -0.22603800962E+03  0.11190097580E+03  0.14826187740E+04  0.17522265754E+04  0.89917992207E+03 0.  0.
        -24    2    4    4    0    0 -0.24260434439E+03  0.21822518799E+03  0.15613759008E+04  0.15971718480E+04  0.81142516589E+02 0.  0.
         24    2    4    4    0    0  0.16566334768E+02 -0.10632421219E+03 -0.78757126747E+02  0.15505472738E+03  0.79120173945E+02 0.  0.
         13    1    3    3    0    0  0.22964396054E+03 -0.10446068922E+03  0.45838863761E+03  0.52322894348E+03  0.00000000000E+00 0.  1.
        -13    1    3    3    0    0 -0.36059509164E+01 -0.74402865867E+01  0.48709635983E+02  0.49406369874E+02  0.00000000000E+00 0. -1.
          2    1    6    6  502    0  0.91475193546E+01  0.11734776230E+02 -0.12740227560E+02  0.19588146461E+02  0.00000000000E+00 0. -1.
          3    1    5    5  503    0 -0.13290418673E+03  0.66478116068E+02  0.65243548040E+03  0.66914491618E+03  0.00000000000E+00 0. -1.
         -4    1    5    5    0  503 -0.10970015766E+03  0.15174707192E+03  0.90894042038E+03  0.92802693184E+03  0.00000000000E+00 0.  1.
         -1    1    6    6    0  502  0.74188154130E+01 -0.11805898842E+03 -0.66016899187E+02  0.13546658092E+03  0.00000000000E+00 0.  1.
<mgrwt>
<rscale>  0 0.12025011E+04</rscale>
<asrwt>0</asrwt>
<pdfrwt beam="1">  1        1 0.33189067E+00 0.12025011E+04</pdfrwt>
<pdfrwt beam="2">  1       -1 0.25780374E-01 0.12025011E+04</pdfrwt>
<totfact> 0.30719034E+01</totfact>
</mgrwt>
</event>
<event>
12    1  0.1201209E-007  0.1271542E+04  0.7818608E-02  0.9052442E-01
          1   -1    0    0  501    0  0.00000000000E+00  0.00000000000E+00  0.43646862343E+03  0.43646862343E+03  0.00000000000E+00 0. -1.
         -1   -1    0    0    0  501 -0.00000000000E+00 -0.00000000000E+00 -0.92607943156E+03  0.92607943156E+03  0.00000000000E+00 0.  1.
         23    2    1    2    0    0  0.95063784503E+02  0.26571874566E+03  0.33003120721E+01  0.29589286355E+03  0.88871366156E+02 0.  0.
        254    2    1    2    0    0 -0.95063784503E+02 -0.26571874566E+03 -0.49291112020E+03  0.10666551914E+04  0.90285566404E+03 0.  0.
        -24    2    4    4    0    0  0.73028561686E+02  0.29095078206E+03 -0.15424776983E+02  0.31005032951E+03  0.76861919558E+02 0.  0.
         24    2    4    4    0    0 -0.16809234619E+03 -0.55666952772E+03 -0.47748634322E+03  0.75660486193E+03  0.79509176837E+02 0.  0.
         11    1    3    3    0    0  0.35748206135E+02  0.15753637945E+03 -0.37699721463E+02  0.16588222958E+03  0.00000000000E+00 0.  1.
        -11    1    3    3    0    0  0.59315578369E+02  0.10818236621E+03  0.41000033535E+02  0.13001063397E+03  0.00000000000E+00 0. -1.
          4    1    6    6  502    0 -0.74662286129E+01 -0.33460709246E+00 -0.33205228139E+01  0.81781662593E+01  0.00000000000E+00 0. -1.
          1    1    5    5  503    0 -0.67225717212E+01  0.21939928900E+02 -0.18460098033E+02  0.29450444310E+02  0.00000000000E+00 0. -1.
         -2    1    5    5    0  503  0.79751133407E+02  0.26901085316E+03  0.30353210503E+01  0.28059988520E+03  0.00000000000E+00 0.  1.
         -3    1    6    6    0  502 -0.16062611758E+03 -0.55633492063E+03 -0.47416582041E+03  0.74842669567E+03  0.00000000000E+00 0.  1.
<mgrwt>
<rscale>  0 0.12715418E+04</rscale>
<asrwt>0</asrwt>
<pdfrwt beam="1">  1        1 0.67149019E-01 0.12715418E+04</pdfrwt>
<pdfrwt beam="2">  1       -1 0.14247376E+00 0.12715418E+04</pdfrwt>
<totfact> 0.21035623E+01</totfact>
</mgrwt>
</event>
<event>
12    1  0.1201209E-007  0.1648701E+04  0.7818608E-02  0.8791176E-01
         -2   -1    0    0    0  501 -0.00000000000E+00  0.00000000000E+00  0.29458644432E+03  0.29458644432E+03  0.00000000000E+00 0. -1.
          2   -1    0    0  501    0  0.00000000000E+00 -0.00000000000E+00 -0.23068049345E+04  0.23068049345E+04  0.00000000000E+00 0.  1.
         23    2    1    2    0    0 -0.32232962436E+02 -0.45517123904E+03 -0.15938673145E+03  0.49176570638E+03  0.90606617270E+02 0.  0.
        254    2    1    2    0    0  0.32232962436E+02  0.45517123904E+03 -0.18528317587E+04  0.21096256724E+04  0.89961943672E+03 0.  0.
        -24    2    4    4    0    0  0.18975413784E+03 -0.20962842741E+03 -0.35238337266E+03  0.45888442425E+03  0.80312907373E+02 0.  0.
         24    2    4    4    0    0 -0.15752117540E+03  0.66479966645E+03 -0.15004483861E+04  0.16507412482E+04  0.82642555461E+02 0.  0.
         13    1    3    3    0    0  0.61417117454E+01 -0.36727117271E+03 -0.14441926713E+03  0.39469324752E+03  0.00000000000E+00 0. -1.
        -13    1    3    3    0    0 -0.38374674181E+02 -0.87900066338E+02 -0.14967464320E+02  0.97072458859E+02  0.00000000000E+00 0.  1.
          2    1    6    6  502    0 -0.72999596672E+02  0.46845369881E+03 -0.10569907193E+04  0.11584503398E+04  0.00000000000E+00 0. -1.
          1    1    5    5  503    0  0.18782000585E+03 -0.20054044904E+03 -0.30462535561E+03  0.41023095151E+03  0.00000000000E+00 0. -1.
         -2    1    5    5    0  503  0.19341319909E+01 -0.90879783704E+01 -0.47758017048E+02  0.48653472741E+02  0.00000000000E+00 0.  1.
         -1    1    6    6    0  502 -0.84521578730E+02  0.19634596764E+03 -0.44345766674E+03  0.49229090837E+03  0.00000000000E+00 0.  1.
<mgrwt>
<rscale>  0 0.16487007E+04</rscale>
<asrwt>0</asrwt>
<pdfrwt beam="1">  1        2 0.35489305E+00 0.16487007E+04</pdfrwt>
<pdfrwt beam="2">  1       -2 0.45320994E-01 0.16487007E+04</pdfrwt>
<totfact> 0.19839748E+01</totfact>
</mgrwt>
</event>
<event>
12    1  0.1546265E-007  0.2879243E+04  0.7818608E-02  0.8279080E-01
         -2   -1    0    0    0  501 -0.00000000000E+00  0.00000000000E+00  0.97817537527E+03  0.97817537527E+03  0.00000000000E+00 0.  1.
          2   -1    0    0  501    0  0.00000000000E+00 -0.00000000000E+00 -0.21187515898E+04  0.21187515898E+04  0.00000000000E+00 0. -1.
         23    2    1    2    0    0 -0.45301526124E+03  0.10292785384E+04 -0.12062556575E+04  0.16517110306E+04  0.91975436020E+02 0.  0.
        254    2    1    2    0    0  0.45301526124E+03 -0.10292785384E+04  0.65679442890E+02  0.14452159345E+04  0.90537184167E+03 0.  0.
        -24    2    4    4    0    0  0.29036589485E+03 -0.12635216998E+03  0.35275797325E+03  0.48078337867E+03  0.80232448320E+02 0.  0.
         24    2    4    4    0    0  0.16264936639E+03 -0.90292636841E+03 -0.28707853036E+03  0.96443255586E+03  0.77364262169E+02 0.  0.
         13    1    3    3    0    0 -0.45693002556E+03  0.10116365692E+04 -0.11906630056E+04  0.16278427410E+04  0.00000000000E+00 0.  1.
        -13    1    3    3    0    0  0.39147643193E+01  0.17641969158E+02 -0.15592651822E+02  0.23868289555E+02  0.00000000000E+00 0. -1.
          4    1    6    6  502    0  0.15538931181E+03 -0.87940134563E+03 -0.26539673592E+03  0.93162653051E+03  0.00000000000E+00 0. -1.
          3    1    5    5  503    0  0.28364505310E+03 -0.11312060100E+03  0.35189255465E+03  0.46591754263E+03  0.00000000000E+00 0. -1.
         -4    1    5    5    0  503  0.67208417526E+01 -0.13231568983E+02  0.86541859660E+00  0.14865836033E+02  0.00000000000E+00 0.  1.
         -3    1    6    6    0  502  0.72600545745E+01 -0.23525022784E+02 -0.21681794438E+02  0.32806025353E+02  0.00000000000E+00 0.  1.
<mgrwt>
<rscale>  0 0.28792434E+04</rscale>
<asrwt>0</asrwt>
<pdfrwt beam="1">  1        2 0.32596178E+00 0.28792434E+04</pdfrwt>
<pdfrwt beam="2">  1       -2 0.15048852E+00 0.28792434E+04</pdfrwt>
<totfact> 0.14729428E+00</totfact>
</mgrwt>
</event>
<event>
12    1  0.1201209E-007  0.2799611E+04  0.7818608E-02  0.8303389E-01
         -2   -1    0    0    0  501 -0.00000000000E+00  0.00000000000E+00  0.14587988152E+04  0.14587988152E+04  0.00000000000E+00 0.  1.
          2   -1    0    0  501    0  0.00000000000E+00 -0.00000000000E+00 -0.13431980668E+04  0.13431980668E+04  0.00000000000E+00 0. -1.
         23    2    1    2    0    0  0.25449246290E+03 -0.99261169242E+03  0.76457237695E+03  0.12815074695E+04  0.87441919322E+02 0.  0.
        254    2    1    2    0    0 -0.25449246290E+03  0.99261169242E+03 -0.64897162852E+03  0.15204894124E+04  0.91688575793E+03 0.  0.
        -24    2    4    4    0    0 -0.55727035772E+03  0.37960988143E+03 -0.24331225103E+03  0.72129297111E+03  0.80054887400E+02 0.  0.
         24    2    4    4    0    0  0.30277789482E+03  0.61300181099E+03 -0.40565937749E+03  0.79919644133E+03  0.81913047892E+02 0.  0.
         11    1    3    3    0    0  0.49191337821E+01 -0.11021113178E+01  0.85099051195E+01  0.98909560541E+01  0.00000000000E+00 0. -1.
        -11    1    3    3    0    0  0.24957332912E+03 -0.99150958110E+03  0.75606247183E+03  0.12716165135E+04  0.00000000000E+00 0.  1.
          2    1    6    6  502    0  0.15719883910E+03  0.26969225120E+03 -0.22526355328E+03  0.38495331380E+03  0.00000000000E+00 0. -1.
          3    1    5    5  503    0 -0.28900885338E+02  0.18449799757E+01 -0.47614606481E+01  0.29348537134E+02  0.00000000000E+00 0. -1.
         -4    1    5    5    0  503 -0.52836947238E+03  0.37776490145E+03 -0.23855079038E+03  0.69194443398E+03  0.00000000000E+00 0.  1.
         -1    1    6    6    0  502  0.14557905572E+03  0.34330955979E+03 -0.18039582421E+03  0.41424312752E+03  0.00000000000E+00 0.  1.
<mgrwt>
<rscale>  0 0.27996112E+04</rscale>
<asrwt>0</asrwt>
<pdfrwt beam="1">  1        2 0.20664586E+00 0.27996112E+04</pdfrwt>
<pdfrwt beam="2">  1       -2 0.22443059E+00 0.27996112E+04</pdfrwt>
<totfact> 0.12581772E+00</totfact>
</mgrwt>
</event>
<event>
12    1  0.1201209E-007  0.5045992E+04  0.7818608E-02  0.7821451E-01
          2   -1    0    0  501    0  0.00000000000E+00  0.00000000000E+00  0.42165420293E+04  0.42165420293E+04  0.00000000000E+00 0. -1.
         -2   -1    0    0    0  501 -0.00000000000E+00 -0.00000000000E+00 -0.15096513914E+04  0.15096513914E+04  0.00000000000E+00 0.  1.
         23    2    1    2    0    0  0.13273890776E+04  0.78259258743E+03 -0.84207075336E+03  0.17581411892E+04  0.86973366228E+02 0.  0.
        254    2    1    2    0    0 -0.13273890776E+04 -0.78259258743E+03  0.35489613913E+04  0.39680522315E+04  0.88085108508E+03 0.  0.
        -24    2    4    4    0    0 -0.27958553332E+03 -0.28275657507E+03  0.19400701996E+04  0.19821048477E+04  0.82145581916E+02 0.  0.
         24    2    4    4    0    0 -0.10478035442E+04 -0.49983601236E+03  0.16088911917E+04  0.19859473838E+04  0.87908123020E+02 0.  0.
         11    1    3    3    0    0  0.11954041456E+04  0.70074837628E+03 -0.72651225517E+03  0.15645636500E+04  0.00000000000E+00 0.  1.
        -11    1    3    3    0    0  0.13198493198E+03  0.81844211148E+02 -0.11555849818E+03  0.19357753917E+03  0.00000000000E+00 0. -1.
          4    1    6    6  502    0 -0.53662059155E+03 -0.22164889121E+03  0.75032415948E+03  0.94872347633E+03  0.00000000000E+00 0. -1.
          3    1    5    5  503    0 -0.14172904694E+03 -0.10741759962E+03  0.10199153474E+04  0.10353033272E+04  0.00000000000E+00 0. -1.
         -4    1    5    5    0  503 -0.13785648638E+03 -0.17533897545E+03  0.92015485222E+03  0.94680152049E+03  0.00000000000E+00 0.  1.
         -3    1    6    6    0  502 -0.51118295269E+03 -0.27818712115E+03  0.85856703218E+03  0.10372239075E+04  0.00000000000E+00 0.  1.
<mgrwt>
<rscale>  0 0.50459919E+04</rscale>
<asrwt>0</asrwt>
<pdfrwt beam="1">  1        2 0.64869877E+00 0.50459919E+04</pdfrwt>
<pdfrwt beam="2">  1       -2 0.23225406E+00 0.50459919E+04</pdfrwt>
<totfact> 0.13416811E-02</totfact>
</mgrwt>
</event>
<event>
12    1  0.1341743E-007  0.1512409E+04  0.7818608E-02  0.8876243E-01
          2   -1    0    0  501    0  0.00000000000E+00  0.00000000000E+00  0.16119680220E+04  0.16119680220E+04  0.00000000000E+00 0. -1.
         -2   -1    0    0    0  501 -0.00000000000E+00 -0.00000000000E+00 -0.35474969824E+03  0.35474969824E+03  0.00000000000E+00 0.  1.
         23    2    1    2    0    0  0.15891076764E+03  0.39502552656E+03  0.11189584950E+03  0.44993628223E+03  0.92866453719E+02 0.  0.
        254    2    1    2    0    0 -0.15891076764E+03 -0.39502552656E+03  0.11453224743E+04  0.15167814380E+04  0.89864596029E+03 0.  0.
        -24    2    4    4    0    0 -0.36293981461E+03 -0.58068432972E+03  0.66915815843E+03  0.96080526054E+03  0.80339951950E+02 0.  0.
         24    2    4    4    0    0  0.20402904697E+03  0.18565880316E+03  0.47616431588E+03  0.55597617751E+03  0.79246520679E+02 0.  0.
         13    1    3    3    0    0  0.25404749996E+02  0.11863575558E+03  0.70203879111E+02  0.14017285210E+03  0.00000000000E+00 0. -1.
        -13    1    3    3    0    0  0.13350601764E+03  0.27638977098E+03  0.41691970385E+02  0.30976343012E+03  0.00000000000E+00 0.  1.
          2    1    6    6  502    0  0.20215844450E+03  0.16722184766E+03  0.40588570070E+03  0.48329533936E+03  0.00000000000E+00 0. -1.
          3    1    5    5  503    0 -0.36409962053E+03 -0.56790122464E+03  0.64439012882E+03  0.93290887697E+03  0.00000000000E+00 0. -1.
         -4    1    5    5    0  503  0.11598059244E+01 -0.12783105086E+02  0.24768029613E+02  0.27896383571E+02  0.00000000000E+00 0.  1.
         -1    1    6    6    0  502  0.18706024701E+01  0.18436955500E+02  0.70278615180E+02  0.72680838144E+02  0.00000000000E+00 0.  1.
<mgrwt>
<rscale>  0 0.15124089E+04</rscale>
<asrwt>0</asrwt>
<pdfrwt beam="1">  1        2 0.24799508E+00 0.15124089E+04</pdfrwt>
<pdfrwt beam="2">  1       -2 0.54576878E-01 0.15124089E+04</pdfrwt>
<totfact> 0.33483867E+01</totfact>
</mgrwt>
</event>
<event>
12    1  0.1201209E-007  0.1670176E+04  0.7818608E-02  0.8778559E-01
         -2   -1    0    0    0  501 -0.00000000000E+00  0.00000000000E+00  0.11790072934E+04  0.11790072934E+04  0.00000000000E+00 0.  1.
          2   -1    0    0  501    0  0.00000000000E+00 -0.00000000000E+00 -0.59149058102E+03  0.59149058102E+03  0.00000000000E+00 0. -1.
         23    2    1    2    0    0 -0.37912154465E+03  0.25487270694E+03  0.60302610512E+03  0.76197382045E+03  0.90941614450E+02 0.  0.
        254    2    1    2    0    0  0.37912154465E+03 -0.25487270694E+03 -0.15509392716E+02  0.10085240540E+04  0.89899220455E+03 0.  0.
        -24    2    4    4    0    0 -0.25048467261E+03  0.99658064622E+02 -0.18485328309E+02  0.28197346109E+03  0.80579304660E+02 0.  0.
         24    2    4    4    0    0  0.62960621726E+03 -0.35453077156E+03  0.29759355931E+01  0.72655059290E+03  0.75966117787E+02 0.  0.
         13    1    3    3    0    0 -0.28219758974E+02 -0.35306284183E+01  0.53904265895E+02  0.60946616110E+02  0.00000000000E+00 0. -1.
        -13    1    3    3    0    0 -0.35090178568E+03  0.25840333536E+03  0.54912183922E+03  0.70102720434E+03  0.00000000000E+00 0.  1.
          4    1    6    6  502    0  0.64752363826E+02 -0.14124422155E+02  0.99435982455E+01  0.67016737225E+02  0.00000000000E+00 0. -1.
          1    1    5    5  503    0 -0.95091468846E+01  0.44613310348E+01 -0.20314462803E+02  0.22869297060E+02  0.00000000000E+00 0. -1.
         -2    1    5    5    0  503 -0.24097552572E+03  0.95196733588E+02  0.18291344936E+01  0.25910416403E+03  0.00000000000E+00 0.  1.
         -3    1    6    6    0  502  0.56485385343E+03 -0.34040634941E+03 -0.69676626524E+01  0.65953385567E+03  0.00000000000E+00 0.  1.
<mgrwt>
<rscale>  0 0.16701757E+04</rscale>
<asrwt>0</asrwt>
<pdfrwt beam="1">  1        2 0.90998551E-01 0.16701757E+04</pdfrwt>
<pdfrwt beam="2">  1       -2 0.18138574E+00 0.16701757E+04</pdfrwt>
<totfact> 0.85288946E+00</totfact>
</mgrwt>
</event>
<event>
12    1  0.1201209E-007  0.3600409E+04  0.7818608E-02  0.8090398E-01
          2   -1    0    0  501    0  0.00000000000E+00  0.00000000000E+00  0.21073649442E+04  0.21073649442E+04  0.00000000000E+00 0. -1.
         -2   -1    0    0    0  501 -0.00000000000E+00 -0.00000000000E+00 -0.15378148565E+04  0.15378148565E+04  0.00000000000E+00 0.  1.
         23    2    1    2    0    0  0.16163841782E+04 -0.44474296502E+03  0.21230090754E+03  0.16923945369E+04  0.92916503739E+02 0.  0.
        254    2    1    2    0    0 -0.16163841782E+04  0.44474296502E+03  0.35724918020E+03  0.19527852638E+04  0.93554753672E+03 0.  0.
        -24    2    4    4    0    0 -0.57996344702E+03  0.56068788294E+03  0.40384287364E+03  0.90561151218E+03  0.79464724473E+02 0.  0.
         24    2    4    4    0    0 -0.10364207312E+04 -0.11594491793E+03 -0.46593693444E+02  0.10471737517E+04  0.82405933606E+02 0.  0.
         13    1    3    3    0    0  0.14792953928E+04 -0.38273233188E+03  0.20569966364E+03  0.15417883281E+04  0.00000000000E+00 0.  1.
        -13    1    3    3    0    0  0.13708878536E+03 -0.62010633139E+02  0.66012438977E+01  0.15060620875E+03  0.00000000000E+00 0. -1.
          2    1    6    6  502    0 -0.53326023549E+03 -0.25876541513E+02  0.94285846382E-01  0.53388770640E+03  0.00000000000E+00 0. -1.
          3    1    5    5  503    0 -0.33654291362E+03  0.36048531211E+03  0.27898484142E+03  0.56660686079E+03  0.00000000000E+00 0. -1.
         -4    1    5    5    0  503 -0.24342053340E+03  0.20020257083E+03  0.12485803222E+03  0.33900465138E+03  0.00000000000E+00 0.  1.
         -1    1    6    6    0  502 -0.50316049570E+03 -0.90068376414E+02 -0.46687979290E+02  0.51328604527E+03  0.00000000000E+00 0.  1.
<mgrwt>
<rscale>  0 0.36004095E+04</rscale>
<asrwt>0</asrwt>
<pdfrwt beam="1">  1        2 0.32420999E+00 0.36004095E+04</pdfrwt>
<pdfrwt beam="2">  1       -2 0.23658690E+00 0.36004095E+04</pdfrwt>
<totfact> 0.36897529E-01</totfact>
</mgrwt>
</event>
<event>
12    1  0.1201209E-007  0.1918429E+04  0.7818608E-02  0.8645737E-01
         -2   -1    0    0    0  501 -0.00000000000E+00  0.00000000000E+00  0.39298204463E+03  0.39298204463E+03  0.00000000000E+00 0.  1.
          2   -1    0    0  501    0  0.00000000000E+00 -0.00000000000E+00 -0.23413084558E+04  0.23413084558E+04  0.00000000000E+00 0. -1.
         23    2    1    2    0    0 -0.20727668888E+03  0.68141238959E+02  0.25361672586E+03  0.34760543780E+03  0.94346396595E+02 0.  0.
        254    2    1    2    0    0  0.20727668888E+03 -0.68141238959E+02 -0.22019431371E+04  0.23866850627E+04  0.89448597269E+03 0.  0.
        -24    2    4    4    0    0  0.96668152005E+02  0.17072732571E+03 -0.20715804063E+04  0.20823739049E+04  0.79643888205E+02 0.  0.
         24    2    4    4    0    0  0.11060853688E+03 -0.23886856467E+03 -0.13036273078E+03  0.30431115773E+03  0.79488360950E+02 0.  0.
         11    1    3    3    0    0 -0.12479220369E+03  0.56168766982E+02  0.89447166187E+02  0.16348951045E+03  0.00000000000E+00 0. -1.
        -11    1    3    3    0    0 -0.82484485190E+02  0.11972471977E+02  0.16416955967E+03  0.18411592735E+03  0.00000000000E+00 0.  1.
          2    1    6    6  502    0  0.21270075224E+02 -0.76474493653E+02 -0.78976837855E+02  0.11197368082E+03  0.00000000000E+00 0. -1.
          1    1    5    5  503    0 -0.11778714554E+02  0.28704535834E+02 -0.42329327379E+03  0.42442889172E+03  0.00000000000E+00 0. -1.
         -2    1    5    5    0  503  0.10844686656E+03  0.14202278988E+03 -0.16482871325E+04  0.16579450132E+04  0.00000000000E+00 0.  1.
         -1    1    6    6    0  502  0.89338461653E+02 -0.16239407102E+03 -0.51385892923E+02  0.19233747691E+03  0.00000000000E+00 0.  1.
<mgrwt>
<rscale>  0 0.19184287E+04</rscale>
<asrwt>0</asrwt>
<pdfrwt beam="1">  1        2 0.36020131E+00 0.19184287E+04</pdfrwt>
<pdfrwt beam="2">  1       -2 0.60458774E-01 0.19184287E+04</pdfrwt>
<totfact> 0.10239574E+01</totfact>
</mgrwt>
</event>
<event>
12    1  0.1201209E-007  0.1645090E+04  0.7818608E-02  0.8793316E-01
         -1   -1    0    0    0  501 -0.00000000000E+00  0.00000000000E+00  0.14042403419E+04  0.14042403419E+04  0.00000000000E+00 0.  1.
          1   -1    0    0  501    0  0.00000000000E+00 -0.00000000000E+00 -0.48181236225E+03  0.48181236225E+03  0.00000000000E+00 0. -1.
         23    2    1    2    0    0 -0.15399139955E+03 -0.26715436254E+03  0.81423169622E+03  0.87534766792E+03  0.90418361131E+02 0.  0.
        254    2    1    2    0    0  0.15399139955E+03  0.26715436254E+03  0.10819628346E+03  0.10107050363E+04  0.95641697498E+03 0.  0.
        -24    2    4    4    0    0 -0.11189929191E+03  0.49897708360E+03 -0.18014253709E+03  0.54811345630E+03  0.80482580879E+02 0.  0.
         24    2    4    4    0    0  0.26589069147E+03 -0.23182272105E+03  0.28833882055E+03  0.46259157997E+03  0.80075343372E+02 0.  0.
         11    1    3    3    0    0 -0.58709156098E+02 -0.86662125335E+02  0.17082673869E+03  0.20034685829E+03  0.00000000000E+00 0.  1.
        -11    1    3    3    0    0 -0.95282243456E+02 -0.18049223721E+03  0.64340495754E+03  0.67500080962E+03  0.00000000000E+00 0. -1.
          2    1    6    6  502    0  0.95037782333E+00 -0.26569164383E+02  0.20718918831E+02  0.33706042657E+02  0.00000000000E+00 0. -1.
          1    1    5    5  503    0 -0.10745754565E+02  0.58188346792E+01 -0.12570283982E+02  0.17531175591E+02  0.00000000000E+00 0. -1.
         -2    1    5    5    0  503 -0.10115353735E+03  0.49315824892E+03 -0.16757225310E+03  0.53058228071E+03  0.00000000000E+00 0.  1.
         -1    1    6    6    0  502  0.26494031364E+03 -0.20525355667E+03  0.26761990172E+03  0.42888553731E+03  0.00000000000E+00 0.  1.
<mgrwt>
<rscale>  0 0.16450901E+04</rscale>
<asrwt>0</asrwt>
<pdfrwt beam="1">  1        1 0.74124979E-01 0.16450901E+04</pdfrwt>
<pdfrwt beam="2">  1       -1 0.21603697E+00 0.16450901E+04</pdfrwt>
<totfact> 0.52171052E+00</totfact>
</mgrwt>
</event>
<event>
12    1  0.1201209E-007  0.1929617E+04  0.7818608E-02  0.8640253E-01
          1   -1    0    0  501    0  0.00000000000E+00  0.00000000000E+00  0.26331597975E+04  0.26331597975E+04  0.00000000000E+00 0. -1.
         -1   -1    0    0    0  501 -0.00000000000E+00 -0.00000000000E+00 -0.35351258138E+03  0.35351258138E+03  0.00000000000E+00 0.  1.
         23    2    1    2    0    0 -0.33029580172E+02  0.80487726875E+02  0.20522471947E+04  0.20563191558E+04  0.95711519714E+02 0.  0.
        254    2    1    2    0    0  0.33029580172E+02 -0.80487726875E+02  0.22740002135E+03  0.93035322302E+03  0.89792935275E+03 0.  0.
        -24    2    4    4    0    0  0.35695062865E+03  0.12958266989E+03 -0.11822607420E+03  0.40584826962E+03  0.80808376453E+02 0.  0.
         24    2    4    4    0    0 -0.32392104847E+03 -0.21007039676E+03  0.34562609555E+03  0.52450495340E+03  0.81201175951E+02 0.  0.
         13    1    3    3    0    0 -0.37635363949E+02  0.22436741160E+02  0.15636731560E+04  0.15642869196E+04  0.00000000000E+00 0. -1.
        -13    1    3    3    0    0  0.46057837769E+01  0.58050985715E+02  0.48857403870E+03  0.49203223622E+03  0.00000000000E+00 0.  1.
          4    1    6    6  502    0 -0.23232393042E+03 -0.16230890686E+03  0.20392710532E+03  0.34914875651E+03  0.00000000000E+00 0. -1.
          1    1    5    5  503    0  0.22587832311E+03  0.11915185615E+03 -0.94117839041E+02  0.27216970681E+03  0.00000000000E+00 0. -1.
         -4    1    5    5    0  503  0.13107230553E+03  0.10430813735E+02 -0.24108235156E+02  0.13367856281E+03  0.00000000000E+00 0.  1.
         -3    1    6    6    0  502 -0.91597118056E+02 -0.47761489901E+02  0.14169899023E+03  0.17535619689E+03  0.00000000000E+00 0.  1.
<mgrwt>
<rscale>  0 0.19296167E+04</rscale>
<asrwt>0</asrwt>
<pdfrwt beam="1">  1        1 0.40510150E+00 0.19296167E+04</pdfrwt>
<pdfrwt beam="2">  1       -1 0.54386553E-01 0.19296167E+04</pdfrwt>
<totfact> 0.34888681E+00</totfact>
</mgrwt>
</event>
<event>
12    1  0.1201209E-007  0.1922147E+04  0.7818608E-02  0.8643910E-01
          1   -1    0    0  501    0  0.00000000000E+00  0.00000000000E+00  0.15714845502E+04  0.15714845502E+04  0.00000000000E+00 0. -1.
         -1   -1    0    0    0  501 -0.00000000000E+00 -0.00000000000E+00 -0.58776437545E+03  0.58776437545E+03  0.00000000000E+00 0.  1.
         23    2    1    2    0    0 -0.52098453314E+03 -0.48680046659E+03  0.13457179017E+03  0.73156735949E+03  0.93175408292E+02 0.  0.
        254    2    1    2    0    0  0.52098453314E+03  0.48680046659E+03  0.84914838460E+03  0.14276815662E+04  0.89934537154E+03 0.  0.
        -24    2    4    4    0    0  0.76228897951E+03  0.45516644571E+03  0.66678788705E+03  0.11132092380E+04  0.79798117578E+02 0.  0.
         24    2    4    4    0    0 -0.24130444637E+03  0.31634020874E+02  0.18236049756E+03  0.31447232823E+03  0.80055899460E+02 0.  0.
         13    1    3    3    0    0 -0.37174853594E+03 -0.39973850318E+03  0.11294020208E+03  0.55744357036E+03  0.00000000000E+00 0.  1.
        -13    1    3    3    0    0 -0.14923599721E+03 -0.87061963408E+02  0.21631588098E+02  0.17412378912E+03  0.00000000000E+00 0. -1.
          4    1    6    6  502    0 -0.18662296070E+03 -0.69326329473E+01  0.11391562080E+03  0.21875319317E+03  0.00000000000E+00 0. -1.
          3    1    5    5  503    0  0.44747141916E+03  0.23297437194E+03  0.34482747064E+03  0.61107586555E+03  0.00000000000E+00 0. -1.
         -4    1    5    5    0  503  0.31481756035E+03  0.22219207378E+03  0.32196041640E+03  0.50213337241E+03  0.00000000000E+00 0.  1.
         -3    1    6    6    0  502 -0.54681485666E+02  0.38566653821E+02  0.68444876756E+02  0.95719135056E+02  0.00000000000E+00 0.  1.
<mgrwt>
<rscale>  0 0.19221474E+04</rscale>
<asrwt>0</asrwt>
<pdfrwt beam="1">  1        1 0.24176685E+00 0.19221474E+04</pdfrwt>
<pdfrwt beam="2">  1       -1 0.90425289E-01 0.19221474E+04</pdfrwt>
<totfact> 0.65167815E+00</totfact>
</mgrwt>
</event>
<event>
12    1  0.1201209E-007  0.1363064E+04  0.7818608E-02  0.8980997E-01
          1   -1    0    0  501    0  0.00000000000E+00  0.00000000000E+00  0.15839277106E+04  0.15839277106E+04  0.00000000000E+00 0. -1.
         -1   -1    0    0    0  501 -0.00000000000E+00 -0.00000000000E+00 -0.29324962144E+03  0.29324962144E+03  0.00000000000E+00 0.  1.
         23    2    1    2    0    0  0.35421832308E+03  0.42194522257E+02  0.45158291227E+03  0.58260116576E+03  0.90807453300E+02 0.  0.
        254    2    1    2    0    0 -0.35421832308E+03 -0.42194522257E+02  0.83909517693E+03  0.12945761663E+04  0.91901889880E+03 0.  0.
        -24    2    4    4    0    0 -0.20761971709E+03  0.40003271075E+03  0.20003063910E+03  0.49972480458E+03  0.81120325089E+02 0.  0.
         24    2    4    4    0    0 -0.14659860599E+03 -0.44222723301E+03  0.63906453783E+03  0.79485136174E+03  0.79555809674E+02 0.  0.
         13    1    3    3    0    0  0.46462149982E+02  0.18580404753E+02  0.11774714682E+03  0.12793886589E+03  0.00000000000E+00 0. -1.
        -13    1    3    3    0    0  0.30775617310E+03  0.23614117504E+02  0.33383576545E+03  0.45466229987E+03  0.00000000000E+00 0.  1.
          2    1    6    6  502    0 -0.80642165441E+02 -0.12799222804E+03  0.21746544238E+03  0.26490826321E+03  0.00000000000E+00 0. -1.
          1    1    5    5  503    0 -0.10175669364E+03  0.23262633457E+03  0.15194950907E+03  0.29590216211E+03  0.00000000000E+00 0. -1.
         -4    1    5    5    0  503 -0.10586302345E+03  0.16740637618E+03  0.48081130036E+02  0.20382264247E+03  0.00000000000E+00 0.  1.
         -1    1    6    6    0  502 -0.65956440553E+02 -0.31423500497E+03  0.42159909544E+03  0.52994309853E+03  0.00000000000E+00 0.  1.
<mgrwt>
<rscale>  0 0.13630645E+04</rscale>
<asrwt>0</asrwt>
<pdfrwt beam="1">  1        1 0.24368118E+00 0.13630645E+04</pdfrwt>
<pdfrwt beam="2">  1       -1 0.45115327E-01 0.13630645E+04</pdfrwt>
<totfact> 0.27280283E+01</totfact>
</mgrwt>
</event>
<event>
12    1  0.1201209E-007  0.2925306E+04  0.7818608E-02  0.8265388E-01
          1   -1    0    0  501    0  0.00000000000E+00  0.00000000000E+00  0.16468816750E+04  0.16468816750E+04  0.00000000000E+00 0. -1.
         -1   -1    0    0    0  501 -0.00000000000E+00 -0.00000000000E+00 -0.12990330890E+04  0.12990330890E+04  0.00000000000E+00 0.  1.
         23    2    1    2    0    0 -0.52001839323E+03  0.25837412115E+03  0.13490664791E+04  0.14715324903E+04  0.90836056938E+02 0.  0.
        254    2    1    2    0    0  0.52001839323E+03 -0.25837412115E+03 -0.10012178931E+04  0.14743822737E+04  0.91333975269E+03 0.  0.
        -24    2    4    4    0    0  0.12093958897E+03  0.28879066899E+03 -0.60667842183E+03  0.68704841219E+03  0.77138696528E+02 0.  0.
         24    2    4    4    0    0  0.39907880426E+03 -0.54716479014E+03 -0.39453947122E+03  0.78733386150E+03  0.74699501586E+02 0.  0.
         13    1    3    3    0    0 -0.41607954923E+03  0.18363715549E+03  0.96756342758E+03  0.10691229034E+04  0.00000000000E+00 0. -1.
        -13    1    3    3    0    0 -0.10393884400E+03  0.74736965661E+02  0.38150305153E+03  0.40240958694E+03  0.00000000000E+00 0.  1.
          2    1    6    6  502    0  0.82227678566E+02 -0.67721451762E+02 -0.55983702336E+02  0.12034018896E+03  0.00000000000E+00 0. -1.
          3    1    5    5  503    0  0.28471923148E+02  0.39332658892E+02 -0.15936212784E+03  0.16659530681E+03  0.00000000000E+00 0. -1.
         -4    1    5    5    0  503  0.92467665819E+02  0.24945801010E+03 -0.44731629399E+03  0.52045310538E+03  0.00000000000E+00 0.  1.
         -1    1    6    6    0  502  0.31685112570E+03 -0.47944333838E+03 -0.33855576888E+03  0.66699367255E+03  0.00000000000E+00 0.  1.
<mgrwt>
<rscale>  0 0.29253060E+04</rscale>
<asrwt>0</asrwt>
<pdfrwt beam="1">  1        1 0.25336641E+00 0.29253060E+04</pdfrwt>
<pdfrwt beam="2">  1       -1 0.19985124E+00 0.29253060E+04</pdfrwt>
<totfact> 0.66958808E-01</totfact>
</mgrwt>
</event>
<event>
12    1  0.1201209E-007  0.2020624E+04  0.7818608E-02  0.8597039E-01
         -1   -1    0    0    0  501 -0.00000000000E+00  0.00000000000E+00  0.60469091666E+03  0.60469091666E+03  0.00000000000E+00 0.  1.
          1   -1    0    0  501    0  0.00000000000E+00 -0.00000000000E+00 -0.16880199544E+04  0.16880199544E+04  0.00000000000E+00 0. -1.
         23    2    1    2    0    0  0.39170133731E+03  0.49765357403E+03 -0.10023368356E+04  0.11891549410E+04  0.91221292663E+02 0.  0.
        254    2    1    2    0    0 -0.39170133731E+03 -0.49765357403E+03 -0.80992202091E+02  0.11035559300E+04  0.90010384764E+03 0.  0.
        -24    2    4    4    0    0 -0.45392620687E+03 -0.40207398337E+03 -0.41737126133E+03  0.74025075751E+03  0.77845518929E+02 0.  0.
         24    2    4    4    0    0  0.62224869559E+02 -0.95579590656E+02  0.33637905924E+03  0.36330517253E+03  0.76370048770E+02 0.  0.
         11    1    3    3    0    0  0.20045562115E+03  0.20602265422E+03 -0.51660777150E+03  0.59119487453E+03  0.00000000000E+00 0.  1.
        -11    1    3    3    0    0  0.19124571616E+03  0.29163091981E+03 -0.48572906412E+03  0.59796006645E+03  0.00000000000E+00 0. -1.
          2    1    6    6  502    0 -0.94869173338E+01 -0.48408080230E+02  0.93670403998E+02  0.10586542598E+03  0.00000000000E+00 0. -1.
          1    1    5    5  503    0 -0.28451862808E+03 -0.22021016715E+03 -0.28274263337E+03  0.45758798517E+03  0.00000000000E+00 0. -1.
         -2    1    5    5    0  503 -0.16940757878E+03 -0.18186381622E+03 -0.13462862796E+03  0.28266277234E+03  0.00000000000E+00 0.  1.
         -1    1    6    6    0  502  0.71711786893E+02 -0.47171510426E+02  0.24270865525E+03  0.25743974655E+03  0.00000000000E+00 0.  1.
<mgrwt>
<rscale>  0 0.20206240E+04</rscale>
<asrwt>0</asrwt>
<pdfrwt beam="1">  1        1 0.25969537E+00 0.20206240E+04</pdfrwt>
<pdfrwt beam="2">  1       -1 0.93029373E-01 0.20206240E+04</pdfrwt>
<totfact> 0.50466717E+00</totfact>
</mgrwt>
</event>
<event>
12    1  0.1453482E-007  0.2787795E+04  0.7818608E-02  0.8307068E-01
         -2   -1    0    0    0  501 -0.00000000000E+00  0.00000000000E+00  0.55244591583E+03  0.55244591583E+03  0.00000000000E+00 0.  1.
          2   -1    0    0  501    0  0.00000000000E+00 -0.00000000000E+00 -0.35169963913E+04  0.35169963913E+04  0.00000000000E+00 0. -1.
         23    2    1    2    0    0 -0.30142558803E+02 -0.45805183461E+02  0.48197386992E+03  0.49385415013E+03  0.92662946396E+02 0.  0.
        254    2    1    2    0    0  0.30142558803E+02  0.45805183461E+02 -0.34465243454E+04  0.35755881570E+04  0.95041775895E+03 0.  0.
        -24    2    4    4    0    0  0.34340345288E+03  0.34989795640E+03 -0.15289758239E+04  0.16073745918E+04  0.74374033653E+02 0.  0.
         24    2    4    4    0    0 -0.31326089408E+03 -0.30409277294E+03 -0.19175485215E+04  0.19682135653E+04  0.79167567782E+02 0.  0.
         13    1    3    3    0    0  0.10783033769E+02  0.14809543897E+01  0.32062690343E+03  0.32081159307E+03  0.00000000000E+00 0.  1.
        -13    1    3    3    0    0 -0.40925592572E+02 -0.47286137850E+02  0.16134696648E+03  0.17304255706E+03  0.00000000000E+00 0. -1.
          2    1    6    6  502    0  0.78003377587E+00  0.29582208638E+01 -0.48356551297E+01  0.57221572771E+01  0.00000000000E+00 0. -1.
          3    1    5    5  503    0  0.67254268994E+01 -0.36009904654E+01 -0.26969016464E+02  0.28027242967E+02  0.00000000000E+00 0. -1.
         -4    1    5    5    0  503  0.33667802598E+03  0.35349894687E+03 -0.15020068074E+04  0.15793473488E+04  0.00000000000E+00 0.  1.
         -1    1    6    6    0  502 -0.31404092785E+03 -0.30705099380E+03 -0.19127128664E+04  0.19624914080E+04  0.00000000000E+00 0.  1.
<mgrwt>
<rscale>  0 0.27877950E+04</rscale>
<asrwt>0</asrwt>
<pdfrwt beam="1">  1        2 0.54107638E+00 0.27877950E+04</pdfrwt>
<pdfrwt beam="2">  1       -2 0.84991678E-01 0.27877950E+04</pdfrwt>
<totfact> 0.83019773E-01</totfact>
</mgrwt>
</event>
<event>
12    1  0.1201209E-007  0.1802586E+04  0.7818608E-02  0.8704926E-01
         -2   -1    0    0    0  501 -0.00000000000E+00  0.00000000000E+00  0.65965756303E+03  0.65965756303E+03  0.00000000000E+00 0.  1.
          2   -1    0    0  501    0  0.00000000000E+00 -0.00000000000E+00 -0.12314400866E+04  0.12314400866E+04  0.00000000000E+00 0. -1.
         23    2    1    2    0    0  0.18539712355E+03 -0.54152963795E+03 -0.58734609482E+03  0.82525182335E+03  0.91862367902E+02 0.  0.
        254    2    1    2    0    0 -0.18539712355E+03  0.54152963795E+03  0.15563571301E+02  0.10658458262E+04  0.89897645039E+03 0.  0.
        -24    2    4    4    0    0  0.13482099253E+03 -0.19942990763E+03  0.22858548481E+02  0.25474036015E+03  0.80132077028E+02 0.  0.
         24    2    4    4    0    0 -0.32021811608E+03  0.74095954557E+03 -0.72949771800E+01  0.81110546608E+03  0.79234906274E+02 0.  0.
         11    1    3    3    0    0  0.50119849344E+02 -0.28199421721E+03 -0.30962520015E+03  0.42178252975E+03  0.00000000000E+00 0.  1.
        -11    1    3    3    0    0  0.13527727420E+03 -0.25953542074E+03 -0.27772089468E+03  0.40346929360E+03  0.00000000000E+00 0. -1.
          2    1    6    6  502    0 -0.17649296428E+03  0.31526705411E+03 -0.16896097573E+02  0.36170230848E+03  0.00000000000E+00 0. -1.
          1    1    5    5  503    0  0.11252296368E+03 -0.18879686863E+03  0.41656125400E+02  0.22369825154E+03  0.00000000000E+00 0. -1.
         -2    1    5    5    0  503  0.22298028851E+02 -0.10633038997E+02 -0.18797576919E+02  0.31042108611E+02  0.00000000000E+00 0.  1.
         -1    1    6    6    0  502 -0.14372515180E+03  0.42569249146E+03  0.96011203935E+01  0.44940315760E+03  0.00000000000E+00 0.  1.
<mgrwt>
<rscale>  0 0.18025857E+04</rscale>
<asrwt>0</asrwt>
<pdfrwt beam="1">  1        2 0.18945232E+00 0.18025857E+04</pdfrwt>
<pdfrwt beam="2">  1       -2 0.10148578E+00 0.18025857E+04</pdfrwt>
<totfact> 0.13657903E+01</totfact>
</mgrwt>
</event>
<event>
12    1  0.1201209E-007  0.4001244E+04  0.7818608E-02  0.8004296E-01
          1   -1    0    0  501    0  0.00000000000E+00  0.00000000000E+00  0.24008090265E+04  0.24008090265E+04  0.00000000000E+00 0. -1.
         -1   -1    0    0    0  501 -0.00000000000E+00 -0.00000000000E+00 -0.16671419205E+04  0.16671419205E+04  0.00000000000E+00 0.  1.
         23    2    1    2    0    0  0.89878173884E+03 -0.15273626307E+04  0.10347666416E+04  0.20540992056E+04  0.89086049592E+02 0.  0.
        254    2    1    2    0    0 -0.89878173884E+03  0.15273626307E+04 -0.30109953555E+03  0.20138517414E+04  0.90790565941E+03 0.  0.
        -24    2    4    4    0    0 -0.24349833487E+03  0.11298354470E+04  0.65634066658E+02  0.11601769123E+04  0.76701113846E+02 0.  0.
         24    2    4    4    0    0 -0.65528340397E+03  0.39752718377E+03 -0.36673360220E+03  0.85367482913E+03  0.82722291763E+02 0.  0.
         13    1    3    3    0    0  0.50840087225E+03 -0.86222257934E+03  0.53315799653E+03  0.11340884765E+04  0.00000000000E+00 0. -1.
        -13    1    3    3    0    0  0.39038086659E+03 -0.66514005139E+03  0.50160864504E+03  0.92001072914E+03  0.00000000000E+00 0.  1.
          2    1    6    6  502    0 -0.44447068654E+03  0.31117765166E+03 -0.27225010760E+03  0.60704682123E+03  0.00000000000E+00 0. -1.
          1    1    5    5  503    0 -0.14294885684E+03  0.75253063828E+03  0.74512516477E+02  0.76960304855E+03  0.00000000000E+00 0. -1.
         -2    1    5    5    0  503 -0.10054947803E+03  0.37730480868E+03 -0.88784498194E+01  0.39057386376E+03  0.00000000000E+00 0.  1.
         -3    1    6    6    0  502 -0.21081271743E+03  0.86349532110E+02 -0.94483494609E+02  0.24662800790E+03  0.00000000000E+00 0.  1.
<mgrwt>
<rscale>  0 0.40012445E+04</rscale>
<asrwt>0</asrwt>
<pdfrwt beam="1">  1        1 0.36935523E+00 0.40012445E+04</pdfrwt>
<pdfrwt beam="2">  1       -1 0.25648337E+00 0.40012445E+04</pdfrwt>
<totfact> 0.78536725E-02</totfact>
</mgrwt>
</event>
<event>
12    1  0.1201209E-007  0.2946216E+04  0.7818608E-02  0.8259258E-01
         -2   -1    0    0    0  501 -0.00000000000E+00  0.00000000000E+00  0.16503038183E+04  0.16503038183E+04  0.00000000000E+00 0.  1.
          2   -1    0    0  501    0  0.00000000000E+00 -0.00000000000E+00 -0.13149380667E+04  0.13149380667E+04  0.00000000000E+00 0. -1.
         23    2    1    2    0    0  0.49803596636E+03  0.32302050397E+03  0.13524315273E+04  0.14816432045E+04  0.11753076005E+03 0.  0.
        254    2    1    2    0    0 -0.49803596636E+03 -0.32302050397E+03 -0.10170657757E+04  0.14835986806E+04  0.90236366457E+03 0.  0.
        -24    2    4    4    0    0  0.36054814029E+02  0.24311274880E+03 -0.44432459419E+03  0.51390163756E+03  0.79163058521E+02 0.  0.
         24    2    4    4    0    0 -0.53409078039E+03 -0.56613325277E+03 -0.57274118152E+03  0.96969704303E+03  0.80746966945E+02 0.  0.
         11    1    3    3    0    0  0.69216223370E+02  0.99814808987E+02  0.28870958791E+03  0.31322054183E+03  0.00000000000E+00 0. -1.
        -11    1    3    3    0    0  0.42881974299E+03  0.22320569498E+03  0.10637219394E+04  0.11684226627E+04  0.00000000000E+00 0.  1.
          2    1    6    6  502    0 -0.35159974590E+03 -0.41677507190E+03 -0.42595003827E+03  0.69192288369E+03  0.00000000000E+00 0. -1.
          3    1    5    5  503    0  0.21487355424E+02  0.18772429112E+03 -0.26364479532E+03  0.32436197992E+03  0.00000000000E+00 0. -1.
         -4    1    5    5    0  503  0.14567458604E+02  0.55388457672E+02 -0.18067979888E+03  0.18953965763E+03  0.00000000000E+00 0.  1.
         -1    1    6    6    0  502 -0.18249103449E+03 -0.14935818087E+03 -0.14679114326E+03  0.27777415934E+03  0.00000000000E+00 0.  1.
<mgrwt>
<rscale>  0 0.29462161E+04</rscale>
<asrwt>0</asrwt>
<pdfrwt beam="1">  1        2 0.20229816E+00 0.29462161E+04</pdfrwt>
<pdfrwt beam="2">  1       -2 0.25389290E+00 0.29462161E+04</pdfrwt>
<totfact> 0.84726263E-01</totfact>
</mgrwt>
</event>
<event>
12    1  0.1201209E-007  0.1584252E+04  0.7818608E-02  0.8830282E-01
          2   -1    0    0  501    0  0.00000000000E+00  0.00000000000E+00  0.17985579996E+04  0.17985579996E+04  0.00000000000E+00 0. -1.
         -2   -1    0    0    0  501 -0.00000000000E+00 -0.00000000000E+00 -0.34887028983E+03  0.34887028983E+03  0.00000000000E+00 0.  1.
         23    2    1    2    0    0  0.77079574257E+02  0.51086191058E+03  0.34141814341E+03  0.62626705246E+03  0.93396573287E+02 0.  0.
        254    2    1    2    0    0 -0.77079574257E+02 -0.51086191058E+03  0.11082695663E+04  0.15211612369E+04  0.90484745933E+03 0.  0.
        -24    2    4    4    0    0  0.20311446083E+03 -0.28305472552E+02 -0.55886678119E+02  0.22773484271E+03  0.81750558524E+02 0.  0.
         24    2    4    4    0    0 -0.28019403509E+03 -0.48255643802E+03  0.11641562444E+04  0.12934263942E+04  0.79515172214E+02 0.  0.
         11    1    3    3    0    0  0.95558248038E+02  0.46879855182E+03  0.31990127357E+03  0.57553478243E+03  0.00000000000E+00 0.  1.
        -11    1    3    3    0    0 -0.18478673781E+02  0.42063358754E+02  0.21516869844E+02  0.50732270029E+02  0.00000000000E+00 0. -1.
          2    1    6    6  502    0 -0.27588681891E+03 -0.43109512307E+03  0.10666829145E+04  0.11831183297E+04  0.00000000000E+00 0. -1.
          3    1    5    5  503    0  0.19660991238E+03 -0.23283831743E+02 -0.71166114005E+02  0.21038586038E+03  0.00000000000E+00 0. -1.
         -4    1    5    5    0  503  0.65045484588E+01 -0.50216408096E+01  0.15279435887E+02  0.17348982336E+02  0.00000000000E+00 0.  1.
         -1    1    6    6    0  502 -0.43072161787E+01 -0.51461314958E+02  0.97473329895E+02  0.11030806448E+03  0.00000000000E+00 0.  1.
<mgrwt>
<rscale>  0 0.15842518E+04</rscale>
<asrwt>0</asrwt>
<pdfrwt beam="1">  1        2 0.27670122E+00 0.15842518E+04</pdfrwt>
<pdfrwt beam="2">  1       -2 0.53672353E-01 0.15842518E+04</pdfrwt>
<totfact> 0.27144983E+01</totfact>
</mgrwt>
</event>
<event>
12    1  0.1201209E-007  0.1630985E+04  0.7818608E-02  0.8801736E-01
          2   -1    0    0  501    0  0.00000000000E+00  0.00000000000E+00  0.40307614677E+04  0.40307614677E+04  0.00000000000E+00 0. -1.
         -2   -1    0    0    0  501 -0.00000000000E+00 -0.00000000000E+00 -0.16498820560E+03  0.16498820560E+03  0.00000000000E+00 0.  1.
         23    2    1    2    0    0  0.34548211209E+03  0.74822630966E+01  0.21284545764E+03  0.41611138079E+03  0.91823844114E+02 0.  0.
        254    2    1    2    0    0 -0.34548211209E+03 -0.74822630966E+01  0.36529278044E+04  0.37796382925E+04  0.90684629545E+03 0.  0.
        -24    2    4    4    0    0 -0.64823080886E+03  0.36290444487E+02  0.24810498116E+04  0.25658090781E+04  0.79043528680E+02 0.  0.
         24    2    4    4    0    0  0.30274869677E+03 -0.43772707583E+02  0.11718779928E+04  0.12138292144E+04  0.80687721571E+02 0.  0.
         13    1    3    3    0    0  0.24227400517E+03  0.47389679005E+02  0.14428264594E+03  0.28593698112E+03  0.00000000000E+00 0.  1.
        -13    1    3    3    0    0  0.10320810693E+03 -0.39907415909E+02  0.68562811706E+02  0.13017439967E+03  0.00000000000E+00 0. -1.
          2    1    6    6  502    0  0.27515631138E+03 -0.16467708723E+02  0.10658976583E+04  0.11009632143E+04  0.00000000000E+00 0. -1.
          3    1    5    5  503    0 -0.50268519148E+03 -0.51394793338E+01  0.19088800419E+04  0.19739660155E+04  0.00000000000E+00 0. -1.
         -4    1    5    5    0  503 -0.14554561738E+03  0.41429923821E+02  0.57216976972E+03  0.59184306256E+03  0.00000000000E+00 0.  1.
         -3    1    6    6    0  502  0.27592385392E+02 -0.27304998860E+02  0.10598033444E+03  0.11286600012E+03  0.00000000000E+00 0.  1.
<mgrwt>
<rscale>  0 0.16309851E+04</rscale>
<asrwt>0</asrwt>
<pdfrwt beam="1">  1        2 0.62011708E+00 0.16309851E+04</pdfrwt>
<pdfrwt beam="2">  1       -2 0.25382804E-01 0.16309851E+04</pdfrwt>
<totfact> 0.43977906E+00</totfact>
</mgrwt>
</event>
<event>
12    1  0.1201209E-007  0.1353987E+04  0.7818608E-02  0.8987816E-01
          2   -1    0    0  501    0  0.00000000000E+00  0.00000000000E+00  0.25277974232E+04  0.25277974232E+04  0.00000000000E+00 0. -1.
         -2   -1    0    0    0  501 -0.00000000000E+00 -0.00000000000E+00 -0.18131201444E+03  0.18131201444E+03  0.00000000000E+00 0.  1.
         23    2    1    2    0    0 -0.72920317056E+02  0.26214373069E+02  0.12091509229E+04  0.12157356638E+04  0.99813244324E+02 0.  0.
        254    2    1    2    0    0  0.72920317056E+02 -0.26214373069E+02  0.11373344858E+04  0.14933737739E+04  0.96469214253E+03 0.  0.
        -24    2    4    4    0    0 -0.72417257318E+01 -0.27609229127E+03 -0.34627046946E+02  0.28960588565E+03  0.79957118068E+02 0.  0.
         24    2    4    4    0    0  0.80162042788E+02  0.24987791820E+03  0.11719615328E+04  0.12037678882E+04  0.81843553940E+02 0.  0.
         13    1    3    3    0    0  0.42297145353E+01  0.20722812487E+02  0.53939186362E+02  0.57937563530E+02  0.00000000000E+00 0.  1.
        -13    1    3    3    0    0 -0.77150031591E+02  0.54915605822E+01  0.11552117366E+04  0.11577981002E+04  0.00000000000E+00 0. -1.
          4    1    6    6  502    0  0.86942842713E+02  0.23203623852E+03  0.11393288878E+04  0.11659632020E+04  0.00000000000E+00 0. -1.
          1    1    5    5  503    0  0.28701895033E+02 -0.19649719773E+03 -0.98580088283E+01  0.19882687905E+03  0.00000000000E+00 0. -1.
         -2    1    5    5    0  503 -0.35943620765E+02 -0.79595093541E+02 -0.24769038117E+02  0.90779006597E+02  0.00000000000E+00 0.  1.
         -3    1    6    6    0  502 -0.67807999252E+01  0.17841679680E+02  0.32632644969E+02  0.37804686206E+02  0.00000000000E+00 0.  1.
<mgrwt>
<rscale>  0 0.13539868E+04</rscale>
<asrwt>0</asrwt>
<pdfrwt beam="1">  1        2 0.38889189E+00 0.13539868E+04</pdfrwt>
<pdfrwt beam="2">  1       -2 0.27894158E-01 0.13539868E+04</pdfrwt>
<totfact> 0.38617369E+01</totfact>
</mgrwt>
</event>
<event>
12    1  0.1201209E-007  0.1299148E+04  0.7818608E-02  0.9030241E-01
         -1   -1    0    0    0  501 -0.00000000000E+00  0.00000000000E+00  0.10783617814E+04  0.10783617814E+04  0.00000000000E+00 0.  1.
          1   -1    0    0  501    0  0.00000000000E+00 -0.00000000000E+00 -0.39128437910E+03  0.39128437910E+03  0.00000000000E+00 0. -1.
         23    2    1    2    0    0  0.28037880210E+03 -0.50866021246E+02  0.74563378362E+02  0.30830265052E+03  0.91056038440E+02 0.  0.
        254    2    1    2    0    0 -0.28037880210E+03  0.50866021246E+02  0.61251402391E+03  0.11613435100E+04  0.94464051037E+03 0.  0.
        -24    2    4    4    0    0 -0.20507906145E+03 -0.17012390167E+03  0.80402778877E+03  0.85042013638E+03  0.75856179031E+02 0.  0.
         24    2    4    4    0    0 -0.75299740655E+02  0.22098992291E+03 -0.19151376486E+03  0.31092337357E+03  0.74089305102E+02 0.  0.
         13    1    3    3    0    0  0.43044179683E+02 -0.43976511024E+02  0.11059186512E+02  0.62522320277E+02  0.00000000000E+00 0.  1.
        -13    1    3    3    0    0  0.23733462242E+03 -0.68895102220E+01  0.63504191850E+02  0.24578033024E+03  0.00000000000E+00 0. -1.
          4    1    6    6  502    0 -0.75828388120E+02  0.19679500074E+03 -0.19405064655E+03  0.28659007343E+03  0.00000000000E+00 0. -1.
          1    1    5    5  503    0 -0.14788045549E+03 -0.74530230760E+02  0.47312413379E+03  0.50126822201E+03  0.00000000000E+00 0. -1.
         -2    1    5    5    0  503 -0.57198605954E+02 -0.95593670907E+02  0.33090365497E+03  0.34915191438E+03  0.00000000000E+00 0.  1.
         -3    1    6    6    0  502  0.52864746444E+00  0.24194922169E+02  0.25368816939E+01  0.24333300138E+02  0.00000000000E+00 0.  1.
<mgrwt>
<rscale>  0 0.12991476E+04</rscale>
<asrwt>0</asrwt>
<pdfrwt beam="1">  1        1 0.60197597E-01 0.12991476E+04</pdfrwt>
<pdfrwt beam="2">  1       -1 0.16590181E+00 0.12991476E+04</pdfrwt>
<totfact> 0.16018494E+01</totfact>
</mgrwt>
</event>
<event>
12    1  0.1201209E-007  0.2615764E+04  0.7818608E-02  0.8362866E-01
         -1   -1    0    0    0  501 -0.00000000000E+00  0.00000000000E+00  0.78492462275E+03  0.78492462275E+03  0.00000000000E+00 0.  1.
          1   -1    0    0  501    0  0.00000000000E+00 -0.00000000000E+00 -0.21792600974E+04  0.21792600974E+04  0.00000000000E+00 0. -1.
         23    2    1    2    0    0 -0.80581059400E+03 -0.27023144883E+03  0.27469469921E+03  0.89847659208E+03  0.97197013365E+02 0.  0.
        254    2    1    2    0    0  0.80581059400E+03  0.27023144883E+03 -0.16690301738E+04  0.20657081280E+04  0.87128215854E+03 0.  0.
        -24    2    4    4    0    0  0.45437811130E+03 -0.22113915918E+03 -0.11741257207E+04  0.12807676419E+04  0.80203170786E+02 0.  0.
         24    2    4    4    0    0  0.35143248269E+03  0.49137060801E+03 -0.49490445308E+03  0.78494048617E+03  0.79065067133E+02 0.  0.
         11    1    3    3    0    0 -0.98230413025E+01  0.69618175883E+01  0.22425134034E+00  0.12041982114E+02  0.00000000000E+00 0. -1.
        -11    1    3    3    0    0 -0.79598755269E+03 -0.27719326642E+03  0.27447044787E+03  0.88643460997E+03  0.00000000000E+00 0.  1.
          4    1    6    6  502    0  0.13448101520E+03  0.17293311836E+03 -0.22814258176E+03  0.31629107558E+03  0.00000000000E+00 0. -1.
          3    1    5    5  503    0  0.25293421337E+03 -0.88619538218E+02 -0.68120406332E+03  0.73203013239E+03  0.00000000000E+00 0. -1.
         -4    1    5    5    0  503  0.20144389794E+03 -0.13251962096E+03 -0.49292165743E+03  0.54873750948E+03  0.00000000000E+00 0.  1.
         -3    1    6    6    0  502  0.21695146749E+03  0.31843748965E+03 -0.26676187132E+03  0.46864941059E+03  0.00000000000E+00 0.  1.
<mgrwt>
<rscale>  0 0.26157637E+04</rscale>
<asrwt>0</asrwt>
<pdfrwt beam="1">  1        1 0.33527078E+00 0.26157637E+04</pdfrwt>
<pdfrwt beam="2">  1       -1 0.12075764E+00 0.26157637E+04</pdfrwt>
<totfact> 0.12063843E+00</totfact>
</mgrwt>
</event>
<event>
12    1  0.1201209E-007  0.1860374E+04  0.7818608E-02  0.8674836E-01
          2   -1    0    0  501    0  0.00000000000E+00  0.00000000000E+00  0.13201566545E+04  0.13201566545E+04  0.00000000000E+00 0. -1.
         -2   -1    0    0    0  501 -0.00000000000E+00 -0.00000000000E+00 -0.65541275643E+03  0.65541275643E+03  0.00000000000E+00 0.  1.
         23    2    1    2    0    0  0.43238934902E+03 -0.34482902216E+03  0.72354498855E+03  0.91531301441E+03  0.91722190422E+02 0.  0.
        254    2    1    2    0    0 -0.43238934902E+03  0.34482902216E+03 -0.58801090527E+02  0.10602563965E+04  0.90267294984E+03 0.  0.
        -24    2    4    4    0    0 -0.50933194980E+03  0.12553970606E+03 -0.38214667554E+03  0.65402994433E+03  0.80869237482E+02 0.  0.
         24    2    4    4    0    0  0.76942600778E+02  0.21928931610E+03  0.32334558502E+03  0.40622645215E+03  0.80371606348E+02 0.  0.
         11    1    3    3    0    0  0.28533903925E+03 -0.27856685453E+03  0.49656758656E+03  0.63686515667E+03  0.00000000000E+00 0. -1.
        -11    1    3    3    0    0  0.14705030977E+03 -0.66262167635E+02  0.22697740199E+03  0.27844785773E+03  0.00000000000E+00 0.  1.
          2    1    6    6  502    0  0.28741901023E+02  0.35521251173E+02  0.11768262973E+03  0.12624205916E+03  0.00000000000E+00 0. -1.
          1    1    5    5  503    0 -0.77977365648E+01  0.83422971674E+01  0.18827748948E+01  0.11573394440E+02  0.00000000000E+00 0. -1.
         -2    1    5    5    0  503 -0.50153421323E+03  0.11719740890E+03 -0.38402945044E+03  0.64245654989E+03  0.00000000000E+00 0.  1.
         -1    1    6    6    0  502  0.48200699755E+02  0.18376806493E+03  0.20566295528E+03  0.27998439299E+03  0.00000000000E+00 0.  1.
<mgrwt>
<rscale>  0 0.18603736E+04</rscale>
<asrwt>0</asrwt>
<pdfrwt beam="1">  1        2 0.20310102E+00 0.18603736E+04</pdfrwt>
<pdfrwt beam="2">  1       -2 0.10083273E+00 0.18603736E+04</pdfrwt>
<totfact> 0.12245098E+01</totfact>
</mgrwt>
</event>
<event>
12    1  0.1201209E-007  0.2248122E+04  0.7818608E-02  0.8498661E-01
         -1   -1    0    0    0  501 -0.00000000000E+00  0.00000000000E+00  0.35166827033E+03  0.35166827033E+03  0.00000000000E+00 0. -1.
          1   -1    0    0  501    0  0.00000000000E+00 -0.00000000000E+00 -0.35929132168E+04  0.35929132168E+04  0.00000000000E+00 0.  1.
         23    2    1    2    0    0  0.15363432734E+03 -0.38873242098E+03 -0.28483224330E+04  0.28802407056E+04  0.90163397567E+02 0.  0.
        254    2    1    2    0    0 -0.15363432734E+03  0.38873242098E+03 -0.39292251343E+03  0.10643407815E+04  0.89650253537E+03 0.  0.
        -24    2    4    4    0    0 -0.45253611347E+03  0.37787923911E+03 -0.42648033490E+02  0.59666146902E+03  0.81267462796E+02 0.  0.
         24    2    4    4    0    0  0.29890178613E+03  0.10853181869E+02 -0.35027447994E+03  0.46767931247E+03  0.81065767754E+02 0.  0.
         11    1    3    3    0    0  0.87585553301E+02 -0.31227713953E+03 -0.22895953908E+04  0.23124522254E+04  0.00000000000E+00 0.  1.
        -11    1    3    3    0    0  0.66048774035E+02 -0.76455281452E+02 -0.55872704218E+03  0.56778848022E+03  0.00000000000E+00 0. -1.
          2    1    6    6  502    0  0.26471066267E+03 -0.65062310157E+01 -0.26717969895E+03  0.37616360470E+03  0.00000000000E+00 0. -1.
          1    1    5    5  503    0 -0.11155405027E+03  0.10612605059E+03 -0.45751518063E+02  0.16062455027E+03  0.00000000000E+00 0. -1.
         -2    1    5    5    0  503 -0.34098206320E+03  0.27175318852E+03  0.31034845725E+01  0.43603691875E+03  0.00000000000E+00 0.  1.
         -1    1    6    6    0  502  0.34191123467E+02  0.17359412884E+02 -0.83094780997E+02  0.91515707770E+02  0.00000000000E+00 0.  1.
<mgrwt>
<rscale>  0 0.22481224E+04</rscale>
<asrwt>0</asrwt>
<pdfrwt beam="1">  1        1 0.55275586E+00 0.22481224E+04</pdfrwt>
<pdfrwt beam="2">  1       -1 0.54102813E-01 0.22481224E+04</pdfrwt>
<totfact> 0.66192432E-01</totfact>
</mgrwt>
</event>
<event>
12    1  0.1201209E-007  0.2087019E+04  0.7818608E-02  0.8566983E-01
          2   -1    0    0  501    0  0.00000000000E+00  0.00000000000E+00  0.10206782377E+04  0.10206782377E+04  0.00000000000E+00 0. -1.
         -2   -1    0    0    0  501 -0.00000000000E+00 -0.00000000000E+00 -0.10668509790E+04  0.10668509790E+04  0.00000000000E+00 0.  1.
         23    2    1    2    0    0 -0.66457304200E+03  0.16692646855E+02  0.50817249787E+03  0.84167564956E+03  0.90788979769E+02 0.  0.
        254    2    1    2    0    0  0.66457304200E+03 -0.16692646855E+02 -0.55434523913E+03  0.12458535672E+04  0.89605607755E+03 0.  0.
        -24    2    4    4    0    0 -0.11043944161E+03  0.15359151995E+03  0.84770256403E+02  0.22398252041E+03  0.84823038214E+02 0.  0.
         24    2    4    4    0    0  0.77501248362E+03 -0.17028416681E+03 -0.63911549554E+03  0.10218710468E+04  0.78171429479E+02 0.  0.
         11    1    3    3    0    0 -0.38682070182E+03  0.42647542792E+02  0.25757938034E+03  0.46668641017E+03  0.00000000000E+00 0. -1.
        -11    1    3    3    0    0 -0.27775234018E+03 -0.25954895937E+02  0.25059311753E+03  0.37498923938E+03  0.00000000000E+00 0.  1.
          4    1    6    6  502    0  0.77775443509E+01 -0.11374968321E+02 -0.97097216001E+01  0.16857010233E+02  0.00000000000E+00 0. -1.
          1    1    5    5  503    0 -0.70208122879E+02  0.28567242536E+02  0.26470664885E+02  0.80286760825E+02  0.00000000000E+00 0. -1.
         -2    1    5    5    0  503 -0.40231318735E+02  0.12502427742E+03  0.58299591518E+02  0.14369575958E+03  0.00000000000E+00 0.  1.
         -3    1    6    6    0  502  0.76723493927E+03 -0.15890919849E+03 -0.62940577394E+03  0.10050140365E+04  0.00000000000E+00 0.  1.
<mgrwt>
<rscale>  0 0.20870185E+04</rscale>
<asrwt>0</asrwt>
<pdfrwt beam="1">  1        2 0.15702742E+00 0.20870185E+04</pdfrwt>
<pdfrwt beam="2">  1       -2 0.16413092E+00 0.20870185E+04</pdfrwt>
<totfact> 0.52938479E+00</totfact>
</mgrwt>
</event>
<event>
12    1  0.1201209E-007  0.2055666E+04  0.7818608E-02  0.8581028E-01
          2   -1    0    0  501    0  0.00000000000E+00  0.00000000000E+00  0.20195574585E+04  0.20195574585E+04  0.00000000000E+00 0. -1.
         -2   -1    0    0    0  501 -0.00000000000E+00 -0.00000000000E+00 -0.52310496714E+03  0.52310496714E+03  0.00000000000E+00 0.  1.
         23    2    1    2    0    0 -0.60115040760E+03  0.98497558085E+02 -0.85305837665E+02  0.62158149026E+03  0.89458826217E+02 0.  0.
        254    2    1    2    0    0  0.60115040760E+03 -0.98497558085E+02  0.15817583290E+04  0.19210809354E+04  0.90416202492E+03 0.  0.
        -24    2    4    4    0    0  0.60004140980E+03 -0.40674194280E+03  0.83140624836E+03  0.11059136049E+04  0.79497485684E+02 0.  0.
         24    2    4    4    0    0  0.11089978040E+01  0.30824438471E+03  0.75035208069E+03  0.81516733047E+03  0.80334930718E+02 0.  0.
         13    1    3    3    0    0 -0.17698405770E+03  0.55004134721E+02  0.63835432855E+01  0.18544422650E+03  0.00000000000E+00 0. -1.
        -13    1    3    3    0    0 -0.42416634990E+03  0.43493423364E+02 -0.91689380951E+02  0.43613726377E+03  0.00000000000E+00 0.  1.
          2    1    6    6  502    0 -0.88401553801E+01  0.30750313072E+03  0.71359881762E+03  0.77708403423E+03  0.00000000000E+00 0. -1.
          1    1    5    5  503    0  0.50714296648E+03 -0.31030354138E+03  0.69811478656E+03  0.91697684347E+03  0.00000000000E+00 0. -1.
         -2    1    5    5    0  503  0.92898443317E+02 -0.96438401417E+02  0.13329146180E+03  0.18893676145E+03  0.00000000000E+00 0.  1.
         -1    1    6    6    0  502  0.99491531841E+01  0.74125399952E+00  0.36753263069E+02  0.38083296244E+02  0.00000000000E+00 0.  1.
<mgrwt>
<rscale>  0 0.20556659E+04</rscale>
<asrwt>0</asrwt>
<pdfrwt beam="1">  1        2 0.31070114E+00 0.20556659E+04</pdfrwt>
<pdfrwt beam="2">  1       -2 0.80477688E-01 0.20556659E+04</pdfrwt>
<totfact> 0.82184449E+00</totfact>
</mgrwt>
</event>
<event>
12    1  0.1201209E-007  0.1624407E+04  0.7818608E-02  0.8805692E-01
         -1   -1    0    0    0  501 -0.00000000000E+00  0.00000000000E+00  0.62025479290E+03  0.62025479290E+03  0.00000000000E+00 0.  1.
          1   -1    0    0  501    0  0.00000000000E+00 -0.00000000000E+00 -0.10635543654E+04  0.10635543654E+04  0.00000000000E+00 0. -1.
         23    2    1    2    0    0  0.42312721076E+03  0.34218146199E+03 -0.29896285733E+03  0.62770085903E+03  0.92221412628E+02 0.  0.
        254    2    1    2    0    0 -0.42312721076E+03 -0.34218146199E+03 -0.14433671512E+03  0.10561082992E+04  0.89353615648E+03 0.  0.
        -24    2    4    4    0    0  0.98545699392E+01  0.61210054268E+02 -0.39554929891E+03  0.40813904227E+03  0.79211404915E+02 0.  0.
         24    2    4    4    0    0 -0.43298178070E+03 -0.40339151626E+03  0.25121258379E+03  0.64796925695E+03  0.80984306436E+02 0.  0.
         11    1    3    3    0    0  0.32950339602E+03  0.22501768300E+03 -0.18764087286E+03  0.44092464528E+03  0.00000000000E+00 0. -1.
        -11    1    3    3    0    0  0.93623814739E+02  0.11716377900E+03 -0.11132198447E+03  0.18677621375E+03  0.00000000000E+00 0.  1.
          2    1    6    6  502    0 -0.39994018262E+03 -0.36201568672E+03  0.20307536684E+03  0.57640880608E+03  0.00000000000E+00 0. -1.
          1    1    5    5  503    0  0.75767405893E+01  0.50482442195E+02 -0.39372631752E+03  0.39702178413E+03  0.00000000000E+00 0. -1.
         -2    1    5    5    0  503  0.22778293499E+01  0.10727612074E+02 -0.18229813844E+01  0.11117258137E+02  0.00000000000E+00 0.  1.
         -1    1    6    6    0  502 -0.33041598083E+02 -0.41375829540E+02  0.48137216945E+02  0.71560450873E+02  0.00000000000E+00 0.  1.
<mgrwt>
<rscale>  0 0.16244072E+04</rscale>
<asrwt>0</asrwt>
<pdfrwt beam="1">  1        1 0.16362375E+00 0.16244072E+04</pdfrwt>
<pdfrwt beam="2">  1       -1 0.95423815E-01 0.16244072E+04</pdfrwt>
<totfact> 0.13719754E+01</totfact>
</mgrwt>
</event>
<event>
12    1  0.1201209E-007  0.1652019E+04  0.7818608E-02  0.8789213E-01
         -2   -1    0    0    0  501 -0.00000000000E+00  0.00000000000E+00  0.99871586250E+03  0.99871586250E+03  0.00000000000E+00 0.  1.
          2   -1    0    0  501    0  0.00000000000E+00 -0.00000000000E+00 -0.68316916265E+03  0.68316916265E+03  0.00000000000E+00 0. -1.
         23    2    1    2    0    0 -0.24730424308E+03  0.49471812211E+03 -0.66342122759E+02  0.56431375102E+03  0.90240364302E+02 0.  0.
        254    2    1    2    0    0  0.24730424308E+03 -0.49471812211E+03  0.38188882261E+03  0.11175712741E+04  0.89287237103E+03 0.  0.
        -24    2    4    4    0    0  0.44844736227E+02 -0.51767885433E+03  0.60745936919E+03  0.80338016801E+03  0.80064739755E+02 0.  0.
         24    2    4    4    0    0  0.20245950685E+03  0.22960732221E+02 -0.22557054658E+03  0.31419110612E+03  0.79479132755E+02 0.  0.
         13    1    3    3    0    0 -0.16720200548E+03  0.37591306712E+03 -0.84107987069E+02  0.41993011103E+03  0.00000000000E+00 0.  1.
        -13    1    3    3    0    0 -0.80102237603E+02  0.11880505499E+03  0.17765864310E+02  0.14438363998E+03  0.00000000000E+00 0. -1.
          4    1    6    6  502    0  0.22150949867E+02  0.22885085152E+02 -0.66544960345E+02  0.73774138082E+02  0.00000000000E+00 0. -1.
          1    1    5    5  503    0 -0.97959443114E+00 -0.38876056557E+03  0.45813496512E+03  0.60085221412E+03  0.00000000000E+00 0. -1.
         -2    1    5    5    0  503  0.45824330658E+02 -0.12891828875E+03  0.14932440407E+03  0.20252795389E+03  0.00000000000E+00 0.  1.
         -3    1    6    6    0  502  0.18030855699E+03  0.75647069498E-01 -0.15902558623E+03  0.24041696804E+03  0.00000000000E+00 0.  1.
<mgrwt>
<rscale>  0 0.16520192E+04</rscale>
<asrwt>0</asrwt>
<pdfrwt beam="1">  1        2 0.10510295E+00 0.16520192E+04</pdfrwt>
<pdfrwt beam="2">  1       -2 0.15364860E+00 0.16520192E+04</pdfrwt>
<totfact> 0.11334420E+01</totfact>
</mgrwt>
</event>
<event>
12    1  0.1201209E-007  0.3300636E+04  0.7818608E-02  0.8162734E-01
          2   -1    0    0  501    0  0.00000000000E+00  0.00000000000E+00  0.11454110058E+04  0.11454110058E+04  0.00000000000E+00 0.  1.
         -2   -1    0    0    0  501 -0.00000000000E+00 -0.00000000000E+00 -0.23777925461E+04  0.23777925461E+04  0.00000000000E+00 0. -1.
         23    2    1    2    0    0  0.32431062337E+03  0.31596782745E+03  0.98421162207E+03  0.10873311756E+04  0.92755161976E+02 0.  0.
        254    2    1    2    0    0 -0.32431062337E+03 -0.31596782745E+03 -0.22165931624E+04  0.24358723763E+04  0.90287094176E+03 0.  0.
        -24    2    4    4    0    0 -0.10335511649E+03  0.28041591939E+03 -0.37440450126E+03  0.48535418817E+03  0.77939652691E+02 0.  0.
         24    2    4    4    0    0 -0.22095550689E+03 -0.59638374684E+03 -0.18421886612E+04  0.19505181881E+04  0.79794920680E+02 0.  0.
         13    1    3    3    0    0  0.23383140419E+02  0.40479868861E+02  0.53024155387E+02  0.70689122879E+02  0.00000000000E+00 0. -1.
        -13    1    3    3    0    0  0.30092748296E+03  0.27548795859E+03  0.93118746668E+03  0.10166420528E+04  0.00000000000E+00 0.  1.
          2    1    6    6  502    0 -0.12490008595E+03 -0.23774685328E+03 -0.71613016755E+03  0.76483070976E+03  0.00000000000E+00 0. -1.
          1    1    5    5  503    0 -0.17294831340E+02  0.48018429302E+02 -0.11898454494E+03  0.12946892553E+03  0.00000000000E+00 0. -1.
         -2    1    5    5    0  503 -0.86060285148E+02  0.23239749008E+03 -0.25541995632E+03  0.35588526264E+03  0.00000000000E+00 0.  1.
         -1    1    6    6    0  502 -0.96055420934E+02 -0.35863689355E+03 -0.11260584936E+04  0.11856874783E+04  0.00000000000E+00 0.  1.
<mgrwt>
<rscale>  0 0.33006362E+04</rscale>
<asrwt>0</asrwt>
<pdfrwt beam="1">  1        2 0.17621708E+00 0.33006362E+04</pdfrwt>
<pdfrwt beam="2">  1       -2 0.36581423E+00 0.33006362E+04</pdfrwt>
<totfact> 0.21060152E-01</totfact>
</mgrwt>
</event>
<event>
12    1  0.1201209E-007  0.1237373E+04  0.7818608E-02  0.9080759E-01
         -2   -1    0    0    0  501 -0.00000000000E+00  0.00000000000E+00  0.18675425148E+03  0.18675425148E+03  0.00000000000E+00 0.  1.
          2   -1    0    0  501    0  0.00000000000E+00 -0.00000000000E+00 -0.20496083337E+04  0.20496083337E+04  0.00000000000E+00 0. -1.
         23    2    1    2    0    0 -0.21691254215E+03  0.72848500032E+02 -0.72642985920E+03  0.76716334708E+03  0.92094005604E+02 0.  0.
        254    2    1    2    0    0  0.21691254215E+03 -0.72848500032E+02 -0.11364242230E+04  0.14691992381E+04  0.90262308394E+03 0.  0.
        -24    2    4    4    0    0 -0.29230572084E+03 -0.18479411258E+03 -0.24125813786E+03  0.43022403936E+03  0.85415083438E+02 0.  0.
         24    2    4    4    0    0  0.50921826300E+03  0.11194561255E+03 -0.89516608513E+03  0.10389751987E+04  0.79448625179E+02 0.  0.
         13    1    3    3    0    0 -0.49715826714E+02  0.30152805343E+02 -0.85413452120E+02  0.10332624497E+03  0.00000000000E+00 0.  1.
        -13    1    3    3    0    0 -0.16719671544E+03  0.42695694689E+02 -0.64101640708E+03  0.66383710211E+03  0.00000000000E+00 0. -1.
          4    1    6    6  502    0  0.14106033932E+03  0.68038453085E+02 -0.26193337272E+03  0.30518247357E+03  0.00000000000E+00 0. -1.
          1    1    5    5  503    0 -0.13094725022E+03 -0.34618149356E+02 -0.10095412283E+03  0.16892996632E+03  0.00000000000E+00 0. -1.
         -2    1    5    5    0  503 -0.16135847062E+03 -0.15017596322E+03 -0.14030401503E+03  0.26129407304E+03  0.00000000000E+00 0.  1.
         -3    1    6    6    0  502  0.36815792367E+03  0.43907159460E+02 -0.63323271242E+03  0.73379272515E+03  0.00000000000E+00 0.  1.
<mgrwt>
<rscale>  0 0.12373731E+04</rscale>
<asrwt>0</asrwt>
<pdfrwt beam="1">  1        2 0.31532437E+00 0.12373731E+04</pdfrwt>
<pdfrwt beam="2">  1       -2 0.28731423E-01 0.12373731E+04</pdfrwt>
<totfact> 0.68681807E+01</totfact>
</mgrwt>
</event>
<event>
12    1  0.1201209E-007  0.3014448E+04  0.7818608E-02  0.8239617E-01
          1   -1    0    0  501    0  0.00000000000E+00  0.00000000000E+00  0.19941255437E+04  0.19941255437E+04  0.00000000000E+00 0. -1.
         -1   -1    0    0    0  501 -0.00000000000E+00 -0.00000000000E+00 -0.11392078630E+04  0.11392078630E+04  0.00000000000E+00 0.  1.
         23    2    1    2    0    0  0.12987911388E+04 -0.29369847345E+03  0.47103898429E+02  0.13355468071E+04  0.91374400404E+02 0.  0.
        254    2    1    2    0    0 -0.12987911388E+04  0.29369847345E+03  0.80781378226E+03  0.17977865996E+04  0.89797346024E+03 0.  0.
        -24    2    4    4    0    0 -0.10627194222E+04 -0.17010005832E+03  0.56106947565E+03  0.12163303950E+04  0.79712439796E+02 0.  0.
         24    2    4    4    0    0 -0.23607171660E+03  0.46379853177E+03  0.24674430661E+03  0.58145620461E+03  0.79809971723E+02 0.  0.
         13    1    3    3    0    0  0.71636079122E+03 -0.19517507337E+03 -0.56163581977E+01  0.74249419926E+03  0.00000000000E+00 0. -1.
        -13    1    3    3    0    0  0.58243034760E+03 -0.98523400082E+02  0.52720256627E+02  0.59305260780E+03  0.00000000000E+00 0.  1.
          4    1    6    6  502    0 -0.11191913286E+03  0.25438134117E+03  0.17180450098E+03  0.32673008063E+03  0.00000000000E+00 0. -1.
          1    1    5    5  503    0 -0.10220121561E+04 -0.15293495203E+03  0.52395663515E+03  0.11586321687E+04  0.00000000000E+00 0. -1.
         -2    1    5    5    0  503 -0.40707266086E+02 -0.17165106291E+02  0.37112840502E+02  0.57698226284E+02  0.00000000000E+00 0.  1.
         -3    1    6    6    0  502 -0.12415258374E+03  0.20941719060E+03  0.74939805634E+02  0.25472612398E+03  0.00000000000E+00 0.  1.
<mgrwt>
<rscale>  0 0.30144475E+04</rscale>
<asrwt>0</asrwt>
<pdfrwt beam="1">  1        1 0.30678855E+00 0.30144475E+04</pdfrwt>
<pdfrwt beam="2">  1       -1 0.17526275E+00 0.30144475E+04</pdfrwt>
<totfact> 0.57567746E-01</totfact>
</mgrwt>
</event>
<event>
12    1  0.1407146E-007  0.2370446E+04  0.7818608E-02  0.8450652E-01
         -1   -1    0    0    0  501 -0.00000000000E+00  0.00000000000E+00  0.61296175932E+03  0.61296175932E+03  0.00000000000E+00 0.  1.
          1   -1    0    0  501    0  0.00000000000E+00 -0.00000000000E+00 -0.22917472122E+04  0.22917472122E+04  0.00000000000E+00 0. -1.
         23    2    1    2    0    0 -0.98935239487E+03 -0.13139895647E+03 -0.52261102895E+03  0.11293694477E+04  0.79178373329E+02 0.  0.
        254    2    1    2    0    0  0.98935239487E+03  0.13139895647E+03 -0.11561744239E+04  0.17753395239E+04  0.90499020954E+03 0.  0.
        -24    2    4    4    0    0  0.36987453868E+03 -0.37696790694E+03 -0.55993812027E+03  0.77374089784E+03  0.78944925332E+02 0.  0.
         24    2    4    4    0    0  0.61947785619E+03  0.50836686342E+03 -0.59623630368E+03  0.10015986260E+04  0.74245509403E+02 0.  0.
         13    1    3    3    0    0 -0.63281018729E+03 -0.99371742972E+02 -0.29560319756E+03  0.70548191107E+03  0.00000000000E+00 0. -1.
        -13    1    3    3    0    0 -0.35654220758E+03 -0.32027213501E+02 -0.22700783140E+03  0.42388753662E+03  0.00000000000E+00 0.  1.
          4    1    6    6  502    0  0.55179740683E+03  0.47869902670E+03 -0.53209078872E+03  0.90374429115E+03  0.00000000000E+00 0. -1.
          1    1    5    5  503    0  0.37369457692E+03 -0.37024490194E+03 -0.54903137182E+03  0.76037120637E+03  0.00000000000E+00 0. -1.
         -2    1    5    5    0  503 -0.38200382386E+01 -0.67230050004E+01 -0.10906748445E+02  0.13369691471E+02  0.00000000000E+00 0.  1.
         -3    1    6    6    0  502  0.67680449353E+02  0.29667836719E+02 -0.64145514965E+02  0.97854334857E+02  0.00000000000E+00 0.  1.
<mgrwt>
<rscale>  0 0.23704459E+04</rscale>
<asrwt>0</asrwt>
<pdfrwt beam="1">  1        1 0.35257649E+00 0.23704459E+04</pdfrwt>
<pdfrwt beam="2">  1       -1 0.94301809E-01 0.23704459E+04</pdfrwt>
<totfact> 0.18437359E+00</totfact>
</mgrwt>
</event>
<event>
12    1  0.1302360E-007  0.2170561E+04  0.7818608E-02  0.8530782E-01
          2   -1    0    0  501    0  0.00000000000E+00  0.00000000000E+00  0.12365635735E+04  0.12365635735E+04  0.00000000000E+00 0. -1.
         -2   -1    0    0    0  501 -0.00000000000E+00 -0.00000000000E+00 -0.95250576611E+03  0.95250576611E+03  0.00000000000E+00 0.  1.
         23    2    1    2    0    0  0.40679404158E+02 -0.53771782173E+03 -0.59511178982E+03  0.80901174676E+03  0.97707186451E+02 0.  0.
        254    2    1    2    0    0 -0.40679404158E+02  0.53771782173E+03  0.87916959725E+03  0.13800575929E+04  0.91696483534E+03 0.  0.
        -24    2    4    4    0    0 -0.19931227037E+03 -0.20119417194E+03  0.33633122526E+03  0.44594567101E+03  0.74460543013E+02 0.  0.
         24    2    4    4    0    0  0.15863286621E+03  0.73891199367E+03  0.54283837200E+03  0.93411192188E+03  0.82074745581E+02 0.  0.
         13    1    3    3    0    0  0.30436834202E+02 -0.10072102065E+03 -0.16552361154E+03  0.19613564402E+03  0.00000000000E+00 0. -1.
        -13    1    3    3    0    0  0.10242569956E+02 -0.43699680108E+03 -0.42958817828E+03  0.61287610274E+03  0.00000000000E+00 0.  1.
          4    1    6    6  502    0  0.60297560541E+02  0.18532025525E+03  0.10417975120E+03  0.22098147744E+03  0.00000000000E+00 0. -1.
          3    1    5    5  503    0 -0.42780146827E+02 -0.30047072707E+02  0.11042805747E+03  0.12217742597E+03  0.00000000000E+00 0. -1.
         -4    1    5    5    0  503 -0.15653212354E+03 -0.17114709924E+03  0.22590316778E+03  0.32376824503E+03  0.00000000000E+00 0.  1.
         -3    1    6    6    0  502  0.98335305669E+02  0.55359173842E+03  0.43865862080E+03  0.71313044444E+03  0.00000000000E+00 0.  1.
<mgrwt>
<rscale>  0 0.21705612E+04</rscale>
<asrwt>0</asrwt>
<pdfrwt beam="1">  1        2 0.19024055E+00 0.21705612E+04</pdfrwt>
<pdfrwt beam="2">  1       -2 0.14653935E+00 0.21705612E+04</pdfrwt>
<totfact> 0.52609312E+00</totfact>
</mgrwt>
</event>
<event>
12    1  0.1201209E-007  0.2050002E+04  0.7818608E-02  0.8583594E-01
          1   -1    0    0  501    0  0.00000000000E+00  0.00000000000E+00  0.22828432676E+04  0.22828432676E+04  0.00000000000E+00 0. -1.
         -1   -1    0    0    0  501 -0.00000000000E+00 -0.00000000000E+00 -0.46022731764E+03  0.46022731764E+03  0.00000000000E+00 0.  1.
         23    2    1    2    0    0  0.68476745423E+03  0.46035917567E+03  0.75836144092E+03  0.11245753968E+04  0.93384746806E+02 0.  0.
        254    2    1    2    0    0 -0.68476745423E+03 -0.46035917567E+03  0.10642545091E+04  0.16184951885E+04  0.89780397535E+03 0.  0.
        -24    2    4    4    0    0 -0.37959352280E+03  0.18859541459E+03  0.15600533159E+03  0.45849543764E+03  0.78872871739E+02 0.  0.
         24    2    4    4    0    0 -0.30517393143E+03 -0.64895459026E+03  0.90824917748E+03  0.11599997509E+04  0.80060383326E+02 0.  0.
         11    1    3    3    0    0  0.12839300214E+03  0.81250005867E+02  0.93736997398E+02  0.17852997265E+03  0.00000000000E+00 0. -1.
        -11    1    3    3    0    0  0.55637445209E+03  0.37910916980E+03  0.66462444352E+03  0.94604542411E+03  0.00000000000E+00 0.  1.
          4    1    6    6  502    0 -0.48331181807E+02 -0.17702039722E+03  0.25527851665E+03  0.31438709457E+03  0.00000000000E+00 0. -1.
          1    1    5    5  503    0 -0.16624524571E+02  0.21168518940E+02 -0.53349825888E+01  0.27439807772E+02  0.00000000000E+00 0. -1.
         -2    1    5    5    0  503 -0.36296899823E+03  0.16742689565E+03  0.16134031418E+03  0.43105562987E+03  0.00000000000E+00 0.  1.
         -3    1    6    6    0  502 -0.25684274962E+03 -0.47193419304E+03  0.65297066083E+03  0.84561265630E+03  0.00000000000E+00 0.  1.
<mgrwt>
<rscale>  0 0.20500018E+04</rscale>
<asrwt>0</asrwt>
<pdfrwt beam="1">  1        1 0.35120665E+00 0.20500018E+04</pdfrwt>
<pdfrwt beam="2">  1       -1 0.70804204E-01 0.20500018E+04</pdfrwt>
<totfact> 0.35596753E+00</totfact>
</mgrwt>
</event>
<event>
12    1  0.1201209E-007  0.1484596E+04  0.7818608E-02  0.8894761E-01
          2   -1    0    0  501    0  0.00000000000E+00  0.00000000000E+00  0.14655250231E+04  0.14655250231E+04  0.00000000000E+00 0. -1.
         -2   -1    0    0    0  501 -0.00000000000E+00 -0.00000000000E+00 -0.37597900978E+03  0.37597900978E+03  0.00000000000E+00 0.  1.
         23    2    1    2    0    0  0.40728395327E+02  0.10531171706E+03  0.90984898525E+03  0.92179154232E+03  0.95525449996E+02 0.  0.
        254    2    1    2    0    0 -0.40728395327E+02 -0.10531171706E+03  0.17969702811E+03  0.91971249061E+03  0.89489143673E+03 0.  0.
        -24    2    4    4    0    0 -0.23066180052E+03 -0.14079556759E+03 -0.29058969098E+03  0.40506481222E+03  0.81282688948E+02 0.  0.
         24    2    4    4    0    0  0.18993340519E+03  0.35483850529E+02  0.47028671909E+03  0.51464767839E+03  0.79742289044E+02 0.  0.
         13    1    3    3    0    0  0.62535549500E+02  0.30023404985E+02  0.44780198098E+03  0.45314314953E+03  0.00000000000E+00 0. -1.
        -13    1    3    3    0    0 -0.21807154173E+02  0.75288312077E+02  0.46204700428E+03  0.46864839279E+03  0.00000000000E+00 0.  1.
          4    1    6    6  502    0  0.11378151720E+03 -0.32443627725E+01  0.34260688274E+03  0.36102110139E+03  0.00000000000E+00 0. -1.
          3    1    5    5  503    0 -0.17574681567E+03 -0.11553547972E+03 -0.26767916093E+03  0.34042256607E+03  0.00000000000E+00 0. -1.
         -4    1    5    5    0  503 -0.54914984847E+02 -0.25260087866E+02 -0.22910530046E+02  0.64642246145E+02  0.00000000000E+00 0.  1.
         -3    1    6    6    0  502  0.76151887996E+02  0.38728213301E+02  0.12767983634E+03  0.15362657700E+03  0.00000000000E+00 0.  1.
<mgrwt>
<rscale>  0 0.14845964E+04</rscale>
<asrwt>0</asrwt>
<pdfrwt beam="1">  1        2 0.22546538E+00 0.14845964E+04</pdfrwt>
<pdfrwt beam="2">  1       -2 0.57842925E-01 0.14845964E+04</pdfrwt>
<totfact> 0.35929540E+01</totfact>
</mgrwt>
</event>
<event>
12    1  0.1201209E-007  0.1540060E+04  0.7818608E-02  0.8858242E-01
          2   -1    0    0  501    0  0.00000000000E+00  0.00000000000E+00  0.73882112913E+03  0.73882112913E+03  0.00000000000E+00 0. -1.
         -2   -1    0    0    0  501 -0.00000000000E+00 -0.00000000000E+00 -0.80255752914E+03  0.80255752914E+03  0.00000000000E+00 0.  1.
         23    2    1    2    0    0 -0.11541708633E+03 -0.32253274741E+03 -0.39365072481E+03  0.53255819152E+03  0.10634311094E+03 0.  0.
        254    2    1    2    0    0  0.11541708633E+03  0.32253274741E+03  0.32991432479E+03  0.10088204668E+04  0.88967791670E+03 0.  0.
        -24    2    4    4    0    0  0.18486618946E+03 -0.15064646414E+03  0.44409216285E+03  0.51024637240E+03  0.79143201107E+02 0.  0.
         24    2    4    4    0    0 -0.69449103135E+02  0.47317921156E+03 -0.11417783806E+03  0.49857409435E+03  0.82569998648E+02 0.  0.
         13    1    3    3    0    0 -0.93678066824E+02 -0.18166832680E+03 -0.29626541309E+03  0.35993354409E+03  0.00000000000E+00 0.  1.
        -13    1    3    3    0    0 -0.21739019505E+02 -0.14086442061E+03 -0.97385311722E+02  0.17262464744E+03  0.00000000000E+00 0. -1.
          4    1    6    6  502    0  0.73241311229E+01  0.23236947597E+03 -0.49975325047E+02  0.23779560419E+03  0.00000000000E+00 0. -1.
          3    1    5    5  503    0  0.10111917062E+03 -0.10635493286E+03  0.33515848557E+03  0.36587930915E+03  0.00000000000E+00 0. -1.
         -4    1    5    5    0  503  0.83747018841E+02 -0.44291531285E+02  0.10893367728E+03  0.14436706326E+03  0.00000000000E+00 0.  1.
         -3    1    6    6    0  502 -0.76773234258E+02  0.24080973558E+03 -0.64202513009E+02  0.26077849015E+03  0.00000000000E+00 0.  1.
<mgrwt>
<rscale>  0 0.15400603E+04</rscale>
<asrwt>0</asrwt>
<pdfrwt beam="1">  1        2 0.11366479E+00 0.15400603E+04</pdfrwt>
<pdfrwt beam="2">  1       -2 0.12347039E+00 0.15400603E+04</pdfrwt>
<totfact> 0.18212187E+01</totfact>
</mgrwt>
</event>
<event>
12    1  0.1201209E-007  0.1615899E+04  0.7818608E-02  0.8810840E-01
          2   -1    0    0  501    0  0.00000000000E+00  0.00000000000E+00  0.78257976238E+03  0.78257976238E+03  0.00000000000E+00 0. -1.
         -2   -1    0    0    0  501 -0.00000000000E+00 -0.00000000000E+00 -0.83414188725E+03  0.83414188725E+03  0.00000000000E+00 0.  1.
         23    2    1    2    0    0  0.89772666551E+02 -0.51975105511E+03 -0.22293482254E+03  0.57974315796E+03  0.90564359161E+02 0.  0.
        254    2    1    2    0    0 -0.89772666551E+02  0.51975105511E+03  0.17137269767E+03  0.10369784917E+04  0.87621658267E+03 0.  0.
        -24    2    4    4    0    0 -0.13129513707E+02  0.71299851464E+03 -0.54764875391E+02  0.71949587074E+03  0.78331669322E+02 0.  0.
         24    2    4    4    0    0 -0.76643152844E+02 -0.19324745953E+03  0.22613757307E+03  0.31748262094E+03  0.80238763398E+02 0.  0.
         11    1    3    3    0    0  0.14116136698E+02 -0.17139333258E+03 -0.30556174157E+02  0.17466716792E+03  0.00000000000E+00 0.  1.
        -11    1    3    3    0    0  0.75656529853E+02 -0.34835772253E+03 -0.19237864838E+03  0.40507599004E+03  0.00000000000E+00 0. -1.
          2    1    6    6  502    0 -0.58631796587E+02 -0.11836937927E+03  0.86137865555E+02  0.15769822257E+03  0.00000000000E+00 0. -1.
          1    1    5    5  503    0  0.82124240853E+00  0.62487460612E+03 -0.24764038401E+02  0.62536565737E+03  0.00000000000E+00 0. -1.
         -2    1    5    5    0  503 -0.13950756116E+02  0.88123908517E+02 -0.30000836990E+02  0.94130213367E+02  0.00000000000E+00 0.  1.
         -1    1    6    6    0  502 -0.18011356257E+02 -0.74878080261E+02  0.13999970751E+03  0.15978439836E+03  0.00000000000E+00 0.  1.
<mgrwt>
<rscale>  0 0.16158992E+04</rscale>
<asrwt>0</asrwt>
<pdfrwt beam="1">  1        2 0.12039689E+00 0.16158992E+04</pdfrwt>
<pdfrwt beam="2">  1       -2 0.12832952E+00 0.16158992E+04</pdfrwt>
<totfact> 0.15241168E+01</totfact>
</mgrwt>
</event>
<event>
12    1  0.1201209E-007  0.1692142E+04  0.7818608E-02  0.8765859E-01
         -2   -1    0    0    0  501 -0.00000000000E+00  0.00000000000E+00  0.51255089070E+03  0.51255089070E+03  0.00000000000E+00 0.  1.
          2   -1    0    0  501    0  0.00000000000E+00 -0.00000000000E+00 -0.13966152845E+04  0.13966152845E+04  0.00000000000E+00 0. -1.
         23    2    1    2    0    0 -0.45618390617E+03  0.38323116195E+03 -0.21537163386E+03  0.64000365781E+03  0.90828748776E+02 0.  0.
        254    2    1    2    0    0  0.45618390617E+03 -0.38323116195E+03 -0.66869275991E+03  0.12691625174E+04  0.89925169367E+03 0.  0.
        -24    2    4    4    0    0  0.47740983611E+03 -0.10722282353E+03  0.46476761550E+02  0.49728321870E+03  0.75588522528E+02 0.  0.
         24    2    4    4    0    0 -0.21225929943E+02 -0.27600833841E+03 -0.71516952146E+03  0.77187929865E+03  0.87744312034E+02 0.  0.
         11    1    3    3    0    0 -0.98878934176E+01  0.35398935139E+02 -0.10519087205E+02  0.38229651330E+02  0.00000000000E+00 0. -1.
        -11    1    3    3    0    0 -0.44629601275E+03  0.34783222681E+03 -0.20485254666E+03  0.60177400648E+03  0.00000000000E+00 0.  1.
          4    1    6    6  502    0  0.27817298783E+02 -0.18431700728E+03 -0.45616079018E+03  0.49277705687E+03  0.00000000000E+00 0. -1.
          1    1    5    5  503    0  0.42554588775E+03 -0.10288132081E+03  0.63801243337E+02  0.44243018365E+03  0.00000000000E+00 0. -1.
         -2    1    5    5    0  503  0.51863948355E+02 -0.43415027264E+01 -0.17324481788E+02  0.54853035049E+02  0.00000000000E+00 0.  1.
         -3    1    6    6    0  502 -0.49043228726E+02 -0.91691331135E+02 -0.25900873128E+03  0.27910224178E+03  0.00000000000E+00 0.  1.
<mgrwt>
<rscale>  0 0.16921423E+04</rscale>
<asrwt>0</asrwt>
<pdfrwt beam="1">  1        2 0.21486389E+00 0.16921423E+04</pdfrwt>
<pdfrwt beam="2">  1       -2 0.78853984E-01 0.16921423E+04</pdfrwt>
<totfact> 0.19761627E+01</totfact>
</mgrwt>
</event>
<event>
12    1  0.1201209E-007  0.2440412E+04  0.7818608E-02  0.8424527E-01
         -1   -1    0    0    0  501 -0.00000000000E+00  0.00000000000E+00  0.73341271499E+03  0.73341271499E+03  0.00000000000E+00 0.  1.
          1   -1    0    0  501    0  0.00000000000E+00 -0.00000000000E+00 -0.20301014704E+04  0.20301014704E+04  0.00000000000E+00 0. -1.
         23    2    1    2    0    0  0.23244846641E+03 -0.33624746973E+03  0.53590740256E+03  0.68042079552E+03  0.93172229863E+02 0.  0.
        254    2    1    2    0    0 -0.23244846641E+03  0.33624746973E+03 -0.18325961579E+04  0.20830933898E+04  0.90209464150E+03 0.  0.
        -24    2    4    4    0    0 -0.36334716608E+03 -0.14061117998E+03 -0.12638590079E+04  0.13251607152E+04  0.83178496849E+02 0.  0.
         24    2    4    4    0    0  0.13089869967E+03  0.47685864971E+03 -0.56873715006E+03  0.75793267460E+03  0.80444713927E+02 0.  0.
         13    1    3    3    0    0  0.16492874991E+02 -0.79651210185E+02  0.13630694576E+03  0.15873220742E+03  0.00000000000E+00 0. -1.
        -13    1    3    3    0    0  0.21595559142E+03 -0.25659625954E+03  0.39960045680E+03  0.52168858810E+03  0.00000000000E+00 0.  1.
          2    1    6    6  502    0  0.57743284744E+02  0.34066149049E+03 -0.41327474088E+03  0.53868409062E+03  0.00000000000E+00 0. -1.
          3    1    5    5  503    0 -0.25675832876E+03 -0.13422470445E+03 -0.97786670105E+03  0.10198845012E+04  0.00000000000E+00 0. -1.
         -4    1    5    5    0  503 -0.10658883732E+03 -0.63864755364E+01 -0.28599230684E+03  0.30527621408E+03  0.00000000000E+00 0.  1.
         -1    1    6    6    0  502  0.73155414927E+02  0.13619715921E+03 -0.15546240918E+03  0.21924858399E+03  0.00000000000E+00 0.  1.
<mgrwt>
<rscale>  0 0.24404116E+04</rscale>
<asrwt>0</asrwt>
<pdfrwt beam="1">  1        1 0.31232330E+00 0.24404116E+04</pdfrwt>
<pdfrwt beam="2">  1       -1 0.11283272E+00 0.24404116E+04</pdfrwt>
<totfact> 0.18235204E+00</totfact>
</mgrwt>
</event>
<event>
12    1  0.1201209E-007  0.1208508E+04  0.7818608E-02  0.9105442E-01
         -1   -1    0    0    0  501 -0.00000000000E+00  0.00000000000E+00  0.23369093072E+03  0.23369093072E+03  0.00000000000E+00 0.  1.
          1   -1    0    0  501    0  0.00000000000E+00 -0.00000000000E+00 -0.15624168517E+04  0.15624168517E+04  0.00000000000E+00 0. -1.
         23    2    1    2    0    0  0.69081058282E+02  0.22270244973E+03 -0.40939755308E+03  0.47945717168E+03  0.88905845014E+02 0.  0.
        254    2    1    2    0    0 -0.69081058282E+02 -0.22270244973E+03 -0.91932836785E+03  0.13166506107E+04  0.91325550038E+03 0.  0.
        -24    2    4    4    0    0  0.42615056617E+01 -0.55281866064E+03 -0.38349739658E+03  0.67741748746E+03  0.78724628659E+02 0.  0.
         24    2    4    4    0    0 -0.73342563944E+02  0.33011621090E+03 -0.53583097127E+03  0.63923312323E+03  0.84547688753E+02 0.  0.
         11    1    3    3    0    0 -0.20505476687E+02  0.30291755340E+02 -0.73957461002E+02  0.82509217992E+02  0.00000000000E+00 0.  1.
        -11    1    3    3    0    0  0.89586534969E+02  0.19241069439E+03 -0.33544009208E+03  0.39694795369E+03  0.00000000000E+00 0. -1.
          2    1    6    6  502    0 -0.82395399962E+02  0.27214281266E+03 -0.48191795180E+03  0.55954948368E+03  0.00000000000E+00 0. -1.
          3    1    5    5  503    0  0.32477241206E+02 -0.39292114102E+03 -0.24651782426E+03  0.46498691587E+03  0.00000000000E+00 0. -1.
         -4    1    5    5    0  503 -0.28215735544E+02 -0.15989751962E+03 -0.13697957232E+03  0.21243057159E+03  0.00000000000E+00 0.  1.
         -1    1    6    6    0  502  0.90528360185E+01  0.57973398242E+02 -0.53913019476E+02  0.79683639555E+02  0.00000000000E+00 0.  1.
<mgrwt>
<rscale>  0 0.12085076E+04</rscale>
<asrwt>0</asrwt>
<pdfrwt beam="1">  1        1 0.24037182E+00 0.12085076E+04</pdfrwt>
<pdfrwt beam="2">  1       -1 0.35952451E-01 0.12085076E+04</pdfrwt>
<totfact> 0.43311437E+01</totfact>
</mgrwt>
</event>
<event>
12    1  0.1201209E-007  0.2145990E+04  0.7818608E-02  0.8541251E-01
         -2   -1    0    0    0  501 -0.00000000000E+00  0.00000000000E+00  0.35509041628E+03  0.35509041628E+03  0.00000000000E+00 0.  1.
          2   -1    0    0  501    0  0.00000000000E+00 -0.00000000000E+00 -0.32423245718E+04  0.32423245718E+04  0.00000000000E+00 0. -1.
         23    2    1    2    0    0 -0.22594472282E+03 -0.19609665116E+02  0.23463024165E+03  0.33860455687E+03  0.90366691325E+02 0.  0.
        254    2    1    2    0    0  0.22594472282E+03  0.19609665116E+02 -0.31218643971E+04  0.32588104312E+04  0.90684759218E+03 0.  0.
        -24    2    4    4    0    0  0.88912251977E+02  0.37733913551E+03 -0.24400476895E+04  0.24720367666E+04  0.82721438383E+02 0.  0.
         24    2    4    4    0    0  0.13703247084E+03 -0.35772947040E+03 -0.68181670761E+03  0.78677366459E+03  0.85968043307E+02 0.  0.
         11    1    3    3    0    0 -0.40535726588E+02  0.25571473491E+02  0.21516169091E+02  0.52535615718E+02  0.00000000000E+00 0. -1.
        -11    1    3    3    0    0 -0.18540899623E+03 -0.45181138607E+02  0.21311407256E+03  0.28606894115E+03  0.00000000000E+00 0.  1.
          2    1    6    6  502    0  0.83550082262E+02 -0.16441062870E+03 -0.40412560760E+03  0.44421726418E+03  0.00000000000E+00 0. -1.
          3    1    5    5  503    0  0.90329321229E+02  0.32584166797E+03 -0.19301918806E+04  0.19595848731E+04  0.00000000000E+00 0. -1.
         -4    1    5    5    0  503 -0.14170692522E+01  0.51497467549E+02 -0.50985580890E+03  0.51245189347E+03  0.00000000000E+00 0.  1.
         -1    1    6    6    0  502  0.53482388579E+02 -0.19331884169E+03 -0.27769110001E+03  0.34255640042E+03  0.00000000000E+00 0.  1.
<mgrwt>
<rscale>  0 0.21459901E+04</rscale>
<asrwt>0</asrwt>
<pdfrwt beam="1">  1        2 0.49881917E+00 0.21459901E+04</pdfrwt>
<pdfrwt beam="2">  1       -2 0.54629294E-01 0.21459901E+04</pdfrwt>
<totfact> 0.35304518E+00</totfact>
</mgrwt>
</event>
<event>
12    1  0.1201209E-007  0.2237267E+04  0.7818608E-02  0.8503075E-01
         -1   -1    0    0    0  501 -0.00000000000E+00  0.00000000000E+00  0.88730730913E+03  0.88730730913E+03  0.00000000000E+00 0. -1.
          1   -1    0    0  501    0  0.00000000000E+00 -0.00000000000E+00 -0.14102676308E+04  0.14102676308E+04  0.00000000000E+00 0.  1.
         23    2    1    2    0    0  0.20928374209E+03 -0.52788984316E+03  0.54213344196E+03  0.79034811614E+03  0.90962105123E+02 0.  0.
        254    2    1    2    0    0 -0.20928374209E+03  0.52788984316E+03 -0.10650937637E+04  0.15072268238E+04  0.90268521747E+03 0.  0.
        -24    2    4    4    0    0 -0.40979773462E+03  0.28356322191E+03 -0.13534309822E+03  0.52185896947E+03  0.75344181335E+02 0.  0.
         24    2    4    4    0    0  0.20051399252E+03  0.24432662125E+03 -0.92975066543E+03  0.98536785435E+03  0.81315124414E+02 0.  0.
         11    1    3    3    0    0  0.19317412503E+03 -0.51912733408E+03  0.53658337821E+03  0.77118814393E+03  0.00000000000E+00 0. -1.
        -11    1    3    3    0    0  0.16109617060E+02 -0.87625090839E+01  0.55500637548E+01  0.19159972207E+02  0.00000000000E+00 0.  1.
          4    1    6    6  502    0  0.19932167717E+03  0.23415056556E+03 -0.83066515038E+03  0.88575403493E+03  0.00000000000E+00 0. -1.
          1    1    5    5  503    0 -0.25409721562E+03  0.14383630980E+03 -0.10589318323E+03  0.31059241017E+03  0.00000000000E+00 0. -1.
         -2    1    5    5    0  503 -0.15570051900E+03  0.13972691211E+03 -0.29449914990E+02  0.21126655929E+03  0.00000000000E+00 0.  1.
         -3    1    6    6    0  502  0.11923153555E+01  0.10176055692E+02 -0.99085515057E+02  0.99613819420E+02  0.00000000000E+00 0.  1.
<mgrwt>
<rscale>  0 0.22372669E+04</rscale>
<asrwt>0</asrwt>
<pdfrwt beam="1">  1        1 0.21696425E+00 0.22372669E+04</pdfrwt>
<pdfrwt beam="2">  1       -1 0.13650882E+00 0.22372669E+04</pdfrwt>
<totfact> 0.30741807E+00</totfact>
</mgrwt>
</event>
<event>
12    1  0.1203779E-007  0.2782010E+04  0.7818608E-02  0.8308876E-01
          2   -1    0    0  501    0  0.00000000000E+00  0.00000000000E+00  0.15349707930E+04  0.15349707930E+04  0.00000000000E+00 0. -1.
         -2   -1    0    0    0  501 -0.00000000000E+00 -0.00000000000E+00 -0.12605414484E+04  0.12605414484E+04  0.00000000000E+00 0.  1.
         23    2    1    2    0    0 -0.45941721377E+03  0.94559974379E+03  0.79286060741E+03  0.13206164143E+04  0.10087972636E+03 0.  0.
        254    2    1    2    0    0  0.45941721377E+03 -0.94559974379E+03 -0.51843126288E+03  0.14748958271E+04  0.89516684182E+03 0.  0.
        -24    2    4    4    0    0  0.30464603386E+03 -0.59504512687E+02  0.14769924671E+03  0.35282463500E+03  0.79499450368E+02 0.  0.
         24    2    4    4    0    0  0.15477117991E+03 -0.88609523110E+03 -0.66613050959E+03  0.11220711921E+04  0.78708497610E+02 0.  0.
         11    1    3    3    0    0 -0.28707810219E+03  0.58616795268E+03  0.55253216936E+03  0.85515992872E+03  0.00000000000E+00 0.  1.
        -11    1    3    3    0    0 -0.17233911158E+03  0.35943179112E+03  0.24032843805E+03  0.46545648559E+03  0.00000000000E+00 0. -1.
          2    1    6    6  502    0  0.12433030234E+03 -0.81915295527E+03 -0.59774876844E+03  0.10216521807E+04  0.00000000000E+00 0. -1.
          1    1    5    5  503    0  0.30104072513E+03 -0.56022115950E+02  0.12695585941E+03  0.33148421667E+03  0.00000000000E+00 0. -1.
         -2    1    5    5    0  503  0.36053087307E+01 -0.34823967379E+01  0.20743387295E+02  0.21340418332E+02  0.00000000000E+00 0.  1.
         -1    1    6    6    0  502  0.30440877564E+02 -0.66942275832E+02 -0.68381741152E+02  0.10041901136E+03  0.00000000000E+00 0.  1.
<mgrwt>
<rscale>  0 0.27820096E+04</rscale>
<asrwt>0</asrwt>
<pdfrwt beam="1">  1        2 0.23614935E+00 0.27820096E+04</pdfrwt>
<pdfrwt beam="2">  1       -2 0.19392945E+00 0.27820096E+04</pdfrwt>
<totfact> 0.15423685E+00</totfact>
</mgrwt>
</event>
<event>
12    1  0.1201209E-007  0.1389994E+04  0.7818608E-02  0.8961094E-01
          2   -1    0    0  501    0  0.00000000000E+00  0.00000000000E+00  0.76147057742E+03  0.76147057742E+03  0.00000000000E+00 0.  1.
         -2   -1    0    0    0  501 -0.00000000000E+00 -0.00000000000E+00 -0.63432596629E+03  0.63432596629E+03  0.00000000000E+00 0. -1.
         23    2    1    2    0    0  0.10624798850E+03 -0.19969502173E+03 -0.29129534254E+03  0.38248322184E+03  0.10135927013E+03 0.  0.
        254    2    1    2    0    0 -0.10624798850E+03  0.19969502173E+03  0.41843995367E+03  0.10133133219E+04  0.89473189096E+03 0.  0.
        -24    2    4    4    0    0 -0.23299772344E+03 -0.29713962659E+03  0.27873403011E+03  0.47604572758E+03  0.79667925678E+02 0.  0.
         24    2    4    4    0    0  0.12674973495E+03  0.49683464832E+03  0.13970592355E+03  0.53726759429E+03  0.78921224807E+02 0.  0.
         13    1    3    3    0    0  0.19062584329E+02 -0.11424405633E+03 -0.88444487774E+02  0.14573096426E+03  0.00000000000E+00 0.  1.
        -13    1    3    3    0    0  0.87185404168E+02 -0.85450965398E+02 -0.20285085476E+03  0.23675225757E+03  0.00000000000E+00 0. -1.
          4    1    6    6  502    0  0.36014466402E+02  0.10880358183E+03  0.65221902328E+02  0.13186795574E+03  0.00000000000E+00 0. -1.
          1    1    5    5  503    0 -0.63923851716E+02 -0.90097241575E+02  0.12833709354E+03  0.16933452494E+03  0.00000000000E+00 0. -1.
         -2    1    5    5    0  503 -0.16907387173E+03 -0.20704238502E+03  0.15039693657E+03  0.30671120264E+03  0.00000000000E+00 0.  1.
         -3    1    6    6    0  502  0.90735268544E+02  0.38803106649E+03  0.74484021223E+02  0.40539963855E+03  0.00000000000E+00 0.  1.
<mgrwt>
<rscale>  0 0.13899936E+04</rscale>
<asrwt>0</asrwt>
<pdfrwt beam="1">  1        2 0.11714932E+00 0.13899936E+04</pdfrwt>
<pdfrwt beam="2">  1       -2 0.97588610E-01 0.13899936E+04</pdfrwt>
<totfact> 0.31342613E+01</totfact>
</mgrwt>
</event>
<event>
12    1  0.1201209E-007  0.1204683E+04  0.7818608E-02  0.9108768E-01
         -4   -1    0    0    0  501 -0.00000000000E+00  0.00000000000E+00  0.32074200671E+03  0.32074200671E+03  0.00000000000E+00 0.  1.
          4   -1    0    0  501    0  0.00000000000E+00 -0.00000000000E+00 -0.11311739139E+04  0.11311739139E+04  0.00000000000E+00 0. -1.
         23    2    1    2    0    0 -0.25181621995E+03 -0.14250412786E+02 -0.18239678471E+03  0.32407479620E+03  0.90229726610E+02 0.  0.
        254    2    1    2    0    0  0.25181621995E+03  0.14250412786E+02 -0.62803512251E+03  0.11278411244E+04  0.90221006644E+03 0.  0.
        -24    2    4    4    0    0  0.46201552730E+03  0.13750151090E+02 -0.74052994130E+03  0.87648883803E+03  0.78744365553E+02 0.  0.
         24    2    4    4    0    0 -0.21019930735E+03  0.50026169585E+00  0.11249481879E+03  0.25135228641E+03  0.79617137349E+02 0.  0.
         11    1    3    3    0    0 -0.11529178772E+03 -0.43238126697E+02 -0.11733885437E+03  0.17008862002E+03  0.00000000000E+00 0. -1.
        -11    1    3    3    0    0 -0.13652443223E+03  0.28987713911E+02 -0.65057930341E+02  0.15398617618E+03  0.00000000000E+00 0.  1.
          4    1    6    6  502    0 -0.15040057143E+03 -0.35995201889E+02  0.80299984169E+02  0.17425290214E+03  0.00000000000E+00 0. -1.
          3    1    5    5  503    0  0.37654086639E+03  0.21210039290E+02 -0.65190798729E+03  0.75313804426E+03  0.00000000000E+00 0. -1.
         -4    1    5    5    0  503  0.85474660907E+02 -0.74598881999E+01 -0.88621954013E+02  0.12335079376E+03  0.00000000000E+00 0.  1.
         -3    1    6    6    0  502 -0.59798735917E+02  0.36495463585E+02  0.32194834619E+02  0.77099384276E+02  0.00000000000E+00 0.  1.
<mgrwt>
<rscale>  0 0.12046825E+04</rscale>
<asrwt>0</asrwt>
<pdfrwt beam="1">  1        4 0.17402675E+00 0.12046825E+04</pdfrwt>
<pdfrwt beam="2">  1       -4 0.49344924E-01 0.12046825E+04</pdfrwt>
<totfact> 0.15460739E+00</totfact>
</mgrwt>
</event>
<event>
12    1  0.1201209E-007  0.1614150E+04  0.7818608E-02  0.8811902E-01
          2   -1    0    0  501    0  0.00000000000E+00  0.00000000000E+00  0.17057138427E+04  0.17057138427E+04  0.00000000000E+00 0. -1.
         -2   -1    0    0    0  501 -0.00000000000E+00 -0.00000000000E+00 -0.38187520247E+03  0.38187520247E+03  0.00000000000E+00 0.  1.
         23    2    1    2    0    0 -0.52944352861E+03  0.17794923107E+03  0.47741686543E+03  0.74066942484E+03  0.93209198439E+02 0.  0.
        254    2    1    2    0    0  0.52944352861E+03 -0.17794923107E+03  0.84642177478E+03  0.13469196203E+04  0.88644586067E+03 0.  0.
        -24    2    4    4    0    0  0.33248763793E+03 -0.53187409493E+03  0.56390012735E+03  0.84721272209E+03  0.79674089935E+02 0.  0.
         24    2    4    4    0    0  0.19695589068E+03  0.35392486386E+03  0.28252164742E+03  0.49970689821E+03  0.76381088759E+02 0.  0.
         11    1    3    3    0    0 -0.21505493811E+03  0.66398602720E+02  0.25295814884E+03  0.33859300925E+03  0.00000000000E+00 0.  1.
        -11    1    3    3    0    0 -0.31438859050E+03  0.11155062835E+03  0.22445871659E+03  0.40207641559E+03  0.00000000000E+00 0. -1.
          2    1    6    6  502    0  0.15233460790E+03  0.32457610393E+03  0.25128203991E+03  0.43783346559E+03  0.00000000000E+00 0. -1.
          1    1    5    5  503    0  0.33260458284E+03 -0.51830687807E+03  0.53702462880E+03  0.81710665174E+03  0.00000000000E+00 0. -1.
         -2    1    5    5    0  503 -0.11694490617E+00 -0.13567216860E+02  0.26875498554E+02  0.30106070351E+02  0.00000000000E+00 0.  1.
         -1    1    6    6    0  502  0.44621282782E+02  0.29348759928E+02  0.31239607511E+02  0.61873432617E+02  0.00000000000E+00 0.  1.
<mgrwt>
<rscale>  0 0.16141497E+04</rscale>
<asrwt>0</asrwt>
<pdfrwt beam="1">  1        2 0.26241751E+00 0.16141497E+04</pdfrwt>
<pdfrwt beam="2">  1       -2 0.58750032E-01 0.16141497E+04</pdfrwt>
<totfact> 0.25247951E+01</totfact>
</mgrwt>
</event>
<event>
12    1  0.1201209E-007  0.1723150E+04  0.7818608E-02  0.8748270E-01
          1   -1    0    0  501    0  0.00000000000E+00  0.00000000000E+00  0.20361386140E+04  0.20361386140E+04  0.00000000000E+00 0. -1.
         -1   -1    0    0    0  501 -0.00000000000E+00 -0.00000000000E+00 -0.36456819498E+03  0.36456819498E+03  0.00000000000E+00 0.  1.
         23    2    1    2    0    0  0.37304914372E+03 -0.32602690958E+03  0.82835754579E+02  0.51079065917E+03  0.92661350405E+02 0.  0.
        254    2    1    2    0    0 -0.37304914372E+03  0.32602690958E+03  0.15887346644E+04  0.18899161498E+04  0.89568186869E+03 0.  0.
        -24    2    4    4    0    0 -0.37135397798E+03 -0.28792717401E+02  0.15597166449E+03  0.41171136958E+03  0.80288817289E+02 0.  0.
         24    2    4    4    0    0 -0.16951657347E+01  0.35481962698E+03  0.14327629999E+04  0.14782047802E+04  0.79873130576E+02 0.  0.
         11    1    3    3    0    0  0.35134462531E+03 -0.30685049792E+03  0.53445789700E+02  0.46952819537E+03  0.00000000000E+00 0.  1.
        -11    1    3    3    0    0  0.21704518405E+02 -0.19176411664E+02  0.29389964879E+02  0.41262463803E+02  0.00000000000E+00 0. -1.
          2    1    6    6  502    0 -0.29327388056E+02  0.52609994371E+02  0.23671271564E+03  0.24425563851E+03  0.00000000000E+00 0. -1.
          3    1    5    5  503    0  0.12114784226E+01  0.12964738392E+01  0.10457475753E+02  0.10606946946E+02  0.00000000000E+00 0. -1.
         -2    1    5    5    0  503 -0.37256545640E+03 -0.30089191240E+02  0.14551418874E+03  0.40110442264E+03  0.00000000000E+00 0.  1.
         -1    1    6    6    0  502  0.27632222321E+02  0.30220963261E+03  0.11960502843E+04  0.12339491417E+04  0.00000000000E+00 0.  1.
<mgrwt>
<rscale>  0 0.17231499E+04</rscale>
<asrwt>0</asrwt>
<pdfrwt beam="1">  1        1 0.31325209E+00 0.17231499E+04</pdfrwt>
<pdfrwt beam="2">  1       -1 0.56087416E-01 0.17231499E+04</pdfrwt>
<totfact> 0.86048638E+00</totfact>
</mgrwt>
</event>
<event>
12    1  0.1201209E-007  0.1923495E+04  0.7818608E-02  0.8643249E-01
         -2   -1    0    0    0  501 -0.00000000000E+00  0.00000000000E+00  0.14005365017E+04  0.14005365017E+04  0.00000000000E+00 0.  1.
          2   -1    0    0  501    0  0.00000000000E+00 -0.00000000000E+00 -0.66043159996E+03  0.66043159996E+03  0.00000000000E+00 0. -1.
         23    2    1    2    0    0  0.51195923496E+03  0.73401721907E+02  0.86573221647E+03  0.10123522329E+04  0.88739516922E+02 0.  0.
        254    2    1    2    0    0 -0.51195923496E+03 -0.73401721907E+02 -0.12562731477E+03  0.10486158687E+04  0.90350591963E+03 0.  0.
        -24    2    4    4    0    0 -0.14808881625E+03 -0.48568091952E+02 -0.49400288888E+03  0.52407338418E+03  0.79529244450E+02 0.  0.
         24    2    4    4    0    0 -0.36387041871E+03 -0.24833629955E+02  0.36837557412E+03  0.52454248451E+03  0.80161484876E+02 0.  0.
         13    1    3    3    0    0  0.30822566805E+03  0.61979180920E+02  0.59926335428E+03  0.67672819440E+03  0.00000000000E+00 0. -1.
        -13    1    3    3    0    0  0.20373356692E+03  0.11422540988E+02  0.26646886219E+03  0.33562403855E+03  0.00000000000E+00 0.  1.
          4    1    6    6  502    0 -0.13042682735E+03  0.50893517699E+01  0.18386541183E+03  0.22548514023E+03  0.00000000000E+00 0. -1.
          3    1    5    5  503    0 -0.31919047812E+02 -0.26356719696E+02 -0.51699403660E+02  0.66229378867E+02  0.00000000000E+00 0. -1.
         -4    1    5    5    0  503 -0.11616976844E+03 -0.22211372256E+02 -0.44230348523E+03  0.45784400531E+03  0.00000000000E+00 0.  1.
         -3    1    6    6    0  502 -0.23344359136E+03 -0.29922981725E+02  0.18451016229E+03  0.29905734429E+03  0.00000000000E+00 0.  1.
<mgrwt>
<rscale>  0 0.19234953E+04</rscale>
<asrwt>0</asrwt>
<pdfrwt beam="1">  1        2 0.10160486E+00 0.19234953E+04</pdfrwt>
<pdfrwt beam="2">  1       -2 0.21546715E+00 0.19234953E+04</pdfrwt>
<totfact> 0.43497154E+00</totfact>
</mgrwt>
</event>
<event>
12    1  0.2258548E-007  0.2386562E+04  0.7818608E-02  0.8444552E-01
          2   -1    0    0  501    0  0.00000000000E+00  0.00000000000E+00  0.15101626454E+04  0.15101626454E+04  0.00000000000E+00 0. -1.
         -2   -1    0    0    0  501 -0.00000000000E+00 -0.00000000000E+00 -0.94289142706E+03  0.94289142706E+03  0.00000000000E+00 0.  1.
         23    2    1    2    0    0  0.85860107755E+02  0.87470093518E+03  0.73563986971E+03  0.11497489329E+04  0.91010475509E+02 0.  0.
        254    2    1    2    0    0 -0.85860107755E+02 -0.87470093518E+03 -0.16836865141E+03  0.13033051395E+04  0.94751390483E+03 0.  0.
        -24    2    4    4    0    0  0.40468344700E+03 -0.22370569785E+03 -0.13820814450E+02  0.46982230368E+03  0.82030790551E+02 0.  0.
         24    2    4    4    0    0 -0.49054355476E+03 -0.65099523734E+03 -0.15454783696E+03  0.83348283585E+03  0.79880070061E+02 0.  0.
         11    1    3    3    0    0  0.10507736096E+03  0.71195807829E+03  0.59394518463E+03  0.93311116132E+03  0.00000000000E+00 0. -1.
        -11    1    3    3    0    0 -0.19217253208E+02  0.16274285689E+03  0.14169468508E+03  0.21663777157E+03  0.00000000000E+00 0.  1.
          4    1    6    6  502    0 -0.43333640097E+03 -0.53301674270E+03 -0.14455933638E+03  0.70198624355E+03  0.00000000000E+00 0. -1.
          3    1    5    5  503    0  0.36386913377E+03 -0.21791601551E+03  0.57915277850E+01  0.42417175544E+03  0.00000000000E+00 0. -1.
         -4    1    5    5    0  503  0.40814313239E+02 -0.57896823407E+01 -0.19612342235E+02  0.45650548241E+02  0.00000000000E+00 0.  1.
         -3    1    6    6    0  502 -0.57207153793E+02 -0.11797849464E+03 -0.99885005843E+01  0.13149659230E+03  0.00000000000E+00 0.  1.
<mgrwt>
<rscale>  0 0.23865619E+04</rscale>
<asrwt>0</asrwt>
<pdfrwt beam="1">  1        2 0.23233272E+00 0.23865619E+04</pdfrwt>
<pdfrwt beam="2">  1       -2 0.14506022E+00 0.23865619E+04</pdfrwt>
<totfact> 0.36918808E+00</totfact>
</mgrwt>
</event>
<event>
12    1  0.1201209E-007  0.1465420E+04  0.7818608E-02  0.8907779E-01
         -2   -1    0    0    0  501 -0.00000000000E+00  0.00000000000E+00  0.19114723259E+03  0.19114723259E+03  0.00000000000E+00 0.  1.
          2   -1    0    0  501    0  0.00000000000E+00 -0.00000000000E+00 -0.28086411982E+04  0.28086411982E+04  0.00000000000E+00 0. -1.
         23    2    1    2    0    0  0.28662267998E+03 -0.25833060278E+02 -0.11304916408E+03  0.32206229675E+03  0.90133799475E+02 0.  0.
        254    2    1    2    0    0 -0.28662267998E+03  0.25833060278E+02 -0.25044448015E+04  0.26777261340E+04  0.90285855885E+03 0.  0.
        -24    2    4    4    0    0  0.11646301961E+03  0.37534541901E+03 -0.91018577312E+03  0.99464667768E+03  0.80225016764E+02 0.  0.
         24    2    4    4    0    0 -0.40308569959E+03 -0.34951235873E+03 -0.15942590284E+04  0.16830794564E+04  0.80359421447E+02 0.  0.
         11    1    3    3    0    0  0.24495044353E+03 -0.22724033075E+02 -0.57645003009E+02  0.25266588182E+03  0.00000000000E+00 0.  1.
        -11    1    3    3    0    0  0.41672236448E+02 -0.31090272026E+01 -0.55404161074E+02  0.69396414930E+02  0.00000000000E+00 0. -1.
          2    1    6    6  502    0 -0.29820873552E+03 -0.24382350064E+03 -0.10355868465E+04  0.11049065418E+04  0.00000000000E+00 0. -1.
          1    1    5    5  503    0  0.81163613898E+02  0.31835872743E+03 -0.81009961113E+03  0.87418601653E+03  0.00000000000E+00 0. -1.
         -2    1    5    5    0  503  0.35299405711E+02  0.56986691585E+02 -0.10008616199E+03  0.12046066115E+03  0.00000000000E+00 0.  1.
         -1    1    6    6    0  502 -0.10487696407E+03 -0.10568885810E+03 -0.55867218192E+03  0.57817291459E+03  0.00000000000E+00 0.  1.
<mgrwt>
<rscale>  0 0.14654201E+04</rscale>
<asrwt>0</asrwt>
<pdfrwt beam="1">  1        2 0.43209859E+00 0.14654201E+04</pdfrwt>
<pdfrwt beam="2">  1       -2 0.29407270E-01 0.14654201E+04</pdfrwt>
<totfact> 0.23692329E+01</totfact>
</mgrwt>
</event>
<event>
12    1  0.1201209E-007  0.1123832E+04  0.7818608E-02  0.9182270E-01
          1   -1    0    0  501    0  0.00000000000E+00  0.00000000000E+00  0.64536947971E+03  0.64536947971E+03  0.00000000000E+00 0. -1.
         -1   -1    0    0    0  501 -0.00000000000E+00 -0.00000000000E+00 -0.48925356195E+03  0.48925356195E+03  0.00000000000E+00 0.  1.
         23    2    1    2    0    0  0.20953416713E+03 -0.10122471359E+03  0.13175174593E+02  0.25033236166E+03  0.91332886916E+02 0.  0.
        254    2    1    2    0    0 -0.20953416713E+03  0.10122471359E+03  0.14294074316E+03  0.88429068000E+03  0.84106298268E+03 0.  0.
        -24    2    4    4    0    0  0.18292105105E+03  0.93871394529E+02 -0.24260989158E+03  0.32785572467E+03  0.79736234423E+02 0.  0.
         24    2    4    4    0    0 -0.39245521818E+03  0.73533190661E+01  0.38555063474E+03  0.55643495533E+03  0.83038533110E+02 0.  0.
         11    1    3    3    0    0  0.79003334111E+02 -0.85928542678E+02 -0.89052047176E+01  0.11706640816E+03  0.00000000000E+00 0.  1.
        -11    1    3    3    0    0  0.13053083302E+03 -0.15296170917E+02  0.22080379311E+02  0.13326595351E+03  0.00000000000E+00 0. -1.
          2    1    6    6  502    0 -0.36556077735E+03  0.93524751029E+01  0.32140394319E+03  0.48684971544E+03  0.00000000000E+00 0. -1.
          1    1    5    5  503    0  0.18216249943E+03  0.82858546834E+02 -0.24521770407E+03  0.31651293397E+03  0.00000000000E+00 0. -1.
         -2    1    5    5    0  503  0.75855161380E+00  0.11012847694E+02  0.26078124866E+01  0.11342790700E+02  0.00000000000E+00 0.  1.
         -1    1    6    6    0  502 -0.26894440826E+02 -0.19991560369E+01  0.64146691557E+02  0.69585239885E+02  0.00000000000E+00 0.  1.
<mgrwt>
<rscale>  0 0.11238315E+04</rscale>
<asrwt>0</asrwt>
<pdfrwt beam="1">  1        1 0.99287612E-01 0.11238315E+04</pdfrwt>
<pdfrwt beam="2">  1       -1 0.75269779E-01 0.11238315E+04</pdfrwt>
<totfact> 0.54369643E+01</totfact>
</mgrwt>
</event>
<event>
12    1  0.1201209E-007  0.1608606E+04  0.7818608E-02  0.8815279E-01
          1   -1    0    0  501    0  0.00000000000E+00  0.00000000000E+00  0.33091916928E+04  0.33091916928E+04  0.00000000000E+00 0. -1.
         -1   -1    0    0    0  501 -0.00000000000E+00 -0.00000000000E+00 -0.19548675643E+03  0.19548675643E+03  0.00000000000E+00 0.  1.
         23    2    1    2    0    0  0.18116098210E+03 -0.43293106982E+03  0.16985141737E+04  0.17645469328E+04  0.91797969207E+02 0.  0.
        254    2    1    2    0    0 -0.18116098210E+03  0.43293106982E+03  0.14151907626E+04  0.17401315164E+04  0.89724254639E+03 0.  0.
        -24    2    4    4    0    0  0.21345192743E+03 -0.15227272208E+03  0.22691372980E+03  0.35575027191E+03  0.79496590981E+02 0.  0.
         24    2    4    4    0    0 -0.39461290953E+03  0.58520379191E+03  0.11882770329E+04  0.13843812445E+04  0.79538021701E+02 0.  0.
         13    1    3    3    0    0  0.13997444694E+03 -0.28245515390E+03  0.98656446456E+03  0.10357042061E+04  0.00000000000E+00 0. -1.
        -13    1    3    3    0    0  0.41186535163E+02 -0.15047591592E+03  0.71194970913E+03  0.72884272671E+03  0.00000000000E+00 0.  1.
          2    1    6    6  502    0 -0.62417499171E+02  0.11987470924E+03  0.28403546723E+03  0.31455053133E+03  0.00000000000E+00 0. -1.
          1    1    5    5  503    0  0.75909926467E+01 -0.12821786513E+02 -0.50197166059E+01  0.15723197307E+02  0.00000000000E+00 0. -1.
         -2    1    5    5    0  503  0.20586093478E+03 -0.13945093557E+03  0.23193344640E+03  0.34002707460E+03  0.00000000000E+00 0.  1.
         -1    1    6    6    0  502 -0.33219541036E+03  0.46532908267E+03  0.90424156563E+03  0.10698307132E+04  0.00000000000E+00 0.  1.
<mgrwt>
<rscale>  0 0.16086058E+04</rscale>
<asrwt>0</asrwt>
<pdfrwt beam="1">  1        1 0.50910637E+00 0.16086058E+04</pdfrwt>
<pdfrwt beam="2">  1       -1 0.30074888E-01 0.16086058E+04</pdfrwt>
<totfact> 0.34490268E+00</totfact>
</mgrwt>
</event>
<event>
12    1  0.1201209E-007  0.1489119E+04  0.7818608E-02  0.8891721E-01
          2   -1    0    0  501    0  0.00000000000E+00  0.00000000000E+00  0.19836080256E+04  0.19836080256E+04  0.00000000000E+00 0. -1.
         -2   -1    0    0    0  501 -0.00000000000E+00 -0.00000000000E+00 -0.27947501616E+03  0.27947501616E+03  0.00000000000E+00 0.  1.
         23    2    1    2    0    0  0.14846648303E+02 -0.42811306180E+03  0.84181981387E+03  0.94892129064E+03  0.91048339676E+02 0.  0.
        254    2    1    2    0    0 -0.14846648303E+02  0.42811306180E+03  0.86231319561E+03  0.13141617512E+04  0.89439132613E+03 0.  0.
        -24    2    4    4    0    0 -0.30148839751E+03  0.40414376236E+03  0.87741000210E+03  0.10159760471E+04  0.90175285468E+02 0.  0.
         24    2    4    4    0    0  0.28664174920E+03  0.23969299432E+02 -0.15096806481E+02  0.29818570402E+03  0.77128339889E+02 0.  0.
         11    1    3    3    0    0  0.22395178462E+02 -0.56050933253E+02  0.17733875056E+03  0.18732934523E+03  0.00000000000E+00 0.  1.
        -11    1    3    3    0    0 -0.75485301585E+01 -0.37206212854E+03  0.66448106331E+03  0.76159194540E+03  0.00000000000E+00 0. -1.
          2    1    6    6  502    0  0.17816486386E+03  0.91294010226E+01 -0.46357138143E+02  0.18432321865E+03  0.00000000000E+00 0. -1.
          1    1    5    5  503    0 -0.30302538840E+03  0.38003804225E+03  0.85214584215E+03  0.98102285186E+03  0.00000000000E+00 0. -1.
         -2    1    5    5    0  503  0.15369908946E+01  0.24105720112E+02  0.25264159947E+02  0.34953195290E+02  0.00000000000E+00 0.  1.
         -1    1    6    6    0  502  0.10847688534E+03  0.14839898410E+02  0.31260331661E+02  0.11386248537E+03  0.00000000000E+00 0.  1.
<mgrwt>
<rscale>  0 0.14891190E+04</rscale>
<asrwt>0</asrwt>
<pdfrwt beam="1">  1        2 0.30517046E+00 0.14891190E+04</pdfrwt>
<pdfrwt beam="2">  1       -2 0.42996158E-01 0.14891190E+04</pdfrwt>
<totfact> 0.33849069E+01</totfact>
</mgrwt>
</event>
<event>
12    1  0.1201209E-007  0.1704876E+04  0.7818608E-02  0.8758588E-01
         -2   -1    0    0    0  501 -0.00000000000E+00  0.00000000000E+00  0.38361353555E+03  0.38361353555E+03  0.00000000000E+00 0.  1.
          2   -1    0    0  501    0  0.00000000000E+00 -0.00000000000E+00 -0.18942247605E+04  0.18942247605E+04  0.00000000000E+00 0. -1.
         23    2    1    2    0    0 -0.44393534932E+03  0.24721771891E+03 -0.90023940776E+02  0.52391881671E+03  0.90506473085E+02 0.  0.
        254    2    1    2    0    0  0.44393534932E+03 -0.24721771891E+03 -0.14205872842E+04  0.17539194793E+04  0.89441048358E+03 0.  0.
        -24    2    4    4    0    0  0.21823801522E+03 -0.41670390271E+03 -0.13773958587E+04  0.14580398657E+04  0.85970487206E+02 0.  0.
         24    2    4    4    0    0  0.22569733410E+03  0.16948618380E+03 -0.43191425462E+02  0.29587961360E+03  0.77552520205E+02 0.  0.
         11    1    3    3    0    0 -0.14791527798E+03  0.65434502145E+02 -0.69173090988E+02  0.17591338792E+03  0.00000000000E+00 0. -1.
        -11    1    3    3    0    0 -0.29602007134E+03  0.18178321676E+03 -0.20850849788E+02  0.34800542879E+03  0.00000000000E+00 0.  1.
          4    1    6    6  502    0  0.19249413817E+03  0.10719089195E+03 -0.46619618509E+02  0.22520494971E+03  0.00000000000E+00 0. -1.
          3    1    5    5  503    0  0.15642009152E+03 -0.36672385251E+03 -0.11481080709E+04  0.12153624033E+04  0.00000000000E+00 0. -1.
         -4    1    5    5    0  503  0.61817923701E+02 -0.49980050202E+02 -0.22928778786E+03  0.24267746243E+03  0.00000000000E+00 0.  1.
         -3    1    6    6    0  502  0.33203195928E+02  0.62295291858E+02  0.34281930467E+01  0.70674663883E+02  0.00000000000E+00 0.  1.
<mgrwt>
<rscale>  0 0.17048757E+04</rscale>
<asrwt>0</asrwt>
<pdfrwt beam="1">  1        2 0.29141920E+00 0.17048757E+04</pdfrwt>
<pdfrwt beam="2">  1       -2 0.59017465E-01 0.17048757E+04</pdfrwt>
<totfact> 0.19514031E+01</totfact>
</mgrwt>
</event>
<event>
12    1  0.1201209E-007  0.1345452E+04  0.7818608E-02  0.8994278E-01
         -2   -1    0    0    0  501 -0.00000000000E+00  0.00000000000E+00  0.60156159763E+03  0.60156159763E+03  0.00000000000E+00 0.  1.
          2   -1    0    0  501    0  0.00000000000E+00 -0.00000000000E+00 -0.75230887758E+03  0.75230887758E+03  0.00000000000E+00 0. -1.
         23    2    1    2    0    0 -0.17500717983E+03 -0.18230686858E+03  0.22038471608E+03  0.34742190468E+03  0.90935413592E+02 0.  0.
        254    2    1    2    0    0  0.17500717983E+03  0.18230686858E+03 -0.37113199602E+03  0.10064485705E+04  0.90074217139E+03 0.  0.
        -24    2    4    4    0    0  0.78485161744E+02  0.53803497796E+03 -0.15359199605E+03  0.57063020169E+03  0.79917255371E+02 0.  0.
         24    2    4    4    0    0  0.96522018087E+02 -0.35572810939E+03 -0.21753999997E+03  0.43581836884E+03  0.82188875436E+02 0.  0.
         11    1    3    3    0    0 -0.18605749739E+03 -0.17070910096E+03  0.20560690983E+03  0.32562738038E+03  0.00000000000E+00 0.  1.
        -11    1    3    3    0    0  0.11050317554E+02 -0.11597767614E+02  0.14777806248E+02  0.21794524294E+02  0.00000000000E+00 0. -1.
          2    1    6    6  502    0  0.78303278506E+02 -0.34903059877E+03 -0.20096339442E+03  0.41029263727E+03  0.00000000000E+00 0. -1.
          3    1    5    5  503    0 -0.11940930502E+02  0.13338464645E+03 -0.52595406278E+02  0.14387608033E+03  0.00000000000E+00 0. -1.
         -4    1    5    5    0  503  0.90426092246E+02  0.40465033151E+03 -0.10099658977E+03  0.42675412136E+03  0.00000000000E+00 0.  1.
         -3    1    6    6    0  502  0.18218739581E+02 -0.66975106180E+01 -0.16576605557E+02  0.25525731570E+02  0.00000000000E+00 0.  1.
<mgrwt>
<rscale>  0 0.13454518E+04</rscale>
<asrwt>0</asrwt>
<pdfrwt beam="1">  1        2 0.11573983E+00 0.13454518E+04</pdfrwt>
<pdfrwt beam="2">  1       -2 0.92547939E-01 0.13454518E+04</pdfrwt>
<totfact> 0.36163992E+01</totfact>
</mgrwt>
</event>
<event>
12    1  0.1201209E-007  0.1505466E+04  0.7818608E-02  0.8880826E-01
         -1   -1    0    0    0  501 -0.00000000000E+00  0.00000000000E+00  0.44722777252E+03  0.44722777252E+03  0.00000000000E+00 0.  1.
          1   -1    0    0  501    0  0.00000000000E+00 -0.00000000000E+00 -0.12669308256E+04  0.12669308256E+04  0.00000000000E+00 0. -1.
         23    2    1    2    0    0  0.17632724189E+03 -0.26403952007E+03 -0.67587189329E+03  0.75219191546E+03  0.90452734330E+02 0.  0.
        254    2    1    2    0    0 -0.17632724189E+03  0.26403952007E+03 -0.14383115980E+03  0.96196668267E+03  0.89659596901E+03 0.  0.
        -24    2    4    4    0    0  0.85552720735E+02  0.40440491447E+03 -0.38568837485E+03  0.57084561998E+03  0.79035412846E+02 0.  0.
         24    2    4    4    0    0 -0.26187996263E+03 -0.14036539440E+03  0.24185721506E+03  0.39112106269E+03  0.78722388372E+02 0.  0.
         13    1    3    3    0    0  0.18376899609E+02  0.38111770903E+01 -0.30453752146E+02  0.35772426949E+02  0.00000000000E+00 0.  1.
        -13    1    3    3    0    0  0.15795034229E+03 -0.26785069716E+03 -0.64541814114E+03  0.71641948851E+03  0.00000000000E+00 0. -1.
          4    1    6    6  502    0 -0.23616248791E+03 -0.14673194137E+03  0.23424053860E+03  0.36355414072E+03  0.00000000000E+00 0. -1.
          1    1    5    5  503    0  0.77258406668E+01  0.22527681697E+03 -0.19957140889E+03  0.30106158859E+03  0.00000000000E+00 0. -1.
         -2    1    5    5    0  503  0.77826880068E+02  0.17912809750E+03 -0.18611696596E+03  0.26978403140E+03  0.00000000000E+00 0.  1.
         -3    1    6    6    0  502 -0.25717474721E+02  0.63665469723E+01  0.76166764606E+01  0.27566921966E+02  0.00000000000E+00 0.  1.
<mgrwt>
<rscale>  0 0.15054656E+04</rscale>
<asrwt>0</asrwt>
<pdfrwt beam="1">  1        1 0.19491244E+00 0.15054656E+04</pdfrwt>
<pdfrwt beam="2">  1       -1 0.68804273E-01 0.15054656E+04</pdfrwt>
<totfact> 0.19746719E+01</totfact>
</mgrwt>
</event>
<event>
12    1  0.1201209E-007  0.2597347E+04  0.7818608E-02  0.8369103E-01
         -1   -1    0    0    0  501 -0.00000000000E+00  0.00000000000E+00  0.10216854365E+04  0.10216854365E+04  0.00000000000E+00 0.  1.
          1   -1    0    0  501    0  0.00000000000E+00 -0.00000000000E+00 -0.16507555836E+04  0.16507555836E+04  0.00000000000E+00 0. -1.
         23    2    1    2    0    0 -0.76136939034E+03 -0.53783041835E+03  0.39989153208E+03  0.10183332833E+04  0.90247054917E+02 0.  0.
        254    2    1    2    0    0  0.76136939034E+03  0.53783041835E+03 -0.10289616792E+04  0.16541077369E+04  0.89909140838E+03 0.  0.
        -24    2    4    4    0    0  0.20641343527E+03  0.67821754057E+03 -0.49879044857E+03  0.87052731841E+03  0.80251865492E+02 0.  0.
         24    2    4    4    0    0  0.55495595506E+03 -0.14038712222E+03 -0.53017123061E+03  0.78358041850E+03  0.72333134464E+02 0.  0.
         11    1    3    3    0    0 -0.75308575853E+03 -0.53930182601E+03  0.40186269903E+03  0.10096921551E+04  0.00000000000E+00 0.  1.
        -11    1    3    3    0    0 -0.82836318111E+01  0.14714076617E+01 -0.19711669446E+01  0.86411281446E+01  0.00000000000E+00 0. -1.
          2    1    6    6  502    0  0.13030521328E+03 -0.65298343767E+02 -0.13408066978E+03  0.19804279415E+03  0.00000000000E+00 0. -1.
          1    1    5    5  503    0  0.16846721870E+03  0.43977769936E+03 -0.30684137710E+03  0.56208296481E+03  0.00000000000E+00 0. -1.
         -2    1    5    5    0  503  0.37946216575E+02  0.23843984121E+03 -0.19194907147E+03  0.30844435360E+03  0.00000000000E+00 0.  1.
         -3    1    6    6    0  502  0.42465074178E+03 -0.75088778454E+02 -0.39609056083E+03  0.58553762435E+03  0.00000000000E+00 0.  1.
<mgrwt>
<rscale>  0 0.25973471E+04</rscale>
<asrwt>0</asrwt>
<pdfrwt beam="1">  1        1 0.25396240E+00 0.25973471E+04</pdfrwt>
<pdfrwt beam="2">  1       -1 0.15718238E+00 0.25973471E+04</pdfrwt>
<totfact> 0.13931132E+00</totfact>
</mgrwt>
</event>
<event>
12    1  0.1201209E-007  0.1642240E+04  0.7818608E-02  0.8795011E-01
         -2   -1    0    0    0  501 -0.00000000000E+00  0.00000000000E+00  0.22489365008E+03  0.22489365008E+03  0.00000000000E+00 0.  1.
          2   -1    0    0  501    0  0.00000000000E+00 -0.00000000000E+00 -0.29980294455E+04  0.29980294455E+04  0.00000000000E+00 0. -1.
         23    2    1    2    0    0  0.15070027531E+03 -0.27745120959E+03 -0.10501597144E+03  0.34554407668E+03  0.93180512919E+02 0.  0.
        254    2    1    2    0    0 -0.15070027531E+03  0.27745120959E+03 -0.26681198240E+04  0.28773790189E+04  0.10299305203E+04 0.  0.
        -24    2    4    4    0    0 -0.49214938393E+03 -0.12100372927E+03 -0.16623243059E+04  0.17396720910E+04  0.79271481010E+02 0.  0.
         24    2    4    4    0    0  0.34144910861E+03  0.39845493886E+03 -0.10057955181E+04  0.11377069279E+04  0.86015100313E+02 0.  0.
         11    1    3    3    0    0  0.82713287735E+02 -0.20812015172E+03 -0.10747963358E+03  0.24840965592E+03  0.00000000000E+00 0.  1.
        -11    1    3    3    0    0  0.67986987578E+02 -0.69331057878E+02  0.24636621375E+01  0.97134420766E+02  0.00000000000E+00 0. -1.
          2    1    6    6  502    0  0.31368795268E+02  0.45191921833E+02 -0.59100429755E+02  0.80741389094E+02  0.00000000000E+00 0. -1.
          1    1    5    5  503    0 -0.19672219070E+03 -0.21049506465E+02 -0.74280751981E+03  0.76870391798E+03  0.00000000000E+00 0. -1.
         -2    1    5    5    0  503 -0.29542719323E+03 -0.99954222805E+02 -0.91951678606E+03  0.97096817301E+03  0.00000000000E+00 0.  1.
         -1    1    6    6    0  502  0.31008031335E+03  0.35326301703E+03 -0.94669508834E+03  0.10569655388E+04  0.00000000000E+00 0.  1.
<mgrwt>
<rscale>  0 0.16422397E+04</rscale>
<asrwt>0</asrwt>
<pdfrwt beam="1">  1        2 0.46123529E+00 0.16422397E+04</pdfrwt>
<pdfrwt beam="2">  1       -2 0.34599024E-01 0.16422397E+04</pdfrwt>
<totfact> 0.13142443E+01</totfact>
</mgrwt>
</event>
<event>
12    1  0.1201209E-007  0.1972558E+04  0.7818608E-02  0.8619559E-01
         -2   -1    0    0    0  501 -0.00000000000E+00  0.00000000000E+00  0.43420510035E+03  0.43420510035E+03  0.00000000000E+00 0.  1.
          2   -1    0    0  501    0  0.00000000000E+00 -0.00000000000E+00 -0.22402927279E+04  0.22402927279E+04  0.00000000000E+00 0. -1.
         23    2    1    2    0    0  0.42623193317E+03 -0.33028692538E+03 -0.14783706837E+04  0.15763976471E+04  0.93201659259E+02 0.  0.
        254    2    1    2    0    0 -0.42623193317E+03  0.33028692538E+03 -0.32771694381E+03  0.10981001811E+04  0.89870044990E+03 0.  0.
        -24    2    4    4    0    0  0.63257584686E+02 -0.25885501116E+03 -0.84226473407E+02  0.29082400996E+03  0.80480228174E+02 0.  0.
         24    2    4    4    0    0 -0.48948951786E+03  0.58914193653E+03 -0.24349047040E+03  0.80727617118E+03  0.75624056420E+02 0.  0.
         13    1    3    3    0    0  0.14589049622E+02 -0.99379668578E+00 -0.14878733870E+02  0.20861560879E+02  0.00000000000E+00 0.  1.
        -13    1    3    3    0    0  0.41164288355E+03 -0.32929312869E+03 -0.14634919499E+04  0.15555360862E+04  0.00000000000E+00 0. -1.
          2    1    6    6  502    0 -0.42155501852E+03  0.47870631701E+03 -0.22459976185E+03  0.67624952836E+03  0.00000000000E+00 0. -1.
          3    1    5    5  503    0  0.71139422749E+02 -0.26028218944E+03 -0.84670876060E+02  0.28280168469E+03  0.00000000000E+00 0. -1.
         -4    1    5    5    0  503 -0.78818380628E+01  0.14271782844E+01  0.44440265279E+00  0.80223252752E+01  0.00000000000E+00 0.  1.
         -1    1    6    6    0  502 -0.67934499334E+02  0.11043561953E+03 -0.18890708553E+02  0.13102664282E+03  0.00000000000E+00 0.  1.
<mgrwt>
<rscale>  0 0.19725583E+04</rscale>
<asrwt>0</asrwt>
<pdfrwt beam="1">  1        2 0.34466041E+00 0.19725583E+04</pdfrwt>
<pdfrwt beam="2">  1       -2 0.66800786E-01 0.19725583E+04</pdfrwt>
<totfact> 0.93921993E+00</totfact>
</mgrwt>
</event>
<event>
12    1  0.1201209E-007  0.1653844E+04  0.7818608E-02  0.8788135E-01
         -1   -1    0    0    0  501 -0.00000000000E+00  0.00000000000E+00  0.79434001791E+03  0.79434001791E+03  0.00000000000E+00 0.  1.
          1   -1    0    0  501    0  0.00000000000E+00 -0.00000000000E+00 -0.86084088578E+03  0.86084088578E+03  0.00000000000E+00 0. -1.
         23    2    1    2    0    0  0.79119822783E+00  0.24720571861E+03 -0.54463450240E+03  0.60494252964E+03  0.90650039440E+02 0.  0.
        254    2    1    2    0    0 -0.79119822783E+00 -0.24720571861E+03  0.47813363453E+03  0.10502383741E+04  0.90181903759E+03 0.  0.
        -24    2    4    4    0    0 -0.34046352098E+03  0.14183871034E+03  0.61879087741E+02  0.38199603448E+03  0.77835210513E+02 0.  0.
         24    2    4    4    0    0  0.33967232275E+03 -0.38904442895E+03  0.41625454679E+03  0.66824233957E+03  0.80914288776E+02 0.  0.
         11    1    3    3    0    0  0.21157702448E+02  0.22825321432E+03 -0.51787762434E+03  0.56634301621E+03  0.00000000000E+00 0. -1.
        -11    1    3    3    0    0 -0.20366504221E+02  0.18952504291E+02 -0.26756878057E+02  0.38599513423E+02  0.00000000000E+00 0.  1.
          4    1    6    6  502    0  0.27264742672E+02 -0.32132679714E+02  0.90491389962E+01  0.43101765801E+02  0.00000000000E+00 0. -1.
          1    1    5    5  503    0 -0.16235198062E+03  0.52271630874E+02 -0.79821066131E+01  0.17074601908E+03  0.00000000000E+00 0. -1.
         -2    1    5    5    0  503 -0.17811154036E+03  0.89567079462E+02  0.69861194354E+02  0.21125001541E+03  0.00000000000E+00 0.  1.
         -3    1    6    6    0  502  0.31240758008E+03 -0.35691174923E+03  0.40720540780E+03  0.62514057377E+03  0.00000000000E+00 0.  1.
<mgrwt>
<rscale>  0 0.16538444E+04</rscale>
<asrwt>0</asrwt>
<pdfrwt beam="1">  1        1 0.13243706E+00 0.16538444E+04</pdfrwt>
<pdfrwt beam="2">  1       -1 0.12220616E+00 0.16538444E+04</pdfrwt>
<totfact> 0.11091637E+01</totfact>
</mgrwt>
</event>
<event>
12    1  0.1201209E-007  0.3356586E+04  0.7818608E-02  0.8148644E-01
         -2   -1    0    0    0  501 -0.00000000000E+00  0.00000000000E+00  0.11984644391E+04  0.11984644391E+04  0.00000000000E+00 0.  1.
          2   -1    0    0  501    0  0.00000000000E+00 -0.00000000000E+00 -0.23502306656E+04  0.23502306656E+04  0.00000000000E+00 0. -1.
         23    2    1    2    0    0 -0.83571380981E+03  0.77396467385E+03  0.58289368721E+03  0.12844937550E+04  0.11278416468E+03 0.  0.
        254    2    1    2    0    0  0.83571380981E+03 -0.77396467385E+03 -0.17346599137E+04  0.22642013496E+04  0.90560689446E+03 0.  0.
        -24    2    4    4    0    0  0.99235898179E+03 -0.56087106534E+03 -0.15730082462E+04  0.19442504933E+04  0.80014607002E+02 0.  0.
         24    2    4    4    0    0 -0.15664517197E+03 -0.21309360851E+03 -0.16165166751E+03  0.31995085638E+03  0.79313889069E+02 0.  0.
         13    1    3    3    0    0 -0.54123376691E+03  0.57059672385E+03  0.38722548106E+03  0.87661746782E+03  0.00000000000E+00 0.  1.
        -13    1    3    3    0    0 -0.29448004290E+03  0.20336795001E+03  0.19566820615E+03  0.40787628720E+03  0.00000000000E+00 0. -1.
          2    1    6    6  502    0 -0.16363694420E+03 -0.21350696829E+03 -0.15610138070E+03  0.31101433419E+03  0.00000000000E+00 0. -1.
          1    1    5    5  503    0  0.74614032795E+03 -0.38321745752E+03 -0.11737885856E+04  0.14426921544E+04  0.00000000000E+00 0. -1.
         -2    1    5    5    0  503  0.24621865384E+03 -0.17765360782E+03 -0.39921966059E+03  0.50155833885E+03  0.00000000000E+00 0.  1.
         -1    1    6    6    0  502  0.69917722260E+01  0.41335978074E+00 -0.55502868105E+01  0.89365221897E+01  0.00000000000E+00 0.  1.
<mgrwt>
<rscale>  0 0.33565863E+04</rscale>
<asrwt>0</asrwt>
<pdfrwt beam="1">  1        2 0.36157395E+00 0.33565863E+04</pdfrwt>
<pdfrwt beam="2">  1       -2 0.18437915E+00 0.33565863E+04</pdfrwt>
<totfact> 0.59705135E-01</totfact>
</mgrwt>
</event>
<event>
12    1  0.1201209E-007  0.1238627E+04  0.7818608E-02  0.9079702E-01
         -2   -1    0    0    0  501 -0.00000000000E+00  0.00000000000E+00  0.12316585208E+03  0.12316585208E+03  0.00000000000E+00 0. -1.
          2   -1    0    0  501    0  0.00000000000E+00 -0.00000000000E+00 -0.31140896874E+04  0.31140896874E+04  0.00000000000E+00 0.  1.
         23    2    1    2    0    0 -0.43273206397E+02 -0.40800668640E+02 -0.10895590668E+04  0.10956951925E+04  0.99356579078E+02 0.  0.
        254    2    1    2    0    0  0.43273206397E+02  0.40800668640E+02 -0.19013647685E+04  0.21415603470E+04  0.98364397620E+03 0.  0.
        -24    2    4    4    0    0  0.35622800843E+03  0.37313360751E+03 -0.99122992060E+03  0.11200309622E+04  0.76193947673E+02 0.  0.
         24    2    4    4    0    0 -0.31295480203E+03 -0.33233293887E+03 -0.91013484787E+03  0.10215293848E+04  0.82407234629E+02 0.  0.
         11    1    3    3    0    0 -0.16947771904E+02 -0.38372204978E+02 -0.14975009760E+03  0.15551445212E+03  0.00000000000E+00 0. -1.
        -11    1    3    3    0    0 -0.26325434493E+02 -0.24284636620E+01 -0.93980896921E+03  0.94018074036E+03  0.00000000000E+00 0.  1.
          2    1    6    6  502    0 -0.13088454976E+03 -0.10107361331E+03 -0.26402983909E+03  0.31154196604E+03  0.00000000000E+00 0. -1.
          3    1    5    5  503    0  0.24557498760E+03  0.25436486861E+03 -0.75143218568E+03  0.83045703718E+03  0.00000000000E+00 0. -1.
         -4    1    5    5    0  503  0.11065302083E+03  0.11876873889E+03 -0.23979773492E+03  0.28957392498E+03  0.00000000000E+00 0.  1.
         -1    1    6    6    0  502 -0.18207025227E+03 -0.23125932556E+03 -0.64610500878E+03  0.70998741875E+03  0.00000000000E+00 0.  1.
<mgrwt>
<rscale>  0 0.12386275E+04</rscale>
<asrwt>0</asrwt>
<pdfrwt beam="1">  1        2 0.47909071E+00 0.12386275E+04</pdfrwt>
<pdfrwt beam="2">  1       -2 0.18948593E-01 0.12386275E+04</pdfrwt>
<totfact> 0.34613181E+01</totfact>
</mgrwt>
</event>
<event>
12    1  0.1201209E-007  0.1970985E+04  0.7818608E-02  0.8620307E-01
          1   -1    0    0  501    0  0.00000000000E+00  0.00000000000E+00  0.19732859381E+04  0.19732859381E+04  0.00000000000E+00 0. -1.
         -1   -1    0    0    0  501 -0.00000000000E+00 -0.00000000000E+00 -0.49217181981E+03  0.49217181981E+03  0.00000000000E+00 0.  1.
         23    2    1    2    0    0  0.10026807224E+02  0.70324190474E+03  0.93579726849E+03  0.11741422847E+04  0.90795724026E+02 0.  0.
        254    2    1    2    0    0 -0.10026807224E+02 -0.70324190474E+03  0.54531684978E+03  0.12913154732E+04  0.93566846224E+03 0.  0.
        -24    2    4    4    0    0  0.20833146016E+03 -0.48572843014E+03 -0.12502702411E+03  0.54918633047E+03  0.81484745082E+02 0.  0.
         24    2    4    4    0    0 -0.21835826738E+03 -0.21751347461E+03  0.67034387389E+03  0.74212914274E+03  0.80014440373E+02 0.  0.
         11    1    3    3    0    0  0.11463049429E+02  0.55542397271E+03  0.79593505445E+03  0.97063886274E+03  0.00000000000E+00 0. -1.
        -11    1    3    3    0    0 -0.14362422050E+01  0.14781793204E+03  0.13986221404E+03  0.20350342193E+03  0.00000000000E+00 0.  1.
          4    1    6    6  502    0 -0.10350365585E+02  0.19426224116E+01  0.60837830342E+02  0.61742574050E+02  0.00000000000E+00 0. -1.
          3    1    5    5  503    0  0.53098160917E+02 -0.84519749999E+02  0.45019758085E+01  0.99916318081E+02  0.00000000000E+00 0. -1.
         -4    1    5    5    0  503  0.15523329924E+03 -0.40120868014E+03 -0.12952899992E+03  0.44927001239E+03  0.00000000000E+00 0.  1.
         -3    1    6    6    0  502 -0.20800790180E+03 -0.21945609702E+03  0.60950604355E+03  0.68038656869E+03  0.00000000000E+00 0.  1.
<mgrwt>
<rscale>  0 0.19709853E+04</rscale>
<asrwt>0</asrwt>
<pdfrwt beam="1">  1        1 0.30358245E+00 0.19709853E+04</pdfrwt>
<pdfrwt beam="2">  1       -1 0.75718743E-01 0.19709853E+04</pdfrwt>
<totfact> 0.50634009E+00</totfact>
</mgrwt>
</event>
<event>
12    1  0.1201209E-007  0.1561968E+04  0.7818608E-02  0.8844259E-01
          1   -1    0    0  501    0  0.00000000000E+00  0.00000000000E+00  0.62187394557E+03  0.62187394557E+03  0.00000000000E+00 0. -1.
         -1   -1    0    0    0  501 -0.00000000000E+00 -0.00000000000E+00 -0.98080346582E+03  0.98080346582E+03  0.00000000000E+00 0.  1.
         23    2    1    2    0    0 -0.18724456425E+03 -0.23721048471E+03  0.30608900569E+03  0.43916808097E+03  0.88593357777E+02 0.  0.
        254    2    1    2    0    0  0.18724456425E+03  0.23721048471E+03 -0.66501852595E+03  0.11635093304E+04  0.90563512587E+03 0.  0.
        -24    2    4    4    0    0 -0.19192671544E+03 -0.24441223068E+03 -0.13132742524E+03  0.34680621018E+03  0.80339605370E+02 0.  0.
         24    2    4    4    0    0  0.37917127969E+03  0.48162271540E+03 -0.53369110071E+03  0.81670312024E+03  0.80290075975E+02 0.  0.
         11    1    3    3    0    0 -0.56101758361E-01 -0.13809569278E+01  0.31930968942E+02  0.31960866181E+02  0.00000000000E+00 0.  1.
        -11    1    3    3    0    0 -0.18718846249E+03 -0.23582952778E+03  0.27415803675E+03  0.40720721479E+03  0.00000000000E+00 0. -1.
          2    1    6    6  502    0  0.64999981049E+02  0.12890637293E+03 -0.10159380051E+03  0.17653087781E+03  0.00000000000E+00 0. -1.
          3    1    5    5  503    0 -0.10600460926E+03 -0.16744867237E+03 -0.46340596125E+02  0.20352760479E+03  0.00000000000E+00 0. -1.
         -4    1    5    5    0  503 -0.85922106184E+02 -0.76963558313E+02 -0.84986829113E+02  0.14327860539E+03  0.00000000000E+00 0.  1.
         -1    1    6    6    0  502  0.31417129864E+03  0.35271634246E+03 -0.43209730020E+03  0.64017224242E+03  0.00000000000E+00 0.  1.
<mgrwt>
<rscale>  0 0.15619681E+04</rscale>
<asrwt>0</asrwt>
<pdfrwt beam="1">  1        1 0.95672915E-01 0.15619681E+04</pdfrwt>
<pdfrwt beam="2">  1       -1 0.15089284E+00 0.15619681E+04</pdfrwt>
<totfact> 0.10744006E+01</totfact>
</mgrwt>
</event>
<event>
12    1  0.1201209E-007  0.1267399E+04  0.7818608E-02  0.9055825E-01
          2   -1    0    0  501    0  0.00000000000E+00  0.00000000000E+00  0.16432347954E+04  0.16432347954E+04  0.00000000000E+00 0. -1.
         -2   -1    0    0    0  501 -0.00000000000E+00 -0.00000000000E+00 -0.24438088971E+03  0.24438088971E+03  0.00000000000E+00 0.  1.
         23    2    1    2    0    0  0.93557974406E+02 -0.27376202568E+03  0.19716056173E+03  0.36182526674E+03  0.91359155399E+02 0.  0.
        254    2    1    2    0    0 -0.93557974406E+02  0.27376202568E+03  0.12016933439E+04  0.15257904183E+04  0.89457854129E+03 0.  0.
        -24    2    4    4    0    0 -0.14459081085E+01 -0.34724300096E+02  0.11913379994E+04  0.11945694068E+04  0.80634801866E+02 0.  0.
         24    2    4    4    0    0 -0.92112066297E+02  0.30848632578E+03  0.10355344555E+02  0.33122101151E+03  0.77147127996E+02 0.  0.
         13    1    3    3    0    0  0.10630561104E+03 -0.26971906193E+03  0.18646013047E+03  0.34469789028E+03  0.00000000000E+00 0.  1.
        -13    1    3    3    0    0 -0.12747636631E+02 -0.40429637479E+01  0.10700431260E+02  0.17127376468E+02  0.00000000000E+00 0. -1.
          2    1    6    6  502    0 -0.23113137161E+02  0.12719335958E+02 -0.60606749942E+01  0.27068993295E+02  0.00000000000E+00 0. -1.
          3    1    5    5  503    0  0.33285260483E+01 -0.17530245032E+02  0.49941161868E+02  0.53033086137E+02  0.00000000000E+00 0. -1.
         -2    1    5    5    0  503 -0.47744341568E+01 -0.17194055064E+02  0.11413968375E+04  0.11415363207E+04  0.00000000000E+00 0.  1.
         -1    1    6    6    0  502 -0.68998929137E+02  0.29576698982E+03  0.16416019550E+02  0.30415201822E+03  0.00000000000E+00 0.  1.
<mgrwt>
<rscale>  0 0.12673992E+04</rscale>
<asrwt>0</asrwt>
<pdfrwt beam="1">  1        2 0.25280535E+00 0.12673992E+04</pdfrwt>
<pdfrwt beam="2">  1       -2 0.37597061E-01 0.12673992E+04</pdfrwt>
<totfact> 0.69131911E+01</totfact>
</mgrwt>
</event>
<event>
12    1  0.1201209E-007  0.1331528E+04  0.7818608E-02  0.9004930E-01
         -2   -1    0    0    0  501 -0.00000000000E+00  0.00000000000E+00  0.64453239882E+03  0.64453239882E+03  0.00000000000E+00 0.  1.
          2   -1    0    0  501    0  0.00000000000E+00 -0.00000000000E+00 -0.68769535790E+03  0.68769535790E+03  0.00000000000E+00 0. -1.
         23    2    1    2    0    0  0.20516129692E+03  0.58525927773E+01 -0.29736228383E+03  0.37270499375E+03  0.91429064991E+02 0.  0.
        254    2    1    2    0    0 -0.20516129692E+03 -0.58525927773E+01  0.25419932476E+03  0.95952276298E+03  0.90218691266E+03 0.  0.
        -24    2    4    4    0    0 -0.41818060769E+03  0.22514086216E+03  0.37825868894E+03  0.61234390806E+03  0.79510989883E+02 0.  0.
         24    2    4    4    0    0  0.21301931078E+03 -0.23099345494E+03 -0.12405936418E+03  0.34717885492E+03  0.80045165204E+02 0.  0.
         13    1    3    3    0    0  0.22592705564E+01 -0.28770254239E+01  0.63609074619E+01  0.73377600448E+01  0.00000000000E+00 0.  1.
        -13    1    3    3    0    0  0.20290202636E+03  0.87296182011E+01 -0.30372319130E+03  0.36536723371E+03  0.00000000000E+00 0. -1.
          2    1    6    6  502    0  0.13394851323E+03 -0.17633873139E+03 -0.11786521664E+03  0.25085805086E+03  0.00000000000E+00 0. -1.
          1    1    5    5  503    0 -0.22745502018E+03  0.16566313558E+03  0.20931620480E+03  0.35070405514E+03  0.00000000000E+00 0. -1.
         -2    1    5    5    0  503 -0.19072558751E+03  0.59477726583E+02  0.16894248413E+03  0.26163985292E+03  0.00000000000E+00 0.  1.
         -1    1    6    6    0  502  0.79070797552E+02 -0.54654723544E+02 -0.61941475358E+01  0.96320804060E+02  0.00000000000E+00 0.  1.
<mgrwt>
<rscale>  0 0.13315284E+04</rscale>
<asrwt>0</asrwt>
<pdfrwt beam="1">  1        2 0.10579929E+00 0.13315284E+04</pdfrwt>
<pdfrwt beam="2">  1       -2 0.99158830E-01 0.13315284E+04</pdfrwt>
<totfact> 0.34544213E+01</totfact>
</mgrwt>
</event>
<event>
12    1  0.1201209E-007  0.2319022E+04  0.7818608E-02  0.8470458E-01
         -1   -1    0    0    0  501 -0.00000000000E+00  0.00000000000E+00  0.45923833651E+03  0.45923833651E+03  0.00000000000E+00 0.  1.
          1   -1    0    0  501    0  0.00000000000E+00 -0.00000000000E+00 -0.29276000559E+04  0.29276000559E+04  0.00000000000E+00 0. -1.
         23    2    1    2    0    0 -0.66334455377E+02  0.79028660891E+03 -0.20334686658E+03  0.82390383607E+03  0.92273499736E+02 0.  0.
        254    2    1    2    0    0  0.66334455377E+02 -0.79028660891E+03 -0.22650148528E+04  0.25629345564E+04  0.89965997604E+03 0.  0.
        -24    2    4    4    0    0  0.90728889453E+02 -0.96944911588E+02 -0.15699931241E+04  0.15776330018E+04  0.80108872035E+02 0.  0.
         24    2    4    4    0    0 -0.24394434076E+02 -0.69334169732E+03 -0.69502172878E+03  0.98530155462E+03  0.80287934315E+02 0.  0.
         11    1    3    3    0    0  0.11094932608E+02  0.24763445701E+03 -0.93028631022E+02  0.26476451427E+03  0.00000000000E+00 0. -1.
        -11    1    3    3    0    0 -0.77429387985E+02  0.54265215190E+03 -0.11031823556E+03  0.55913932180E+03  0.00000000000E+00 0.  1.
          4    1    6    6  502    0 -0.23636206233E+02 -0.24052445609E+03 -0.29259965522E+03  0.37950657762E+03  0.00000000000E+00 0. -1.
          3    1    5    5  503    0  0.81214609995E+02 -0.63829762318E+02 -0.76993132670E+03  0.77682964624E+03  0.00000000000E+00 0. -1.
         -4    1    5    5    0  503  0.95142794582E+01 -0.33115149271E+02 -0.80006179736E+03  0.80080335552E+03  0.00000000000E+00 0.  1.
         -3    1    6    6    0  502 -0.75822784310E+00 -0.45281724123E+03 -0.40242207356E+03  0.60579497699E+03  0.00000000000E+00 0.  1.
<mgrwt>
<rscale>  0 0.23190224E+04</rscale>
<asrwt>0</asrwt>
<pdfrwt beam="1">  1        1 0.45040000E+00 0.23190224E+04</pdfrwt>
<pdfrwt beam="2">  1       -1 0.70652052E-01 0.23190224E+04</pdfrwt>
<totfact> 0.12330143E+00</totfact>
</mgrwt>
</event>
<event>
12    1  0.1201209E-007  0.1876849E+04  0.7818608E-02  0.8666467E-01
         -1   -1    0    0    0  501 -0.00000000000E+00  0.00000000000E+00  0.66763292722E+03  0.66763292722E+03  0.00000000000E+00 0.  1.
          1   -1    0    0  501    0  0.00000000000E+00 -0.00000000000E+00 -0.13190493655E+04  0.13190493655E+04  0.00000000000E+00 0. -1.
         23    2    1    2    0    0 -0.10376520358E+02 -0.71076467295E+03 -0.37591774220E+03  0.80911298266E+03  0.89752867999E+02 0.  0.
        254    2    1    2    0    0  0.10376520358E+02  0.71076467295E+03 -0.27549869612E+03  0.11775693101E+04  0.89748306726E+03 0.  0.
        -24    2    4    4    0    0 -0.38873211831E+03  0.48883930031E+03  0.15789485396E+02  0.62989813030E+03  0.80285897711E+02 0.  0.
         24    2    4    4    0    0  0.39910863866E+03  0.22192537264E+03 -0.29128818151E+03  0.54767117980E+03  0.80971229557E+02 0.  0.
         13    1    3    3    0    0  0.14334119478E+02 -0.27676546626E+03 -0.19176105091E+03  0.33701170742E+03  0.00000000000E+00 0.  1.
        -13    1    3    3    0    0 -0.24710639835E+02 -0.43399920669E+03 -0.18415669129E+03  0.47210127524E+03  0.00000000000E+00 0. -1.
          4    1    6    6  502    0  0.30710583031E+03  0.17320196506E+03 -0.26276846831E+03  0.43972739242E+03  0.00000000000E+00 0. -1.
          3    1    5    5  503    0 -0.27425257450E+03  0.39512393277E+03  0.25350917670E+02  0.48164308974E+03  0.00000000000E+00 0. -1.
         -2    1    5    5    0  503 -0.11447954381E+03  0.93715367540E+02 -0.95614322741E+01  0.14825504056E+03  0.00000000000E+00 0.  1.
         -3    1    6    6    0  502  0.92002808356E+02  0.48723407579E+02 -0.28519713200E+02  0.10794378737E+03  0.00000000000E+00 0.  1.
<mgrwt>
<rscale>  0 0.18768493E+04</rscale>
<asrwt>0</asrwt>
<pdfrwt beam="1">  1        1 0.20293067E+00 0.18768493E+04</pdfrwt>
<pdfrwt beam="2">  1       -1 0.10271276E+00 0.18768493E+04</pdfrwt>
<totfact> 0.73646080E+00</totfact>
</mgrwt>
</event>
<event>
12    1  0.1201209E-007  0.2076140E+04  0.7818608E-02  0.8571828E-01
          3   -1    0    0  501    0  0.00000000000E+00  0.00000000000E+00  0.15600334537E+04  0.15600334537E+04  0.00000000000E+00 0. -1.
         -3   -1    0    0    0  501 -0.00000000000E+00 -0.00000000000E+00 -0.69074726257E+03  0.69074726257E+03  0.00000000000E+00 0.  1.
         23    2    1    2    0    0 -0.37986259864E+03 -0.75002313750E+03  0.35036149273E+03  0.91541663171E+03  0.91674060725E+02 0.  0.
        254    2    1    2    0    0  0.37986259864E+03  0.75002313750E+03  0.51892469844E+03  0.13353640846E+04  0.89837859234E+03 0.  0.
        -24    2    4    4    0    0  0.39537178614E+03 -0.66078587605E+02  0.20584010951E+03  0.45750612797E+03  0.79097897802E+02 0.  0.
         24    2    4    4    0    0 -0.15509187498E+02  0.81610172510E+03  0.31308458892E+03  0.87785795662E+03  0.79687336392E+02 0.  0.
         11    1    3    3    0    0 -0.98477601244E+02 -0.19779504543E+03  0.49333056925E+02  0.22639449739E+03  0.00000000000E+00 0.  1.
        -11    1    3    3    0    0 -0.28138499739E+03 -0.55222809206E+03  0.30102843581E+03  0.68902213432E+03  0.00000000000E+00 0. -1.
          4    1    6    6  502    0 -0.14706670863E+01  0.61806783023E+03  0.20132620072E+03  0.65003249513E+03  0.00000000000E+00 0. -1.
          3    1    5    5  503    0  0.18756645522E+03 -0.27709115257E+02  0.53513937211E+02  0.19700942025E+03  0.00000000000E+00 0. -1.
         -4    1    5    5    0  503  0.20780533091E+03 -0.38369472348E+02  0.15232617230E+03  0.26049670772E+03  0.00000000000E+00 0.  1.
         -1    1    6    6    0  502 -0.14038520412E+02  0.19803389487E+03  0.11175838820E+03  0.22782546149E+03  0.00000000000E+00 0.  1.
<mgrwt>
<rscale>  0 0.20761395E+04</rscale>
<asrwt>0</asrwt>
<pdfrwt beam="1">  1        3 0.24000515E+00 0.20761395E+04</pdfrwt>
<pdfrwt beam="2">  1       -3 0.10626881E+00 0.20761395E+04</pdfrwt>
<totfact> 0.15413097E-01</totfact>
</mgrwt>
</event>
<event>
12    1  0.1201209E-007  0.2007633E+04  0.7818608E-02  0.8603061E-01
          2   -1    0    0  501    0  0.00000000000E+00  0.00000000000E+00  0.22333211130E+04  0.22333211130E+04  0.00000000000E+00 0.  1.
         -2   -1    0    0    0  501 -0.00000000000E+00 -0.00000000000E+00 -0.45118773894E+03  0.45118773894E+03  0.00000000000E+00 0. -1.
         23    2    1    2    0    0  0.78111070091E+03 -0.17837713417E+03  0.87830753661E+03  0.11922088713E+04  0.89361819693E+02 0.  0.
        254    2    1    2    0    0 -0.78111070091E+03  0.17837713417E+03  0.90382583749E+03  0.14922999807E+04  0.87641643002E+03 0.  0.
        -24    2    4    4    0    0 -0.28100149168E+03 -0.32379538279E+03  0.53373979873E+03  0.68928098207E+03  0.80154920353E+02 0.  0.
         24    2    4    4    0    0 -0.50010920923E+03  0.50217251696E+03  0.37008603876E+03  0.80301899863E+03  0.74762143649E+02 0.  0.
         13    1    3    3    0    0  0.61178325603E+03 -0.15189560291E+03  0.63640723037E+03  0.89574839627E+03  0.00000000000E+00 0.  1.
        -13    1    3    3    0    0  0.16932744488E+03 -0.26481531268E+02  0.24190030624E+03  0.29646047501E+03  0.00000000000E+00 0. -1.
          2    1    6    6  502    0 -0.13604140776E+03  0.17198348282E+03  0.14142488867E+03  0.26093405704E+03  0.00000000000E+00 0. -1.
          3    1    5    5  503    0 -0.73106667559E+02 -0.64163867028E+02  0.75905000662E+02  0.12338215349E+03  0.00000000000E+00 0. -1.
         -4    1    5    5    0  503 -0.20789482412E+03 -0.25963151576E+03  0.45783479807E+03  0.56589882859E+03  0.00000000000E+00 0.  1.
         -1    1    6    6    0  502 -0.36406780147E+03  0.33018903414E+03  0.22866115009E+03  0.54208494159E+03  0.00000000000E+00 0.  1.
<mgrwt>
<rscale>  0 0.20076325E+04</rscale>
<asrwt>0</asrwt>
<pdfrwt beam="1">  1        2 0.34358786E+00 0.20076325E+04</pdfrwt>
<pdfrwt beam="2">  1       -2 0.69413500E-01 0.20076325E+04</pdfrwt>
<totfact> 0.86942399E+00</totfact>
</mgrwt>
</event>
<event>
12    1  0.1201209E-007  0.1907051E+04  0.7818608E-02  0.8651355E-01
          2   -1    0    0  501    0  0.00000000000E+00  0.00000000000E+00  0.49935436474E+03  0.49935436474E+03  0.00000000000E+00 0.  1.
         -2   -1    0    0    0  501 -0.00000000000E+00 -0.00000000000E+00 -0.18207723858E+04  0.18207723858E+04  0.00000000000E+00 0. -1.
         23    2    1    2    0    0  0.61764792362E+02 -0.51676797739E+03 -0.12163630774E+04  0.13261218666E+04  0.90531966656E+02 0.  0.
        254    2    1    2    0    0 -0.61764792362E+02  0.51676797739E+03 -0.10505494365E+03  0.99400488394E+03  0.84032442311E+03 0.  0.
        -24    2    4    4    0    0 -0.10228271163E+03 -0.21305292317E+03  0.10943538344E+02  0.24960904114E+03  0.79571422112E+02 0.  0.
         24    2    4    4    0    0  0.40517919264E+02  0.72982090056E+03 -0.11599848199E+03  0.74439584280E+03  0.79932936097E+02 0.  0.
         11    1    3    3    0    0 -0.15504753313E+02 -0.70761589234E+02 -0.22343736748E+03  0.23488690272E+03  0.00000000000E+00 0. -1.
        -11    1    3    3    0    0  0.77269545674E+02 -0.44600638815E+03 -0.99292570997E+03  0.10912349639E+04  0.00000000000E+00 0.  1.
          2    1    6    6  502    0  0.43607521376E+02  0.73052290069E+03 -0.11690131250E+03  0.74110137041E+03  0.00000000000E+00 0. -1.
          1    1    5    5  503    0 -0.93789002753E+02 -0.21507076832E+03 -0.12230007517E+01  0.23463441383E+03  0.00000000000E+00 0. -1.
         -2    1    5    5    0  503 -0.84937088734E+01  0.20178451464E+01  0.12166539096E+02  0.14974627309E+02  0.00000000000E+00 0.  1.
         -1    1    6    6    0  502 -0.30896021114E+01 -0.70200013312E+00  0.90283050636E+00  0.32944723883E+01  0.00000000000E+00 0.  1.
<mgrwt>
<rscale>  0 0.19070507E+04</rscale>
<asrwt>0</asrwt>
<pdfrwt beam="1">  1        2 0.76823750E-01 0.19070507E+04</pdfrwt>
<pdfrwt beam="2">  1       -2 0.28011882E+00 0.19070507E+04</pdfrwt>
<totfact> 0.24285981E+00</totfact>
</mgrwt>
</event>
<event>
12    1  0.1201209E-007  0.1756438E+04  0.7818608E-02  0.8729814E-01
         -2   -1    0    0    0  501 -0.00000000000E+00  0.00000000000E+00  0.16383351526E+04  0.16383351526E+04  0.00000000000E+00 0.  1.
          2   -1    0    0  501    0  0.00000000000E+00 -0.00000000000E+00 -0.47076373165E+03  0.47076373165E+03  0.00000000000E+00 0. -1.
         23    2    1    2    0    0  0.40654864741E+03  0.19499259054E+03  0.94794093441E+03  0.10535094282E+04  0.89365469586E+02 0.  0.
        254    2    1    2    0    0 -0.40654864741E+03 -0.19499259054E+03  0.21963048652E+03  0.10555894560E+04  0.92883132805E+03 0.  0.
        -24    2    4    4    0    0 -0.35643083145E+03  0.33367770584E+03  0.85337780877E+02  0.50190432411E+03  0.79004207064E+02 0.  0.
         24    2    4    4    0    0 -0.50117815958E+02 -0.52867029637E+03  0.13429270565E+03  0.55368513191E+03  0.80799856213E+02 0.  0.
         13    1    3    3    0    0  0.39762182326E+03  0.20395977828E+03  0.91749634791E+03  0.10205401775E+04  0.00000000000E+00 0.  1.
        -13    1    3    3    0    0  0.89268241456E+01 -0.89671877419E+01  0.30444586500E+02  0.32969250712E+02  0.00000000000E+00 0. -1.
          2    1    6    6  502    0 -0.21793026055E+02 -0.34712190608E+03  0.49466885659E+02  0.35130546030E+03  0.00000000000E+00 0. -1.
          1    1    5    5  503    0 -0.75688649985E+02  0.42469008920E+02  0.37653396377E+02  0.94605320748E+02  0.00000000000E+00 0. -1.
         -2    1    5    5    0  503 -0.28074218147E+03  0.29120869691E+03  0.47684384500E+02  0.40729900336E+03  0.00000000000E+00 0.  1.
         -1    1    6    6    0  502 -0.28324789903E+02 -0.18154839029E+03  0.84825819988E+02  0.20237967160E+03  0.00000000000E+00 0.  1.
<mgrwt>
<rscale>  0 0.17564382E+04</rscale>
<asrwt>0</asrwt>
<pdfrwt beam="1">  1        2 0.72425190E-01 0.17564382E+04</pdfrwt>
<pdfrwt beam="2">  1       -2 0.25205156E+00 0.17564382E+04</pdfrwt>
<totfact> 0.39050229E+00</totfact>
</mgrwt>
</event>
<event>
12    1  0.1201209E-007  0.2142177E+04  0.7818608E-02  0.8542888E-01
          4   -1    0    0  501    0  0.00000000000E+00  0.00000000000E+00  0.22582176383E+04  0.22582176383E+04  0.00000000000E+00 0. -1.
         -4   -1    0    0    0  501 -0.00000000000E+00 -0.00000000000E+00 -0.50802480564E+03  0.50802480564E+03  0.00000000000E+00 0.  1.
         23    2    1    2    0    0  0.55978639956E+02 -0.23349491607E+03  0.18082494170E+04  0.18264186872E+04  0.91573919541E+02 0.  0.
        254    2    1    2    0    0 -0.55978639956E+02  0.23349491607E+03 -0.58056584295E+02  0.93982375684E+03  0.90677706355E+03 0.  0.
        -24    2    4    4    0    0 -0.30477545185E+03 -0.18323799642E+03 -0.21520494103E+03  0.42351455095E+03  0.81161375285E+02 0.  0.
         24    2    4    4    0    0  0.24879681190E+03  0.41673291250E+03  0.15714835673E+03  0.51630920589E+03  0.79457007836E+02 0.  0.
         11    1    3    3    0    0 -0.48209519172E+01 -0.11329057719E+03  0.10689289331E+04  0.10749265373E+04  0.00000000000E+00 0. -1.
        -11    1    3    3    0    0  0.60799591874E+02 -0.12020433888E+03  0.73932048385E+03  0.75149214986E+03  0.00000000000E+00 0.  1.
          2    1    6    6  502    0  0.11961867519E+02  0.73802933061E+02  0.17672882172E+02  0.76826362450E+02  0.00000000000E+00 0. -1.
          1    1    5    5  503    0 -0.19599475514E+03 -0.14826862188E+03 -0.17762695886E+03  0.30323071215E+03  0.00000000000E+00 0. -1.
         -2    1    5    5    0  503 -0.10878069671E+03 -0.34969374549E+02 -0.37577982167E+02  0.12028383880E+03  0.00000000000E+00 0.  1.
         -1    1    6    6    0  502  0.23683494438E+03  0.34292997944E+03  0.13947547456E+03  0.43948284344E+03  0.00000000000E+00 0.  1.
<mgrwt>
<rscale>  0 0.21421770E+04</rscale>
<asrwt>0</asrwt>
<pdfrwt beam="1">  1        4 0.34741809E+00 0.21421770E+04</pdfrwt>
<pdfrwt beam="2">  1       -4 0.78157664E-01 0.21421770E+04</pdfrwt>
<totfact> 0.41492922E-02</totfact>
</mgrwt>
</event>
<event>
12    1  0.1209685E-007  0.2128306E+04  0.7818608E-02  0.8548876E-01
         -1   -1    0    0    0  501 -0.00000000000E+00  0.00000000000E+00  0.95018395066E+03  0.95018395066E+03  0.00000000000E+00 0.  1.
          1   -1    0    0  501    0  0.00000000000E+00 -0.00000000000E+00 -0.11917920871E+04  0.11917920871E+04  0.00000000000E+00 0. -1.
         23    2    1    2    0    0  0.19404131978E+03 -0.24088344793E+03 -0.91648795971E+03  0.97229714619E+03  0.98664537323E+02 0.  0.
        254    2    1    2    0    0 -0.19404131978E+03  0.24088344793E+03  0.67487982331E+03  0.11696788915E+04  0.90388553706E+03 0.  0.
        -24    2    4    4    0    0  0.12383170224E+03 -0.62855313947E+02  0.70363666857E+03  0.72170196529E+03  0.80399529659E+02 0.  0.
         24    2    4    4    0    0 -0.31787302202E+03  0.30373876188E+03 -0.28756845257E+02  0.44797692625E+03  0.80968368530E+02 0.  0.
         11    1    3    3    0    0  0.75040071925E+01 -0.73431449981E+02 -0.22255922331E+03  0.23448048074E+03  0.00000000000E+00 0.  1.
        -11    1    3    3    0    0  0.18653731259E+03 -0.16745199795E+03 -0.69392873641E+03  0.73781666545E+03  0.00000000000E+00 0. -1.
          4    1    6    6  502    0 -0.37600326031E+02  0.69913245970E+01 -0.91557614046E+01  0.39325451099E+02  0.00000000000E+00 0. -1.
          1    1    5    5  503    0  0.49546604039E+01  0.94769590269E+01  0.11453199680E+02  0.15669626512E+02  0.00000000000E+00 0. -1.
         -2    1    5    5    0  503  0.11887704184E+03 -0.72332272974E+02  0.69218346889E+03  0.70603233877E+03  0.00000000000E+00 0.  1.
         -3    1    6    6    0  502 -0.28027269599E+03  0.29674743728E+03 -0.19601083852E+02  0.40865147515E+03  0.00000000000E+00 0.  1.
<mgrwt>
<rscale>  0 0.21283061E+04</rscale>
<asrwt>0</asrwt>
<pdfrwt beam="1">  1        1 0.18335263E+00 0.21283061E+04</pdfrwt>
<pdfrwt beam="2">  1       -1 0.14618215E+00 0.21283061E+04</pdfrwt>
<totfact> 0.37169386E+00</totfact>
</mgrwt>
</event>
<event>
12    1  0.1201209E-007  0.2470346E+04  0.7818608E-02  0.8413627E-01
          1   -1    0    0  501    0  0.00000000000E+00  0.00000000000E+00  0.15705085600E+04  0.15705085600E+04  0.00000000000E+00 0. -1.
         -1   -1    0    0    0  501 -0.00000000000E+00 -0.00000000000E+00 -0.97143818463E+03  0.97143818463E+03  0.00000000000E+00 0.  1.
         23    2    1    2    0    0 -0.83759214217E+03  0.60609948928E+03  0.53759266723E+03  0.11688862348E+04  0.91498450427E+02 0.  0.
        254    2    1    2    0    0  0.83759214217E+03 -0.60609948928E+03  0.61477708125E+02  0.13730605099E+04  0.90144243721E+03 0.  0.
        -24    2    4    4    0    0  0.38473588827E+03  0.19601243090E+03 -0.47998958398E+02  0.44248914025E+03  0.83965245451E+02 0.  0.
         24    2    4    4    0    0  0.45285625389E+03 -0.80211192017E+03  0.10947666652E+03  0.93057136960E+03  0.74267181381E+02 0.  0.
         11    1    3    3    0    0 -0.36943944033E+03  0.31214060995E+03  0.28208488762E+03  0.55990101292E+03  0.00000000000E+00 0.  1.
        -11    1    3    3    0    0 -0.46815270184E+03  0.29395887933E+03  0.25550777961E+03  0.60898522184E+03  0.00000000000E+00 0. -1.
          4    1    6    6  502    0  0.24109320103E+03 -0.48789505996E+03  0.85623084385E+02  0.55090728231E+03  0.00000000000E+00 0. -1.
          3    1    5    5  503    0  0.20480150083E+03  0.11978526885E+03 -0.65940068603E+02  0.24625242745E+03  0.00000000000E+00 0. -1.
         -4    1    5    5    0  503  0.17993438744E+03  0.76227162048E+02  0.17941110205E+02  0.19623671281E+03  0.00000000000E+00 0.  1.
         -3    1    6    6    0  502  0.21176305287E+03 -0.31421686021E+03  0.23853582138E+02  0.37966408729E+03  0.00000000000E+00 0.  1.
<mgrwt>
<rscale>  0 0.24703457E+04</rscale>
<asrwt>0</asrwt>
<pdfrwt beam="1">  1        1 0.24161670E+00 0.24703457E+04</pdfrwt>
<pdfrwt beam="2">  1       -1 0.14945203E+00 0.24703457E+04</pdfrwt>
<totfact> 0.18351156E+00</totfact>
</mgrwt>
</event>
<event>
12    1  0.1201209E-007  0.3447430E+04  0.7818608E-02  0.8126363E-01
         -1   -1    0    0    0  501 -0.00000000000E+00  0.00000000000E+00  0.15709781402E+04  0.15709781402E+04  0.00000000000E+00 0.  1.
          1   -1    0    0  501    0  0.00000000000E+00 -0.00000000000E+00 -0.18913013045E+04  0.18913013045E+04  0.00000000000E+00 0. -1.
         23    2    1    2    0    0  0.47828255445E+03 -0.17603605020E+00 -0.16880292165E+04  0.17568715743E+04  0.91656205857E+02 0.  0.
        254    2    1    2    0    0 -0.47828255445E+03  0.17603605020E+00  0.13677060522E+04  0.17054078704E+04  0.89946757941E+03 0.  0.
        -24    2    4    4    0    0  0.89100817158E+02  0.74964290756E+02  0.10227258251E+04  0.10323649737E+04  0.79061527178E+02 0.  0.
         24    2    4    4    0    0 -0.56738337161E+03 -0.74788254705E+02  0.34498022707E+03  0.67304289671E+03  0.80362990982E+02 0.  0.
         11    1    3    3    0    0  0.45986824203E+03 -0.15399718336E+02 -0.16384994701E+04  0.17018802733E+04  0.00000000000E+00 0. -1.
        -11    1    3    3    0    0  0.18414312417E+02  0.15223682286E+02 -0.49529746437E+02  0.54991301005E+02  0.00000000000E+00 0.  1.
          2    1    6    6  502    0 -0.31081967231E+03 -0.52493925651E+02  0.14493529425E+03  0.34694483776E+03  0.00000000000E+00 0. -1.
          1    1    5    5  503    0  0.10083926370E+03  0.79073641000E+02  0.91711295475E+03  0.92602233752E+03  0.00000000000E+00 0. -1.
         -2    1    5    5    0  503 -0.11738446537E+02 -0.41093502443E+01  0.10561287035E+03  0.10634263618E+03  0.00000000000E+00 0.  1.
         -1    1    6    6    0  502 -0.25656369929E+03 -0.22294329055E+02  0.20004493282E+03  0.32609805895E+03  0.00000000000E+00 0.  1.
<mgrwt>
<rscale>  0 0.34474298E+04</rscale>
<asrwt>0</asrwt>
<pdfrwt beam="1">  1        1 0.29096943E+00 0.34474298E+04</pdfrwt>
<pdfrwt beam="2">  1       -1 0.24168895E+00 0.34474298E+04</pdfrwt>
<totfact> 0.22873072E-01</totfact>
</mgrwt>
</event>
<event>
12    1  0.1201209E-007  0.1332645E+04  0.7818608E-02  0.9004070E-01
          2   -1    0    0  501    0  0.00000000000E+00  0.00000000000E+00  0.61516615307E+03  0.61516615307E+03  0.00000000000E+00 0. -1.
         -2   -1    0    0    0  501 -0.00000000000E+00 -0.00000000000E+00 -0.72173331846E+03  0.72173331846E+03  0.00000000000E+00 0.  1.
         23    2    1    2    0    0  0.16403374438E+03 -0.30659301124E+03 -0.60009718499E+02  0.36463946109E+03  0.91947955019E+02 0.  0.
        254    2    1    2    0    0 -0.16403374438E+03  0.30659301124E+03 -0.46557446893E+02  0.97226001044E+03  0.90676104250E+03 0.  0.
        -24    2    4    4    0    0  0.23933987194E+03  0.12867830977E+03  0.29509109256E+03  0.40894365322E+03  0.79463682843E+02 0.  0.
         24    2    4    4    0    0 -0.40337361633E+03  0.17791470147E+03 -0.34164853945E+03  0.56331635722E+03  0.78978974760E+02 0.  0.
         13    1    3    3    0    0  0.78885411439E+02 -0.21534875545E+03 -0.69043956886E+02  0.23951004695E+03  0.00000000000E+00 0.  1.
        -13    1    3    3    0    0  0.85148332944E+02 -0.91244255796E+02  0.90342383866E+01  0.12512941414E+03  0.00000000000E+00 0. -1.
          2    1    6    6  502    0 -0.20995126854E+03  0.49738830988E+02 -0.17013172308E+03  0.27476952099E+03  0.00000000000E+00 0. -1.
          3    1    5    5  503    0  0.28450643236E+01 -0.59715231266E+01 -0.11082943376E+01  0.67068469340E+01  0.00000000000E+00 0. -1.
         -4    1    5    5    0  503  0.23649480762E+03  0.13464983290E+03  0.29619938690E+03  0.40223680628E+03  0.00000000000E+00 0.  1.
         -1    1    6    6    0  502 -0.19342234779E+03  0.12817587048E+03 -0.17151681638E+03  0.28854683623E+03  0.00000000000E+00 0.  1.
<mgrwt>
<rscale>  0 0.13326454E+04</rscale>
<asrwt>0</asrwt>
<pdfrwt beam="1">  1        2 0.94640947E-01 0.13326454E+04</pdfrwt>
<pdfrwt beam="2">  1       -2 0.11103589E+00 0.13326454E+04</pdfrwt>
<totfact> 0.30220004E+01</totfact>
</mgrwt>
</event>
<event>
12    1  0.1998206E-007  0.1708311E+04  0.7818608E-02  0.8756638E-01
          1   -1    0    0  501    0  0.00000000000E+00  0.00000000000E+00  0.82309771083E+03  0.82309771083E+03  0.00000000000E+00 0. -1.
         -1   -1    0    0    0  501 -0.00000000000E+00 -0.00000000000E+00 -0.88638519341E+03  0.88638519341E+03  0.00000000000E+00 0.  1.
         23    2    1    2    0    0 -0.11026763715E+03  0.16127507833E+03 -0.60722150617E+03  0.64418456285E+03  0.89928809442E+02 0.  0.
        254    2    1    2    0    0  0.11026763715E+03 -0.16127507833E+03  0.54393402358E+03  0.10652983414E+04  0.89488978733E+03 0.  0.
        -24    2    4    4    0    0 -0.48148738927E+02  0.29156257789E+03  0.48684234103E+03  0.57544371919E+03  0.82419482254E+02 0.  0.
         24    2    4    4    0    0  0.15841637608E+03 -0.45283765622E+03  0.57091682559E+02  0.48985462221E+03  0.80872736932E+02 0.  0.
         13    1    3    3    0    0 -0.36085043459E+01 -0.11253370764E+02 -0.43708093892E+02  0.45277556569E+02  0.00000000000E+00 0. -1.
        -13    1    3    3    0    0 -0.10665913281E+03  0.17252844909E+03 -0.56351341227E+03  0.59890700628E+03  0.00000000000E+00 0.  1.
          2    1    6    6  502    0  0.15373149655E+03 -0.44688051640E+03  0.67075347200E+02  0.47732030249E+03  0.00000000000E+00 0. -1.
          3    1    5    5  503    0 -0.51192635114E+02  0.29178880901E+03  0.48897868747E+03  0.57171807017E+03  0.00000000000E+00 0. -1.
         -4    1    5    5    0  503  0.30438961867E+01 -0.22623111979E+00 -0.21363464464E+01  0.37256490245E+01  0.00000000000E+00 0.  1.
         -1    1    6    6    0  502  0.46848795360E+01 -0.59571398206E+01 -0.99836646409E+01  0.12534319717E+02  0.00000000000E+00 0.  1.
<mgrwt>
<rscale>  0 0.17083110E+04</rscale>
<asrwt>0</asrwt>
<pdfrwt beam="1">  1        1 0.12663042E+00 0.17083110E+04</pdfrwt>
<pdfrwt beam="2">  1       -1 0.13636695E+00 0.17083110E+04</pdfrwt>
<totfact> 0.90135408E+00</totfact>
</mgrwt>
</event>
<event>
12    1  0.1201209E-007  0.1228702E+04  0.7818608E-02  0.9088098E-01
         -2   -1    0    0    0  501 -0.00000000000E+00  0.00000000000E+00  0.17043865910E+03  0.17043865910E+03  0.00000000000E+00 0.  1.
          2   -1    0    0  501    0  0.00000000000E+00 -0.00000000000E+00 -0.22144465502E+04  0.22144465502E+04  0.00000000000E+00 0. -1.
         23    2    1    2    0    0 -0.45672172204E+02  0.17294154310E+03 -0.87678717453E+03  0.89940775012E+03  0.90464506461E+02 0.  0.
        254    2    1    2    0    0  0.45672172204E+02 -0.17294154310E+03 -0.11672207165E+04  0.14854774591E+04  0.90124600186E+03 0.  0.
        -24    2    4    4    0    0 -0.10639872994E+03 -0.28926834487E+03 -0.19302851852E+02  0.31897427797E+03  0.79844378884E+02 0.  0.
         24    2    4    4    0    0  0.15207090214E+03  0.11632680177E+03 -0.11479178647E+04  0.11665031812E+04  0.79729314246E+02 0.  0.
         13    1    3    3    0    0 -0.58807596655E+02  0.10665660900E+03 -0.69235601869E+03  0.70298707121E+03  0.00000000000E+00 0. -1.
        -13    1    3    3    0    0  0.13135424451E+02  0.66284934096E+02 -0.18443115584E+03  0.19642067892E+03  0.00000000000E+00 0.  1.
          4    1    6    6  502    0  0.16077093919E+03  0.11484147345E+03 -0.11174765558E+04  0.11348082268E+04  0.00000000000E+00 0. -1.
          1    1    5    5  503    0 -0.52060243061E+02 -0.20773432312E+03  0.16171854731E+02  0.21476812332E+03  0.00000000000E+00 0. -1.
         -2    1    5    5    0  503 -0.54338486880E+02 -0.81534021748E+02 -0.35474706584E+02  0.10420615465E+03  0.00000000000E+00 0.  1.
         -3    1    6    6    0  502 -0.87000370440E+01  0.14853283180E+01 -0.30441308895E+02  0.31694954362E+02  0.00000000000E+00 0.  1.
<mgrwt>
<rscale>  0 0.12287022E+04</rscale>
<asrwt>0</asrwt>
<pdfrwt beam="1">  1        2 0.34068408E+00 0.12287022E+04</pdfrwt>
<pdfrwt beam="2">  1       -2 0.26221333E-01 0.12287022E+04</pdfrwt>
<totfact> 0.65831526E+01</totfact>
</mgrwt>
</event>
<event>
12    1  0.1201209E-007  0.2623383E+04  0.7818608E-02  0.8360302E-01
         -1   -1    0    0    0  501 -0.00000000000E+00  0.00000000000E+00  0.12261612381E+04  0.12261612381E+04  0.00000000000E+00 0. -1.
          1   -1    0    0  501    0  0.00000000000E+00 -0.00000000000E+00 -0.14031878807E+04  0.14031878807E+04  0.00000000000E+00 0.  1.
         23    2    1    2    0    0  0.71236687483E+03  0.86147805326E+03 -0.35695471610E+03  0.11769952103E+04  0.91049740232E+02 0.  0.
        254    2    1    2    0    0 -0.71236687483E+03 -0.86147805326E+03  0.17992807350E+03  0.14523539084E+04  0.90958603935E+03 0.  0.
        -24    2    4    4    0    0 -0.40308745327E+03 -0.29255950065E+03 -0.34830118720E+03  0.61291707923E+03  0.79265835015E+02 0.  0.
         24    2    4    4    0    0 -0.30927942156E+03 -0.56891855261E+03  0.52822926070E+03  0.83943682916E+03  0.79410063506E+02 0.  0.
         13    1    3    3    0    0  0.42246762826E+03  0.48699044643E+03 -0.16120207646E+03  0.66454849431E+03  0.00000000000E+00 0. -1.
        -13    1    3    3    0    0  0.28989924657E+03  0.37448760683E+03 -0.19575263964E+03  0.51244671602E+03  0.00000000000E+00 0.  1.
          2    1    6    6  502    0 -0.18422243236E+03 -0.41471022760E+03  0.37315655295E+03  0.58751024712E+03  0.00000000000E+00 0. -1.
          1    1    5    5  503    0 -0.22712381813E+03 -0.11683048332E+03 -0.18592242120E+03  0.31591412963E+03  0.00000000000E+00 0. -1.
         -2    1    5    5    0  503 -0.17596363514E+03 -0.17572901733E+03 -0.16237876600E+03  0.29700294960E+03  0.00000000000E+00 0.  1.
         -1    1    6    6    0  502 -0.12505698920E+03 -0.15420832501E+03  0.15507270775E+03  0.25192658204E+03  0.00000000000E+00 0.  1.
<mgrwt>
<rscale>  0 0.26233830E+04</rscale>
<asrwt>0</asrwt>
<pdfrwt beam="1">  1        1 0.21587506E+00 0.26233830E+04</pdfrwt>
<pdfrwt beam="2">  1       -1 0.18864019E+00 0.26233830E+04</pdfrwt>
<totfact> 0.12136003E+00</totfact>
</mgrwt>
</event>
<event>
12    1  0.1201209E-007  0.1634367E+04  0.7818608E-02  0.8799709E-01
         -2   -1    0    0    0  501 -0.00000000000E+00  0.00000000000E+00  0.26430477657E+03  0.26430477657E+03  0.00000000000E+00 0.  1.
          2   -1    0    0  501    0  0.00000000000E+00 -0.00000000000E+00 -0.25265854513E+04  0.25265854513E+04  0.00000000000E+00 0. -1.
         23    2    1    2    0    0 -0.34831809767E+03 -0.43594775509E+03 -0.68449596625E+03  0.88775295014E+03  0.90524197511E+02 0.  0.
        254    2    1    2    0    0  0.34831809767E+03  0.43594775509E+03 -0.15777847085E+04  0.19031372777E+04  0.90617380741E+03 0.  0.
        -24    2    4    4    0    0  0.99053745472E+02  0.55973071618E+03 -0.42521273246E+03  0.71481272175E+03  0.83912098089E+02 0.  0.
         24    2    4    4    0    0  0.24926435220E+03 -0.12378296109E+03 -0.11525719760E+04  0.11883245560E+04  0.78981970817E+02 0.  0.
         11    1    3    3    0    0 -0.31839940304E+02 -0.74835244373E+02 -0.65943578113E+02  0.10470267949E+03  0.00000000000E+00 0.  1.
        -11    1    3    3    0    0 -0.31647815736E+03 -0.36111251072E+03 -0.61855238814E+03  0.78305027065E+03  0.00000000000E+00 0. -1.
          2    1    6    6  502    0  0.96158590324E+02 -0.61259199551E+02 -0.32578281182E+03  0.34515736194E+03  0.00000000000E+00 0. -1.
          1    1    5    5  503    0 -0.12181395591E+02  0.45162203352E+02 -0.22019697118E+02  0.51699884635E+02  0.00000000000E+00 0. -1.
         -2    1    5    5    0  503  0.11123514106E+03  0.51456851283E+03 -0.40319303534E+03  0.66311283711E+03  0.00000000000E+00 0.  1.
         -1    1    6    6    0  502  0.15310576187E+03 -0.62523761535E+02 -0.82678916418E+03  0.84316719402E+03  0.00000000000E+00 0.  1.
<mgrwt>
<rscale>  0 0.16343667E+04</rscale>
<asrwt>0</asrwt>
<pdfrwt beam="1">  1        2 0.38870546E+00 0.16343667E+04</pdfrwt>
<pdfrwt beam="2">  1       -2 0.40662273E-01 0.16343667E+04</pdfrwt>
<totfact> 0.18438628E+01</totfact>
</mgrwt>
</event>
<event>
12    1  0.1201209E-007  0.2032580E+04  0.7818608E-02  0.8591538E-01
         -2   -1    0    0    0  501 -0.00000000000E+00  0.00000000000E+00  0.35139022707E+03  0.35139022707E+03  0.00000000000E+00 0.  1.
          2   -1    0    0  501    0  0.00000000000E+00 -0.00000000000E+00 -0.29393116080E+04  0.29393116080E+04  0.00000000000E+00 0. -1.
         23    2    1    2    0    0 -0.69724067539E+03  0.26674341487E+03 -0.15275336274E+04  0.17025478023E+04  0.89517750496E+02 0.  0.
        254    2    1    2    0    0  0.69724067539E+03 -0.26674341487E+03 -0.10603877536E+04  0.15881540328E+04  0.91679574335E+03 0.  0.
        -24    2    4    4    0    0  0.55309536805E+03  0.16815258269E+03 -0.94356493462E+03  0.11095013529E+04  0.80552399632E+02 0.  0.
         24    2    4    4    0    0  0.14414530734E+03 -0.43489599756E+03 -0.11682281895E+03  0.47865267981E+03  0.74487707367E+02 0.  0.
         11    1    3    3    0    0 -0.58735474591E+03  0.19381552832E+03 -0.12164084447E+04  0.13646243296E+04  0.00000000000E+00 0.  1.
        -11    1    3    3    0    0 -0.10988592948E+03  0.72927886550E+02 -0.31112518270E+03  0.33792347277E+03  0.00000000000E+00 0. -1.
          4    1    6    6  502    0  0.16274109023E+02 -0.14000784190E+03 -0.55233811809E+02  0.15138631505E+03  0.00000000000E+00 0. -1.
          1    1    5    5  503    0  0.19242875641E+03  0.45561585169E+02 -0.25621618232E+03  0.32365323484E+03  0.00000000000E+00 0. -1.
         -2    1    5    5    0  503  0.36066661164E+03  0.12259099752E+03 -0.68734875230E+03  0.78584811810E+03  0.00000000000E+00 0.  1.
         -3    1    6    6    0  502  0.12787119831E+03 -0.29488815566E+03 -0.61589007137E+02  0.32726636476E+03  0.00000000000E+00 0.  1.
<mgrwt>
<rscale>  0 0.20325800E+04</rscale>
<asrwt>0</asrwt>
<pdfrwt beam="1">  1        2 0.45220179E+00 0.20325800E+04</pdfrwt>
<pdfrwt beam="2">  1       -2 0.54060035E-01 0.20325800E+04</pdfrwt>
<totfact> 0.56832828E+00</totfact>
</mgrwt>
</event>
<event>
12    1  0.1201209E-007  0.2053874E+04  0.7818608E-02  0.8581839E-01
         -2   -1    0    0    0  501 -0.00000000000E+00  0.00000000000E+00  0.24985494432E+03  0.24985494432E+03  0.00000000000E+00 0. -1.
          2   -1    0    0  501    0  0.00000000000E+00 -0.00000000000E+00 -0.42208471628E+04  0.42208471628E+04  0.00000000000E+00 0.  1.
         23    2    1    2    0    0  0.10432933005E+03 -0.69295777079E+03 -0.66820526068E+03  0.97264359653E+03  0.91990294442E+02 0.  0.
        254    2    1    2    0    0 -0.10432933005E+03  0.69295777079E+03 -0.33027869578E+04  0.34980585106E+04  0.91484237636E+03 0.  0.
        -24    2    4    4    0    0  0.35267136411E+03  0.79289127355E+02 -0.13304141263E+04  0.13809534983E+04  0.79793235264E+02 0.  0.
         24    2    4    4    0    0 -0.45700069416E+03  0.61366864343E+03 -0.19723728315E+04  0.21171050122E+04  0.80250906016E+02 0.  0.
         11    1    3    3    0    0  0.86684883086E+02 -0.33752526861E+03 -0.37091444316E+03  0.50893526116E+03  0.00000000000E+00 0. -1.
        -11    1    3    3    0    0  0.17644446963E+02 -0.35543250218E+03 -0.29729081752E+03  0.46370833538E+03  0.00000000000E+00 0.  1.
          2    1    6    6  502    0 -0.93789007439E+02  0.11413098294E+03 -0.30172577641E+03  0.33594747109E+03  0.00000000000E+00 0. -1.
          1    1    5    5  503    0  0.12470640992E+03  0.65711242054E+02 -0.55388213505E+03  0.57153746643E+03  0.00000000000E+00 0. -1.
         -2    1    5    5    0  503  0.22796495419E+03  0.13577885301E+02 -0.77653199122E+03  0.80941603189E+03  0.00000000000E+00 0.  1.
         -1    1    6    6    0  502 -0.36321168672E+03  0.49953766050E+03 -0.16706470551E+04  0.17811575411E+04  0.00000000000E+00 0.  1.
<mgrwt>
<rscale>  0 0.20538739E+04</rscale>
<asrwt>0</asrwt>
<pdfrwt beam="1">  1        2 0.64936105E+00 0.20538739E+04</pdfrwt>
<pdfrwt beam="2">  1       -2 0.38439225E-01 0.20538739E+04</pdfrwt>
<totfact> 0.13344886E+00</totfact>
</mgrwt>
</event>
<event>
12    1  0.1201209E-007  0.2929113E+04  0.7818608E-02  0.8264268E-01
          1   -1    0    0  501    0  0.00000000000E+00  0.00000000000E+00  0.97662643585E+03  0.97662643585E+03  0.00000000000E+00 0. -1.
         -1   -1    0    0    0  501 -0.00000000000E+00 -0.00000000000E+00 -0.21962597688E+04  0.21962597688E+04  0.00000000000E+00 0.  1.
         23    2    1    2    0    0 -0.12072874498E+04  0.35358683455E+03 -0.10108457286E+03  0.12653276936E+04  0.90936490822E+02 0.  0.
        254    2    1    2    0    0  0.12072874498E+04 -0.35358683455E+03 -0.11185487601E+04  0.19075585111E+04  0.89725219889E+03 0.  0.
        -24    2    4    4    0    0 -0.39502979626E+02 -0.20499605820E+03  0.15170168779E+01  0.22324661025E+03  0.79075143829E+02 0.  0.
         24    2    4    4    0    0  0.12467904294E+04 -0.14859077635E+03 -0.11200657770E+04  0.16843119008E+04  0.76115969211E+02 0.  0.
         13    1    3    3    0    0 -0.49637955327E+03  0.14419299178E+03  0.32918152957E+01  0.51690919496E+03  0.00000000000E+00 0.  1.
        -13    1    3    3    0    0 -0.71090789651E+03  0.20939384277E+03 -0.10437638815E+03  0.74841849864E+03  0.00000000000E+00 0. -1.
          2    1    6    6  502    0  0.43564234803E+03 -0.52088335345E+02 -0.44059986341E+03  0.62179232041E+03  0.00000000000E+00 0. -1.
          3    1    5    5  503    0  0.18552770681E+02 -0.87103968365E+02  0.17833587542E+02  0.90825896360E+02  0.00000000000E+00 0. -1.
         -4    1    5    5    0  503 -0.58055750306E+02 -0.11789208983E+03 -0.16316570665E+02  0.13242071389E+03  0.00000000000E+00 0.  1.
         -1    1    6    6    0  502  0.81114808137E+03 -0.96502441009E+02 -0.67946591357E+03  0.10625195804E+04  0.00000000000E+00 0.  1.
<mgrwt>
<rscale>  0 0.29291127E+04</rscale>
<asrwt>0</asrwt>
<pdfrwt beam="1">  1        1 0.15025022E+00 0.29291127E+04</pdfrwt>
<pdfrwt beam="2">  1       -1 0.33788611E+00 0.29291127E+04</pdfrwt>
<totfact> 0.25248142E-01</totfact>
</mgrwt>
</event>
<event>
12    1  0.1201209E-007  0.1827208E+04  0.7818608E-02  0.8691963E-01
          2   -1    0    0  501    0  0.00000000000E+00  0.00000000000E+00  0.16107708625E+04  0.16107708625E+04  0.00000000000E+00 0. -1.
         -2   -1    0    0    0  501 -0.00000000000E+00 -0.00000000000E+00 -0.51818214865E+03  0.51818214865E+03  0.00000000000E+00 0.  1.
         23    2    1    2    0    0  0.68181099270E+03 -0.96149603338E+02  0.36784787418E+03  0.78708384422E+03  0.10038896006E+03 0.  0.
        254    2    1    2    0    0 -0.68181099270E+03  0.96149603338E+02  0.72474083970E+03  0.13418691670E+04  0.89512714209E+03 0.  0.
        -24    2    4    4    0    0  0.19494983723E+03  0.37616741139E+02  0.24429003942E+02  0.21526804799E+03  0.79517909956E+02 0.  0.
         24    2    4    4    0    0 -0.87676082993E+03  0.58532862199E+02  0.70031183576E+03  0.11266011190E+04  0.81595129039E+02 0.  0.
         13    1    3    3    0    0  0.66033384780E+03 -0.11115982531E+03  0.35320672193E+03  0.75706821735E+03  0.00000000000E+00 0.  1.
        -13    1    3    3    0    0  0.21477144903E+02  0.15010221973E+02  0.14641152254E+02  0.30015626866E+02  0.00000000000E+00 0. -1.
          2    1    6    6  502    0 -0.70691762646E+03  0.66663997532E+02  0.53099839435E+03  0.88664305894E+03  0.00000000000E+00 0. -1.
          1    1    5    5  503    0  0.13735663490E+03  0.59765151890E+02  0.26083510929E+01  0.14981829670E+03  0.00000000000E+00 0. -1.
         -2    1    5    5    0  503  0.57593202334E+02 -0.22148410750E+02  0.21820652850E+02  0.65449751296E+02  0.00000000000E+00 0.  1.
         -1    1    6    6    0  502 -0.16984320347E+03 -0.81311353328E+01  0.16931344141E+03  0.23995806002E+03  0.00000000000E+00 0.  1.
<mgrwt>
<rscale>  0 0.18272085E+04</rscale>
<asrwt>0</asrwt>
<pdfrwt beam="1">  1        2 0.24781090E+00 0.18272085E+04</pdfrwt>
<pdfrwt beam="2">  1       -2 0.79720331E-01 0.18272085E+04</pdfrwt>
<totfact> 0.14433870E+01</totfact>
</mgrwt>
</event>
<event>
12    1  0.1201209E-007  0.2326467E+04  0.7818608E-02  0.8467558E-01
          2   -1    0    0  501    0  0.00000000000E+00  0.00000000000E+00  0.62238746719E+03  0.62238746719E+03  0.00000000000E+00 0. -1.
         -2   -1    0    0    0  501 -0.00000000000E+00 -0.00000000000E+00 -0.21740664397E+04  0.21740664397E+04  0.00000000000E+00 0.  1.
         23    2    1    2    0    0  0.32656114334E+03 -0.87166060081E+03 -0.32949181983E+03  0.99159157158E+03  0.90854841040E+02 0.  0.
        254    2    1    2    0    0 -0.32656114334E+03  0.87166060081E+03 -0.12221871527E+04  0.18048623354E+04  0.94728677282E+03 0.  0.
        -24    2    4    4    0    0  0.20180791840E+03 -0.77062629065E+02 -0.13747428411E+03  0.26791427786E+03  0.78827639563E+02 0.  0.
         24    2    4    4    0    0 -0.52836906175E+03  0.94872322988E+03 -0.10847128686E+04  0.15369480575E+04  0.79735135312E+02 0.  0.
         13    1    3    3    0    0  0.14609182951E+02 -0.67160151357E+02 -0.48527570555E+02  0.84135838148E+02  0.00000000000E+00 0.  1.
        -13    1    3    3    0    0  0.31195196039E+03 -0.80450044945E+03 -0.28096424927E+03  0.90745573343E+03  0.00000000000E+00 0. -1.
          2    1    6    6  502    0 -0.38061462045E+03  0.60574157799E+03 -0.71008433272E+03  0.10079732676E+04  0.00000000000E+00 0. -1.
          3    1    5    5  503    0  0.20880867530E+03 -0.76885769130E+02 -0.13591416495E+03  0.26073961074E+03  0.00000000000E+00 0. -1.
         -4    1    5    5    0  503 -0.70007568925E+01 -0.17685993484E+00 -0.15601191671E+01  0.71746671226E+01  0.00000000000E+00 0.  1.
         -1    1    6    6    0  502 -0.14775444129E+03  0.34298165188E+03 -0.37462853589E+03  0.52897478991E+03  0.00000000000E+00 0.  1.
<mgrwt>
<rscale>  0 0.23264666E+04</rscale>
<asrwt>0</asrwt>
<pdfrwt beam="1">  1        2 0.95751917E-01 0.23264666E+04</pdfrwt>
<pdfrwt beam="2">  1       -2 0.33447176E+00 0.23264666E+04</pdfrwt>
<totfact> 0.83610295E-01</totfact>
</mgrwt>
</event>
<event>
12    1  0.1201209E-007  0.1630258E+04  0.7818608E-02  0.8802172E-01
         -2   -1    0    0    0  501 -0.00000000000E+00  0.00000000000E+00  0.49647750647E+03  0.49647750647E+03  0.00000000000E+00 0. -1.
          2   -1    0    0  501    0  0.00000000000E+00 -0.00000000000E+00 -0.13382989358E+04  0.13382989358E+04  0.00000000000E+00 0.  1.
         23    2    1    2    0    0 -0.28743708656E+03  0.49077703972E+03 -0.29862822615E+03  0.64874479411E+03  0.90602477787E+02 0.  0.
        254    2    1    2    0    0  0.28743708656E+03 -0.49077703972E+03 -0.54319320318E+03  0.11860316482E+04  0.88776687989E+03 0.  0.
        -24    2    4    4    0    0  0.55140751341E+03 -0.52972411463E+03 -0.33597712607E+03  0.83898462409E+03  0.79728832642E+02 0.  0.
         24    2    4    4    0    0 -0.26397042685E+03  0.38947074909E+02 -0.20721607711E+03  0.34704702408E+03  0.79409529745E+02 0.  0.
         13    1    3    3    0    0 -0.47398480805E+02  0.51314021531E+02 -0.67835075362E+02  0.97372184107E+02  0.00000000000E+00 0. -1.
        -13    1    3    3    0    0 -0.24003860576E+03  0.43946301819E+03 -0.23079315079E+03  0.55137261000E+03  0.00000000000E+00 0.  1.
          4    1    6    6  502    0 -0.94751823600E+02  0.46511340910E+02 -0.53621157949E+02  0.11839105325E+03  0.00000000000E+00 0. -1.
          3    1    5    5  503    0  0.11364957705E+03 -0.15582317663E+03 -0.92781788631E+02  0.21402230968E+03  0.00000000000E+00 0. -1.
         -4    1    5    5    0  503  0.43775793637E+03 -0.37390093800E+03 -0.24319533744E+03  0.62496231442E+03  0.00000000000E+00 0.  1.
         -3    1    6    6    0  502 -0.16921860325E+03 -0.75642660016E+01 -0.15359491916E+03  0.22865597083E+03  0.00000000000E+00 0.  1.
<mgrwt>
<rscale>  0 0.16302580E+04</rscale>
<asrwt>0</asrwt>
<pdfrwt beam="1">  1        2 0.20589214E+00 0.16302580E+04</pdfrwt>
<pdfrwt beam="2">  1       -2 0.76381155E-01 0.16302580E+04</pdfrwt>
<totfact> 0.23038886E+01</totfact>
</mgrwt>
</event>
<event>
12    1  0.1201209E-007  0.1468397E+04  0.7818608E-02  0.8905745E-01
          2   -1    0    0  501    0  0.00000000000E+00  0.00000000000E+00  0.18358805156E+04  0.18358805156E+04  0.00000000000E+00 0. -1.
         -2   -1    0    0    0  501 -0.00000000000E+00 -0.00000000000E+00 -0.29361796172E+03  0.29361796172E+03  0.00000000000E+00 0.  1.
         23    2    1    2    0    0  0.32229097447E+03  0.11243301420E+03  0.90207609216E+03  0.96908277535E+03  0.94167375090E+02 0.  0.
        254    2    1    2    0    0 -0.32229097447E+03 -0.11243301420E+03  0.64018646171E+03  0.11604157020E+04  0.90565624865E+03 0.  0.
        -24    2    4    4    0    0 -0.53221957052E+03 -0.34860921324E+03  0.44638191149E+03  0.78125886457E+03  0.79514450011E+02 0.  0.
         24    2    4    4    0    0  0.20992859605E+03  0.23617619905E+03  0.19380455022E+03  0.37915683740E+03  0.79689969420E+02 0.  0.
         13    1    3    3    0    0  0.17105473526E+03  0.80018056161E+02  0.61024913225E+03  0.63880091983E+03  0.00000000000E+00 0. -1.
        -13    1    3    3    0    0  0.15123623921E+03  0.32414958034E+02  0.29182695991E+03  0.33028185552E+03  0.00000000000E+00 0.  1.
          4    1    6    6  502    0  0.13565345686E+03  0.92814808027E+02  0.10128993700E+03  0.19307019523E+03  0.00000000000E+00 0. -1.
          3    1    5    5  503    0 -0.11313465019E+03 -0.44167729857E+02  0.10808927772E+03  0.16258391492E+03  0.00000000000E+00 0. -1.
         -4    1    5    5    0  503 -0.41908492033E+03 -0.30444148338E+03  0.33829263377E+03  0.61867494965E+03  0.00000000000E+00 0.  1.
         -3    1    6    6    0  502  0.74275139192E+02  0.14336139102E+03  0.92514613216E+02  0.18608664217E+03  0.00000000000E+00 0.  1.
<mgrwt>
<rscale>  0 0.14683971E+04</rscale>
<asrwt>0</asrwt>
<pdfrwt beam="1">  1        2 0.28244315E+00 0.14683971E+04</pdfrwt>
<pdfrwt beam="2">  1       -2 0.45171995E-01 0.14683971E+04</pdfrwt>
<totfact> 0.37098819E+01</totfact>
</mgrwt>
</event>
<event>
12    1  0.1201209E-007  0.1334437E+04  0.7818608E-02  0.9002693E-01
          2   -1    0    0  501    0  0.00000000000E+00  0.00000000000E+00  0.23932173687E+04  0.23932173687E+04  0.00000000000E+00 0. -1.
         -2   -1    0    0    0  501 -0.00000000000E+00 -0.00000000000E+00 -0.18601761643E+03  0.18601761643E+03  0.00000000000E+00 0.  1.
         23    2    1    2    0    0 -0.52360311912E+02 -0.33423018667E+03  0.32571032780E+03  0.47699777326E+03  0.83595682398E+02 0.  0.
        254    2    1    2    0    0  0.52360311912E+02  0.33423018667E+03  0.18814894244E+04  0.21022372118E+04  0.87461272606E+03 0.  0.
        -24    2    4    4    0    0 -0.14456115323E+03  0.53876348003E+02  0.16962589952E+04  0.17050495808E+04  0.78095494479E+02 0.  0.
         24    2    4    4    0    0  0.19692146515E+03  0.28035383867E+03  0.18523042927E+03  0.39718763107E+03  0.77918958270E+02 0.  0.
         11    1    3    3    0    0 -0.25716047063E+02 -0.86579971967E+02  0.42435405421E+02  0.99790632104E+02  0.00000000000E+00 0. -1.
        -11    1    3    3    0    0 -0.26644264849E+02 -0.24765021470E+03  0.28327492238E+03  0.37720714116E+03  0.00000000000E+00 0.  1.
          4    1    6    6  502    0  0.14744648920E+03  0.15661628080E+03  0.13913322621E+03  0.25617802643E+03  0.00000000000E+00 0. -1.
          1    1    5    5  503    0 -0.74995625071E+02  0.43061434613E+02  0.56270158797E+03  0.56930809588E+03  0.00000000000E+00 0. -1.
         -2    1    5    5    0  503 -0.69565528164E+02  0.10814913390E+02  0.11335574072E+04  0.11357414849E+04  0.00000000000E+00 0.  1.
         -3    1    6    6    0  502  0.49474975943E+02  0.12373755787E+03  0.46097203062E+02  0.14100960464E+03  0.00000000000E+00 0.  1.
<mgrwt>
<rscale>  0 0.13344371E+04</rscale>
<asrwt>0</asrwt>
<pdfrwt beam="1">  1        2 0.36818727E+00 0.13344371E+04</pdfrwt>
<pdfrwt beam="2">  1       -2 0.28618097E-01 0.13344371E+04</pdfrwt>
<totfact> 0.44060523E+01</totfact>
</mgrwt>
</event>
<event>
12    1  0.1201209E-007  0.1356800E+04  0.7818608E-02  0.8985697E-01
         -2   -1    0    0    0  501 -0.00000000000E+00  0.00000000000E+00  0.14950424634E+03  0.14950424634E+03  0.00000000000E+00 0.  1.
          2   -1    0    0  501    0  0.00000000000E+00 -0.00000000000E+00 -0.30783503983E+04  0.30783503983E+04  0.00000000000E+00 0. -1.
         23    2    1    2    0    0  0.79453989436E+02 -0.32348333359E+03 -0.92912057769E+03  0.99112038270E+03  0.90000897621E+02 0.  0.
        254    2    1    2    0    0 -0.79453989436E+02  0.32348333359E+03 -0.19997255743E+04  0.22367342619E+04  0.94505205283E+03 0.  0.
        -24    2    4    4    0    0  0.22005572871E+03 -0.24694427007E+03 -0.86179699912E+03  0.92655759877E+03  0.80055729930E+02 0.  0.
         24    2    4    4    0    0 -0.29950971814E+03  0.57042760366E+03 -0.11379285752E+04  0.13101766632E+04  0.81164796949E+02 0.  0.
         13    1    3    3    0    0  0.52202849614E+01 -0.11583475016E+03 -0.43188107041E+03  0.44717580401E+03  0.00000000000E+00 0.  1.
        -13    1    3    3    0    0  0.74233704474E+02 -0.20764858343E+03 -0.49723950728E+03  0.54394457869E+03  0.00000000000E+00 0. -1.
          2    1    6    6  502    0 -0.13216033488E+03  0.22782407288E+03 -0.54374071206E+03  0.60417226372E+03  0.00000000000E+00 0. -1.
          3    1    5    5  503    0  0.19322950338E+03 -0.20369305942E+03 -0.63798657503E+03  0.69703326560E+03  0.00000000000E+00 0. -1.
         -4    1    5    5    0  503  0.26826225328E+02 -0.43251210647E+02 -0.22381042409E+03  0.22952433317E+03  0.00000000000E+00 0.  1.
         -1    1    6    6    0  502 -0.16734938327E+03  0.34260353078E+03 -0.59418786309E+03  0.70600439944E+03  0.00000000000E+00 0.  1.
<mgrwt>
<rscale>  0 0.13567998E+04</rscale>
<asrwt>0</asrwt>
<pdfrwt beam="1">  1        2 0.47359232E+00 0.13567998E+04</pdfrwt>
<pdfrwt beam="2">  1       -2 0.23000656E-01 0.13567998E+04</pdfrwt>
<totfact> 0.25576881E+01</totfact>
</mgrwt>
</event>
<event>
12    1  0.1433222E-007  0.1230186E+04  0.7818608E-02  0.9086837E-01
          1   -1    0    0  501    0  0.00000000000E+00  0.00000000000E+00  0.62399726466E+03  0.62399726466E+03  0.00000000000E+00 0. -1.
         -1   -1    0    0    0  501 -0.00000000000E+00 -0.00000000000E+00 -0.60631623340E+03  0.60631623340E+03  0.00000000000E+00 0.  1.
         23    2    1    2    0    0 -0.17048467851E+03 -0.97535652196E+01  0.22524808905E+03  0.29714898020E+03  0.91655098988E+02 0.  0.
        254    2    1    2    0    0  0.17048467851E+03  0.97535652196E+01 -0.20756705779E+03  0.93316451786E+03  0.89361724260E+03 0.  0.
        -24    2    4    4    0    0 -0.92349773663E+02 -0.28349306444E+02  0.31582533781E+03  0.34087892855E+03  0.84383861348E+02 0.  0.
         24    2    4    4    0    0  0.26283445218E+03  0.38102871663E+02 -0.52339239560E+03  0.59228558930E+03  0.79554015878E+02 0.  0.
         11    1    3    3    0    0 -0.16589996951E+03 -0.33791192723E+02  0.19507540142E+03  0.25830032293E+03  0.00000000000E+00 0. -1.
        -11    1    3    3    0    0 -0.45847090083E+01  0.24037627503E+02  0.30172687632E+02  0.38848657270E+02  0.00000000000E+00 0.  1.
          2    1    6    6  502    0  0.23905944663E+03  0.22984716310E+02 -0.50335257840E+03  0.55771097747E+03  0.00000000000E+00 0. -1.
          1    1    5    5  503    0 -0.83200842857E+02 -0.31143323430E+02  0.31873185002E+03  0.33088106483E+03  0.00000000000E+00 0. -1.
         -2    1    5    5    0  503 -0.91489308056E+01  0.27940169866E+01 -0.29065122075E+01  0.99978637228E+01  0.00000000000E+00 0.  1.
         -1    1    6    6    0  502  0.23775005544E+02  0.15118155353E+02 -0.20039817199E+02  0.34574611831E+02  0.00000000000E+00 0.  1.
<mgrwt>
<rscale>  0 0.12301864E+04</rscale>
<asrwt>0</asrwt>
<pdfrwt beam="1">  1        1 0.95999580E-01 0.12301864E+04</pdfrwt>
<pdfrwt beam="2">  1       -1 0.93279420E-01 0.12301864E+04</pdfrwt>
<totfact> 0.35656266E+01</totfact>
</mgrwt>
</event>
<event>
12    1  0.1201209E-007  0.1214408E+04  0.7818608E-02  0.9100338E-01
          2   -1    0    0  501    0  0.00000000000E+00  0.00000000000E+00  0.43420900488E+03  0.43420900488E+03  0.00000000000E+00 0. -1.
         -2   -1    0    0    0  501 -0.00000000000E+00 -0.00000000000E+00 -0.84912323122E+03  0.84912323122E+03  0.00000000000E+00 0.  1.
         23    2    1    2    0    0  0.11529911594E+03 -0.11525582916E+03 -0.31102567324E+03  0.36329519696E+03  0.93105523089E+02 0.  0.
        254    2    1    2    0    0 -0.11529911594E+03  0.11525582916E+03 -0.10388855310E+03  0.92003703914E+03  0.89949848784E+03 0.  0.
        -24    2    4    4    0    0  0.36648517851E+03 -0.28672801879E+00  0.81081208232E+02  0.38394112576E+03  0.80778446624E+02 0.  0.
         24    2    4    4    0    0 -0.48178429445E+03  0.11554255718E+03 -0.18496976133E+03  0.53609591339E+03  0.87856854288E+02 0.  0.
         11    1    3    3    0    0  0.70283641014E+02 -0.69429281507E+02 -0.91832346149E+02  0.13488289411E+03  0.00000000000E+00 0. -1.
        -11    1    3    3    0    0  0.45015474926E+02 -0.45826547656E+02 -0.21919332709E+03  0.22841230285E+03  0.00000000000E+00 0.  1.
          4    1    6    6  502    0 -0.19309939633E+02  0.91533071432E+01  0.93151063331E+01  0.23311542340E+02  0.00000000000E+00 0. -1.
          3    1    5    5  503    0  0.24538368421E+02 -0.17107150514E+02 -0.63799476490E+01  0.30585778647E+02  0.00000000000E+00 0. -1.
         -4    1    5    5    0  503  0.34194681009E+03  0.16820422495E+02  0.87461155881E+02  0.35335534711E+03  0.00000000000E+00 0.  1.
         -3    1    6    6    0  502 -0.46247435482E+03  0.10638925004E+03 -0.19428486766E+03  0.51278437105E+03  0.00000000000E+00 0.  1.
<mgrwt>
<rscale>  0 0.12144084E+04</rscale>
<asrwt>0</asrwt>
<pdfrwt beam="1">  1        2 0.66801386E-01 0.12144084E+04</pdfrwt>
<pdfrwt beam="2">  1       -2 0.13063434E+00 0.12144084E+04</pdfrwt>
<totfact> 0.30617690E+01</totfact>
</mgrwt>
</event>
<event>
12    1  0.1201209E-007  0.1644402E+04  0.7818608E-02  0.8793725E-01
          1   -1    0    0  501    0  0.00000000000E+00  0.00000000000E+00  0.21238856555E+03  0.21238856555E+03  0.00000000000E+00 0. -1.
         -1   -1    0    0    0  501 -0.00000000000E+00 -0.00000000000E+00 -0.31829139433E+04  0.31829139433E+04  0.00000000000E+00 0.  1.
         23    2    1    2    0    0 -0.67786978160E+02 -0.53350206584E+03 -0.14616265688E+04  0.15600939601E+04  0.91221756518E+02 0.  0.
        254    2    1    2    0    0  0.67786978160E+02  0.53350206584E+03 -0.15088988089E+04  0.18352085487E+04  0.89554188807E+03 0.  0.
        -24    2    4    4    0    0  0.17011524823E+03 -0.12266765258E+03 -0.51920236093E+02  0.23200178893E+03  0.84513717706E+02 0.  0.
         24    2    4    4    0    0 -0.10232827007E+03  0.65616971842E+03 -0.14569785728E+04  0.16032067598E+04  0.80346617398E+02 0.  0.
         13    1    3    3    0    0 -0.35567449294E+02 -0.24449768681E+03 -0.80245210317E+03  0.83962702444E+03  0.00000000000E+00 0. -1.
        -13    1    3    3    0    0 -0.32219528866E+02 -0.28900437903E+03 -0.65917446568E+03  0.72046693563E+03  0.00000000000E+00 0.  1.
          4    1    6    6  502    0 -0.79566605191E+02  0.53580323272E+03 -0.11073000802E+04  0.12326919390E+04  0.00000000000E+00 0. -1.
          1    1    5    5  503    0  0.15361674123E+03 -0.10515349455E+03 -0.13473369908E+02  0.18664643661E+03  0.00000000000E+00 0. -1.
         -2    1    5    5    0  503  0.16498506998E+02 -0.17514158039E+02 -0.38446866185E+02  0.45355352324E+02  0.00000000000E+00 0.  1.
         -3    1    6    6    0  502 -0.22761664875E+02  0.12036648570E+03 -0.34967849259E+03  0.37051482082E+03  0.00000000000E+00 0.  1.
<mgrwt>
<rscale>  0 0.16444021E+04</rscale>
<asrwt>0</asrwt>
<pdfrwt beam="1">  1        1 0.32675167E-01 0.16444021E+04</pdfrwt>
<pdfrwt beam="2">  1       -1 0.48967902E+00 0.16444021E+04</pdfrwt>
<totfact> 0.22887086E-01</totfact>
</mgrwt>
</event>
<event>
12    1  0.1201209E-007  0.1278597E+04  0.7818608E-02  0.9046712E-01
         -1   -1    0    0    0  501 -0.00000000000E+00  0.00000000000E+00  0.42828038793E+03  0.42828038793E+03  0.00000000000E+00 0.  1.
          1   -1    0    0  501    0  0.00000000000E+00 -0.00000000000E+00 -0.95428763519E+03  0.95428763519E+03  0.00000000000E+00 0. -1.
         23    2    1    2    0    0  0.20478864710E+02  0.96265132257E+02 -0.39617573171E+03  0.41851460609E+03  0.92265408053E+02 0.  0.
        254    2    1    2    0    0 -0.20478864710E+02 -0.96265132257E+02 -0.12983151555E+03  0.96405341704E+03  0.95018756511E+03 0.  0.
        -24    2    4    4    0    0  0.16546153827E+03  0.36913362610E+03 -0.18825203969E+03  0.45330002651E+03  0.80030800487E+02 0.  0.
         24    2    4    4    0    0 -0.18594040298E+03 -0.46539875836E+03  0.58420524143E+02  0.51075339052E+03  0.79285752513E+02 0.  0.
         13    1    3    3    0    0  0.58241290720E+01  0.51095040502E+02 -0.60093377476E+02  0.79093853489E+02  0.00000000000E+00 0.  1.
        -13    1    3    3    0    0  0.14654735638E+02  0.45170091756E+02 -0.33608235423E+03  0.33942075260E+03  0.00000000000E+00 0. -1.
          4    1    6    6  502    0 -0.12140468054E+03 -0.19882364327E+03  0.20312240152E+02  0.23384294875E+03  0.00000000000E+00 0. -1.
          1    1    5    5  503    0  0.91147267380E+02  0.11821420734E+03 -0.50625389561E+02  0.15762408837E+03  0.00000000000E+00 0. -1.
         -4    1    5    5    0  503  0.74314270886E+02  0.25091941876E+03 -0.13762665013E+03  0.29567593814E+03  0.00000000000E+00 0.  1.
         -3    1    6    6    0  502 -0.64535722431E+02 -0.26657511509E+03  0.38108283991E+02  0.27691044177E+03  0.00000000000E+00 0.  1.
<mgrwt>
<rscale>  0 0.12785972E+04</rscale>
<asrwt>0</asrwt>
<pdfrwt beam="1">  1        1 0.14681348E+00 0.12785972E+04</pdfrwt>
<pdfrwt beam="2">  1       -1 0.65889291E-01 0.12785972E+04</pdfrwt>
<totfact> 0.37785626E+01</totfact>
</mgrwt>
</event>
<event>
12    1  0.1201209E-007  0.1379579E+04  0.7818608E-02  0.8968735E-01
          1   -1    0    0  501    0  0.00000000000E+00  0.00000000000E+00  0.19404006163E+04  0.19404006163E+04  0.00000000000E+00 0. -1.
         -1   -1    0    0    0  501 -0.00000000000E+00 -0.00000000000E+00 -0.24521193101E+03  0.24521193101E+03  0.00000000000E+00 0.  1.
         23    2    1    2    0    0 -0.30085659938E+03  0.21656829145E+03  0.69425733060E+03  0.79228444106E+03  0.91131093527E+02 0.  0.
        254    2    1    2    0    0  0.30085659938E+03 -0.21656829145E+03  0.10009313547E+04  0.13933281062E+04  0.89559093150E+03 0.  0.
        -24    2    4    4    0    0  0.36044858903E+03  0.26939204114E+03  0.60836602675E+03  0.76068135387E+03  0.77663649464E+02 0.  0.
         24    2    4    4    0    0 -0.59591989651E+02 -0.48596033259E+03  0.39256532791E+03  0.63264675235E+03  0.80160629381E+02 0.  0.
         13    1    3    3    0    0 -0.21796920518E+00  0.17835354073E+02  0.62156861972E+02  0.64665468805E+02  0.00000000000E+00 0. -1.
        -13    1    3    3    0    0 -0.30063863017E+03  0.19873293738E+03  0.63210046863E+03  0.72761897226E+03  0.00000000000E+00 0.  1.
          2    1    6    6  502    0 -0.34362553284E+02 -0.45002471382E+03  0.36791680326E+03  0.58229357050E+03  0.00000000000E+00 0. -1.
          1    1    5    5  503    0  0.34341777441E+03  0.26727308516E+03  0.60100018909E+03  0.74200532148E+03  0.00000000000E+00 0. -1.
         -4    1    5    5    0  503  0.17030814617E+02  0.21189559883E+01  0.73658376683E+01  0.18676032382E+02  0.00000000000E+00 0.  1.
         -1    1    6    6    0  502 -0.25229436367E+02 -0.35935618769E+02  0.24648524646E+02  0.50353181855E+02  0.00000000000E+00 0.  1.
<mgrwt>
<rscale>  0 0.13795788E+04</rscale>
<asrwt>0</asrwt>
<pdfrwt beam="1">  1        1 0.29852316E+00 0.13795788E+04</pdfrwt>
<pdfrwt beam="2">  1       -1 0.37724914E-01 0.13795788E+04</pdfrwt>
<totfact> 0.21666894E+01</totfact>
</mgrwt>
</event>
<event>
12    1  0.1201209E-007  0.2833113E+04  0.7818608E-02  0.8293061E-01
          3   -1    0    0  501    0  0.00000000000E+00  0.00000000000E+00  0.14927694012E+04  0.14927694012E+04  0.00000000000E+00 0. -1.
         -3   -1    0    0    0  501 -0.00000000000E+00 -0.00000000000E+00 -0.13442343275E+04  0.13442343275E+04  0.00000000000E+00 0.  1.
         23    2    1    2    0    0  0.67297712133E+03  0.50678043442E+02  0.11466279831E+04  0.13336788446E+04  0.92070945977E+02 0.  0.
        254    2    1    2    0    0 -0.67297712133E+03 -0.50678043442E+02 -0.99809290933E+03  0.15033248841E+04  0.89907162207E+03 0.  0.
        -24    2    4    4    0    0 -0.30573928591E+03 -0.40973761631E+03 -0.78677421903E+03  0.94143339615E+03  0.76952858931E+02 0.  0.
         24    2    4    4    0    0 -0.36723783542E+03  0.35905957287E+03 -0.21131869030E+03  0.56189148796E+03  0.85317353066E+02 0.  0.
         11    1    3    3    0    0  0.14826305953E+03  0.29373920207E+01  0.18426652973E+03  0.23652635598E+03  0.00000000000E+00 0. -1.
        -11    1    3    3    0    0  0.52471406180E+03  0.47740651421E+02  0.96236145333E+03  0.10971524886E+04  0.00000000000E+00 0.  1.
          2    1    6    6  502    0 -0.29576174959E+03  0.28425116609E+03 -0.20408029837E+03  0.45817300895E+03  0.00000000000E+00 0. -1.
          3    1    5    5  503    0 -0.27246449841E+03 -0.38952653284E+03 -0.74949931806E+03  0.88753425312E+03  0.00000000000E+00 0. -1.
         -4    1    5    5    0  503 -0.33274787496E+02 -0.20211083470E+02 -0.37274900967E+02  0.53899143036E+02  0.00000000000E+00 0.  1.
         -1    1    6    6    0  502 -0.71476085837E+02  0.74808406774E+02 -0.72383919303E+01  0.10371847901E+03  0.00000000000E+00 0.  1.
<mgrwt>
<rscale>  0 0.28331127E+04</rscale>
<asrwt>0</asrwt>
<pdfrwt beam="1">  1        3 0.22965683E+00 0.28331127E+04</pdfrwt>
<pdfrwt beam="2">  1       -3 0.20680528E+00 0.28331127E+04</pdfrwt>
<totfact> 0.29042570E-02</totfact>
</mgrwt>
</event>
<event>
12    1  0.1201209E-007  0.1111824E+04  0.7818608E-02  0.9193743E-01
         -1   -1    0    0    0  501 -0.00000000000E+00  0.00000000000E+00  0.15412018407E+03  0.15412018407E+03  0.00000000000E+00 0.  1.
          1   -1    0    0  501    0  0.00000000000E+00 -0.00000000000E+00 -0.20051761998E+04  0.20051761998E+04  0.00000000000E+00 0. -1.
         23    2    1    2    0    0 -0.64031868808E+02 -0.37952725788E+02 -0.61363670224E+03  0.62491418123E+03  0.91800010599E+02 0.  0.
        254    2    1    2    0    0  0.64031868808E+02  0.37952725788E+02 -0.12374193135E+04  0.15343822027E+04  0.90420224329E+03 0.  0.
        -24    2    4    4    0    0  0.25883785037E+03  0.28212851966E+02 -0.12881008982E+04  0.13164917678E+04  0.78445223769E+02 0.  0.
         24    2    4    4    0    0 -0.19480598157E+03  0.97398738222E+01  0.50681584623E+02  0.21789043485E+03  0.82845536889E+02 0.  0.
         11    1    3    3    0    0  0.27819037075E+00  0.25719575294E+02 -0.93980919709E+02  0.97437093617E+02  0.00000000000E+00 0.  1.
        -11    1    3    3    0    0 -0.64310059179E+02 -0.63672301082E+02 -0.51965578253E+03  0.52747708761E+03  0.00000000000E+00 0. -1.
          4    1    6    6  502    0 -0.19930729104E+03 -0.20154358449E+01  0.47193279451E+02  0.20482837662E+03  0.00000000000E+00 0. -1.
          3    1    5    5  503    0  0.24943347806E+03  0.80060301735E+01 -0.11733324064E+04  0.11995791314E+04  0.00000000000E+00 0. -1.
         -4    1    5    5    0  503  0.94043723162E+01  0.20206821793E+02 -0.11476849171E+03  0.11691263642E+03  0.00000000000E+00 0.  1.
         -3    1    6    6    0  502  0.45013094692E+01  0.11755309667E+02  0.34883051722E+01  0.13062058233E+02  0.00000000000E+00 0.  1.
<mgrwt>
<rscale>  0 0.11118240E+04</rscale>
<asrwt>0</asrwt>
<pdfrwt beam="1">  1        1 0.30848862E+00 0.11118240E+04</pdfrwt>
<pdfrwt beam="2">  1       -1 0.23710799E-01 0.11118240E+04</pdfrwt>
<totfact> 0.45268868E+01</totfact>
</mgrwt>
</event>
<event>
12    1  0.1201209E-007  0.1572821E+04  0.7818608E-02  0.8837421E-01
          2   -1    0    0  501    0  0.00000000000E+00  0.00000000000E+00  0.80944792675E+03  0.80944792675E+03  0.00000000000E+00 0. -1.
         -2   -1    0    0    0  501 -0.00000000000E+00 -0.00000000000E+00 -0.76402893062E+03  0.76402893062E+03  0.00000000000E+00 0.  1.
         23    2    1    2    0    0  0.29714019145E+02 -0.43473901718E+02  0.53232116369E+03  0.54248092757E+03  0.90259805020E+02 0.  0.
        254    2    1    2    0    0 -0.29714019145E+02  0.43473901718E+02 -0.48690216756E+03  0.10309959298E+04  0.90725188532E+03 0.  0.
        -24    2    4    4    0    0  0.65862790039E+02  0.28040458764E+03 -0.65108271192E+03  0.71621248125E+03  0.78019104396E+02 0.  0.
         24    2    4    4    0    0 -0.95576809184E+02 -0.23693068592E+03  0.16418054436E+03  0.31478344855E+03  0.82838951888E+02 0.  0.
         11    1    3    3    0    0  0.49568072074E+02 -0.22176538001E+02  0.15882612311E+03  0.16785270325E+03  0.00000000000E+00 0.  1.
        -11    1    3    3    0    0 -0.19854052929E+02 -0.21297363716E+02  0.37349504058E+03  0.37462822432E+03  0.00000000000E+00 0. -1.
          4    1    6    6  502    0 -0.62273822656E+01 -0.12584537753E+03  0.78822477543E+02  0.14862308805E+03  0.00000000000E+00 0. -1.
          3    1    5    5  503    0 -0.42156543204E+01  0.24767050009E+02 -0.12063354898E+03  0.12322187974E+03  0.00000000000E+00 0. -1.
         -4    1    5    5    0  503  0.70078444359E+02  0.25563753763E+03 -0.53044916294E+03  0.59299060151E+03  0.00000000000E+00 0.  1.
         -3    1    6    6    0  502 -0.89349426918E+02 -0.11108530839E+03  0.85358066819E+02  0.16616036050E+03  0.00000000000E+00 0.  1.
<mgrwt>
<rscale>  0 0.15728212E+04</rscale>
<asrwt>0</asrwt>
<pdfrwt beam="1">  1        2 0.12453045E+00 0.15728212E+04</pdfrwt>
<pdfrwt beam="2">  1       -2 0.11754291E+00 0.15728212E+04</pdfrwt>
<totfact> 0.18210962E+01</totfact>
</mgrwt>
</event>
<event>
12    1  0.1201209E-007  0.1920064E+04  0.7818608E-02  0.8644933E-01
          2   -1    0    0  501    0  0.00000000000E+00  0.00000000000E+00  0.10564394640E+04  0.10564394640E+04  0.00000000000E+00 0. -1.
         -2   -1    0    0    0  501 -0.00000000000E+00 -0.00000000000E+00 -0.87242215061E+03  0.87242215061E+03  0.00000000000E+00 0.  1.
         23    2    1    2    0    0 -0.15009601593E+03 -0.50348526089E+03  0.60493252649E+03  0.80644637538E+03  0.91576049378E+02 0.  0.
        254    2    1    2    0    0  0.15009601593E+03  0.50348526089E+03 -0.42091521307E+03  0.11224152393E+04  0.89812033204E+03 0.  0.
        -24    2    4    4    0    0  0.31284575032E+03 -0.13955327369E+03 -0.25337646630E+03  0.43375472488E+03  0.81215441822E+02 0.  0.
         24    2    4    4    0    0 -0.16274973439E+03  0.64303853458E+03 -0.16753874677E+03  0.68866051439E+03  0.78727627980E+02 0.  0.
         11    1    3    3    0    0 -0.13433494747E+03 -0.42112545057E+03  0.45313395387E+03  0.63302677935E+03  0.00000000000E+00 0. -1.
        -11    1    3    3    0    0 -0.15761068464E+02 -0.82359810321E+02  0.15179857262E+03  0.17341959602E+03  0.00000000000E+00 0.  1.
          4    1    6    6  502    0 -0.15953130853E+03  0.56791564091E+03 -0.12767667426E+03  0.60355591849E+03  0.00000000000E+00 0. -1.
          3    1    5    5  503    0  0.30960427864E+03 -0.13102017912E+03 -0.22649402435E+03  0.40536482304E+03  0.00000000000E+00 0. -1.
         -4    1    5    5    0  503  0.32414716794E+01 -0.85330945741E+01 -0.26882441946E+02  0.28389901843E+02  0.00000000000E+00 0.  1.
         -3    1    6    6    0  502 -0.32184258577E+01  0.75122893676E+02 -0.39862072509E+02  0.85104595904E+02  0.00000000000E+00 0.  1.
<mgrwt>
<rscale>  0 0.19200637E+04</rscale>
<asrwt>0</asrwt>
<pdfrwt beam="1">  1        2 0.16252915E+00 0.19200637E+04</pdfrwt>
<pdfrwt beam="2">  1       -2 0.13421879E+00 0.19200637E+04</pdfrwt>
<totfact> 0.86831440E+00</totfact>
</mgrwt>
</event>
<event>
12    1  0.1201209E-007  0.2885665E+04  0.7818608E-02  0.8277155E-01
          1   -1    0    0  501    0  0.00000000000E+00  0.00000000000E+00  0.12301722621E+04  0.12301722621E+04  0.00000000000E+00 0. -1.
         -1   -1    0    0    0  501 -0.00000000000E+00 -0.00000000000E+00 -0.16922554173E+04  0.16922554173E+04  0.00000000000E+00 0.  1.
         23    2    1    2    0    0  0.19031955484E+03  0.17836833307E+03 -0.14884436835E+04  0.15139924908E+04  0.93122865104E+02 0.  0.
        254    2    1    2    0    0 -0.19031955484E+03 -0.17836833307E+03  0.10263605283E+04  0.14084351885E+04  0.92856714938E+03 0.  0.
        -24    2    4    4    0    0  0.17670742334E+03  0.52282948522E+02 -0.81114781353E+02  0.21607803183E+03  0.78428871700E+02 0.  0.
         24    2    4    4    0    0 -0.36702697818E+03 -0.23065128159E+03  0.11074753097E+04  0.11923571567E+04  0.85470527619E+02 0.  0.
         11    1    3    3    0    0  0.19285094065E+03  0.14213039148E+03 -0.12430841302E+04  0.12659584070E+04  0.00000000000E+00 0.  1.
        -11    1    3    3    0    0 -0.25313858094E+01  0.36237941592E+02 -0.24535955331E+03  0.24803408380E+03  0.00000000000E+00 0. -1.
          4    1    6    6  502    0 -0.27130696822E+03 -0.21176010522E+03  0.85227864493E+03  0.91914563687E+03  0.00000000000E+00 0. -1.
          3    1    5    5  503    0  0.15159502783E+03  0.65397593577E+02 -0.87764706189E+02  0.18697738195E+03  0.00000000000E+00 0. -1.
         -4    1    5    5    0  503  0.25112395511E+02 -0.13114645055E+02  0.66499248358E+01  0.29100649882E+02  0.00000000000E+00 0.  1.
         -3    1    6    6    0  502 -0.95720009964E+02 -0.18891176369E+02  0.25519666476E+03  0.27321151981E+03  0.00000000000E+00 0.  1.
<mgrwt>
<rscale>  0 0.28856650E+04</rscale>
<asrwt>0</asrwt>
<pdfrwt beam="1">  1        1 0.18925727E+00 0.28856650E+04</pdfrwt>
<pdfrwt beam="2">  1       -1 0.26034699E+00 0.28856650E+04</pdfrwt>
<totfact> 0.52104826E-01</totfact>
</mgrwt>
</event>
<event>
12    1  0.1201209E-007  0.2699476E+04  0.7818608E-02  0.8335175E-01
          2   -1    0    0  501    0  0.00000000000E+00  0.00000000000E+00  0.11144668331E+04  0.11144668331E+04  0.00000000000E+00 0. -1.
         -2   -1    0    0    0  501 -0.00000000000E+00 -0.00000000000E+00 -0.16346764660E+04  0.16346764660E+04  0.00000000000E+00 0.  1.
         23    2    1    2    0    0  0.54358479974E+03  0.86661056423E+03  0.40365084877E+03  0.11034229353E+04  0.90054772055E+02 0.  0.
        254    2    1    2    0    0 -0.54358479974E+03 -0.86661056423E+03 -0.92386048166E+03  0.16457203639E+04  0.89909900561E+03 0.  0.
        -24    2    4    4    0    0 -0.64038431684E+03 -0.74020878996E+03 -0.34552303094E+03  0.10410159771E+04  0.79542276135E+02 0.  0.
         24    2    4    4    0    0  0.96799517098E+02 -0.12640177427E+03 -0.57833745072E+03  0.60470438675E+03  0.76456742008E+02 0.  0.
         13    1    3    3    0    0  0.12306669504E+03  0.15531567787E+03  0.10896590159E+03  0.22614583554E+03  0.00000000000E+00 0.  1.
        -13    1    3    3    0    0  0.42051810470E+03  0.71129488635E+03  0.29468494718E+03  0.87727709980E+03  0.00000000000E+00 0. -1.
          4    1    6    6  502    0  0.23702315678E+01 -0.58239535184E+02 -0.15352119787E+03  0.16421394475E+03  0.00000000000E+00 0. -1.
          1    1    5    5  503    0 -0.40813026384E+03 -0.41203451786E+03 -0.20222718867E+03  0.61419751872E+03  0.00000000000E+00 0. -1.
         -2    1    5    5    0  503 -0.23225405300E+03 -0.32817427210E+03 -0.14329584227E+03  0.42681845838E+03  0.00000000000E+00 0.  1.
         -3    1    6    6    0  502  0.94429285530E+02 -0.68162239084E+02 -0.42481625286E+03  0.44049044200E+03  0.00000000000E+00 0.  1.
<mgrwt>
<rscale>  0 0.26994760E+04</rscale>
<asrwt>0</asrwt>
<pdfrwt beam="1">  1        2 0.17145644E+00 0.26994760E+04</pdfrwt>
<pdfrwt beam="2">  1       -2 0.25148869E+00 0.26994760E+04</pdfrwt>
<totfact> 0.11781489E+00</totfact>
</mgrwt>
</event>
<event>
12    1  0.1201209E-007  0.2889385E+04  0.7818608E-02  0.8276043E-01
          2   -1    0    0  501    0  0.00000000000E+00  0.00000000000E+00  0.99322107084E+03  0.99322107084E+03  0.00000000000E+00 0. -1.
         -2   -1    0    0    0  501 -0.00000000000E+00 -0.00000000000E+00 -0.21013817221E+04  0.21013817221E+04  0.00000000000E+00 0.  1.
         23    2    1    2    0    0  0.55660992198E+02 -0.12869025341E+04 -0.70657864031E+03  0.14719664506E+04  0.90639828812E+02 0.  0.
        254    2    1    2    0    0 -0.55660992198E+02  0.12869025341E+04 -0.40158201096E+03  0.16226363423E+04  0.90136802124E+03 0.  0.
        -24    2    4    4    0    0  0.36650608910E+03  0.57540258271E+03 -0.39282600039E+03  0.79143073640E+03  0.81458568675E+02 0.  0.
         24    2    4    4    0    0 -0.42216708129E+03  0.71149995135E+03 -0.87560105736E+01  0.83120560593E+03  0.79805177199E+02 0.  0.
         11    1    3    3    0    0  0.34193269361E+01 -0.62812058116E+02 -0.58567109132E+02  0.85948546896E+02  0.00000000000E+00 0. -1.
        -11    1    3    3    0    0  0.52241665261E+02 -0.12240904759E+04 -0.64801153118E+03  0.13860179037E+04  0.00000000000E+00 0.  1.
          4    1    6    6  502    0 -0.97267938589E+02  0.12485750105E+03 -0.25925077755E+02  0.16038253366E+03  0.00000000000E+00 0. -1.
          1    1    5    5  503    0  0.75960530876E+02  0.71708789782E+02 -0.44057555158E+02  0.11337204660E+03  0.00000000000E+00 0. -1.
         -2    1    5    5    0  503  0.29054555822E+03  0.50369379293E+03 -0.34876844523E+03  0.67805868981E+03  0.00000000000E+00 0.  1.
         -3    1    6    6    0  502 -0.32489914271E+03  0.58664245030E+03  0.17169067182E+02  0.67082307227E+03  0.00000000000E+00 0.  1.
<mgrwt>
<rscale>  0 0.28893851E+04</rscale>
<asrwt>0</asrwt>
<pdfrwt beam="1">  1        2 0.15280324E+00 0.28893851E+04</pdfrwt>
<pdfrwt beam="2">  1       -2 0.32328949E+00 0.28893851E+04</pdfrwt>
<totfact> 0.50211851E-01</totfact>
</mgrwt>
</event>
<event>
12    1  0.1201209E-007  0.3228804E+04  0.7818608E-02  0.8181251E-01
          1   -1    0    0  501    0  0.00000000000E+00  0.00000000000E+00  0.24492577612E+04  0.24492577612E+04  0.00000000000E+00 0. -1.
         -1   -1    0    0    0  501 -0.00000000000E+00 -0.00000000000E+00 -0.10641155332E+04  0.10641155332E+04  0.00000000000E+00 0.  1.
         23    2    1    2    0    0  0.41577777524E+03 -0.12945583637E+03 -0.90657878789E+03  0.10098114566E+04  0.90576527317E+02 0.  0.
        254    2    1    2    0    0 -0.41577777524E+03  0.12945583637E+03  0.22917210158E+04  0.25035618378E+04  0.90895912411E+03 0.  0.
        -24    2    4    4    0    0 -0.46066400639E+03 -0.73136809217E+02  0.22191927483E+04  0.22690900300E+04  0.79954927402E+02 0.  0.
         24    2    4    4    0    0  0.44886231146E+02  0.20259264559E+03  0.72528267569E+02  0.23447180785E+03  0.81597336273E+02 0.  0.
         13    1    3    3    0    0  0.12449845314E+02 -0.80378538526E+01 -0.67610319498E+01  0.16288563348E+02  0.00000000000E+00 0. -1.
        -13    1    3    3    0    0  0.40332792993E+03 -0.12141798252E+03 -0.89981775594E+03  0.99352289327E+03  0.00000000000E+00 0.  1.
          2    1    6    6  502    0  0.21511107333E+02  0.65353880968E+02 -0.14470527274E+02  0.70308275870E+02  0.00000000000E+00 0. -1.
          3    1    5    5  503    0 -0.43952030408E+03 -0.56207486221E+02  0.20174224647E+04  0.20655098113E+04  0.00000000000E+00 0. -1.
         -4    1    5    5    0  503 -0.21143702309E+02 -0.16929322996E+02  0.20177028353E+03  0.20358021868E+03  0.00000000000E+00 0.  1.
         -1    1    6    6    0  502  0.23375123813E+02  0.13723876462E+03  0.86998794844E+02  0.16416353198E+03  0.00000000000E+00 0.  1.
<mgrwt>
<rscale>  0 0.32288036E+04</rscale>
<asrwt>0</asrwt>
<pdfrwt beam="1">  1        1 0.37680889E+00 0.32288036E+04</pdfrwt>
<pdfrwt beam="2">  1       -1 0.16371008E+00 0.32288036E+04</pdfrwt>
<totfact> 0.33585358E-01</totfact>
</mgrwt>
</event>
<event>
12    1  0.1201209E-007  0.1530005E+04  0.7818608E-02  0.8864741E-01
          2   -1    0    0  501    0  0.00000000000E+00  0.00000000000E+00  0.74325070853E+03  0.74325070853E+03  0.00000000000E+00 0. -1.
         -2   -1    0    0    0  501 -0.00000000000E+00 -0.00000000000E+00 -0.78739115831E+03  0.78739115831E+03  0.00000000000E+00 0.  1.
         23    2    1    2    0    0  0.45433738071E+02 -0.41073597398E+03  0.25982975843E+03  0.49708059488E+03  0.93858135338E+02 0.  0.
        254    2    1    2    0    0 -0.45433738071E+02  0.41073597398E+03 -0.30397020821E+03  0.10335612720E+04  0.89726403613E+03 0.  0.
        -24    2    4    4    0    0 -0.21690797396E+03  0.49739394799E+03 -0.50363706770E+03  0.74479633106E+03  0.81372416366E+02 0.  0.
         24    2    4    4    0    0  0.17147423589E+03 -0.86657974011E+02  0.19966685949E+03  0.28876494089E+03  0.81273109181E+02 0.  0.
         11    1    3    3    0    0  0.59320826233E+02 -0.20503028247E+03  0.97416216822E+02  0.23461947160E+03  0.00000000000E+00 0. -1.
        -11    1    3    3    0    0 -0.13887088162E+02 -0.20570569151E+03  0.16241354161E+03  0.26246112328E+03  0.00000000000E+00 0.  1.
          4    1    6    6  502    0  0.36875651122E+02 -0.24320302280E+02  0.10203016009E+03  0.11118203234E+03  0.00000000000E+00 0. -1.
          1    1    5    5  503    0  0.68726169430E+01  0.15440123940E+02 -0.10790509345E+02  0.20051568089E+02  0.00000000000E+00 0. -1.
         -2    1    5    5    0  503 -0.22378059090E+03  0.48195382405E+03 -0.49284655835E+03  0.72474476298E+03  0.00000000000E+00 0.  1.
         -3    1    6    6    0  502  0.13459858476E+03 -0.62337671731E+02  0.97636699403E+02  0.17758290855E+03  0.00000000000E+00 0.  1.
<mgrwt>
<rscale>  0 0.15300053E+04</rscale>
<asrwt>0</asrwt>
<pdfrwt beam="1">  1        2 0.11434626E+00 0.15300053E+04</pdfrwt>
<pdfrwt beam="2">  1       -2 0.12113710E+00 0.15300053E+04</pdfrwt>
<totfact> 0.18969500E+01</totfact>
</mgrwt>
</event>
<event>
12    1  0.1201209E-007  0.1278761E+04  0.7818608E-02  0.9046579E-01
          2   -1    0    0  501    0  0.00000000000E+00  0.00000000000E+00  0.26276127506E+03  0.26276127506E+03  0.00000000000E+00 0. -1.
         -2   -1    0    0    0  501 -0.00000000000E+00 -0.00000000000E+00 -0.15558136743E+04  0.15558136743E+04  0.00000000000E+00 0.  1.
         23    2    1    2    0    0 -0.16331023383E+03 -0.17097762438E+03 -0.59194960434E+02  0.26110248758E+03  0.93631646194E+02 0.  0.
        254    2    1    2    0    0  0.16331023383E+03  0.17097762438E+03 -0.12338574388E+04  0.15574724618E+04  0.92055022102E+03 0.  0.
        -24    2    4    4    0    0  0.37611473955E+03  0.37326125162E+03 -0.39594430338E+03  0.66597299606E+03  0.77213216724E+02 0.  0.
         24    2    4    4    0    0 -0.21280450572E+03 -0.20228362724E+03 -0.83791313546E+03  0.89149946575E+03  0.80426683094E+02 0.  0.
         13    1    3    3    0    0 -0.16708076242E+03 -0.12713303025E+03 -0.54057889726E+02  0.21679724167E+03  0.00000000000E+00 0. -1.
        -13    1    3    3    0    0  0.37705285928E+01 -0.43844594129E+02 -0.51370707073E+01  0.44305245916E+02  0.00000000000E+00 0.  1.
          4    1    6    6  502    0 -0.17788487425E+03 -0.18053521185E+03 -0.78225075278E+03  0.82228476299E+03  0.00000000000E+00 0. -1.
          3    1    5    5  503    0  0.35148706055E+03  0.32683444722E+03 -0.33400433421E+03  0.58474165654E+03  0.00000000000E+00 0. -1.
         -4    1    5    5    0  503  0.24627679004E+02  0.46426804398E+02 -0.61939969169E+02  0.81231339521E+02  0.00000000000E+00 0.  1.
         -3    1    6    6    0  502 -0.34919631469E+02 -0.21748415384E+02 -0.55662382672E+02  0.69214702761E+02  0.00000000000E+00 0.  1.
<mgrwt>
<rscale>  0 0.12787613E+04</rscale>
<asrwt>0</asrwt>
<pdfrwt beam="1">  1        2 0.40424811E-01 0.12787613E+04</pdfrwt>
<pdfrwt beam="2">  1       -2 0.23935595E+00 0.12787613E+04</pdfrwt>
<totfact> 0.93528426E+00</totfact>
</mgrwt>
</event>
<event>
12    1  0.1201209E-007  0.1797863E+04  0.7818608E-02  0.8707437E-01
          1   -1    0    0  501    0  0.00000000000E+00  0.00000000000E+00  0.50210700929E+03  0.50210700929E+03  0.00000000000E+00 0.  1.
         -1   -1    0    0    0  501 -0.00000000000E+00 -0.00000000000E+00 -0.16093730370E+04  0.16093730370E+04  0.00000000000E+00 0. -1.
         23    2    1    2    0    0  0.20804421157E+03  0.27127617676E+03 -0.10972767020E+04  0.11525965677E+04  0.87117903344E+02 0.  0.
        254    2    1    2    0    0 -0.20804421157E+03 -0.27127617676E+03 -0.99893257306E+01  0.95888347860E+03  0.89581503719E+03 0.  0.
        -24    2    4    4    0    0  0.94789897640E+02 -0.36101679240E+03 -0.32822927376E+03  0.50343956547E+03  0.79991817300E+02 0.  0.
         24    2    4    4    0    0 -0.30283410921E+03  0.89740615637E+02  0.31823994803E+03  0.45544391314E+03  0.79941339092E+02 0.  0.
         11    1    3    3    0    0  0.91903863005E+02  0.18984726152E+03 -0.64895686071E+03  0.68237329212E+03  0.00000000000E+00 0. -1.
        -11    1    3    3    0    0  0.11614034857E+03  0.81428915246E+02 -0.44831984128E+03  0.47022327557E+03  0.00000000000E+00 0.  1.
          2    1    6    6  502    0 -0.92243407120E+01  0.21782985059E+01 -0.44485206829E+01  0.10470089886E+02  0.00000000000E+00 0. -1.
          1    1    5    5  503    0 -0.86768451188E+01 -0.10788641050E+03 -0.90051797542E+02  0.14079805202E+03  0.00000000000E+00 0. -1.
         -4    1    5    5    0  503  0.10346674276E+03 -0.25313038190E+03 -0.23817747622E+03  0.36264151344E+03  0.00000000000E+00 0.  1.
         -1    1    6    6    0  502 -0.29360976850E+03  0.87562317131E+02  0.32268846871E+03  0.44497382325E+03  0.00000000000E+00 0.  1.
<mgrwt>
<rscale>  0 0.17978626E+04</rscale>
<asrwt>0</asrwt>
<pdfrwt beam="1">  1        1 0.77247232E-01 0.17978626E+04</pdfrwt>
<pdfrwt beam="2">  1       -1 0.24759585E+00 0.17978626E+04</pdfrwt>
<totfact> 0.30066388E+00</totfact>
</mgrwt>
</event>
<event>
12    1  0.1201209E-007  0.1465218E+04  0.7818608E-02  0.8907918E-01
          2   -1    0    0  501    0  0.00000000000E+00  0.00000000000E+00  0.21516450264E+04  0.21516450264E+04  0.00000000000E+00 0. -1.
         -2   -1    0    0    0  501 -0.00000000000E+00 -0.00000000000E+00 -0.24944430816E+03  0.24944430816E+03  0.00000000000E+00 0.  1.
         23    2    1    2    0    0 -0.13226222960E+03  0.29666147380E+03  0.10994483264E+04  0.11505293536E+04  0.97107381795E+02 0.  0.
        254    2    1    2    0    0  0.13226222960E+03 -0.29666147380E+03  0.80275239184E+03  0.12505599810E+04  0.90221257806E+03 0.  0.
        -24    2    4    4    0    0  0.39672633608E+03  0.55186143962E+00  0.66958167079E+02  0.41023952163E+03  0.80131009469E+02 0.  0.
         24    2    4    4    0    0 -0.26446410648E+03 -0.29721333524E+03  0.73579422476E+03  0.84032045935E+03  0.80425760476E+02 0.  0.
         13    1    3    3    0    0 -0.84662509148E+02  0.13478373272E+03  0.38867977871E+03  0.42000757784E+03  0.00000000000E+00 0.  1.
        -13    1    3    3    0    0 -0.47599720451E+02  0.16187774108E+03  0.71076854769E+03  0.73052177574E+03  0.00000000000E+00 0. -1.
          2    1    6    6  502    0 -0.22963041871E+03 -0.21935428509E+03  0.53483626104E+03  0.62200985338E+03  0.00000000000E+00 0. -1.
          1    1    5    5  503    0  0.39987482623E+03 -0.13602207954E+01  0.69351787720E+02  0.40584651941E+03  0.00000000000E+00 0. -1.
         -2    1    5    5    0  503 -0.31484901558E+01  0.19120822351E+01 -0.23936206405E+01  0.43930022200E+01  0.00000000000E+00 0.  1.
         -1    1    6    6    0  502 -0.34833687772E+02 -0.77859050154E+02  0.20095796372E+03  0.21831060597E+03  0.00000000000E+00 0.  1.
<mgrwt>
<rscale>  0 0.14652175E+04</rscale>
<asrwt>0</asrwt>
<pdfrwt beam="1">  1        2 0.33102230E+00 0.14652175E+04</pdfrwt>
<pdfrwt beam="2">  1       -2 0.38376049E-01 0.14652175E+04</pdfrwt>
<totfact> 0.34184690E+01</totfact>
</mgrwt>
</event>
<event>
12    1  0.1201209E-007  0.1307940E+04  0.7818608E-02  0.9023293E-01
         -2   -1    0    0    0  501 -0.00000000000E+00  0.00000000000E+00  0.26208989777E+03  0.26208989777E+03  0.00000000000E+00 0.  1.
          2   -1    0    0  501    0  0.00000000000E+00 -0.00000000000E+00 -0.16317932059E+04  0.16317932059E+04  0.00000000000E+00 0. -1.
         23    2    1    2    0    0 -0.25672609184E+03  0.19108206062E+03 -0.52812487341E+03  0.62382658645E+03  0.88448221638E+02 0.  0.
        254    2    1    2    0    0  0.25672609184E+03 -0.19108206062E+03 -0.84157843470E+03  0.12700565172E+04  0.89575033075E+03 0.  0.
        -24    2    4    4    0    0 -0.28827410038E+03  0.20081441215E+02 -0.87327468888E+02  0.31251383793E+03  0.80830630621E+02 0.  0.
         24    2    4    4    0    0  0.54500019222E+03 -0.21116350184E+03 -0.75425096582E+03  0.95754267928E+03  0.79863816505E+02 0.  0.
         11    1    3    3    0    0 -0.19656952380E+03  0.18282977826E+03 -0.39599103466E+03  0.47840903528E+03  0.00000000000E+00 0. -1.
        -11    1    3    3    0    0 -0.60156568044E+02  0.82522823637E+01 -0.13213383876E+03  0.14541755117E+03  0.00000000000E+00 0.  1.
          2    1    6    6  502    0  0.14179539676E+03 -0.86537121102E+02 -0.24738314682E+03  0.29798159205E+03  0.00000000000E+00 0. -1.
          1    1    5    5  503    0 -0.14045682480E+03  0.40232193974E+02 -0.70986307077E+02  0.16243707969E+03  0.00000000000E+00 0. -1.
         -2    1    5    5    0  503 -0.14781727557E+03 -0.20150752759E+02 -0.16341161810E+02  0.15007675824E+03  0.00000000000E+00 0.  1.
         -1    1    6    6    0  502  0.40320479546E+03 -0.12462638074E+03 -0.50686781900E+03  0.65956108724E+03  0.00000000000E+00 0.  1.
<mgrwt>
<rscale>  0 0.13079396E+04</rscale>
<asrwt>0</asrwt>
<pdfrwt beam="1">  1        2 0.25104510E+00 0.13079396E+04</pdfrwt>
<pdfrwt beam="2">  1       -2 0.40321524E-01 0.13079396E+04</pdfrwt>
<totfact> 0.61037653E+01</totfact>
</mgrwt>
</event>
<event>
12    1  0.1201209E-007  0.2706718E+04  0.7818608E-02  0.8332829E-01
         -2   -1    0    0    0  501 -0.00000000000E+00  0.00000000000E+00  0.12088471727E+04  0.12088471727E+04  0.00000000000E+00 0.  1.
          2   -1    0    0  501    0  0.00000000000E+00 -0.00000000000E+00 -0.15151464733E+04  0.15151464733E+04  0.00000000000E+00 0. -1.
         23    2    1    2    0    0  0.45325260747E+02 -0.82110134324E+03 -0.10212154917E+04  0.13142872705E+04  0.90598861031E+02 0.  0.
        254    2    1    2    0    0 -0.45325260747E+02  0.82110134324E+03  0.71491619116E+03  0.14097063756E+04  0.89437414421E+03 0.  0.
        -24    2    4    4    0    0  0.30675659600E+03  0.79106188728E+03  0.51477977907E+03  0.99560213296E+03  0.79667229839E+02 0.  0.
         24    2    4    4    0    0 -0.35208185675E+03  0.30039455952E+02  0.20013641209E+03  0.41410424262E+03  0.81016896667E+02 0.  0.
         13    1    3    3    0    0  0.63909159682E+02 -0.75024772559E+03 -0.94896535556E+03  0.12114005434E+04  0.00000000000E+00 0. -1.
        -13    1    3    3    0    0 -0.18583898935E+02 -0.70853617650E+02 -0.72250136172E+02  0.10288672709E+03  0.00000000000E+00 0.  1.
          4    1    6    6  502    0 -0.92481490680E+02  0.48602016635E+01  0.95645005393E+02  0.13313307153E+03  0.00000000000E+00 0. -1.
          1    1    5    5  503    0  0.66564897376E+01  0.35813873663E+02  0.41211880595E+02  0.55003286307E+02  0.00000000000E+00 0. -1.
         -2    1    5    5    0  503  0.30010010626E+03  0.75524801362E+03  0.47356789847E+03  0.94059884665E+03  0.00000000000E+00 0.  1.
         -3    1    6    6    0  502 -0.25960036607E+03  0.25179254289E+02  0.10449140670E+03  0.28097117109E+03  0.00000000000E+00 0.  1.
<mgrwt>
<rscale>  0 0.27067180E+04</rscale>
<asrwt>0</asrwt>
<pdfrwt beam="1">  1        2 0.23309946E+00 0.27067180E+04</pdfrwt>
<pdfrwt beam="2">  1       -2 0.18597649E+00 0.27067180E+04</pdfrwt>
<totfact> 0.18009968E+00</totfact>
</mgrwt>
</event>
<event>
12    1  0.1201209E-007  0.2185080E+04  0.7818608E-02  0.8524664E-01
          2   -1    0    0  501    0  0.00000000000E+00  0.00000000000E+00  0.76401616782E+03  0.76401616782E+03  0.00000000000E+00 0. -1.
         -2   -1    0    0    0  501 -0.00000000000E+00 -0.00000000000E+00 -0.15623274039E+04  0.15623274039E+04  0.00000000000E+00 0.  1.
         23    2    1    2    0    0 -0.62676773070E+03  0.17402104016E+03  0.34036863569E+03  0.74005825526E+03  0.93350427686E+02 0.  0.
        254    2    1    2    0    0  0.62676773070E+03 -0.17402104016E+03 -0.11386798718E+04  0.15862853164E+04  0.89251786768E+03 0.  0.
        -24    2    4    4    0    0 -0.36945804234E+02  0.19654324050E+03 -0.63505804514E+03  0.67092965955E+03  0.82786771481E+02 0.  0.
         24    2    4    4    0    0  0.66371353494E+03 -0.37056428066E+03 -0.50362182662E+03  0.91535565689E+03  0.80046809997E+02 0.  0.
         11    1    3    3    0    0 -0.26467710300E+03  0.10154515218E+03  0.10582400524E+03  0.30259561607E+03  0.00000000000E+00 0. -1.
        -11    1    3    3    0    0 -0.36209062771E+03  0.72475887976E+02  0.23454463045E+03  0.43746263919E+03  0.00000000000E+00 0.  1.
          2    1    6    6  502    0  0.66488103717E+03 -0.36653805174E+03 -0.50378222196E+03  0.91116050404E+03  0.00000000000E+00 0. -1.
          3    1    5    5  503    0 -0.21572731519E+02  0.18993377244E+03 -0.61858981858E+03  0.64745160770E+03  0.00000000000E+00 0. -1.
         -4    1    5    5    0  503 -0.15373072716E+02  0.66094680604E+01 -0.16468226551E+02  0.23478051846E+02  0.00000000000E+00 0.  1.
         -3    1    6    6    0  502 -0.11675022306E+01 -0.40262289197E+01  0.16039533838E+00  0.41951528502E+01  0.00000000000E+00 0.  1.
<mgrwt>
<rscale>  0 0.21850798E+04</rscale>
<asrwt>0</asrwt>
<pdfrwt beam="1">  1        2 0.11754095E+00 0.21850798E+04</pdfrwt>
<pdfrwt beam="2">  1       -2 0.24035806E+00 0.21850798E+04</pdfrwt>
<totfact> 0.24681580E+00</totfact>
</mgrwt>
</event>
<event>
12    1  0.1201209E-007  0.1978071E+04  0.7818608E-02  0.8616942E-01
          2   -1    0    0  501    0  0.00000000000E+00  0.00000000000E+00  0.16892732557E+04  0.16892732557E+04  0.00000000000E+00 0. -1.
         -2   -1    0    0    0  501 -0.00000000000E+00 -0.00000000000E+00 -0.57906063506E+03  0.57906063506E+03  0.00000000000E+00 0.  1.
         23    2    1    2    0    0  0.39428305320E+03 -0.25196990291E+03  0.11665630674E+04  0.12601158715E+04  0.89859120212E+02 0.  0.
        254    2    1    2    0    0 -0.39428305320E+03  0.25196990291E+03 -0.56350446721E+02  0.10082180193E+04  0.89128011506E+03 0.  0.
        -24    2    4    4    0    0  0.27720117283E+03  0.26706726873E+02 -0.60878214114E+02  0.29565414950E+03  0.78431369256E+02 0.  0.
         24    2    4    4    0    0 -0.67148422603E+03  0.22526317603E+03  0.45277673935E+01  0.71256386976E+03  0.78052569053E+02 0.  0.
         11    1    3    3    0    0  0.30169073953E+03 -0.23146612728E+03  0.97002395314E+03  0.10418926720E+04  0.00000000000E+00 0. -1.
        -11    1    3    3    0    0  0.92592313667E+02 -0.20503775632E+02  0.19653911423E+03  0.21822319947E+03  0.00000000000E+00 0.  1.
          2    1    6    6  502    0 -0.26370469779E+03  0.56116669379E+02 -0.20488965328E+02  0.27038684494E+03  0.00000000000E+00 0. -1.
          3    1    5    5  503    0  0.83217454434E+02  0.21657634206E+01  0.17387365829E+02  0.85042082195E+02  0.00000000000E+00 0. -1.
         -4    1    5    5    0  503  0.19398371839E+03  0.24540963453E+02 -0.78265579943E+02  0.21061206730E+03  0.00000000000E+00 0.  1.
         -1    1    6    6    0  502 -0.40777952824E+03  0.16914650666E+03  0.25016732721E+02  0.44217702482E+03  0.00000000000E+00 0.  1.
<mgrwt>
<rscale>  0 0.19780714E+04</rscale>
<asrwt>0</asrwt>
<pdfrwt beam="1">  1        2 0.25988819E+00 0.19780714E+04</pdfrwt>
<pdfrwt beam="2">  1       -2 0.89086252E-01 0.19780714E+04</pdfrwt>
<totfact> 0.10012323E+01</totfact>
</mgrwt>
</event>
<event>
12    1  0.1201209E-007  0.3412935E+04  0.7818608E-02  0.8134739E-01
          2   -1    0    0  501    0  0.00000000000E+00  0.00000000000E+00  0.27257070783E+04  0.27257070783E+04  0.00000000000E+00 0. -1.
         -2   -1    0    0    0  501 -0.00000000000E+00 -0.00000000000E+00 -0.10683582118E+04  0.10683582118E+04  0.00000000000E+00 0.  1.
         23    2    1    2    0    0 -0.95942253818E+03  0.10401826053E+04 -0.22208726742E+02  0.14182029568E+04  0.91295892262E+02 0.  0.
        254    2    1    2    0    0  0.95942253818E+03 -0.10401826053E+04  0.16795575932E+04  0.23758623334E+04  0.90627625985E+03 0.  0.
        -24    2    4    4    0    0  0.66431783084E+03 -0.11664669690E+04  0.14215591839E+04  0.19568276896E+04  0.79879428518E+02 0.  0.
         24    2    4    4    0    0  0.29510470734E+03  0.12628436376E+03  0.25799840935E+03  0.41903464384E+03  0.77410107120E+02 0.  0.
         13    1    3    3    0    0 -0.24151403587E+03  0.24938752114E+03 -0.43864785232E+02  0.34992468419E+03  0.00000000000E+00 0. -1.
        -13    1    3    3    0    0 -0.71790850231E+03  0.79079508412E+03  0.21656058490E+02  0.10682782726E+04  0.00000000000E+00 0.  1.
          2    1    6    6  502    0  0.15105823522E+03  0.95648844790E+02  0.10827846495E+03  0.20902516095E+03  0.00000000000E+00 0. -1.
          3    1    5    5  503    0  0.24437325891E+03 -0.38004663488E+03  0.52067480651E+03  0.68938812617E+03  0.00000000000E+00 0. -1.
         -4    1    5    5    0  503  0.41994457192E+03 -0.78642033414E+03  0.90088437738E+03  0.12674395634E+04  0.00000000000E+00 0.  1.
         -1    1    6    6    0  502  0.14404647212E+03  0.30635518975E+02  0.14971994440E+03  0.21000948289E+03  0.00000000000E+00 0.  1.
<mgrwt>
<rscale>  0 0.34129351E+04</rscale>
<asrwt>0</asrwt>
<pdfrwt beam="1">  1        2 0.41933955E+00 0.34129351E+04</pdfrwt>
<pdfrwt beam="2">  1       -2 0.16436280E+00 0.34129351E+04</pdfrwt>
<totfact> 0.49619231E-01</totfact>
</mgrwt>
</event>
<event>
12    1  0.1201209E-007  0.1598446E+04  0.7818608E-02  0.8821503E-01
         -1   -1    0    0    0  501 -0.00000000000E+00  0.00000000000E+00  0.57206170572E+03  0.57206170572E+03  0.00000000000E+00 0.  1.
          1   -1    0    0  501    0  0.00000000000E+00 -0.00000000000E+00 -0.11165888814E+04  0.11165888814E+04  0.00000000000E+00 0. -1.
         23    2    1    2    0    0 -0.39959299347E+03  0.12981024038E+03  0.17070731280E+03  0.46352425057E+03  0.95856587043E+02 0.  0.
        254    2    1    2    0    0  0.39959299347E+03 -0.12981024038E+03 -0.71523448847E+03  0.12251263365E+04  0.90158133746E+03 0.  0.
        -24    2    4    4    0    0  0.64630066682E+03  0.60627791114E+02 -0.36433869579E+03  0.74845035339E+03  0.77813657255E+02 0.  0.
         24    2    4    4    0    0 -0.24670767335E+03 -0.19043803149E+03 -0.35089579268E+03  0.47667598315E+03  0.83431502850E+02 0.  0.
         13    1    3    3    0    0 -0.34654876222E+02  0.12113220895E+02 -0.12201374581E+02  0.38685450858E+02  0.00000000000E+00 0. -1.
        -13    1    3    3    0    0 -0.36493811725E+03  0.11769701948E+03  0.18290868738E+03  0.42483879971E+03  0.00000000000E+00 0.  1.
          4    1    6    6  502    0 -0.61559996873E+02 -0.11522774933E+02 -0.94093128113E+02  0.11303063441E+03  0.00000000000E+00 0. -1.
          1    1    5    5  503    0  0.52404504307E+02 -0.94843229401E+00 -0.77203730968E+01  0.52978634904E+02  0.00000000000E+00 0. -1.
         -2    1    5    5    0  503  0.59389616251E+03  0.61576223408E+02 -0.35661832269E+03  0.69547171849E+03  0.00000000000E+00 0.  1.
         -3    1    6    6    0  502 -0.18514767647E+03 -0.17891525656E+03 -0.25680266456E+03  0.36364534874E+03  0.00000000000E+00 0.  1.
<mgrwt>
<rscale>  0 0.15984464E+04</rscale>
<asrwt>0</asrwt>
<pdfrwt beam="1">  1        1 0.17178290E+00 0.15984464E+04</pdfrwt>
<pdfrwt beam="2">  1       -1 0.88009494E-01 0.15984464E+04</pdfrwt>
<totfact> 0.15004562E+01</totfact>
</mgrwt>
</event>
<event>
12    1  0.1201209E-007  0.2633287E+04  0.7818608E-02  0.8356982E-01
         -1   -1    0    0    0  501 -0.00000000000E+00  0.00000000000E+00  0.10349424612E+04  0.10349424612E+04  0.00000000000E+00 0.  1.
          1   -1    0    0  501    0  0.00000000000E+00 -0.00000000000E+00 -0.16750204734E+04  0.16750204734E+04  0.00000000000E+00 0. -1.
         23    2    1    2    0    0 -0.89939007998E+03  0.56942424664E+03 -0.78986518900E+03  0.13285830344E+04  0.89996521450E+02 0.  0.
        254    2    1    2    0    0  0.89939007998E+03 -0.56942424664E+03  0.14978717678E+03  0.13813799002E+04  0.86754120460E+03 0.  0.
        -24    2    4    4    0    0  0.66390277625E+03 -0.39249628812E+02  0.35832838685E+03  0.75961330402E+03  0.79408495391E+02 0.  0.
         24    2    4    4    0    0  0.23548730373E+03 -0.53017461782E+03 -0.20854121008E+03  0.62176659617E+03  0.81023874287E+02 0.  0.
         11    1    3    3    0    0 -0.60413053579E+03  0.37665626681E+03 -0.57964419048E+03  0.91805829617E+03  0.00000000000E+00 0.  1.
        -11    1    3    3    0    0 -0.29525954420E+03  0.19276797982E+03 -0.21022099851E+03  0.41052473823E+03  0.00000000000E+00 0. -1.
          4    1    6    6  502    0  0.14871175129E+03 -0.39876182129E+03 -0.12534976962E+03  0.44366512127E+03  0.00000000000E+00 0. -1.
          3    1    5    5  503    0  0.46430603314E+03 -0.14902134479E+02  0.28808128591E+03  0.54661960568E+03  0.00000000000E+00 0. -1.
         -4    1    5    5    0  503  0.19959674311E+03 -0.24347494333E+02  0.70247100947E+02  0.21299369834E+03  0.00000000000E+00 0.  1.
         -3    1    6    6    0  502  0.86775552440E+02 -0.13141279654E+03 -0.83191440456E+02  0.17810147490E+03  0.00000000000E+00 0.  1.
<mgrwt>
<rscale>  0 0.26332868E+04</rscale>
<asrwt>0</asrwt>
<pdfrwt beam="1">  1        1 0.25769545E+00 0.26332868E+04</pdfrwt>
<pdfrwt beam="2">  1       -1 0.15922192E+00 0.26332868E+04</pdfrwt>
<totfact> 0.12896486E+00</totfact>
</mgrwt>
</event>
<event>
12    1  0.1201209E-007  0.1977246E+04  0.7818608E-02  0.8617333E-01
          2   -1    0    0  501    0  0.00000000000E+00  0.00000000000E+00  0.24159769555E+04  0.24159769555E+04  0.00000000000E+00 0. -1.
         -2   -1    0    0    0  501 -0.00000000000E+00 -0.00000000000E+00 -0.40454673223E+03  0.40454673223E+03  0.00000000000E+00 0.  1.
         23    2    1    2    0    0 -0.12625284870E+03 -0.29429207846E+03 -0.21760878759E+03  0.39659296422E+03  0.85934775181E+02 0.  0.
        254    2    1    2    0    0  0.12625284870E+03  0.29429207846E+03  0.22290390109E+04  0.24239307235E+04  0.89681527150E+03 0.  0.
        -24    2    4    4    0    0  0.23539996642E+03  0.43794384197E+03  0.21549390387E+04  0.22130304805E+04  0.80831269544E+02 0.  0.
         24    2    4    4    0    0 -0.10914711772E+03 -0.14365176351E+03  0.74099972139E+02  0.21090024300E+03  0.80244527304E+02 0.  0.
         11    1    3    3    0    0 -0.29918077060E+02 -0.15058267943E+03 -0.68178682864E+02  0.16798383099E+03  0.00000000000E+00 0. -1.
        -11    1    3    3    0    0 -0.96334771636E+02 -0.14370939904E+03 -0.14943010473E+03  0.22860913323E+03  0.00000000000E+00 0.  1.
          4    1    6    6  502    0 -0.28660272130E+02 -0.23339412101E+02  0.53004429951E+02  0.64618951943E+02  0.00000000000E+00 0. -1.
          3    1    5    5  503    0  0.66146422792E+02  0.17075021722E+03  0.65554064890E+03  0.68063538571E+03  0.00000000000E+00 0. -1.
         -4    1    5    5    0  503  0.16925354363E+03  0.26719362475E+03  0.14993983899E+04  0.15323950948E+04  0.00000000000E+00 0.  1.
         -3    1    6    6    0  502 -0.80486845592E+02 -0.12031235141E+03  0.21095542188E+02  0.14628129106E+03  0.00000000000E+00 0.  1.
<mgrwt>
<rscale>  0 0.19772461E+04</rscale>
<asrwt>0</asrwt>
<pdfrwt beam="1">  1        2 0.37168875E+00 0.19772461E+04</pdfrwt>
<pdfrwt beam="2">  1       -2 0.62237960E-01 0.19772461E+04</pdfrwt>
<totfact> 0.86842572E+00</totfact>
</mgrwt>
</event>
<event>
12    1  0.1201209E-007  0.2315098E+04  0.7818608E-02  0.8471992E-01
         -2   -1    0    0    0  501 -0.00000000000E+00  0.00000000000E+00  0.10258368380E+04  0.10258368380E+04  0.00000000000E+00 0.  1.
          2   -1    0    0  501    0  0.00000000000E+00 -0.00000000000E+00 -0.13061724753E+04  0.13061724753E+04  0.00000000000E+00 0. -1.
         23    2    1    2    0    0 -0.25132807757E+03 -0.33542802759E+03  0.77752155478E+03  0.88790336627E+03  0.90304238098E+02 0.  0.
        254    2    1    2    0    0  0.25132807757E+03  0.33542802759E+03 -0.10578571921E+04  0.14441059470E+04  0.88921447531E+03 0.  0.
        -24    2    4    4    0    0 -0.10244956328E+03  0.22718447001E+02  0.11628110293E+03  0.17609795722E+03  0.80480772789E+02 0.  0.
         24    2    4    4    0    0  0.35377764086E+03  0.31270958059E+03 -0.11741382951E+04  0.12680079898E+04  0.79357579248E+02 0.  0.
         11    1    3    3    0    0 -0.75310423163E+02 -0.15375195841E+03  0.37904089653E+03  0.41591264203E+03  0.00000000000E+00 0. -1.
        -11    1    3    3    0    0 -0.17601765441E+03 -0.18167606918E+03  0.39848065824E+03  0.47199072424E+03  0.00000000000E+00 0.  1.
          2    1    6    6  502    0  0.11188059130E+03  0.55781417995E+02 -0.27410285416E+03  0.30126600864E+03  0.00000000000E+00 0. -1.
          1    1    5    5  503    0 -0.87863817578E+02  0.45719353242E+01  0.40566018520E+02  0.96884234479E+02  0.00000000000E+00 0. -1.
         -2    1    5    5    0  503 -0.14585745705E+02  0.18146511677E+02  0.75715084410E+02  0.79213722744E+02  0.00000000000E+00 0.  1.
         -1    1    6    6    0  502  0.24189704955E+03  0.25692816260E+03 -0.90003544089E+03  0.96674198118E+03  0.00000000000E+00 0.  1.
<mgrwt>
<rscale>  0 0.23150981E+04</rscale>
<asrwt>0</asrwt>
<pdfrwt beam="1">  1        2 0.20094961E+00 0.23150981E+04</pdfrwt>
<pdfrwt beam="2">  1       -2 0.15782105E+00 0.23150981E+04</pdfrwt>
<totfact> 0.38819721E+00</totfact>
</mgrwt>
</event>
<event>
12    1  0.1201209E-007  0.1328267E+04  0.7818608E-02  0.9007445E-01
          1   -1    0    0  501    0  0.00000000000E+00  0.00000000000E+00  0.90052975130E+03  0.90052975130E+03  0.00000000000E+00 0. -1.
         -1   -1    0    0    0  501 -0.00000000000E+00 -0.00000000000E+00 -0.48979325809E+03  0.48979325809E+03  0.00000000000E+00 0.  1.
         23    2    1    2    0    0  0.32781315171E+03 -0.40579521136E+01  0.39236491105E+03  0.51985306893E+03  0.93909852764E+02 0.  0.
        254    2    1    2    0    0 -0.32781315171E+03  0.40579521136E+01  0.18371582167E+02  0.87046994046E+03  0.80616528876E+03 0.  0.
        -24    2    4    4    0    0  0.17709221805E+03 -0.21268111182E+03 -0.95852185227E+02  0.30355673826E+03  0.79775578423E+02 0.  0.
         24    2    4    4    0    0 -0.50490536975E+03  0.21673906394E+03  0.11422376739E+03  0.56691320220E+03  0.80238740944E+02 0.  0.
         11    1    3    3    0    0 -0.44160143574E+01 -0.25969595063E+01  0.20778123512E+02  0.21400369112E+02  0.00000000000E+00 0.  1.
        -11    1    3    3    0    0  0.33222916606E+03 -0.14609926073E+01  0.37158678754E+03  0.49845269982E+03  0.00000000000E+00 0. -1.
          2    1    6    6  502    0 -0.39974116649E+03  0.20558288760E+03  0.94565954357E+02  0.45934741056E+03  0.00000000000E+00 0. -1.
          3    1    5    5  503    0  0.68577939543E+02 -0.14219782363E+03 -0.63614637769E+02  0.17020569020E+03  0.00000000000E+00 0. -1.
         -4    1    5    5    0  503  0.10851427850E+03 -0.70483288190E+02 -0.32237547458E+02  0.13335104806E+03  0.00000000000E+00 0.  1.
         -1    1    6    6    0  502 -0.10516420326E+03  0.11156176335E+02  0.19657813037E+02  0.10756579164E+03  0.00000000000E+00 0.  1.
<mgrwt>
<rscale>  0 0.13282671E+04</rscale>
<asrwt>0</asrwt>
<pdfrwt beam="1">  1        1 0.13854304E+00 0.13282671E+04</pdfrwt>
<pdfrwt beam="2">  1       -1 0.75352809E-01 0.13282671E+04</pdfrwt>
<totfact> 0.31562840E+01</totfact>
</mgrwt>
</event>
<event>
12    1  0.1201209E-007  0.1643702E+04  0.7818608E-02  0.8794141E-01
         -1   -1    0    0    0  501 -0.00000000000E+00  0.00000000000E+00  0.18383733843E+04  0.18383733843E+04  0.00000000000E+00 0.  1.
          1   -1    0    0  501    0  0.00000000000E+00 -0.00000000000E+00 -0.36741110564E+03  0.36741110564E+03  0.00000000000E+00 0. -1.
         23    2    1    2    0    0 -0.40955297788E+03  0.82417143670E+02  0.20676141664E+01  0.42730729223E+03  0.89783181669E+02 0.  0.
        254    2    1    2    0    0  0.40955297788E+03 -0.82417143670E+02  0.14688946645E+04  0.17784771977E+04  0.91148416340E+03 0.  0.
        -24    2    4    4    0    0  0.35368329009E+03 -0.19647802699E+03  0.15548292738E+04  0.16086096273E+04  0.80220805912E+02 0.  0.
         24    2    4    4    0    0  0.55869687790E+02  0.11406088332E+03 -0.85934609300E+02  0.16986757039E+03  0.73067963410E+02 0.  0.
         11    1    3    3    0    0 -0.19087701153E+03 -0.68510832325E+01  0.56907552821E+01  0.19108468167E+03  0.00000000000E+00 0.  1.
        -11    1    3    3    0    0 -0.21867596634E+03  0.89268226903E+02 -0.36231411157E+01  0.23622261056E+03  0.00000000000E+00 0. -1.
          4    1    6    6  502    0  0.34650161490E+02  0.89382948841E+01 -0.64039527468E+01  0.36352956104E+02  0.00000000000E+00 0. -1.
          3    1    5    5  503    0  0.29647909411E+03 -0.14095562832E+03  0.11465872073E+04  0.11926569358E+04  0.00000000000E+00 0. -1.
         -2    1    5    5    0  503  0.57204195973E+02 -0.55522398665E+02  0.40824206644E+03  0.41595269154E+03  0.00000000000E+00 0.  1.
         -3    1    6    6    0  502  0.21219526299E+02  0.10512258843E+03 -0.79530656553E+02  0.13351461428E+03  0.00000000000E+00 0.  1.
<mgrwt>
<rscale>  0 0.16437017E+04</rscale>
<asrwt>0</asrwt>
<pdfrwt beam="1">  1        1 0.56524786E-01 0.16437017E+04</pdfrwt>
<pdfrwt beam="2">  1       -1 0.28282667E+00 0.16437017E+04</pdfrwt>
<totfact> 0.27435675E+00</totfact>
</mgrwt>
</event>
<event>
12    1  0.1201209E-007  0.1600578E+04  0.7818608E-02  0.8820193E-01
          1   -1    0    0  501    0  0.00000000000E+00  0.00000000000E+00  0.10018982656E+04  0.10018982656E+04  0.00000000000E+00 0. -1.
         -1   -1    0    0    0  501 -0.00000000000E+00 -0.00000000000E+00 -0.63924906861E+03  0.63924906861E+03  0.00000000000E+00 0.  1.
         23    2    1    2    0    0 -0.20332281733E+02  0.27857945342E+03  0.57960999518E+03  0.64992744223E+03  0.91858696416E+02 0.  0.
        254    2    1    2    0    0  0.20332281733E+02 -0.27857945342E+03 -0.21696079816E+03  0.99121989202E+03  0.92597244713E+03 0.  0.
        -24    2    4    4    0    0 -0.40986118549E+03 -0.18828276585E+03 -0.28539622821E+03  0.53950827698E+03  0.78623040909E+02 0.  0.
         24    2    4    4    0    0  0.43019346722E+03 -0.90296687567E+02  0.68435430056E+02  0.45171161504E+03  0.78358560785E+02 0.  0.
         11    1    3    3    0    0 -0.54342146257E+02  0.15368508481E+03  0.28923120939E+03  0.33200431719E+03  0.00000000000E+00 0. -1.
        -11    1    3    3    0    0  0.34009864524E+02  0.12489436861E+03  0.29037878579E+03  0.31792312504E+03  0.00000000000E+00 0.  1.
          4    1    6    6  502    0  0.38127310863E+03 -0.66153424366E+02  0.81853925907E+02  0.39553195080E+03  0.00000000000E+00 0. -1.
          1    1    5    5  503    0 -0.36706394718E+03 -0.18895217037E+03 -0.27301679774E+03  0.49495154900E+03  0.00000000000E+00 0. -1.
         -2    1    5    5    0  503 -0.42797238313E+02  0.66940451964E+00 -0.12379430471E+02  0.44556727981E+02  0.00000000000E+00 0.  1.
         -3    1    6    6    0  502  0.48920358592E+02 -0.24143263201E+02 -0.13418495851E+02  0.56179664236E+02  0.00000000000E+00 0.  1.
<mgrwt>
<rscale>  0 0.16005781E+04</rscale>
<asrwt>0</asrwt>
<pdfrwt beam="1">  1        1 0.15413819E+00 0.16005781E+04</pdfrwt>
<pdfrwt beam="2">  1       -1 0.98346010E-01 0.16005781E+04</pdfrwt>
<totfact> 0.14328623E+01</totfact>
</mgrwt>
</event>
<event>
12    1  0.1201209E-007  0.1375301E+04  0.7818608E-02  0.8971893E-01
          3   -1    0    0  501    0  0.00000000000E+00  0.00000000000E+00  0.13364217328E+04  0.13364217328E+04  0.00000000000E+00 0. -1.
         -3   -1    0    0    0  501 -0.00000000000E+00 -0.00000000000E+00 -0.35382794282E+03  0.35382794282E+03  0.00000000000E+00 0.  1.
         23    2    1    2    0    0  0.20167492902E+03  0.20154911930E+03  0.59275014801E+03  0.66367078103E+03  0.88381803291E+02 0.  0.
        254    2    1    2    0    0 -0.20167492902E+03 -0.20154911930E+03  0.38984364196E+03  0.10265788946E+04  0.90586496626E+03 0.  0.
        -24    2    4    4    0    0 -0.31710403638E+03  0.27543200018E+03  0.65435004229E+02  0.43285551766E+03  0.81635793505E+02 0.  0.
         24    2    4    4    0    0  0.11542910737E+03 -0.47698111948E+03  0.32440863773E+03  0.59372337690E+03  0.80197362050E+02 0.  0.
         11    1    3    3    0    0  0.92197150691E+02  0.15274188750E+03  0.36726157475E+03  0.40830315095E+03  0.00000000000E+00 0. -1.
        -11    1    3    3    0    0  0.10947777833E+03  0.48807231802E+02  0.22548857326E+03  0.25536763008E+03  0.00000000000E+00 0.  1.
          4    1    6    6  502    0  0.53793737067E+02 -0.34451389219E+03  0.25492656933E+03  0.43193881953E+03  0.00000000000E+00 0. -1.
          3    1    5    5  503    0 -0.24779069713E+03  0.24209016857E+03  0.28673054692E+02  0.34760613252E+03  0.00000000000E+00 0. -1.
         -4    1    5    5    0  503 -0.69313339246E+02  0.33341831612E+02  0.36761949537E+02  0.85249385138E+02  0.00000000000E+00 0.  1.
         -3    1    6    6    0  502  0.61635370298E+02 -0.13246722729E+03  0.69482068394E+02  0.16178455737E+03  0.00000000000E+00 0.  1.
<mgrwt>
<rscale>  0 0.13753012E+04</rscale>
<asrwt>0</asrwt>
<pdfrwt beam="1">  1        3 0.20560334E+00 0.13753012E+04</pdfrwt>
<pdfrwt beam="2">  1       -3 0.54435069E-01 0.13753012E+04</pdfrwt>
<totfact> 0.11568505E+00</totfact>
</mgrwt>
</event>
<event>
12    1  0.1201209E-007  0.1300752E+04  0.7818608E-02  0.9028969E-01
         -1   -1    0    0    0  501 -0.00000000000E+00  0.00000000000E+00  0.65122950836E+03  0.65122950836E+03  0.00000000000E+00 0.  1.
          1   -1    0    0  501    0  0.00000000000E+00 -0.00000000000E+00 -0.64952318608E+03  0.64952318608E+03  0.00000000000E+00 0. -1.
         23    2    1    2    0    0 -0.20185782203E+03 -0.20334348376E+03 -0.18367401879E+03  0.35224427509E+03  0.90800503569E+02 0.  0.
        254    2    1    2    0    0  0.20185782203E+03  0.20334348376E+03  0.18538034107E+03  0.94850841935E+03  0.88498994233E+03 0.  0.
        -24    2    4    4    0    0  0.72428096640E+02 -0.17926910687E+03  0.42411749593E+03  0.47265887162E+03  0.78406101190E+02 0.  0.
         24    2    4    4    0    0  0.12942972539E+03  0.38261259063E+03 -0.23873715486E+03  0.47584954774E+03  0.79327893256E+02 0.  0.
         11    1    3    3    0    0 -0.44697156998E+02 -0.10583309630E+03 -0.82392163776E+02  0.14137520563E+03  0.00000000000E+00 0. -1.
        -11    1    3    3    0    0 -0.15716066504E+03 -0.97510387459E+02 -0.10128185502E+03  0.21086906946E+03  0.00000000000E+00 0.  1.
          4    1    6    6  502    0  0.30337398618E+02  0.14105258781E+03 -0.46387367651E+02  0.15155189923E+03  0.00000000000E+00 0. -1.
          3    1    5    5  503    0  0.87171626784E+02 -0.17030862883E+03  0.38564991566E+03  0.43049945299E+03  0.00000000000E+00 0. -1.
         -4    1    5    5    0  503 -0.14743530144E+02 -0.89604780444E+01  0.38467580263E+02  0.42159418630E+02  0.00000000000E+00 0.  1.
         -3    1    6    6    0  502  0.99092326775E+02  0.24156000282E+03 -0.19234978721E+03  0.32429764851E+03  0.00000000000E+00 0.  1.
<mgrwt>
<rscale>  0 0.13007516E+04</rscale>
<asrwt>0</asrwt>
<pdfrwt beam="1">  1        1 0.99926644E-01 0.13007516E+04</pdfrwt>
<pdfrwt beam="2">  1       -1 0.10018916E+00 0.13007516E+04</pdfrwt>
<totfact> 0.28442122E+01</totfact>
</mgrwt>
</event>
<event>
12    1  0.1201209E-007  0.1528017E+04  0.7818608E-02  0.8866033E-01
          2   -1    0    0  501    0  0.00000000000E+00  0.00000000000E+00  0.10479928563E+04  0.10479928563E+04  0.00000000000E+00 0. -1.
         -2   -1    0    0    0  501 -0.00000000000E+00 -0.00000000000E+00 -0.55697776531E+03  0.55697776531E+03  0.00000000000E+00 0.  1.
         23    2    1    2    0    0 -0.18858097790E+02 -0.36130516235E+03 -0.19278680232E+03  0.42020869497E+03  0.92258051085E+02 0.  0.
        254    2    1    2    0    0  0.18858097790E+02  0.36130516235E+03  0.68380189327E+03  0.11847619266E+04  0.89731752758E+03 0.  0.
        -24    2    4    4    0    0 -0.23388189574E+03  0.33536116595E+02  0.71949641150E+03  0.76154188252E+03  0.80284123024E+02 0.  0.
         24    2    4    4    0    0  0.25273999353E+03  0.32776904576E+03 -0.35694518221E+02  0.42322004408E+03  0.80814945382E+02 0.  0.
         11    1    3    3    0    0 -0.17868417408E+00 -0.17875311431E+03 -0.44321210877E+02  0.18416589678E+03  0.00000000000E+00 0.  1.
        -11    1    3    3    0    0 -0.18679413616E+02 -0.18255204804E+03 -0.14846559144E+03  0.23604279819E+03  0.00000000000E+00 0. -1.
          4    1    6    6  502    0  0.31458671510E+02  0.85055033663E+02 -0.27156118329E+02  0.94664996315E+02  0.00000000000E+00 0. -1.
          1    1    5    5  503    0 -0.33396556906E+02  0.35712598602E+02  0.15178597516E+03  0.15946693063E+03  0.00000000000E+00 0. -1.
         -2    1    5    5    0  503 -0.20048533883E+03 -0.21764820075E+01  0.56771043634E+03  0.60207495189E+03  0.00000000000E+00 0.  1.
         -3    1    6    6    0  502  0.22128132202E+03  0.24271401209E+03 -0.85383998921E+01  0.32855504777E+03  0.00000000000E+00 0.  1.
<mgrwt>
<rscale>  0 0.15280166E+04</rscale>
<asrwt>0</asrwt>
<pdfrwt beam="1">  1        2 0.16122967E+00 0.15280166E+04</pdfrwt>
<pdfrwt beam="2">  1       -2 0.85688887E-01 0.15280166E+04</pdfrwt>
<totfact> 0.26781783E+01</totfact>
</mgrwt>
</event>
<event>
12    1  0.1201209E-007  0.1972873E+04  0.7818608E-02  0.8619409E-01
         -2   -1    0    0    0  501 -0.00000000000E+00  0.00000000000E+00  0.10422702584E+04  0.10422702584E+04  0.00000000000E+00 0.  1.
          2   -1    0    0  501    0  0.00000000000E+00 -0.00000000000E+00 -0.93359376474E+03  0.93359376474E+03  0.00000000000E+00 0. -1.
         23    2    1    2    0    0  0.51169130230E+02  0.34954899849E+03  0.73771840369E+03  0.82284596014E+03  0.89689736090E+02 0.  0.
        254    2    1    2    0    0 -0.51169130230E+02 -0.34954899849E+03 -0.62904191004E+03  0.11530180630E+04  0.89941878274E+03 0.  0.
        -24    2    4    4    0    0 -0.37388096964E+03 -0.19155194160E+03 -0.65783456044E+03  0.78451183412E+03  0.78951777491E+02 0.  0.
         24    2    4    4    0    0  0.32271183941E+03 -0.15799705688E+03  0.28792650400E+02  0.36850622886E+03  0.76562541185E+02 0.  0.
         11    1    3    3    0    0  0.27327296069E+02  0.20035581352E+02  0.60643435374E+02  0.69468207725E+02  0.00000000000E+00 0. -1.
        -11    1    3    3    0    0  0.23841834160E+02  0.32951341713E+03  0.67707496831E+03  0.75337775242E+03  0.00000000000E+00 0.  1.
          4    1    6    6  502    0  0.49931265670E+02 -0.10560711751E+02 -0.19614132978E+02  0.54675169287E+02  0.00000000000E+00 0. -1.
          1    1    5    5  503    0 -0.13636479405E+03 -0.11070053443E+03 -0.24598729118E+03  0.30225769271E+03  0.00000000000E+00 0. -1.
         -2    1    5    5    0  503 -0.23751617560E+03 -0.80851407175E+02 -0.41184726926E+03  0.48225414141E+03  0.00000000000E+00 0.  1.
         -3    1    6    6    0  502  0.27278057374E+03 -0.14743634513E+03  0.48406783378E+02  0.31383105958E+03  0.00000000000E+00 0.  1.
<mgrwt>
<rscale>  0 0.19728730E+04</rscale>
<asrwt>0</asrwt>
<pdfrwt beam="1">  1        2 0.14362981E+00 0.19728730E+04</pdfrwt>
<pdfrwt beam="2">  1       -2 0.16034927E+00 0.19728730E+04</pdfrwt>
<totfact> 0.64886703E+00</totfact>
</mgrwt>
</event>
<event>
12    1  0.1201209E-007  0.2159863E+04  0.7818608E-02  0.8535322E-01
          2   -1    0    0  501    0  0.00000000000E+00  0.00000000000E+00  0.35488813597E+04  0.35488813597E+04  0.00000000000E+00 0. -1.
         -2   -1    0    0    0  501 -0.00000000000E+00 -0.00000000000E+00 -0.32862523641E+03  0.32862523641E+03  0.00000000000E+00 0.  1.
         23    2    1    2    0    0  0.67141752905E+03 -0.45480487427E+03  0.19960786053E+04  0.21564765440E+04  0.91718670119E+02 0.  0.
        254    2    1    2    0    0 -0.67141752905E+03  0.45480487427E+03  0.12241775180E+04  0.17210300521E+04  0.89759950569E+03 0.  0.
        -24    2    4    4    0    0 -0.52200281854E+03 -0.89943478227E+02  0.24771821136E+03  0.59024160704E+03  0.80274968681E+02 0.  0.
         24    2    4    4    0    0 -0.14941471051E+03  0.54474835249E+03  0.97645930661E+03  0.11307884450E+04  0.78321176415E+02 0.  0.
         11    1    3    3    0    0  0.57240282864E+03 -0.34536010408E+03  0.16406723241E+04  0.17716445114E+04  0.00000000000E+00 0. -1.
        -11    1    3    3    0    0  0.99014700408E+02 -0.10944477019E+03  0.35540628123E+03  0.38483203266E+03  0.00000000000E+00 0.  1.
          2    1    6    6  502    0 -0.45489259505E+02  0.13670102586E+03  0.31933054800E+03  0.35032619383E+03  0.00000000000E+00 0. -1.
          3    1    5    5  503    0 -0.10680340870E+03 -0.12687895367E+01  0.20712376622E+02  0.10880064560E+03  0.00000000000E+00 0. -1.
         -4    1    5    5    0  503 -0.41519940984E+03 -0.88674688690E+02  0.22700583474E+03  0.48144096144E+03  0.00000000000E+00 0.  1.
         -1    1    6    6    0  502 -0.10392545100E+03  0.40804732663E+03  0.65712875862E+03  0.78046225120E+03  0.00000000000E+00 0.  1.
<mgrwt>
<rscale>  0 0.21598629E+04</rscale>
<asrwt>0</asrwt>
<pdfrwt beam="1">  1        2 0.54598172E+00 0.21598629E+04</pdfrwt>
<pdfrwt beam="2">  1       -2 0.50557731E-01 0.21598629E+04</pdfrwt>
<totfact> 0.25584302E+00</totfact>
</mgrwt>
</event>
<event>
12    1  0.1201209E-007  0.1661142E+04  0.7818608E-02  0.8783842E-01
         -1   -1    0    0    0  501 -0.00000000000E+00  0.00000000000E+00  0.97682453521E+03  0.97682453521E+03  0.00000000000E+00 0.  1.
          1   -1    0    0  501    0  0.00000000000E+00 -0.00000000000E+00 -0.70621519137E+03  0.70621519137E+03  0.00000000000E+00 0. -1.
         23    2    1    2    0    0  0.52296863520E+02 -0.14841577195E+03 -0.40023087596E+03  0.43925552636E+03  0.89434110191E+02 0.  0.
        254    2    1    2    0    0 -0.52296863520E+02  0.14841577195E+03  0.67084021980E+03  0.12437842002E+04  0.10354758968E+04 0.  0.
        -24    2    4    4    0    0 -0.43963880523E+03  0.36921610413E+03  0.47597674354E+03  0.74950731062E+03  0.74863460158E+02 0.  0.
         24    2    4    4    0    0  0.38734194171E+03 -0.22080033218E+03  0.19486347626E+03  0.49427688961E+03  0.86898231967E+02 0.  0.
         13    1    3    3    0    0  0.56249624105E+02 -0.15051894697E+03 -0.31232975481E+03  0.35124044378E+03  0.00000000000E+00 0. -1.
        -13    1    3    3    0    0 -0.39527605852E+01  0.21031750163E+01 -0.87901121151E+02  0.88015082577E+02  0.00000000000E+00 0.  1.
          4    1    6    6  502    0  0.55265242866E+02 -0.33519878037E+02 -0.30746067142E+01  0.64709214948E+02  0.00000000000E+00 0. -1.
          1    1    5    5  503    0 -0.93547927511E+02  0.43450722380E+02  0.97473958259E+02  0.14191670992E+03  0.00000000000E+00 0. -1.
         -2    1    5    5    0  503 -0.34609087772E+03  0.32576538175E+03  0.37850278528E+03  0.60759060070E+03  0.00000000000E+00 0.  1.
         -3    1    6    6    0  502  0.33207669884E+03 -0.18728045414E+03  0.19793808298E+03  0.42956767466E+03  0.00000000000E+00 0.  1.
<mgrwt>
<rscale>  0 0.16611422E+04</rscale>
<asrwt>0</asrwt>
<pdfrwt beam="1">  1        1 0.10864849E+00 0.16611422E+04</pdfrwt>
<pdfrwt beam="2">  1       -1 0.15028070E+00 0.16611422E+04</pdfrwt>
<totfact> 0.89088792E+00</totfact>
</mgrwt>
</event>
<event>
12    1  0.1201209E-007  0.2284699E+04  0.7818608E-02  0.8483979E-01
          2   -1    0    0  501    0  0.00000000000E+00  0.00000000000E+00  0.95082925124E+03  0.95082925124E+03  0.00000000000E+00 0. -1.
         -2   -1    0    0    0  501 -0.00000000000E+00 -0.00000000000E+00 -0.13724464847E+04  0.13724464847E+04  0.00000000000E+00 0.  1.
         23    2    1    2    0    0  0.72632212373E+03 -0.58231113955E+03 -0.43004327634E+03  0.10293072329E+04  0.88916080789E+02 0.  0.
        254    2    1    2    0    0 -0.72632212373E+03  0.58231113955E+03  0.84260428564E+01  0.12939685031E+04  0.89869538673E+03 0.  0.
        -24    2    4    4    0    0 -0.27683157852E+03 -0.15060302264E+03  0.23386355347E+03  0.40170602210E+03  0.85782126676E+02 0.  0.
         24    2    4    4    0    0 -0.44949054522E+03  0.73291416219E+03 -0.22543751061E+03  0.89226248100E+03  0.78136703451E+02 0.  0.
         13    1    3    3    0    0  0.33373710519E+02 -0.35220394616E+02 -0.31255719128E+01  0.48621496794E+02  0.00000000000E+00 0. -1.
        -13    1    3    3    0    0  0.69294841322E+03 -0.54709074494E+03 -0.42691770442E+03  0.98068573607E+03  0.00000000000E+00 0.  1.
          2    1    6    6  502    0 -0.17505656462E+03  0.21739747742E+03 -0.64324810966E+02  0.28643349195E+03  0.00000000000E+00 0. -1.
          3    1    5    5  503    0  0.59158867194E+01 -0.79386140082E+01  0.76672656701E+01  0.12522231067E+02  0.00000000000E+00 0. -1.
         -4    1    5    5    0  503 -0.28274746523E+03 -0.14266440863E+03  0.22619628780E+03  0.38918379103E+03  0.00000000000E+00 0.  1.
         -1    1    6    6    0  502 -0.27443398060E+03  0.51551668477E+03 -0.16111269965E+03  0.60582898905E+03  0.00000000000E+00 0.  1.
<mgrwt>
<rscale>  0 0.22846989E+04</rscale>
<asrwt>0</asrwt>
<pdfrwt beam="1">  1        2 0.14628142E+00 0.22846989E+04</pdfrwt>
<pdfrwt beam="2">  1       -2 0.21114561E+00 0.22846989E+04</pdfrwt>
<totfact> 0.27703277E+00</totfact>
</mgrwt>
</event>
<event>
12    1  0.1201209E-007  0.1680569E+04  0.7818608E-02  0.8772525E-01
          2   -1    0    0  501    0  0.00000000000E+00  0.00000000000E+00  0.65027532208E+03  0.65027532208E+03  0.00000000000E+00 0.  1.
         -2   -1    0    0    0  501 -0.00000000000E+00 -0.00000000000E+00 -0.10858144825E+04  0.10858144825E+04  0.00000000000E+00 0. -1.
         23    2    1    2    0    0  0.40150274967E+03  0.17508917944E+03  0.26103135829E+03  0.51791221669E+03  0.90746985809E+02 0.  0.
        254    2    1    2    0    0 -0.40150274967E+03 -0.17508917944E+03 -0.69657051870E+03  0.12181775879E+04  0.89826803870E+03 0.  0.
        -24    2    4    4    0    0  0.19598888002E+03 -0.15640938489E+03  0.37892915332E+02  0.26776018509E+03  0.85930826337E+02 0.  0.
         24    2    4    4    0    0 -0.59749162968E+03 -0.18679794554E+02 -0.73446343403E+03  0.95041740280E+03  0.80693998184E+02 0.  0.
         11    1    3    3    0    0  0.38585129056E+02 -0.70436850464E+01  0.38114955999E+02  0.54691640624E+02  0.00000000000E+00 0. -1.
        -11    1    3    3    0    0  0.36291762061E+03  0.18213286449E+03  0.22291640229E+03  0.46322057606E+03  0.00000000000E+00 0.  1.
          4    1    6    6  502    0 -0.57832762751E+03 -0.28613659915E+01 -0.70577610623E+03  0.91246421534E+03  0.00000000000E+00 0. -1.
          1    1    5    5  503    0  0.10874270502E+03 -0.12614383896E+03  0.51704677706E+02  0.17438640343E+03  0.00000000000E+00 0. -1.
         -2    1    5    5    0  503  0.87246174997E+02 -0.30265545921E+02 -0.13811762374E+02  0.93373781660E+02  0.00000000000E+00 0.  1.
         -3    1    6    6    0  502 -0.19164002175E+02 -0.15818428563E+02 -0.28687327804E+02  0.37953187456E+02  0.00000000000E+00 0.  1.
<mgrwt>
<rscale>  0 0.16805694E+04</rscale>
<asrwt>0</asrwt>
<pdfrwt beam="1">  1        2 0.10004236E+00 0.16805694E+04</pdfrwt>
<pdfrwt beam="2">  1       -2 0.16704838E+00 0.16805694E+04</pdfrwt>
<totfact> 0.95753605E+00</totfact>
</mgrwt>
</event>
<event>
12    1  0.1201209E-007  0.2012587E+04  0.7818608E-02  0.8600758E-01
          1   -1    0    0  501    0  0.00000000000E+00  0.00000000000E+00  0.45370011231E+03  0.45370011231E+03  0.00000000000E+00 0. -1.
         -1   -1    0    0    0  501 -0.00000000000E+00 -0.00000000000E+00 -0.22319296275E+04  0.22319296275E+04  0.00000000000E+00 0.  1.
         23    2    1    2    0    0  0.12648821101E+03 -0.16243604027E+03 -0.17330944858E+04  0.17477969988E+04  0.93771624322E+02 0.  0.
        254    2    1    2    0    0 -0.12648821101E+03  0.16243604027E+03 -0.45135029383E+02  0.93783274103E+03  0.91384262572E+03 0.  0.
        -24    2    4    4    0    0  0.28211386085E+03  0.34010042490E+03  0.10459787919E+03  0.46105670239E+03  0.79850090707E+02 0.  0.
         24    2    4    4    0    0 -0.40860207186E+03 -0.17766438463E+03 -0.14973290858E+03  0.47677603864E+03  0.79844601650E+02 0.  0.
         11    1    3    3    0    0  0.11998269073E+03 -0.14167921448E+03 -0.16826621913E+04  0.16928735617E+04  0.00000000000E+00 0.  1.
        -11    1    3    3    0    0  0.65055202844E+01 -0.20756825789E+02 -0.50432294443E+02  0.54923437017E+02  0.00000000000E+00 0. -1.
          2    1    6    6  502    0 -0.88832488292E+02 -0.41859782713E+02 -0.69251100007E+02  0.12016308600E+03  0.00000000000E+00 0. -1.
          1    1    5    5  503    0  0.11727733284E+03  0.98778085679E+02  0.90976775263E+01  0.15360289953E+03  0.00000000000E+00 0. -1.
         -2    1    5    5    0  503  0.16483652802E+03  0.24132233922E+03  0.95500201668E+02  0.30745380286E+03  0.00000000000E+00 0.  1.
         -1    1    6    6    0  502 -0.31976958357E+03 -0.13580460192E+03 -0.80481808571E+02  0.35661295264E+03  0.00000000000E+00 0.  1.
<mgrwt>
<rscale>  0 0.20125871E+04</rscale>
<asrwt>0</asrwt>
<pdfrwt beam="1">  1        1 0.69800017E-01 0.20125871E+04</pdfrwt>
<pdfrwt beam="2">  1       -1 0.34337379E+00 0.20125871E+04</pdfrwt>
<totfact> 0.80771607E-01</totfact>
</mgrwt>
</event>
<event>
12    1  0.1201209E-007  0.1528118E+04  0.7818608E-02  0.8865967E-01
          1   -1    0    0  501    0  0.00000000000E+00  0.00000000000E+00  0.10867844733E+04  0.10867844733E+04  0.00000000000E+00 0. -1.
         -1   -1    0    0    0  501 -0.00000000000E+00 -0.00000000000E+00 -0.53716821597E+03  0.53716821597E+03  0.00000000000E+00 0.  1.
         23    2    1    2    0    0  0.10812999897E+03  0.74341625142E+02 -0.32403124307E+03  0.36114248664E+03  0.90602843596E+02 0.  0.
        254    2    1    2    0    0 -0.10812999897E+03 -0.74341625142E+02  0.87364750040E+03  0.12628102026E+04  0.90233634470E+03 0.  0.
        -24    2    4    4    0    0  0.25892736597E+03  0.28194488561E+03  0.42180582457E+03  0.57551041059E+03  0.82193550168E+02 0.  0.
         24    2    4    4    0    0 -0.36705736493E+03 -0.35628651075E+03  0.45184167584E+03  0.68729979203E+03  0.80925380510E+02 0.  0.
         13    1    3    3    0    0  0.75792668752E+02  0.35126312538E+02 -0.28518832188E+03  0.29717127285E+03  0.00000000000E+00 0.  1.
        -13    1    3    3    0    0  0.32337330213E+02  0.39215312603E+02 -0.38842921193E+02  0.63971213797E+02  0.00000000000E+00 0. -1.
          4    1    6    6  502    0 -0.10655682545E+03 -0.56754327380E+02  0.97240980229E+02  0.15502005987E+03  0.00000000000E+00 0. -1.
          3    1    5    5  503    0  0.28779080162E+02  0.71025141524E+02  0.57890702012E+02  0.96042384201E+02  0.00000000000E+00 0. -1.
         -4    1    5    5    0  503  0.23014828581E+03  0.21091974408E+03  0.36391512255E+03  0.47946802639E+03  0.00000000000E+00 0.  1.
         -3    1    6    6    0  502 -0.26050053949E+03 -0.29953218337E+03  0.35460069561E+03  0.53227973216E+03  0.00000000000E+00 0.  1.
<mgrwt>
<rscale>  0 0.15281179E+04</rscale>
<asrwt>0</asrwt>
<pdfrwt beam="1">  1        1 0.16719761E+00 0.15281179E+04</pdfrwt>
<pdfrwt beam="2">  1       -1 0.82641264E-01 0.15281179E+04</pdfrwt>
<totfact> 0.18222067E+01</totfact>
</mgrwt>
</event>
<event>
12    1  0.1201209E-007  0.1788367E+04  0.7818608E-02  0.8712510E-01
         -1   -1    0    0    0  501 -0.00000000000E+00  0.00000000000E+00  0.11615834181E+04  0.11615834181E+04  0.00000000000E+00 0.  1.
          1   -1    0    0  501    0  0.00000000000E+00 -0.00000000000E+00 -0.68834005486E+03  0.68834005486E+03  0.00000000000E+00 0. -1.
         23    2    1    2    0    0 -0.35436651077E+03  0.53217847668E+03  0.35524853349E+03  0.73707667718E+03  0.91054667620E+02 0.  0.
        254    2    1    2    0    0  0.35436651077E+03 -0.53217847668E+03  0.11799482974E+03  0.11128467958E+04  0.90316978248E+03 0.  0.
        -24    2    4    4    0    0  0.35411318305E+03  0.10780420322E+03  0.25110731503E+03  0.45433507105E+03  0.79671704393E+02 0.  0.
         24    2    4    4    0    0  0.25332771897E+00 -0.63998267991E+03 -0.13311248530E+03  0.65851172471E+03  0.79629536476E+02 0.  0.
         13    1    3    3    0    0 -0.19622244707E+03  0.31291975317E+03  0.25463129075E+03  0.44861912006E+03  0.00000000000E+00 0. -1.
        -13    1    3    3    0    0 -0.15814406370E+03  0.21925872352E+03  0.10061724274E+03  0.28845755712E+03  0.00000000000E+00 0.  1.
          4    1    6    6  502    0  0.16355110633E+02 -0.59347159088E+03 -0.13646350758E+03  0.60917838744E+03  0.00000000000E+00 0. -1.
          3    1    5    5  503    0  0.25634747456E+03  0.11417408754E+03  0.18324010437E+03  0.33515173554E+03  0.00000000000E+00 0. -1.
         -4    1    5    5    0  503  0.97765708490E+02 -0.63698843169E+01  0.67867210660E+02  0.11918333552E+03  0.00000000000E+00 0.  1.
         -3    1    6    6    0  502 -0.16101782914E+02 -0.46511089028E+02  0.33510222806E+01  0.49333337267E+02  0.00000000000E+00 0.  1.
<mgrwt>
<rscale>  0 0.17883673E+04</rscale>
<asrwt>0</asrwt>
<pdfrwt beam="1">  1        1 0.10589847E+00 0.17883673E+04</pdfrwt>
<pdfrwt beam="2">  1       -1 0.17870514E+00 0.17883673E+04</pdfrwt>
<totfact> 0.56124565E+00</totfact>
</mgrwt>
</event>
<event>
12    1  0.1201209E-007  0.1613153E+04  0.7818608E-02  0.8812508E-01
         -2   -1    0    0    0  501 -0.00000000000E+00  0.00000000000E+00  0.45161429657E+03  0.45161429657E+03  0.00000000000E+00 0.  1.
          2   -1    0    0  501    0  0.00000000000E+00 -0.00000000000E+00 -0.14405337679E+04  0.14405337679E+04  0.00000000000E+00 0. -1.
         23    2    1    2    0    0 -0.30361817549E+02 -0.51252526796E+03 -0.57512507742E+03  0.77811761005E+03  0.10532886649E+03 0.  0.
        254    2    1    2    0    0  0.30361817549E+02  0.51252526796E+03 -0.41379439389E+03  0.11140304544E+04  0.89790537513E+03 0.  0.
        -24    2    4    4    0    0  0.94380634477E+02 -0.12184043055E+03  0.17229825058E+03  0.24416601826E+03  0.78597472193E+02 0.  0.
         24    2    4    4    0    0 -0.64018816929E+02  0.63436569852E+03 -0.58609264447E+03  0.86986443616E+03  0.81494177801E+02 0.  0.
         13    1    3    3    0    0  0.57532050034E+01 -0.16087456518E+03 -0.25295433400E+03  0.29983265362E+03  0.00000000000E+00 0.  1.
        -13    1    3    3    0    0 -0.36115022552E+02 -0.35165070278E+03 -0.32217074342E+03  0.47828495642E+03  0.00000000000E+00 0. -1.
          4    1    6    6  502    0 -0.29960144836E+02  0.24303519225E+03 -0.17297464088E+03  0.29980650650E+03  0.00000000000E+00 0. -1.
          3    1    5    5  503    0  0.27894502222E+02 -0.35182712909E+02  0.61313060017E+01  0.45315774904E+02  0.00000000000E+00 0. -1.
         -4    1    5    5    0  503  0.66486132255E+02 -0.86657717644E+02  0.16616694458E+03  0.19885024335E+03  0.00000000000E+00 0.  1.
         -3    1    6    6    0  502 -0.34058672092E+02  0.39133050627E+03 -0.41311800359E+03  0.57005792966E+03  0.00000000000E+00 0.  1.
<mgrwt>
<rscale>  0 0.16131530E+04</rscale>
<asrwt>0</asrwt>
<pdfrwt beam="1">  1        2 0.22162058E+00 0.16131530E+04</pdfrwt>
<pdfrwt beam="2">  1       -2 0.69479123E-01 0.16131530E+04</pdfrwt>
<totfact> 0.24831826E+01</totfact>
</mgrwt>
</event>
<event>
12    1  0.1201209E-007  0.1388485E+04  0.7818608E-02  0.8962196E-01
          2   -1    0    0  501    0  0.00000000000E+00  0.00000000000E+00  0.81259301043E+03  0.81259301043E+03  0.00000000000E+00 0. -1.
         -2   -1    0    0    0  501 -0.00000000000E+00 -0.00000000000E+00 -0.59312880699E+03  0.59312880699E+03  0.00000000000E+00 0.  1.
         23    2    1    2    0    0  0.35838786834E+03 -0.16509166046E+03 -0.12752088407E+02  0.40516063264E+03  0.91079097281E+02 0.  0.
        254    2    1    2    0    0 -0.35838786834E+03  0.16509166046E+03  0.23221629185E+03  0.10005611848E+04  0.88966350817E+03 0.  0.
        -24    2    4    4    0    0 -0.45798767935E+03 -0.12802076513E+03  0.41244374796E+03  0.63453259842E+03  0.79873290211E+02 0.  0.
         24    2    4    4    0    0  0.99599811015E+02  0.29311242559E+03 -0.18022745611E+03  0.36602858636E+03  0.75232796739E+02 0.  0.
         11    1    3    3    0    0  0.18927157960E+03 -0.10750067990E+03 -0.48398932904E+02  0.22298561328E+03  0.00000000000E+00 0.  1.
        -11    1    3    3    0    0  0.16911628873E+03 -0.57590980557E+02  0.35646844498E+02  0.18217501936E+03  0.00000000000E+00 0. -1.
          4    1    6    6  502    0  0.78201167117E+02  0.12310969462E+03 -0.99964082887E+02  0.17681695992E+03  0.00000000000E+00 0. -1.
          3    1    5    5  503    0 -0.34664666989E+03 -0.13062892128E+03  0.30615641563E+03  0.48058254198E+03  0.00000000000E+00 0. -1.
         -4    1    5    5    0  503 -0.11134100947E+03  0.26081561528E+01  0.10628733232E+03  0.15395005645E+03  0.00000000000E+00 0.  1.
         -3    1    6    6    0  502  0.21398643899E+02  0.17000273097E+03 -0.80263373226E+02  0.18921162644E+03  0.00000000000E+00 0.  1.
<mgrwt>
<rscale>  0 0.13884845E+04</rscale>
<asrwt>0</asrwt>
<pdfrwt beam="1">  1        2 0.12501431E+00 0.13884845E+04</pdfrwt>
<pdfrwt beam="2">  1       -2 0.91250586E-01 0.13884845E+04</pdfrwt>
<totfact> 0.33647162E+01</totfact>
</mgrwt>
</event>
<event>
12    1  0.1201209E-007  0.1790105E+04  0.7818608E-02  0.8711579E-01
          2   -1    0    0  501    0  0.00000000000E+00  0.00000000000E+00  0.17987161114E+04  0.17987161114E+04  0.00000000000E+00 0.  1.
         -2   -1    0    0    0  501 -0.00000000000E+00 -0.00000000000E+00 -0.44538389369E+03  0.44538389369E+03  0.00000000000E+00 0. -1.
         23    2    1    2    0    0  0.24728501893E+03  0.44430429830E+03 -0.30642369036E+02  0.51797818961E+03  0.93841675506E+02 0.  0.
        254    2    1    2    0    0 -0.24728501893E+03 -0.44430429830E+03  0.13839745868E+04  0.17261218155E+04  0.89752697736E+03 0.  0.
        -24    2    4    4    0    0 -0.44329560791E+03 -0.37894544588E+03  0.38639745964E+03  0.70407245942E+03  0.79400153366E+02 0.  0.
         24    2    4    4    0    0  0.19601058899E+03 -0.65358852421E+02  0.99757712714E+03  0.10220493561E+04  0.82053830647E+02 0.  0.
         11    1    3    3    0    0  0.15513624025E+03  0.36024849614E+03 -0.18635964654E+02  0.39267484155E+03  0.00000000000E+00 0. -1.
        -11    1    3    3    0    0  0.92148778681E+02  0.84055802154E+02 -0.12006404382E+02  0.12530334806E+03  0.00000000000E+00 0.  1.
          4    1    6    6  502    0  0.11799076684E+03 -0.29465427972E+02  0.39253140958E+03  0.41093909526E+03  0.00000000000E+00 0. -1.
          3    1    5    5  503    0 -0.17308870932E+03 -0.14853870928E+03  0.10551726616E+03  0.25131124708E+03  0.00000000000E+00 0. -1.
         -4    1    5    5    0  503 -0.27020689859E+03 -0.23040673659E+03  0.28088019348E+03  0.45276121235E+03  0.00000000000E+00 0.  1.
         -3    1    6    6    0  502  0.78019822147E+02 -0.35893424449E+02  0.60504571756E+03  0.61111026084E+03  0.00000000000E+00 0.  1.
<mgrwt>
<rscale>  0 0.17901052E+04</rscale>
<asrwt>0</asrwt>
<pdfrwt beam="1">  1        2 0.27672555E+00 0.17901052E+04</pdfrwt>
<pdfrwt beam="2">  1       -2 0.68520600E-01 0.17901052E+04</pdfrwt>
<totfact> 0.15902391E+01</totfact>
</mgrwt>
</event>
<event>
12    1  0.1201209E-007  0.1644260E+04  0.7818608E-02  0.8793810E-01
          2   -1    0    0  501    0  0.00000000000E+00  0.00000000000E+00  0.32558105325E+04  0.32558105325E+04  0.00000000000E+00 0. -1.
         -2   -1    0    0    0  501 -0.00000000000E+00 -0.00000000000E+00 -0.20759731780E+03  0.20759731780E+03  0.00000000000E+00 0.  1.
         23    2    1    2    0    0  0.21875060339E+03  0.52385009576E+03  0.96038293619E+03  0.11194246231E+04  0.92224472462E+02 0.  0.
        254    2    1    2    0    0 -0.21875060339E+03 -0.52385009576E+03  0.20878302785E+04  0.23439832272E+04  0.90163814712E+03 0.  0.
        -24    2    4    4    0    0  0.10702657180E+03 -0.13033720726E+03  0.16665254949E+04  0.16769492588E+04  0.80056958516E+02 0.  0.
         24    2    4    4    0    0 -0.32577717519E+03 -0.39351288850E+03  0.42130478363E+03  0.66703396849E+03  0.80333262840E+02 0.  0.
         11    1    3    3    0    0  0.27956024737E+02  0.11527911979E+03  0.14191929423E+03  0.18496459351E+03  0.00000000000E+00 0.  1.
        -11    1    3    3    0    0  0.19079457865E+03  0.40857097598E+03  0.81846364196E+03  0.93446002957E+03  0.00000000000E+00 0. -1.
          2    1    6    6  502    0 -0.82536967343E+02 -0.12785207529E+03  0.16806428211E+03  0.22672473852E+03  0.00000000000E+00 0. -1.
          1    1    5    5  503    0  0.56966124919E+01 -0.19367964656E+02  0.54832252347E+03  0.54869404880E+03  0.00000000000E+00 0. -1.
         -2    1    5    5    0  503  0.10132995931E+03 -0.11096924260E+03  0.11182029714E+04  0.11282552099E+04  0.00000000000E+00 0.  1.
         -1    1    6    6    0  502 -0.24324020784E+03 -0.26566081321E+03  0.25324050151E+03  0.44030922997E+03  0.00000000000E+00 0.  1.
<mgrwt>
<rscale>  0 0.16442598E+04</rscale>
<asrwt>0</asrwt>
<pdfrwt beam="1">  1        2 0.50089389E+00 0.16442598E+04</pdfrwt>
<pdfrwt beam="2">  1       -2 0.31938051E-01 0.16442598E+04</pdfrwt>
<totfact> 0.10467730E+01</totfact>
</mgrwt>
</event>
<event>
12    1  0.1201209E-007  0.2018975E+04  0.7818608E-02  0.8597800E-01
          2   -1    0    0  501    0  0.00000000000E+00  0.00000000000E+00  0.68758242802E+03  0.68758242802E+03  0.00000000000E+00 0.  1.
         -2   -1    0    0    0  501 -0.00000000000E+00 -0.00000000000E+00 -0.14820987927E+04  0.14820987927E+04  0.00000000000E+00 0. -1.
         23    2    1    2    0    0  0.12195968539E+03 -0.71406895507E+03  0.54617764068E+02  0.73172282828E+03  0.87558893409E+02 0.  0.
        254    2    1    2    0    0 -0.12195968539E+03  0.71406895507E+03 -0.84913412873E+03  0.14379583924E+04  0.90660185987E+03 0.  0.
        -24    2    4    4    0    0 -0.88037560244E+02  0.71403485159E+03 -0.15790923335E+03  0.74107851074E+03  0.81643443116E+02 0.  0.
         24    2    4    4    0    0 -0.33922125151E+02  0.34103481983E-01 -0.69122489538E+03  0.69687988169E+03  0.81847429831E+02 0.  0.
         13    1    3    3    0    0  0.12772523501E+03 -0.51885883921E+03  0.36694990623E+02  0.53560690159E+03  0.00000000000E+00 0. -1.
        -13    1    3    3    0    0 -0.57655496130E+01 -0.19521011585E+03  0.17922773445E+02  0.19611592669E+03  0.00000000000E+00 0.  1.
          2    1    6    6  502    0  0.77078231610E+01  0.33468357869E+02 -0.22471781927E+03  0.22732716471E+03  0.00000000000E+00 0. -1.
          3    1    5    5  503    0 -0.14413845477E+02  0.17193248724E+03 -0.32801725811E+01  0.17256679473E+03  0.00000000000E+00 0. -1.
         -4    1    5    5    0  503 -0.73623714767E+02  0.54210236434E+03 -0.15462906076E+03  0.56851171600E+03  0.00000000000E+00 0.  1.
         -1    1    6    6    0  502 -0.41629948312E+02 -0.33434254387E+02 -0.46650707611E+03  0.46955271698E+03  0.00000000000E+00 0.  1.
<mgrwt>
<rscale>  0 0.20189751E+04</rscale>
<asrwt>0</asrwt>
<pdfrwt beam="1">  1        2 0.10578191E+00 0.20189751E+04</pdfrwt>
<pdfrwt beam="2">  1       -2 0.22801520E+00 0.20189751E+04</pdfrwt>
<totfact> 0.34190460E+00</totfact>
</mgrwt>
</event>
<event>
12    1  0.1201209E-007  0.3036965E+04  0.7818608E-02  0.8233254E-01
         -2   -1    0    0    0  501 -0.00000000000E+00  0.00000000000E+00  0.57932319291E+03  0.57932319291E+03  0.00000000000E+00 0.  1.
          2   -1    0    0  501    0  0.00000000000E+00 -0.00000000000E+00 -0.39801417591E+04  0.39801417591E+04  0.00000000000E+00 0. -1.
         23    2    1    2    0    0 -0.53574497862E+03 -0.93714291960E+03 -0.25471869969E+03  0.11131114258E+04  0.94211975655E+02 0.  0.
        254    2    1    2    0    0  0.53574497862E+03  0.93714291960E+03 -0.31460998665E+04  0.34463535263E+04  0.90230190281E+03 0.  0.
        -24    2    4    4    0    0  0.69144397266E+03  0.54885344421E+03 -0.14637316815E+04  0.17108991977E+04  0.73012046618E+02 0.  0.
         24    2    4    4    0    0 -0.15569899403E+03  0.38828947539E+03 -0.16823681851E+04  0.17354543285E+04  0.80175574621E+02 0.  0.
         11    1    3    3    0    0 -0.24059945036E+03 -0.39454794375E+03 -0.63169612068E+02  0.46641888397E+03  0.00000000000E+00 0. -1.
        -11    1    3    3    0    0 -0.29514552827E+03 -0.54259497585E+03 -0.19154908762E+03  0.64669254182E+03  0.00000000000E+00 0.  1.
          2    1    6    6  502    0 -0.10924207803E+03  0.33992521658E+03 -0.14704890366E+04  0.15132154478E+04  0.00000000000E+00 0. -1.
          1    1    5    5  503    0  0.69318816046E+03  0.54640395734E+03 -0.14565929923E+04  0.17031530335E+04  0.00000000000E+00 0. -1.
         -2    1    5    5    0  503 -0.17441877983E+01  0.24494868664E+01 -0.71386891632E+01  0.77461642090E+01  0.00000000000E+00 0.  1.
         -1    1    6    6    0  502 -0.46456916006E+02  0.48364258819E+02 -0.21187914844E+03  0.22223888076E+03  0.00000000000E+00 0.  1.
<mgrwt>
<rscale>  0 0.30369646E+04</rscale>
<asrwt>0</asrwt>
<pdfrwt beam="1">  1        2 0.61232949E+00 0.30369646E+04</pdfrwt>
<pdfrwt beam="2">  1       -2 0.89126647E-01 0.30369646E+04</pdfrwt>
<totfact> 0.32718792E-01</totfact>
</mgrwt>
</event>
<event>
12    1  0.1201209E-007  0.2113488E+04  0.7818608E-02  0.8555325E-01
         -2   -1    0    0    0  501 -0.00000000000E+00  0.00000000000E+00  0.37909744429E+03  0.37909744429E+03  0.00000000000E+00 0. -1.
          2   -1    0    0  501    0  0.00000000000E+00 -0.00000000000E+00 -0.29457000321E+04  0.29457000321E+04  0.00000000000E+00 0.  1.
         23    2    1    2    0    0 -0.11417196531E+02 -0.31907034115E+03 -0.23179959806E+04  0.23416267085E+04  0.90410404805E+02 0.  0.
        254    2    1    2    0    0  0.11417196531E+02  0.31907034115E+03 -0.24860660723E+03  0.98317076783E+03  0.89603754307E+03 0.  0.
        -24    2    4    4    0    0 -0.65562728052E+02  0.43235461378E+02 -0.54889663339E+03  0.56079073760E+03  0.83850824666E+02 0.  0.
         24    2    4    4    0    0  0.76979924582E+02  0.27583487977E+03  0.30029002616E+03  0.42238003024E+03  0.78866979412E+02 0.  0.
         11    1    3    3    0    0  0.81745921432E+01 -0.66707812807E+01 -0.22077110093E+02  0.24468797879E+02  0.00000000000E+00 0. -1.
        -11    1    3    3    0    0 -0.19591788674E+02 -0.31239955987E+03 -0.22959188705E+04  0.23171579107E+04  0.00000000000E+00 0.  1.
          2    1    6    6  502    0  0.87855238123E+02  0.26356427554E+03  0.26725389603E+03  0.38549878748E+03  0.00000000000E+00 0. -1.
          1    1    5    5  503    0 -0.24297645408E+02  0.18024894215E+02 -0.44678063755E+03  0.44780376335E+03  0.00000000000E+00 0. -1.
         -2    1    5    5    0  503 -0.41265082643E+02  0.25210567163E+02 -0.10211599584E+03  0.11298697424E+03  0.00000000000E+00 0.  1.
         -1    1    6    6    0  502 -0.10875313540E+02  0.12270604229E+02  0.33036130136E+02  0.36881242755E+02  0.00000000000E+00 0.  1.
<mgrwt>
<rscale>  0 0.21134875E+04</rscale>
<asrwt>0</asrwt>
<pdfrwt beam="1">  1        2 0.45318464E+00 0.21134875E+04</pdfrwt>
<pdfrwt beam="2">  1       -2 0.58322681E-01 0.21134875E+04</pdfrwt>
<totfact> 0.47720523E+00</totfact>
</mgrwt>
</event>
<event>
12    1  0.1201209E-007  0.1604591E+04  0.7818608E-02  0.8817733E-01
         -2   -1    0    0    0  501 -0.00000000000E+00  0.00000000000E+00  0.17927350051E+03  0.17927350051E+03  0.00000000000E+00 0.  1.
          2   -1    0    0  501    0  0.00000000000E+00 -0.00000000000E+00 -0.35904792835E+04  0.35904792835E+04  0.00000000000E+00 0. -1.
         23    2    1    2    0    0 -0.34055481786E+03  0.13251941936E+03 -0.22673206814E+03  0.43998513403E+03  0.92954327324E+02 0.  0.
        254    2    1    2    0    0  0.34055481786E+03 -0.13251941936E+03 -0.31844737148E+04  0.33297676500E+04  0.90163228749E+03 0.  0.
        -24    2    4    4    0    0 -0.21340442038E+03  0.12445734465E+03 -0.17423754941E+04  0.17616649747E+04  0.80994094920E+02 0.  0.
         24    2    4    4    0    0  0.55395923824E+03 -0.25697676401E+03 -0.14420982207E+04  0.15681026752E+04  0.79942648388E+02 0.  0.
         11    1    3    3    0    0 -0.17315081219E+02 -0.53398295571E+01  0.53034457143E+01  0.18879945810E+02  0.00000000000E+00 0. -1.
        -11    1    3    3    0    0 -0.32323973664E+03  0.13785924892E+03 -0.23203551385E+03  0.42110518822E+03  0.00000000000E+00 0.  1.
          4    1    6    6  502    0  0.34689535928E+03 -0.19310683327E+03 -0.86871109534E+03  0.95513643346E+03  0.00000000000E+00 0. -1.
          3    1    5    5  503    0 -0.82049888919E+01  0.35312684555E+02 -0.24590334904E+03  0.24856139000E+03  0.00000000000E+00 0. -1.
         -4    1    5    5    0  503 -0.20519943149E+03  0.89144660097E+02 -0.14964721451E+04  0.15131035847E+04  0.00000000000E+00 0.  1.
         -3    1    6    6    0  502  0.20706387896E+03 -0.63869930745E+02 -0.57338712536E+03  0.61296624177E+03  0.00000000000E+00 0.  1.
<mgrwt>
<rscale>  0 0.16045907E+04</rscale>
<asrwt>0</asrwt>
<pdfrwt beam="1">  1        2 0.55238141E+00 0.16045907E+04</pdfrwt>
<pdfrwt beam="2">  1       -2 0.27580539E-01 0.16045907E+04</pdfrwt>
<totfact> 0.81649225E+00</totfact>
</mgrwt>
</event>
<event>
12    1  0.1201209E-007  0.1282776E+04  0.7818608E-02  0.9043337E-01
         -1   -1    0    0    0  501 -0.00000000000E+00  0.00000000000E+00  0.12506334413E+04  0.12506334413E+04  0.00000000000E+00 0.  1.
          1   -1    0    0  501    0  0.00000000000E+00 -0.00000000000E+00 -0.32893598749E+03  0.32893598749E+03  0.00000000000E+00 0. -1.
         23    2    1    2    0    0  0.22301218831E+03 -0.37222631815E+02 -0.44285068761E+02  0.24771502391E+03  0.91003325778E+02 0.  0.
        254    2    1    2    0    0 -0.22301218831E+03  0.37222631815E+02  0.96598252261E+03  0.13318544049E+04  0.88859099786E+03 0.  0.
        -24    2    4    4    0    0 -0.50126970269E+03  0.21776395123E+03  0.73840478095E+03  0.92213527267E+03  0.79996170434E+02 0.  0.
         24    2    4    4    0    0  0.27825751438E+03 -0.18054131941E+03  0.22757774166E+03  0.40971913225E+03  0.77818548629E+02 0.  0.
         11    1    3    3    0    0  0.21047340575E+03 -0.21468756248E+02 -0.14894656296E+02  0.21208916240E+03  0.00000000000E+00 0. -1.
        -11    1    3    3    0    0  0.12538782562E+02 -0.15753875567E+02 -0.29390412465E+02  0.35625861510E+02  0.00000000000E+00 0.  1.
          2    1    6    6  502    0  0.15074106543E+03 -0.11586851657E+03  0.17178796173E+03  0.25624106957E+03  0.00000000000E+00 0. -1.
          1    1    5    5  503    0 -0.84006457853E+02  0.50464481035E+02  0.18303827885E+03  0.20762167597E+03  0.00000000000E+00 0. -1.
         -2    1    5    5    0  503 -0.41726324484E+03  0.16729947019E+03  0.55536650210E+03  0.71451359670E+03  0.00000000000E+00 0.  1.
         -1    1    6    6    0  502  0.12751644895E+03 -0.64672802836E+02  0.55789779932E+02  0.15347806268E+03  0.00000000000E+00 0.  1.
<mgrwt>
<rscale>  0 0.12827757E+04</rscale>
<asrwt>0</asrwt>
<pdfrwt beam="1">  1        1 0.50605537E-01 0.12827757E+04</pdfrwt>
<pdfrwt beam="2">  1       -1 0.19240514E+00 0.12827757E+04</pdfrwt>
<totfact> 0.12994588E+01</totfact>
</mgrwt>
</event>
<event>
12    1  0.1201209E-007  0.1416692E+04  0.7818608E-02  0.8941824E-01
          2   -1    0    0  501    0  0.00000000000E+00  0.00000000000E+00  0.44971911800E+03  0.44971911800E+03  0.00000000000E+00 0. -1.
         -2   -1    0    0    0  501 -0.00000000000E+00 -0.00000000000E+00 -0.11157048359E+04  0.11157048359E+04  0.00000000000E+00 0.  1.
         23    2    1    2    0    0  0.27175594961E+03 -0.29349707968E+03 -0.86393908097E+02  0.41892969122E+03  0.89701432007E+02 0.  0.
        254    2    1    2    0    0 -0.27175594961E+03  0.29349707968E+03 -0.57959180983E+03  0.11464942627E+04  0.90472680763E+03 0.  0.
        -24    2    4    4    0    0 -0.39053684248E+03 -0.16196576254E+03 -0.49887122996E+02  0.43335005358E+03  0.80942018292E+02 0.  0.
         24    2    4    4    0    0  0.11878089287E+03  0.45546284222E+03 -0.52970468684E+03  0.71314420912E+03  0.80201662033E+02 0.  0.
         13    1    3    3    0    0  0.10360493094E+03 -0.13595211210E+03  0.50998011534E+01  0.17100574981E+03  0.00000000000E+00 0.  1.
        -13    1    3    3    0    0  0.16815101867E+03 -0.15754496758E+03 -0.91493709251E+02  0.24792394141E+03  0.00000000000E+00 0. -1.
          2    1    6    6  502    0  0.74327621861E+02  0.39632505802E+03 -0.43880325137E+03  0.59594164177E+03  0.00000000000E+00 0. -1.
          3    1    5    5  503    0 -0.28018840302E+03 -0.11293757470E+03  0.15590180705E+01  0.30209744703E+03  0.00000000000E+00 0. -1.
         -4    1    5    5    0  503 -0.11034843946E+03 -0.49028187845E+02 -0.51446141067E+02  0.13125260654E+03  0.00000000000E+00 0.  1.
         -1    1    6    6    0  502  0.44453271004E+02  0.59137784199E+02 -0.90901435465E+02  0.11720256735E+03  0.00000000000E+00 0.  1.
<mgrwt>
<rscale>  0 0.14166916E+04</rscale>
<asrwt>0</asrwt>
<pdfrwt beam="1">  1        2 0.69187556E-01 0.14166916E+04</pdfrwt>
<pdfrwt beam="2">  1       -2 0.17164690E+00 0.14166916E+04</pdfrwt>
<totfact> 0.14021144E+01</totfact>
</mgrwt>
</event>
<event>
12    1  0.1201209E-007  0.1692321E+04  0.7818608E-02  0.8765756E-01
          2   -1    0    0  501    0  0.00000000000E+00  0.00000000000E+00  0.15020765911E+04  0.15020765911E+04  0.00000000000E+00 0. -1.
         -2   -1    0    0    0  501 -0.00000000000E+00 -0.00000000000E+00 -0.47666497799E+03  0.47666497799E+03  0.00000000000E+00 0.  1.
         23    2    1    2    0    0  0.10702203153E+03 -0.58926621982E+03  0.32220246881E+03  0.68616640296E+03  0.91222303162E+02 0.  0.
        254    2    1    2    0    0 -0.10702203153E+03  0.58926621982E+03  0.70320914425E+03  0.12925751661E+04  0.90418972919E+03 0.  0.
        -24    2    4    4    0    0 -0.47603231172E+03  0.39026654469E+03  0.24752426173E+03  0.66836189148E+03  0.80775120714E+02 0.  0.
         24    2    4    4    0    0  0.36901028019E+03  0.19899967512E+03  0.45568488253E+03  0.62421327461E+03  0.78892600758E+02 0.  0.
         13    1    3    3    0    0  0.64881763383E+02 -0.33113875422E+03  0.13007402522E+03  0.36163762222E+03  0.00000000000E+00 0. -1.
        -13    1    3    3    0    0  0.42140268149E+02 -0.25812746560E+03  0.19212844359E+03  0.32452878074E+03  0.00000000000E+00 0.  1.
          4    1    6    6  502    0  0.89686294211E+02  0.88780463280E+02  0.14184068146E+03  0.18985357765E+03  0.00000000000E+00 0. -1.
          3    1    5    5  503    0 -0.82627574879E+02  0.99274489713E+02  0.75876571869E+02  0.14979984845E+03  0.00000000000E+00 0. -1.
         -4    1    5    5    0  503 -0.39340473684E+03  0.29099205498E+03  0.17164768986E+03  0.51856204302E+03  0.00000000000E+00 0.  1.
         -3    1    6    6    0  502  0.27932398598E+03  0.11021921184E+03  0.31384420107E+03  0.43435969696E+03  0.00000000000E+00 0.  1.
<mgrwt>
<rscale>  0 0.16923207E+04</rscale>
<asrwt>0</asrwt>
<pdfrwt beam="1">  1        2 0.23108870E+00 0.16923207E+04</pdfrwt>
<pdfrwt beam="2">  1       -2 0.73333074E-01 0.16923207E+04</pdfrwt>
<totfact> 0.20228087E+01</totfact>
</mgrwt>
</event>
<event>
12    1  0.1201209E-007  0.1888539E+04  0.7818608E-02  0.8660583E-01
          2   -1    0    0  501    0  0.00000000000E+00  0.00000000000E+00  0.18598040572E+04  0.18598040572E+04  0.00000000000E+00 0. -1.
         -2   -1    0    0    0  501 -0.00000000000E+00 -0.00000000000E+00 -0.47942923903E+03  0.47942923903E+03  0.00000000000E+00 0.  1.
         23    2    1    2    0    0 -0.10853272917E+03 -0.70662643334E+03  0.61422666352E+03  0.94688622622E+03  0.90657937490E+02 0.  0.
        254    2    1    2    0    0  0.10853272917E+03  0.70662643334E+03  0.76614815469E+03  0.13923470701E+04  0.91681355738E+03 0.  0.
        -24    2    4    4    0    0  0.45917754692E+03  0.62143776564E+03  0.62584460629E+03  0.99739418454E+03  0.78004948416E+02 0.  0.
         24    2    4    4    0    0 -0.35064481775E+03  0.85188667699E+02  0.14030354841E+03  0.39495288553E+03  0.78062787346E+02 0.  0.
         11    1    3    3    0    0  0.94571950878E+01 -0.10788071644E+02  0.75917753117E+01  0.16231330232E+02  0.00000000000E+00 0. -1.
        -11    1    3    3    0    0 -0.11798992426E+03 -0.69583836169E+03  0.60663488821E+03  0.93065489598E+03  0.00000000000E+00 0.  1.
          4    1    6    6  502    0 -0.79724014856E+01  0.13493244534E+02  0.18570510115E+02  0.24300013980E+02  0.00000000000E+00 0. -1.
          1    1    5    5  503    0  0.28609762480E+03  0.33239931274E+03  0.38059975697E+03  0.58068694581E+03  0.00000000000E+00 0. -1.
         -2    1    5    5    0  503  0.17307992212E+03  0.28903845289E+03  0.24524484932E+03  0.41670723873E+03  0.00000000000E+00 0.  1.
         -3    1    6    6    0  502 -0.34267241627E+03  0.71695423164E+02  0.12173303829E+03  0.37065287155E+03  0.00000000000E+00 0.  1.
<mgrwt>
<rscale>  0 0.18885385E+04</rscale>
<asrwt>0</asrwt>
<pdfrwt beam="1">  1        2 0.28612370E+00 0.18885385E+04</pdfrwt>
<pdfrwt beam="2">  1       -2 0.73758346E-01 0.18885385E+04</pdfrwt>
<totfact> 0.12415393E+01</totfact>
</mgrwt>
</event>
<event>
12    1  0.1201209E-007  0.1039070E+04  0.7818608E-02  0.9266702E-01
          1   -1    0    0  501    0  0.00000000000E+00  0.00000000000E+00  0.11770272283E+03  0.11770272283E+03  0.00000000000E+00 0. -1.
         -1   -1    0    0    0  501 -0.00000000000E+00 -0.00000000000E+00 -0.22932060402E+04  0.22932060402E+04  0.00000000000E+00 0.  1.
         23    2    1    2    0    0  0.68963899408E+02 -0.72300127072E+02 -0.23234319953E+03  0.26846663949E+03  0.90042469738E+02 0.  0.
        254    2    1    2    0    0 -0.68963899408E+02  0.72300127072E+02 -0.19431601179E+04  0.21424421236E+04  0.89677404142E+03 0.  0.
        -24    2    4    4    0    0  0.23693408476E+03 -0.28360760159E+03 -0.52894591786E+03  0.65018935995E+03  0.79946154283E+02 0.  0.
         24    2    4    4    0    0 -0.30589798416E+03  0.35590772866E+03 -0.14142142000E+04  0.14922527636E+04  0.81071690205E+02 0.  0.
         11    1    3    3    0    0 -0.66744406929E+01 -0.54237715263E+02 -0.73289495988E+02  0.91420064197E+02  0.00000000000E+00 0.  1.
        -11    1    3    3    0    0  0.75638340100E+02 -0.18062411808E+02 -0.15905370354E+03  0.17704657530E+03  0.00000000000E+00 0. -1.
          2    1    6    6  502    0 -0.53538115330E+02  0.11178262641E+03 -0.41706949745E+03  0.43509614002E+03  0.00000000000E+00 0. -1.
          3    1    5    5  503    0  0.67575342937E+02 -0.13919746851E+03 -0.19630306383E+03  0.24995450602E+03  0.00000000000E+00 0. -1.
         -4    1    5    5    0  503  0.16935874182E+03 -0.14441013307E+03 -0.33264285403E+03  0.40023485393E+03  0.00000000000E+00 0.  1.
         -1    1    6    6    0  502 -0.25235986883E+03  0.24412510224E+03 -0.99714470257E+03  0.10571566236E+04  0.00000000000E+00 0.  1.
<mgrwt>
<rscale>  0 0.10390700E+04</rscale>
<asrwt>0</asrwt>
<pdfrwt beam="1">  1        1 0.18108111E-01 0.10390700E+04</pdfrwt>
<pdfrwt beam="2">  1       -1 0.35280094E+00 0.10390700E+04</pdfrwt>
<totfact> 0.45424491E+00</totfact>
</mgrwt>
</event>
<event>
12    1  0.1201209E-007  0.1637482E+04  0.7818608E-02  0.8797847E-01
         -1   -1    0    0    0  501 -0.00000000000E+00  0.00000000000E+00  0.66487344851E+03  0.66487344851E+03  0.00000000000E+00 0.  1.
          1   -1    0    0  501    0  0.00000000000E+00 -0.00000000000E+00 -0.10082172619E+04  0.10082172619E+04  0.00000000000E+00 0. -1.
         23    2    1    2    0    0  0.29890232830E+03  0.85761003343E+02 -0.60353611029E+03  0.68517595952E+03  0.92264335005E+02 0.  0.
        254    2    1    2    0    0 -0.29890232830E+03 -0.85761003343E+02  0.26019229690E+03  0.98791475090E+03  0.90087622464E+03 0.  0.
        -24    2    4    4    0    0 -0.55222888848E+03  0.16000543437E+03  0.23002234330E+03  0.62478252951E+03  0.82972564495E+02 0.  0.
         24    2    4    4    0    0  0.25332656019E+03 -0.24576643771E+03  0.30169953600E+02  0.36313222139E+03  0.79870495878E+02 0.  0.
         13    1    3    3    0    0  0.28173395824E+03  0.99370084424E+02 -0.52945757633E+03  0.60792578662E+03  0.00000000000E+00 0. -1.
        -13    1    3    3    0    0  0.17168370060E+02 -0.13609081081E+02 -0.74078533968E+02  0.77250172901E+02  0.00000000000E+00 0.  1.
          4    1    6    6  502    0  0.76534921373E+02 -0.12021908252E+03 -0.89578719004E+01  0.14279518711E+03  0.00000000000E+00 0. -1.
          1    1    5    5  503    0 -0.91411147146E+01 -0.51120610405E+01  0.13884297657E+02  0.17391574619E+02  0.00000000000E+00 0. -1.
         -2    1    5    5    0  503 -0.54308777377E+03  0.16511749541E+03  0.21613804565E+03  0.60739095489E+03  0.00000000000E+00 0.  1.
         -3    1    6    6    0  502  0.17679163881E+03 -0.12554735519E+03  0.39127825501E+02  0.22033703429E+03  0.00000000000E+00 0.  1.
<mgrwt>
<rscale>  0 0.16374821E+04</rscale>
<asrwt>0</asrwt>
<pdfrwt beam="1">  1        1 0.15511035E+00 0.16374821E+04</pdfrwt>
<pdfrwt beam="2">  1       -1 0.10228822E+00 0.16374821E+04</pdfrwt>
<totfact> 0.12905438E+01</totfact>
</mgrwt>
</event>
<event>
12    1  0.1201209E-007  0.2193459E+04  0.7818608E-02  0.8521156E-01
          1   -1    0    0  501    0  0.00000000000E+00  0.00000000000E+00  0.41294374152E+04  0.41294374152E+04  0.00000000000E+00 0. -1.
         -1   -1    0    0    0  501 -0.00000000000E+00 -0.00000000000E+00 -0.29127822225E+03  0.29127822225E+03  0.00000000000E+00 0.  1.
         23    2    1    2    0    0 -0.62354118140E+03 -0.55185929767E+03  0.86441381775E+03  0.12036471408E+04  0.90569872673E+02 0.  0.
        254    2    1    2    0    0  0.62354118140E+03  0.55185929767E+03  0.29737453752E+04  0.32170684967E+04  0.90167392468E+03 0.  0.
        -24    2    4    4    0    0  0.18332336757E+02 -0.18176009414E+02  0.16478862027E+04  0.16500418563E+04  0.80266733128E+02 0.  0.
         24    2    4    4    0    0  0.60520884465E+03  0.57003530708E+03  0.13258591725E+04  0.15670266405E+04  0.80324028385E+02 0.  0.
         13    1    3    3    0    0 -0.38810650177E+03 -0.34182295662E+03  0.47252406095E+03  0.70053449492E+03  0.00000000000E+00 0. -1.
        -13    1    3    3    0    0 -0.23543467964E+03 -0.21003634105E+03  0.39188975679E+03  0.50311264585E+03  0.00000000000E+00 0.  1.
          2    1    6    6  502    0  0.50622074779E+03  0.49959044671E+03  0.11728005137E+04  0.13716089475E+04  0.00000000000E+00 0. -1.
          1    1    5    5  503    0 -0.19653527572E+02 -0.79044116615E+01  0.12573055277E+04  0.12574839685E+04  0.00000000000E+00 0. -1.
         -2    1    5    5    0  503  0.37985864329E+02 -0.10271597752E+02  0.39058067495E+03  0.39255788778E+03  0.00000000000E+00 0.  1.
         -1    1    6    6    0  502  0.98988096855E+02  0.70444860369E+02  0.15305865879E+03  0.19541769291E+03  0.00000000000E+00 0.  1.
<mgrwt>
<rscale>  0 0.21934586E+04</rscale>
<asrwt>0</asrwt>
<pdfrwt beam="1">  1        1 0.63529802E+00 0.21934586E+04</pdfrwt>
<pdfrwt beam="2">  1       -1 0.44812037E-01 0.21934586E+04</pdfrwt>
<totfact> 0.33296433E-01</totfact>
</mgrwt>
</event>
<event>
12    1  0.1392275E-007  0.1678941E+04  0.7818608E-02  0.8773467E-01
         -1   -1    0    0    0  501 -0.00000000000E+00  0.00000000000E+00  0.43923875496E+03  0.43923875496E+03  0.00000000000E+00 0.  1.
          1   -1    0    0  501    0  0.00000000000E+00 -0.00000000000E+00 -0.16043908344E+04  0.16043908344E+04  0.00000000000E+00 0. -1.
         23    2    1    2    0    0  0.23368535068E+03 -0.54052153723E+03 -0.31330839846E+03  0.67317483792E+03  0.90718435442E+02 0.  0.
        254    2    1    2    0    0 -0.23368535068E+03  0.54052153723E+03 -0.85184368101E+03  0.13704547515E+04  0.89762809315E+03 0.  0.
        -24    2    4    4    0    0  0.19051877781E+03 -0.14143254686E+03 -0.10625635025E+03  0.27166918935E+03  0.78823641540E+02 0.  0.
         24    2    4    4    0    0 -0.42420412849E+03  0.68195408409E+03 -0.74558733076E+03  0.10987855621E+04  0.80116966294E+02 0.  0.
         13    1    3    3    0    0  0.16826877722E+02 -0.98151505049E+02 -0.26267622940E+02  0.10298956147E+03  0.00000000000E+00 0. -1.
        -13    1    3    3    0    0  0.21685847296E+03 -0.44237003218E+03 -0.28704077552E+03  0.57018527645E+03  0.00000000000E+00 0.  1.
          4    1    6    6  502    0 -0.38309651020E+02  0.36408132143E+02 -0.30593234341E+02  0.61066581981E+02  0.00000000000E+00 0. -1.
          3    1    5    5  503    0  0.61060696927E+01  0.93676691518E+01 -0.90276853736E+01  0.14371374869E+02  0.00000000000E+00 0. -1.
         -4    1    5    5    0  503  0.18441270812E+03 -0.15080021601E+03 -0.97228664875E+02  0.25729781448E+03  0.00000000000E+00 0.  1.
         -3    1    6    6    0  502 -0.38589447747E+03  0.64554595195E+03 -0.71499409642E+03  0.10377189801E+04  0.00000000000E+00 0.  1.
<mgrwt>
<rscale>  0 0.16789409E+04</rscale>
<asrwt>0</asrwt>
<pdfrwt beam="1">  1        1 0.24682936E+00 0.16789409E+04</pdfrwt>
<pdfrwt beam="2">  1       -1 0.67575193E-01 0.16789409E+04</pdfrwt>
<totfact> 0.11714927E+01</totfact>
</mgrwt>
</event>
<event>
12    1  0.1201209E-007  0.1268735E+04  0.7818608E-02  0.9054733E-01
          1   -1    0    0  501    0  0.00000000000E+00  0.00000000000E+00  0.47180157695E+03  0.47180157695E+03  0.00000000000E+00 0. -1.
         -1   -1    0    0    0  501 -0.00000000000E+00 -0.00000000000E+00 -0.85294725840E+03  0.85294725840E+03  0.00000000000E+00 0.  1.
         23    2    1    2    0    0  0.13680376137E+03 -0.10017315844E+03 -0.35965536613E+03  0.40787453997E+03  0.90883041172E+02 0.  0.
        254    2    1    2    0    0 -0.13680376137E+03  0.10017315844E+03 -0.21490315324E+02  0.91687429538E+03  0.90080336870E+03 0.  0.
        -24    2    4    4    0    0 -0.26168736885E+03 -0.34936863229E+03 -0.30383258213E+02  0.44367957058E+03  0.73414567561E+02 0.  0.
         24    2    4    4    0    0  0.12488360748E+03  0.44954179073E+03  0.88929428894E+01  0.47319472479E+03  0.78424652395E+02 0.  0.
         13    1    3    3    0    0 -0.58411054469E+01 -0.17409033120E+01 -0.70466935634E+02  0.70730037995E+02  0.00000000000E+00 0. -1.
        -13    1    3    3    0    0  0.14264486682E+03 -0.98432255131E+02 -0.28918843050E+03  0.33714450198E+03  0.00000000000E+00 0.  1.
          2    1    6    6  502    0  0.10080169928E+03  0.43123091761E+03  0.79231423350E+01  0.44292647591E+03  0.00000000000E+00 0. -1.
          1    1    5    5  503    0 -0.19112341419E+03 -0.24134844440E+03  0.11362085399E+02  0.30806870670E+03  0.00000000000E+00 0. -1.
         -2    1    5    5    0  503 -0.70563954666E+02 -0.10802018789E+03 -0.41745343612E+02  0.13561086388E+03  0.00000000000E+00 0.  1.
         -1    1    6    6    0  502  0.24081908199E+02  0.18310873127E+02  0.96980055446E+00  0.30268248880E+02  0.00000000000E+00 0.  1.
<mgrwt>
<rscale>  0 0.12687346E+04</rscale>
<asrwt>0</asrwt>
<pdfrwt beam="1">  1        1 0.72584858E-01 0.12687346E+04</pdfrwt>
<pdfrwt beam="2">  1       -1 0.13122265E+00 0.12687346E+04</pdfrwt>
<totfact> 0.23420793E+01</totfact>
</mgrwt>
</event>
<event>
12    1  0.1201209E-007  0.1182152E+04  0.7818608E-02  0.9128624E-01
          1   -1    0    0  501    0  0.00000000000E+00  0.00000000000E+00  0.31787272830E+03  0.31787272830E+03  0.00000000000E+00 0. -1.
         -1   -1    0    0    0  501 -0.00000000000E+00 -0.00000000000E+00 -0.10990906628E+04  0.10990906628E+04  0.00000000000E+00 0.  1.
         23    2    1    2    0    0 -0.22482102337E+03  0.25449827251E+02 -0.79032702085E+02  0.25649192587E+03  0.91376987148E+02 0.  0.
        254    2    1    2    0    0  0.22482102337E+03 -0.25449827251E+02 -0.70218523237E+03  0.11604714652E+04  0.89578888958E+03 0.  0.
        -24    2    4    4    0    0  0.11637783390E+02 -0.43477140644E+03 -0.23969689438E+03  0.50325394444E+03  0.81537215815E+02 0.  0.
         24    2    4    4    0    0  0.21318323998E+03  0.40932157919E+03 -0.46248833800E+03  0.65721752075E+03  0.71050389103E+02 0.  0.
         11    1    3    3    0    0 -0.19051581989E+03  0.25661918972E+02 -0.26935880250E+02  0.19411427912E+03  0.00000000000E+00 0. -1.
        -11    1    3    3    0    0 -0.34305203486E+02 -0.21209172121E+00 -0.52096821835E+02  0.62377646753E+02  0.00000000000E+00 0.  1.
          4    1    6    6  502    0  0.13590036631E+03  0.22346492148E+03 -0.21764059234E+03  0.34025418165E+03  0.00000000000E+00 0. -1.
          3    1    5    5  503    0 -0.70317913952E+01 -0.60714949218E+02 -0.67443502052E+02  0.91018553701E+02  0.00000000000E+00 0. -1.
         -4    1    5    5    0  503  0.18669574785E+02 -0.37405645722E+03 -0.17225339232E+03  0.41223539074E+03  0.00000000000E+00 0.  1.
         -3    1    6    6    0  502  0.77282873671E+02  0.18585665772E+03 -0.24484774566E+03  0.31696333910E+03  0.00000000000E+00 0.  1.
<mgrwt>
<rscale>  0 0.11821522E+04</rscale>
<asrwt>0</asrwt>
<pdfrwt beam="1">  1        1 0.48903498E-01 0.11821522E+04</pdfrwt>
<pdfrwt beam="2">  1       -1 0.16909087E+00 0.11821522E+04</pdfrwt>
<totfact> 0.20127811E+01</totfact>
</mgrwt>
</event>
<event>
12    1  0.1201209E-007  0.1810643E+04  0.7818608E-02  0.8700660E-01
         -4   -1    0    0    0  501 -0.00000000000E+00  0.00000000000E+00  0.31000815758E+04  0.31000815758E+04  0.00000000000E+00 0.  1.
          4   -1    0    0  501    0  0.00000000000E+00 -0.00000000000E+00 -0.26438232726E+03  0.26438232726E+03  0.00000000000E+00 0. -1.
         23    2    1    2    0    0  0.42083635211E+03  0.46061566540E+02  0.19769396205E+04  0.20237173557E+04  0.88976230975E+02 0.  0.
        254    2    1    2    0    0 -0.42083635211E+03 -0.46061566540E+02  0.85875962806E+03  0.13407465473E+04  0.93856715383E+03 0.  0.
        -24    2    4    4    0    0 -0.66936878511E+03 -0.11738729296E+03  0.81805904153E+03  0.10665048290E+04  0.79859926117E+02 0.  0.
         24    2    4    4    0    0  0.24853243300E+03  0.71325726416E+02  0.40700586532E+02  0.27424171835E+03  0.81830635083E+02 0.  0.
         13    1    3    3    0    0  0.38664531422E+03  0.18418234904E+02  0.17176008443E+04  0.17606778498E+04  0.00000000000E+00 0.  1.
        -13    1    3    3    0    0  0.34191037895E+02  0.27643331636E+02  0.25933877615E+03  0.26303950591E+03  0.00000000000E+00 0. -1.
          2    1    6    6  502    0  0.54883379005E+01  0.19994966398E+02  0.12573268295E+02  0.24248868217E+02  0.00000000000E+00 0. -1.
          3    1    5    5  503    0 -0.76999198969E+01 -0.11463746746E+02  0.12054300505E+02  0.18330641466E+02  0.00000000000E+00 0. -1.
         -4    1    5    5    0  503 -0.66166886522E+03 -0.10592354621E+03  0.80600474102E+03  0.10481741875E+04  0.00000000000E+00 0.  1.
         -1    1    6    6    0  502  0.24304409510E+03  0.51330760018E+02  0.28127318237E+02  0.24999285014E+03  0.00000000000E+00 0.  1.
<mgrwt>
<rscale>  0 0.18106427E+04</rscale>
<asrwt>0</asrwt>
<pdfrwt beam="1">  1        4 0.40674206E-01 0.18106427E+04</pdfrwt>
<pdfrwt beam="2">  1       -4 0.47693560E+00 0.18106427E+04</pdfrwt>
<totfact> 0.20745234E-02</totfact>
</mgrwt>
</event>
<event>
12    1  0.1201209E-007  0.1412448E+04  0.7818608E-02  0.8944857E-01
         -2   -1    0    0    0  501 -0.00000000000E+00  0.00000000000E+00  0.26472542575E+03  0.26472542575E+03  0.00000000000E+00 0.  1.
          2   -1    0    0  501    0  0.00000000000E+00 -0.00000000000E+00 -0.18840354428E+04  0.18840354428E+04  0.00000000000E+00 0. -1.
         23    2    1    2    0    0 -0.11814606382E+03 -0.61241219171E+02 -0.11489224985E+04  0.11600936844E+04  0.89919239840E+02 0.  0.
        254    2    1    2    0    0  0.11814606382E+03  0.61241219171E+02 -0.47038751859E+03  0.98866718420E+03  0.85935406216E+03 0.  0.
        -24    2    4    4    0    0  0.52624832002E+01  0.20987248178E+03  0.19212958092E+03  0.29582874236E+03  0.80788096914E+02 0.  0.
         24    2    4    4    0    0  0.11288358062E+03 -0.14863126261E+03 -0.66251709951E+03  0.69283844184E+03  0.79134343733E+02 0.  0.
         11    1    3    3    0    0 -0.69778215689E+02 -0.78827051784E+02 -0.88149057025E+03  0.88775465581E+03  0.00000000000E+00 0. -1.
        -11    1    3    3    0    0 -0.48367848135E+02  0.17585832614E+02 -0.26743192821E+03  0.27233902855E+03  0.00000000000E+00 0.  1.
          2    1    6    6  502    0  0.81978202080E+02 -0.50279078012E+02 -0.25644595033E+03  0.27388489688E+03  0.00000000000E+00 0. -1.
          1    1    5    5  503    0 -0.28700516721E+02  0.12673152205E+03  0.14390567414E+03  0.19389028184E+03  0.00000000000E+00 0. -1.
         -2    1    5    5    0  503  0.33962999921E+02  0.83140959729E+02  0.48223906780E+02  0.10193846052E+03  0.00000000000E+00 0.  1.
         -1    1    6    6    0  502  0.30905378544E+02 -0.98352184598E+02 -0.40607114918E+03  0.41895354496E+03  0.00000000000E+00 0.  1.
<mgrwt>
<rscale>  0 0.14124476E+04</rscale>
<asrwt>0</asrwt>
<pdfrwt beam="1">  1        2 0.28985162E+00 0.14124476E+04</pdfrwt>
<pdfrwt beam="2">  1       -2 0.40726987E-01 0.14124476E+04</pdfrwt>
<totfact> 0.43032583E+01</totfact>
</mgrwt>
</event>
<event>
12    1  0.1201209E-007  0.1706218E+04  0.7818608E-02  0.8757826E-01
          1   -1    0    0  501    0  0.00000000000E+00  0.00000000000E+00  0.12236123230E+04  0.12236123230E+04  0.00000000000E+00 0. -1.
         -1   -1    0    0    0  501 -0.00000000000E+00 -0.00000000000E+00 -0.59479238874E+03  0.59479238874E+03  0.00000000000E+00 0.  1.
         23    2    1    2    0    0  0.20478362048E+03  0.52236618328E+03 -0.61924337740E+02  0.57189427183E+03  0.91791469610E+02 0.  0.
        254    2    1    2    0    0 -0.20478362048E+03 -0.52236618328E+03  0.69074427196E+03  0.12465104399E+04  0.87284469800E+03 0.  0.
        -24    2    4    4    0    0 -0.10899221274E+03 -0.33481211212E+03 -0.13902071421E+03  0.38679682738E+03  0.79413939764E+02 0.  0.
         24    2    4    4    0    0 -0.95791407743E+02 -0.18755407116E+03  0.82976498617E+03  0.85971361251E+03  0.79025564491E+02 0.  0.
         11    1    3    3    0    0  0.55279335357E+02  0.59485436470E+02 -0.20213279717E+02  0.83683324184E+02  0.00000000000E+00 0. -1.
        -11    1    3    3    0    0  0.14950428513E+03  0.46288074681E+03 -0.41711058023E+02  0.48821094765E+03  0.00000000000E+00 0.  1.
          2    1    6    6  502    0 -0.13377148295E+02 -0.31422290547E+02  0.52355330671E+02  0.62509112051E+02  0.00000000000E+00 0. -1.
          1    1    5    5  503    0  0.51906241589E+01 -0.50100284539E+02 -0.40430352942E+02  0.64587882215E+02  0.00000000000E+00 0. -1.
         -2    1    5    5    0  503 -0.11418283690E+03 -0.28471182758E+03 -0.98590361267E+02  0.32220894516E+03  0.00000000000E+00 0.  1.
         -1    1    6    6    0  502 -0.82414259448E+02 -0.15613178061E+03  0.77740965550E+03  0.79720450045E+03  0.00000000000E+00 0.  1.
<mgrwt>
<rscale>  0 0.17062184E+04</rscale>
<asrwt>0</asrwt>
<pdfrwt beam="1">  1        1 0.18824805E+00 0.17062184E+04</pdfrwt>
<pdfrwt beam="2">  1       -1 0.91506521E-01 0.17062184E+04</pdfrwt>
<totfact> 0.11373782E+01</totfact>
</mgrwt>
</event>
<event>
12    1  0.1201209E-007  0.1353073E+04  0.7818608E-02  0.8988505E-01
          2   -1    0    0  501    0  0.00000000000E+00  0.00000000000E+00  0.16827186578E+04  0.16827186578E+04  0.00000000000E+00 0. -1.
         -2   -1    0    0    0  501 -0.00000000000E+00 -0.00000000000E+00 -0.27200132889E+03  0.27200132889E+03  0.00000000000E+00 0.  1.
         23    2    1    2    0    0 -0.31898677736E+03  0.17884846108E+03  0.31679120313E+03  0.49178906628E+03  0.88093604587E+02 0.  0.
        254    2    1    2    0    0  0.31898677736E+03 -0.17884846108E+03  0.10939261258E+04  0.14629309204E+04  0.89986286348E+03 0.  0.
        -24    2    4    4    0    0  0.54111985410E+03 -0.36930976595E+03  0.65708075821E+03  0.93126824525E+03  0.79404169010E+02 0.  0.
         24    2    4    4    0    0 -0.22213307674E+03  0.19046130487E+03  0.43684536760E+03  0.53166267519E+03  0.78820762276E+02 0.  0.
         11    1    3    3    0    0 -0.26049271307E+03  0.17214715582E+03  0.29333609720E+03  0.42841237463E+03  0.00000000000E+00 0.  1.
        -11    1    3    3    0    0 -0.58494064298E+02  0.67013052653E+01  0.23455105928E+02  0.63376691650E+02  0.00000000000E+00 0. -1.
          2    1    6    6  502    0 -0.12046290536E+02 -0.59454409323E+01  0.91102108306E+01  0.16231368548E+02  0.00000000000E+00 0. -1.
          1    1    5    5  503    0  0.22116974413E+02 -0.28661741281E+02  0.18500393430E+02  0.40656125338E+02  0.00000000000E+00 0. -1.
         -2    1    5    5    0  503  0.51900287969E+03 -0.34064802467E+03  0.63858036478E+03  0.89061211991E+03  0.00000000000E+00 0.  1.
         -1    1    6    6    0  502 -0.21008678620E+03  0.19640674580E+03  0.42773515676E+03  0.51543130664E+03  0.00000000000E+00 0.  1.
<mgrwt>
<rscale>  0 0.13530731E+04</rscale>
<asrwt>0</asrwt>
<pdfrwt beam="1">  1        2 0.25887979E+00 0.13530731E+04</pdfrwt>
<pdfrwt beam="2">  1       -2 0.41846359E-01 0.13530731E+04</pdfrwt>
<totfact> 0.52979689E+01</totfact>
</mgrwt>
</event>
<event>
12    1  0.1201209E-007  0.1101514E+04  0.7818608E-02  0.9203718E-01
         -1   -1    0    0    0  501 -0.00000000000E+00  0.00000000000E+00  0.29019311592E+03  0.29019311592E+03  0.00000000000E+00 0.  1.
          1   -1    0    0  501    0  0.00000000000E+00 -0.00000000000E+00 -0.10452803567E+04  0.10452803567E+04  0.00000000000E+00 0. -1.
         23    2    1    2    0    0  0.41587660230E+02 -0.12348855798E+03 -0.23686891653E+03  0.28545152079E+03  0.91633671041E+02 0.  0.
        254    2    1    2    0    0 -0.41587660230E+02  0.12348855798E+03 -0.51821832429E+03  0.10500219519E+04  0.90388987734E+03 0.  0.
        -24    2    4    4    0    0 -0.81809142823E+02  0.26559448781E+03  0.17425357195E+03  0.33776341492E+03  0.80539737484E+02 0.  0.
         24    2    4    4    0    0  0.40221482593E+02 -0.14210592984E+03 -0.69247189624E+03  0.71225853695E+03  0.77350070590E+02 0.  0.
         11    1    3    3    0    0  0.32905149220E+02 -0.21922451805E+02 -0.16877464400E+02  0.42990598308E+02  0.00000000000E+00 0.  1.
        -11    1    3    3    0    0  0.86825110102E+01 -0.10156610617E+03 -0.21999145213E+03  0.24246092248E+03  0.00000000000E+00 0. -1.
          4    1    6    6  502    0 -0.15075722577E+02 -0.71781222350E+02 -0.38986554646E+03  0.39670513686E+03  0.00000000000E+00 0. -1.
          1    1    5    5  503    0  0.60836728161E+01  0.72134542812E+02  0.71445181912E+02  0.10170947527E+03  0.00000000000E+00 0. -1.
         -2    1    5    5    0  503 -0.87892815639E+02  0.19345994500E+03  0.10280839004E+03  0.23605393965E+03  0.00000000000E+00 0.  1.
         -3    1    6    6    0  502  0.55297205170E+02 -0.70324707485E+02 -0.30260634979E+03  0.31555340010E+03  0.00000000000E+00 0.  1.
<mgrwt>
<rscale>  0 0.11015138E+04</rscale>
<asrwt>0</asrwt>
<pdfrwt beam="1">  1        1 0.16081236E+00 0.11015138E+04</pdfrwt>
<pdfrwt beam="2">  1       -1 0.44645095E-01 0.11015138E+04</pdfrwt>
<totfact> 0.69073264E+01</totfact>
</mgrwt>
</event>
<event>
12    1  0.1266793E-007  0.1742141E+04  0.7818608E-02  0.8737688E-01
         -2   -1    0    0    0  501 -0.00000000000E+00  0.00000000000E+00  0.55035096379E+03  0.55035096379E+03  0.00000000000E+00 0.  1.
          2   -1    0    0  501    0  0.00000000000E+00 -0.00000000000E+00 -0.13786910166E+04  0.13786910166E+04  0.00000000000E+00 0. -1.
         23    2    1    2    0    0 -0.10585305607E+03 -0.29255470889E+02 -0.98748821591E+03  0.99781509822E+03  0.91876229855E+02 0.  0.
        254    2    1    2    0    0  0.10585305607E+03  0.29255470889E+02  0.15914816314E+03  0.93122688214E+03  0.91093063190E+03 0.  0.
        -24    2    4    4    0    0  0.38094582481E+03  0.30651979810E+03  0.19104820839E+03  0.53124752255E+03  0.81550010502E+02 0.  0.
         24    2    4    4    0    0 -0.27509276874E+03 -0.27726432721E+03 -0.31900045257E+02  0.39997935960E+03  0.80089553995E+02 0.  0.
         13    1    3    3    0    0 -0.70929238241E+02 -0.46854741105E+02 -0.86658107203E+03  0.87074053426E+03  0.00000000000E+00 0. -1.
        -13    1    3    3    0    0 -0.34923817828E+02  0.17599270216E+02 -0.12090714388E+03  0.12707456396E+03  0.00000000000E+00 0.  1.
          2    1    6    6  502    0 -0.25090774981E+03 -0.27689955977E+03 -0.23622126079E+02  0.37441430255E+03  0.00000000000E+00 0. -1.
          1    1    5    5  503    0  0.32555720517E+03  0.28966720579E+03  0.18362816513E+03  0.47287830039E+03  0.00000000000E+00 0. -1.
         -2    1    5    5    0  503  0.55388619641E+02  0.16852592310E+02  0.74200432610E+01  0.58369222158E+02  0.00000000000E+00 0.  1.
         -1    1    6    6    0  502 -0.24185018928E+02 -0.36476744507E+00 -0.82779191778E+01  0.25565057046E+02  0.00000000000E+00 0.  1.
<mgrwt>
<rscale>  0 0.17421411E+04</rscale>
<asrwt>0</asrwt>
<pdfrwt beam="1">  1        2 0.21210631E+00 0.17421411E+04</pdfrwt>
<pdfrwt beam="2">  1       -2 0.84669381E-01 0.17421411E+04</pdfrwt>
<totfact> 0.17161476E+01</totfact>
</mgrwt>
</event>
<event>
12    1  0.1201209E-007  0.1574737E+04  0.7818608E-02  0.8836220E-01
         -1   -1    0    0    0  501 -0.00000000000E+00  0.00000000000E+00  0.25985592992E+03  0.25985592992E+03  0.00000000000E+00 0.  1.
          1   -1    0    0  501    0  0.00000000000E+00 -0.00000000000E+00 -0.23857408337E+04  0.23857408337E+04  0.00000000000E+00 0. -1.
         23    2    1    2    0    0  0.26546518912E+03 -0.38981689808E+03 -0.33974311955E+03  0.58720788541E+03  0.83419019123E+02 0.  0.
        254    2    1    2    0    0 -0.26546518912E+03  0.38981689808E+03 -0.17861417843E+04  0.20583888782E+04  0.90787296462E+03 0.  0.
        -24    2    4    4    0    0 -0.47996776839E+03  0.29762771341E+03 -0.53139780405E+03  0.77956859854E+03  0.79951605349E+02 0.  0.
         24    2    4    4    0    0  0.21450257928E+03  0.92189184669E+02 -0.12547439802E+04  0.12788202797E+04  0.80552154433E+02 0.  0.
         13    1    3    3    0    0  0.17493115924E+03 -0.25677105676E+03 -0.17360645020E+03  0.35590937837E+03  0.00000000000E+00 0.  1.
        -13    1    3    3    0    0  0.90534029883E+02 -0.13304584131E+03 -0.16613666934E+03  0.23129850704E+03  0.00000000000E+00 0. -1.
          4    1    6    6  502    0  0.10832641378E+03  0.74211422265E+02 -0.52491572784E+03  0.54109007425E+03  0.00000000000E+00 0. -1.
          1    1    5    5  503    0 -0.43841256576E+03  0.24340577880E+03 -0.45537428584E+03  0.67736082790E+03  0.00000000000E+00 0. -1.
         -2    1    5    5    0  503 -0.41555202638E+02  0.54221934610E+02 -0.76023518214E+02  0.10220777065E+03  0.00000000000E+00 0.  1.
         -3    1    6    6    0  502  0.10617616549E+03  0.17977762404E+02 -0.72982825237E+03  0.73773020543E+03  0.00000000000E+00 0.  1.
<mgrwt>
<rscale>  0 0.15747367E+04</rscale>
<asrwt>0</asrwt>
<pdfrwt beam="1">  1        1 0.36703704E+00 0.15747367E+04</pdfrwt>
<pdfrwt beam="2">  1       -1 0.39977837E-01 0.15747367E+04</pdfrwt>
<totfact> 0.95426861E+00</totfact>
</mgrwt>
</event>
<event>
12    1  0.1201209E-007  0.2487638E+04  0.7818608E-02  0.8407403E-01
         -2   -1    0    0    0  501 -0.00000000000E+00  0.00000000000E+00  0.62781876379E+03  0.62781876379E+03  0.00000000000E+00 0.  1.
          2   -1    0    0  501    0  0.00000000000E+00 -0.00000000000E+00 -0.24642233807E+04  0.24642233807E+04  0.00000000000E+00 0. -1.
         23    2    1    2    0    0  0.55264151678E+03  0.68710522140E+03 -0.18919622572E+02  0.88709087189E+03  0.95110627895E+02 0.  0.
        254    2    1    2    0    0 -0.55264151678E+03 -0.68710522140E+03 -0.18174849943E+04  0.22049512726E+04  0.88376024946E+03 0.  0.
        -24    2    4    4    0    0  0.22764030138E+03 -0.88614721743E+02 -0.30003551960E+03  0.39500436977E+03  0.79589342185E+02 0.  0.
         24    2    4    4    0    0 -0.78028181815E+03 -0.59849049965E+03 -0.15174494747E+04  0.18099469028E+04  0.78894161831E+02 0.  0.
         13    1    3    3    0    0  0.10211408503E+03  0.18686928280E+03 -0.19937873968E+02  0.21388065372E+03  0.00000000000E+00 0. -1.
        -13    1    3    3    0    0  0.45052743174E+03  0.50023593860E+03  0.10182513952E+01  0.67321021817E+03  0.00000000000E+00 0.  1.
          4    1    6    6  502    0 -0.86266339147E+02 -0.64300112822E+02 -0.21512723519E+03  0.24053297716E+03  0.00000000000E+00 0. -1.
          3    1    5    5  503    0  0.30273098795E+02 -0.45187169340E+02 -0.54475266544E+02  0.76979837935E+02  0.00000000000E+00 0. -1.
         -4    1    5    5    0  503  0.19736720258E+03 -0.43427552404E+02 -0.24556025306E+03  0.31802453183E+03  0.00000000000E+00 0.  1.
         -3    1    6    6    0  502 -0.69401547901E+03 -0.53419038683E+03 -0.13023222395E+04  0.15694139256E+04  0.00000000000E+00 0.  1.
<mgrwt>
<rscale>  0 0.24876380E+04</rscale>
<asrwt>0</asrwt>
<pdfrwt beam="1">  1        2 0.37911128E+00 0.24876380E+04</pdfrwt>
<pdfrwt beam="2">  1       -2 0.96587505E-01 0.24876380E+04</pdfrwt>
<totfact> 0.29218198E+00</totfact>
</mgrwt>
</event>
<event>
12    1  0.1201209E-007  0.1051993E+04  0.7818608E-02  0.9253288E-01
          2   -1    0    0  501    0  0.00000000000E+00  0.00000000000E+00  0.60108436743E+03  0.60108436743E+03  0.00000000000E+00 0. -1.
         -2   -1    0    0    0  501 -0.00000000000E+00 -0.00000000000E+00 -0.46028902707E+03  0.46028902707E+03  0.00000000000E+00 0.  1.
         23    2    1    2    0    0  0.63942572430E+02 -0.10590028366E+03  0.42045420543E+02  0.15969912561E+03  0.91828485134E+02 0.  0.
        254    2    1    2    0    0 -0.63942572430E+02  0.10590028366E+03  0.98749919810E+02  0.90167426889E+03  0.88767190891E+03 0.  0.
        -24    2    4    4    0    0  0.29331275380E+02 -0.29916945606E+03 -0.21143125512E+03  0.37685225712E+03  0.83377220507E+02 0.  0.
         24    2    4    4    0    0 -0.93273847810E+02  0.40506973973E+03  0.31018117493E+03  0.52482201177E+03  0.80276260691E+02 0.  0.
         13    1    3    3    0    0  0.51184507080E+02 -0.12268049603E+03  0.34805282063E+02  0.13741093672E+03  0.00000000000E+00 0.  1.
        -13    1    3    3    0    0  0.12758065349E+02  0.16780212367E+02  0.72401384796E+01  0.22288188884E+02  0.00000000000E+00 0. -1.
          4    1    6    6  502    0 -0.56443700881E+02  0.34747686375E+03  0.23530147795E+03  0.42342986165E+03  0.00000000000E+00 0. -1.
          3    1    5    5  503    0  0.25586701412E+02 -0.17262591413E+03 -0.72728108778E+02  0.18906021085E+03  0.00000000000E+00 0. -1.
         -4    1    5    5    0  503  0.37445739684E+01 -0.12654354193E+03 -0.13870314634E+03  0.18779204628E+03  0.00000000000E+00 0.  1.
         -3    1    6    6    0  502 -0.36830146929E+02  0.57592875974E+02  0.74879696986E+02  0.10139215012E+03  0.00000000000E+00 0.  1.
<mgrwt>
<rscale>  0 0.10519934E+04</rscale>
<asrwt>0</asrwt>
<pdfrwt beam="1">  1        2 0.92474518E-01 0.10519934E+04</pdfrwt>
<pdfrwt beam="2">  1       -2 0.70813696E-01 0.10519934E+04</pdfrwt>
<totfact> 0.89364110E+01</totfact>
</mgrwt>
</event>
<event>
12    1  0.1201209E-007  0.1216194E+04  0.7818608E-02  0.9098799E-01
          2   -1    0    0  501    0  0.00000000000E+00  0.00000000000E+00  0.81903938482E+03  0.81903938482E+03  0.00000000000E+00 0. -1.
         -2   -1    0    0    0  501 -0.00000000000E+00 -0.00000000000E+00 -0.45148230585E+03  0.45148230585E+03  0.00000000000E+00 0.  1.
         23    2    1    2    0    0  0.53362826593E+02  0.77097030460E+02  0.32641854414E+03  0.35189289301E+03  0.92130336037E+02 0.  0.
        254    2    1    2    0    0 -0.53362826593E+02 -0.77097030460E+02  0.41138534828E+02  0.91862879766E+03  0.91290467491E+03 0.  0.
        -24    2    4    4    0    0  0.34861868912E+03  0.10836698785E+03 -0.18317887245E+03  0.41651862167E+03  0.81577376927E+02 0.  0.
         24    2    4    4    0    0 -0.40198151571E+03 -0.18546401831E+03  0.22431740728E+03  0.50211017599E+03  0.76225248868E+02 0.  0.
         13    1    3    3    0    0  0.43739233071E+02  0.92973379075E+02  0.20762894649E+03  0.23166128107E+03  0.00000000000E+00 0. -1.
        -13    1    3    3    0    0  0.96235935219E+01 -0.15876348616E+02  0.11878959765E+03  0.12023161193E+03  0.00000000000E+00 0.  1.
          4    1    6    6  502    0 -0.30824243009E+03 -0.17008407637E+03  0.19624805891E+03  0.40305742688E+03  0.00000000000E+00 0. -1.
          3    1    5    5  503    0  0.31817688673E+03  0.73219413455E+02 -0.14943027284E+03  0.35906408926E+03  0.00000000000E+00 0. -1.
         -4    1    5    5    0  503  0.30441802390E+02  0.35147574395E+02 -0.33748599614E+02  0.57454532410E+02  0.00000000000E+00 0.  1.
         -3    1    6    6    0  502 -0.93739085627E+02 -0.15379941936E+02  0.28069348372E+02  0.99052749109E+02  0.00000000000E+00 0.  1.
<mgrwt>
<rscale>  0 0.12161937E+04</rscale>
<asrwt>0</asrwt>
<pdfrwt beam="1">  1        2 0.12600606E+00 0.12161937E+04</pdfrwt>
<pdfrwt beam="2">  1       -2 0.69458816E-01 0.12161937E+04</pdfrwt>
<totfact> 0.62231336E+01</totfact>
</mgrwt>
</event>
<event>
12    1  0.1201209E-007  0.1488450E+04  0.7818608E-02  0.8892170E-01
          1   -1    0    0  501    0  0.00000000000E+00  0.00000000000E+00  0.14501935191E+04  0.14501935191E+04  0.00000000000E+00 0. -1.
         -1   -1    0    0    0  501 -0.00000000000E+00 -0.00000000000E+00 -0.38192911847E+03  0.38192911847E+03  0.00000000000E+00 0.  1.
         23    2    1    2    0    0  0.32165079831E+02 -0.31045378604E+03  0.77156454166E+03  0.83741239587E+03  0.92366298954E+02 0.  0.
        254    2    1    2    0    0 -0.32165079831E+02  0.31045378604E+03  0.29669985893E+03  0.99471024166E+03  0.89666131452E+03 0.  0.
        -24    2    4    4    0    0 -0.35821881323E+03  0.34898188143E+03  0.39583511544E+03  0.64268919830E+03  0.79087895946E+02 0.  0.
         24    2    4    4    0    0  0.32605373340E+03 -0.38528095393E+02 -0.99135256512E+02  0.35202104336E+03  0.79344594572E+02 0.  0.
         11    1    3    3    0    0  0.30235286924E+02 -0.34592379003E+02  0.71890788736E+02  0.85317587669E+02  0.00000000000E+00 0.  1.
        -11    1    3    3    0    0  0.19297929071E+01 -0.27586140704E+03  0.69967375293E+03  0.75209480820E+03  0.00000000000E+00 0. -1.
          2    1    6    6  502    0  0.56120562585E+02 -0.37194996238E+02 -0.27613812174E+02  0.72770240571E+02  0.00000000000E+00 0. -1.
          1    1    5    5  503    0 -0.28761952964E+01  0.75230828248E+01  0.24062216676E+02  0.25374387597E+02  0.00000000000E+00 0. -1.
         -2    1    5    5    0  503 -0.35534261793E+03  0.34145879861E+03  0.37177289876E+03  0.61731481071E+03  0.00000000000E+00 0.  1.
         -1    1    6    6    0  502  0.26993317081E+03 -0.13330991552E+01 -0.71521444338E+02  0.27925080279E+03  0.00000000000E+00 0.  1.
<mgrwt>
<rscale>  0 0.14884504E+04</rscale>
<asrwt>0</asrwt>
<pdfrwt beam="1">  1        1 0.22310669E+00 0.14884504E+04</pdfrwt>
<pdfrwt beam="2">  1       -1 0.58758327E-01 0.14884504E+04</pdfrwt>
<totfact> 0.20136905E+01</totfact>
</mgrwt>
</event>
<event>
12    1  0.1201209E-007  0.2196433E+04  0.7818608E-02  0.8519914E-01
          2   -1    0    0  501    0  0.00000000000E+00  0.00000000000E+00  0.74961355730E+03  0.74961355730E+03  0.00000000000E+00 0. -1.
         -2   -1    0    0    0  501 -0.00000000000E+00 -0.00000000000E+00 -0.16089354132E+04  0.16089354132E+04  0.00000000000E+00 0.  1.
         23    2    1    2    0    0  0.93207559210E+02 -0.44753878906E+03 -0.12000776954E+04  0.12875335346E+04  0.92614852573E+02 0.  0.
        254    2    1    2    0    0 -0.93207559210E+02  0.44753878906E+03  0.34075583952E+03  0.10710154359E+04  0.90663162582E+03 0.  0.
        -24    2    4    4    0    0  0.24318695028E+03 -0.16611932032E+03  0.15558857130E+03  0.34265006256E+03  0.80409828303E+02 0.  0.
         24    2    4    4    0    0 -0.33639450949E+03  0.61365810937E+03  0.18516726822E+03  0.72836537332E+03  0.80570829798E+02 0.  0.
         11    1    3    3    0    0  0.56871429965E+02 -0.32335761369E+03 -0.96323898938E+03  0.10176560600E+04  0.00000000000E+00 0.  1.
        -11    1    3    3    0    0  0.36336129245E+02 -0.12418117536E+03 -0.23683870599E+03  0.26987747453E+03  0.00000000000E+00 0. -1.
          4    1    6    6  502    0 -0.19030877764E+03  0.39475684089E+03  0.82814790491E+02  0.44599179791E+03  0.00000000000E+00 0. -1.
          3    1    5    5  503    0  0.14166942084E+03 -0.11041735917E+03  0.13580240051E+03  0.22517661955E+03  0.00000000000E+00 0. -1.
         -4    1    5    5    0  503  0.10151752944E+03 -0.55701961149E+02  0.19786170788E+02  0.11747344302E+03  0.00000000000E+00 0.  1.
         -3    1    6    6    0  502 -0.14608573185E+03  0.21890126848E+03  0.10235247773E+03  0.28237357541E+03  0.00000000000E+00 0.  1.
<mgrwt>
<rscale>  0 0.21964333E+04</rscale>
<asrwt>0</asrwt>
<pdfrwt beam="1">  1        2 0.11532516E+00 0.21964333E+04</pdfrwt>
<pdfrwt beam="2">  1       -2 0.24752852E+00 0.21964333E+04</pdfrwt>
<totfact> 0.22829468E+00</totfact>
</mgrwt>
</event>
<event>
12    1  0.1201209E-007  0.1411011E+04  0.7818608E-02  0.8945887E-01
         -1   -1    0    0    0  501 -0.00000000000E+00  0.00000000000E+00  0.54811619700E+03  0.54811619700E+03  0.00000000000E+00 0.  1.
          1   -1    0    0  501    0  0.00000000000E+00 -0.00000000000E+00 -0.90808793366E+03  0.90808793366E+03  0.00000000000E+00 0. -1.
         23    2    1    2    0    0 -0.12574519092E+03 -0.38533031842E+03 -0.94096289104E+02  0.42645331306E+03  0.93364925223E+02 0.  0.
        254    2    1    2    0    0  0.12574519092E+03  0.38533031842E+03 -0.26587544755E+03  0.10297508176E+04  0.90851840124E+03 0.  0.
        -24    2    4    4    0    0  0.38582237051E+03  0.50999997125E+03 -0.32930868286E+03  0.72380698702E+03  0.80582092248E+02 0.  0.
         24    2    4    4    0    0 -0.26007717959E+03 -0.12466965283E+03  0.63433235306E+02  0.30594383057E+03  0.79969934615E+02 0.  0.
         13    1    3    3    0    0 -0.15461524754E+02 -0.11375192795E+03  0.10398090579E+02  0.11526786260E+03  0.00000000000E+00 0. -1.
        -13    1    3    3    0    0 -0.11028366616E+03 -0.27157839047E+03 -0.10449437968E+03  0.31118545046E+03  0.00000000000E+00 0.  1.
          4    1    6    6  502    0 -0.39405694261E+02 -0.27976258775E+02  0.42068311910E+02  0.64072011535E+02  0.00000000000E+00 0. -1.
          3    1    5    5  503    0  0.14123774232E+03  0.21106791387E+03 -0.17217763564E+03  0.30682715384E+03  0.00000000000E+00 0. -1.
         -2    1    5    5    0  503  0.24458462819E+03  0.29893205738E+03 -0.15713104722E+03  0.41697983318E+03  0.00000000000E+00 0.  1.
         -3    1    6    6    0  502 -0.22067148533E+03 -0.96693394055E+02  0.21364923396E+02  0.24187181904E+03  0.00000000000E+00 0.  1.
<mgrwt>
<rscale>  0 0.14110106E+04</rscale>
<asrwt>0</asrwt>
<pdfrwt beam="1">  1        1 0.13970584E+00 0.14110106E+04</pdfrwt>
<pdfrwt beam="2">  1       -1 0.84325569E-01 0.14110106E+04</pdfrwt>
<totfact> 0.24327400E+01</totfact>
</mgrwt>
</event>
<event>
12    1  0.1201209E-007  0.4509353E+04  0.7818608E-02  0.7909001E-01
         -2   -1    0    0    0  501 -0.00000000000E+00  0.00000000000E+00  0.24798626081E+04  0.24798626081E+04  0.00000000000E+00 0.  1.
          2   -1    0    0  501    0  0.00000000000E+00 -0.00000000000E+00 -0.20499387332E+04  0.20499387332E+04  0.00000000000E+00 0. -1.
         23    2    1    2    0    0  0.14919734555E+04 -0.19424743035E+01 -0.13691320332E+04  0.20270256446E+04  0.91224307379E+02 0.  0.
        254    2    1    2    0    0 -0.14919734555E+04  0.19424743035E+01  0.17990559081E+04  0.25027756967E+04  0.89515108359E+03 0.  0.
        -24    2    4    4    0    0 -0.26180742225E+03 -0.80466445653E+02  0.97919524547E+03  0.10199960485E+04  0.80935992903E+02 0.  0.
         24    2    4    4    0    0 -0.12301660333E+04  0.82408919956E+02  0.81986066258E+03  0.14827796482E+04  0.79776435025E+02 0.  0.
         11    1    3    3    0    0  0.39488557112E+03  0.29957655526E+02 -0.32784538789E+03  0.51411542844E+03  0.00000000000E+00 0.  1.
        -11    1    3    3    0    0  0.10970878844E+04 -0.31900129829E+02 -0.10412866453E+04  0.15129102161E+04  0.00000000000E+00 0. -1.
          4    1    6    6  502    0 -0.98745015469E+02  0.38418829926E+01  0.93031471931E+02  0.13572101132E+03  0.00000000000E+00 0. -1.
          1    1    5    5  503    0 -0.51575491169E+02 -0.48953950854E+02  0.29988591408E+03  0.30820136608E+03  0.00000000000E+00 0. -1.
         -2    1    5    5    0  503 -0.21023193108E+03 -0.31512494799E+02  0.67930933139E+03  0.71179468240E+03  0.00000000000E+00 0.  1.
         -3    1    6    6    0  502 -0.11314210178E+04  0.78567036964E+02  0.72682919065E+03  0.13470586369E+04  0.00000000000E+00 0.  1.
<mgrwt>
<rscale>  0 0.45093531E+04</rscale>
<asrwt>0</asrwt>
<pdfrwt beam="1">  1        2 0.31537519E+00 0.45093531E+04</pdfrwt>
<pdfrwt beam="2">  1       -2 0.38151733E+00 0.45093531E+04</pdfrwt>
<totfact> 0.46445280E-02</totfact>
</mgrwt>
</event>
<event>
12    1  0.1201209E-007  0.2438710E+04  0.7818608E-02  0.8425152E-01
          1   -1    0    0  501    0  0.00000000000E+00  0.00000000000E+00  0.14478198729E+04  0.14478198729E+04  0.00000000000E+00 0. -1.
         -1   -1    0    0    0  501 -0.00000000000E+00 -0.00000000000E+00 -0.10269418025E+04  0.10269418025E+04  0.00000000000E+00 0.  1.
         23    2    1    2    0    0 -0.17341737699E+03 -0.67218689056E+03 -0.61907836617E+03  0.93470458659E+03  0.92227101537E+02 0.  0.
        254    2    1    2    0    0  0.17341737699E+03  0.67218689056E+03  0.10399564366E+04  0.15400570888E+04  0.89908711711E+03 0.  0.
        -24    2    4    4    0    0 -0.88650125022E+02 -0.18808904328E+03  0.29433958720E+03  0.36901288508E+03  0.79362358156E+02 0.  0.
         24    2    4    4    0    0  0.26206750201E+03  0.86027593383E+03  0.74561684938E+03  0.11710442037E+04  0.81522898276E+02 0.  0.
         13    1    3    3    0    0 -0.59018908712E+02 -0.13203481284E+03 -0.92170676892E+02  0.17149885441E+03  0.00000000000E+00 0. -1.
        -13    1    3    3    0    0 -0.11439846828E+03 -0.54015207772E+03 -0.52690768928E+03  0.76320573218E+03  0.00000000000E+00 0.  1.
          4    1    6    6  502    0  0.21188339892E+03  0.68173892128E+03  0.54756159385E+03  0.89971452728E+03  0.00000000000E+00 0. -1.
          1    1    5    5  503    0 -0.45996585663E+02 -0.90393736416E+02  0.20954687836E+03  0.23280164885E+03  0.00000000000E+00 0. -1.
         -2    1    5    5    0  503 -0.42653539359E+02 -0.97695306861E+02  0.84792708841E+02  0.13621123623E+03  0.00000000000E+00 0.  1.
         -3    1    6    6    0  502  0.50184103088E+02  0.17853701255E+03  0.19805525553E+03  0.27132967640E+03  0.00000000000E+00 0.  1.
<mgrwt>
<rscale>  0 0.24387101E+04</rscale>
<asrwt>0</asrwt>
<pdfrwt beam="1">  1        1 0.22274152E+00 0.24387101E+04</pdfrwt>
<pdfrwt beam="2">  1       -1 0.15799105E+00 0.24387101E+04</pdfrwt>
<totfact> 0.19229794E+00</totfact>
</mgrwt>
</event>
<event>
12    1  0.1201209E-007  0.4728199E+04  0.7818608E-02  0.7871860E-01
         -1   -1    0    0    0  501 -0.00000000000E+00  0.00000000000E+00  0.21652054544E+04  0.21652054544E+04  0.00000000000E+00 0.  1.
          1   -1    0    0  501    0  0.00000000000E+00 -0.00000000000E+00 -0.25812639854E+04  0.25812639854E+04  0.00000000000E+00 0. -1.
         23    2    1    2    0    0  0.88837012278E+03 -0.50519135162E+03  0.18404715551E+04  0.21070781386E+04  0.89570979138E+02 0.  0.
        254    2    1    2    0    0 -0.88837012278E+03  0.50519135162E+03 -0.22565300861E+04  0.26393913011E+04  0.91106456098E+03 0.  0.
        -24    2    4    4    0    0  0.13368352466E+03  0.91845227191E+02 -0.74629557860E+03  0.76786924550E+03  0.79744949889E+02 0.  0.
         24    2    4    4    0    0 -0.10220536474E+04  0.41334612443E+03 -0.15102345075E+04  0.18715220556E+04  0.79610679390E+02 0.  0.
         13    1    3    3    0    0  0.13062874358E+02 -0.22670838000E+02  0.40334225872E+02  0.48077597265E+02  0.00000000000E+00 0. -1.
        -13    1    3    3    0    0  0.87530724842E+03 -0.48252051362E+03  0.18001373292E+04  0.20590005413E+04  0.00000000000E+00 0.  1.
          4    1    6    6  502    0 -0.36249991977E+03  0.12323676262E+03 -0.47219314100E+03  0.60791434751E+03  0.00000000000E+00 0. -1.
          3    1    5    5  503    0  0.58119153815E+02  0.85074356865E+02 -0.37465005343E+03  0.38855906214E+03  0.00000000000E+00 0. -1.
         -4    1    5    5    0  503  0.75564370843E+02  0.67708703264E+01 -0.37164552517E+03  0.37931018336E+03  0.00000000000E+00 0.  1.
         -3    1    6    6    0  502 -0.65955372767E+03  0.29010936181E+03 -0.10380413665E+04  0.12636077081E+04  0.00000000000E+00 0.  1.
<mgrwt>
<rscale>  0 0.47281992E+04</rscale>
<asrwt>0</asrwt>
<pdfrwt beam="1">  1        1 0.39711754E+00 0.47281992E+04</pdfrwt>
<pdfrwt beam="2">  1       -1 0.33310853E+00 0.47281992E+04</pdfrwt>
<totfact> 0.17620828E-02</totfact>
</mgrwt>
</event>
<event>
12    1  0.1201209E-007  0.2475467E+04  0.7818608E-02  0.8411778E-01
         -2   -1    0    0    0  501 -0.00000000000E+00  0.00000000000E+00  0.61389332545E+03  0.61389332545E+03  0.00000000000E+00 0.  1.
          2   -1    0    0  501    0  0.00000000000E+00 -0.00000000000E+00 -0.24955209948E+04  0.24955209948E+04  0.00000000000E+00 0. -1.
         23    2    1    2    0    0 -0.96302943785E+03 -0.19514850633E+03 -0.13551813908E+04  0.16764417499E+04  0.91824295710E+02 0.  0.
        254    2    1    2    0    0  0.96302943785E+03  0.19514850633E+03 -0.52644627851E+03  0.14329725703E+04  0.90041993831E+03 0.  0.
        -24    2    4    4    0    0  0.94006544838E+03  0.17128979376E+03 -0.73317388111E+03  0.12074880569E+04  0.86140738829E+02 0.  0.
         24    2    4    4    0    0  0.22963989466E+02  0.23858712568E+02  0.20672760260E+03  0.22548451339E+03  0.83728018734E+02 0.  0.
         11    1    3    3    0    0 -0.11640076957E+03  0.91193385584E+00 -0.19093511336E+03  0.22362063476E+03  0.00000000000E+00 0.  1.
        -11    1    3    3    0    0 -0.84662866828E+03 -0.19606044019E+03 -0.11642462774E+04  0.14528211152E+04  0.00000000000E+00 0. -1.
          2    1    6    6  502    0  0.48276259420E+02  0.35989328655E+01  0.70966710700E+02  0.85905899500E+02  0.00000000000E+00 0. -1.
          1    1    5    5  503    0  0.90184867464E+03  0.15314820522E+03 -0.71671311395E+03  0.11620942700E+04  0.00000000000E+00 0. -1.
         -2    1    5    5    0  503  0.38216773743E+02  0.18141588544E+02 -0.16460767163E+02  0.45393786863E+02  0.00000000000E+00 0.  1.
         -1    1    6    6    0  502 -0.25312269954E+02  0.20259779702E+02  0.13576089190E+03  0.13957861389E+03  0.00000000000E+00 0.  1.
<mgrwt>
<rscale>  0 0.24754666E+04</rscale>
<asrwt>0</asrwt>
<pdfrwt beam="1">  1        2 0.38392631E+00 0.24754666E+04</pdfrwt>
<pdfrwt beam="2">  1       -2 0.94445126E-01 0.24754666E+04</pdfrwt>
<totfact> 0.29566190E+00</totfact>
</mgrwt>
</event>
<event>
12    1  0.1201209E-007  0.1205279E+04  0.7818608E-02  0.9108248E-01
          2   -1    0    0  501    0  0.00000000000E+00  0.00000000000E+00  0.97249983131E+03  0.97249983131E+03  0.00000000000E+00 0. -1.
         -2   -1    0    0    0  501 -0.00000000000E+00 -0.00000000000E+00 -0.37344427845E+03  0.37344427845E+03  0.00000000000E+00 0.  1.
         23    2    1    2    0    0  0.47072597806E+02 -0.11403377554E+03  0.34356793295E+03  0.37577192094E+03  0.89140790815E+02 0.  0.
        254    2    1    2    0    0 -0.47072597806E+02  0.11403377554E+03  0.25548761991E+03  0.97017218882E+03  0.92776107948E+03 0.  0.
        -24    2    4    4    0    0 -0.33354738527E+03 -0.27986907396E+03  0.11506842746E+03  0.45736274481E+03  0.79745724409E+02 0.  0.
         24    2    4    4    0    0  0.28647478747E+03  0.39390284950E+03  0.14041919245E+03  0.51280944401E+03  0.77644816653E+02 0.  0.
         11    1    3    3    0    0  0.55918908651E+02 -0.11652483906E+03  0.24704193188E+03  0.27880939470E+03  0.00000000000E+00 0. -1.
        -11    1    3    3    0    0 -0.88463108449E+01  0.24910635254E+01  0.96526001066E+02  0.96962526240E+02  0.00000000000E+00 0.  1.
          4    1    6    6  502    0  0.55720778012E+02  0.12050666981E+03  0.62124592965E+02  0.14658147094E+03  0.00000000000E+00 0. -1.
          1    1    5    5  503    0 -0.36673911227E+02 -0.51621697328E+02  0.41557722890E+02  0.75741796463E+02  0.00000000000E+00 0. -1.
         -2    1    5    5    0  503 -0.29687347404E+03 -0.22824737664E+03  0.73510704569E+02  0.38162094835E+03  0.00000000000E+00 0.  1.
         -3    1    6    6    0  502  0.23075400945E+03  0.27339617969E+03  0.78294599488E+02  0.36622797307E+03  0.00000000000E+00 0.  1.
<mgrwt>
<rscale>  0 0.12052792E+04</rscale>
<asrwt>0</asrwt>
<pdfrwt beam="1">  1        2 0.14961536E+00 0.12052792E+04</pdfrwt>
<pdfrwt beam="2">  1       -2 0.57452966E-01 0.12052792E+04</pdfrwt>
<totfact> 0.73469793E+01</totfact>
</mgrwt>
</event>
<event>
12    1  0.1344355E-007  0.2007707E+04  0.7818608E-02  0.8603026E-01
          2   -1    0    0  501    0  0.00000000000E+00  0.00000000000E+00  0.63975402023E+03  0.63975402023E+03  0.00000000000E+00 0. -1.
         -2   -1    0    0    0  501 -0.00000000000E+00 -0.00000000000E+00 -0.15751715486E+04  0.15751715486E+04  0.00000000000E+00 0.  1.
         23    2    1    2    0    0 -0.77393322529E+03  0.15872271921E+02 -0.14947330101E+03  0.79389144110E+03  0.93256561829E+02 0.  0.
        254    2    1    2    0    0  0.77393322529E+03 -0.15872271921E+02 -0.78594422739E+03  0.14210341278E+04  0.89577067238E+03 0.  0.
        -24    2    4    4    0    0  0.38360410613E+03 -0.13147318089E+03  0.11490391161E+03  0.42906222737E+03  0.80337902175E+02 0.  0.
         24    2    4    4    0    0  0.39032911916E+03  0.11560090897E+03 -0.90084813899E+03  0.99197190039E+03  0.82222200321E+02 0.  0.
         11    1    3    3    0    0 -0.38031956570E+02  0.21525392850E+02 -0.59567261506E+01  0.44105043298E+02  0.00000000000E+00 0.  1.
        -11    1    3    3    0    0 -0.73590126872E+03 -0.56531209288E+01 -0.14351657486E+03  0.74978639781E+03  0.00000000000E+00 0. -1.
          4    1    6    6  502    0  0.37713881261E+03  0.96579977895E+02 -0.81743536696E+03  0.90540706606E+03  0.00000000000E+00 0. -1.
          3    1    5    5  503    0  0.29386315058E+03 -0.11032538655E+03  0.12159807800E+03  0.33662046099E+03  0.00000000000E+00 0. -1.
         -4    1    5    5    0  503  0.89740955550E+02 -0.21147794337E+02 -0.66941663913E+01  0.92441766383E+02  0.00000000000E+00 0.  1.
         -3    1    6    6    0  502  0.13190306551E+02  0.19020931073E+02 -0.83412772033E+02  0.86564834339E+02  0.00000000000E+00 0.  1.
<mgrwt>
<rscale>  0 0.20077075E+04</rscale>
<asrwt>0</asrwt>
<pdfrwt beam="1">  1        2 0.98423695E-01 0.20077075E+04</pdfrwt>
<pdfrwt beam="2">  1       -2 0.24233409E+00 0.20077075E+04</pdfrwt>
<totfact> 0.30496532E+00</totfact>
</mgrwt>
</event>
<event>
12    1  0.1201209E-007  0.4138182E+04  0.7818608E-02  0.7977237E-01
         -2   -1    0    0    0  501 -0.00000000000E+00  0.00000000000E+00  0.15932016536E+04  0.15932016536E+04  0.00000000000E+00 0.  1.
          2   -1    0    0  501    0  0.00000000000E+00 -0.00000000000E+00 -0.26871280367E+04  0.26871280367E+04  0.00000000000E+00 0. -1.
         23    2    1    2    0    0  0.17980225474E+03 -0.48668422370E+03 -0.24825952274E+04  0.25378795549E+04  0.91450467092E+02 0.  0.
        254    2    1    2    0    0 -0.17980225474E+03  0.48668422370E+03  0.13886688443E+04  0.17424501354E+04  0.91571880562E+03 0.  0.
        -24    2    4    4    0    0 -0.27463328487E+03 -0.48796478414E+02  0.10661305197E+04  0.11048699788E+04  0.79365279344E+02 0.  0.
         24    2    4    4    0    0  0.94831030123E+02  0.53548070211E+03  0.32253832461E+03  0.63758015664E+03  0.82127819268E+02 0.  0.
         11    1    3    3    0    0  0.13036708586E+03 -0.31787370151E+03 -0.18312709374E+04  0.18632210050E+04  0.00000000000E+00 0. -1.
        -11    1    3    3    0    0  0.49435168887E+02 -0.16881052219E+03 -0.65132428999E+03  0.67465854997E+03  0.00000000000E+00 0.  1.
          4    1    6    6  502    0  0.25640830053E+02  0.23668478514E+03  0.97910851343E+02  0.25741731584E+03  0.00000000000E+00 0. -1.
          1    1    5    5  503    0 -0.21159789251E+03 -0.25567627563E+01  0.79708032806E+03  0.82469221806E+03  0.00000000000E+00 0. -1.
         -2    1    5    5    0  503 -0.63035392359E+02 -0.46239715657E+02  0.26905019164E+03  0.28017776074E+03  0.00000000000E+00 0.  1.
         -3    1    6    6    0  502  0.69190200069E+02  0.29879591697E+03  0.22462747326E+03  0.38016284081E+03  0.00000000000E+00 0.  1.
<mgrwt>
<rscale>  0 0.41381816E+04</rscale>
<asrwt>0</asrwt>
<pdfrwt beam="1">  1        2 0.41340432E+00 0.41381816E+04</pdfrwt>
<pdfrwt beam="2">  1       -2 0.24510794E+00 0.41381816E+04</pdfrwt>
<totfact> 0.14522234E-01</totfact>
</mgrwt>
</event>
<event>
12    1  0.1201209E-007  0.1964698E+04  0.7818608E-02  0.8623306E-01
         -2   -1    0    0    0  501 -0.00000000000E+00  0.00000000000E+00  0.14304646809E+04  0.14304646809E+04  0.00000000000E+00 0.  1.
          2   -1    0    0  501    0  0.00000000000E+00 -0.00000000000E+00 -0.67461277029E+03  0.67461277029E+03  0.00000000000E+00 0. -1.
         23    2    1    2    0    0 -0.11015154097E+03  0.53977227035E+03 -0.28107093190E+03  0.62545297801E+03  0.93290369978E+02 0.  0.
        254    2    1    2    0    0  0.11015154097E+03 -0.53977227035E+03  0.10369228425E+04  0.14796244731E+04  0.90032890348E+03 0.  0.
        -24    2    4    4    0    0  0.20509080896E+03 -0.72050158763E+03  0.10074284166E+04  0.12578604244E+04  0.78205211561E+02 0.  0.
         24    2    4    4    0    0 -0.94939267984E+02  0.18072931728E+03  0.29494425903E+02  0.22176404871E+03  0.81442135375E+02 0.  0.
         11    1    3    3    0    0 -0.45353035504E+01 -0.31956868920E+01 -0.20049469838E+01  0.58992546490E+01  0.00000000000E+00 0.  1.
        -11    1    3    3    0    0 -0.10561623742E+03  0.54296795724E+03 -0.27906598491E+03  0.61955372337E+03  0.00000000000E+00 0. -1.
          4    1    6    6  502    0  0.12891479828E+02  0.59316506998E+01 -0.52264540815E+00  0.14200277829E+02  0.00000000000E+00 0. -1.
          1    1    5    5  503    0  0.56202311021E+02 -0.25183075700E+03  0.40498858721E+03  0.48020119295E+03  0.00000000000E+00 0. -1.
         -2    1    5    5    0  503  0.14888849793E+03 -0.46867083062E+03  0.60243982935E+03  0.77765923147E+03  0.00000000000E+00 0.  1.
         -3    1    6    6    0  502 -0.10783074781E+03  0.17479766658E+03  0.30017071311E+02  0.20756377089E+03  0.00000000000E+00 0.  1.
<mgrwt>
<rscale>  0 0.19646982E+04</rscale>
<asrwt>0</asrwt>
<pdfrwt beam="1">  1        2 0.10378658E+00 0.19646982E+04</pdfrwt>
<pdfrwt beam="2">  1       -2 0.22007149E+00 0.19646982E+04</pdfrwt>
<totfact> 0.39466076E+00</totfact>
</mgrwt>
</event>
<event>
12    1  0.1201209E-007  0.1352556E+04  0.7818608E-02  0.8988895E-01
          1   -1    0    0  501    0  0.00000000000E+00  0.00000000000E+00  0.21787277095E+04  0.21787277095E+04  0.00000000000E+00 0. -1.
         -1   -1    0    0    0  501 -0.00000000000E+00 -0.00000000000E+00 -0.20991702171E+03  0.20991702171E+03  0.00000000000E+00 0.  1.
         23    2    1    2    0    0  0.23397910484E+03  0.16925915635E+01  0.44026712086E+02  0.25526518852E+03  0.92048241296E+02 0.  0.
        254    2    1    2    0    0 -0.23397910484E+03 -0.16925915635E+01  0.19247839757E+04  0.21333795427E+04  0.88981224630E+03 0.  0.
        -24    2    4    4    0    0 -0.46932575882E+03  0.27332670309E+03  0.12215948739E+04  0.13394392641E+04  0.82639890903E+02 0.  0.
         24    2    4    4    0    0  0.23534665398E+03 -0.27501929465E+03  0.70318910177E+03  0.79394027863E+03  0.69588743440E+02 0.  0.
         13    1    3    3    0    0  0.13698596034E+01 -0.12519236773E+02  0.16270398035E+02  0.20575073680E+02  0.00000000000E+00 0. -1.
        -13    1    3    3    0    0  0.23260924524E+03  0.14211828337E+02  0.27756314050E+02  0.23469011484E+03  0.00000000000E+00 0.  1.
          2    1    6    6  502    0  0.64153122599E+02 -0.39530742662E+02  0.11258249675E+03  0.13547369238E+03  0.00000000000E+00 0. -1.
          3    1    5    5  503    0 -0.76036155645E+02  0.11542727712E+02  0.16813514414E+03  0.18488958387E+03  0.00000000000E+00 0. -1.
         -4    1    5    5    0  503 -0.39328960318E+03  0.26178397538E+03  0.10534597298E+04  0.11545496802E+04  0.00000000000E+00 0.  1.
         -1    1    6    6    0  502  0.17119353138E+03 -0.23548855199E+03  0.59060660502E+03  0.65846658624E+03  0.00000000000E+00 0.  1.
<mgrwt>
<rscale>  0 0.13525561E+04</rscale>
<asrwt>0</asrwt>
<pdfrwt beam="1">  1        1 0.33518886E+00 0.13525561E+04</pdfrwt>
<pdfrwt beam="2">  1       -1 0.32294928E-01 0.13525561E+04</pdfrwt>
<totfact> 0.19785364E+01</totfact>
</mgrwt>
</event>
<event>
12    1  0.1201209E-007  0.2498460E+04  0.7818608E-02  0.8403534E-01
         -2   -1    0    0    0  501 -0.00000000000E+00  0.00000000000E+00  0.21073471673E+04  0.21073471673E+04  0.00000000000E+00 0.  1.
          2   -1    0    0  501    0  0.00000000000E+00 -0.00000000000E+00 -0.74054059575E+03  0.74054059575E+03  0.00000000000E+00 0. -1.
         23    2    1    2    0    0 -0.62079615442E+03  0.21502568945E+03 -0.38844460352E+03  0.76895708408E+03  0.93711657156E+02 0.  0.
        254    2    1    2    0    0  0.62079615442E+03 -0.21502568945E+03  0.17552511751E+04  0.20789306790E+04  0.89967892487E+03 0.  0.
        -24    2    4    4    0    0  0.54419313963E+02  0.13146575378E+03 -0.35495486581E+02  0.16750456707E+03  0.80951493327E+02 0.  0.
         24    2    4    4    0    0  0.56637684046E+03 -0.34649144323E+03  0.17907466617E+04  0.19114261119E+04  0.77052769843E+02 0.  0.
         13    1    3    3    0    0 -0.20167117554E+03  0.28588344881E+02 -0.14125725634E+03  0.24787530933E+03  0.00000000000E+00 0.  1.
        -13    1    3    3    0    0 -0.41912497889E+03  0.18643734457E+03 -0.24718734719E+03  0.52108177476E+03  0.00000000000E+00 0. -1.
          2    1    6    6  502    0  0.26602068036E+02 -0.61232008432E+01  0.11744160264E+03  0.12057235854E+03  0.00000000000E+00 0. -1.
          1    1    5    5  503    0  0.26015509417E+02  0.41675824799E+02  0.25449222465E+02  0.55329413759E+02  0.00000000000E+00 0. -1.
         -2    1    5    5    0  503  0.28403804546E+02  0.89789928986E+02 -0.60944709045E+02  0.11217515331E+03  0.00000000000E+00 0.  1.
         -1    1    6    6    0  502  0.53977477242E+03 -0.34036824239E+03  0.16733050590E+04  0.17908537534E+04  0.00000000000E+00 0.  1.
<mgrwt>
<rscale>  0 0.24984604E+04</rscale>
<asrwt>0</asrwt>
<pdfrwt beam="1">  1        2 0.11392932E+00 0.24984604E+04</pdfrwt>
<pdfrwt beam="2">  1       -2 0.32420725E+00 0.24984604E+04</pdfrwt>
<totfact> 0.76710761E-01</totfact>
</mgrwt>
</event>
<event>
12    1  0.1201209E-007  0.2377540E+04  0.7818608E-02  0.8447960E-01
         -1   -1    0    0    0  501 -0.00000000000E+00  0.00000000000E+00  0.13087621295E+04  0.13087621295E+04  0.00000000000E+00 0.  1.
          1   -1    0    0  501    0  0.00000000000E+00 -0.00000000000E+00 -0.10797794296E+04  0.10797794296E+04  0.00000000000E+00 0. -1.
         23    2    1    2    0    0 -0.96330095088E+03 -0.31728928916E+03  0.11654962425E+03  0.10250479056E+04  0.92293980621E+02 0.  0.
        254    2    1    2    0    0  0.96330095088E+03  0.31728928916E+03  0.11243307572E+03  0.13634936535E+04  0.90435199544E+03 0.  0.
        -24    2    4    4    0    0 -0.94102863440E+02 -0.13953051752E+03 -0.59902785261E+02  0.19612380674E+03  0.80944979227E+02 0.  0.
         24    2    4    4    0    0  0.10574038143E+04  0.45681980668E+03  0.17233586099E+03  0.11673698468E+04  0.79155213692E+02 0.  0.
         13    1    3    3    0    0 -0.70016535911E+02 -0.45384981114E+02  0.23428314772E+02  0.86666012628E+02  0.00000000000E+00 0. -1.
        -13    1    3    3    0    0 -0.89328441496E+03 -0.27190430805E+03  0.93121309481E+02  0.93838189296E+03  0.00000000000E+00 0.  1.
          4    1    6    6  502    0  0.59562712311E+03  0.23078989592E+03  0.12669971908E+03  0.65122074956E+03  0.00000000000E+00 0. -1.
          3    1    5    5  503    0 -0.71541757060E+02 -0.74326112370E+02 -0.72361152605E+02  0.12601083441E+03  0.00000000000E+00 0. -1.
         -4    1    5    5    0  503 -0.22561106380E+02 -0.65204405147E+02  0.12458367343E+02  0.70112972327E+02  0.00000000000E+00 0.  1.
         -3    1    6    6    0  502  0.46177669121E+03  0.22602991076E+03  0.45636141904E+02  0.51614909721E+03  0.00000000000E+00 0.  1.
<mgrwt>
<rscale>  0 0.23775403E+04</rscale>
<asrwt>0</asrwt>
<pdfrwt beam="1">  1        1 0.16611991E+00 0.23775403E+04</pdfrwt>
<pdfrwt beam="2">  1       -1 0.20134802E+00 0.23775403E+04</pdfrwt>
<totfact> 0.17371459E+00</totfact>
</mgrwt>
</event>
<event>
12    1  0.1201209E-007  0.1424222E+04  0.7818608E-02  0.8936470E-01
          1   -1    0    0  501    0  0.00000000000E+00  0.00000000000E+00  0.11546179702E+04  0.11546179702E+04  0.00000000000E+00 0. -1.
         -1   -1    0    0    0  501 -0.00000000000E+00 -0.00000000000E+00 -0.43919442283E+03  0.43919442283E+03  0.00000000000E+00 0.  1.
         23    2    1    2    0    0  0.32383816009E+03 -0.11693508207E+03  0.49612186539E+03  0.61078223029E+03  0.91504427033E+02 0.  0.
        254    2    1    2    0    0 -0.32383816009E+03  0.11693508207E+03  0.21930168198E+03  0.98303016275E+03  0.89426512053E+03 0.  0.
        -24    2    4    4    0    0 -0.58512640108E+03  0.25272622855E+03  0.21633550114E+03  0.67772756057E+03  0.79184250163E+02 0.  0.
         24    2    4    4    0    0  0.26128824099E+03 -0.13579114648E+03  0.29661808442E+01  0.30530260217E+03  0.80561158909E+02 0.  0.
         11    1    3    3    0    0  0.11576657109E+03 -0.39337220074E+02  0.10569953432E+03  0.16162211303E+03  0.00000000000E+00 0. -1.
        -11    1    3    3    0    0  0.20807158900E+03 -0.77597861998E+02  0.39042233107E+03  0.44916011726E+03  0.00000000000E+00 0.  1.
          2    1    6    6  502    0  0.76881502335E+02 -0.14285107588E+02 -0.26370706619E+02  0.82524201709E+02  0.00000000000E+00 0. -1.
          1    1    5    5  503    0 -0.34242783011E+03  0.11307065195E+03  0.14577453960E+03  0.38896273288E+03  0.00000000000E+00 0. -1.
         -2    1    5    5    0  503 -0.24269857096E+03  0.13965557660E+03  0.70560961534E+02  0.28876482770E+03  0.00000000000E+00 0.  1.
         -1    1    6    6    0  502  0.18440673865E+03 -0.12150603890E+03  0.29336887463E+02  0.22277840046E+03  0.00000000000E+00 0.  1.
<mgrwt>
<rscale>  0 0.14242216E+04</rscale>
<asrwt>0</asrwt>
<pdfrwt beam="1">  1        1 0.17763353E+00 0.14242216E+04</pdfrwt>
<pdfrwt beam="2">  1       -1 0.67568373E-01 0.14242216E+04</pdfrwt>
<totfact> 0.24915523E+01</totfact>
</mgrwt>
</event>
<event>
12    1  0.1201209E-007  0.1548443E+04  0.7818608E-02  0.8852863E-01
          2   -1    0    0  501    0  0.00000000000E+00  0.00000000000E+00  0.10487654449E+04  0.10487654449E+04  0.00000000000E+00 0. -1.
         -2   -1    0    0    0  501 -0.00000000000E+00 -0.00000000000E+00 -0.57154715331E+03  0.57154715331E+03  0.00000000000E+00 0.  1.
         23    2    1    2    0    0  0.11152176554E+03 -0.38423069740E+03  0.48114781098E+03  0.63316336852E+03  0.96552069927E+02 0.  0.
        254    2    1    2    0    0 -0.11152176554E+03  0.38423069740E+03 -0.39295193587E+01  0.98714922973E+03  0.90242884906E+03 0.  0.
        -24    2    4    4    0    0 -0.76955970567E+02  0.62230597187E+03 -0.20379894541E+03  0.66421172116E+03  0.80350832868E+02 0.  0.
         24    2    4    4    0    0 -0.34565794970E+02 -0.23807527447E+03  0.19986942606E+03  0.32293750857E+03  0.80412787979E+02 0.  0.
         13    1    3    3    0    0  0.10407670663E+03 -0.37053698810E+03  0.48286153498E+03  0.61748269804E+03  0.00000000000E+00 0. -1.
        -13    1    3    3    0    0  0.74450589095E+01 -0.13693709306E+02 -0.17137240038E+01  0.15680670479E+02  0.00000000000E+00 0.  1.
          4    1    6    6  502    0 -0.55640948884E+02 -0.17547508103E+03  0.12207483143E+03  0.22088386931E+03  0.00000000000E+00 0. -1.
          3    1    5    5  503    0 -0.57761225580E+02  0.57959627730E+03 -0.20466692112E+03  0.61737893748E+03  0.00000000000E+00 0. -1.
         -4    1    5    5    0  503 -0.19194744987E+02  0.42709694576E+02  0.86797571123E+00  0.46832783686E+02  0.00000000000E+00 0.  1.
         -3    1    6    6    0  502  0.21075153914E+02 -0.62600193446E+02  0.77794594627E+02  0.10205363925E+03  0.00000000000E+00 0.  1.
<mgrwt>
<rscale>  0 0.15484430E+04</rscale>
<asrwt>0</asrwt>
<pdfrwt beam="1">  1        2 0.16134853E+00 0.15484430E+04</pdfrwt>
<pdfrwt beam="2">  1       -2 0.87930332E-01 0.15484430E+04</pdfrwt>
<totfact> 0.25176751E+01</totfact>
</mgrwt>
</event>
<event>
12    1  0.1201209E-007  0.1630998E+04  0.7818608E-02  0.8801728E-01
          2   -1    0    0  501    0  0.00000000000E+00  0.00000000000E+00  0.20144738991E+04  0.20144738991E+04  0.00000000000E+00 0. -1.
         -2   -1    0    0    0  501 -0.00000000000E+00 -0.00000000000E+00 -0.33013013482E+03  0.33013013482E+03  0.00000000000E+00 0.  1.
         23    2    1    2    0    0  0.17875087262E+03 -0.33451898798E+03  0.12256228296E+04  0.12861798187E+04  0.90842599212E+02 0.  0.
        254    2    1    2    0    0 -0.17875087262E+03  0.33451898798E+03  0.45872093462E+03  0.10584242151E+04  0.87520403083E+03 0.  0.
        -24    2    4    4    0    0 -0.38003199226E+03  0.52151153992E+03  0.40979850460E+03  0.76858301131E+03  0.79915139314E+02 0.  0.
         24    2    4    4    0    0  0.20128111964E+03 -0.18699255194E+03  0.48922430024E+02  0.28984120384E+03  0.78321233894E+02 0.  0.
         13    1    3    3    0    0  0.10965856283E+03 -0.28202513810E+03  0.92061462158E+03  0.96906886256E+03  0.00000000000E+00 0. -1.
        -13    1    3    3    0    0  0.69092309793E+02 -0.52493849885E+02  0.30500820804E+03  0.31711095616E+03  0.00000000000E+00 0.  1.
          4    1    6    6  502    0  0.59882819427E+02 -0.88046991857E+02 -0.11246968120E+02  0.10707342868E+03  0.00000000000E+00 0. -1.
          1    1    5    5  503    0 -0.30208071055E+02  0.64568470395E+02  0.71850071464E+02  0.10121288305E+03  0.00000000000E+00 0. -1.
         -2    1    5    5    0  503 -0.34982392121E+03  0.45694306953E+03  0.33794843313E+03  0.66737012826E+03  0.00000000000E+00 0.  1.
         -1    1    6    6    0  502  0.14139830021E+03 -0.98945560085E+02  0.60169398144E+02  0.18276777516E+03  0.00000000000E+00 0.  1.
<mgrwt>
<rscale>  0 0.16309979E+04</rscale>
<asrwt>0</asrwt>
<pdfrwt beam="1">  1        2 0.30991905E+00 0.16309979E+04</pdfrwt>
<pdfrwt beam="2">  1       -2 0.50789253E-01 0.16309979E+04</pdfrwt>
<totfact> 0.22998935E+01</totfact>
</mgrwt>
</event>
<event>
12    1  0.1201209E-007  0.2220943E+04  0.7818608E-02  0.8509761E-01
          2   -1    0    0  501    0  0.00000000000E+00  0.00000000000E+00  0.34100634625E+04  0.34100634625E+04  0.00000000000E+00 0.  1.
         -2   -1    0    0    0  501 -0.00000000000E+00 -0.00000000000E+00 -0.36162003872E+03  0.36162003872E+03  0.00000000000E+00 0. -1.
         23    2    1    2    0    0  0.56658816928E+03 -0.92981598219E+02  0.46323794873E+02  0.58311617961E+03  0.90613761526E+02 0.  0.
        254    2    1    2    0    0 -0.56658816928E+03  0.92981598219E+02  0.30021196289E+04  0.31885673216E+04  0.90805923099E+03 0.  0.
        -24    2    4    4    0    0 -0.28834825406E+03 -0.30318604190E+03  0.59456983198E+03  0.73152063817E+03  0.80886756320E+02 0.  0.
         24    2    4    4    0    0 -0.27823991522E+03  0.39616764012E+03  0.24075497969E+04  0.24570466834E+04  0.80100751635E+02 0.  0.
         13    1    3    3    0    0  0.20678682947E+03 -0.13017896255E+02 -0.21637736300E+02  0.20832294664E+03  0.00000000000E+00 0.  1.
        -13    1    3    3    0    0  0.35980133981E+03 -0.79963701964E+02  0.67961531173E+02  0.37479323297E+03  0.00000000000E+00 0. -1.
          2    1    6    6  502    0  0.42358010280E+01  0.13703393748E+00  0.22186059376E+02  0.22587209196E+02  0.00000000000E+00 0. -1.
          3    1    5    5  503    0 -0.25911500830E+03 -0.22953159688E+03  0.46619276818E+03  0.58065569712E+03  0.00000000000E+00 0. -1.
         -4    1    5    5    0  503 -0.29233245755E+02 -0.73654445016E+02  0.12837706380E+03  0.15086494105E+03  0.00000000000E+00 0.  1.
         -1    1    6    6    0  502 -0.28247571625E+03  0.39603060618E+03  0.23853637375E+04  0.24344594742E+04  0.00000000000E+00 0.  1.
<mgrwt>
<rscale>  0 0.22209433E+04</rscale>
<asrwt>0</asrwt>
<pdfrwt beam="1">  1        2 0.52462513E+00 0.22209433E+04</pdfrwt>
<pdfrwt beam="2">  1       -2 0.55633854E-01 0.22209433E+04</pdfrwt>
<totfact> 0.26066522E+00</totfact>
</mgrwt>
</event>
<event>
12    1  0.1513099E-007  0.1653111E+04  0.7818608E-02  0.8788568E-01
         -2   -1    0    0    0  501 -0.00000000000E+00  0.00000000000E+00  0.45552157333E+03  0.45552157333E+03  0.00000000000E+00 0. -1.
          2   -1    0    0  501    0  0.00000000000E+00 -0.00000000000E+00 -0.14998062691E+04  0.14998062691E+04  0.00000000000E+00 0.  1.
         23    2    1    2    0    0 -0.31019597441E+03  0.43188978576E+03 -0.63066441623E+03  0.83012291703E+03  0.92823067705E+02 0.  0.
        254    2    1    2    0    0  0.31019597441E+03 -0.43188978576E+03 -0.41362027952E+03  0.11252049254E+04  0.90125138495E+03 0.  0.
        -24    2    4    4    0    0 -0.18876476756E+03 -0.49569161257E+03 -0.23579829482E+03  0.58591903112E+03  0.79736835523E+02 0.  0.
         24    2    4    4    0    0  0.49896074197E+03  0.63801826813E+02 -0.17782198469E+03  0.53928589425E+03  0.78588309354E+02 0.  0.
         13    1    3    3    0    0 -0.14146157765E+03  0.19116301601E+03 -0.21221236665E+03  0.31872992517E+03  0.00000000000E+00 0. -1.
        -13    1    3    3    0    0 -0.16873439675E+03  0.24072676975E+03 -0.41845204958E+03  0.51139299186E+03  0.00000000000E+00 0.  1.
          2    1    6    6  502    0  0.10126086042E+03  0.68710017968E+01 -0.40875600484E+01  0.10157598469E+03  0.00000000000E+00 0. -1.
          3    1    5    5  503    0 -0.27761608663E+02 -0.69590755754E+02 -0.65834145678E+02  0.99738232083E+02  0.00000000000E+00 0. -1.
         -4    1    5    5    0  503 -0.16100315890E+03 -0.42610085682E+03 -0.16996414915E+03  0.48618079903E+03  0.00000000000E+00 0.  1.
         -1    1    6    6    0  502  0.39769988155E+03  0.56930825016E+02 -0.17373442465E+03  0.43770990956E+03  0.00000000000E+00 0.  1.
<mgrwt>
<rscale>  0 0.16531111E+04</rscale>
<asrwt>0</asrwt>
<pdfrwt beam="1">  1        2 0.23073943E+00 0.16531111E+04</pdfrwt>
<pdfrwt beam="2">  1       -2 0.70080242E-01 0.16531111E+04</pdfrwt>
<totfact> 0.22483345E+01</totfact>
</mgrwt>
</event>
<event>
12    1  0.1201209E-007  0.1633643E+04  0.7818608E-02  0.8800142E-01
         -2   -1    0    0    0  501 -0.00000000000E+00  0.00000000000E+00  0.58549165302E+03  0.58549165302E+03  0.00000000000E+00 0.  1.
          2   -1    0    0  501    0  0.00000000000E+00 -0.00000000000E+00 -0.11395512906E+04  0.11395512906E+04  0.00000000000E+00 0. -1.
         23    2    1    2    0    0  0.34978668634E+03 -0.39409173059E+03  0.17446823104E+01  0.53454966173E+03  0.89895933560E+02 0.  0.
        254    2    1    2    0    0 -0.34978668634E+03  0.39409173059E+03 -0.55580431990E+03  0.11904932819E+04  0.91142569317E+03 0.  0.
        -24    2    4    4    0    0 -0.34283130566E+03  0.10459973127E+03 -0.74823321829E+03  0.83342010213E+03  0.79130965917E+02 0.  0.
         24    2    4    4    0    0 -0.69553806879E+01  0.28949199933E+03  0.19242889838E+03  0.35707317978E+03  0.81353425180E+02 0.  0.
         11    1    3    3    0    0  0.15820592844E+03 -0.23459183865E+03  0.25687627575E+02  0.28411670272E+03  0.00000000000E+00 0. -1.
        -11    1    3    3    0    0  0.19158075790E+03 -0.15949989195E+03 -0.23942945265E+02  0.25043295901E+03  0.00000000000E+00 0.  1.
          4    1    6    6  502    0  0.10126336503E+02  0.76444075847E+02  0.13399750726E+02  0.78267443695E+02  0.00000000000E+00 0. -1.
          3    1    5    5  503    0 -0.59718049332E+02  0.54119271290E+01 -0.19600250144E+03  0.20496954638E+03  0.00000000000E+00 0. -1.
         -4    1    5    5    0  503 -0.28311325633E+03  0.99187804138E+02 -0.55223071684E+03  0.62845055575E+03  0.00000000000E+00 0.  1.
         -3    1    6    6    0  502 -0.17081717191E+02  0.21304792348E+03  0.17902914766E+03  0.27880573608E+03  0.00000000000E+00 0.  1.
<mgrwt>
<rscale>  0 0.16336435E+04</rscale>
<asrwt>0</asrwt>
<pdfrwt beam="1">  1        2 0.17531558E+00 0.16336435E+04</pdfrwt>
<pdfrwt beam="2">  1       -2 0.90075640E-01 0.16336435E+04</pdfrwt>
<totfact> 0.20787715E+01</totfact>
</mgrwt>
</event>
<event>
12    1  0.1201209E-007  0.1349481E+04  0.7818608E-02  0.8991221E-01
          2   -1    0    0  501    0  0.00000000000E+00  0.00000000000E+00  0.16742267627E+04  0.16742267627E+04  0.00000000000E+00 0.  1.
         -2   -1    0    0    0  501 -0.00000000000E+00 -0.00000000000E+00 -0.27193124928E+03  0.27193124928E+03  0.00000000000E+00 0. -1.
         23    2    1    2    0    0  0.21245969341E+03 -0.26149003680E+03  0.18982397958E+03  0.39727545872E+03  0.90986186918E+02 0.  0.
        254    2    1    2    0    0 -0.21245969341E+03  0.26149003680E+03  0.12124715338E+04  0.15488825532E+04  0.90301372235E+03 0.  0.
        -24    2    4    4    0    0  0.90277324660E+02  0.31041259259E+03  0.41840549224E+02  0.33604463366E+03  0.81666341096E+02 0.  0.
         24    2    4    4    0    0 -0.30273701807E+03 -0.48922555793E+02  0.11706309846E+04  0.12128379196E+04  0.80967885634E+02 0.  0.
         11    1    3    3    0    0  0.21794015225E+03 -0.22935613432E+03  0.17262842189E+03  0.36042019693E+03  0.00000000000E+00 0. -1.
        -11    1    3    3    0    0 -0.54804588342E+01 -0.32133902474E+02  0.17195557693E+02  0.36855261790E+02  0.00000000000E+00 0.  1.
          4    1    6    6  502    0 -0.26964498496E+03 -0.57709323865E+02  0.93772571326E+03  0.97742943341E+03  0.00000000000E+00 0. -1.
          1    1    5    5  503    0  0.79904382480E+02  0.13234126692E+03  0.28266453204E+02  0.15715569874E+03  0.00000000000E+00 0. -1.
         -2    1    5    5    0  503  0.10372942180E+02  0.17807132567E+03  0.13574096021E+02  0.17888893492E+03  0.00000000000E+00 0.  1.
         -3    1    6    6    0  502 -0.33092033110E+02  0.87867680725E+01  0.23290527133E+03  0.23540848617E+03  0.00000000000E+00 0.  1.
<mgrwt>
<rscale>  0 0.13494808E+04</rscale>
<asrwt>0</asrwt>
<pdfrwt beam="1">  1        2 0.25757334E+00 0.13494808E+04</pdfrwt>
<pdfrwt beam="2">  1       -2 0.41835578E-01 0.13494808E+04</pdfrwt>
<totfact> 0.53600235E+01</totfact>
</mgrwt>
</event>
<event>
12    1  0.1201209E-007  0.1483702E+04  0.7818608E-02  0.8895364E-01
          2   -1    0    0  501    0  0.00000000000E+00  0.00000000000E+00  0.38021488377E+04  0.38021488377E+04  0.00000000000E+00 0. -1.
         -2   -1    0    0    0  501 -0.00000000000E+00 -0.00000000000E+00 -0.14474526252E+03  0.14474526252E+03  0.00000000000E+00 0.  1.
         23    2    1    2    0    0 -0.54739143044E+02 -0.87418245591E+01 -0.48939198543E+02  0.13073348505E+03  0.10781189954E+03 0.  0.
        254    2    1    2    0    0  0.54739143044E+02  0.87418245591E+01  0.37063427737E+04  0.38161606152E+04  0.90721127149E+03 0.  0.
        -24    2    4    4    0    0 -0.25550415968E+03  0.34361326512E+03  0.20682051972E+04  0.21136891615E+04  0.82805085644E+02 0.  0.
         24    2    4    4    0    0  0.31024330273E+03 -0.33487144056E+03  0.16381375765E+04  0.17024714536E+04  0.80774638776E+02 0.  0.
         13    1    3    3    0    0 -0.32089950178E+02 -0.41803264991E+02 -0.68266033814E+02  0.86241111072E+02  0.00000000000E+00 0.  1.
        -13    1    3    3    0    0 -0.22649192865E+02  0.33061440431E+02  0.19326835270E+02  0.44492373981E+02  0.00000000000E+00 0. -1.
          2    1    6    6  502    0  0.18846988101E+03 -0.17031322454E+03  0.10273999424E+04  0.10583374378E+04  0.00000000000E+00 0. -1.
          3    1    5    5  503    0 -0.13213887883E+03  0.14432056415E+03  0.76860575677E+03  0.79312288951E+03  0.00000000000E+00 0. -1.
         -4    1    5    5    0  503 -0.12336528086E+03  0.19929270097E+03  0.12995994404E+04  0.13205662720E+04  0.00000000000E+00 0.  1.
         -1    1    6    6    0  502  0.12177342172E+03 -0.16455821602E+03  0.61073763406E+03  0.64413401584E+03  0.00000000000E+00 0.  1.
<mgrwt>
<rscale>  0 0.14837022E+04</rscale>
<asrwt>0</asrwt>
<pdfrwt beam="1">  1        2 0.58494590E+00 0.14837022E+04</pdfrwt>
<pdfrwt beam="2">  1       -2 0.22268505E-01 0.14837022E+04</pdfrwt>
<totfact> 0.85337783E+00</totfact>
</mgrwt>
</event>
<event>
12    1  0.1201209E-007  0.2086833E+04  0.7818608E-02  0.8567066E-01
          2   -1    0    0  501    0  0.00000000000E+00  0.00000000000E+00  0.12010054152E+04  0.12010054152E+04  0.00000000000E+00 0. -1.
         -2   -1    0    0    0  501 -0.00000000000E+00 -0.00000000000E+00 -0.90650585158E+03  0.90650585158E+03  0.00000000000E+00 0.  1.
         23    2    1    2    0    0 -0.17555093377E+03 -0.78252270948E+03 -0.15466911207E+03  0.82182637275E+03  0.91192826098E+02 0.  0.
        254    2    1    2    0    0  0.17555093377E+03  0.78252270948E+03  0.44916867569E+03  0.12856848940E+04  0.89892893284E+03 0.  0.
        -24    2    4    4    0    0 -0.17389303019E+03  0.61760136177E+03  0.57978372588E+03  0.86881901263E+03  0.83827679723E+02 0.  0.
         24    2    4    4    0    0  0.34944396396E+03  0.16492134770E+03 -0.13061505019E+03  0.41686588139E+03  0.86062400955E+02 0.  0.
         11    1    3    3    0    0 -0.12885020532E+03 -0.70258648224E+03 -0.14351394467E+03  0.72857833673E+03  0.00000000000E+00 0.  1.
        -11    1    3    3    0    0 -0.46700728453E+02 -0.79936227238E+02 -0.11155167406E+02  0.93248036028E+02  0.00000000000E+00 0. -1.
          2    1    6    6  502    0  0.13520291462E+03  0.19107828545E+02 -0.50970675173E+02  0.14574960364E+03  0.00000000000E+00 0. -1.
          3    1    5    5  503    0 -0.23130098965E+01  0.38381130284E+02  0.13359818071E+02  0.40705600543E+02  0.00000000000E+00 0. -1.
         -4    1    5    5    0  503 -0.17158002029E+03  0.57922023149E+03  0.56642390781E+03  0.82811341208E+03  0.00000000000E+00 0.  1.
         -1    1    6    6    0  502  0.21424104933E+03  0.14581351916E+03 -0.79644375021E+02  0.27111627775E+03  0.00000000000E+00 0.  1.
<mgrwt>
<rscale>  0 0.20868334E+04</rscale>
<asrwt>0</asrwt>
<pdfrwt beam="1">  1        2 0.18477007E+00 0.20868334E+04</pdfrwt>
<pdfrwt beam="2">  1       -2 0.13946244E+00 0.20868334E+04</pdfrwt>
<totfact> 0.63308606E+00</totfact>
</mgrwt>
</event>
<event>
12    1  0.1201209E-007  0.2691085E+04  0.7818608E-02  0.8337903E-01
          2   -1    0    0  501    0  0.00000000000E+00  0.00000000000E+00  0.33426332194E+04  0.33426332194E+04  0.00000000000E+00 0. -1.
         -2   -1    0    0    0  501 -0.00000000000E+00 -0.00000000000E+00 -0.54163435661E+03  0.54163435661E+03  0.00000000000E+00 0.  1.
         23    2    1    2    0    0  0.95295514526E+03 -0.61298542767E+03  0.70183083573E+03  0.13359987251E+04  0.91931648479E+02 0.  0.
        254    2    1    2    0    0 -0.95295514526E+03  0.61298542767E+03  0.20991680270E+04  0.25482688509E+04  0.89626619226E+03 0.  0.
        -24    2    4    4    0    0 -0.84187206372E+02  0.44906353985E+03  0.11918833228E+04  0.12789495679E+04  0.79878617509E+02 0.  0.
         24    2    4    4    0    0 -0.86876793889E+03  0.16392188782E+03  0.90728470420E+03  0.12693192830E+04  0.79861071296E+02 0.  0.
         11    1    3    3    0    0  0.13741724933E+03 -0.12798159944E+03  0.12443726379E+03  0.22527188645E+03  0.00000000000E+00 0. -1.
        -11    1    3    3    0    0  0.81553789593E+03 -0.48500382824E+03  0.57739357194E+03  0.11107268386E+04  0.00000000000E+00 0.  1.
          2    1    6    6  502    0 -0.71896559315E+03  0.10501830331E+03  0.73412525656E+03  0.10328989595E+04  0.00000000000E+00 0. -1.
          1    1    5    5  503    0 -0.79413148510E+02  0.21458385643E+03  0.55946778498E+03  0.60444758418E+03  0.00000000000E+00 0. -1.
         -2    1    5    5    0  503 -0.47740578616E+01  0.23447968343E+03  0.63241553785E+03  0.67450198375E+03  0.00000000000E+00 0.  1.
         -1    1    6    6    0  502 -0.14980234574E+03  0.58903584512E+02  0.17315944764E+03  0.23642032350E+03  0.00000000000E+00 0.  1.
<mgrwt>
<rscale>  0 0.26910853E+04</rscale>
<asrwt>0</asrwt>
<pdfrwt beam="1">  1        2 0.51425125E+00 0.26910853E+04</pdfrwt>
<pdfrwt beam="2">  1       -2 0.83328364E-01 0.26910853E+04</pdfrwt>
<totfact> 0.11541510E+00</totfact>
</mgrwt>
</event>
<event>
12    1  0.1201209E-007  0.1950199E+04  0.7818608E-02  0.8630265E-01
         -2   -1    0    0    0  501 -0.00000000000E+00  0.00000000000E+00  0.20832093466E+03  0.20832093466E+03  0.00000000000E+00 0.  1.
          2   -1    0    0  501    0  0.00000000000E+00 -0.00000000000E+00 -0.45642014268E+04  0.45642014268E+04  0.00000000000E+00 0. -1.
         23    2    1    2    0    0  0.17131498215E+03  0.60716638566E+03 -0.27611548340E+04  0.28337856674E+04  0.91462278638E+02 0.  0.
        254    2    1    2    0    0 -0.17131498215E+03 -0.60716638566E+03 -0.15947256581E+04  0.19387366940E+04  0.90418482689E+03 0.  0.
        -24    2    4    4    0    0  0.65398342030E+02 -0.22129569801E+03  0.33878146742E+02  0.24642741051E+03  0.79561364559E+02 0.  0.
         24    2    4    4    0    0 -0.23671332418E+03 -0.38587068766E+03 -0.16286038049E+04  0.16923092835E+04  0.81430783361E+02 0.  0.
         13    1    3    3    0    0  0.12354550065E+03  0.31594588821E+03 -0.13361584477E+04  0.13785516648E+04  0.00000000000E+00 0. -1.
        -13    1    3    3    0    0  0.47769481503E+02  0.29122049745E+03 -0.14249963863E+04  0.14552340027E+04  0.00000000000E+00 0.  1.
          2    1    6    6  502    0 -0.51667737672E+01 -0.55672012564E+02 -0.16858738004E+03  0.17761692837E+03  0.00000000000E+00 0. -1.
          1    1    5    5  503    0 -0.11678342705E+02 -0.90186968030E+02  0.16036652276E+01  0.90954079803E+02  0.00000000000E+00 0. -1.
         -2    1    5    5    0  503  0.77076684734E+02 -0.13110872998E+03  0.32274481514E+02  0.15547333071E+03  0.00000000000E+00 0.  1.
         -1    1    6    6    0  502 -0.23154655041E+03 -0.33019867509E+03 -0.14600164248E+04  0.15146923552E+04  0.00000000000E+00 0.  1.
<mgrwt>
<rscale>  0 0.19501987E+04</rscale>
<asrwt>0</asrwt>
<pdfrwt beam="1">  1        2 0.70218484E+00 0.19501987E+04</pdfrwt>
<pdfrwt beam="2">  1       -2 0.32049374E-01 0.19501987E+04</pdfrwt>
<totfact> 0.91505066E-01</totfact>
</mgrwt>
</event>
<event>
12    1  0.1201209E-007  0.1406620E+04  0.7818608E-02  0.8949040E-01
         -2   -1    0    0    0  501 -0.00000000000E+00  0.00000000000E+00  0.32760197813E+03  0.32760197813E+03  0.00000000000E+00 0.  1.
          2   -1    0    0  501    0  0.00000000000E+00 -0.00000000000E+00 -0.15098965873E+04  0.15098965873E+04  0.00000000000E+00 0. -1.
         23    2    1    2    0    0  0.16469532037E+03 -0.47172941685E+02  0.13872432733E+03  0.24294221163E+03  0.10211094072E+03 0.  0.
        254    2    1    2    0    0 -0.16469532037E+03  0.47172941685E+02 -0.13210189365E+04  0.15945563538E+04  0.87645256567E+03 0.  0.
        -24    2    4    4    0    0 -0.15902221749E+03 -0.39126242078E+03 -0.80832102772E+03  0.91557436785E+03  0.80741511268E+02 0.  0.
         24    2    4    4    0    0 -0.56731028829E+01  0.43843536246E+03 -0.51269790874E+03  0.67898198591E+03  0.76809116722E+02 0.  0.
         13    1    3    3    0    0  0.11703401561E+03 -0.78604544501E+02  0.11121806727E+03  0.17956918921E+03  0.00000000000E+00 0.  1.
        -13    1    3    3    0    0  0.47661304766E+02  0.31431602817E+02  0.27506260059E+02  0.63373022415E+02  0.00000000000E+00 0. -1.
          4    1    6    6  502    0  0.88714639083E+01  0.34512035802E+03 -0.44284418077E+03  0.56151378686E+03  0.00000000000E+00 0. -1.
          1    1    5    5  503    0 -0.16681901579E+03 -0.35751217026E+03 -0.75738090367E+03  0.85397269813E+03  0.00000000000E+00 0. -1.
         -2    1    5    5    0  503  0.77967982962E+01 -0.33750250522E+02 -0.50940124047E+02  0.61601669717E+02  0.00000000000E+00 0.  1.
         -3    1    6    6    0  502 -0.14544566791E+02  0.93315004441E+02 -0.69853727971E+02  0.11746819905E+03  0.00000000000E+00 0.  1.
<mgrwt>
<rscale>  0 0.14066202E+04</rscale>
<asrwt>0</asrwt>
<pdfrwt beam="1">  1        2 0.23229179E+00 0.14066202E+04</pdfrwt>
<pdfrwt beam="2">  1       -2 0.50400303E-01 0.14066202E+04</pdfrwt>
<totfact> 0.45378143E+01</totfact>
</mgrwt>
</event>
<event>
12    1  0.1201209E-007  0.2482583E+04  0.7818608E-02  0.8409217E-01
         -2   -1    0    0    0  501 -0.00000000000E+00  0.00000000000E+00  0.56065015134E+03  0.56065015134E+03  0.00000000000E+00 0.  1.
          2   -1    0    0  501    0  0.00000000000E+00 -0.00000000000E+00 -0.27482452007E+04  0.27482452007E+04  0.00000000000E+00 0. -1.
         23    2    1    2    0    0  0.54460298006E+03 -0.11654249371E+03  0.27536439209E+03  0.62867345279E+03  0.96073945880E+02 0.  0.
        254    2    1    2    0    0 -0.54460298006E+03  0.11654249371E+03 -0.24629594414E+04  0.26802218992E+04  0.89846850818E+03 0.  0.
        -24    2    4    4    0    0 -0.54171022721E+03 -0.20106569853E+03 -0.82582522512E+03  0.10105462766E+04  0.73069071660E+02 0.  0.
         24    2    4    4    0    0 -0.28927528462E+01  0.31760819224E+03 -0.16371342163E+04  0.16696756227E+04  0.82005554009E+02 0.  0.
         11    1    3    3    0    0  0.48205362738E+03 -0.12391921796E+03  0.21760513723E+03  0.54321604173E+03  0.00000000000E+00 0.  1.
        -11    1    3    3    0    0  0.62549352684E+02  0.73767242537E+01  0.57759254863E+02  0.85457411055E+02  0.00000000000E+00 0. -1.
          4    1    6    6  502    0  0.31703848451E+02  0.22080472268E+03 -0.10275521721E+04  0.10514862462E+04  0.00000000000E+00 0. -1.
          3    1    5    5  503    0 -0.52440333828E+03 -0.19124397407E+03 -0.76819485232E+03  0.94957698474E+03  0.00000000000E+00 0. -1.
         -4    1    5    5    0  503 -0.17306888931E+02 -0.98217244549E+01 -0.57630372799E+02  0.60969291817E+02  0.00000000000E+00 0.  1.
         -3    1    6    6    0  502 -0.34596601297E+02  0.96803469560E+02 -0.60958204419E+03  0.61818937644E+03  0.00000000000E+00 0.  1.
<mgrwt>
<rscale>  0 0.24825826E+04</rscale>
<asrwt>0</asrwt>
<pdfrwt beam="1">  1        2 0.42280695E+00 0.24825826E+04</pdfrwt>
<pdfrwt beam="2">  1       -2 0.86253870E-01 0.24825826E+04</pdfrwt>
<totfact> 0.25859127E+00</totfact>
</mgrwt>
</event>
<event>
12    1  0.1201209E-007  0.2799673E+04  0.7818608E-02  0.8303370E-01
          2   -1    0    0  501    0  0.00000000000E+00  0.00000000000E+00  0.31391487043E+04  0.31391487043E+04  0.00000000000E+00 0. -1.
         -2   -1    0    0    0  501 -0.00000000000E+00 -0.00000000000E+00 -0.62422733401E+03  0.62422733401E+03  0.00000000000E+00 0.  1.
         23    2    1    2    0    0  0.42565669140E+03 -0.11446414540E+04  0.15024427650E+04  0.19383069854E+04  0.91170336668E+02 0.  0.
        254    2    1    2    0    0 -0.42565669140E+03  0.11446414540E+04  0.10124786054E+04  0.18250690530E+04  0.90242808278E+03 0.  0.
        -24    2    4    4    0    0  0.14315403542E+03  0.74315990480E+03  0.77215597889E+03  0.10842271904E+04  0.80895133475E+02 0.  0.
         24    2    4    4    0    0 -0.56881072682E+03  0.40148154923E+03  0.24032262647E+03  0.74084186261E+03  0.79740976191E+02 0.  0.
         13    1    3    3    0    0  0.33753999816E+03 -0.95103836943E+03  0.11894013765E+04  0.15598342427E+04  0.00000000000E+00 0. -1.
        -13    1    3    3    0    0  0.88116693238E+02 -0.19360308461E+03  0.31304138850E+03  0.37847274262E+03  0.00000000000E+00 0.  1.
          4    1    6    6  502    0 -0.11251760897E+03  0.44427436931E+02  0.31908949910E+02  0.12510871499E+03  0.00000000000E+00 0. -1.
          3    1    5    5  503    0  0.37928583734E+02  0.29694775565E+03  0.35520606315E+03  0.46452975615E+03  0.00000000000E+00 0. -1.
         -4    1    5    5    0  503  0.10522545169E+03  0.44621214915E+03  0.41694991575E+03  0.61969743422E+03  0.00000000000E+00 0.  1.
         -3    1    6    6    0  502 -0.45629311785E+03  0.35705411230E+03  0.20841367656E+03  0.61573314762E+03  0.00000000000E+00 0.  1.
<mgrwt>
<rscale>  0 0.27996731E+04</rscale>
<asrwt>0</asrwt>
<pdfrwt beam="1">  1        2 0.48294594E+00 0.27996731E+04</pdfrwt>
<pdfrwt beam="2">  1       -2 0.96034977E-01 0.27996731E+04</pdfrwt>
<totfact> 0.11224970E+00</totfact>
</mgrwt>
</event>
<event>
12    1  0.1201209E-007  0.2418936E+04  0.7818608E-02  0.8432448E-01
         -2   -1    0    0    0  501 -0.00000000000E+00  0.00000000000E+00  0.64390996571E+03  0.64390996571E+03  0.00000000000E+00 0.  1.
          2   -1    0    0  501    0  0.00000000000E+00 -0.00000000000E+00 -0.22717668550E+04  0.22717668550E+04  0.00000000000E+00 0. -1.
         23    2    1    2    0    0  0.95758471862E+03  0.39225532115E+03 -0.67276596409E+03  0.12379173018E+04  0.94828652209E+02 0.  0.
        254    2    1    2    0    0 -0.95758471862E+03 -0.39225532115E+03 -0.95509092523E+03  0.16777595190E+04  0.91205569881E+03 0.  0.
        -24    2    4    4    0    0 -0.92399371453E+03 -0.26849045633E+02 -0.91153984277E+03  0.13006339240E+04  0.79110450852E+02 0.  0.
         24    2    4    4    0    0 -0.33591004084E+02 -0.36540627551E+03 -0.43551082453E+02  0.37712559501E+03  0.75345310998E+02 0.  0.
         13    1    3    3    0    0  0.56541064661E+01  0.13403727977E+02 -0.10878613220E+02  0.18165160864E+02  0.00000000000E+00 0. -1.
        -13    1    3    3    0    0  0.95193061215E+03  0.37885159317E+03 -0.66188735087E+03  0.12197521409E+04  0.00000000000E+00 0.  1.
          2    1    6    6  502    0 -0.25939048033E+02 -0.17084528679E+03  0.15918683124E+02  0.17353486884E+03  0.00000000000E+00 0. -1.
          1    1    5    5  503    0 -0.78936155471E+03  0.49032497489E+01 -0.77030613700E+03  0.11029448085E+04  0.00000000000E+00 0. -1.
         -2    1    5    5    0  503 -0.13463215982E+03 -0.31752295382E+02 -0.14123370577E+03  0.19768911545E+03  0.00000000000E+00 0.  1.
         -1    1    6    6    0  502 -0.76519560516E+01 -0.19456098872E+03 -0.59469765578E+02  0.20359072617E+03  0.00000000000E+00 0.  1.
<mgrwt>
<rscale>  0 0.24189364E+04</rscale>
<asrwt>0</asrwt>
<pdfrwt beam="1">  1        2 0.34950260E+00 0.24189364E+04</pdfrwt>
<pdfrwt beam="2">  1       -2 0.99063070E-01 0.24189364E+04</pdfrwt>
<totfact> 0.35665493E+00</totfact>
</mgrwt>
</event>
<event>
12    1  0.1201209E-007  0.2252901E+04  0.7818608E-02  0.8496726E-01
         -1   -1    0    0    0  501 -0.00000000000E+00  0.00000000000E+00  0.41216176051E+03  0.41216176051E+03  0.00000000000E+00 0.  1.
          1   -1    0    0  501    0  0.00000000000E+00 -0.00000000000E+00 -0.30786242791E+04  0.30786242791E+04  0.00000000000E+00 0. -1.
         23    2    1    2    0    0  0.64915732351E+03 -0.59405381525E+03 -0.15283885518E+04  0.17659673195E+04  0.91454043978E+02 0.  0.
        254    2    1    2    0    0 -0.64915732351E+03  0.59405381525E+03 -0.11380739667E+04  0.17248187201E+04  0.95156823047E+03 0.  0.
        -24    2    4    4    0    0 -0.60912377666E+03 -0.60074278400E+02 -0.40554008184E+03  0.73857909495E+03  0.79972665967E+02 0.  0.
         24    2    4    4    0    0 -0.40033546855E+02  0.65412809365E+03 -0.73253388490E+03  0.98623962512E+03  0.81095362666E+02 0.  0.
         11    1    3    3    0    0  0.56598267818E+03 -0.51486168672E+03 -0.12611963039E+04  0.14751389987E+04  0.00000000000E+00 0. -1.
        -11    1    3    3    0    0  0.83174645330E+02 -0.79192128533E+02 -0.26719224797E+03  0.29082832087E+03  0.00000000000E+00 0.  1.
          4    1    6    6  502    0  0.17768208560E+02  0.31877672681E+03 -0.37860756837E+03  0.49525549126E+03  0.00000000000E+00 0. -1.
          1    1    5    5  503    0 -0.22145229031E+03  0.15595332207E+02 -0.15689789453E+03  0.27184789971E+03  0.00000000000E+00 0. -1.
         -2    1    5    5    0  503 -0.38767148635E+03 -0.75669610607E+02 -0.24864218731E+03  0.46673119524E+03  0.00000000000E+00 0.  1.
         -3    1    6    6    0  502 -0.57801755415E+02  0.33535136684E+03 -0.35392631653E+03  0.49098413386E+03  0.00000000000E+00 0.  1.
<mgrwt>
<rscale>  0 0.22529014E+04</rscale>
<asrwt>0</asrwt>
<pdfrwt beam="1">  1        1 0.47363450E+00 0.22529014E+04</pdfrwt>
<pdfrwt beam="2">  1       -1 0.63409503E-01 0.22529014E+04</pdfrwt>
<totfact> 0.11991885E+00</totfact>
</mgrwt>
</event>
<event>
12    1  0.1201209E-007  0.2787455E+04  0.7818608E-02  0.8307174E-01
         -2   -1    0    0    0  501 -0.00000000000E+00  0.00000000000E+00  0.12187279067E+04  0.12187279067E+04  0.00000000000E+00 0.  1.
          2   -1    0    0  501    0  0.00000000000E+00 -0.00000000000E+00 -0.15938557172E+04  0.15938557172E+04  0.00000000000E+00 0. -1.
         23    2    1    2    0    0  0.11910971264E+04 -0.84212678691E+02 -0.52328999441E+03  0.13071447503E+04  0.94820041567E+02 0.  0.
        254    2    1    2    0    0 -0.11910971264E+04  0.84212678691E+02  0.14816218391E+03  0.15054388736E+04  0.90475965301E+03 0.  0.
        -24    2    4    4    0    0 -0.73828455965E+03 -0.36690921119E+03 -0.53237013692E+02  0.83003839457E+03  0.80268901608E+02 0.  0.
         24    2    4    4    0    0 -0.45281256676E+03  0.45112188988E+03  0.20139919760E+03  0.67540047906E+03  0.83988035934E+02 0.  0.
         13    1    3    3    0    0  0.69353034321E+03 -0.82679916516E+02 -0.34094851354E+03  0.77721695455E+03  0.00000000000E+00 0.  1.
        -13    1    3    3    0    0  0.49756678320E+03 -0.15327621743E+01 -0.18234148087E+03  0.52992779579E+03  0.00000000000E+00 0. -1.
          2    1    6    6  502    0 -0.28021104119E+03  0.24514666940E+03  0.15211309167E+03  0.40218591445E+03  0.00000000000E+00 0. -1.
          3    1    5    5  503    0 -0.25365053234E+03 -0.88040875238E+02 -0.33189710939E+02  0.27053899013E+03  0.00000000000E+00 0. -1.
         -4    1    5    5    0  503 -0.48463402731E+03 -0.27886833595E+03 -0.20047302753E+02  0.55949940444E+03  0.00000000000E+00 0.  1.
         -1    1    6    6    0  502 -0.17260152557E+03  0.20597522047E+03  0.49286105934E+02  0.27321456461E+03  0.00000000000E+00 0.  1.
<mgrwt>
<rscale>  0 0.27874551E+04</rscale>
<asrwt>0</asrwt>
<pdfrwt beam="1">  1        2 0.24520857E+00 0.27874551E+04</pdfrwt>
<pdfrwt beam="2">  1       -2 0.18749660E+00 0.27874551E+04</pdfrwt>
<totfact> 0.15779700E+00</totfact>
</mgrwt>
</event>
<event>
12    1  0.1201209E-007  0.2654861E+04  0.7818608E-02  0.8349801E-01
         -1   -1    0    0    0  501 -0.00000000000E+00  0.00000000000E+00  0.11037837373E+04  0.11037837373E+04  0.00000000000E+00 0.  1.
          1   -1    0    0  501    0  0.00000000000E+00 -0.00000000000E+00 -0.15963919846E+04  0.15963919846E+04  0.00000000000E+00 0. -1.
         23    2    1    2    0    0  0.37387282306E+03 -0.48618929046E+03  0.79721036813E+03  0.10104791757E+04  0.96761972849E+02 0.  0.
        254    2    1    2    0    0 -0.37387282306E+03  0.48618929046E+03 -0.12898186155E+04  0.16896965462E+04  0.90292936791E+03 0.  0.
        -24    2    4    4    0    0 -0.51114942540E+03  0.65250564833E+03 -0.11547750725E+04  0.14236060393E+04  0.78175002479E+02 0.  0.
         24    2    4    4    0    0  0.13727660233E+03 -0.16631635787E+03 -0.13504354301E+03  0.26609050688E+03  0.77855012052E+02 0.  0.
         13    1    3    3    0    0  0.98915725106E+02 -0.11866863610E+03  0.27335698575E+03  0.31399141314E+03  0.00000000000E+00 0. -1.
        -13    1    3    3    0    0  0.27495709796E+03 -0.36752065437E+03  0.52385338238E+03  0.69648776252E+03  0.00000000000E+00 0.  1.
          4    1    6    6  502    0  0.76268727002E+02 -0.10077232216E+03 -0.12189739124E+03  0.17558745292E+03  0.00000000000E+00 0. -1.
          1    1    5    5  503    0 -0.13964986835E+03  0.21034809618E+03 -0.30129013502E+03  0.39309560256E+03  0.00000000000E+00 0. -1.
         -2    1    5    5    0  503 -0.37149955704E+03  0.44215755215E+03 -0.85348493748E+03  0.10305104368E+04  0.00000000000E+00 0.  1.
         -3    1    6    6    0  502  0.61007875331E+02 -0.65544035712E+02 -0.13146151762E+02  0.90503053959E+02  0.00000000000E+00 0.  1.
<mgrwt>
<rscale>  0 0.26548608E+04</rscale>
<asrwt>0</asrwt>
<pdfrwt beam="1">  1        1 0.24559877E+00 0.26548608E+04</pdfrwt>
<pdfrwt beam="2">  1       -1 0.16981288E+00 0.26548608E+04</pdfrwt>
<totfact> 0.12143642E+00</totfact>
</mgrwt>
</event>
<event>
12    1  0.1201209E-007  0.2068671E+04  0.7818608E-02  0.8575171E-01
         -2   -1    0    0    0  501 -0.00000000000E+00  0.00000000000E+00  0.18174517559E+04  0.18174517559E+04  0.00000000000E+00 0.  1.
          2   -1    0    0  501    0  0.00000000000E+00 -0.00000000000E+00 -0.58865382846E+03  0.58865382846E+03  0.00000000000E+00 0. -1.
         23    2    1    2    0    0 -0.51239049273E+03  0.47699304768E+03 -0.38603831788E+02  0.70706851315E+03  0.91592804831E+02 0.  0.
        254    2    1    2    0    0  0.51239049273E+03 -0.47699304768E+03  0.12674017592E+04  0.16990370712E+04  0.88901820314E+03 0.  0.
        -24    2    4    4    0    0  0.34865382337E+03 -0.71195999711E+03  0.70858143078E+03  0.10662314466E+04  0.79469035814E+02 0.  0.
         24    2    4    4    0    0  0.16373666935E+03  0.23496694943E+03  0.55882032846E+03  0.63280562463E+03  0.78381342397E+02 0.  0.
         13    1    3    3    0    0 -0.50510309793E+03  0.45593027276E+03 -0.24885328405E+02  0.68089707940E+03  0.00000000000E+00 0. -1.
        -13    1    3    3    0    0 -0.72873947997E+01  0.21062774912E+02 -0.13718503383E+02  0.26171433759E+02  0.00000000000E+00 0.  1.
          2    1    6    6  502    0  0.16080639682E+03  0.17802003872E+03  0.45286749840E+03  0.51248297781E+03  0.00000000000E+00 0. -1.
          1    1    5    5  503    0  0.27523521081E+03 -0.59316934151E+03  0.61828476845E+03  0.89993352192E+03  0.00000000000E+00 0. -1.
         -2    1    5    5    0  503  0.73418612559E+02 -0.11879065559E+03  0.90296662337E+02  0.16629792469E+03  0.00000000000E+00 0.  1.
         -1    1    6    6    0  502  0.29302725366E+01  0.56946910711E+02  0.10595283007E+03  0.12032264681E+03  0.00000000000E+00 0.  1.
<mgrwt>
<rscale>  0 0.20686710E+04</rscale>
<asrwt>0</asrwt>
<pdfrwt beam="1">  1        2 0.90562128E-01 0.20686710E+04</pdfrwt>
<pdfrwt beam="2">  1       -2 0.27960796E+00 0.20686710E+04</pdfrwt>
<totfact> 0.19863759E+00</totfact>
</mgrwt>
</event>
<event>
12    1  0.1201209E-007  0.1894298E+04  0.7818608E-02  0.8657700E-01
          2   -1    0    0  501    0  0.00000000000E+00  0.00000000000E+00  0.12280876340E+04  0.12280876340E+04  0.00000000000E+00 0. -1.
         -2   -1    0    0    0  501 -0.00000000000E+00 -0.00000000000E+00 -0.73047832928E+03  0.73047832928E+03  0.00000000000E+00 0.  1.
         23    2    1    2    0    0  0.22102573510E+02  0.21363960639E+03  0.91737539000E+03  0.94657232699E+03  0.91055800839E+02 0.  0.
        254    2    1    2    0    0 -0.22102573510E+02 -0.21363960639E+03 -0.41976608523E+03  0.10119936363E+04  0.89543126397E+03 0.  0.
        -24    2    4    4    0    0  0.28560330204E+03 -0.27080802828E+03 -0.53518895002E+03  0.66911133617E+03  0.79853200629E+02 0.  0.
         24    2    4    4    0    0 -0.30770587555E+03  0.57168421885E+02  0.11542286478E+03  0.34288230017E+03  0.79339143848E+02 0.  0.
         11    1    3    3    0    0  0.47876376984E+02  0.19446302276E+03  0.75941924174E+03  0.78538245423E+03  0.00000000000E+00 0. -1.
        -11    1    3    3    0    0 -0.25773803474E+02  0.19176583635E+02  0.15795614826E+03  0.16118987275E+03  0.00000000000E+00 0.  1.
          4    1    6    6  502    0 -0.18903631957E+03  0.58111650404E+02  0.10457756052E+03  0.22371446130E+03  0.00000000000E+00 0. -1.
          3    1    5    5  503    0  0.14660434104E+02 -0.10206868632E+02 -0.63372525786E+02  0.65842125724E+02  0.00000000000E+00 0. -1.
         -4    1    5    5    0  503  0.27094286794E+03 -0.26060115965E+03 -0.47181642423E+03  0.60326921044E+03  0.00000000000E+00 0.  1.
         -3    1    6    6    0  502 -0.11866955598E+03 -0.94322851925E+00  0.10845304258E+02  0.11916783887E+03  0.00000000000E+00 0.  1.
<mgrwt>
<rscale>  0 0.18942982E+04</rscale>
<asrwt>0</asrwt>
<pdfrwt beam="1">  1        2 0.18893656E+00 0.18942982E+04</pdfrwt>
<pdfrwt beam="2">  1       -2 0.11238128E+00 0.18942982E+04</pdfrwt>
<totfact> 0.10652509E+01</totfact>
</mgrwt>
</event>
<event>
12    1  0.1201209E-007  0.3473630E+04  0.7818608E-02  0.8120068E-01
          2   -1    0    0  501    0  0.00000000000E+00  0.00000000000E+00  0.10603182228E+04  0.10603182228E+04  0.00000000000E+00 0.  1.
         -2   -1    0    0    0  501 -0.00000000000E+00 -0.00000000000E+00 -0.28449254351E+04  0.28449254351E+04  0.00000000000E+00 0. -1.
         23    2    1    2    0    0  0.12304072066E+04 -0.18994152303E+03  0.33022324129E+03  0.12910764319E+04  0.88607493173E+02 0.  0.
        254    2    1    2    0    0 -0.12304072066E+04  0.18994152303E+03 -0.21148304537E+04  0.26141672260E+04  0.90076787327E+03 0.  0.
        -24    2    4    4    0    0 -0.75182451120E+03  0.43186925222E+03 -0.17650751676E+04  0.19681173608E+04  0.79021846388E+02 0.  0.
         24    2    4    4    0    0 -0.47858269536E+03 -0.24192772919E+03 -0.34975528612E+03  0.64604986516E+03  0.86494194351E+02 0.  0.
         13    1    3    3    0    0  0.49012307660E+03 -0.69062302784E+02  0.17579554553E+03  0.52525641901E+03  0.00000000000E+00 0. -1.
        -13    1    3    3    0    0  0.74028412996E+03 -0.12087922025E+03  0.15442769576E+03  0.76582001291E+03  0.00000000000E+00 0.  1.
          4    1    6    6  502    0 -0.41744549449E+03 -0.23621587139E+03 -0.32727193481E+03  0.58065962326E+03  0.00000000000E+00 0. -1.
          1    1    5    5  503    0 -0.42883328622E+03  0.22550373314E+03 -0.10635649258E+04  0.11687259184E+04  0.00000000000E+00 0. -1.
         -2    1    5    5    0  503 -0.32299122497E+03  0.20636551909E+03 -0.70151024177E+03  0.79939144241E+03  0.00000000000E+00 0.  1.
         -3    1    6    6    0  502 -0.61137200872E+02 -0.57118577960E+01 -0.22483351303E+02  0.65390241900E+02  0.00000000000E+00 0.  1.
<mgrwt>
<rscale>  0 0.34736300E+04</rscale>
<asrwt>0</asrwt>
<pdfrwt beam="1">  1        2 0.16312588E+00 0.34736300E+04</pdfrwt>
<pdfrwt beam="2">  1       -2 0.43768084E+00 0.34736300E+04</pdfrwt>
<totfact> 0.79443112E-02</totfact>
</mgrwt>
</event>
<event>
12    1  0.1201209E-007  0.2972558E+04  0.7818608E-02  0.8251611E-01
         -2   -1    0    0    0  501 -0.00000000000E+00  0.00000000000E+00  0.89671305422E+03  0.89671305422E+03  0.00000000000E+00 0. -1.
          2   -1    0    0  501    0  0.00000000000E+00 -0.00000000000E+00 -0.24634701337E+04  0.24634701337E+04  0.00000000000E+00 0.  1.
         23    2    1    2    0    0  0.69118953242E+02  0.13191521733E+04 -0.39672385583E+03  0.13823247449E+04  0.92152029821E+02 0.  0.
        254    2    1    2    0    0 -0.69118953242E+02 -0.13191521733E+04 -0.11700332236E+04  0.19778584430E+04  0.89331203409E+03 0.  0.
        -24    2    4    4    0    0 -0.21608626258E+03 -0.13819110038E+04 -0.94242211869E+03  0.16884753194E+04  0.80113414793E+02 0.  0.
         24    2    4    4    0    0  0.14696730934E+03  0.62758830547E+02 -0.22761110495E+03  0.28938312357E+03  0.79985725509E+02 0.  0.
         11    1    3    3    0    0  0.89101290582E+02  0.86430144288E+03 -0.26096815374E+03  0.90722676405E+03  0.00000000000E+00 0.  1.
        -11    1    3    3    0    0 -0.19982337340E+02  0.45485073039E+03 -0.13575570210E+03  0.47509798083E+03  0.00000000000E+00 0. -1.
          2    1    6    6  502    0  0.12798598414E+03  0.17829758150E+02 -0.17633778262E+03  0.21861684745E+03  0.00000000000E+00 0. -1.
          1    1    5    5  503    0 -0.16273164365E+03 -0.90422765468E+03 -0.58022654541E+03  0.10866333712E+04  0.00000000000E+00 0. -1.
         -2    1    5    5    0  503 -0.53354618931E+02 -0.47768334914E+03 -0.36219557328E+03  0.60184194828E+03  0.00000000000E+00 0.  1.
         -1    1    6    6    0  502  0.18981325204E+02  0.44929072397E+02 -0.51273322327E+02  0.70766276117E+02  0.00000000000E+00 0.  1.
<mgrwt>
<rscale>  0 0.29725584E+04</rscale>
<asrwt>0</asrwt>
<pdfrwt beam="1">  1        2 0.37899540E+00 0.29725584E+04</pdfrwt>
<pdfrwt beam="2">  1       -2 0.13795585E+00 0.29725584E+04</pdfrwt>
<totfact> 0.11697988E+00</totfact>
</mgrwt>
</event>
<event>
12    1  0.1201209E-007  0.2965079E+04  0.7818608E-02  0.8253774E-01
         -2   -1    0    0    0  501 -0.00000000000E+00  0.00000000000E+00  0.10510267643E+04  0.10510267643E+04  0.00000000000E+00 0.  1.
          2   -1    0    0  501    0  0.00000000000E+00 -0.00000000000E+00 -0.20912154334E+04  0.20912154334E+04  0.00000000000E+00 0. -1.
         23    2    1    2    0    0  0.50169401360E+03  0.12392371585E+04 -0.44265299053E+03  0.14112794451E+04  0.91446070894E+02 0.  0.
        254    2    1    2    0    0 -0.50169401360E+03 -0.12392371585E+04 -0.59753567863E+03  0.17309627526E+04  0.92291795150E+03 0.  0.
        -24    2    4    4    0    0 -0.28463721859E+03 -0.10987473537E+04 -0.72453435441E+02  0.11401096488E+04  0.79601617647E+02 0.  0.
         24    2    4    4    0    0 -0.21705679501E+03 -0.14048980479E+03 -0.52508224319E+03  0.59085310373E+03  0.80901115972E+02 0.  0.
         13    1    3    3    0    0  0.32469857327E+03  0.74539920866E+03 -0.22752816853E+03  0.84428562183E+03  0.00000000000E+00 0. -1.
        -13    1    3    3    0    0  0.17699544033E+03  0.49383794984E+03 -0.21512482200E+03  0.56699382328E+03  0.00000000000E+00 0.  1.
          4    1    6    6  502    0 -0.21444915480E+03 -0.13624258478E+03 -0.52736194560E+03  0.58537261942E+03  0.00000000000E+00 0. -1.
          1    1    5    5  503    0 -0.10777785781E+03 -0.50575760042E+03 -0.29054705788E+00  0.51711401202E+03  0.00000000000E+00 0. -1.
         -2    1    5    5    0  503 -0.17685936078E+03 -0.59298975330E+03 -0.72162888383E+02  0.62299563680E+03  0.00000000000E+00 0.  1.
         -3    1    6    6    0  502 -0.26076402141E+01 -0.42472200083E+01  0.22797024039E+01  0.54804843158E+01  0.00000000000E+00 0.  1.
<mgrwt>
<rscale>  0 0.29650790E+04</rscale>
<asrwt>0</asrwt>
<pdfrwt beam="1">  1        2 0.32172545E+00 0.29650790E+04</pdfrwt>
<pdfrwt beam="2">  1       -2 0.16169643E+00 0.29650790E+04</pdfrwt>
<totfact> 0.12486249E+00</totfact>
</mgrwt>
</event>
<event>
12    1  0.1201209E-007  0.1405038E+04  0.7818608E-02  0.8950179E-01
         -2   -1    0    0    0  501 -0.00000000000E+00  0.00000000000E+00  0.22033433597E+03  0.22033433597E+03  0.00000000000E+00 0.  1.
          2   -1    0    0  501    0  0.00000000000E+00 -0.00000000000E+00 -0.22399291009E+04  0.22399291009E+04  0.00000000000E+00 0. -1.
         23    2    1    2    0    0  0.26725894199E+03 -0.30050576210E+03 -0.52975875421E+03  0.67126514731E+03  0.90672516186E+02 0.  0.
        254    2    1    2    0    0 -0.26725894199E+03  0.30050576210E+03 -0.14898360107E+04  0.17889982895E+04  0.90508148034E+03 0.  0.
        -24    2    4    4    0    0 -0.35141940336E+03 -0.89476235396E+02 -0.12755060722E+04  0.13287807962E+04  0.85094480321E+02 0.  0.
         24    2    4    4    0    0  0.84160461367E+02  0.38998199750E+03 -0.21432993853E+03  0.46021749328E+03  0.81816116652E+02 0.  0.
         13    1    3    3    0    0  0.19057922629E+03 -0.18564166484E+03 -0.40838808603E+03  0.48740547599E+03  0.00000000000E+00 0.  1.
        -13    1    3    3    0    0  0.76679715705E+02 -0.11486409726E+03 -0.12137066819E+03  0.18385967132E+03  0.00000000000E+00 0. -1.
          4    1    6    6  502    0 -0.10257738047E+02  0.10982156765E+03 -0.42067899382E+02  0.11804959157E+03  0.00000000000E+00 0. -1.
          3    1    5    5  503    0 -0.20507316203E+03 -0.72800566282E+02 -0.88662719149E+03  0.91294178398E+03  0.00000000000E+00 0. -1.
         -4    1    5    5    0  503 -0.14634624133E+03 -0.16675669114E+02 -0.38887888068E+03  0.41583901227E+03  0.00000000000E+00 0.  1.
         -3    1    6    6    0  502  0.94418199414E+02  0.28016042985E+03 -0.17226203914E+03  0.34216790171E+03  0.00000000000E+00 0.  1.
<mgrwt>
<rscale>  0 0.14050385E+04</rscale>
<asrwt>0</asrwt>
<pdfrwt beam="1">  1        2 0.34460447E+00 0.14050385E+04</pdfrwt>
<pdfrwt beam="2">  1       -2 0.33897591E-01 0.14050385E+04</pdfrwt>
<totfact> 0.38917004E+01</totfact>
</mgrwt>
</event>
<event>
12    1  0.1201209E-007  0.1482375E+04  0.7818608E-02  0.8896259E-01
         -2   -1    0    0    0  501 -0.00000000000E+00  0.00000000000E+00  0.59167418284E+03  0.59167418284E+03  0.00000000000E+00 0.  1.
          2   -1    0    0  501    0  0.00000000000E+00 -0.00000000000E+00 -0.92848158812E+03  0.92848158812E+03  0.00000000000E+00 0. -1.
         23    2    1    2    0    0  0.29021609345E+03  0.14727969032E+03  0.22670253909E+03  0.40675429822E+03  0.90212692110E+02 0.  0.
        254    2    1    2    0    0 -0.29021609345E+03 -0.14727969032E+03 -0.56350994437E+03  0.11134014727E+04  0.90343936932E+03 0.  0.
        -24    2    4    4    0    0 -0.29567125529E+03 -0.83917161873E+02  0.17884945541E+03  0.36383590498E+03  0.76979586837E+02 0.  0.
         24    2    4    4    0    0  0.54551618458E+01 -0.63362528446E+02 -0.74235939978E+03  0.74956556777E+03  0.81893181262E+02 0.  0.
         11    1    3    3    0    0  0.67457626439E+02  0.32344476552E+02  0.10134599339E+02  0.75494414574E+02  0.00000000000E+00 0. -1.
        -11    1    3    3    0    0  0.22275846701E+03  0.11493521377E+03  0.21656793975E+03  0.33125988365E+03  0.00000000000E+00 0.  1.
          4    1    6    6  502    0  0.10823737507E+01 -0.71113883695E+02 -0.73373062980E+03  0.73716958231E+03  0.00000000000E+00 0. -1.
          1    1    5    5  503    0 -0.24906179750E+03 -0.95188641727E+02  0.16639208901E+03  0.31429124037E+03  0.00000000000E+00 0. -1.
         -2    1    5    5    0  503 -0.46609457789E+02  0.11271479854E+02  0.12457366397E+02  0.49544664607E+02  0.00000000000E+00 0.  1.
         -3    1    6    6    0  502  0.43727880951E+01  0.77513552486E+01 -0.86287699838E+01  0.12395985453E+02  0.00000000000E+00 0.  1.
<mgrwt>
<rscale>  0 0.14823746E+04</rscale>
<asrwt>0</asrwt>
<pdfrwt beam="1">  1        2 0.14284332E+00 0.14823746E+04</pdfrwt>
<pdfrwt beam="2">  1       -2 0.91026798E-01 0.14823746E+04</pdfrwt>
<totfact> 0.27950579E+01</totfact>
</mgrwt>
</event>
<event>
12    1  0.1201209E-007  0.1954757E+04  0.7818608E-02  0.8628070E-01
         -2   -1    0    0    0  501 -0.00000000000E+00  0.00000000000E+00  0.15714900783E+04  0.15714900783E+04  0.00000000000E+00 0.  1.
          2   -1    0    0  501    0  0.00000000000E+00 -0.00000000000E+00 -0.60787456761E+03  0.60787456761E+03  0.00000000000E+00 0. -1.
         23    2    1    2    0    0  0.21680725643E+03  0.73699058255E+03  0.38958346599E+03  0.86621944360E+03  0.91653381249E+02 0.  0.
        254    2    1    2    0    0 -0.21680725643E+03 -0.73699058255E+03  0.57403204475E+03  0.13131452024E+04  0.89703791941E+03 0.  0.
        -24    2    4    4    0    0 -0.46420862005E+03 -0.75971404541E+03  0.31980183945E+03  0.94923682132E+03  0.78244825482E+02 0.  0.
         24    2    4    4    0    0  0.24740136362E+03  0.22723462855E+02  0.25423020530E+03  0.36390838104E+03  0.77926388471E+02 0.  0.
         13    1    3    3    0    0  0.71710154453E+02  0.17644455164E+03  0.58581588235E+02  0.19926572343E+03  0.00000000000E+00 0.  1.
        -13    1    3    3    0    0  0.14509710198E+03  0.56054603092E+03  0.33100187775E+03  0.66695372017E+03  0.00000000000E+00 0. -1.
          2    1    6    6  502    0  0.93093595941E+02  0.30451208112E+02  0.56850317830E+02  0.11325039655E+03  0.00000000000E+00 0. -1.
          1    1    5    5  503    0 -0.34552887217E+02 -0.58983684598E+02  0.47884379794E+02  0.83461912822E+02  0.00000000000E+00 0. -1.
         -2    1    5    5    0  503 -0.42965573283E+03 -0.70073036081E+03  0.27191745965E+03  0.86577490849E+03  0.00000000000E+00 0.  1.
         -1    1    6    6    0  502  0.15430776768E+03 -0.77277452573E+01  0.19737988747E+03  0.25065798450E+03  0.00000000000E+00 0.  1.
<mgrwt>
<rscale>  0 0.19547571E+04</rscale>
<asrwt>0</asrwt>
<pdfrwt beam="1">  1        2 0.93519165E-01 0.19547571E+04</pdfrwt>
<pdfrwt beam="2">  1       -2 0.24176770E+00 0.19547571E+04</pdfrwt>
<totfact> 0.32869582E+00</totfact>
</mgrwt>
</event>
<event>
12    1  0.1201209E-007  0.1315102E+04  0.7818608E-02  0.9017674E-01
          2   -1    0    0  501    0  0.00000000000E+00  0.00000000000E+00  0.12193017339E+04  0.12193017339E+04  0.00000000000E+00 0. -1.
         -2   -1    0    0    0  501 -0.00000000000E+00 -0.00000000000E+00 -0.35460733844E+03  0.35460733844E+03  0.00000000000E+00 0.  1.
         23    2    1    2    0    0  0.13411404583E+03 -0.16760980791E+03 -0.85570401062E+02  0.24953356109E+03  0.94154551548E+02 0.  0.
        254    2    1    2    0    0 -0.13411404583E+03  0.16760980791E+03  0.95026479650E+03  0.13243755112E+04  0.89715533008E+03 0.  0.
        -24    2    4    4    0    0  0.13505118551E+03 -0.24970090523E+03  0.59339228609E+02  0.30127225755E+03  0.81574900156E+02 0.  0.
         24    2    4    4    0    0 -0.26916523134E+03  0.41731071314E+03  0.89092556790E+03  0.10231032537E+04  0.79960909832E+02 0.  0.
         11    1    3    3    0    0  0.40396162940E+02 -0.33960226088E+02 -0.66937928056E+02  0.85239856573E+02  0.00000000000E+00 0.  1.
        -11    1    3    3    0    0  0.93717882891E+02 -0.13364958182E+03 -0.18632473006E+02  0.16429370452E+03  0.00000000000E+00 0. -1.
          2    1    6    6  502    0 -0.19973728482E+03  0.24293324814E+03  0.58533669239E+03  0.66447768169E+03  0.00000000000E+00 0. -1.
          1    1    5    5  503    0  0.11294816304E+03 -0.21936307953E+03  0.78774213733E+02  0.25900352304E+03  0.00000000000E+00 0. -1.
         -2    1    5    5    0  503  0.22103022474E+02 -0.30337825699E+02 -0.19434985124E+02  0.42268734513E+02  0.00000000000E+00 0.  1.
         -1    1    6    6    0  502 -0.69427946520E+02  0.17437746500E+03  0.30558887550E+03  0.35862557199E+03  0.00000000000E+00 0.  1.
<mgrwt>
<rscale>  0 0.13151020E+04</rscale>
<asrwt>0</asrwt>
<pdfrwt beam="1">  1        2 0.18758488E+00 0.13151020E+04</pdfrwt>
<pdfrwt beam="2">  1       -2 0.54554976E-01 0.13151020E+04</pdfrwt>
<totfact> 0.57098957E+01</totfact>
</mgrwt>
</event>
<event>
12    1  0.1201209E-007  0.2218779E+04  0.7818608E-02  0.8510653E-01
          2   -1    0    0  501    0  0.00000000000E+00  0.00000000000E+00  0.24525006510E+04  0.24525006510E+04  0.00000000000E+00 0. -1.
         -2   -1    0    0    0  501 -0.00000000000E+00 -0.00000000000E+00 -0.50183250655E+03  0.50183250655E+03  0.00000000000E+00 0.  1.
         23    2    1    2    0    0  0.41843265004E+03  0.58280582050E+03  0.38762082836E+02  0.72434669600E+03  0.91799400319E+02 0.  0.
        254    2    1    2    0    0 -0.41843265004E+03 -0.58280582050E+03  0.19119060616E+04  0.22299864615E+04  0.89593879433E+03 0.  0.
        -24    2    4    4    0    0 -0.39858980551E+03 -0.79197589203E+03  0.12784870626E+04  0.15578741236E+04  0.79642760675E+02 0.  0.
         24    2    4    4    0    0 -0.19842844531E+02  0.20917007152E+03  0.63341899901E+03  0.67211233788E+03  0.79809204455E+02 0.  0.
         13    1    3    3    0    0  0.36900234968E+03  0.50716677140E+03  0.64194630040E+02  0.63047745289E+03  0.00000000000E+00 0.  1.
        -13    1    3    3    0    0  0.49430300369E+02  0.75639049101E+02 -0.25432547203E+02  0.93869243103E+02  0.00000000000E+00 0. -1.
          4    1    6    6  502    0 -0.41664992164E+02  0.15633501466E+03  0.52747061693E+03  0.55172625468E+03  0.00000000000E+00 0. -1.
          1    1    5    5  503    0 -0.17380425540E+03 -0.37868671471E+03  0.53632073914E+03  0.67915497666E+03  0.00000000000E+00 0. -1.
         -2    1    5    5    0  503 -0.22478555011E+03 -0.41328917732E+03  0.74216632343E+03  0.87871914698E+03  0.00000000000E+00 0.  1.
         -3    1    6    6    0  502  0.21822147633E+02  0.52835056864E+02  0.10594838208E+03  0.12038608319E+03  0.00000000000E+00 0.  1.
<mgrwt>
<rscale>  0 0.22187785E+04</rscale>
<asrwt>0</asrwt>
<pdfrwt beam="1">  1        2 0.37730779E+00 0.22187785E+04</pdfrwt>
<pdfrwt beam="2">  1       -2 0.77205002E-01 0.22187785E+04</pdfrwt>
<totfact> 0.50667714E+00</totfact>
</mgrwt>
</event>
<event>
12    1  0.1201209E-007  0.2086561E+04  0.7818608E-02  0.8567186E-01
         -1   -1    0    0    0  501 -0.00000000000E+00  0.00000000000E+00  0.13156018022E+04  0.13156018022E+04  0.00000000000E+00 0.  1.
          1   -1    0    0  501    0  0.00000000000E+00 -0.00000000000E+00 -0.82732834954E+03  0.82732834954E+03  0.00000000000E+00 0. -1.
         23    2    1    2    0    0 -0.90003850864E+02  0.83805100125E+03  0.51955422160E+02  0.84940248090E+03  0.91405879506E+02 0.  0.
        254    2    1    2    0    0  0.90003850864E+02 -0.83805100125E+03  0.43631803049E+03  0.12935276708E+04  0.87886872605E+03 0.  0.
        -24    2    4    4    0    0 -0.13420272216E+03 -0.22116176173E+03 -0.22966685669E+03  0.35500216851E+03  0.79729411764E+02 0.  0.
         24    2    4    4    0    0  0.22420657302E+03 -0.61688923952E+03  0.66598488718E+03  0.93852550233E+03  0.80456990705E+02 0.  0.
         11    1    3    3    0    0 -0.29809572697E+02  0.57040837441E+03  0.57844407941E+01  0.57121605718E+03  0.00000000000E+00 0.  1.
        -11    1    3    3    0    0 -0.60194278167E+02  0.26764262683E+03  0.46170981366E+02  0.27818642372E+03  0.00000000000E+00 0. -1.
          2    1    6    6  502    0  0.49114466298E+02 -0.19400690436E+03  0.15982860195E+03  0.25611733979E+03  0.00000000000E+00 0. -1.
          1    1    5    5  503    0 -0.44787080173E+02 -0.51526593746E+02 -0.20597695357E+02  0.71310149821E+02  0.00000000000E+00 0. -1.
         -2    1    5    5    0  503 -0.89415641984E+02 -0.16963516798E+03 -0.20906916133E+03  0.28369201869E+03  0.00000000000E+00 0.  1.
         -1    1    6    6    0  502  0.17509210672E+03 -0.42288233516E+03  0.50615628523E+03  0.68240816254E+03  0.00000000000E+00 0.  1.
<mgrwt>
<rscale>  0 0.20865614E+04</rscale>
<asrwt>0</asrwt>
<pdfrwt beam="1">  1        1 0.12728128E+00 0.20865614E+04</pdfrwt>
<pdfrwt beam="2">  1       -1 0.20240028E+00 0.20865614E+04</pdfrwt>
<totfact> 0.27928191E+00</totfact>
</mgrwt>
</event>
<event>
12    1  0.1201209E-007  0.2284859E+04  0.7818608E-02  0.8483915E-01
         -1   -1    0    0    0  501 -0.00000000000E+00  0.00000000000E+00  0.69208302354E+03  0.69208302354E+03  0.00000000000E+00 0.  1.
          1   -1    0    0  501    0  0.00000000000E+00 -0.00000000000E+00 -0.18858221915E+04  0.18858221915E+04  0.00000000000E+00 0. -1.
         23    2    1    2    0    0  0.20290016082E+03 -0.71924906654E+03 -0.11901657401E+04  0.14082605250E+04  0.90639518803E+02 0.  0.
        254    2    1    2    0    0 -0.20290016082E+03  0.71924906654E+03 -0.35734277983E+01  0.11696446900E+04  0.89976009939E+03 0.  0.
        -24    2    4    4    0    0 -0.24908987196E+03  0.56233796785E+03 -0.39671129581E+03  0.73622187729E+03  0.79831359627E+02 0.  0.
         24    2    4    4    0    0  0.46189711141E+02  0.15691109869E+03  0.39313786801E+03  0.43342281270E+03  0.80891093421E+02 0.  0.
         13    1    3    3    0    0  0.10160541250E+03 -0.20657021502E+03 -0.36303167553E+03  0.42986848108E+03  0.00000000000E+00 0.  1.
        -13    1    3    3    0    0  0.10129474831E+03 -0.51267885152E+03 -0.82713406460E+03  0.97839204394E+03  0.00000000000E+00 0. -1.
          2    1    6    6  502    0 -0.21142911424E+02  0.19261864080E+02  0.49528898450E+02  0.57194002246E+02  0.00000000000E+00 0. -1.
          1    1    5    5  503    0 -0.16612724483E+03  0.44436424329E+03 -0.28153721578E+03  0.55165301237E+03  0.00000000000E+00 0. -1.
         -2    1    5    5    0  503 -0.82962627130E+02  0.11797372456E+03 -0.11517408003E+03  0.18456886492E+03  0.00000000000E+00 0.  1.
         -1    1    6    6    0  502  0.67332622566E+02  0.13764923461E+03  0.34360896956E+03  0.37622881045E+03  0.00000000000E+00 0.  1.
<mgrwt>
<rscale>  0 0.22848593E+04</rscale>
<asrwt>0</asrwt>
<pdfrwt beam="1">  1        1 0.29012648E+00 0.22848593E+04</pdfrwt>
<pdfrwt beam="2">  1       -1 0.10647432E+00 0.22848593E+04</pdfrwt>
<totfact> 0.26563337E+00</totfact>
</mgrwt>
</event>
<event>
12    1  0.1201209E-007  0.1602367E+04  0.7818608E-02  0.8819095E-01
         -2   -1    0    0    0  501 -0.00000000000E+00  0.00000000000E+00  0.41746964744E+03  0.41746964744E+03  0.00000000000E+00 0.  1.
          2   -1    0    0  501    0  0.00000000000E+00 -0.00000000000E+00 -0.15375852284E+04  0.15375852284E+04  0.00000000000E+00 0. -1.
         23    2    1    2    0    0 -0.20853381403E+03 -0.11466662809E+01 -0.99848403578E+03  0.10240928660E+04  0.91149120203E+02 0.  0.
        254    2    1    2    0    0  0.20853381403E+03  0.11466662809E+01 -0.12163154522E+03  0.93096200985E+03  0.89911532327E+03 0.  0.
        -24    2    4    4    0    0  0.15784961972E+02 -0.30913206145E+03  0.24855597349E+03  0.40492607872E+03  0.79832705281E+02 0.  0.
         24    2    4    4    0    0  0.19274885206E+03  0.31027872773E+03 -0.37018751871E+03  0.52603593113E+03  0.79056897088E+02 0.  0.
         13    1    3    3    0    0 -0.16216400511E+02  0.16581697949E+02 -0.25071174844E+03  0.25178225744E+03  0.00000000000E+00 0.  1.
        -13    1    3    3    0    0 -0.19231741352E+03 -0.17728364230E+02 -0.74777228733E+03  0.77231060859E+03  0.00000000000E+00 0. -1.
          4    1    6    6  502    0  0.16102980847E+03  0.29939662198E+03 -0.33132289495E+03  0.47470390475E+03  0.00000000000E+00 0. -1.
          1    1    5    5  503    0  0.33036516205E+02 -0.28844073017E+03  0.23993447489E+03  0.37664043658E+03  0.00000000000E+00 0. -1.
         -2    1    5    5    0  503 -0.17251554232E+02 -0.20691331276E+02  0.86214985997E+01  0.28285642144E+02  0.00000000000E+00 0.  1.
         -3    1    6    6    0  502  0.31719043586E+02  0.10882105746E+02 -0.38864623761E+02  0.51332026373E+02  0.00000000000E+00 0.  1.
<mgrwt>
<rscale>  0 0.16023672E+04</rscale>
<asrwt>0</asrwt>
<pdfrwt beam="1">  1        2 0.23655157E+00 0.16023672E+04</pdfrwt>
<pdfrwt beam="2">  1       -2 0.64226100E-01 0.16023672E+04</pdfrwt>
<totfact> 0.25960860E+01</totfact>
</mgrwt>
</event>
<event>
12    1  0.1201209E-007  0.1985552E+04  0.7818608E-02  0.8613406E-01
          2   -1    0    0  501    0  0.00000000000E+00  0.00000000000E+00  0.48563304594E+04  0.48563304594E+04  0.00000000000E+00 0. -1.
         -2   -1    0    0    0  501 -0.00000000000E+00 -0.00000000000E+00 -0.20295242622E+03  0.20295242622E+03  0.00000000000E+00 0.  1.
         23    2    1    2    0    0  0.14659014662E+03 -0.48299241960E+03  0.31764681070E+03  0.60307046505E+03  0.89577569709E+02 0.  0.
        254    2    1    2    0    0 -0.14659014662E+03  0.48299241960E+03  0.43357312224E+04  0.44562124205E+04  0.89693564719E+03 0.  0.
        -24    2    4    4    0    0  0.11923719132E+03  0.42456192117E+03  0.39640325273E+04  0.39892888124E+04  0.80006365523E+02 0.  0.
         24    2    4    4    0    0 -0.26582733793E+03  0.58430498431E+02  0.37169869517E+03  0.46692360816E+03  0.76022622495E+02 0.  0.
         13    1    3    3    0    0  0.10079030394E+03 -0.23731774148E+03  0.20281496708E+03  0.32804314756E+03  0.00000000000E+00 0. -1.
        -13    1    3    3    0    0  0.45799842680E+02 -0.24567467812E+03  0.11483184362E+03  0.27502731749E+03  0.00000000000E+00 0.  1.
          4    1    6    6  502    0 -0.19713613577E+03  0.74609199480E+02  0.25870427436E+03  0.33370209805E+03  0.00000000000E+00 0. -1.
          1    1    5    5  503    0  0.82128592442E+02  0.25837063905E+03  0.27582390386E+04  0.27715308201E+04  0.00000000000E+00 0. -1.
         -2    1    5    5    0  503  0.37108598876E+02  0.16619128212E+03  0.12057934887E+04  0.12177579923E+04  0.00000000000E+00 0.  1.
         -3    1    6    6    0  502 -0.68691202169E+02 -0.16178701049E+02  0.11299442081E+03  0.13322151011E+03  0.00000000000E+00 0.  1.
<mgrwt>
<rscale>  0 0.19855519E+04</rscale>
<asrwt>0</asrwt>
<pdfrwt beam="1">  1        2 0.74712768E+00 0.19855519E+04</pdfrwt>
<pdfrwt beam="2">  1       -2 0.31223454E-01 0.19855519E+04</pdfrwt>
<totfact> 0.46443206E-01</totfact>
</mgrwt>
</event>
<event>
12    1  0.1201209E-007  0.2170148E+04  0.7818608E-02  0.8530957E-01
         -1   -1    0    0    0  501 -0.00000000000E+00  0.00000000000E+00  0.10635992063E+04  0.10635992063E+04  0.00000000000E+00 0.  1.
          1   -1    0    0  501    0  0.00000000000E+00 -0.00000000000E+00 -0.11069821818E+04  0.11069821818E+04  0.00000000000E+00 0. -1.
         23    2    1    2    0    0 -0.69376752140E+03  0.56911249837E+03 -0.61257940840E+01  0.90202149026E+03  0.91666973277E+02 0.  0.
        254    2    1    2    0    0  0.69376752140E+03 -0.56911249837E+03 -0.37257181420E+02  0.12685598979E+04  0.89590943037E+03 0.  0.
        -24    2    4    4    0    0  0.57516456524E+03 -0.65194400420E+02 -0.32797518604E+03  0.66945579919E+03  0.74422828948E+02 0.  0.
         24    2    4    4    0    0  0.11860295616E+03 -0.50391809795E+03  0.29071800462E+03  0.59910409870E+03  0.80054058108E+02 0.  0.
         13    1    3    3    0    0 -0.34585769627E+02  0.67332893842E+01  0.41496967092E+01  0.35478622146E+02  0.00000000000E+00 0.  1.
        -13    1    3    3    0    0 -0.65918175177E+03  0.56237920899E+03 -0.10275490793E+02  0.86654286811E+03  0.00000000000E+00 0. -1.
          4    1    6    6  502    0  0.39225273699E+02 -0.10171074685E+03  0.95953405528E+02  0.14522656146E+03  0.00000000000E+00 0. -1.
          3    1    5    5  503    0  0.14772195435E+03 -0.25214928879E+02 -0.12226583217E+03  0.19340760624E+03  0.00000000000E+00 0. -1.
         -4    1    5    5    0  503  0.42744261089E+03 -0.39979471541E+02 -0.20570935387E+03  0.47604819296E+03  0.00000000000E+00 0.  1.
         -3    1    6    6    0  502  0.79377682459E+02 -0.40220735110E+03  0.19476459909E+03  0.45387753724E+03  0.00000000000E+00 0.  1.
<mgrwt>
<rscale>  0 0.21701478E+04</rscale>
<asrwt>0</asrwt>
<pdfrwt beam="1">  1        1 0.17030495E+00 0.21701478E+04</pdfrwt>
<pdfrwt beam="2">  1       -1 0.16363065E+00 0.21701478E+04</pdfrwt>
<totfact> 0.31419217E+00</totfact>
</mgrwt>
</event>
<event>
12    1  0.1201209E-007  0.1959911E+04  0.7818608E-02  0.8625596E-01
          1   -1    0    0  501    0  0.00000000000E+00  0.00000000000E+00  0.46841435271E+03  0.46841435271E+03  0.00000000000E+00 0. -1.
         -1   -1    0    0    0  501 -0.00000000000E+00 -0.00000000000E+00 -0.20501355603E+04  0.20501355603E+04  0.00000000000E+00 0.  1.
         23    2    1    2    0    0  0.12446764616E+03 -0.36919144640E+03 -0.14770453932E+04  0.15302637750E+04  0.90827356036E+02 0.  0.
        254    2    1    2    0    0 -0.12446764616E+03  0.36919144640E+03 -0.10467581442E+03  0.98828613799E+03  0.90219617899E+03 0.  0.
        -24    2    4    4    0    0 -0.35627758130E+03 -0.15743081522E+03 -0.83889654667E+02  0.40710447604E+03  0.83536840601E+02 0.  0.
         24    2    4    4    0    0  0.23180993514E+03  0.52662226162E+03 -0.20786159755E+02  0.58118166195E+03  0.79203581281E+02 0.  0.
         11    1    3    3    0    0 -0.29153853022E+01 -0.10835453617E+03 -0.34732215549E+03  0.36384321441E+03  0.00000000000E+00 0. -1.
        -11    1    3    3    0    0  0.12738303146E+03 -0.26083691023E+03 -0.11297232377E+04  0.11664205606E+04  0.00000000000E+00 0.  1.
          4    1    6    6  502    0  0.67998719594E+02  0.25202520102E+03 -0.12087549902E+02  0.26131711900E+03  0.00000000000E+00 0. -1.
          3    1    5    5  503    0 -0.75596805360E+02 -0.10165814429E+02  0.89987180624E+01  0.76806234710E+02  0.00000000000E+00 0. -1.
         -4    1    5    5    0  503 -0.28068077594E+03 -0.14726500079E+03 -0.92888372730E+02  0.33029824133E+03  0.00000000000E+00 0.  1.
         -3    1    6    6    0  502  0.16381121555E+03  0.27459706060E+03 -0.86986098531E+01  0.31986454296E+03  0.00000000000E+00 0.  1.
<mgrwt>
<rscale>  0 0.19599111E+04</rscale>
<asrwt>0</asrwt>
<pdfrwt beam="1">  1        1 0.72063748E-01 0.19599111E+04</pdfrwt>
<pdfrwt beam="2">  1       -1 0.31540546E+00 0.19599111E+04</pdfrwt>
<totfact> 0.11847133E+00</totfact>
</mgrwt>
</event>
<event>
12    1  0.1201209E-007  0.1841914E+04  0.7818608E-02  0.8684322E-01
          2   -1    0    0  501    0  0.00000000000E+00  0.00000000000E+00  0.25603908446E+04  0.25603908446E+04  0.00000000000E+00 0. -1.
         -2   -1    0    0    0  501 -0.00000000000E+00 -0.00000000000E+00 -0.33126245997E+03  0.33126245997E+03  0.00000000000E+00 0.  1.
         23    2    1    2    0    0 -0.34702037087E+03 -0.46462497123E+03  0.24906970620E+03  0.63789939353E+03  0.92630535075E+02 0.  0.
        254    2    1    2    0    0  0.34702037087E+03  0.46462497123E+03  0.19800586784E+04  0.22537539110E+04  0.90690397495E+03 0.  0.
        -24    2    4    4    0    0  0.10841050523E+03  0.59800382334E+03  0.64884937870E+03  0.89250628870E+03  0.78743563230E+02 0.  0.
         24    2    4    4    0    0  0.23860986564E+03 -0.13337885210E+03  0.13312092997E+04  0.13612476223E+04  0.78436620690E+02 0.  0.
         11    1    3    3    0    0 -0.32900774507E+03 -0.39493768428E+03  0.23183208392E+03  0.56388650092E+03  0.00000000000E+00 0.  1.
        -11    1    3    3    0    0 -0.18012625796E+02 -0.69687286955E+02  0.17237622280E+02  0.74012892614E+02  0.00000000000E+00 0. -1.
          2    1    6    6  502    0  0.86974652912E+02 -0.28120063135E+02  0.29887886622E+03  0.31254424466E+03  0.00000000000E+00 0. -1.
          1    1    5    5  503    0 -0.84739565349E+01  0.42973045298E+02  0.66071519157E+02  0.79271282349E+02  0.00000000000E+00 0. -1.
         -2    1    5    5    0  503  0.11688446176E+03  0.55503077804E+03  0.58277785954E+03  0.81323500635E+03  0.00000000000E+00 0.  1.
         -1    1    6    6    0  502  0.15163521273E+03 -0.10525878897E+03  0.10323304335E+04  0.10487033777E+04  0.00000000000E+00 0.  1.
<mgrwt>
<rscale>  0 0.18419135E+04</rscale>
<asrwt>0</asrwt>
<pdfrwt beam="1">  1        2 0.39390627E+00 0.18419135E+04</pdfrwt>
<pdfrwt beam="2">  1       -2 0.50963457E-01 0.18419135E+04</pdfrwt>
<totfact> 0.11006412E+01</totfact>
</mgrwt>
</event>
<event>
12    1  0.1201209E-007  0.1222149E+04  0.7818608E-02  0.9093687E-01
          2   -1    0    0  501    0  0.00000000000E+00  0.00000000000E+00  0.10873905575E+04  0.10873905575E+04  0.00000000000E+00 0. -1.
         -2   -1    0    0    0  501 -0.00000000000E+00 -0.00000000000E+00 -0.34340215489E+03  0.34340215489E+03  0.00000000000E+00 0.  1.
         23    2    1    2    0    0 -0.23625505522E+03  0.46944469532E+02  0.60265040955E+02  0.26628221558E+03  0.96198278778E+02 0.  0.
        254    2    1    2    0    0  0.23625505522E+03 -0.46944469532E+02  0.68372336168E+03  0.11645104968E+04  0.91136536448E+03 0.  0.
        -24    2    4    4    0    0  0.46160909917E+03  0.21344258729E+03  0.17272282152E+03  0.54316775482E+03  0.80977393758E+02 0.  0.
         24    2    4    4    0    0 -0.22535404395E+03 -0.26038705682E+03  0.51100054016E+03  0.62134274200E+03  0.79745761730E+02 0.  0.
         11    1    3    3    0    0 -0.75830240791E+02  0.18766083756E+02  0.67500219424E+02  0.10324083950E+03  0.00000000000E+00 0. -1.
        -11    1    3    3    0    0 -0.16042481443E+03  0.28178385776E+02 -0.72351784696E+01  0.16304137609E+03  0.00000000000E+00 0.  1.
          2    1    6    6  502    0 -0.59836260794E+02 -0.44418675632E+02  0.64969208090E+02  0.98865539247E+02  0.00000000000E+00 0. -1.
          1    1    5    5  503    0  0.15537748165E+03  0.61740144927E+02  0.96423004127E+02  0.19300622535E+03  0.00000000000E+00 0. -1.
         -2    1    5    5    0  503  0.30623161752E+03  0.15170244236E+03  0.76299817392E+02  0.35016152947E+03  0.00000000000E+00 0.  1.
         -1    1    6    6    0  502 -0.16551778316E+03 -0.21596838119E+03  0.44603133207E+03  0.52247720276E+03  0.00000000000E+00 0.  1.
<mgrwt>
<rscale>  0 0.12221494E+04</rscale>
<asrwt>0</asrwt>
<pdfrwt beam="1">  1        2 0.16729085E+00 0.12221494E+04</pdfrwt>
<pdfrwt beam="2">  1       -2 0.52831101E-01 0.12221494E+04</pdfrwt>
<totfact> 0.73851373E+01</totfact>
</mgrwt>
</event>
<event>
12    1  0.1201209E-007  0.1327958E+04  0.7818608E-02  0.9007683E-01
          2   -1    0    0  501    0  0.00000000000E+00  0.00000000000E+00  0.12973098286E+04  0.12973098286E+04  0.00000000000E+00 0. -1.
         -2   -1    0    0    0  501 -0.00000000000E+00 -0.00000000000E+00 -0.33983274818E+03  0.33983274818E+03  0.00000000000E+00 0.  1.
         23    2    1    2    0    0 -0.10234802200E+03  0.28054658397E+02  0.68208242428E+03  0.69623705007E+03  0.90815279041E+02 0.  0.
        254    2    1    2    0    0  0.10234802200E+03 -0.28054658397E+02  0.27539465612E+03  0.94090552669E+03  0.89341972895E+03 0.  0.
        -24    2    4    4    0    0  0.21613611565E+03  0.31808805412E+03 -0.10662287670E+03  0.40676516474E+03  0.78705976586E+02 0.  0.
         24    2    4    4    0    0 -0.11378809365E+03 -0.34614271252E+03  0.38201753283E+03  0.53414036195E+03  0.81277445753E+02 0.  0.
         13    1    3    3    0    0  0.13800007249E+02  0.29016138579E+01  0.26984541944E+02  0.30447086347E+02  0.00000000000E+00 0.  1.
        -13    1    3    3    0    0 -0.11614802925E+03  0.25153044539E+02  0.65509788234E+03  0.66578996372E+03  0.00000000000E+00 0. -1.
          2    1    6    6  502    0 -0.79824838802E+02 -0.30597899093E+03  0.29498382408E+03  0.43244722712E+03  0.00000000000E+00 0. -1.
          3    1    5    5  503    0  0.13749106780E+03  0.18178656507E+03 -0.24434138489E+02  0.22923170830E+03  0.00000000000E+00 0. -1.
         -4    1    5    5    0  503  0.78645047843E+02  0.13630148905E+03 -0.82188738215E+02  0.17753345644E+03  0.00000000000E+00 0.  1.
         -1    1    6    6    0  502 -0.33963254844E+02 -0.40163721592E+02  0.87033708752E+02  0.10169313483E+03  0.00000000000E+00 0.  1.
<mgrwt>
<rscale>  0 0.13279584E+04</rscale>
<asrwt>0</asrwt>
<pdfrwt beam="1">  1        2 0.19958612E+00 0.13279584E+04</pdfrwt>
<pdfrwt beam="2">  1       -2 0.52281962E-01 0.13279584E+04</pdfrwt>
<totfact> 0.56035661E+01</totfact>
</mgrwt>
</event>
<event>
12    1  0.1201209E-007  0.1584790E+04  0.7818608E-02  0.8829947E-01
         -2   -1    0    0    0  501 -0.00000000000E+00  0.00000000000E+00  0.57662778645E+03  0.57662778645E+03  0.00000000000E+00 0.  1.
          2   -1    0    0  501    0  0.00000000000E+00 -0.00000000000E+00 -0.10888991638E+04  0.10888991638E+04  0.00000000000E+00 0. -1.
         23    2    1    2    0    0  0.13784014090E+03 -0.35166632968E+03  0.22086346404E+03  0.44686206452E+03  0.90751986639E+02 0.  0.
        254    2    1    2    0    0 -0.13784014090E+03  0.35166632968E+03 -0.73313484142E+03  0.12186648857E+04  0.89721139994E+03 0.  0.
        -24    2    4    4    0    0  0.14929897076E+03  0.33565831940E+03  0.50020780158E+02  0.37968276500E+03  0.81854954260E+02 0.  0.
         24    2    4    4    0    0 -0.28713911166E+03  0.16008010286E+02 -0.78315562157E+03  0.83898212075E+03  0.88617975038E+02 0.  0.
         13    1    3    3    0    0 -0.12061520212E+02 -0.18385637726E+02  0.20675750611E+02  0.30182753482E+02  0.00000000000E+00 0. -1.
        -13    1    3    3    0    0  0.14990166111E+03 -0.33328069196E+03  0.20018771343E+03  0.41667931104E+03  0.00000000000E+00 0.  1.
          4    1    6    6  502    0 -0.67397965152E+02  0.12705814605E+02 -0.30684691226E+03  0.31441843297E+03  0.00000000000E+00 0. -1.
          3    1    5    5  503    0  0.24257398710E+02  0.78289644072E+02  0.44999966013E+02  0.93502335277E+02  0.00000000000E+00 0. -1.
         -4    1    5    5    0  503  0.12504157205E+03  0.25736867533E+03  0.50208141450E+01  0.28618042972E+03  0.00000000000E+00 0.  1.
         -3    1    6    6    0  502 -0.21974114651E+03  0.33021956807E+01 -0.47630870932E+03  0.52456368778E+03  0.00000000000E+00 0.  1.
<mgrwt>
<rscale>  0 0.15847896E+04</rscale>
<asrwt>0</asrwt>
<pdfrwt beam="1">  1        2 0.16752295E+00 0.15847896E+04</pdfrwt>
<pdfrwt beam="2">  1       -2 0.88711968E-01 0.15847896E+04</pdfrwt>
<totfact> 0.23220125E+01</totfact>
</mgrwt>
</event>
<event>
12    1  0.1201209E-007  0.2043993E+04  0.7818608E-02  0.8586324E-01
         -2   -1    0    0    0  501 -0.00000000000E+00  0.00000000000E+00  0.95003014963E+03  0.95003014963E+03  0.00000000000E+00 0. -1.
          2   -1    0    0  501    0  0.00000000000E+00 -0.00000000000E+00 -0.10994149082E+04  0.10994149082E+04  0.00000000000E+00 0.  1.
         23    2    1    2    0    0 -0.46425883443E+03  0.12930504838E+03  0.61307872830E+03  0.78522172064E+03  0.91932380478E+02 0.  0.
        254    2    1    2    0    0  0.46425883443E+03 -0.12930504838E+03 -0.76246348685E+03  0.12642233372E+04  0.88580698609E+03 0.  0.
        -24    2    4    4    0    0  0.25373461982E+03  0.36550702367E+03 -0.44749509349E+03  0.63608781362E+03  0.79869933598E+02 0.  0.
         24    2    4    4    0    0  0.21052421461E+03 -0.49481207205E+03 -0.31496839336E+03  0.62813552355E+03  0.78674745346E+02 0.  0.
         11    1    3    3    0    0 -0.23017582903E+03  0.57833653503E+02  0.22906349793E+03  0.32984197706E+03  0.00000000000E+00 0. -1.
        -11    1    3    3    0    0 -0.23408300540E+03  0.71471394877E+02  0.38401523037E+03  0.45537974358E+03  0.00000000000E+00 0.  1.
          4    1    6    6  502    0  0.14646832765E+02 -0.11535623566E+03 -0.73470905710E+02  0.13754840894E+03  0.00000000000E+00 0. -1.
          3    1    5    5  503    0  0.69785672285E+02  0.10855945531E+03 -0.81896500951E+02  0.15284708784E+03  0.00000000000E+00 0. -1.
         -4    1    5    5    0  503  0.18394894754E+03  0.25694756835E+03 -0.36559859254E+03  0.48324072578E+03  0.00000000000E+00 0.  1.
         -3    1    6    6    0  502  0.19587738184E+03 -0.37945583639E+03 -0.24149748765E+03  0.49058711462E+03  0.00000000000E+00 0.  1.
<mgrwt>
<rscale>  0 0.20439935E+04</rscale>
<asrwt>0</asrwt>
<pdfrwt beam="1">  1        2 0.16914075E+00 0.20439935E+04</pdfrwt>
<pdfrwt beam="2">  1       -2 0.14615849E+00 0.20439935E+04</pdfrwt>
<totfact> 0.64773939E+00</totfact>
</mgrwt>
</event>
<event>
12    1  0.1201209E-007  0.1936037E+04  0.7818608E-02  0.8637124E-01
          1   -1    0    0  501    0  0.00000000000E+00  0.00000000000E+00  0.75503441854E+03  0.75503441854E+03  0.00000000000E+00 0. -1.
         -1   -1    0    0    0  501 -0.00000000000E+00 -0.00000000000E+00 -0.12410816759E+04  0.12410816759E+04  0.00000000000E+00 0.  1.
         23    2    1    2    0    0  0.13060673786E+02  0.53583940628E+03 -0.74835800604E+03  0.92489394756E+03  0.89970320116E+02 0.  0.
        254    2    1    2    0    0 -0.13060673786E+02 -0.53583940628E+03  0.26231074863E+03  0.10712221469E+04  0.88961537121E+03 0.  0.
        -24    2    4    4    0    0 -0.30958057562E+03 -0.49723326143E+03  0.41850917693E+03  0.72451833575E+03  0.81828103945E+02 0.  0.
         24    2    4    4    0    0  0.29651990183E+03 -0.38606144847E+02 -0.15619842830E+03  0.34670381117E+03  0.79944337336E+02 0.  0.
         11    1    3    3    0    0  0.13367371932E+02  0.15337352066E+02 -0.13668978963E+02  0.24510446480E+02  0.00000000000E+00 0. -1.
        -11    1    3    3    0    0 -0.30669814631E+00  0.52050205421E+03 -0.73468902708E+03  0.90038350108E+03  0.00000000000E+00 0.  1.
          2    1    6    6  502    0  0.59837859882E+02 -0.24504966936E+02 -0.67716722540E+02  0.93630216231E+02  0.00000000000E+00 0. -1.
          3    1    5    5  503    0 -0.31412990609E+02 -0.16211912509E+02  0.31690829831E+02  0.47475370263E+02  0.00000000000E+00 0. -1.
         -4    1    5    5    0  503 -0.27816758501E+03 -0.48102134892E+03  0.38681834710E+03  0.67704296549E+03  0.00000000000E+00 0.  1.
         -1    1    6    6    0  502  0.23668204195E+03 -0.14101177911E+02 -0.88481705760E+02  0.25307359494E+03  0.00000000000E+00 0.  1.
<mgrwt>
<rscale>  0 0.19360366E+04</rscale>
<asrwt>0</asrwt>
<pdfrwt beam="1">  1        1 0.11615914E+00 0.19360366E+04</pdfrwt>
<pdfrwt beam="2">  1       -1 0.19093564E+00 0.19360366E+04</pdfrwt>
<totfact> 0.39342971E+00</totfact>
</mgrwt>
</event>
<event>
12    1  0.1201209E-007  0.1795820E+04  0.7818608E-02  0.8708525E-01
          2   -1    0    0  501    0  0.00000000000E+00  0.00000000000E+00  0.27633346406E+04  0.27633346406E+04  0.00000000000E+00 0. -1.
         -2   -1    0    0    0  501 -0.00000000000E+00 -0.00000000000E+00 -0.29176429984E+03  0.29176429984E+03  0.00000000000E+00 0.  1.
         23    2    1    2    0    0 -0.20573849399E+02  0.22909139391E+03 -0.13818521702E+03  0.28342850283E+03  0.91271090528E+02 0.  0.
        254    2    1    2    0    0  0.20573849399E+02 -0.22909139391E+03  0.26097555578E+04  0.27716704376E+04  0.90466943869E+03 0.  0.
        -24    2    4    4    0    0  0.20248886808E+03 -0.23277106503E+03  0.25238661090E+03  0.40596207807E+03  0.76955162613E+02 0.  0.
         24    2    4    4    0    0 -0.18191501868E+03  0.36796711190E+01  0.23573689469E+04  0.23657083595E+04  0.79253244102E+02 0.  0.
         11    1    3    3    0    0  0.21702621718E+02  0.50131149139E+02 -0.21066875902E+01  0.54667851943E+02  0.00000000000E+00 0. -1.
        -11    1    3    3    0    0 -0.42276471117E+02  0.17896024477E+03 -0.13607852943E+03  0.22876065088E+03  0.00000000000E+00 0.  1.
          2    1    6    6  502    0 -0.51036506072E+02 -0.20046076875E+02  0.10900919716E+04  0.10914701447E+04  0.00000000000E+00 0. -1.
          3    1    5    5  503    0  0.23759564970E+02 -0.36225422009E+02  0.61854903064E+01  0.43761380436E+02  0.00000000000E+00 0. -1.
         -4    1    5    5    0  503  0.17872930311E+03 -0.19654564302E+03  0.24620112060E+03  0.36220069763E+03  0.00000000000E+00 0.  1.
         -1    1    6    6    0  502 -0.13087851261E+03  0.23725747994E+02  0.12672769752E+04  0.12742382148E+04  0.00000000000E+00 0.  1.
<mgrwt>
<rscale>  0 0.17958200E+04</rscale>
<asrwt>0</asrwt>
<pdfrwt beam="1">  1        2 0.42512839E+00 0.17958200E+04</pdfrwt>
<pdfrwt beam="2">  1       -2 0.44886817E-01 0.17958200E+04</pdfrwt>
<totfact> 0.10842701E+01</totfact>
</mgrwt>
</event>
<event>
12    1  0.1201209E-007  0.1380903E+04  0.7818608E-02  0.8967759E-01
          2   -1    0    0  501    0  0.00000000000E+00  0.00000000000E+00  0.23776339138E+04  0.23776339138E+04  0.00000000000E+00 0. -1.
         -2   -1    0    0    0  501 -0.00000000000E+00 -0.00000000000E+00 -0.20050320039E+03  0.20050320039E+03  0.00000000000E+00 0.  1.
         23    2    1    2    0    0 -0.97757329412E+02 -0.96885588775E+02 -0.47623991145E+02  0.17083577522E+03  0.89294483568E+02 0.  0.
        254    2    1    2    0    0  0.97757329412E+02  0.96885588775E+02  0.22247547046E+04  0.24073013390E+04  0.90918806000E+03 0.  0.
        -24    2    4    4    0    0 -0.10132549500E+03  0.27109122505E+03  0.19273567003E+03  0.35664382741E+03  0.79312501514E+02 0.  0.
         24    2    4    4    0    0  0.19908282442E+03 -0.17420563627E+03  0.20320190346E+04  0.20506575116E+04  0.78187584491E+02 0.  0.
         11    1    3    3    0    0 -0.74350770062E+02 -0.42231510420E+02  0.12339344204E+02  0.86393268815E+02  0.00000000000E+00 0.  1.
        -11    1    3    3    0    0 -0.23406559351E+02 -0.54654078355E+02 -0.59963335349E+02  0.84442506403E+02  0.00000000000E+00 0. -1.
          2    1    6    6  502    0  0.17495075037E+03 -0.16174515747E+03  0.15843585173E+04  0.16021738896E+04  0.00000000000E+00 0. -1.
          3    1    5    5  503    0 -0.89601266565E+02  0.22615431658E+03  0.12228738235E+03  0.27226524891E+03  0.00000000000E+00 0. -1.
         -4    1    5    5    0  503 -0.11724228440E+02  0.44936908462E+02  0.70448287674E+02  0.84378578507E+02  0.00000000000E+00 0.  1.
         -1    1    6    6    0  502  0.24132074043E+02 -0.12460478804E+02  0.44766051722E+03  0.44848362201E+03  0.00000000000E+00 0.  1.
<mgrwt>
<rscale>  0 0.13809029E+04</rscale>
<asrwt>0</asrwt>
<pdfrwt beam="1">  1        2 0.36578981E+00 0.13809029E+04</pdfrwt>
<pdfrwt beam="2">  1       -2 0.30846648E-01 0.13809029E+04</pdfrwt>
<totfact> 0.38955368E+01</totfact>
</mgrwt>
</event>
<event>
12    1  0.1201209E-007  0.1467591E+04  0.7818608E-02  0.8906295E-01
          1   -1    0    0  501    0  0.00000000000E+00  0.00000000000E+00  0.15486546885E+04  0.15486546885E+04  0.00000000000E+00 0. -1.
         -1   -1    0    0    0  501 -0.00000000000E+00 -0.00000000000E+00 -0.34769250960E+03  0.34769250960E+03  0.00000000000E+00 0.  1.
         23    2    1    2    0    0  0.44051047234E+03 -0.19430218728E+02  0.23064831537E+03  0.50590054456E+03  0.91157588606E+02 0.  0.
        254    2    1    2    0    0 -0.44051047234E+03  0.19430218728E+02  0.97031386352E+03  0.13904466535E+04  0.89297586356E+03 0.  0.
        -24    2    4    4    0    0 -0.17333396682E+03 -0.40382492285E+03  0.25649738626E+03  0.51508711541E+03  0.80028713182E+02 0.  0.
         24    2    4    4    0    0 -0.26717650552E+03  0.42325514158E+03  0.71381647725E+03  0.87535953810E+03  0.78690264796E+02 0.  0.
         13    1    3    3    0    0  0.42585278422E+03 -0.24908847732E+00  0.22210480772E+03  0.48029282889E+03  0.00000000000E+00 0.  1.
        -13    1    3    3    0    0  0.14657688122E+02 -0.19181130250E+02  0.85435076479E+01  0.25607715667E+02  0.00000000000E+00 0. -1.
          2    1    6    6  502    0 -0.16991593464E+03  0.22871079044E+03  0.46008509935E+03  0.54116388382E+03  0.00000000000E+00 0. -1.
          1    1    5    5  503    0 -0.89702009542E+02 -0.12254546915E+03  0.68649328958E+02  0.16666305197E+03  0.00000000000E+00 0. -1.
         -2    1    5    5    0  503 -0.83631957277E+02 -0.28127945370E+03  0.18784805731E+03  0.34842406344E+03  0.00000000000E+00 0.  1.
         -1    1    6    6    0  502 -0.97260570878E+02  0.19454435114E+03  0.25373137790E+03  0.33419565428E+03  0.00000000000E+00 0.  1.
<mgrwt>
<rscale>  0 0.14675907E+04</rscale>
<asrwt>0</asrwt>
<pdfrwt beam="1">  1        1 0.23825456E+00 0.14675907E+04</pdfrwt>
<pdfrwt beam="2">  1       -1 0.53491156E-01 0.14675907E+04</pdfrwt>
<totfact> 0.20701760E+01</totfact>
</mgrwt>
</event>
<event>
12    1  0.1201209E-007  0.2140961E+04  0.7818608E-02  0.8543411E-01
         -1   -1    0    0    0  501 -0.00000000000E+00  0.00000000000E+00  0.95640667936E+03  0.95640667936E+03  0.00000000000E+00 0.  1.
          1   -1    0    0  501    0  0.00000000000E+00 -0.00000000000E+00 -0.11981605863E+04  0.11981605863E+04  0.00000000000E+00 0. -1.
         23    2    1    2    0    0  0.25800976820E+03 -0.40347367630E+03  0.64926504012E+03  0.81212831423E+03  0.92990636644E+02 0.  0.
        254    2    1    2    0    0 -0.25800976820E+03  0.40347367630E+03 -0.89101894703E+03  0.13424389514E+04  0.88253471678E+03 0.  0.
        -24    2    4    4    0    0 -0.16399970009E+03  0.47396044694E+03 -0.10265120624E+04  0.11453202252E+04  0.80603951617E+02 0.  0.
         24    2    4    4    0    0 -0.94010068104E+02 -0.70486770637E+02  0.13549311539E+03  0.19711872623E+03  0.81799328672E+02 0.  0.
         13    1    3    3    0    0  0.24358606519E+03 -0.36845922185E+03  0.63061328541E+03  0.76991524537E+03  0.00000000000E+00 0.  1.
        -13    1    3    3    0    0  0.14423703004E+02 -0.35014454447E+02  0.18651754709E+02  0.42213068857E+02  0.00000000000E+00 0. -1.
          4    1    6    6  502    0 -0.89349312870E+01 -0.52921028805E+02  0.34034964891E+02  0.63551924613E+02  0.00000000000E+00 0. -1.
          3    1    5    5  503    0 -0.15610121029E+03  0.40836851043E+03 -0.83160662421E+03  0.93952222198E+03  0.00000000000E+00 0. -1.
         -4    1    5    5    0  503 -0.78984898002E+01  0.65591936506E+02 -0.19490543822E+03  0.20579800320E+03  0.00000000000E+00 0.  1.
         -3    1    6    6    0  502 -0.85075136817E+02 -0.17565741832E+02  0.10145815050E+03  0.13356680161E+03  0.00000000000E+00 0.  1.
<mgrwt>
<rscale>  0 0.21409613E+04</rscale>
<asrwt>0</asrwt>
<pdfrwt beam="1">  1        1 0.18433240E+00 0.21409613E+04</pdfrwt>
<pdfrwt beam="2">  1       -1 0.14713949E+00 0.21409613E+04</pdfrwt>
<totfact> 0.36096102E+00</totfact>
</mgrwt>
</event>
<event>
12    1  0.1201209E-007  0.1058538E+04  0.7818608E-02  0.9246573E-01
          1   -1    0    0  501    0  0.00000000000E+00  0.00000000000E+00  0.12408390903E+03  0.12408390903E+03  0.00000000000E+00 0. -1.
         -1   -1    0    0    0  501 -0.00000000000E+00 -0.00000000000E+00 -0.22575507954E+04  0.22575507954E+04  0.00000000000E+00 0.  1.
         23    2    1    2    0    0  0.55645590286E+02  0.10684193608E+03 -0.44949696308E+03  0.47434252531E+03  0.91878618166E+02 0.  0.
        254    2    1    2    0    0 -0.55645590286E+02 -0.10684193608E+03 -0.16839699233E+04  0.19072921791E+04  0.88741034643E+03 0.  0.
        -24    2    4    4    0    0 -0.18022628645E+03 -0.44715406336E+03 -0.68197668307E+03  0.83886153592E+03  0.78537949363E+02 0.  0.
         24    2    4    4    0    0  0.12458069616E+03  0.34031212728E+03 -0.10019932402E+04  0.10684306432E+04  0.78872631842E+02 0.  0.
         13    1    3    3    0    0  0.79952279311E+02  0.93552577504E+02 -0.38369430655E+03  0.40294636442E+03  0.00000000000E+00 0. -1.
        -13    1    3    3    0    0 -0.24306689025E+02  0.13289358579E+02 -0.65802656528E+02  0.71396160884E+02  0.00000000000E+00 0.  1.
          2    1    6    6  502    0  0.22912509210E+02  0.65122655149E+02 -0.11445440024E+03  0.13366283337E+03  0.00000000000E+00 0. -1.
          3    1    5    5  503    0 -0.24135585435E+01 -0.26600624385E+02 -0.15200803920E+02  0.30732440878E+02  0.00000000000E+00 0. -1.
         -4    1    5    5    0  503 -0.17781272790E+03 -0.42055343897E+03 -0.66677587915E+03  0.80812909504E+03  0.00000000000E+00 0.  1.
         -1    1    6    6    0  502  0.10166818695E+03  0.27518947213E+03 -0.88753883997E+03  0.93476780981E+03  0.00000000000E+00 0.  1.
<mgrwt>
<rscale>  0 0.10585381E+04</rscale>
<asrwt>0</asrwt>
<pdfrwt beam="1">  1        1 0.19089833E-01 0.10585381E+04</pdfrwt>
<pdfrwt beam="2">  1       -1 0.34731548E+00 0.10585381E+04</pdfrwt>
<totfact> 0.45902423E+00</totfact>
</mgrwt>
</event>
<event>
12    1  0.1201209E-007  0.1869182E+04  0.7818608E-02  0.8670350E-01
         -1   -1    0    0    0  501 -0.00000000000E+00  0.00000000000E+00  0.83140695262E+03  0.83140695262E+03  0.00000000000E+00 0.  1.
          1   -1    0    0  501    0  0.00000000000E+00 -0.00000000000E+00 -0.10505813128E+04  0.10505813128E+04  0.00000000000E+00 0. -1.
         23    2    1    2    0    0  0.52676944500E+03 -0.17758216315E+02  0.40287052254E+03  0.66909742749E+03  0.87093668562E+02 0.  0.
        254    2    1    2    0    0 -0.52676944500E+03  0.17758216315E+02 -0.62204488274E+03  0.12128908379E+04  0.89797714124E+03 0.  0.
        -24    2    4    4    0    0  0.79693118815E+02 -0.32003400114E+03 -0.24512672997E+03  0.41876389725E+03  0.80643244114E+02 0.  0.
         24    2    4    4    0    0 -0.60646256382E+03  0.33779221745E+03 -0.37691815278E+03  0.79412694070E+03  0.81669336774E+02 0.  0.
         13    1    3    3    0    0  0.16908315088E+02 -0.15445116200E+02  0.81900063286E+01  0.24321162333E+02  0.00000000000E+00 0. -1.
        -13    1    3    3    0    0  0.50986112991E+03 -0.23131001146E+01  0.39468051621E+03  0.64477626516E+03  0.00000000000E+00 0.  1.
          4    1    6    6  502    0 -0.35738281023E+03  0.24385618233E+03 -0.22614954036E+03  0.48819250846E+03  0.00000000000E+00 0. -1.
          1    1    5    5  503    0  0.91927686381E+02 -0.29016872471E+03 -0.23620038341E+03  0.38527809364E+03  0.00000000000E+00 0. -1.
         -2    1    5    5    0  503 -0.12234567566E+02 -0.29865276433E+02 -0.89263465595E+01  0.33485803601E+02  0.00000000000E+00 0.  1.
         -3    1    6    6    0  502 -0.24907975359E+03  0.93936035122E+02 -0.15076861241E+03  0.30593443224E+03  0.00000000000E+00 0.  1.
<mgrwt>
<rscale>  0 0.18691823E+04</rscale>
<asrwt>0</asrwt>
<pdfrwt beam="1">  1        1 0.16162790E+00 0.18691823E+04</pdfrwt>
<pdfrwt beam="2">  1       -1 0.12790876E+00 0.18691823E+04</pdfrwt>
<totfact> 0.68525622E+00</totfact>
</mgrwt>
</event>
<event>
12    1  0.1201209E-007  0.1532576E+04  0.7818608E-02  0.8863075E-01
         -1   -1    0    0    0  501 -0.00000000000E+00  0.00000000000E+00  0.11643429693E+04  0.11643429693E+04  0.00000000000E+00 0.  1.
          1   -1    0    0  501    0  0.00000000000E+00 -0.00000000000E+00 -0.50431615778E+03  0.50431615778E+03  0.00000000000E+00 0. -1.
         23    2    1    2    0    0 -0.11353040692E+03 -0.10160228743E+03 -0.29152058831E+03  0.34216125921E+03  0.94222586414E+02 0.  0.
        254    2    1    2    0    0  0.11353040692E+03  0.10160228743E+03  0.95154739983E+03  0.13264978679E+04  0.91156017972E+03 0.  0.
        -24    2    4    4    0    0 -0.93443481628E+02  0.44061537274E+03  0.26285078630E+03  0.52764180042E+03  0.80260468125E+02 0.  0.
         24    2    4    4    0    0  0.20697388854E+03 -0.33901308531E+03  0.68869661354E+03  0.79885606746E+03  0.78102038825E+02 0.  0.
         11    1    3    3    0    0 -0.95254425332E+02 -0.90761785349E+02 -0.29266642631E+03  0.32088119969E+03  0.00000000000E+00 0. -1.
        -11    1    3    3    0    0 -0.18275981584E+02 -0.10840502082E+02  0.11458380064E+01  0.21280059516E+02  0.00000000000E+00 0.  1.
          4    1    6    6  502    0  0.37401974778E+02 -0.10102912684E+03  0.24421661131E+03  0.26692235842E+03  0.00000000000E+00 0. -1.
          3    1    5    5  503    0 -0.37426613259E+02  0.83447808782E+02  0.24749918321E+02  0.94746222233E+02  0.00000000000E+00 0. -1.
         -4    1    5    5    0  503 -0.56016868368E+02  0.35716756396E+03  0.23810086798E+03  0.43289557819E+03  0.00000000000E+00 0.  1.
         -3    1    6    6    0  502  0.16957191377E+03 -0.23798395847E+03  0.44448000223E+03  0.53193370903E+03  0.00000000000E+00 0.  1.
<mgrwt>
<rscale>  0 0.15325756E+04</rscale>
<asrwt>0</asrwt>
<pdfrwt beam="1">  1        1 0.77587101E-01 0.15325756E+04</pdfrwt>
<pdfrwt beam="2">  1       -1 0.17912969E+00 0.15325756E+04</pdfrwt>
<totfact> 0.89204707E+00</totfact>
</mgrwt>
</event>
<event>
12    1  0.1201209E-007  0.2209555E+04  0.7818608E-02  0.8514462E-01
          2   -1    0    0  501    0  0.00000000000E+00  0.00000000000E+00  0.17449302061E+04  0.17449302061E+04  0.00000000000E+00 0. -1.
         -2   -1    0    0    0  501 -0.00000000000E+00 -0.00000000000E+00 -0.69947415806E+03  0.69947415806E+03  0.00000000000E+00 0.  1.
         23    2    1    2    0    0 -0.88105732802E+03  0.25912297538E+03  0.26676484045E+03  0.96151023373E+03  0.99658004368E+02 0.  0.
        254    2    1    2    0    0  0.88105732802E+03 -0.25912297538E+03  0.77869120757E+03  0.14828941304E+04  0.86556817967E+03 0.  0.
        -24    2    4    4    0    0  0.43701722968E+03 -0.56366129416E+03  0.42006621316E+03  0.83139281386E+03  0.77847761276E+02 0.  0.
         24    2    4    4    0    0  0.44404009834E+03  0.30453831878E+03  0.35862499442E+03  0.65150131656E+03  0.76986247565E+02 0.  0.
         13    1    3    3    0    0 -0.29838376859E+03  0.39338244538E+02  0.82211461537E+02  0.31199213972E+03  0.00000000000E+00 0. -1.
        -13    1    3    3    0    0 -0.58267355943E+03  0.21978473084E+03  0.18455337891E+03  0.64951809400E+03  0.00000000000E+00 0.  1.
          2    1    6    6  502    0  0.24965464709E+03  0.21449805289E+03  0.20295482342E+03  0.38668788171E+03  0.00000000000E+00 0. -1.
          3    1    5    5  503    0  0.40940027699E+03 -0.49378476034E+03  0.38839069190E+03  0.74985285617E+03  0.00000000000E+00 0. -1.
         -4    1    5    5    0  503  0.27616952687E+02 -0.69876533816E+02  0.31675521255E+02  0.81539957693E+02  0.00000000000E+00 0.  1.
         -1    1    6    6    0  502  0.19438545125E+03  0.90040265886E+02  0.15567017100E+03  0.26481343485E+03  0.00000000000E+00 0.  1.
<mgrwt>
<rscale>  0 0.22095552E+04</rscale>
<asrwt>0</asrwt>
<pdfrwt beam="1">  1        2 0.26845080E+00 0.22095552E+04</pdfrwt>
<pdfrwt beam="2">  1       -2 0.10761141E+00 0.22095552E+04</pdfrwt>
<totfact> 0.58590805E+00</totfact>
</mgrwt>
</event>
<event>
12    1  0.1338383E-007  0.1805605E+04  0.7818608E-02  0.8703324E-01
          2   -1    0    0  501    0  0.00000000000E+00  0.00000000000E+00  0.22805774357E+04  0.22805774357E+04  0.00000000000E+00 0. -1.
         -2   -1    0    0    0  501 -0.00000000000E+00 -0.00000000000E+00 -0.35738869897E+03  0.35738869897E+03  0.00000000000E+00 0.  1.
         23    2    1    2    0    0 -0.35260489485E+03 -0.27203176306E+03  0.14726983840E+04  0.15413067406E+04  0.91948064288E+02 0.  0.
        254    2    1    2    0    0  0.35260489485E+03  0.27203176306E+03  0.45049035274E+03  0.10966593940E+04  0.89520320411E+03 0.  0.
        -24    2    4    4    0    0  0.44458824381E+03  0.52466847249E+03  0.43100658621E+03  0.81557123389E+03  0.80337087556E+02 0.  0.
         24    2    4    4    0    0 -0.91983348963E+02 -0.25263670944E+03  0.19483766526E+02  0.28108816014E+03  0.79653582308E+02 0.  0.
         11    1    3    3    0    0 -0.23564561561E+03 -0.20137916192E+03  0.87794190212E+03  0.93105553352E+03  0.00000000000E+00 0. -1.
        -11    1    3    3    0    0 -0.11695927924E+03 -0.70652601139E+02  0.59475648188E+03  0.61025120711E+03  0.00000000000E+00 0.  1.
          2    1    6    6  502    0 -0.10073414137E+03 -0.22963509825E+03  0.17670538314E+01  0.25076436761E+03  0.00000000000E+00 0. -1.
          3    1    5    5  503    0  0.42540411660E+03  0.51762838570E+03  0.40655926503E+03  0.78370800946E+03  0.00000000000E+00 0. -1.
         -4    1    5    5    0  503  0.19184127211E+02  0.70400867952E+01  0.24447321177E+02  0.31863224439E+02  0.00000000000E+00 0.  1.
         -1    1    6    6    0  502  0.87507924037E+01 -0.23001611188E+02  0.17716712694E+02  0.30323792534E+02  0.00000000000E+00 0.  1.
<mgrwt>
<rscale>  0 0.18056053E+04</rscale>
<asrwt>0</asrwt>
<pdfrwt beam="1">  1        2 0.35085806E+00 0.18056053E+04</pdfrwt>
<pdfrwt beam="2">  1       -2 0.54982878E-01 0.18056053E+04</pdfrwt>
<totfact> 0.13657505E+01</totfact>
</mgrwt>
</event>
<event>
12    1  0.1201209E-007  0.1147445E+04  0.7818608E-02  0.9160144E-01
         -2   -1    0    0    0  501 -0.00000000000E+00  0.00000000000E+00  0.32419199834E+03  0.32419199834E+03  0.00000000000E+00 0.  1.
          2   -1    0    0  501    0  0.00000000000E+00 -0.00000000000E+00 -0.10153161228E+04  0.10153161228E+04  0.00000000000E+00 0. -1.
         23    2    1    2    0    0  0.18140104570E+03  0.10415142853E+03 -0.18465463755E+03  0.29369521522E+03  0.91682521920E+02 0.  0.
        254    2    1    2    0    0 -0.18140104570E+03 -0.10415142853E+03 -0.50646948695E+03  0.10458129060E+04  0.89076339934E+03 0.  0.
        -24    2    4    4    0    0 -0.43768519565E+03  0.20783190568E+03 -0.19161191722E+03  0.52713824369E+03  0.79982308227E+02 0.  0.
         24    2    4    4    0    0  0.25628414995E+03 -0.31198333422E+03 -0.31485756973E+03  0.51867466227E+03  0.82903255163E+02 0.  0.
         13    1    3    3    0    0  0.15120210493E+03  0.40770593094E+02 -0.11107768439E+03  0.19199627539E+03  0.00000000000E+00 0. -1.
        -13    1    3    3    0    0  0.30198940774E+02  0.63380835440E+02 -0.73576953162E+02  0.10169893983E+03  0.00000000000E+00 0.  1.
          4    1    6    6  502    0  0.22823804741E+03 -0.25830224358E+03 -0.22985471489E+03  0.41430163563E+03  0.00000000000E+00 0. -1.
          3    1    5    5  503    0 -0.30222907314E+03  0.11460154285E+03 -0.15592477556E+03  0.35887109372E+03  0.00000000000E+00 0. -1.
         -4    1    5    5    0  503 -0.13545612251E+03  0.93230362831E+02 -0.35687141660E+02  0.16826714997E+03  0.00000000000E+00 0.  1.
         -3    1    6    6    0  502  0.28046102541E+02 -0.53681090636E+02 -0.85002854840E+02  0.10437302664E+03  0.00000000000E+00 0.  1.
<mgrwt>
<rscale>  0 0.11474447E+04</rscale>
<asrwt>0</asrwt>
<pdfrwt beam="1">  1        2 0.15620248E+00 0.11474447E+04</pdfrwt>
<pdfrwt beam="2">  1       -2 0.49875691E-01 0.11474447E+04</pdfrwt>
<totfact> 0.92709119E+01</totfact>
</mgrwt>
</event>
<event>
12    1  0.1201209E-007  0.1430765E+04  0.7818608E-02  0.8931846E-01
          2   -1    0    0  501    0  0.00000000000E+00  0.00000000000E+00  0.67783528254E+03  0.67783528254E+03  0.00000000000E+00 0.  1.
         -2   -1    0    0    0  501 -0.00000000000E+00 -0.00000000000E+00 -0.75500920914E+03  0.75500920914E+03  0.00000000000E+00 0. -1.
         23    2    1    2    0    0  0.32064445189E+03 -0.24776890002E+03  0.11021673676E+03  0.42857620013E+03  0.85601039201E+02 0.  0.
        254    2    1    2    0    0 -0.32064445189E+03  0.24776890002E+03 -0.18739066336E+03  0.10042682915E+04  0.89957614928E+03 0.  0.
        -24    2    4    4    0    0 -0.12804563014E+03 -0.88600528720E+02 -0.48104324963E+03  0.51172710796E+03  0.78843439243E+02 0.  0.
         24    2    4    4    0    0 -0.19259882174E+03  0.33636942874E+03  0.29365258627E+03  0.49254118359E+03  0.78270539641E+02 0.  0.
         11    1    3    3    0    0  0.16800947378E+03 -0.97909349532E+02  0.16859634840E+02  0.19518624771E+03  0.00000000000E+00 0. -1.
        -11    1    3    3    0    0  0.15263497811E+03 -0.14985955049E+03  0.93357101922E+02  0.23338995242E+03  0.00000000000E+00 0.  1.
          4    1    6    6  502    0 -0.15872669677E+03  0.29432121927E+03  0.28171243066E+03  0.43724253907E+03  0.00000000000E+00 0. -1.
          1    1    5    5  503    0 -0.13632818621E+03 -0.91639546223E+02 -0.43801570267E+03  0.46780437853E+03  0.00000000000E+00 0. -1.
         -2    1    5    5    0  503  0.82825560701E+01  0.30390175028E+01 -0.43027546964E+02  0.43922729425E+02  0.00000000000E+00 0.  1.
         -3    1    6    6    0  502 -0.33872124972E+02  0.42048209471E+02  0.11940155615E+02  0.55298644522E+02  0.00000000000E+00 0.  1.
<mgrwt>
<rscale>  0 0.14307647E+04</rscale>
<asrwt>0</asrwt>
<pdfrwt beam="1">  1        2 0.10428235E+00 0.14307647E+04</pdfrwt>
<pdfrwt beam="2">  1       -2 0.11615526E+00 0.14307647E+04</pdfrwt>
<totfact> 0.23842882E+01</totfact>
</mgrwt>
</event>
<event>
12    1  0.1201209E-007  0.4604434E+04  0.7818608E-02  0.7892604E-01
         -2   -1    0    0    0  501 -0.00000000000E+00  0.00000000000E+00  0.16994325912E+04  0.16994325912E+04  0.00000000000E+00 0.  1.
          2   -1    0    0  501    0  0.00000000000E+00 -0.00000000000E+00 -0.31188075946E+04  0.31188075946E+04  0.00000000000E+00 0. -1.
         23    2    1    2    0    0  0.39389148667E+03 -0.78802312459E+02  0.15962275233E+04  0.16485084959E+04  0.90981577337E+02 0.  0.
        254    2    1    2    0    0 -0.39389148667E+03  0.78802312459E+02 -0.30156025266E+04  0.31697316899E+04  0.88993262640E+03 0.  0.
        -24    2    4    4    0    0 -0.55425335448E+02  0.27529710112E+03 -0.27866058866E+03  0.40376653957E+03  0.80716993915E+02 0.  0.
         24    2    4    4    0    0 -0.33846615122E+03 -0.19649478867E+03 -0.27369419380E+04  0.27659651503E+04  0.80885743155E+02 0.  0.
         11    1    3    3    0    0  0.37858502768E+03 -0.57252320272E+02  0.14387025245E+04  0.14887811811E+04  0.00000000000E+00 0.  1.
        -11    1    3    3    0    0  0.15306458995E+02 -0.21549992187E+02  0.15752499882E+03  0.15972731483E+03  0.00000000000E+00 0. -1.
          2    1    6    6  502    0 -0.85195574678E+01 -0.22776752347E+02 -0.10756637443E+03  0.11028095128E+03  0.00000000000E+00 0. -1.
          1    1    5    5  503    0  0.35156157491E+01  0.66970659988E+01  0.47023824966E+01  0.89063263039E+01  0.00000000000E+00 0. -1.
         -2    1    5    5    0  503 -0.58940951197E+02  0.26860003513E+03 -0.28336297116E+03  0.39486021327E+03  0.00000000000E+00 0.  1.
         -1    1    6    6    0  502 -0.32994659375E+03 -0.17371803632E+03 -0.26293755636E+04  0.26556841991E+04  0.00000000000E+00 0.  1.
<mgrwt>
<rscale>  0 0.46044341E+04</rscale>
<asrwt>0</asrwt>
<pdfrwt beam="1">  1        2 0.47981654E+00 0.46044341E+04</pdfrwt>
<pdfrwt beam="2">  1       -2 0.26145117E+00 0.46044341E+04</pdfrwt>
<totfact> 0.60067943E-02</totfact>
</mgrwt>
</event>
<event>
12    1  0.1201209E-007  0.2386510E+04  0.7818608E-02  0.8444571E-01
         -2   -1    0    0    0  501 -0.00000000000E+00  0.00000000000E+00  0.57273290406E+03  0.57273290406E+03  0.00000000000E+00 0.  1.
          2   -1    0    0  501    0  0.00000000000E+00 -0.00000000000E+00 -0.24860759396E+04  0.24860759396E+04  0.00000000000E+00 0. -1.
         23    2    1    2    0    0 -0.11184362347E+03  0.10408073493E+02  0.47823021646E+03  0.50222110144E+03  0.10442495244E+03 0.  0.
        254    2    1    2    0    0  0.11184362347E+03 -0.10408073493E+02 -0.23915732520E+04  0.25565877423E+04  0.89660523082E+03 0.  0.
        -24    2    4    4    0    0 -0.27368153577E+03 -0.29960877328E+03 -0.10275349692E+04  0.11077166403E+04  0.80876710187E+02 0.  0.
         24    2    4    4    0    0  0.38552515924E+03  0.28920069979E+03 -0.13640382828E+04  0.14488711020E+04  0.79751738909E+02 0.  0.
         11    1    3    3    0    0 -0.10044729410E+03 -0.21842921367E+02  0.23367915345E+03  0.25528948051E+03  0.00000000000E+00 0.  1.
        -11    1    3    3    0    0 -0.11396329372E+02  0.32250994859E+02  0.24455106301E+03  0.24693162092E+03  0.00000000000E+00 0. -1.
          2    1    6    6  502    0  0.35589155317E+03  0.27847068161E+03 -0.13159372340E+04  0.13913646258E+04  0.00000000000E+00 0. -1.
          1    1    5    5  503    0 -0.14917783867E+03 -0.13100484702E+03 -0.59138139088E+03  0.62381747889E+03  0.00000000000E+00 0. -1.
         -2    1    5    5    0  503 -0.12450369711E+03 -0.16860392626E+03 -0.43615357832E+03  0.48389916142E+03  0.00000000000E+00 0.  1.
         -1    1    6    6    0  502  0.29633606073E+02  0.10730018178E+02 -0.48101048855E+02  0.57506476157E+02  0.00000000000E+00 0.  1.
<mgrwt>
<rscale>  0 0.23865100E+04</rscale>
<asrwt>0</asrwt>
<pdfrwt beam="1">  1        2 0.38247322E+00 0.23865100E+04</pdfrwt>
<pdfrwt beam="2">  1       -2 0.88112754E-01 0.23865100E+04</pdfrwt>
<totfact> 0.35423883E+00</totfact>
</mgrwt>
</event>
<event>
12    1  0.1201209E-007  0.2246524E+04  0.7818608E-02  0.8499310E-01
          1   -1    0    0  501    0  0.00000000000E+00  0.00000000000E+00  0.11532267493E+04  0.11532267493E+04  0.00000000000E+00 0. -1.
         -1   -1    0    0    0  501 -0.00000000000E+00 -0.00000000000E+00 -0.10940755179E+04  0.10940755179E+04  0.00000000000E+00 0.  1.
         23    2    1    2    0    0 -0.44942036332E+03 -0.74513011814E+03 -0.31638755626E+03  0.93033818111E+03  0.90722045480E+02 0.  0.
        254    2    1    2    0    0  0.44942036332E+03  0.74513011814E+03  0.37553878769E+03  0.13169640860E+04  0.91442193045E+03 0.  0.
        -24    2    4    4    0    0  0.66469564666E+02  0.73345003444E+03 -0.46179337000E+02  0.74164221697E+03  0.74387436974E+02 0.  0.
         24    2    4    4    0    0  0.38295079866E+03  0.11680083699E+02  0.42171812469E+03  0.57532186906E+03  0.79757995031E+02 0.  0.
         11    1    3    3    0    0 -0.27882221309E+03 -0.50706607599E+03 -0.17129626541E+03  0.60349005168E+03  0.00000000000E+00 0.  1.
        -11    1    3    3    0    0 -0.17059815023E+03 -0.23806404215E+03 -0.14509129085E+03  0.32684812942E+03  0.00000000000E+00 0. -1.
          2    1    6    6  502    0  0.37357505515E+02  0.15154876134E+02  0.18798281000E+02  0.44481781186E+02  0.00000000000E+00 0. -1.
          1    1    5    5  503    0  0.36119423277E+02  0.31640851080E+03 -0.56166838711E+02  0.32337852776E+03  0.00000000000E+00 0. -1.
         -2    1    5    5    0  503  0.30350141389E+02  0.41704152364E+03  0.99875017114E+01  0.41826368921E+03  0.00000000000E+00 0.  1.
         -1    1    6    6    0  502  0.34559329314E+03 -0.34747924349E+01  0.40291984369E+03  0.53084008787E+03  0.00000000000E+00 0.  1.
<mgrwt>
<rscale>  0 0.22465237E+04</rscale>
<asrwt>0</asrwt>
<pdfrwt beam="1">  1        1 0.17741950E+00 0.22465237E+04</pdfrwt>
<pdfrwt beam="2">  1       -1 0.16831931E+00 0.22465237E+04</pdfrwt>
<totfact> 0.26598574E+00</totfact>
</mgrwt>
</event>
<event>
12    1  0.1201209E-007  0.1004866E+04  0.7818608E-02  0.9303224E-01
          1   -1    0    0  501    0  0.00000000000E+00  0.00000000000E+00  0.15778355796E+03  0.15778355796E+03  0.00000000000E+00 0. -1.
         -1   -1    0    0    0  501 -0.00000000000E+00 -0.00000000000E+00 -0.15999067357E+04  0.15999067357E+04  0.00000000000E+00 0.  1.
         23    2    1    2    0    0  0.41777403583E+02  0.67845501454E+02 -0.40045738999E+03  0.41842653051E+03  0.91467353304E+02 0.  0.
        254    2    1    2    0    0 -0.41777403583E+02 -0.67845501454E+02 -0.10416657878E+04  0.13392637632E+04  0.83798057879E+03 0.  0.
        -24    2    4    4    0    0  0.26949646001E+03 -0.23993659164E+03 -0.19612366379E+03  0.41821084252E+03  0.78980423774E+02 0.  0.
         24    2    4    4    0    0 -0.31127386359E+03  0.17209109018E+03 -0.84554212396E+03  0.92105292064E+03  0.83007456021E+02 0.  0.
         11    1    3    3    0    0  0.50707392172E+02  0.83146028233E+02 -0.37480738713E+03  0.38725324928E+03  0.00000000000E+00 0.  1.
        -11    1    3    3    0    0 -0.89299885894E+01 -0.15300526779E+02 -0.25650002860E+02  0.31173281230E+02  0.00000000000E+00 0. -1.
          2    1    6    6  502    0 -0.71456201453E+02  0.92275500532E+01 -0.22242414224E+03  0.23380255657E+03  0.00000000000E+00 0. -1.
          3    1    5    5  503    0  0.24333293050E+01 -0.28706796837E+02 -0.17378429202E+02  0.33645372307E+02  0.00000000000E+00 0. -1.
         -4    1    5    5    0  503  0.26706313070E+03 -0.21122979480E+03 -0.17874523459E+03  0.38456547021E+03  0.00000000000E+00 0.  1.
         -1    1    6    6    0  502 -0.23981766214E+03  0.16286354013E+03 -0.62311798173E+03  0.68725036408E+03  0.00000000000E+00 0.  1.
<mgrwt>
<rscale>  0 0.10048661E+04</rscale>
<asrwt>0</asrwt>
<pdfrwt beam="1">  1        1 0.24274392E-01 0.10048661E+04</pdfrwt>
<pdfrwt beam="2">  1       -1 0.24613951E+00 0.10048661E+04</pdfrwt>
<totfact> 0.15124595E+01</totfact>
</mgrwt>
</event>
<event>
12    1  0.1201209E-007  0.2442887E+04  0.7818608E-02  0.8423620E-01
         -2   -1    0    0    0  501 -0.00000000000E+00  0.00000000000E+00  0.62308965522E+03  0.62308965522E+03  0.00000000000E+00 0.  1.
          2   -1    0    0  501    0  0.00000000000E+00 -0.00000000000E+00 -0.23943973959E+04  0.23943973959E+04  0.00000000000E+00 0. -1.
         23    2    1    2    0    0  0.57539579156E+03  0.90122982883E+03 -0.88739398017E+03  0.13925995648E+04  0.92574026657E+02 0.  0.
        254    2    1    2    0    0 -0.57539579156E+03 -0.90122982883E+03 -0.88391376048E+03  0.16248874863E+04  0.84596707145E+03 0.  0.
        -24    2    4    4    0    0  0.12019131450E+03 -0.51930905701E+03 -0.51676214082E+03  0.74674396750E+03  0.80346711435E+02 0.  0.
         24    2    4    4    0    0 -0.69558710606E+03 -0.38192077182E+03 -0.36715161966E+03  0.87814351884E+03  0.81429907299E+02 0.  0.
         13    1    3    3    0    0  0.22596525738E+03  0.33464851539E+03 -0.27914856792E+03  0.49089087318E+03  0.00000000000E+00 0. -1.
        -13    1    3    3    0    0  0.34943053417E+03  0.56658131344E+03 -0.60824541225E+03  0.90170869158E+03  0.00000000000E+00 0.  1.
          2    1    6    6  502    0 -0.12487771941E+03 -0.81404555648E+02 -0.10280130339E+03  0.18107803418E+03  0.00000000000E+00 0. -1.
          3    1    5    5  503    0 -0.88378123521E+01 -0.18958735618E+02 -0.31993566529E+02  0.38224715599E+02  0.00000000000E+00 0. -1.
         -4    1    5    5    0  503  0.12902912685E+03 -0.50035032140E+03 -0.48476857429E+03  0.70851925190E+03  0.00000000000E+00 0.  1.
         -1    1    6    6    0  502 -0.57070938664E+03 -0.30051621617E+03 -0.26435031628E+03  0.69706548466E+03  0.00000000000E+00 0.  1.
<mgrwt>
<rscale>  0 0.24428870E+04</rscale>
<asrwt>0</asrwt>
<pdfrwt beam="1">  1        2 0.36836883E+00 0.24428870E+04</pdfrwt>
<pdfrwt beam="2">  1       -2 0.95859947E-01 0.24428870E+04</pdfrwt>
<totfact> 0.32744213E+00</totfact>
</mgrwt>
</event>
<event>
12    1  0.1393296E-007  0.2255197E+04  0.7818608E-02  0.8495799E-01
         -2   -1    0    0    0  501 -0.00000000000E+00  0.00000000000E+00  0.98512954749E+03  0.98512954749E+03  0.00000000000E+00 0.  1.
          2   -1    0    0  501    0  0.00000000000E+00 -0.00000000000E+00 -0.12906706955E+04  0.12906706955E+04  0.00000000000E+00 0. -1.
         23    2    1    2    0    0  0.47702949188E+03  0.33389704492E+03 -0.84572337620E+03  0.10310353541E+04  0.93495987037E+02 0.  0.
        254    2    1    2    0    0 -0.47702949188E+03 -0.33389704492E+03  0.54018222820E+03  0.12447648889E+04  0.95843540014E+03 0.  0.
        -24    2    4    4    0    0 -0.52579268611E+03 -0.52649660720E+02 -0.95624826363E+02  0.54353429868E+03  0.83996969445E+02 0.  0.
         24    2    4    4    0    0  0.48763194237E+02 -0.28124738420E+03  0.63580705457E+03  0.70123059022E+03  0.77432485403E+02 0.  0.
         11    1    3    3    0    0  0.44099883877E+03  0.27853317414E+03 -0.72084982382E+03  0.88976692083E+03  0.00000000000E+00 0. -1.
        -11    1    3    3    0    0  0.36030653103E+02  0.55363870779E+02 -0.12487355238E+03  0.14126843326E+03  0.00000000000E+00 0.  1.
          4    1    6    6  502    0  0.39842831549E+02 -0.27521355131E+03  0.63075651843E+03  0.68933572052E+03  0.00000000000E+00 0. -1.
          1    1    5    5  503    0 -0.30880546304E+03 -0.12373876825E+02 -0.93297208933E+02  0.32282858614E+03  0.00000000000E+00 0. -1.
         -2    1    5    5    0  503 -0.21698722307E+03 -0.40275783895E+02 -0.23276174300E+01  0.22070571254E+03  0.00000000000E+00 0.  1.
         -3    1    6    6    0  502  0.89203626881E+01 -0.60338328916E+01  0.50505361361E+01  0.11894869697E+02  0.00000000000E+00 0.  1.
<mgrwt>
<rscale>  0 0.22551965E+04</rscale>
<asrwt>0</asrwt>
<pdfrwt beam="1">  1        2 0.19856472E+00 0.22551965E+04</pdfrwt>
<pdfrwt beam="2">  1       -2 0.15155839E+00 0.22551965E+04</pdfrwt>
<totfact> 0.44408160E+00</totfact>
</mgrwt>
</event>
<event>
12    1  0.1201209E-007  0.2228213E+04  0.7818608E-02  0.8506776E-01
          1   -1    0    0  501    0  0.00000000000E+00  0.00000000000E+00  0.18360745481E+04  0.18360745481E+04  0.00000000000E+00 0. -1.
         -1   -1    0    0    0  501 -0.00000000000E+00 -0.00000000000E+00 -0.67602555179E+03  0.67602555179E+03  0.00000000000E+00 0.  1.
         23    2    1    2    0    0  0.67432463410E+03 -0.15609518961E+03  0.11874253676E+04  0.13778493734E+04  0.97007587076E+02 0.  0.
        254    2    1    2    0    0 -0.67432463410E+03  0.15609518961E+03 -0.27376371255E+02  0.11342507265E+04  0.89816247106E+03 0.  0.
        -24    2    4    4    0    0 -0.30314884688E+03  0.25589554257E+02 -0.45160264009E+03  0.55016603097E+03  0.78636304928E+02 0.  0.
         24    2    4    4    0    0 -0.37117578722E+03  0.13050563535E+03  0.42422626883E+03  0.58408469549E+03  0.79898801433E+02 0.  0.
         13    1    3    3    0    0  0.34750816268E+03 -0.12483393476E+03  0.58550137757E+03  0.69221188774E+03  0.00000000000E+00 0.  1.
        -13    1    3    3    0    0  0.32681647142E+03 -0.31261254844E+02  0.60192398999E+03  0.68563748568E+03  0.00000000000E+00 0. -1.
          4    1    6    6  502    0 -0.31290493935E+03  0.78017468081E+02  0.35324028631E+03  0.47830421937E+03  0.00000000000E+00 0. -1.
          1    1    5    5  503    0 -0.28025491223E+03  0.19676803136E+02 -0.44382992706E+03  0.52527611459E+03  0.00000000000E+00 0. -1.
         -2    1    5    5    0  503 -0.22893934651E+02  0.59127511207E+01 -0.77727130294E+01  0.24889916381E+02  0.00000000000E+00 0.  1.
         -3    1    6    6    0  502 -0.58270847866E+02  0.52488167271E+02  0.70985982519E+02  0.10578047612E+03  0.00000000000E+00 0.  1.
<mgrwt>
<rscale>  0 0.22282130E+04</rscale>
<asrwt>0</asrwt>
<pdfrwt beam="1">  1        1 0.28247300E+00 0.22282130E+04</pdfrwt>
<pdfrwt beam="2">  1       -1 0.10400393E+00 0.22282130E+04</pdfrwt>
<totfact> 0.30478358E+00</totfact>
</mgrwt>
</event>
<event>
12    1  0.1201209E-007  0.1807361E+04  0.7818608E-02  0.8702395E-01
         -1   -1    0    0    0  501 -0.00000000000E+00  0.00000000000E+00  0.90996963599E+03  0.90996963599E+03  0.00000000000E+00 0.  1.
          1   -1    0    0  501    0  0.00000000000E+00 -0.00000000000E+00 -0.89743480323E+03  0.89743480323E+03  0.00000000000E+00 0. -1.
         23    2    1    2    0    0  0.14965131675E+02 -0.37201595344E+03  0.55788755988E+03  0.67689390578E+03  0.91252427049E+02 0.  0.
        254    2    1    2    0    0 -0.14965131675E+02  0.37201595344E+03 -0.54535272712E+03  0.11305105334E+04  0.91761900834E+03 0.  0.
        -24    2    4    4    0    0  0.36342245999E+03 -0.77771571690E+02 -0.31667101252E+03  0.49474800991E+03  0.79817049279E+02 0.  0.
         24    2    4    4    0    0 -0.37838759166E+03  0.44978752513E+03 -0.22868171461E+03  0.63576252353E+03  0.80079163621E+02 0.  0.
         13    1    3    3    0    0  0.45893964484E+02 -0.31615551232E+03  0.46724741065E+03  0.56602182529E+03  0.00000000000E+00 0.  1.
        -13    1    3    3    0    0 -0.30928832808E+02 -0.55860441116E+02  0.90640149225E+02  0.11087208049E+03  0.00000000000E+00 0. -1.
          4    1    6    6  502    0 -0.31023982123E+03  0.32728031020E+03 -0.19662521991E+03  0.49195795067E+03  0.00000000000E+00 0. -1.
          1    1    5    5  503    0  0.35533537366E+03 -0.68870404851E+02 -0.31904522229E+03  0.48248960021E+03  0.00000000000E+00 0. -1.
         -2    1    5    5    0  503  0.80870863305E+01 -0.89011668396E+01  0.23742097796E+01  0.12258409705E+02  0.00000000000E+00 0.  1.
         -3    1    6    6    0  502 -0.68147770436E+02  0.12250721492E+03 -0.32056494695E+02  0.14380457286E+03  0.00000000000E+00 0.  1.
<mgrwt>
<rscale>  0 0.18073610E+04</rscale>
<asrwt>0</asrwt>
<pdfrwt beam="1">  1        1 0.13806689E+00 0.18073610E+04</pdfrwt>
<pdfrwt beam="2">  1       -1 0.13999533E+00 0.18073610E+04</pdfrwt>
<totfact> 0.72292366E+00</totfact>
</mgrwt>
</event>
<event>
12    1  0.1539913E-007  0.1259553E+04  0.7818608E-02  0.9062270E-01
         -2   -1    0    0    0  501 -0.00000000000E+00  0.00000000000E+00  0.27068275710E+03  0.27068275710E+03  0.00000000000E+00 0.  1.
          2   -1    0    0  501    0  0.00000000000E+00 -0.00000000000E+00 -0.14652512157E+04  0.14652512157E+04  0.00000000000E+00 0. -1.
         23    2    1    2    0    0 -0.10434543822E+03 -0.28624338429E+03 -0.24242288811E+03  0.39796757952E+03  0.82377740587E+02 0.  0.
        254    2    1    2    0    0  0.10434543822E+03  0.28624338429E+03 -0.95214557049E+03  0.13379663933E+04  0.88924104528E+03 0.  0.
        -24    2    4    4    0    0  0.35577784628E+03  0.30043549168E+03 -0.15328908177E+03  0.49660760669E+03  0.79260405477E+02 0.  0.
         24    2    4    4    0    0 -0.25143240805E+03 -0.14192107390E+02 -0.79885648872E+03  0.84135878658E+03  0.79329984636E+02 0.  0.
         13    1    3    3    0    0 -0.21732157534E+02 -0.64543469799E+02 -0.14876487626E+02  0.69709798801E+02  0.00000000000E+00 0.  1.
        -13    1    3    3    0    0 -0.82613280688E+02 -0.22169991449E+03 -0.22754640048E+03  0.32825778072E+03  0.00000000000E+00 0. -1.
          2    1    6    6  502    0 -0.67554794031E+02  0.23953366869E+02 -0.15686065816E+03  0.17246066236E+03  0.00000000000E+00 0. -1.
          1    1    5    5  503    0  0.45449023369E+02  0.87517052124E+01 -0.10969736646E+02  0.47566176969E+02  0.00000000000E+00 0. -1.
         -2    1    5    5    0  503  0.31032882291E+03  0.29168378646E+03 -0.14231934513E+03  0.44904142973E+03  0.00000000000E+00 0.  1.
         -1    1    6    6    0  502 -0.18387761402E+03 -0.38145474259E+02 -0.64199583055E+03  0.66889812423E+03  0.00000000000E+00 0.  1.
<mgrwt>
<rscale>  0 0.12595527E+04</rscale>
<asrwt>0</asrwt>
<pdfrwt beam="1">  1        2 0.22542327E+00 0.12595527E+04</pdfrwt>
<pdfrwt beam="2">  1       -2 0.41643501E-01 0.12595527E+04</pdfrwt>
<totfact> 0.71295524E+01</totfact>
</mgrwt>
</event>
<event>
12    1  0.1201209E-007  0.2828811E+04  0.7818608E-02  0.8294379E-01
          2   -1    0    0  501    0  0.00000000000E+00  0.00000000000E+00  0.81560856196E+03  0.81560856196E+03  0.00000000000E+00 0. -1.
         -2   -1    0    0    0  501 -0.00000000000E+00 -0.00000000000E+00 -0.24528228566E+04  0.24528228566E+04  0.00000000000E+00 0.  1.
         23    2    1    2    0    0  0.83774971722E+03 -0.61800418051E+03  0.10176313923E+03  0.10497406615E+04  0.88577446481E+02 0.  0.
        254    2    1    2    0    0 -0.83774971722E+03  0.61800418051E+03 -0.17389774339E+04  0.22186907571E+04  0.90265852026E+03 0.  0.
        -24    2    4    4    0    0 -0.19437677831E+02  0.46396316566E+03 -0.31476824425E+03  0.56696989817E+03  0.82074206873E+02 0.  0.
         24    2    4    4    0    0 -0.81831203939E+03  0.15404101485E+03 -0.14242091896E+04  0.16517208589E+04  0.80291667539E+02 0.  0.
         13    1    3    3    0    0  0.71697228035E+03 -0.56112913777E+03  0.74537478098E+02  0.91349383998E+03  0.00000000000E+00 0. -1.
        -13    1    3    3    0    0  0.12077743687E+03 -0.56875042740E+02  0.27225661133E+02  0.13624682150E+03  0.00000000000E+00 0.  1.
          4    1    6    6  502    0 -0.68726077296E+02  0.35014130959E+02 -0.14746771638E+03  0.16642112379E+03  0.00000000000E+00 0. -1.
          3    1    5    5  503    0 -0.23243635160E+02  0.11723287366E+03 -0.45255409222E+02  0.12779618659E+03  0.00000000000E+00 0. -1.
         -2    1    5    5    0  503  0.38059573285E+01  0.34673029200E+03 -0.26951283503E+03  0.43917371158E+03  0.00000000000E+00 0.  1.
         -3    1    6    6    0  502 -0.74958596210E+03  0.11902688389E+03 -0.12767414733E+04  0.14852997351E+04  0.00000000000E+00 0.  1.
<mgrwt>
<rscale>  0 0.28288113E+04</rscale>
<asrwt>0</asrwt>
<pdfrwt beam="1">  1        2 0.12547824E+00 0.28288113E+04</pdfrwt>
<pdfrwt beam="2">  1       -2 0.37735736E+00 0.28288113E+04</pdfrwt>
<totfact> 0.30335442E-01</totfact>
</mgrwt>
</event>
<event>
12    1  0.1201209E-007  0.1207957E+04  0.7818608E-02  0.9105921E-01
          1   -1    0    0  501    0  0.00000000000E+00  0.00000000000E+00  0.25259342992E+04  0.25259342992E+04  0.00000000000E+00 0. -1.
         -1   -1    0    0    0  501 -0.00000000000E+00 -0.00000000000E+00 -0.14441774291E+03  0.14441774291E+03  0.00000000000E+00 0.  1.
         23    2    1    2    0    0 -0.14564361459E+03  0.75386013971E+02  0.11454840861E+04  0.11608610558E+04  0.92571518226E+02 0.  0.
        254    2    1    2    0    0  0.14564361459E+03 -0.75386013971E+02  0.12360324702E+04  0.15094909862E+04  0.85081822769E+03 0.  0.
        -24    2    4    4    0    0  0.32701015712E+03  0.20266846156E+03  0.24957016505E+03  0.46562798007E+03  0.80709357383E+02 0.  0.
         24    2    4    4    0    0 -0.18136654253E+03 -0.27805447553E+03  0.98646230516E+03  0.10438630062E+04  0.79586318262E+02 0.  0.
         13    1    3    3    0    0 -0.87050671801E+02  0.79865092101E+02  0.93126219679E+03  0.93872548254E+03  0.00000000000E+00 0. -1.
        -13    1    3    3    0    0 -0.58592942787E+02 -0.44790781302E+01  0.21422188926E+03  0.22213557330E+03  0.00000000000E+00 0.  1.
          4    1    6    6  502    0 -0.78728115800E+02 -0.18729272737E+03  0.54551188424E+03  0.58211673897E+03  0.00000000000E+00 0. -1.
          1    1    5    5  503    0  0.82105446556E+02  0.75982585934E+02  0.38233243283E+02  0.11822198870E+03  0.00000000000E+00 0. -1.
         -2    1    5    5    0  503  0.24490471057E+03  0.12668587563E+03  0.21133692177E+03  0.34740599137E+03  0.00000000000E+00 0.  1.
         -3    1    6    6    0  502 -0.10263842673E+03 -0.90761748163E+02  0.44095042092E+03  0.46174626720E+03  0.00000000000E+00 0.  1.
<mgrwt>
<rscale>  0 0.12079565E+04</rscale>
<asrwt>0</asrwt>
<pdfrwt beam="1">  1        1 0.38860524E+00 0.12079565E+04</pdfrwt>
<pdfrwt beam="2">  1       -1 0.22218116E-01 0.12079565E+04</pdfrwt>
<totfact> 0.22166618E+01</totfact>
</mgrwt>
</event>
<event>
12    1  0.1201209E-007  0.2343165E+04  0.7818608E-02  0.8461094E-01
          1   -1    0    0  501    0  0.00000000000E+00  0.00000000000E+00  0.25768813603E+04  0.25768813603E+04  0.00000000000E+00 0. -1.
         -1   -1    0    0    0  501 -0.00000000000E+00 -0.00000000000E+00 -0.53266146154E+03  0.53266146154E+03  0.00000000000E+00 0.  1.
         23    2    1    2    0    0 -0.80382843034E+03 -0.30271340119E+03  0.16134290126E+04  0.18301563304E+04  0.92430871934E+02 0.  0.
        254    2    1    2    0    0  0.80382843034E+03  0.30271340119E+03  0.43079088614E+03  0.12793864915E+04  0.84467358094E+03 0.  0.
        -24    2    4    4    0    0 -0.52797917739E+02  0.29239635429E+03 -0.19500639773E+02  0.30838989462E+03  0.80254619986E+02 0.  0.
         24    2    4    4    0    0  0.85662634808E+03  0.10317046891E+02  0.45029152591E+03  0.97099659687E+03  0.78465222461E+02 0.  0.
         11    1    3    3    0    0 -0.12364437154E+03 -0.67801918185E+02  0.20934179510E+03  0.25240645376E+03  0.00000000000E+00 0. -1.
        -11    1    3    3    0    0 -0.68018405880E+03 -0.23491148300E+03  0.14040872175E+04  0.15777498766E+04  0.00000000000E+00 0.  1.
          2    1    6    6  502    0  0.83299011401E+03  0.23220318297E+02  0.43763284866E+03  0.94124078930E+03  0.00000000000E+00 0. -1.
          1    1    5    5  503    0 -0.74102594954E+02  0.24026322506E+03 -0.17398002835E+02  0.25203234395E+03  0.00000000000E+00 0. -1.
         -2    1    5    5    0  503  0.21304677216E+02  0.52133129235E+02 -0.21026369379E+01  0.56357550667E+02  0.00000000000E+00 0.  1.
         -1    1    6    6    0  502  0.23636234073E+02 -0.12903271406E+02  0.12658677245E+02  0.29755807563E+02  0.00000000000E+00 0.  1.
<mgrwt>
<rscale>  0 0.23431649E+04</rscale>
<asrwt>0</asrwt>
<pdfrwt beam="1">  1        1 0.39644328E+00 0.23431649E+04</pdfrwt>
<pdfrwt beam="2">  1       -1 0.81947919E-01 0.23431649E+04</pdfrwt>
<totfact> 0.15976969E+00</totfact>
</mgrwt>
</event>
<event>
12    1  0.1201209E-007  0.2777431E+04  0.7818608E-02  0.8310310E-01
          2   -1    0    0  501    0  0.00000000000E+00  0.00000000000E+00  0.29126125180E+04  0.29126125180E+04  0.00000000000E+00 0. -1.
         -2   -1    0    0    0  501 -0.00000000000E+00 -0.00000000000E+00 -0.66213076401E+03  0.66213076401E+03  0.00000000000E+00 0.  1.
         23    2    1    2    0    0  0.11254933163E+04  0.51015157985E+03  0.86214711170E+03  0.15095637709E+04  0.92169933466E+02 0.  0.
        254    2    1    2    0    0 -0.11254933163E+04 -0.51015157985E+03  0.13883346422E+04  0.20651795111E+04  0.90027967589E+03 0.  0.
        -24    2    4    4    0    0 -0.95408148638E+03 -0.36842913795E+02  0.61388495410E+03  0.11380024906E+04  0.81031159421E+02 0.  0.
         24    2    4    4    0    0 -0.17141182991E+03 -0.47330866605E+03  0.77444968815E+03  0.92717702051E+03  0.80509621103E+02 0.  0.
         11    1    3    3    0    0  0.11191938911E+04  0.50445567869E+03  0.86358587894E+03  0.15009500551E+04  0.00000000000E+00 0.  1.
        -11    1    3    3    0    0  0.62994251483E+01  0.56959011579E+01 -0.14387672408E+01  0.86137157123E+01  0.00000000000E+00 0. -1.
          4    1    6    6  502    0 -0.13729410895E+03 -0.38702379466E+03  0.56864039532E+03  0.70141926775E+03  0.00000000000E+00 0. -1.
          1    1    5    5  503    0 -0.72603910217E+03  0.61129194639E+01  0.47246087232E+03  0.86625020724E+03  0.00000000000E+00 0. -1.
         -2    1    5    5    0  503 -0.22804238421E+03 -0.42955833259E+02  0.14142408177E+03  0.27175228336E+03  0.00000000000E+00 0.  1.
         -3    1    6    6    0  502 -0.34117720962E+02 -0.86284871397E+02  0.20580929282E+03  0.22575775275E+03  0.00000000000E+00 0.  1.
<mgrwt>
<rscale>  0 0.27774307E+04</rscale>
<asrwt>0</asrwt>
<pdfrwt beam="1">  1        2 0.44809423E+00 0.27774307E+04</pdfrwt>
<pdfrwt beam="2">  1       -2 0.10186627E+00 0.27774307E+04</pdfrwt>
<totfact> 0.13592636E+00</totfact>
</mgrwt>
</event>
<event>
12    1  0.1201209E-007  0.2408563E+04  0.7818608E-02  0.8436305E-01
         -1   -1    0    0    0  501 -0.00000000000E+00  0.00000000000E+00  0.10010413926E+04  0.10010413926E+04  0.00000000000E+00 0.  1.
          1   -1    0    0  501    0  0.00000000000E+00 -0.00000000000E+00 -0.14487850289E+04  0.14487850289E+04  0.00000000000E+00 0. -1.
         23    2    1    2    0    0  0.72305490960E+03 -0.42326846345E+03 -0.80388771118E+03  0.11646118660E+04  0.90115213525E+02 0.  0.
        254    2    1    2    0    0 -0.72305490960E+03  0.42326846345E+03  0.35614407492E+03  0.12852145555E+04  0.90717873495E+03 0.  0.
        -24    2    4    4    0    0 -0.76610439459E+03 -0.20265177813E+02  0.30423011568E+03  0.82897086528E+03  0.85499189151E+02 0.  0.
         24    2    4    4    0    0  0.43049484999E+02  0.44353364126E+03  0.51913959235E+02  0.45624369023E+03  0.82993352863E+02 0.  0.
         13    1    3    3    0    0  0.17177288338E+02 -0.37921458154E+01 -0.37468573804E+02  0.41392434423E+02  0.00000000000E+00 0.  1.
        -13    1    3    3    0    0  0.70587762126E+03 -0.41947631763E+03 -0.76641913738E+03  0.11232194315E+04  0.00000000000E+00 0. -1.
          4    1    6    6  502    0  0.56720457843E+02  0.16985709157E+03  0.26904287485E+02  0.18108694756E+03  0.00000000000E+00 0. -1.
          1    1    5    5  503    0 -0.69239422492E+03 -0.22490944380E+02  0.24646540839E+03  0.73529640473E+03  0.00000000000E+00 0. -1.
         -2    1    5    5    0  503 -0.73710169677E+02  0.22257665672E+01  0.57764707288E+02  0.93674460547E+02  0.00000000000E+00 0.  1.
         -3    1    6    6    0  502 -0.13670972844E+02  0.27367654970E+03  0.25009671750E+02  0.27515674266E+03  0.00000000000E+00 0.  1.
<mgrwt>
<rscale>  0 0.24085629E+04</rscale>
<asrwt>0</asrwt>
<pdfrwt beam="1">  1        1 0.22289000E+00 0.24085629E+04</pdfrwt>
<pdfrwt beam="2">  1       -1 0.15400637E+00 0.24085629E+04</pdfrwt>
<totfact> 0.20654464E+00</totfact>
</mgrwt>
</event>
<event>
12    1  0.1659539E-007  0.1603471E+04  0.7818608E-02  0.8818418E-01
          3   -1    0    0  501    0  0.00000000000E+00  0.00000000000E+00  0.89925930751E+03  0.89925930751E+03  0.00000000000E+00 0. -1.
         -3   -1    0    0    0  501 -0.00000000000E+00 -0.00000000000E+00 -0.71478822707E+03  0.71478822707E+03  0.00000000000E+00 0.  1.
         23    2    1    2    0    0  0.15971031966E+03 -0.17306776605E+03 -0.43341999602E+03  0.50141561115E+03  0.90027130922E+02 0.  0.
        254    2    1    2    0    0 -0.15971031966E+03  0.17306776605E+03  0.61789107646E+03  0.11126319234E+04  0.89481873964E+03 0.  0.
        -24    2    4    4    0    0  0.27613730997E+03 -0.10238543603E+03  0.14018568657E+01  0.30490149191E+03  0.78919979104E+02 0.  0.
         24    2    4    4    0    0 -0.43584762963E+03  0.27545320208E+03  0.61648921959E+03  0.80773043152E+03  0.80819980995E+02 0.  0.
         13    1    3    3    0    0 -0.67721284732E+01 -0.29207872332E+02 -0.33453455815E+02  0.44923214891E+02  0.00000000000E+00 0. -1.
        -13    1    3    3    0    0  0.16648244814E+03 -0.14385989372E+03 -0.39996654020E+03  0.45649239626E+03  0.00000000000E+00 0.  1.
          2    1    6    6  502    0 -0.21172966350E+01 -0.49284271210E+01  0.76629100759E+01  0.93537441572E+01  0.00000000000E+00 0. -1.
          3    1    5    5  503    0  0.38831230166E+02  0.13071377269E+02  0.14842845206E+01  0.40999127313E+02  0.00000000000E+00 0. -1.
         -4    1    5    5    0  503  0.23730607980E+03 -0.11545681330E+03 -0.82427654931E-01  0.26390236460E+03  0.00000000000E+00 0.  1.
         -1    1    6    6    0  502 -0.43373033300E+03  0.28038162920E+03  0.60882630952E+03  0.79837668736E+03  0.00000000000E+00 0.  1.
<mgrwt>
<rscale>  0 0.16034712E+04</rscale>
<asrwt>0</asrwt>
<pdfrwt beam="1">  1        3 0.13834759E+00 0.16034712E+04</pdfrwt>
<pdfrwt beam="2">  1       -3 0.10996742E+00 0.16034712E+04</pdfrwt>
<totfact> 0.69711968E-01</totfact>
</mgrwt>
</event>
<event>
12    1  0.1201209E-007  0.2245215E+04  0.7818608E-02  0.8499841E-01
          2   -1    0    0  501    0  0.00000000000E+00  0.00000000000E+00  0.29120594856E+04  0.29120594856E+04  0.00000000000E+00 0. -1.
         -2   -1    0    0    0  501 -0.00000000000E+00 -0.00000000000E+00 -0.43276866356E+03  0.43276866356E+03  0.00000000000E+00 0.  1.
         23    2    1    2    0    0 -0.48538611224E+03  0.29472443740E+03  0.21598260331E+04  0.22349245608E+04  0.87046696262E+02 0.  0.
        254    2    1    2    0    0  0.48538611224E+03 -0.29472443740E+03  0.31946478889E+03  0.11099035883E+04  0.89853550404E+03 0.  0.
        -24    2    4    4    0    0  0.24514435535E+03  0.25718253129E+03 -0.93006723921E+02  0.37582227876E+03  0.79709003028E+02 0.  0.
         24    2    4    4    0    0  0.24024175689E+03 -0.55190696868E+03  0.41247151282E+03  0.73408130954E+03  0.80157446881E+02 0.  0.
         13    1    3    3    0    0 -0.20870770824E+03  0.92249141469E+02  0.74578928554E+03  0.77991696353E+03  0.00000000000E+00 0. -1.
        -13    1    3    3    0    0 -0.27667840399E+03  0.20247529593E+03  0.14140367476E+04  0.14550075973E+04  0.00000000000E+00 0.  1.
          2    1    6    6  502    0  0.52845102202E+01 -0.30898382868E+01  0.16768374164E+02  0.17850812895E+02  0.00000000000E+00 0. -1.
          1    1    5    5  503    0  0.12070901143E+03  0.71983196920E+02 -0.45250882366E+02  0.14764785279E+03  0.00000000000E+00 0. -1.
         -2    1    5    5    0  503  0.12443534392E+03  0.18519933437E+03 -0.47755841555E+02  0.22817442597E+03  0.00000000000E+00 0.  1.
         -3    1    6    6    0  502  0.23495724667E+03 -0.54881713040E+03  0.39570313865E+03  0.71623049664E+03  0.00000000000E+00 0.  1.
<mgrwt>
<rscale>  0 0.22452154E+04</rscale>
<asrwt>0</asrwt>
<pdfrwt beam="1">  1        2 0.44800914E+00 0.22452154E+04</pdfrwt>
<pdfrwt beam="2">  1       -2 0.66579796E-01 0.22452154E+04</pdfrwt>
<totfact> 0.37310661E+00</totfact>
</mgrwt>
</event>
<event>
12    1  0.1201209E-007  0.1890100E+04  0.7818608E-02  0.8659800E-01
          1   -1    0    0  501    0  0.00000000000E+00  0.00000000000E+00  0.91197915490E+03  0.91197915490E+03  0.00000000000E+00 0. -1.
         -1   -1    0    0    0  501 -0.00000000000E+00 -0.00000000000E+00 -0.97932024876E+03  0.97932024876E+03  0.00000000000E+00 0.  1.
         23    2    1    2    0    0  0.70967051122E+03  0.15434821113E+03 -0.19329320933E+02  0.73214682874E+03  0.90607678527E+02 0.  0.
        254    2    1    2    0    0 -0.70967051122E+03 -0.15434821113E+03 -0.48011772927E+02  0.11591525749E+04  0.90214963106E+03 0.  0.
        -24    2    4    4    0    0  0.26553580459E+02  0.10092013019E+02 -0.33615362983E+03  0.34699067315E+03  0.81217750758E+02 0.  0.
         24    2    4    4    0    0 -0.73622409168E+03 -0.16444022415E+03  0.28814185691E+03  0.81216190177E+03  0.86687510582E+02 0.  0.
         11    1    3    3    0    0  0.82061806538E+01  0.95764566988E+01 -0.95716642539E+01  0.15832456550E+02  0.00000000000E+00 0. -1.
        -11    1    3    3    0    0  0.70146433057E+03  0.14477175443E+03 -0.97576566792E+01  0.71631437219E+03  0.00000000000E+00 0.  1.
          2    1    6    6  502    0 -0.10211674317E+03  0.67791282680E+01  0.44783216707E+02  0.11171088718E+03  0.00000000000E+00 0. -1.
          3    1    5    5  503    0  0.17335377780E+02 -0.34572632075E+02 -0.12000838587E+03  0.12608645800E+03  0.00000000000E+00 0. -1.
         -2    1    5    5    0  503  0.92182026791E+01  0.44664645095E+02 -0.21614524397E+03  0.22090421515E+03  0.00000000000E+00 0.  1.
         -1    1    6    6    0  502 -0.63410734851E+03 -0.17121935242E+03  0.24335864020E+03  0.70045101459E+03  0.00000000000E+00 0.  1.
<mgrwt>
<rscale>  0 0.18901002E+04</rscale>
<asrwt>0</asrwt>
<pdfrwt beam="1">  1        1 0.14030448E+00 0.18901002E+04</pdfrwt>
<pdfrwt beam="2">  1       -1 0.15066465E+00 0.18901002E+04</pdfrwt>
<totfact> 0.57437071E+00</totfact>
</mgrwt>
</event>
<event>
12    1  0.1201209E-007  0.1153699E+04  0.7818608E-02  0.9154378E-01
          1   -1    0    0  501    0  0.00000000000E+00  0.00000000000E+00  0.78479181763E+03  0.78479181763E+03  0.00000000000E+00 0. -1.
         -1   -1    0    0    0  501 -0.00000000000E+00 -0.00000000000E+00 -0.42400457824E+03  0.42400457824E+03  0.00000000000E+00 0.  1.
         23    2    1    2    0    0  0.27662740218E+01  0.84825157125E+00  0.28037129464E+03  0.29483798443E+03  0.91175667796E+02 0.  0.
        254    2    1    2    0    0 -0.27662740218E+01 -0.84825157125E+00  0.80415944749E+02  0.91395841145E+03  0.91040918377E+03 0.  0.
        -24    2    4    4    0    0 -0.28878266921E+03  0.10416201801E+03 -0.28871636125E+03  0.42852067382E+03  0.77638100231E+02 0.  0.
         24    2    4    4    0    0  0.28601639519E+03 -0.10501026959E+03  0.36913230600E+03  0.48543773763E+03  0.80985200793E+02 0.  0.
         11    1    3    3    0    0  0.40159573905E+02 -0.18431369237E+02  0.19121276037E+03  0.19625194642E+03  0.00000000000E+00 0. -1.
        -11    1    3    3    0    0 -0.37393299883E+02  0.19279620808E+02  0.89158534277E+02  0.98586038002E+02  0.00000000000E+00 0.  1.
          4    1    6    6  502    0  0.25244098843E+03 -0.73305639374E+02  0.27408810245E+03  0.37976895253E+03  0.00000000000E+00 0. -1.
          3    1    5    5  503    0 -0.22004017595E+03  0.10190479751E+03 -0.25510735825E+03  0.35196879268E+03  0.00000000000E+00 0. -1.
         -4    1    5    5    0  503 -0.68742493260E+02  0.22572205057E+01 -0.33609003003E+02  0.76551881145E+02  0.00000000000E+00 0.  1.
         -1    1    6    6    0  502  0.33575406762E+02 -0.31704630212E+02  0.95044203543E+02  0.10566878509E+03  0.00000000000E+00 0.  1.
<mgrwt>
<rscale>  0 0.11536990E+04</rscale>
<asrwt>0</asrwt>
<pdfrwt beam="1">  1        1 0.12073720E+00 0.11536990E+04</pdfrwt>
<pdfrwt beam="2">  1       -1 0.65231473E-01 0.11536990E+04</pdfrwt>
<totfact> 0.53948380E+01</totfact>
</mgrwt>
</event>
<event>
12    1  0.1201209E-007  0.1191239E+04  0.7818608E-02  0.9120560E-01
         -2   -1    0    0    0  501 -0.00000000000E+00  0.00000000000E+00  0.44487927119E+03  0.44487927119E+03  0.00000000000E+00 0.  1.
          2   -1    0    0  501    0  0.00000000000E+00 -0.00000000000E+00 -0.79743523848E+03  0.79743523848E+03  0.00000000000E+00 0. -1.
         23    2    1    2    0    0 -0.11482301428E+03  0.20556954736E+02  0.15898625342E+03  0.21728414985E+03  0.91262588178E+02 0.  0.
        254    2    1    2    0    0  0.11482301428E+03 -0.20556954736E+02 -0.51154222071E+03  0.10250303598E+04  0.88057077058E+03 0.  0.
        -24    2    4    4    0    0  0.31970057823E+03  0.30126304586E+03 -0.44426216372E+03  0.62981625985E+03  0.79572410661E+02 0.  0.
         24    2    4    4    0    0 -0.20487756394E+03 -0.32182000060E+03 -0.67280056993E+02  0.39521409997E+03  0.78260141553E+02 0.  0.
         13    1    3    3    0    0 -0.11707102527E+03 -0.31921460569E+01  0.15302041918E+03  0.19269422264E+03  0.00000000000E+00 0.  1.
        -13    1    3    3    0    0  0.22480109854E+01  0.23749100793E+02  0.59658342462E+01  0.24589927209E+02  0.00000000000E+00 0. -1.
          4    1    6    6  502    0 -0.67248478172E+02 -0.60427590165E+02  0.67727059688E+01  0.90662677082E+02  0.00000000000E+00 0. -1.
          3    1    5    5  503    0  0.21539085699E+02  0.45568485971E+02 -0.28696744057E+02  0.57999329702E+02  0.00000000000E+00 0. -1.
         -4    1    5    5    0  503  0.29816149253E+03  0.25569455989E+03 -0.41556541966E+03  0.57181693015E+03  0.00000000000E+00 0.  1.
         -3    1    6    6    0  502 -0.13762908577E+03 -0.26139241043E+03 -0.74052762961E+02  0.30455142289E+03  0.00000000000E+00 0.  1.
<mgrwt>
<rscale>  0 0.11912387E+04</rscale>
<asrwt>0</asrwt>
<pdfrwt beam="1">  1        2 0.12268235E+00 0.11912387E+04</pdfrwt>
<pdfrwt beam="2">  1       -2 0.68442964E-01 0.11912387E+04</pdfrwt>
<totfact> 0.66712705E+01</totfact>
</mgrwt>
</event>
<event>
12    1  0.1924561E-007  0.2213922E+04  0.7818608E-02  0.8512656E-01
          2   -1    0    0  501    0  0.00000000000E+00  0.00000000000E+00  0.18971215176E+04  0.18971215176E+04  0.00000000000E+00 0.  1.
         -2   -1    0    0    0  501 -0.00000000000E+00 -0.00000000000E+00 -0.64590647071E+03  0.64590647071E+03  0.00000000000E+00 0. -1.
         23    2    1    2    0    0 -0.26243690266E+03  0.83614765804E+03  0.19411834773E+03  0.90219722607E+03  0.90894817732E+02 0.  0.
        254    2    1    2    0    0  0.26243690266E+03 -0.83614765804E+03  0.10570966992E+04  0.16408307623E+04  0.89825170471E+03 0.  0.
        -24    2    4    4    0    0 -0.24448647244E+01  0.14341841803E+03 -0.11953165823E+02  0.16464030433E+03  0.79929541755E+02 0.  0.
         24    2    4    4    0    0  0.26488176738E+03 -0.97956607606E+03  0.10690498650E+04  0.14761904579E+04  0.80985221602E+02 0.  0.
         11    1    3    3    0    0 -0.28761372875E+02  0.93391595290E+02 -0.70797764422E+01  0.97976169934E+02  0.00000000000E+00 0.  1.
        -11    1    3    3    0    0 -0.23367552979E+03  0.74275606275E+03  0.20119812417E+03  0.80422105614E+03  0.00000000000E+00 0. -1.
          4    1    6    6  502    0  0.16827670005E+03 -0.52081828192E+03  0.53150403781E+03  0.76293202369E+03  0.00000000000E+00 0. -1.
          1    1    5    5  503    0 -0.22907809254E+02  0.54260719327E+02  0.27521055943E+02  0.65010783005E+02  0.00000000000E+00 0. -1.
         -2    1    5    5    0  503  0.20462944529E+02  0.89157698699E+02 -0.39474221766E+02  0.99629521329E+02  0.00000000000E+00 0.  1.
         -3    1    6    6    0  502  0.96605067338E+02 -0.45874779415E+03  0.53754582721E+03  0.71325843424E+03  0.00000000000E+00 0.  1.
<mgrwt>
<rscale>  0 0.22139224E+04</rscale>
<asrwt>0</asrwt>
<pdfrwt beam="1">  1        2 0.29186485E+00 0.22139224E+04</pdfrwt>
<pdfrwt beam="2">  1       -2 0.99370227E-01 0.22139224E+04</pdfrwt>
<totfact> 0.58341107E+00</totfact>
</mgrwt>
</event>
<event>
12    1  0.1201209E-007  0.1872561E+04  0.7818608E-02  0.8668637E-01
          1   -1    0    0  501    0  0.00000000000E+00  0.00000000000E+00  0.11382699451E+04  0.11382699451E+04  0.00000000000E+00 0. -1.
         -1   -1    0    0    0  501 -0.00000000000E+00 -0.00000000000E+00 -0.77013443088E+03  0.77013443088E+03  0.00000000000E+00 0.  1.
         23    2    1    2    0    0  0.24809001587E+03  0.61345042927E+03 -0.13855411868E+03  0.68246257156E+03  0.93208543752E+02 0.  0.
        254    2    1    2    0    0 -0.24809001587E+03 -0.61345042927E+03  0.50668963289E+03  0.12259418044E+04  0.89907109763E+03 0.  0.
        -24    2    4    4    0    0  0.27291628388E+03 -0.32410070639E+03  0.44821495498E+03  0.62183978429E+03  0.79142312177E+02 0.  0.
         24    2    4    4    0    0 -0.52100629975E+03 -0.28934972288E+03  0.58474677913E+02  0.60410202013E+03  0.79681467449E+02 0.  0.
         13    1    3    3    0    0  0.28903258394E+02  0.44786854220E+02  0.12132477224E+02  0.54666787543E+02  0.00000000000E+00 0. -1.
        -13    1    3    3    0    0  0.21918675747E+03  0.56866357505E+03 -0.15068659590E+03  0.62779578401E+03  0.00000000000E+00 0.  1.
          4    1    6    6  502    0 -0.23630166937E+03 -0.17238767564E+03  0.11330350745E+02  0.29271892065E+03  0.00000000000E+00 0. -1.
          1    1    5    5  503    0  0.10820027044E+03 -0.12332902050E+03  0.23068428508E+03  0.28307699519E+03  0.00000000000E+00 0. -1.
         -2    1    5    5    0  503  0.16471601344E+03 -0.20077168588E+03  0.21753066990E+03  0.33876278910E+03  0.00000000000E+00 0.  1.
         -3    1    6    6    0  502 -0.28470463038E+03 -0.11696204724E+03  0.47144327168E+02  0.31138309947E+03  0.00000000000E+00 0.  1.
<mgrwt>
<rscale>  0 0.18725607E+04</rscale>
<asrwt>0</asrwt>
<pdfrwt beam="1">  1        1 0.17511845E+00 0.18725607E+04</pdfrwt>
<pdfrwt beam="2">  1       -1 0.11848222E+00 0.18725607E+04</pdfrwt>
<totfact> 0.71094909E+00</totfact>
</mgrwt>
</event>
<event>
12    1  0.1201209E-007  0.1647524E+04  0.7818608E-02  0.8791873E-01
         -2   -1    0    0    0  501 -0.00000000000E+00  0.00000000000E+00  0.19228972104E+03  0.19228972104E+03  0.00000000000E+00 0.  1.
          2   -1    0    0  501    0  0.00000000000E+00 -0.00000000000E+00 -0.35289641077E+04  0.35289641077E+04  0.00000000000E+00 0. -1.
         23    2    1    2    0    0 -0.97020806526E+02 -0.46956113809E+03 -0.46704558624E+03  0.67556249529E+03  0.91391499120E+02 0.  0.
        254    2    1    2    0    0  0.97020806526E+02  0.46956113809E+03 -0.28696288004E+04  0.30456913334E+04  0.90086932857E+03 0.  0.
        -24    2    4    4    0    0 -0.38029774729E+03  0.30541546752E+03 -0.11483616198E+04  0.12502453980E+04  0.80462170167E+02 0.  0.
         24    2    4    4    0    0  0.47731855382E+03  0.16414567057E+03 -0.17212671806E+04  0.17954459355E+04  0.78029464415E+02 0.  0.
         11    1    3    3    0    0 -0.41346371210E+02 -0.53229466563E+02 -0.77306807649E+02  0.10256335131E+03  0.00000000000E+00 0. -1.
        -11    1    3    3    0    0 -0.55674435316E+02 -0.41633167153E+03 -0.38973877859E+03  0.57299914398E+03  0.00000000000E+00 0.  1.
          4    1    6    6  502    0  0.13660382438E+03  0.31580423899E+02 -0.37266606800E+03  0.39816821351E+03  0.00000000000E+00 0. -1.
          3    1    5    5  503    0 -0.90460947874E+02  0.43217414006E+02 -0.29684588891E+03  0.31331838395E+03  0.00000000000E+00 0. -1.
         -4    1    5    5    0  503 -0.28983679942E+03  0.26219805352E+03 -0.85151573093E+03  0.93692701401E+03  0.00000000000E+00 0.  1.
         -3    1    6    6    0  502  0.34071472944E+03  0.13256524667E+03 -0.13486011126E+04  0.13972777220E+04  0.00000000000E+00 0.  1.
<mgrwt>
<rscale>  0 0.16475236E+04</rscale>
<asrwt>0</asrwt>
<pdfrwt beam="1">  1        2 0.54291755E+00 0.16475236E+04</pdfrwt>
<pdfrwt beam="2">  1       -2 0.29583035E-01 0.16475236E+04</pdfrwt>
<totfact> 0.78901594E+00</totfact>
</mgrwt>
</event>
<event>
12    1  0.1201209E-007  0.4811691E+04  0.7818608E-02  0.7858231E-01
         -2   -1    0    0    0  501 -0.00000000000E+00  0.00000000000E+00  0.20292989231E+04  0.20292989231E+04  0.00000000000E+00 0.  1.
          2   -1    0    0  501    0  0.00000000000E+00 -0.00000000000E+00 -0.28522623846E+04  0.28522623846E+04  0.00000000000E+00 0. -1.
         23    2    1    2    0    0  0.15698509406E+04  0.16752581626E+04 -0.73450771658E+03  0.24122085685E+04  0.91250781194E+02 0.  0.
        254    2    1    2    0    0 -0.15698509406E+04 -0.16752581626E+04 -0.88455744899E+02  0.24693527392E+04  0.90496223373E+03 0.  0.
        -24    2    4    4    0    0 -0.15939165792E+04 -0.13135866096E+04  0.64519947144E+02  0.20679868913E+04  0.79543173642E+02 0.  0.
         24    2    4    4    0    0  0.24065638574E+02 -0.36167155300E+03 -0.15297569204E+03  0.40136584791E+03  0.79419860877E+02 0.  0.
         11    1    3    3    0    0  0.26666254484E+03  0.23647450663E+03 -0.11696813866E+03  0.37511418337E+03  0.00000000000E+00 0. -1.
        -11    1    3    3    0    0  0.13031883958E+04  0.14387836560E+04 -0.61753957792E+03  0.20370943852E+04  0.00000000000E+00 0.  1.
          4    1    6    6  502    0  0.37192307792E+02 -0.16447400702E+03 -0.10269311085E+03  0.19743566486E+03  0.00000000000E+00 0. -1.
          3    1    5    5  503    0 -0.10600283727E+04 -0.91574154944E+03  0.25727290245E+02  0.14010369837E+04  0.00000000000E+00 0. -1.
         -4    1    5    5    0  503 -0.53388820651E+03 -0.39784506021E+03  0.38792656899E+02  0.66694990758E+03  0.00000000000E+00 0.  1.
         -3    1    6    6    0  502 -0.13126669218E+02 -0.19719754598E+03 -0.50282581194E+02  0.20393018305E+03  0.00000000000E+00 0.  1.
<mgrwt>
<rscale>  0 0.48116912E+04</rscale>
<asrwt>0</asrwt>
<pdfrwt beam="1">  1        2 0.43880960E+00 0.48116912E+04</pdfrwt>
<pdfrwt beam="2">  1       -2 0.31219983E+00 0.48116912E+04</pdfrwt>
<totfact> 0.42471251E-02</totfact>
</mgrwt>
</event>
<event>
12    1  0.1201209E-007  0.1260861E+04  0.7818608E-02  0.9061192E-01
          2   -1    0    0  501    0  0.00000000000E+00  0.00000000000E+00  0.22301053409E+04  0.22301053409E+04  0.00000000000E+00 0.  1.
         -2   -1    0    0    0  501 -0.00000000000E+00 -0.00000000000E+00 -0.17821697874E+03  0.17821697874E+03  0.00000000000E+00 0. -1.
         23    2    1    2    0    0 -0.86837624145E+02 -0.26440684027E+03  0.37629579512E+03  0.48436274275E+03  0.12472766730E+03 0.  0.
        254    2    1    2    0    0  0.86837624145E+02  0.26440684027E+03  0.16755925671E+04  0.19239595769E+04  0.90363612845E+03 0.  0.
        -24    2    4    4    0    0 -0.30300443280E+03  0.39927419645E+03  0.10973864377E+04  0.12092449347E+04  0.82369583298E+02 0.  0.
         24    2    4    4    0    0  0.38984205695E+03 -0.13486735618E+03  0.57820612940E+03  0.71471464222E+03  0.79552866716E+02 0.  0.
         11    1    3    3    0    0  0.30111495548E+02 -0.72571690069E+02  0.12113472792E+03  0.14438481455E+03  0.00000000000E+00 0.  1.
        -11    1    3    3    0    0 -0.11694911969E+03 -0.19183515020E+03  0.25516106720E+03  0.33997792820E+03  0.00000000000E+00 0. -1.
          2    1    6    6  502    0  0.23099458670E+03 -0.41899010228E+02  0.35173083038E+03  0.42288131099E+03  0.00000000000E+00 0. -1.
          1    1    5    5  503    0 -0.30745952000E+03  0.39573058787E+03  0.10737991289E+04  0.11849804318E+04  0.00000000000E+00 0. -1.
         -2    1    5    5    0  503  0.44550871957E+01  0.35436085775E+01  0.23587308807E+02  0.24264502889E+02  0.00000000000E+00 0.  1.
         -1    1    6    6    0  502  0.15884747024E+03 -0.92968345951E+02  0.22647529902E+03  0.29183333123E+03  0.00000000000E+00 0.  1.
<mgrwt>
<rscale>  0 0.12608610E+04</rscale>
<asrwt>0</asrwt>
<pdfrwt beam="1">  1        2 0.34309311E+00 0.12608610E+04</pdfrwt>
<pdfrwt beam="2">  1       -2 0.27417998E-01 0.12608610E+04</pdfrwt>
<totfact> 0.59296057E+01</totfact>
</mgrwt>
</event>
<event>
12    1  0.1201209E-007  0.1398248E+04  0.7818608E-02  0.8955087E-01
          2   -1    0    0  501    0  0.00000000000E+00  0.00000000000E+00  0.91130663568E+03  0.91130663568E+03  0.00000000000E+00 0. -1.
         -2   -1    0    0    0  501 -0.00000000000E+00 -0.00000000000E+00 -0.53634494107E+03  0.53634494107E+03  0.00000000000E+00 0.  1.
         23    2    1    2    0    0  0.21854437178E+03 -0.33729743837E+03  0.10642073561E+03  0.42516581248E+03  0.88934755706E+02 0.  0.
        254    2    1    2    0    0 -0.21854437178E+03  0.33729743837E+03  0.26854095900E+03  0.10224857643E+04  0.90101702930E+03 0.  0.
        -24    2    4    4    0    0 -0.13035641298E+03  0.51287908267E+03 -0.14844420784E+03  0.55528502082E+03  0.79170851131E+02 0.  0.
         24    2    4    4    0    0 -0.88187958794E+02 -0.17558164430E+03  0.41698516684E+03  0.46720074344E+03  0.76117510577E+02 0.  0.
         13    1    3    3    0    0  0.23570572893E+02 -0.20989923800E+01  0.91640180604E+01  0.25376305928E+02  0.00000000000E+00 0.  1.
        -13    1    3    3    0    0  0.19497379888E+03 -0.33519844599E+03  0.97256717545E+02  0.39978950656E+03  0.00000000000E+00 0. -1.
          4    1    6    6  502    0 -0.51026734346E+02 -0.53301069253E+02  0.91644853247E+02  0.11765844946E+03  0.00000000000E+00 0. -1.
          3    1    5    5  503    0 -0.73059455777E+02  0.20961350730E+03 -0.26987021716E+02  0.22361530775E+03  0.00000000000E+00 0. -1.
         -4    1    5    5    0  503 -0.57296957205E+02  0.30326557537E+03 -0.12145718612E+03  0.33166971307E+03  0.00000000000E+00 0.  1.
         -3    1    6    6    0  502 -0.37161224448E+02 -0.12228057504E+03  0.32534031359E+03  0.34954229398E+03  0.00000000000E+00 0.  1.
<mgrwt>
<rscale>  0 0.13982485E+04</rscale>
<asrwt>0</asrwt>
<pdfrwt beam="1">  1        2 0.14020102E+00 0.13982485E+04</pdfrwt>
<pdfrwt beam="2">  1       -2 0.82514606E-01 0.13982485E+04</pdfrwt>
<totfact> 0.36160232E+01</totfact>
</mgrwt>
</event>
<event>
12    1  0.1201209E-007  0.1792574E+04  0.7818608E-02  0.8710259E-01
          2   -1    0    0  501    0  0.00000000000E+00  0.00000000000E+00  0.10458491555E+04  0.10458491555E+04  0.00000000000E+00 0.  1.
         -2   -1    0    0    0  501 -0.00000000000E+00 -0.00000000000E+00 -0.76811272267E+03  0.76811272267E+03  0.00000000000E+00 0. -1.
         23    2    1    2    0    0 -0.21834599006E+03  0.28484175245E+01  0.73117528524E+03  0.76908715200E+03  0.95888814608E+02 0.  0.
        254    2    1    2    0    0  0.21834599006E+03 -0.28484175245E+01 -0.45343885243E+03  0.10448747262E+04  0.91568188559E+03 0.  0.
        -24    2    4    4    0    0 -0.35404859891E+03  0.23373036024E+01 -0.19593509975E+03  0.41290193657E+03  0.82107079676E+02 0.  0.
         24    2    4    4    0    0  0.57239458897E+03 -0.51857211269E+01 -0.25750375269E+03  0.63197278958E+03  0.73613632770E+02 0.  0.
         13    1    3    3    0    0 -0.16622582906E+03  0.23546994644E+02  0.64326852605E+03  0.66481567657E+03  0.00000000000E+00 0.  1.
        -13    1    3    3    0    0 -0.52120160997E+02 -0.20698577120E+02  0.87906759185E+02  0.10427147543E+03  0.00000000000E+00 0. -1.
          2    1    6    6  502    0  0.48645713231E+03  0.21150837614E+02 -0.22506248242E+03  0.53641497042E+03  0.00000000000E+00 0. -1.
          1    1    5    5  503    0 -0.89513585784E+02  0.34501663367E+02 -0.38369381717E+02  0.10332113176E+03  0.00000000000E+00 0. -1.
         -2    1    5    5    0  503 -0.26453501313E+03 -0.32164359764E+02 -0.15756571803E+03  0.30958080481E+03  0.00000000000E+00 0.  1.
         -1    1    6    6    0  502  0.85937456666E+02 -0.26336558741E+02 -0.32441270270E+02  0.95557819153E+02  0.00000000000E+00 0.  1.
<mgrwt>
<rscale>  0 0.17925736E+04</rscale>
<asrwt>0</asrwt>
<pdfrwt beam="1">  1        2 0.16089987E+00 0.17925736E+04</pdfrwt>
<pdfrwt beam="2">  1       -2 0.11817119E+00 0.17925736E+04</pdfrwt>
<totfact> 0.12272565E+01</totfact>
</mgrwt>
</event>
<event>
12    1  0.1201209E-007  0.2457866E+04  0.7818608E-02  0.8418151E-01
          1   -1    0    0  501    0  0.00000000000E+00  0.00000000000E+00  0.60405945083E+03  0.60405945083E+03  0.00000000000E+00 0. -1.
         -1   -1    0    0    0  501 -0.00000000000E+00 -0.00000000000E+00 -0.25002123409E+04  0.25002123409E+04  0.00000000000E+00 0.  1.
         23    2    1    2    0    0  0.62569449859E+03 -0.16340569998E+03  0.24319667842E+03  0.69428348698E+03  0.68482899682E+02 0.  0.
        254    2    1    2    0    0 -0.62569449859E+03  0.16340569998E+03 -0.21393495685E+04  0.24099883048E+04  0.90168288465E+03 0.  0.
        -24    2    4    4    0    0 -0.68216742763E+03 -0.21351681326E+03 -0.13652951737E+04  0.15432560571E+04  0.81648745394E+02 0.  0.
         24    2    4    4    0    0  0.56472929042E+02  0.37692251324E+03 -0.77405439487E+03  0.86673224770E+03  0.82491274051E+02 0.  0.
         13    1    3    3    0    0  0.61945078918E+03 -0.16652016072E+03  0.23411495807E+03  0.68283091446E+03  0.00000000000E+00 0. -1.
        -13    1    3    3    0    0  0.62437094083E+01  0.31144607438E+01  0.90817203525E+01  0.11452572526E+02  0.00000000000E+00 0.  1.
          2    1    6    6  502    0 -0.18088786514E+02  0.10663902499E+03 -0.24979016265E+03  0.27220251873E+03  0.00000000000E+00 0. -1.
          1    1    5    5  503    0 -0.15382284786E+03 -0.24103671826E+02 -0.35201075907E+03  0.38490782016E+03  0.00000000000E+00 0. -1.
         -2    1    5    5    0  503 -0.52834457977E+03 -0.18941314143E+03 -0.10132844146E+04  0.11583482369E+04  0.00000000000E+00 0.  1.
         -1    1    6    6    0  502  0.74561715555E+02  0.27028348825E+03 -0.52426423222E+03  0.59452972897E+03  0.00000000000E+00 0.  1.
<mgrwt>
<rscale>  0 0.24578665E+04</rscale>
<asrwt>0</asrwt>
<pdfrwt beam="1">  1        1 0.92932224E-01 0.24578665E+04</pdfrwt>
<pdfrwt beam="2">  1       -1 0.38464805E+00 0.24578665E+04</pdfrwt>
<totfact> 0.27527612E-01</totfact>
</mgrwt>
</event>
<event>
12    1  0.1786446E-007  0.1479788E+04  0.7818608E-02  0.8898006E-01
         -2   -1    0    0    0  501 -0.00000000000E+00  0.00000000000E+00  0.32715463102E+03  0.32715463102E+03  0.00000000000E+00 0.  1.
          2   -1    0    0  501    0  0.00000000000E+00 -0.00000000000E+00 -0.16733478170E+04  0.16733478170E+04  0.00000000000E+00 0. -1.
         23    2    1    2    0    0  0.26414251679E+03  0.26863842264E+03 -0.79080758915E+03  0.88080609093E+03  0.92221773370E+02 0.  0.
        254    2    1    2    0    0 -0.26414251679E+03 -0.26863842264E+03 -0.55538559681E+03  0.11196963571E+04  0.89628617057E+03 0.  0.
        -24    2    4    4    0    0 -0.14441263190E+03 -0.24956012218E+03 -0.78961298037E+03  0.84429596369E+03  0.78814673157E+02 0.  0.
         24    2    4    4    0    0 -0.11972988489E+03 -0.19078300454E+02  0.23422738356E+03  0.27540039336E+03  0.79269682554E+02 0.  0.
         11    1    3    3    0    0  0.27609161702E+02  0.11169213187E+01 -0.32732015226E+02  0.42835711082E+02  0.00000000000E+00 0.  1.
        -11    1    3    3    0    0  0.23653335509E+03  0.26752150132E+03 -0.75807557392E+03  0.83797037985E+03  0.00000000000E+00 0. -1.
          2    1    6    6  502    0 -0.12412528067E+03 -0.24397886476E+01  0.22177028556E+03  0.25415565590E+03  0.00000000000E+00 0. -1.
          3    1    5    5  503    0 -0.11553243879E+03 -0.23711742981E+03 -0.73951305618E+03  0.78514456007E+03  0.00000000000E+00 0. -1.
         -4    1    5    5    0  503 -0.28880193116E+02 -0.12442692368E+02 -0.50099924183E+02  0.59151403626E+02  0.00000000000E+00 0.  1.
         -1    1    6    6    0  502  0.43953957808E+01 -0.16638511807E+02  0.12457097997E+02  0.21244737459E+02  0.00000000000E+00 0.  1.
<mgrwt>
<rscale>  0 0.14797885E+04</rscale>
<asrwt>0</asrwt>
<pdfrwt beam="1">  1        2 0.25743813E+00 0.14797885E+04</pdfrwt>
<pdfrwt beam="2">  1       -2 0.50331481E-01 0.14797885E+04</pdfrwt>
<totfact> 0.36656207E+01</totfact>
</mgrwt>
</event>
<event>
12    1  0.1201209E-007  0.2191178E+04  0.7818608E-02  0.8522109E-01
          2   -1    0    0  501    0  0.00000000000E+00  0.00000000000E+00  0.15796765044E+04  0.15796765044E+04  0.00000000000E+00 0. -1.
         -2   -1    0    0    0  501 -0.00000000000E+00 -0.00000000000E+00 -0.75984858878E+03  0.75984858878E+03  0.00000000000E+00 0.  1.
         23    2    1    2    0    0  0.36394334857E+03 -0.59080653939E+02  0.12154394468E+04  0.12734134187E+04  0.91342221786E+02 0.  0.
        254    2    1    2    0    0 -0.36394334857E+03  0.59080653939E+02 -0.39561153115E+03  0.10661116745E+04  0.91877110004E+03 0.  0.
        -24    2    4    4    0    0 -0.65077587703E+03 -0.35271832657E+02 -0.36787286748E+03  0.75268510442E+03  0.80318587420E+02 0.  0.
         24    2    4    4    0    0  0.28683252846E+03  0.94352486597E+02 -0.27738663677E+02  0.31342657007E+03  0.79318914873E+02 0.  0.
         11    1    3    3    0    0  0.11717001651E+03  0.22844477293E+02  0.35387421089E+03  0.37346705350E+03  0.00000000000E+00 0.  1.
        -11    1    3    3    0    0  0.24677333207E+03 -0.81925131232E+02  0.86156523587E+03  0.89994636518E+03  0.00000000000E+00 0. -1.
          4    1    6    6  502    0  0.22884405299E+03  0.84996664390E+02 -0.52469952510E+02  0.24969407174E+03  0.00000000000E+00 0. -1.
          1    1    5    5  503    0 -0.61398581010E+03 -0.20806500533E+02 -0.32749960981E+03  0.69618063740E+03  0.00000000000E+00 0. -1.
         -2    1    5    5    0  503 -0.36790066933E+02 -0.14465332124E+02 -0.40373257669E+02  0.56504467020E+02  0.00000000000E+00 0.  1.
         -3    1    6    6    0  502  0.57988475467E+02  0.93558222068E+01  0.24731288833E+02  0.63732498331E+02  0.00000000000E+00 0.  1.
<mgrwt>
<rscale>  0 0.21911777E+04</rscale>
<asrwt>0</asrwt>
<pdfrwt beam="1">  1        2 0.24302715E+00 0.21911777E+04</pdfrwt>
<pdfrwt beam="2">  1       -2 0.11689978E+00 0.21911777E+04</pdfrwt>
<totfact> 0.59327446E+00</totfact>
</mgrwt>
</event>
<event>
12    1  0.1201209E-007  0.1613817E+04  0.7818608E-02  0.8812104E-01
          2   -1    0    0  501    0  0.00000000000E+00  0.00000000000E+00  0.42342668992E+03  0.42342668992E+03  0.00000000000E+00 0. -1.
         -2   -1    0    0    0  501 -0.00000000000E+00 -0.00000000000E+00 -0.15376959116E+04  0.15376959116E+04  0.00000000000E+00 0.  1.
         23    2    1    2    0    0 -0.11719967638E+03 -0.11774382605E+03  0.25708532131E+03  0.31485970286E+03  0.73786159479E+02 0.  0.
        254    2    1    2    0    0  0.11719967638E+03  0.11774382605E+03 -0.13713545430E+04  0.16462628987E+04  0.89552714990E+03 0.  0.
        -24    2    4    4    0    0  0.46769953909E+03 -0.80162662642E+02 -0.56991193463E+03  0.74587894997E+03  0.79792752886E+02 0.  0.
         24    2    4    4    0    0 -0.35049986271E+03  0.19790648869E+03 -0.80144260839E+03  0.90038394872E+03  0.79773858777E+02 0.  0.
         11    1    3    3    0    0 -0.12547116455E+03 -0.11953464285E+03  0.24607864184E+03  0.30097548396E+03  0.00000000000E+00 0. -1.
        -11    1    3    3    0    0  0.82714881687E+01  0.17908167989E+01  0.11006679470E+02  0.13884218894E+02  0.00000000000E+00 0.  1.
          4    1    6    6  502    0 -0.30545881471E+03  0.18495547154E+03 -0.75074242258E+03  0.83134096434E+03  0.00000000000E+00 0. -1.
          3    1    5    5  503    0  0.37431326212E+03 -0.94509234647E+02 -0.47269161134E+03  0.61031121001E+03  0.00000000000E+00 0. -1.
         -4    1    5    5    0  503  0.93386276976E+02  0.14346572005E+02 -0.97220323297E+02  0.13556773996E+03  0.00000000000E+00 0.  1.
         -3    1    6    6    0  502 -0.45041048005E+02  0.12951017154E+02 -0.50700185813E+02  0.69042984381E+02  0.00000000000E+00 0.  1.
<mgrwt>
<rscale>  0 0.16138172E+04</rscale>
<asrwt>0</asrwt>
<pdfrwt beam="1">  1        2 0.65142569E-01 0.16138172E+04</pdfrwt>
<pdfrwt beam="2">  1       -2 0.23656860E+00 0.16138172E+04</pdfrwt>
<totfact> 0.55545860E+00</totfact>
</mgrwt>
</event>
<event>
12    1  0.1201209E-007  0.1326678E+04  0.7818608E-02  0.9008673E-01
         -2   -1    0    0    0  501 -0.00000000000E+00  0.00000000000E+00  0.87447177711E+03  0.87447177711E+03  0.00000000000E+00 0.  1.
          2   -1    0    0  501    0  0.00000000000E+00 -0.00000000000E+00 -0.50318191501E+03  0.50318191501E+03  0.00000000000E+00 0. -1.
         23    2    1    2    0    0  0.11959719710E+02 -0.20807332357E+03  0.39583296045E+03  0.45644972294E+03  0.90692194360E+02 0.  0.
        254    2    1    2    0    0 -0.11959719710E+02  0.20807332357E+03 -0.24543098344E+02  0.92120396918E+03  0.89698207690E+03 0.  0.
        -24    2    4    4    0    0 -0.16607086728E+03  0.17578934628E+03 -0.41848501328E+03  0.48981488671E+03  0.79419705862E+02 0.  0.
         24    2    4    4    0    0  0.15411114757E+03  0.32283977293E+02  0.39394191494E+03  0.43138908247E+03  0.78190837943E+02 0.  0.
         13    1    3    3    0    0 -0.78732136233E+01 -0.10335553829E+01 -0.13974826830E+01  0.80627964960E+01  0.00000000000E+00 0. -1.
        -13    1    3    3    0    0  0.19832933334E+02 -0.20703976819E+03  0.39723044313E+03  0.44838692644E+03  0.00000000000E+00 0.  1.
          2    1    6    6  502    0  0.81491134045E+02  0.56487422833E+02  0.21506853397E+03  0.23682505815E+03  0.00000000000E+00 0. -1.
          1    1    5    5  503    0  0.18141591905E+01  0.25147036105E+02 -0.72852428792E+02  0.77091769855E+02  0.00000000000E+00 0. -1.
         -2    1    5    5    0  503 -0.16788502647E+03  0.15064231017E+03 -0.34563258449E+03  0.41272311685E+03  0.00000000000E+00 0.  1.
         -1    1    6    6    0  502  0.72620013524E+02 -0.24203445541E+02  0.17887338097E+03  0.19456402432E+03  0.00000000000E+00 0.  1.
<mgrwt>
<rscale>  0 0.13266776E+04</rscale>
<asrwt>0</asrwt>
<pdfrwt beam="1">  1        2 0.77412602E-01 0.13266776E+04</pdfrwt>
<pdfrwt beam="2">  1       -2 0.13453412E+00 0.13266776E+04</pdfrwt>
<totfact> 0.23788028E+01</totfact>
</mgrwt>
</event>
<event>
12    1  0.1201209E-007  0.1340392E+04  0.7818608E-02  0.8998133E-01
         -2   -1    0    0    0  501 -0.00000000000E+00  0.00000000000E+00  0.26866805631E+04  0.26866805631E+04  0.00000000000E+00 0.  1.
          2   -1    0    0  501    0  0.00000000000E+00 -0.00000000000E+00 -0.16718127116E+03  0.16718127116E+03  0.00000000000E+00 0. -1.
         23    2    1    2    0    0 -0.17723094777E+03  0.11202277772E+03  0.13009469154E+04  0.13210509106E+04  0.93555973265E+02 0.  0.
        254    2    1    2    0    0  0.17723094777E+03 -0.11202277772E+03  0.12185523765E+04  0.15328109236E+04  0.90591363921E+03 0.  0.
        -24    2    4    4    0    0 -0.30443665418E+03  0.12853493926E+03  0.25075397296E+03  0.42250138014E+03  0.80168287041E+02 0.  0.
         24    2    4    4    0    0  0.48166760196E+03 -0.24055771698E+03  0.96779840357E+03  0.11103095435E+04  0.79258049777E+02 0.  0.
         13    1    3    3    0    0 -0.29523441126E+02  0.27754961477E+02  0.96560195406E+02  0.10471792014E+03  0.00000000000E+00 0. -1.
        -13    1    3    3    0    0 -0.14770750664E+03  0.84267816243E+02  0.12043867200E+04  0.12163329905E+04  0.00000000000E+00 0.  1.
          2    1    6    6  502    0 -0.23241910909E+01 -0.54421007892E+01  0.14069371846E+02  0.15263209012E+02  0.00000000000E+00 0. -1.
          1    1    5    5  503    0 -0.99318089794E+02  0.45091076535E+02  0.13197320842E+03  0.17121394769E+03  0.00000000000E+00 0. -1.
         -2    1    5    5    0  503 -0.20511856439E+03  0.83443862725E+02  0.11878076454E+03  0.25128743245E+03  0.00000000000E+00 0.  1.
         -1    1    6    6    0  502  0.48399179305E+03 -0.23511561619E+03  0.95372903173E+03  0.10950463345E+04  0.00000000000E+00 0.  1.
<mgrwt>
<rscale>  0 0.13403920E+04</rscale>
<asrwt>0</asrwt>
<pdfrwt beam="1">  1        2 0.25720197E-01 0.13403920E+04</pdfrwt>
<pdfrwt beam="2">  1       -2 0.41333544E+00 0.13403920E+04</pdfrwt>
<totfact> 0.12771253E+00</totfact>
</mgrwt>
</event>
<event>
12    1  0.1201209E-007  0.1399127E+04  0.7818608E-02  0.8954451E-01
          1   -1    0    0  501    0  0.00000000000E+00  0.00000000000E+00  0.11444017428E+04  0.11444017428E+04  0.00000000000E+00 0. -1.
         -1   -1    0    0    0  501 -0.00000000000E+00 -0.00000000000E+00 -0.42763753599E+03  0.42763753599E+03  0.00000000000E+00 0.  1.
         23    2    1    2    0    0 -0.24460056614E+03 -0.16206999301E+03 -0.10375173710E+03  0.32460349477E+03  0.92232783110E+02 0.  0.
        254    2    1    2    0    0  0.24460056614E+03  0.16206999301E+03  0.82051594387E+03  0.12474357840E+04  0.89261049814E+03 0.  0.
        -24    2    4    4    0    0  0.48456427186E+03  0.17607797303E+03  0.16938766721E+03  0.54876210971E+03  0.81496534238E+02 0.  0.
         24    2    4    4    0    0 -0.23996370572E+03 -0.14007980027E+02  0.65112827666E+03  0.69867367426E+03  0.79987917048E+02 0.  0.
         13    1    3    3    0    0 -0.10358476621E+03 -0.16843511040E+02 -0.29826465639E+02  0.10910144686E+03  0.00000000000E+00 0. -1.
        -13    1    3    3    0    0 -0.14101579993E+03 -0.14522648197E+03 -0.73925271460E+02  0.21550204791E+03  0.00000000000E+00 0.  1.
          4    1    6    6  502    0 -0.21540309534E+03 -0.10086442401E+02  0.48612104949E+03  0.53180250522E+03  0.00000000000E+00 0. -1.
          1    1    5    5  503    0  0.39379391557E+03  0.10794284318E+03  0.12713154834E+03  0.42765375705E+03  0.00000000000E+00 0. -1.
         -2    1    5    5    0  503  0.90770356292E+02  0.68135129854E+02  0.42256118864E+02  0.12110835266E+03  0.00000000000E+00 0.  1.
         -3    1    6    6    0  502 -0.24560610389E+02 -0.39215376268E+01  0.16500722716E+03  0.16687116904E+03  0.00000000000E+00 0.  1.
<mgrwt>
<rscale>  0 0.13991271E+04</rscale>
<asrwt>0</asrwt>
<pdfrwt beam="1">  1        1 0.17606181E+00 0.13991271E+04</pdfrwt>
<pdfrwt beam="2">  1       -1 0.65790390E-01 0.13991271E+04</pdfrwt>
<totfact> 0.26819024E+01</totfact>
</mgrwt>
</event>
<event>
12    1  0.1201209E-007  0.1237038E+04  0.7818608E-02  0.9081041E-01
         -2   -1    0    0    0  501 -0.00000000000E+00  0.00000000000E+00  0.59988791709E+03  0.59988791709E+03  0.00000000000E+00 0.  1.
          2   -1    0    0  501    0  0.00000000000E+00 -0.00000000000E+00 -0.63772917041E+03  0.63772917041E+03  0.00000000000E+00 0. -1.
         23    2    1    2    0    0  0.23943560998E+03 -0.10812904581E+03 -0.87073418628E+02  0.29227116499E+03  0.93911403886E+02 0.  0.
        254    2    1    2    0    0 -0.23943560998E+03  0.10812904581E+03  0.49232165308E+02  0.94534592251E+03  0.90677108756E+03 0.  0.
        -24    2    4    4    0    0  0.25126486732E+02  0.35797667890E+03  0.31787137116E+03  0.48601730435E+03  0.79949787674E+02 0.  0.
         24    2    4    4    0    0 -0.26456209671E+03 -0.24984763309E+03 -0.26863920586E+03  0.45932861816E+03  0.79992585651E+02 0.  0.
         11    1    3    3    0    0  0.17237399871E+03 -0.55472119246E+02 -0.16943535805E+02  0.18187092909E+03  0.00000000000E+00 0. -1.
        -11    1    3    3    0    0  0.67061611274E+02 -0.52656926560E+02 -0.70129882823E+02  0.11040023590E+03  0.00000000000E+00 0.  1.
          4    1    6    6  502    0 -0.23330275567E+03 -0.18911125618E+03 -0.19098108896E+03  0.35590310389E+03  0.00000000000E+00 0. -1.
          3    1    5    5  503    0  0.38412053579E+02  0.33126207643E+03  0.30963693195E+03  0.45506601583E+03  0.00000000000E+00 0. -1.
         -4    1    5    5    0  503 -0.13285566847E+02  0.26714602472E+02  0.82344392186E+01  0.30951288518E+02  0.00000000000E+00 0.  1.
         -3    1    6    6    0  502 -0.31259341047E+02 -0.60736376918E+02 -0.77658116893E+02  0.10342551428E+03  0.00000000000E+00 0.  1.
<mgrwt>
<rscale>  0 0.12370384E+04</rscale>
<asrwt>0</asrwt>
<pdfrwt beam="1">  1        2 0.98112179E-01 0.12370384E+04</pdfrwt>
<pdfrwt beam="2">  1       -2 0.92290450E-01 0.12370384E+04</pdfrwt>
<totfact> 0.45197359E+01</totfact>
</mgrwt>
</event>
<event>
12    1  0.1201209E-007  0.1459383E+04  0.7818608E-02  0.8911921E-01
          2   -1    0    0  501    0  0.00000000000E+00  0.00000000000E+00  0.54187110630E+03  0.54187110630E+03  0.00000000000E+00 0. -1.
         -2   -1    0    0    0  501 -0.00000000000E+00 -0.00000000000E+00 -0.98261315629E+03  0.98261315629E+03  0.00000000000E+00 0.  1.
         23    2    1    2    0    0  0.27670711604E+03  0.20467548426E+02  0.22702989628E+03  0.36970125041E+03  0.90281183785E+02 0.  0.
        254    2    1    2    0    0 -0.27670711604E+03 -0.20467548426E+02 -0.66777194628E+03  0.11547830122E+04  0.90034364793E+03 0.  0.
        -24    2    4    4    0    0 -0.55112628457E+03  0.17327945873E+03 -0.50994936398E+03  0.77472353938E+03  0.79889024729E+02 0.  0.
         24    2    4    4    0    0  0.27441916853E+03 -0.19374700716E+03 -0.15782258229E+03  0.38005947279E+03  0.81813522937E+02 0.  0.
         11    1    3    3    0    0  0.20621033228E+03  0.15492952023E+02  0.21446157870E+03  0.29792029377E+03  0.00000000000E+00 0.  1.
        -11    1    3    3    0    0  0.70496783759E+02  0.49745964028E+01  0.12568317582E+02  0.71780956643E+02  0.00000000000E+00 0. -1.
          4    1    6    6  502    0  0.13796841756E+03 -0.91257836456E+02 -0.12237106846E+03  0.20576188995E+03  0.00000000000E+00 0. -1.
          3    1    5    5  503    0 -0.40353952752E+03  0.10587889878E+03 -0.32613772559E+03  0.52954726657E+03  0.00000000000E+00 0. -1.
         -4    1    5    5    0  503 -0.14758675706E+03  0.67400559950E+02 -0.18381163840E+03  0.24517627281E+03  0.00000000000E+00 0.  1.
         -3    1    6    6    0  502  0.13645075098E+03 -0.10248917070E+03 -0.35451513836E+02  0.17429758285E+03  0.00000000000E+00 0.  1.
<mgrwt>
<rscale>  0 0.14593830E+04</rscale>
<asrwt>0</asrwt>
<pdfrwt beam="1">  1        2 0.83364785E-01 0.14593830E+04</pdfrwt>
<pdfrwt beam="2">  1       -2 0.15117126E+00 0.14593830E+04</pdfrwt>
<totfact> 0.15923406E+01</totfact>
</mgrwt>
</event>
<event>
12    1  0.1201209E-007  0.1536410E+04  0.7818608E-02  0.8860595E-01
          1   -1    0    0  501    0  0.00000000000E+00  0.00000000000E+00  0.59851737349E+03  0.59851737349E+03  0.00000000000E+00 0. -1.
         -1   -1    0    0    0  501 -0.00000000000E+00 -0.00000000000E+00 -0.98600169762E+03  0.98600169762E+03  0.00000000000E+00 0.  1.
         23    2    1    2    0    0 -0.53899913858E+02  0.26321818953E+03  0.33026345884E+03  0.43527133410E+03  0.90543724402E+02 0.  0.
        254    2    1    2    0    0  0.53899913858E+02 -0.26321818953E+03 -0.71774778297E+03  0.11492477370E+04  0.85639912721E+03 0.  0.
        -24    2    4    4    0    0  0.11773084503E+03 -0.56137738508E+03 -0.51192835365E+03  0.77272253955E+03  0.77616773338E+02 0.  0.
         24    2    4    4    0    0 -0.63830931169E+02  0.29815919556E+03 -0.20581942932E+03  0.37652519747E+03  0.80226511674E+02 0.  0.
         13    1    3    3    0    0  0.19314789368E+02  0.12968273396E+03  0.15921028996E+03  0.20624885213E+03  0.00000000000E+00 0.  1.
        -13    1    3    3    0    0 -0.73214703226E+02  0.13353545556E+03  0.17105316888E+03  0.22902248197E+03  0.00000000000E+00 0. -1.
          2    1    6    6  502    0 -0.37687680232E+01  0.37637421614E+02  0.20301684412E+01  0.37880083184E+02  0.00000000000E+00 0. -1.
          1    1    5    5  503    0  0.63972959169E+02 -0.22124896761E+03 -0.25119992112E+03  0.34080059499E+03  0.00000000000E+00 0. -1.
         -2    1    5    5    0  503  0.53757885858E+02 -0.34012841747E+03 -0.26072843253E+03  0.43192194456E+03  0.00000000000E+00 0.  1.
         -1    1    6    6    0  502 -0.60062163146E+02  0.26052177394E+03 -0.20784959776E+03  0.33864511429E+03  0.00000000000E+00 0.  1.
<mgrwt>
<rscale>  0 0.15364103E+04</rscale>
<asrwt>0</asrwt>
<pdfrwt beam="1">  1        1 0.92079596E-01 0.15364103E+04</pdfrwt>
<pdfrwt beam="2">  1       -1 0.15169257E+00 0.15364103E+04</pdfrwt>
<totfact> 0.11221150E+01</totfact>
</mgrwt>
</event>
<event>
12    1  0.1201209E-007  0.1533932E+04  0.7818608E-02  0.8862197E-01
         -1   -1    0    0    0  501 -0.00000000000E+00  0.00000000000E+00  0.60174995669E+03  0.60174995669E+03  0.00000000000E+00 0.  1.
          1   -1    0    0  501    0  0.00000000000E+00 -0.00000000000E+00 -0.97754421603E+03  0.97754421603E+03  0.00000000000E+00 0. -1.
         23    2    1    2    0    0  0.37842519196E+03 -0.61002229841E+02 -0.45593525746E+03  0.60054593402E+03  0.76495502551E+02 0.  0.
        254    2    1    2    0    0 -0.37842519196E+03  0.61002229841E+02  0.80140998125E+02  0.97874823870E+03  0.89699422362E+03 0.  0.
        -24    2    4    4    0    0  0.25213656390E+03  0.15506519569E+02  0.19807861506E+03  0.33062743592E+03  0.79158477970E+02 0.  0.
         24    2    4    4    0    0 -0.63056175587E+03  0.45495710272E+02 -0.11793761693E+03  0.64812080277E+03  0.80456857267E+02 0.  0.
         11    1    3    3    0    0  0.22352190651E+03 -0.44517529002E+02 -0.32556713992E+03  0.39741390976E+03  0.00000000000E+00 0. -1.
        -11    1    3    3    0    0  0.15490328546E+03 -0.16484700839E+02 -0.13036811755E+03  0.20313202426E+03  0.00000000000E+00 0.  1.
          4    1    6    6  502    0 -0.10105960551E+03  0.37261439861E+02 -0.17838720186E+02  0.10917728108E+03  0.00000000000E+00 0. -1.
          1    1    5    5  503    0  0.12859519126E+03 -0.28188260846E+02  0.11972734332E+03  0.17794925682E+03  0.00000000000E+00 0. -1.
         -2    1    5    5    0  503  0.12354137265E+03  0.43694780415E+02  0.78351271736E+02  0.15267817910E+03  0.00000000000E+00 0.  1.
         -3    1    6    6    0  502 -0.52950215035E+03  0.82342704111E+01 -0.10009889675E+03  0.53894352169E+03  0.00000000000E+00 0.  1.
<mgrwt>
<rscale>  0 0.15339324E+04</rscale>
<asrwt>0</asrwt>
<pdfrwt beam="1">  1        1 0.15039142E+00 0.15339324E+04</pdfrwt>
<pdfrwt beam="2">  1       -1 0.92576917E-01 0.15339324E+04</pdfrwt>
<totfact> 0.17252936E+01</totfact>
</mgrwt>
</event>
<event>
12    1  0.1201209E-007  0.1783331E+04  0.7818608E-02  0.8715214E-01
          2   -1    0    0  501    0  0.00000000000E+00  0.00000000000E+00  0.37408069603E+04  0.37408069603E+04  0.00000000000E+00 0. -1.
         -2   -1    0    0    0  501 -0.00000000000E+00 -0.00000000000E+00 -0.21253904955E+03  0.21253904955E+03  0.00000000000E+00 0.  1.
         23    2    1    2    0    0 -0.45448579188E+03  0.49779836063E+03  0.14295716843E+04  0.15831454586E+04  0.91180040685E+02 0.  0.
        254    2    1    2    0    0  0.45448579188E+03 -0.49779836063E+03  0.20986962265E+04  0.23702005512E+04  0.87118554807E+03 0.  0.
        -24    2    4    4    0    0  0.67440451355E+03 -0.25454206743E+03  0.16963069642E+04  0.18448737066E+04  0.80551628226E+02 0.  0.
         24    2    4    4    0    0 -0.21991872167E+03 -0.24325629320E+03  0.40238926232E+03  0.52532684459E+03  0.80705061147E+02 0.  0.
         11    1    3    3    0    0 -0.35611564426E+03  0.36153138783E+03  0.98874625298E+03  0.11113696277E+04  0.00000000000E+00 0. -1.
        -11    1    3    3    0    0 -0.98370147613E+02  0.13626697280E+03  0.44082543130E+03  0.47177583098E+03  0.00000000000E+00 0.  1.
          4    1    6    6  502    0 -0.23529675724E+02  0.13070077113E+01  0.21360594345E+02  0.31806114186E+02  0.00000000000E+00 0. -1.
          1    1    5    5  503    0  0.42706875012E+03 -0.19947845291E+03  0.10676926507E+04  0.11671105204E+04  0.00000000000E+00 0. -1.
         -2    1    5    5    0  503  0.24733576343E+03 -0.55063614515E+02  0.62861431350E+03  0.67776318626E+03  0.00000000000E+00 0.  1.
         -3    1    6    6    0  502 -0.19638904595E+03 -0.24456330091E+03  0.38102866797E+03  0.49352073041E+03  0.00000000000E+00 0.  1.
<mgrwt>
<rscale>  0 0.17833312E+04</rscale>
<asrwt>0</asrwt>
<pdfrwt beam="1">  1        2 0.57550872E+00 0.17833312E+04</pdfrwt>
<pdfrwt beam="2">  1       -2 0.32698318E-01 0.17833312E+04</pdfrwt>
<totfact> 0.45386944E+00</totfact>
</mgrwt>
</event>
<event>
12    1  0.1201209E-007  0.2896150E+04  0.7818608E-02  0.8274024E-01
          2   -1    0    0  501    0  0.00000000000E+00  0.00000000000E+00  0.26760428213E+04  0.26760428213E+04  0.00000000000E+00 0. -1.
         -2   -1    0    0    0  501 -0.00000000000E+00 -0.00000000000E+00 -0.78359048783E+03  0.78359048783E+03  0.00000000000E+00 0.  1.
         23    2    1    2    0    0  0.57680357577E+03 -0.90874763943E+03 -0.28110754894E+02  0.10808543910E+04  0.94505887762E+02 0.  0.
        254    2    1    2    0    0 -0.57680357577E+03  0.90874763943E+03  0.19205630884E+04  0.23787789181E+04  0.90083401784E+03 0.  0.
        -24    2    4    4    0    0 -0.70945188120E+03  0.92603195933E+03  0.18877580148E+04  0.22205286957E+04  0.79121456512E+02 0.  0.
         24    2    4    4    0    0  0.13264830543E+03 -0.17284319899E+02  0.32805073596E+02  0.15825022237E+03  0.77927141468E+02 0.  0.
         11    1    3    3    0    0  0.51362882798E+02 -0.46541725190E+02  0.12083109049E+02  0.70358222243E+02  0.00000000000E+00 0. -1.
        -11    1    3    3    0    0  0.52544069297E+03 -0.86220591424E+03 -0.40193863943E+02  0.10104961688E+04  0.00000000000E+00 0.  1.
          2    1    6    6  502    0  0.68128808888E+02 -0.36656305686E+02  0.45423680949E+02  0.89713600630E+02  0.00000000000E+00 0. -1.
          1    1    5    5  503    0 -0.48206341411E+03  0.58054981960E+03  0.11741642437E+04  0.13957381199E+04  0.00000000000E+00 0. -1.
         -2    1    5    5    0  503 -0.22738846709E+03  0.34548213974E+03  0.71359377111E+03  0.82479057585E+03  0.00000000000E+00 0.  1.
         -1    1    6    6    0  502  0.64519496544E+02  0.19371985787E+02 -0.12618607353E+02  0.68536621737E+02  0.00000000000E+00 0.  1.
<mgrwt>
<rscale>  0 0.28961503E+04</rscale>
<asrwt>0</asrwt>
<pdfrwt beam="1">  1        2 0.41169889E+00 0.28961503E+04</pdfrwt>
<pdfrwt beam="2">  1       -2 0.12055238E+00 0.28961503E+04</pdfrwt>
<totfact> 0.12432825E+00</totfact>
</mgrwt>
</event>
<event>
12    1  0.1201209E-007  0.1104519E+04  0.7818608E-02  0.9200799E-01
          2   -1    0    0  501    0  0.00000000000E+00  0.00000000000E+00  0.12449662243E+04  0.12449662243E+04  0.00000000000E+00 0. -1.
         -2   -1    0    0    0  501 -0.00000000000E+00 -0.00000000000E+00 -0.24497879736E+03  0.24497879736E+03  0.00000000000E+00 0.  1.
         23    2    1    2    0    0  0.12379802416E+03 -0.40125854966E+01  0.32389067969E+03  0.35785800397E+03  0.88403206905E+02 0.  0.
        254    2    1    2    0    0 -0.12379802416E+03  0.40125854966E+01  0.67609674730E+03  0.11320870177E+04  0.89953996710E+03 0.  0.
        -24    2    4    4    0    0 -0.49197220283E+03 -0.79909538041E+02  0.27282051940E+03  0.57371913918E+03  0.79375262078E+02 0.  0.
         24    2    4    4    0    0  0.36817417867E+03  0.83922123537E+02  0.40327622790E+03  0.55836787856E+03  0.80918620592E+02 0.  0.
         11    1    3    3    0    0 -0.13846186389E+02 -0.26395177729E+01  0.38657395260E+02  0.41147030754E+02  0.00000000000E+00 0.  1.
        -11    1    3    3    0    0  0.13764421054E+03 -0.13730677237E+01  0.28523328443E+03  0.31671097322E+03  0.00000000000E+00 0. -1.
          4    1    6    6  502    0  0.10135145626E+03  0.20820470042E+02  0.62103300043E+02  0.12067489190E+03  0.00000000000E+00 0. -1.
          3    1    5    5  503    0 -0.40184783317E+03 -0.41491114859E+02  0.24242895122E+03  0.47114221846E+03  0.00000000000E+00 0. -1.
         -4    1    5    5    0  503 -0.90124369665E+02 -0.38418423182E+02  0.30391568188E+02  0.10257692072E+03  0.00000000000E+00 0.  1.
         -3    1    6    6    0  502  0.26682272241E+03  0.63101653495E+02  0.34117292785E+03  0.43769298666E+03  0.00000000000E+00 0.  1.
<mgrwt>
<rscale>  0 0.11045186E+04</rscale>
<asrwt>0</asrwt>
<pdfrwt beam="1">  1        2 0.19153326E+00 0.11045186E+04</pdfrwt>
<pdfrwt beam="2">  1       -2 0.37689046E-01 0.11045186E+04</pdfrwt>
<totfact> 0.11731075E+02</totfact>
</mgrwt>
</event>
<event>
12    1  0.2163711E-007  0.1579884E+04  0.7818608E-02  0.8833002E-01
          1   -1    0    0  501    0  0.00000000000E+00  0.00000000000E+00  0.14090359676E+04  0.14090359676E+04  0.00000000000E+00 0. -1.
         -1   -1    0    0    0  501 -0.00000000000E+00 -0.00000000000E+00 -0.44286174872E+03  0.44286174872E+03  0.00000000000E+00 0.  1.
         23    2    1    2    0    0  0.42183358740E+03 -0.50194847438E+02 -0.39312828852E+02  0.43600563664E+03  0.89957314862E+02 0.  0.
        254    2    1    2    0    0 -0.42183358740E+03  0.50194847438E+02  0.10054870477E+04  0.14158920797E+04  0.90182208885E+03 0.  0.
        -24    2    4    4    0    0 -0.54740709999E+03  0.32482862544E+03  0.85818233193E+03  0.10716416633E+04  0.82284692357E+02 0.  0.
         24    2    4    4    0    0  0.12557351259E+03 -0.27463377800E+03  0.14730471579E+03  0.34425041639E+03  0.74948320916E+02 0.  0.
         13    1    3    3    0    0  0.34376899476E+02  0.19345111627E+02 -0.12779780312E+02  0.41464772353E+02  0.00000000000E+00 0. -1.
        -13    1    3    3    0    0  0.38745668793E+03 -0.69539959065E+02 -0.26533048540E+02  0.39454086429E+03  0.00000000000E+00 0.  1.
          4    1    6    6  502    0  0.12150966753E+03 -0.27605758901E+03  0.13359213099E+03  0.32987762764E+03  0.00000000000E+00 0. -1.
          3    1    5    5  503    0 -0.51792835709E+03  0.32348816912E+03  0.80023537542E+03  0.10066136472E+04  0.00000000000E+00 0. -1.
         -4    1    5    5    0  503 -0.29478742903E+02  0.13404563115E+01  0.57946956512E+02  0.65028016080E+02  0.00000000000E+00 0.  1.
         -3    1    6    6    0  502  0.40638450600E+01  0.14238110155E+01  0.13712584801E+02  0.14372788749E+02  0.00000000000E+00 0.  1.
<mgrwt>
<rscale>  0 0.15798837E+04</rscale>
<asrwt>0</asrwt>
<pdfrwt beam="1">  1        1 0.21677476E+00 0.15798837E+04</pdfrwt>
<pdfrwt beam="2">  1       -1 0.68132577E-01 0.15798837E+04</pdfrwt>
<totfact> 0.15869318E+01</totfact>
</mgrwt>
</event>
<event>
12    1  0.1201209E-007  0.2109099E+04  0.7818608E-02  0.8557246E-01
          2   -1    0    0  501    0  0.00000000000E+00  0.00000000000E+00  0.31682806686E+04  0.31682806686E+04  0.00000000000E+00 0. -1.
         -2   -1    0    0    0  501 -0.00000000000E+00 -0.00000000000E+00 -0.35100257799E+03  0.35100257799E+03  0.00000000000E+00 0.  1.
         23    2    1    2    0    0  0.19982382505E+03 -0.37672436194E+03  0.24004049002E+04  0.24397629870E+04  0.92999688729E+02 0.  0.
        254    2    1    2    0    0 -0.19982382505E+03  0.37672436194E+03  0.41687319040E+03  0.10795202595E+04  0.89984994746E+03 0.  0.
        -24    2    4    4    0    0 -0.39487456133E+03  0.58549747896E+02  0.54206880108E+03  0.67787300296E+03  0.79493590175E+02 0.  0.
         24    2    4    4    0    0  0.19505073628E+03  0.31817461405E+03 -0.12519561068E+03  0.40164725658E+03  0.79791622574E+02 0.  0.
         11    1    3    3    0    0  0.10662725148E+03 -0.12608756882E+03  0.76268844065E+03  0.78035959869E+03  0.00000000000E+00 0. -1.
        -11    1    3    3    0    0  0.93196573566E+02 -0.25063679313E+03  0.16377164595E+04  0.16594033883E+04  0.00000000000E+00 0.  1.
          2    1    6    6  502    0  0.13474043472E+03  0.14365410081E+03 -0.67277927505E+02  0.20812929865E+03  0.00000000000E+00 0. -1.
          3    1    5    5  503    0 -0.43248964982E+02 -0.42930103036E+01  0.27337295647E+02  0.51344236705E+02  0.00000000000E+00 0. -1.
         -4    1    5    5    0  503 -0.35162559635E+03  0.62842758199E+02  0.51473150543E+03  0.62652876626E+03  0.00000000000E+00 0.  1.
         -3    1    6    6    0  502  0.60310301564E+02  0.17452051324E+03 -0.57917683177E+02  0.19351795792E+03  0.00000000000E+00 0.  1.
<mgrwt>
<rscale>  0 0.21090990E+04</rscale>
<asrwt>0</asrwt>
<pdfrwt beam="1">  1        2 0.48742778E+00 0.21090990E+04</pdfrwt>
<pdfrwt beam="2">  1       -2 0.54000399E-01 0.21090990E+04</pdfrwt>
<totfact> 0.40546853E+00</totfact>
</mgrwt>
</event>
<event>
12    1  0.1201209E-007  0.2504386E+04  0.7818608E-02  0.8401425E-01
         -2   -1    0    0    0  501 -0.00000000000E+00  0.00000000000E+00  0.47236807276E+03  0.47236807276E+03  0.00000000000E+00 0.  1.
          2   -1    0    0  501    0  0.00000000000E+00 -0.00000000000E+00 -0.33194191522E+04  0.33194191522E+04  0.00000000000E+00 0. -1.
         23    2    1    2    0    0  0.59200298035E+03  0.28255089522E+03 -0.25447889464E+04  0.26295224221E+04  0.90193399828E+02 0.  0.
        254    2    1    2    0    0 -0.59200298035E+03 -0.28255089522E+03 -0.30226213308E+03  0.11622648029E+04  0.91060119584E+03 0.  0.
        -24    2    4    4    0    0 -0.36166671059E+03  0.30655429213E+03 -0.75902135107E+02  0.48527289626E+03  0.70358412192E+02 0.  0.
         24    2    4    4    0    0 -0.23033626976E+03 -0.58910518735E+03 -0.22635999797E+03  0.67699190665E+03  0.83543246612E+02 0.  0.
         11    1    3    3    0    0  0.34796835651E+03  0.18440125629E+03 -0.16844910237E+04  0.17299120814E+04  0.00000000000E+00 0.  1.
        -11    1    3    3    0    0  0.24403462384E+03  0.98149638934E+02 -0.86029792269E+03  0.89961034067E+03  0.00000000000E+00 0. -1.
          2    1    6    6  502    0 -0.14750962191E+03 -0.46317105321E+03 -0.19024065753E+03  0.52199427282E+03  0.00000000000E+00 0. -1.
          1    1    5    5  503    0 -0.35845010893E+03  0.30977180548E+03 -0.78214612737E+02  0.48016932191E+03  0.00000000000E+00 0. -1.
         -2    1    5    5    0  503 -0.32166016589E+01 -0.32175133496E+01  0.23124776301E+01  0.51035743530E+01  0.00000000000E+00 0.  1.
         -1    1    6    6    0  502 -0.82826647853E+02 -0.12593413415E+03 -0.36119340441E+02  0.15499763382E+03  0.00000000000E+00 0.  1.
<mgrwt>
<rscale>  0 0.25043863E+04</rscale>
<asrwt>0</asrwt>
<pdfrwt beam="1">  1        2 0.51067987E+00 0.25043863E+04</pdfrwt>
<pdfrwt beam="2">  1       -2 0.72672012E-01 0.25043863E+04</pdfrwt>
<totfact> 0.16514200E+00</totfact>
</mgrwt>
</event>
<event>
12    1  0.1201209E-007  0.1702244E+04  0.7818608E-02  0.8760085E-01
         -2   -1    0    0    0  501 -0.00000000000E+00  0.00000000000E+00  0.57182047781E+03  0.57182047781E+03  0.00000000000E+00 0.  1.
          2   -1    0    0  501    0  0.00000000000E+00 -0.00000000000E+00 -0.12668467662E+04  0.12668467662E+04  0.00000000000E+00 0. -1.
         23    2    1    2    0    0 -0.41146781059E+03  0.40689333015E+03 -0.16711967793E+03  0.60924255994E+03  0.91539984800E+02 0.  0.
        254    2    1    2    0    0  0.41146781059E+03 -0.40689333015E+03 -0.52790661042E+03  0.12294246840E+04  0.94759259343E+03 0.  0.
        -24    2    4    4    0    0 -0.24536831332E+03 -0.36364237395E+03 -0.17737145788E+03  0.47975681952E+03  0.79149140825E+02 0.  0.
         24    2    4    4    0    0  0.65683612391E+03 -0.43250956200E+02 -0.35053515254E+03  0.74966786452E+03  0.76306454820E+02 0.  0.
         13    1    3    3    0    0 -0.27304030408E+03  0.29116621893E+03 -0.73144770049E+02  0.40580652050E+03  0.00000000000E+00 0. -1.
        -13    1    3    3    0    0 -0.13842750651E+03  0.11572711122E+03 -0.93974907878E+02  0.20343603943E+03  0.00000000000E+00 0.  1.
          2    1    6    6  502    0  0.52050780754E+03 -0.48620615407E+01 -0.26339226956E+03  0.58337595513E+03  0.00000000000E+00 0. -1.
          3    1    5    5  503    0 -0.16883234757E+01 -0.39065104095E+02 -0.77174181438E+01  0.39855882087E+02  0.00000000000E+00 0. -1.
         -4    1    5    5    0  503 -0.24367998984E+03 -0.32457726985E+03 -0.16965403974E+03  0.43990093743E+03  0.00000000000E+00 0.  1.
         -3    1    6    6    0  502  0.13632831636E+03 -0.38388894659E+02 -0.87142882982E+02  0.16629190939E+03  0.00000000000E+00 0.  1.
<mgrwt>
<rscale>  0 0.17022443E+04</rscale>
<asrwt>0</asrwt>
<pdfrwt beam="1">  1        2 0.19489950E+00 0.17022443E+04</pdfrwt>
<pdfrwt beam="2">  1       -2 0.87972382E-01 0.17022443E+04</pdfrwt>
<totfact> 0.18320799E+01</totfact>
</mgrwt>
</event>
<event>
12    1  0.1201209E-007  0.2084556E+04  0.7818608E-02  0.8568077E-01
         -2   -1    0    0    0  501 -0.00000000000E+00  0.00000000000E+00  0.30676366819E+03  0.30676366819E+03  0.00000000000E+00 0.  1.
          2   -1    0    0  501    0  0.00000000000E+00 -0.00000000000E+00 -0.35413026820E+04  0.35413026820E+04  0.00000000000E+00 0. -1.
         23    2    1    2    0    0 -0.28963659002E+03  0.32294515424E+03 -0.26543275042E+04  0.26911639407E+04  0.93412682560E+02 0.  0.
        254    2    1    2    0    0  0.28963659002E+03 -0.32294515424E+03 -0.58021150964E+03  0.11569024095E+04  0.90199493474E+03 0.  0.
        -24    2    4    4    0    0 -0.32980694845E+02 -0.62112584760E+02 -0.70761117287E+03  0.71563766606E+03  0.80486009321E+02 0.  0.
         24    2    4    4    0    0  0.32261728487E+03 -0.26083256948E+03  0.12739966323E+03  0.44126474346E+03  0.79801991412E+02 0.  0.
         13    1    3    3    0    0 -0.47168165656E+02  0.12408670196E+02 -0.24064537332E+03  0.24553819794E+03  0.00000000000E+00 0.  1.
        -13    1    3    3    0    0 -0.24246842437E+03  0.31053648405E+03 -0.24136821309E+04  0.24456257428E+04  0.00000000000E+00 0. -1.
          4    1    6    6  502    0  0.32039394695E+02 -0.12626379012E+01  0.17016947877E+02  0.36300049338E+02  0.00000000000E+00 0. -1.
          1    1    5    5  503    0 -0.26304472622E+02  0.80154143370E+01 -0.92359773452E+02  0.96366487427E+02  0.00000000000E+00 0. -1.
         -2    1    5    5    0  503 -0.66762222222E+01 -0.70127999097E+02 -0.61525139941E+03  0.61927117863E+03  0.00000000000E+00 0.  1.
         -3    1    6    6    0  502  0.29057789017E+03 -0.25956993158E+03  0.11038271535E+03  0.40496469412E+03  0.00000000000E+00 0.  1.
<mgrwt>
<rscale>  0 0.20845556E+04</rscale>
<asrwt>0</asrwt>
<pdfrwt beam="1">  1        2 0.54481578E+00 0.20845556E+04</pdfrwt>
<pdfrwt beam="2">  1       -2 0.47194412E-01 0.20845556E+04</pdfrwt>
<totfact> 0.30002933E+00</totfact>
</mgrwt>
</event>
<event>
12    1  0.1201209E-007  0.1894575E+04  0.7818608E-02  0.8657561E-01
          2   -1    0    0  501    0  0.00000000000E+00  0.00000000000E+00  0.10279523121E+04  0.10279523121E+04  0.00000000000E+00 0. -1.
         -2   -1    0    0    0  501 -0.00000000000E+00 -0.00000000000E+00 -0.87295291602E+03  0.87295291602E+03  0.00000000000E+00 0.  1.
         23    2    1    2    0    0 -0.74114990705E+02  0.68670066327E+02 -0.65991528982E+03  0.67250578497E+03  0.81038455268E+02 0.  0.
        254    2    1    2    0    0  0.74114990705E+02 -0.68670066327E+02  0.81491468593E+03  0.12283994432E+04  0.91360310682E+03 0.  0.
        -24    2    4    4    0    0  0.30941034580E+03 -0.17955122576E+03  0.87542712808E+03  0.94904890443E+03  0.79672841457E+02 0.  0.
         24    2    4    4    0    0 -0.23529535509E+03  0.11088115944E+03 -0.60512442154E+02  0.27935053874E+03  0.81953841834E+02 0.  0.
         11    1    3    3    0    0 -0.15431869780E+02 -0.14284590027E+02 -0.50915523250E+02  0.55087045891E+02  0.00000000000E+00 0. -1.
        -11    1    3    3    0    0 -0.58683120925E+02  0.82954656354E+02 -0.60899976657E+03  0.61741873908E+03  0.00000000000E+00 0.  1.
          4    1    6    6  502    0 -0.16537187699E+01  0.22297878475E+02 -0.45588736485E+00  0.22363765415E+02  0.00000000000E+00 0. -1.
          3    1    5    5  503    0  0.76194047535E+00  0.48847059019E+01  0.40036490669E+01  0.63616122868E+01  0.00000000000E+00 0. -1.
         -4    1    5    5    0  503  0.30864840532E+03 -0.18443593166E+03  0.87142347901E+03  0.94268729215E+03  0.00000000000E+00 0.  1.
         -3    1    6    6    0  502 -0.23364163632E+03  0.88583280961E+02 -0.60056554789E+02  0.25698677332E+03  0.00000000000E+00 0.  1.
<mgrwt>
<rscale>  0 0.18945754E+04</rscale>
<asrwt>0</asrwt>
<pdfrwt beam="1">  1        2 0.15814651E+00 0.18945754E+04</pdfrwt>
<pdfrwt beam="2">  1       -2 0.13430045E+00 0.18945754E+04</pdfrwt>
<totfact> 0.90548304E+00</totfact>
</mgrwt>
</event>
<event>
12    1  0.1201209E-007  0.4008450E+04  0.7818608E-02  0.8002844E-01
         -1   -1    0    0    0  501 -0.00000000000E+00  0.00000000000E+00  0.11295288491E+04  0.11295288491E+04  0.00000000000E+00 0.  1.
          1   -1    0    0  501    0  0.00000000000E+00 -0.00000000000E+00 -0.35562778621E+04  0.35562778621E+04  0.00000000000E+00 0. -1.
         23    2    1    2    0    0 -0.20800128823E+03  0.17711444685E+04 -0.38203451707E+03  0.18260159832E+04  0.90369986080E+02 0.  0.
        254    2    1    2    0    0  0.20800128823E+03 -0.17711444685E+04 -0.20447144958E+04  0.28597907280E+04  0.90406215171E+03 0.  0.
        -24    2    4    4    0    0 -0.25978173770E+03 -0.12427236372E+04 -0.14831784874E+04  0.19539964587E+04  0.80219360036E+02 0.  0.
         24    2    4    4    0    0  0.46778302593E+03 -0.52842083132E+03 -0.56153600849E+03  0.90579426926E+03  0.84208283827E+02 0.  0.
         13    1    3    3    0    0 -0.57460078225E+01  0.29714353476E+03 -0.46156349805E+02  0.30076187505E+03  0.00000000000E+00 0. -1.
        -13    1    3    3    0    0 -0.20225528040E+03  0.14740009338E+04 -0.33587816726E+03  0.15252541081E+04  0.00000000000E+00 0.  1.
          2    1    6    6  502    0  0.22916488799E+03 -0.32010070637E+03 -0.29811010108E+03  0.49381235350E+03  0.00000000000E+00 0. -1.
          3    1    5    5  503    0 -0.17412266217E+03 -0.63940444748E+03 -0.78207277049E+03  0.10250827124E+04  0.00000000000E+00 0. -1.
         -4    1    5    5    0  503 -0.85659075533E+02 -0.60331918972E+03 -0.70110571686E+03  0.92891374633E+03  0.00000000000E+00 0.  1.
         -1    1    6    6    0  502  0.23861813794E+03 -0.20832012495E+03 -0.26342590741E+03  0.41198191575E+03  0.00000000000E+00 0.  1.
<mgrwt>
<rscale>  0 0.40084503E+04</rscale>
<asrwt>0</asrwt>
<pdfrwt beam="1">  1        1 0.54711967E+00 0.40084503E+04</pdfrwt>
<pdfrwt beam="2">  1       -1 0.17377367E+00 0.40084503E+04</pdfrwt>
<totfact> 0.40648351E-02</totfact>
</mgrwt>
</event>
<event>
12    1  0.1201209E-007  0.2875115E+04  0.7818608E-02  0.8280320E-01
          1   -1    0    0  501    0  0.00000000000E+00  0.00000000000E+00  0.13474776667E+04  0.13474776667E+04  0.00000000000E+00 0. -1.
         -1   -1    0    0    0  501 -0.00000000000E+00 -0.00000000000E+00 -0.15336592235E+04  0.15336592235E+04  0.00000000000E+00 0.  1.
         23    2    1    2    0    0  0.76886342627E+03 -0.10088903227E+04 -0.34739970662E+03  0.13182901989E+04  0.90508789297E+02 0.  0.
        254    2    1    2    0    0 -0.76886342627E+03  0.10088903227E+04  0.16121814985E+03  0.15628466914E+04  0.89860327032E+03 0.  0.
        -24    2    4    4    0    0  0.18968950606E+02  0.53263248590E+03 -0.19289090919E+03  0.57342843558E+03  0.86925725542E+02 0.  0.
         24    2    4    4    0    0 -0.78783237687E+03  0.47625783676E+03  0.35410905904E+03  0.98941825577E+03  0.77806670944E+02 0.  0.
         11    1    3    3    0    0  0.37602168747E+03 -0.50583326153E+03 -0.21886928012E+03  0.66720563524E+03  0.00000000000E+00 0. -1.
        -11    1    3    3    0    0  0.39284173879E+03 -0.50305706113E+03 -0.12853042650E+03  0.65108456365E+03  0.00000000000E+00 0.  1.
          2    1    6    6  502    0 -0.62116019627E+03  0.40604748734E+03  0.26694902459E+03  0.78865476169E+03  0.00000000000E+00 0. -1.
          1    1    5    5  503    0  0.52880657183E+02  0.28980992818E+03 -0.96786717691E+02  0.31008680574E+03  0.00000000000E+00 0. -1.
         -2    1    5    5    0  503 -0.33911706578E+02  0.24282255772E+03 -0.96104191496E+02  0.26334162983E+03  0.00000000000E+00 0.  1.
         -1    1    6    6    0  502 -0.16667218060E+03  0.70210349418E+02  0.87160034445E+02  0.20076349408E+03  0.00000000000E+00 0.  1.
<mgrwt>
<rscale>  0 0.28751150E+04</rscale>
<asrwt>0</asrwt>
<pdfrwt beam="1">  1        1 0.20730426E+00 0.28751150E+04</pdfrwt>
<pdfrwt beam="2">  1       -1 0.23594757E+00 0.28751150E+04</pdfrwt>
<totfact> 0.62055636E-01</totfact>
</mgrwt>
</event>
<event>
12    1  0.1201209E-007  0.1782160E+04  0.7818608E-02  0.8715845E-01
         -1   -1    0    0    0  501 -0.00000000000E+00  0.00000000000E+00  0.33615158235E+03  0.33615158235E+03  0.00000000000E+00 0.  1.
          1   -1    0    0  501    0  0.00000000000E+00 -0.00000000000E+00 -0.23620988039E+04  0.23620988039E+04  0.00000000000E+00 0. -1.
         23    2    1    2    0    0  0.38501552781E+03 -0.52517756557E+02  0.52934646006E+02  0.40248616768E+03  0.90542625428E+02 0.  0.
        254    2    1    2    0    0 -0.38501552781E+03  0.52517756557E+02 -0.20788818676E+04  0.22957642186E+04  0.89319004504E+03 0.  0.
        -24    2    4    4    0    0 -0.25748969034E+03  0.59809811126E+02 -0.73394302755E+02  0.28445614742E+03  0.75169288877E+02 0.  0.
         24    2    4    4    0    0 -0.12752583747E+03 -0.72920545692E+01 -0.20054875648E+04  0.20113080712E+04  0.84046244208E+02 0.  0.
         11    1    3    3    0    0  0.69477581433E+02 -0.44217686914E+02 -0.45182052133E+00  0.82356191629E+02  0.00000000000E+00 0. -1.
        -11    1    3    3    0    0  0.31553794638E+03 -0.83000696429E+01  0.53386466527E+02  0.32012997606E+03  0.00000000000E+00 0.  1.
          4    1    6    6  502    0 -0.54470446868E+02  0.27117733340E+02 -0.50560396357E+03  0.50925216644E+03  0.00000000000E+00 0. -1.
          1    1    5    5  503    0 -0.63758217465E+02  0.60739476397E+01 -0.51572083979E+02  0.82229453240E+02  0.00000000000E+00 0. -1.
         -2    1    5    5    0  503 -0.19373147288E+03  0.53735863486E+02 -0.21822218777E+02  0.20222669418E+03  0.00000000000E+00 0.  1.
         -3    1    6    6    0  502 -0.73055390603E+02 -0.34409787909E+02 -0.14998836013E+04  0.15020559047E+04  0.00000000000E+00 0.  1.
<mgrwt>
<rscale>  0 0.17821596E+04</rscale>
<asrwt>0</asrwt>
<pdfrwt beam="1">  1        1 0.36339982E+00 0.17821596E+04</pdfrwt>
<pdfrwt beam="2">  1       -1 0.51715627E-01 0.17821596E+04</pdfrwt>
<totfact> 0.60044103E+00</totfact>
</mgrwt>
</event>
<event>
12    1  0.1201209E-007  0.2387499E+04  0.7818608E-02  0.8444199E-01
         -2   -1    0    0    0  501 -0.00000000000E+00  0.00000000000E+00  0.67884739363E+03  0.67884739363E+03  0.00000000000E+00 0.  1.
          2   -1    0    0  501    0  0.00000000000E+00 -0.00000000000E+00 -0.20992016935E+04  0.20992016935E+04  0.00000000000E+00 0. -1.
         23    2    1    2    0    0 -0.64574908836E+03  0.89154809067E+02  0.30491150183E+03  0.72539915701E+03  0.91062879076E+02 0.  0.
        254    2    1    2    0    0  0.64574908836E+03 -0.89154809067E+02 -0.17252658017E+04  0.20526499301E+04  0.90104893540E+03 0.  0.
        -24    2    4    4    0    0  0.31558966835E+03 -0.44836252306E+03 -0.12483270670E+04  0.13657645704E+04  0.79791006042E+02 0.  0.
         24    2    4    4    0    0  0.33015942001E+03  0.35920771399E+03 -0.47693873468E+03  0.68688535972E+03  0.79407281443E+02 0.  0.
         11    1    3    3    0    0 -0.55412461169E+03  0.79789658878E+02  0.22464559389E+03  0.60322973882E+03  0.00000000000E+00 0.  1.
        -11    1    3    3    0    0 -0.91624476674E+02  0.93651501888E+01  0.80265907942E+02  0.12216941819E+03  0.00000000000E+00 0. -1.
          2    1    6    6  502    0  0.12787725848E+03  0.19135764866E+03 -0.24759788752E+03  0.33804593895E+03  0.00000000000E+00 0. -1.
          1    1    5    5  503    0  0.26565329186E+03 -0.38100194274E+03 -0.97720955228E+03  0.10819762756E+04  0.00000000000E+00 0. -1.
         -2    1    5    5    0  503  0.49936376491E+02 -0.67360580312E+02 -0.27111751470E+03  0.28378829478E+03  0.00000000000E+00 0.  1.
         -1    1    6    6    0  502  0.20228216154E+03  0.16785006533E+03 -0.22934084716E+03  0.34883942077E+03  0.00000000000E+00 0.  1.
<mgrwt>
<rscale>  0 0.23874988E+04</rscale>
<asrwt>0</asrwt>
<pdfrwt beam="1">  1        2 0.32295410E+00 0.23874988E+04</pdfrwt>
<pdfrwt beam="2">  1       -2 0.10443806E+00 0.23874988E+04</pdfrwt>
<totfact> 0.39421080E+00</totfact>
</mgrwt>
</event>
<event>
12    1  0.1201209E-007  0.2158898E+04  0.7818608E-02  0.8535733E-01
          2   -1    0    0  501    0  0.00000000000E+00  0.00000000000E+00  0.26678051804E+04  0.26678051804E+04  0.00000000000E+00 0. -1.
         -2   -1    0    0    0  501 -0.00000000000E+00 -0.00000000000E+00 -0.43676743053E+03  0.43676743053E+03  0.00000000000E+00 0.  1.
         23    2    1    2    0    0  0.37023361561E+03 -0.38858030368E+03 -0.87042170411E+02  0.55387704556E+03  0.10552658260E+03 0.  0.
        254    2    1    2    0    0 -0.37023361561E+03  0.38858030368E+03  0.23180799203E+04  0.25506955654E+04  0.91895906757E+03 0.  0.
        -24    2    4    4    0    0  0.18385448230E+03  0.19083373571E+03  0.15796437294E+04  0.16038547502E+04  0.82799532121E+02 0.  0.
         24    2    4    4    0    0 -0.55408809790E+03  0.19774656797E+03  0.73843619086E+03  0.94684081517E+03  0.71429657094E+02 0.  0.
         13    1    3    3    0    0  0.19115041459E+03 -0.21681348569E+03 -0.98780250920E+02  0.30545720902E+03  0.00000000000E+00 0.  1.
        -13    1    3    3    0    0  0.17908320102E+03 -0.17176681799E+03  0.11738080510E+02  0.24841983653E+03  0.00000000000E+00 0. -1.
          2    1    6    6  502    0 -0.22086942026E+03  0.75347283786E+02  0.34959559960E+03  0.42033034300E+03  0.00000000000E+00 0. -1.
          3    1    5    5  503    0  0.17562795912E+03  0.16303640942E+03  0.12377583017E+04  0.12607425052E+04  0.00000000000E+00 0. -1.
         -4    1    5    5    0  503  0.82265231729E+01  0.27797326290E+02  0.34188542770E+03  0.34311224505E+03  0.00000000000E+00 0.  1.
         -1    1    6    6    0  502 -0.33321867764E+03  0.12239928419E+03  0.38884059126E+03  0.52651047217E+03  0.00000000000E+00 0.  1.
<mgrwt>
<rscale>  0 0.21588983E+04</rscale>
<asrwt>0</asrwt>
<pdfrwt beam="1">  1        2 0.41043156E+00 0.21588983E+04</pdfrwt>
<pdfrwt beam="2">  1       -2 0.67194991E-01 0.21588983E+04</pdfrwt>
<totfact> 0.51744611E+00</totfact>
</mgrwt>
</event>
<event>
12    1  0.1430258E-007  0.1684023E+04  0.7818608E-02  0.8770530E-01
         -1   -1    0    0    0  501 -0.00000000000E+00  0.00000000000E+00  0.27974544074E+03  0.27974544074E+03  0.00000000000E+00 0.  1.
          1   -1    0    0  501    0  0.00000000000E+00 -0.00000000000E+00 -0.25343869301E+04  0.25343869301E+04  0.00000000000E+00 0. -1.
         23    2    1    2    0    0 -0.14404444984E+03 -0.31704270346E+03  0.49186211565E+00  0.35973973241E+03  0.90263801126E+02 0.  0.
        254    2    1    2    0    0  0.14404444984E+03  0.31704270346E+03 -0.22551333515E+04  0.24543926385E+04  0.90396455201E+03 0.  0.
        -24    2    4    4    0    0  0.28093122277E+03  0.56012237521E+03 -0.18597142176E+04  0.19640459486E+04  0.79247018530E+02 0.  0.
         24    2    4    4    0    0 -0.13688677293E+03 -0.24307967175E+03 -0.39541913395E+03  0.49034668990E+03  0.79106696177E+02 0.  0.
         13    1    3    3    0    0  0.31417846046E+01 -0.42114895603E+02  0.21104080956E+02  0.47211412552E+02  0.00000000000E+00 0. -1.
        -13    1    3    3    0    0 -0.14718623445E+03 -0.27492780786E+03 -0.20612218840E+02  0.31252831985E+03  0.00000000000E+00 0.  1.
          4    1    6    6  502    0 -0.14098013552E+03 -0.24673989166E+03 -0.38441997728E+03  0.47805302183E+03  0.00000000000E+00 0. -1.
          3    1    5    5  503    0  0.19823729464E+03  0.45970922558E+03 -0.14320280424E+04  0.15170151322E+04  0.00000000000E+00 0. -1.
         -4    1    5    5    0  503  0.82693928129E+02  0.10041314963E+03 -0.42768617513E+03  0.44703081635E+03  0.00000000000E+00 0.  1.
         -3    1    6    6    0  502  0.40933625899E+01  0.36602199145E+01 -0.10999156674E+02  0.12293668071E+02  0.00000000000E+00 0.  1.
<mgrwt>
<rscale>  0 0.16840228E+04</rscale>
<asrwt>0</asrwt>
<pdfrwt beam="1">  1        1 0.38990569E+00 0.16840228E+04</pdfrwt>
<pdfrwt beam="2">  1       -1 0.43037760E-01 0.16840228E+04</pdfrwt>
<totfact> 0.65130945E+00</totfact>
</mgrwt>
</event>
<event>
12    1  0.1201209E-007  0.1774615E+04  0.7818608E-02  0.8719916E-01
          2   -1    0    0  501    0  0.00000000000E+00  0.00000000000E+00  0.21888224382E+04  0.21888224382E+04  0.00000000000E+00 0.  1.
         -2   -1    0    0    0  501 -0.00000000000E+00 -0.00000000000E+00 -0.35969796826E+03  0.35969796826E+03  0.00000000000E+00 0. -1.
         23    2    1    2    0    0 -0.52358903743E+03 -0.29557622481E+03  0.10516726051E+04  0.12148975495E+04  0.91923896763E+02 0.  0.
        254    2    1    2    0    0  0.52358903743E+03  0.29557622481E+03  0.77745186481E+03  0.13336228569E+04  0.90144757890E+03 0.  0.
        -24    2    4    4    0    0  0.74015046356E+03  0.22782354104E+03  0.76423394283E+03  0.10909970741E+04  0.80590457698E+02 0.  0.
         24    2    4    4    0    0 -0.21656142613E+03  0.67752683765E+02  0.13217921981E+02  0.24262578273E+03  0.84872136413E+02 0.  0.
         11    1    3    3    0    0 -0.32836319934E+03 -0.22519470052E+03  0.74276416271E+03  0.84275360885E+03  0.00000000000E+00 0.  1.
        -11    1    3    3    0    0 -0.19522583810E+03 -0.70381524289E+02  0.30890844237E+03  0.37214394069E+03  0.00000000000E+00 0. -1.
          2    1    6    6  502    0 -0.19974728640E+03  0.55489842116E+02  0.37467958957E+02  0.21067023746E+03  0.00000000000E+00 0. -1.
          1    1    5    5  503    0  0.43638093814E+03  0.17546763240E+03  0.45821274906E+03  0.65664003579E+03  0.00000000000E+00 0. -1.
         -2    1    5    5    0  503  0.30376952542E+03  0.52355908643E+02  0.30602119377E+03  0.43435703836E+03  0.00000000000E+00 0.  1.
         -1    1    6    6    0  502 -0.16814139726E+02  0.12262841649E+02 -0.24250036977E+02  0.31955545269E+02  0.00000000000E+00 0.  1.
<mgrwt>
<rscale>  0 0.17746154E+04</rscale>
<asrwt>0</asrwt>
<pdfrwt beam="1">  1        2 0.33674190E+00 0.17746154E+04</pdfrwt>
<pdfrwt beam="2">  1       -2 0.55338150E-01 0.17746154E+04</pdfrwt>
<totfact> 0.15217868E+01</totfact>
</mgrwt>
</event>
<event>
12    1  0.1201209E-007  0.3066259E+04  0.7818608E-02  0.8225059E-01
         -2   -1    0    0    0  501 -0.00000000000E+00  0.00000000000E+00  0.11263037820E+04  0.11263037820E+04  0.00000000000E+00 0.  1.
          2   -1    0    0  501    0  0.00000000000E+00 -0.00000000000E+00 -0.20869029685E+04  0.20869029685E+04  0.00000000000E+00 0. -1.
         23    2    1    2    0    0 -0.42374958021E+02 -0.10408380576E+04 -0.13831658892E+04  0.17336058859E+04  0.84273313432E+02 0.  0.
        254    2    1    2    0    0  0.42374958021E+02  0.10408380576E+04  0.42256670272E+03  0.14796008646E+04  0.96203773370E+03 0.  0.
        -24    2    4    4    0    0  0.35461888853E+03  0.10289236796E+04  0.37158759546E+03  0.11531073537E+04  0.84502862042E+02 0.  0.
         24    2    4    4    0    0 -0.31224393051E+03  0.11914378033E+02  0.50979107257E+02  0.32649351085E+03  0.79755367905E+02 0.  0.
         11    1    3    3    0    0  0.16774806492E+02 -0.60909764159E+03 -0.80495392456E+03  0.10095702808E+04  0.00000000000E+00 0. -1.
        -11    1    3    3    0    0 -0.59149764513E+02 -0.43174041601E+03 -0.57821196467E+03  0.72403560516E+03  0.00000000000E+00 0.  1.
          4    1    6    6  502    0 -0.20538009583E+03  0.30563866024E+02  0.63890230127E+02  0.21724892445E+03  0.00000000000E+00 0. -1.
          3    1    5    5  503    0  0.34380694262E+03  0.96113808158E+03  0.32974358318E+03  0.10727163914E+04  0.00000000000E+00 0. -1.
         -4    1    5    5    0  503  0.10811945902E+02  0.67785597988E+02  0.41844012282E+02  0.80390962382E+02  0.00000000000E+00 0.  1.
         -3    1    6    6    0  502 -0.10686383468E+03 -0.18649487991E+02 -0.12911122871E+02  0.10924458640E+03  0.00000000000E+00 0.  1.
<mgrwt>
<rscale>  0 0.30662594E+04</rscale>
<asrwt>0</asrwt>
<pdfrwt beam="1">  1        2 0.32106199E+00 0.30662594E+04</pdfrwt>
<pdfrwt beam="2">  1       -2 0.17327751E+00 0.30662594E+04</pdfrwt>
<totfact> 0.10279739E+00</totfact>
</mgrwt>
</event>
<event>
12    1  0.1201209E-007  0.2386254E+04  0.7818608E-02  0.8444668E-01
          1   -1    0    0  501    0  0.00000000000E+00  0.00000000000E+00  0.12495699844E+04  0.12495699844E+04  0.00000000000E+00 0. -1.
         -1   -1    0    0    0  501 -0.00000000000E+00 -0.00000000000E+00 -0.11392333327E+04  0.11392333327E+04  0.00000000000E+00 0.  1.
         23    2    1    2    0    0  0.49916967433E+03  0.86951270875E+03  0.23628896156E+03  0.10341204670E+04  0.91378074285E+02 0.  0.
        254    2    1    2    0    0 -0.49916967433E+03 -0.86951270875E+03 -0.12595230985E+03  0.13546828502E+04  0.90226322421E+03 0.  0.
        -24    2    4    4    0    0 -0.46822766652E+03 -0.25959306697E+03 -0.40756817130E+03  0.67745915238E+03  0.78825000895E+02 0.  0.
         24    2    4    4    0    0 -0.30942007804E+02 -0.60991964178E+03  0.28161586146E+03  0.67722369780E+03  0.79781364728E+02 0.  0.
         11    1    3    3    0    0  0.79485244109E+02  0.17612880887E+03  0.77571525328E+02  0.20822248410E+03  0.00000000000E+00 0.  1.
        -11    1    3    3    0    0  0.41968443022E+03  0.69338389988E+03  0.15871743623E+03  0.82589798289E+03  0.00000000000E+00 0. -1.
          2    1    6    6  502    0 -0.54498579781E+02 -0.28920389615E+03  0.13725901598E+03  0.32472915825E+03  0.00000000000E+00 0. -1.
          3    1    5    5  503    0 -0.20341598174E+02 -0.15037688379E+01 -0.34105456478E+02  0.39739452671E+02  0.00000000000E+00 0. -1.
         -2    1    5    5    0  503 -0.44788606835E+03 -0.25808929813E+03 -0.37346271483E+03  0.63771969971E+03  0.00000000000E+00 0.  1.
         -1    1    6    6    0  502  0.23556571977E+02 -0.32071574563E+03  0.14435684548E+03  0.35249453955E+03  0.00000000000E+00 0.  1.
<mgrwt>
<rscale>  0 0.23862538E+04</rscale>
<asrwt>0</asrwt>
<pdfrwt beam="1">  1        1 0.19224154E+00 0.23862538E+04</pdfrwt>
<pdfrwt beam="2">  1       -1 0.17526667E+00 0.23862538E+04</pdfrwt>
<totfact> 0.19868333E+00</totfact>
</mgrwt>
</event>
<event>
12    1  0.1201209E-007  0.1768038E+04  0.7818608E-02  0.8723483E-01
          1   -1    0    0  501    0  0.00000000000E+00  0.00000000000E+00  0.52618797379E+03  0.52618797379E+03  0.00000000000E+00 0. -1.
         -1   -1    0    0    0  501 -0.00000000000E+00 -0.00000000000E+00 -0.14851917130E+04  0.14851917130E+04  0.00000000000E+00 0.  1.
         23    2    1    2    0    0  0.61539279061E+03 -0.11322762049E+02 -0.10715111699E+03  0.63161480665E+03  0.92840780008E+02 0.  0.
        254    2    1    2    0    0 -0.61539279061E+03  0.11322762049E+02 -0.85185262220E+03  0.13797648801E+04  0.89401439743E+03 0.  0.
        -24    2    4    4    0    0 -0.25612163966E+03  0.12064916362E+03 -0.94100919295E+03  0.98572836828E+03  0.77508708098E+02 0.  0.
         24    2    4    4    0    0 -0.35927115095E+03 -0.10932640158E+03  0.89156570744E+02  0.39403651185E+03  0.79296006082E+02 0.  0.
         13    1    3    3    0    0  0.22966277836E+03  0.34079147273E+02 -0.63970574664E+02  0.24082901500E+03  0.00000000000E+00 0.  1.
        -13    1    3    3    0    0  0.38573001224E+03 -0.45401909322E+02 -0.43180542323E+02  0.39078579164E+03  0.00000000000E+00 0. -1.
          4    1    6    6  502    0 -0.17283259414E+03 -0.50569168845E+02  0.83450442176E+02  0.19847499271E+03  0.00000000000E+00 0. -1.
          3    1    5    5  503    0 -0.25390787785E+02  0.34910498559E+02 -0.89672119627E+02  0.99521475333E+02  0.00000000000E+00 0. -1.
         -4    1    5    5    0  503 -0.23073085187E+03  0.85738665066E+02 -0.85133707332E+03  0.88620689294E+03  0.00000000000E+00 0.  1.
         -1    1    6    6    0  502 -0.18643855681E+03 -0.58757232731E+02  0.57061285685E+01  0.19556151914E+03  0.00000000000E+00 0.  1.
<mgrwt>
<rscale>  0 0.17680385E+04</rscale>
<asrwt>0</asrwt>
<pdfrwt beam="1">  1        1 0.80951996E-01 0.17680385E+04</pdfrwt>
<pdfrwt beam="2">  1       -1 0.22849103E+00 0.17680385E+04</pdfrwt>
<totfact> 0.37728167E+00</totfact>
</mgrwt>
</event>
<event>
12    1  0.1201209E-007  0.3110079E+04  0.7818608E-02  0.8212977E-01
          2   -1    0    0  501    0  0.00000000000E+00  0.00000000000E+00  0.16738193933E+04  0.16738193933E+04  0.00000000000E+00 0. -1.
         -2   -1    0    0    0  501 -0.00000000000E+00 -0.00000000000E+00 -0.14446883885E+04  0.14446883885E+04  0.00000000000E+00 0.  1.
         23    2    1    2    0    0  0.30025325654E+03 -0.13905994653E+04  0.16195352376E+03  0.14341025489E+04  0.80636753629E+02 0.  0.
        254    2    1    2    0    0 -0.30025325654E+03  0.13905994653E+04  0.67177480991E+02  0.16844052329E+04  0.89932712826E+03 0.  0.
        -24    2    4    4    0    0  0.29700590674E+03  0.26553487333E+03  0.32567979485E+02  0.40768219146E+03  0.80142487794E+02 0.  0.
         24    2    4    4    0    0 -0.59725916328E+03  0.11250645920E+04  0.34609501506E+02  0.12767230414E+04  0.79593106863E+02 0.  0.
         13    1    3    3    0    0  0.95815657695E+01 -0.73392384136E+02 -0.84008513664E+01  0.74490420561E+02  0.00000000000E+00 0. -1.
        -13    1    3    3    0    0  0.29067169077E+03 -0.13172070812E+04  0.17035437512E+03  0.13596121284E+04  0.00000000000E+00 0.  1.
          4    1    6    6  502    0 -0.42145064817E+02  0.13135094965E+03  0.67277341725E-01  0.13794666719E+03  0.00000000000E+00 0. -1.
          3    1    5    5  503    0  0.28421273279E+01  0.27889114422E+02 -0.83555634644E+00  0.28046007655E+02  0.00000000000E+00 0. -1.
         -4    1    5    5    0  503  0.29416377941E+03  0.23764575891E+03  0.33403535831E+02  0.37963618381E+03  0.00000000000E+00 0.  1.
         -3    1    6    6    0  502 -0.55511409846E+03  0.99371364232E+03  0.34542224164E+02  0.11387763742E+04  0.00000000000E+00 0.  1.
<mgrwt>
<rscale>  0 0.31100787E+04</rscale>
<asrwt>0</asrwt>
<pdfrwt beam="1">  1        2 0.25751068E+00 0.31100787E+04</pdfrwt>
<pdfrwt beam="2">  1       -2 0.22225975E+00 0.31100787E+04</pdfrwt>
<totfact> 0.82284555E-01</totfact>
</mgrwt>
</event>
<event>
12    1  0.1347305E-007  0.2073870E+04  0.7818608E-02  0.8572842E-01
         -1   -1    0    0    0  501 -0.00000000000E+00  0.00000000000E+00  0.58811259235E+03  0.58811259235E+03  0.00000000000E+00 0.  1.
          1   -1    0    0  501    0  0.00000000000E+00 -0.00000000000E+00 -0.18282802044E+04  0.18282802044E+04  0.00000000000E+00 0. -1.
         23    2    1    2    0    0  0.18040973571E+03 -0.76965841697E+03 -0.18099129254E+03  0.81591978395E+03  0.89696679486E+02 0.  0.
        254    2    1    2    0    0 -0.18040973571E+03  0.76965841697E+03 -0.10591763195E+04  0.16004730128E+04  0.90262818330E+03 0.  0.
        -24    2    4    4    0    0  0.25866786366E+03  0.56641142888E+03 -0.29776704678E+03  0.69486842022E+03  0.80286591765E+02 0.  0.
         24    2    4    4    0    0 -0.43907759937E+03  0.20324698810E+03 -0.76140927270E+03  0.90560459255E+03  0.79228284400E+02 0.  0.
         11    1    3    3    0    0  0.16775123535E+03 -0.71468425585E+03 -0.19118234273E+03  0.75859393004E+03  0.00000000000E+00 0.  1.
        -11    1    3    3    0    0  0.12658500354E+02 -0.54974161128E+02  0.10191050193E+02  0.57325853914E+02  0.00000000000E+00 0. -1.
          4    1    6    6  502    0 -0.41320837871E+03  0.20770020285E+03 -0.70188432894E+03  0.84054871942E+03  0.00000000000E+00 0. -1.
          1    1    5    5  503    0  0.23869988281E+03  0.55564435897E+03 -0.29148745674E+03  0.67132944606E+03  0.00000000000E+00 0. -1.
         -2    1    5    5    0  503  0.19967980848E+02  0.10767069911E+02 -0.62795900425E+01  0.23538974164E+02  0.00000000000E+00 0.  1.
         -3    1    6    6    0  502 -0.25869220663E+02 -0.44532147540E+01 -0.59524943757E+02  0.65055873130E+02  0.00000000000E+00 0.  1.
<mgrwt>
<rscale>  0 0.20738704E+04</rscale>
<asrwt>0</asrwt>
<pdfrwt beam="1">  1        1 0.28127388E+00 0.20738704E+04</pdfrwt>
<pdfrwt beam="2">  1       -1 0.90478861E-01 0.20738704E+04</pdfrwt>
<totfact> 0.42885424E+00</totfact>
</mgrwt>
</event>
<event>
12    1  0.1201209E-007  0.1688572E+04  0.7818608E-02  0.8767909E-01
          2   -1    0    0  501    0  0.00000000000E+00  0.00000000000E+00  0.43438751604E+03  0.43438751604E+03  0.00000000000E+00 0. -1.
         -2   -1    0    0    0  501 -0.00000000000E+00 -0.00000000000E+00 -0.16409746381E+04  0.16409746381E+04  0.00000000000E+00 0.  1.
         23    2    1    2    0    0 -0.36563080125E+03  0.12029191659E+03  0.13156661851E+03  0.41698164434E+03  0.91694539622E+02 0.  0.
        254    2    1    2    0    0  0.36563080125E+03 -0.12029191659E+03 -0.13381537406E+04  0.16583805098E+04  0.90078546498E+03 0.  0.
        -24    2    4    4    0    0 -0.15552595400E+03 -0.35983832731E+03 -0.56359131024E+03  0.69129437149E+03  0.81122123415E+02 0.  0.
         24    2    4    4    0    0  0.52115675525E+03  0.23954641072E+03 -0.77456243037E+03  0.96708613835E+03  0.79509710295E+02 0.  0.
         11    1    3    3    0    0 -0.99400137411E+02  0.76807718841E+02  0.34211134047E+02  0.13019299015E+03  0.00000000000E+00 0.  1.
        -11    1    3    3    0    0 -0.26623066384E+03  0.43484197746E+02  0.97355484460E+02  0.28678865420E+03  0.00000000000E+00 0. -1.
          4    1    6    6  502    0  0.35485405127E+03  0.15454069626E+03 -0.58093788689E+03  0.69806378858E+03  0.00000000000E+00 0. -1.
          1    1    5    5  503    0 -0.14862511136E+03 -0.36246843903E+03 -0.54417977518E+03  0.67052548104E+03  0.00000000000E+00 0. -1.
         -2    1    5    5    0  503 -0.69008426414E+01  0.26301117206E+01 -0.19411535060E+02  0.20768890443E+02  0.00000000000E+00 0.  1.
         -3    1    6    6    0  502  0.16630270398E+03  0.85005714460E+02 -0.19362454348E+03  0.26902234978E+03  0.00000000000E+00 0.  1.
<mgrwt>
<rscale>  0 0.16885721E+04</rscale>
<asrwt>0</asrwt>
<pdfrwt beam="1">  1        2 0.66828849E-01 0.16885721E+04</pdfrwt>
<pdfrwt beam="2">  1       -2 0.25245764E+00 0.16885721E+04</pdfrwt>
<totfact> 0.42810275E+00</totfact>
</mgrwt>
</event>
<event>
12    1  0.1201209E-007  0.1785850E+04  0.7818608E-02  0.8713861E-01
          1   -1    0    0  501    0  0.00000000000E+00  0.00000000000E+00  0.80365444081E+03  0.80365444081E+03  0.00000000000E+00 0. -1.
         -1   -1    0    0    0  501 -0.00000000000E+00 -0.00000000000E+00 -0.99211149211E+03  0.99211149211E+03  0.00000000000E+00 0.  1.
         23    2    1    2    0    0  0.57437056523E+03  0.15273965225E+03  0.22301070434E+03  0.64142141914E+03  0.91960399661E+02 0.  0.
        254    2    1    2    0    0 -0.57437056523E+03 -0.15273965225E+03 -0.41146775564E+03  0.11543445138E+04  0.89998588599E+03 0.  0.
        -24    2    4    4    0    0 -0.11513095259E+03  0.22018026861E+03  0.17767561992E+03  0.31548043144E+03  0.78897336975E+02 0.  0.
         24    2    4    4    0    0 -0.45923961265E+03 -0.37291992086E+03 -0.58914337555E+03  0.83886408234E+03  0.81441650725E+02 0.  0.
         13    1    3    3    0    0  0.47785795119E+03  0.13288778052E+03  0.22065762624E+03  0.54286017698E+03  0.00000000000E+00 0. -1.
        -13    1    3    3    0    0  0.96512614039E+02  0.19851871738E+02  0.23530780968E+01  0.98561242163E+02  0.00000000000E+00 0.  1.
          2    1    6    6  502    0 -0.44871389380E+03 -0.35131625995E+03 -0.58008377787E+03  0.81318169085E+03  0.00000000000E+00 0. -1.
          1    1    5    5  503    0 -0.93121875535E+02  0.21953882734E+03  0.16598205787E+03  0.29054952065E+03  0.00000000000E+00 0. -1.
         -2    1    5    5    0  503 -0.22009077050E+02  0.64144126310E+00  0.11693562043E+02  0.24930910789E+02  0.00000000000E+00 0.  1.
         -1    1    6    6    0  502 -0.10525718853E+02 -0.21603660908E+02 -0.90595976832E+01  0.25682391481E+02  0.00000000000E+00 0.  1.
<mgrwt>
<rscale>  0 0.17858497E+04</rscale>
<asrwt>0</asrwt>
<pdfrwt beam="1">  1        1 0.12363914E+00 0.17858497E+04</pdfrwt>
<pdfrwt beam="2">  1       -1 0.15263254E+00 0.17858497E+04</pdfrwt>
<totfact> 0.69016745E+00</totfact>
</mgrwt>
</event>
<event>
12    1  0.1201209E-007  0.1908516E+04  0.7818608E-02  0.8650629E-01
         -3   -1    0    0    0  501 -0.00000000000E+00  0.00000000000E+00  0.56171247028E+03  0.56171247028E+03  0.00000000000E+00 0.  1.
          3   -1    0    0  501    0  0.00000000000E+00 -0.00000000000E+00 -0.16211282353E+04  0.16211282353E+04  0.00000000000E+00 0. -1.
         23    2    1    2    0    0 -0.59596494689E+03 -0.16964592114E+03 -0.87770858814E+03  0.10783922583E+04  0.92755272421E+02 0.  0.
        254    2    1    2    0    0  0.59596494689E+03  0.16964592114E+03 -0.18170717692E+03  0.11044484473E+04  0.89601055697E+03 0.  0.
        -24    2    4    4    0    0  0.74753382850E+03  0.29930915296E+03 -0.29576183933E+03  0.86136273629E+03  0.77960913714E+02 0.  0.
         24    2    4    4    0    0 -0.15156888161E+03 -0.12966323182E+03  0.11405466240E+03  0.24308571105E+03  0.79350597619E+02 0.  0.
         13    1    3    3    0    0 -0.44479699268E+03 -0.94084149234E+02 -0.68415396525E+03  0.82143949260E+03  0.00000000000E+00 0.  1.
        -13    1    3    3    0    0 -0.15116795421E+03 -0.75561771905E+02 -0.19355462289E+03  0.25695276569E+03  0.00000000000E+00 0. -1.
          2    1    6    6  502    0 -0.38891124488E+02 -0.15928818330E+02 -0.66937625067E+01  0.42556471586E+02  0.00000000000E+00 0. -1.
          3    1    5    5  503    0  0.28587890334E+02  0.29126461939E+02 -0.11411629108E+02  0.42377394183E+02  0.00000000000E+00 0. -1.
         -4    1    5    5    0  503  0.71894593816E+03  0.27018269102E+03 -0.28435021022E+03  0.81898534210E+03  0.00000000000E+00 0.  1.
         -3    1    6    6    0  502 -0.11267775712E+03 -0.11373441349E+03  0.12074842491E+03  0.20052923946E+03  0.00000000000E+00 0.  1.
<mgrwt>
<rscale>  0 0.19085156E+04</rscale>
<asrwt>0</asrwt>
<pdfrwt beam="1">  1        3 0.24940434E+00 0.19085156E+04</pdfrwt>
<pdfrwt beam="2">  1       -3 0.86417304E-01 0.19085156E+04</pdfrwt>
<totfact> 0.22289447E-01</totfact>
</mgrwt>
</event>
<event>
12    1  0.1201209E-007  0.2405347E+04  0.7818608E-02  0.8437504E-01
         -1   -1    0    0    0  501 -0.00000000000E+00  0.00000000000E+00  0.18163368140E+04  0.18163368140E+04  0.00000000000E+00 0.  1.
          1   -1    0    0  501    0  0.00000000000E+00 -0.00000000000E+00 -0.79634128787E+03  0.79634128787E+03  0.00000000000E+00 0. -1.
         23    2    1    2    0    0 -0.25842871420E+03  0.97173124684E+03  0.69401269926E+03  0.12249877148E+04  0.88849638263E+02 0.  0.
        254    2    1    2    0    0  0.25842871420E+03 -0.97173124684E+03  0.32598282692E+03  0.13876903871E+04  0.89909554036E+03 0.  0.
        -24    2    4    4    0    0  0.53643432279E+03 -0.48021099850E+03  0.37521517391E+03  0.81561459435E+03  0.77950972018E+02 0.  0.
         24    2    4    4    0    0 -0.27800560859E+03 -0.49152024834E+03 -0.49232346987E+02  0.57207579279E+03  0.77250344748E+02 0.  0.
         11    1    3    3    0    0 -0.31792443225E+02  0.64351550884E+02  0.72714442367E+02  0.10217275408E+03  0.00000000000E+00 0. -1.
        -11    1    3    3    0    0 -0.22663627097E+03  0.90737969596E+03  0.62129825689E+03  0.11228149607E+04  0.00000000000E+00 0.  1.
          2    1    6    6  502    0 -0.61430392123E+02 -0.16300330777E+03  0.83914655236E+01  0.17439664020E+03  0.00000000000E+00 0. -1.
          1    1    5    5  503    0  0.80326436920E+01 -0.26567160214E+02  0.15105302710E+02  0.31599169870E+02  0.00000000000E+00 0. -1.
         -2    1    5    5    0  503  0.52840167910E+03 -0.45364383829E+03  0.36010987120E+03  0.78401542448E+03  0.00000000000E+00 0.  1.
         -1    1    6    6    0  502 -0.21657521647E+03 -0.32851694057E+03 -0.57623812511E+02  0.39767915258E+03  0.00000000000E+00 0.  1.
<mgrwt>
<rscale>  0 0.24053474E+04</rscale>
<asrwt>0</asrwt>
<pdfrwt beam="1">  1        1 0.12251404E+00 0.24053474E+04</pdfrwt>
<pdfrwt beam="2">  1       -1 0.27943643E+00 0.24053474E+04</pdfrwt>
<totfact> 0.89545101E-01</totfact>
</mgrwt>
</event>
<event>
12    1  0.1201209E-007  0.1378308E+04  0.7818608E-02  0.8969672E-01
         -2   -1    0    0    0  501 -0.00000000000E+00  0.00000000000E+00  0.12925373883E+04  0.12925373883E+04  0.00000000000E+00 0.  1.
          2   -1    0    0  501    0  0.00000000000E+00 -0.00000000000E+00 -0.36744234630E+03  0.36744234630E+03  0.00000000000E+00 0. -1.
         23    2    1    2    0    0 -0.99183379882E+02 -0.13722065818E+03 -0.14043440329E+03  0.23801766302E+03  0.90905084599E+02 0.  0.
        254    2    1    2    0    0  0.99183379882E+02  0.13722065818E+03  0.10655294453E+04  0.14219620716E+04  0.92625929541E+03 0.  0.
        -24    2    4    4    0    0 -0.24266600282E+03 -0.43448889570E+02 -0.26744123756E+02  0.26048990426E+03  0.79781872223E+02 0.  0.
         24    2    4    4    0    0  0.34184938270E+03  0.18066954775E+03  0.10922735690E+04  0.11614721673E+04  0.80334051748E+02 0.  0.
         11    1    3    3    0    0 -0.85074280289E+02 -0.41143033213E+02 -0.60152615783E+02  0.11202106737E+03  0.00000000000E+00 0. -1.
        -11    1    3    3    0    0 -0.14109099592E+02 -0.96077624965E+02 -0.80281787510E+02  0.12599659565E+03  0.00000000000E+00 0.  1.
          2    1    6    6  502    0  0.34531426042E+03  0.18057416659E+03  0.10663887318E+04  0.11353562857E+04  0.00000000000E+00 0. -1.
          1    1    5    5  503    0 -0.24655247610E+03 -0.45166463635E+02 -0.33113577006E+02  0.25283322940E+03  0.00000000000E+00 0. -1.
         -2    1    5    5    0  503  0.38864732753E+01  0.17175740651E+01  0.63694532505E+01  0.76566748592E+01  0.00000000000E+00 0.  1.
         -1    1    6    6    0  502 -0.34648777185E+01  0.95381162350E-01  0.25884837202E+02  0.26115881608E+02  0.00000000000E+00 0.  1.
<mgrwt>
<rscale>  0 0.13783076E+04</rscale>
<asrwt>0</asrwt>
<pdfrwt beam="1">  1        2 0.56529592E-01 0.13783076E+04</pdfrwt>
<pdfrwt beam="2">  1       -2 0.19885190E+00 0.13783076E+04</pdfrwt>
<totfact> 0.11532330E+01</totfact>
</mgrwt>
</event>
<event>
12    1  0.1201209E-007  0.3541360E+04  0.7818608E-02  0.8104058E-01
         -2   -1    0    0    0  501 -0.00000000000E+00  0.00000000000E+00  0.66893244703E+03  0.66893244703E+03  0.00000000000E+00 0.  1.
          2   -1    0    0  501    0  0.00000000000E+00 -0.00000000000E+00 -0.46870315193E+04  0.46870315193E+04  0.00000000000E+00 0. -1.
         23    2    1    2    0    0  0.14656213264E+03 -0.77502501629E+00  0.61269275959E+03  0.63648124757E+03  0.90746357867E+02 0.  0.
        254    2    1    2    0    0 -0.14656213264E+03  0.77502501629E+00 -0.46307918318E+04  0.47194827187E+04  0.89877866202E+03 0.  0.
        -24    2    4    4    0    0 -0.13264315331E+02 -0.24888384585E+03 -0.41350552235E+04  0.41433746202E+04  0.82173177247E+02 0.  0.
         24    2    4    4    0    0 -0.13329781731E+03  0.24965887087E+03 -0.49573660830E+03  0.57610809852E+03  0.77768222712E+02 0.  0.
         13    1    3    3    0    0  0.13304898528E+03 -0.28595213778E+02  0.54984398133E+03  0.56643457039E+03  0.00000000000E+00 0.  1.
        -13    1    3    3    0    0  0.13513147361E+02  0.27820188762E+02  0.62848778263E+02  0.70046677176E+02  0.00000000000E+00 0. -1.
          2    1    6    6  502    0 -0.80378235505E+02  0.21397529461E+03 -0.40714775573E+03  0.46692117369E+03  0.00000000000E+00 0. -1.
          3    1    5    5  503    0 -0.30437702152E+02 -0.33883094075E+02 -0.88402494587E+03  0.88519750491E+03  0.00000000000E+00 0. -1.
         -4    1    5    5    0  503  0.17173386821E+02 -0.21500075178E+03 -0.32510302776E+04  0.32581771153E+04  0.00000000000E+00 0.  1.
         -1    1    6    6    0  502 -0.52919581801E+02  0.35683576261E+02 -0.88588852570E+02  0.10918692482E+03  0.00000000000E+00 0.  1.
<mgrwt>
<rscale>  0 0.35413599E+04</rscale>
<asrwt>0</asrwt>
<pdfrwt beam="1">  1        2 0.72108179E+00 0.35413599E+04</pdfrwt>
<pdfrwt beam="2">  1       -2 0.10291268E+00 0.35413599E+04</pdfrwt>
<totfact> 0.49751609E-02</totfact>
</mgrwt>
</event>
<event>
12    1  0.1201209E-007  0.1638669E+04  0.7818608E-02  0.8797138E-01
         -1   -1    0    0    0  501 -0.00000000000E+00  0.00000000000E+00  0.72968363099E+03  0.72968363099E+03  0.00000000000E+00 0.  1.
          1   -1    0    0  501    0  0.00000000000E+00 -0.00000000000E+00 -0.92000011170E+03  0.92000011170E+03  0.00000000000E+00 0. -1.
         23    2    1    2    0    0  0.10866137371E+03  0.81296896127E+02 -0.63120572849E+03  0.65193255239E+03  0.90437280698E+02 0.  0.
        254    2    1    2    0    0 -0.10866137371E+03 -0.81296896127E+02  0.44088924778E+03  0.99775119029E+03  0.88470765198E+03 0.  0.
        -24    2    4    4    0    0  0.21638976344E+03 -0.20409509601E+03  0.54485454506E+03  0.62583794831E+03  0.79544480183E+02 0.  0.
         24    2    4    4    0    0 -0.32505113716E+03  0.12279819988E+03 -0.10396529729E+03  0.37191324199E+03  0.82298462098E+02 0.  0.
         11    1    3    3    0    0  0.23687463262E+02 -0.18344632045E+02 -0.16432890185E+03  0.16703774850E+03  0.00000000000E+00 0.  1.
        -11    1    3    3    0    0  0.84973910451E+02  0.99641528172E+02 -0.46687682664E+03  0.48489480389E+03  0.00000000000E+00 0. -1.
          4    1    6    6  502    0 -0.20770959490E+03  0.10790351661E+03 -0.40052296459E+02  0.23746711596E+03  0.00000000000E+00 0. -1.
          3    1    5    5  503    0  0.21817099945E+03 -0.20849208461E+03  0.52622444467E+03  0.60661330394E+03  0.00000000000E+00 0. -1.
         -4    1    5    5    0  503 -0.17812360042E+01  0.43969886036E+01  0.18630100392E+02  0.19224644368E+02  0.00000000000E+00 0.  1.
         -3    1    6    6    0  502 -0.11734154226E+03  0.14894683272E+02 -0.63913000827E+02  0.13444612603E+03  0.00000000000E+00 0.  1.
<mgrwt>
<rscale>  0 0.16386690E+04</rscale>
<asrwt>0</asrwt>
<pdfrwt beam="1">  1        1 0.14153848E+00 0.16386690E+04</pdfrwt>
<pdfrwt beam="2">  1       -1 0.11225902E+00 0.16386690E+04</pdfrwt>
<totfact> 0.12192287E+01</totfact>
</mgrwt>
</event>
<event>
12    1  0.1201209E-007  0.1605200E+04  0.7818608E-02  0.8817360E-01
         -1   -1    0    0    0  501 -0.00000000000E+00  0.00000000000E+00  0.39004002955E+03  0.39004002955E+03  0.00000000000E+00 0.  1.
          1   -1    0    0  501    0  0.00000000000E+00 -0.00000000000E+00 -0.16515405015E+04  0.16515405015E+04  0.00000000000E+00 0. -1.
         23    2    1    2    0    0  0.15143863480E+03  0.82545852109E+02  0.22516126516E+03  0.29768464100E+03  0.90393984048E+02 0.  0.
        254    2    1    2    0    0 -0.15143863480E+03 -0.82545852109E+02 -0.14866617371E+04  0.17438958900E+04  0.89513254710E+03 0.  0.
        -24    2    4    4    0    0 -0.47273960232E+03  0.99957855639E+02 -0.56592699685E+03  0.74863391107E+03  0.81884446226E+02 0.  0.
         24    2    4    4    0    0  0.32130096752E+03 -0.18250370775E+03 -0.92073474023E+03  0.99526197894E+03  0.79069777905E+02 0.  0.
         11    1    3    3    0    0  0.10680113410E+03  0.94700058220E+02  0.13559957056E+03  0.19688023468E+03  0.00000000000E+00 0.  1.
        -11    1    3    3    0    0  0.44637500702E+02 -0.12154206111E+02  0.89561694601E+02  0.10080440633E+03  0.00000000000E+00 0. -1.
          4    1    6    6  502    0  0.30257386494E+03 -0.18381912657E+03 -0.90082206788E+03  0.96789504235E+03  0.00000000000E+00 0. -1.
          3    1    5    5  503    0 -0.37878970467E+03  0.10788133719E+03 -0.42887754181E+03  0.58228512702E+03  0.00000000000E+00 0. -1.
         -4    1    5    5    0  503 -0.93949897652E+02 -0.79234815515E+01 -0.13704945504E+03  0.16634878405E+03  0.00000000000E+00 0.  1.
         -3    1    6    6    0  502  0.18727102584E+02  0.13154188171E+01 -0.19912672357E+02  0.27366936588E+02  0.00000000000E+00 0.  1.
<mgrwt>
<rscale>  0 0.16052002E+04</rscale>
<asrwt>0</asrwt>
<pdfrwt beam="1">  1        1 0.25408316E+00 0.16052002E+04</pdfrwt>
<pdfrwt beam="2">  1       -1 0.60006158E-01 0.16052002E+04</pdfrwt>
<totfact> 0.13892541E+01</totfact>
</mgrwt>
</event>
<event>
12    1  0.1201209E-007  0.3162925E+04  0.7818608E-02  0.8198678E-01
          2   -1    0    0  501    0  0.00000000000E+00  0.00000000000E+00  0.30113449670E+04  0.30113449670E+04  0.00000000000E+00 0. -1.
         -2   -1    0    0    0  501 -0.00000000000E+00 -0.00000000000E+00 -0.83053385377E+03  0.83053385377E+03  0.00000000000E+00 0.  1.
         23    2    1    2    0    0  0.65139412973E+01 -0.12324425689E+04  0.19318819623E+04  0.22933036433E+04  0.90091990836E+02 0.  0.
        254    2    1    2    0    0 -0.65139412973E+01  0.12324425689E+04  0.24892915085E+03  0.15485751774E+04  0.90397026547E+03 0.  0.
        -24    2    4    4    0    0 -0.29619267471E+03  0.11285245497E+04  0.43891567414E+02  0.11702991104E+04  0.79848470715E+02 0.  0.
         24    2    4    4    0    0  0.28967873341E+03  0.10391801919E+03  0.20503758343E+03  0.37827606699E+03  0.79621912409E+02 0.  0.
         11    1    3    3    0    0 -0.20267565964E+02 -0.10692798442E+04  0.16418084567E+04  0.19594144962E+04  0.00000000000E+00 0. -1.
        -11    1    3    3    0    0  0.26781507261E+02 -0.16316272471E+03  0.29007350565E+03  0.33388914709E+03  0.00000000000E+00 0.  1.
          2    1    6    6  502    0  0.24485968295E+03  0.11668864823E+03  0.17712763082E+03  0.32395478475E+03  0.00000000000E+00 0. -1.
          1    1    5    5  503    0 -0.11882471762E+03  0.31099560777E+03  0.10993949632E+02  0.33310426071E+03  0.00000000000E+00 0. -1.
         -2    1    5    5    0  503 -0.17736795708E+03  0.81752894197E+03  0.32897617782E+02  0.83719484973E+03  0.00000000000E+00 0.  1.
         -1    1    6    6    0  502  0.44819050459E+02 -0.12770629034E+02  0.27909952612E+02  0.54321282245E+02  0.00000000000E+00 0.  1.
<mgrwt>
<rscale>  0 0.31629252E+04</rscale>
<asrwt>0</asrwt>
<pdfrwt beam="1">  1        2 0.46328384E+00 0.31629252E+04</pdfrwt>
<pdfrwt beam="2">  1       -2 0.12777444E+00 0.31629252E+04</pdfrwt>
<totfact> 0.65589413E-01</totfact>
</mgrwt>
</event>
<event>
12    1  0.1201209E-007  0.1636106E+04  0.7818608E-02  0.8798669E-01
          2   -1    0    0  501    0  0.00000000000E+00  0.00000000000E+00  0.31632819641E+04  0.31632819641E+04  0.00000000000E+00 0. -1.
         -2   -1    0    0    0  501 -0.00000000000E+00 -0.00000000000E+00 -0.21155570683E+03  0.21155570683E+03  0.00000000000E+00 0.  1.
         23    2    1    2    0    0  0.11967867969E+03  0.52461783444E+03  0.62715929967E+03  0.83133163032E+03  0.90755902370E+02 0.  0.
        254    2    1    2    0    0 -0.11967867969E+03 -0.52461783444E+03  0.23245669576E+04  0.25435060406E+04  0.88105878333E+03 0.  0.
        -24    2    4    4    0    0 -0.18321999687E+01 -0.11842448736E+02  0.17814271863E+04  0.17834493876E+04  0.84055322669E+02 0.  0.
         24    2    4    4    0    0 -0.11784647973E+03 -0.51277538571E+03  0.54313977129E+03  0.76005665307E+03  0.76543554533E+02 0.  0.
         11    1    3    3    0    0  0.33515226696E+01  0.18367983379E+03  0.24392069910E+03  0.30536342527E+03  0.00000000000E+00 0.  1.
        -11    1    3    3    0    0  0.11632715702E+03  0.34093800065E+03  0.38323860057E+03  0.52596820505E+03  0.00000000000E+00 0. -1.
          2    1    6    6  502    0 -0.23002330077E+02 -0.46764506258E+02  0.85052946805E+02  0.99749837066E+02  0.00000000000E+00 0. -1.
          3    1    5    5  503    0 -0.13408052579E+02 -0.46414290984E+02  0.96514730271E+03  0.96635572033E+03  0.00000000000E+00 0. -1.
         -4    1    5    5    0  503  0.11575852610E+02  0.34571842249E+02  0.81627988363E+03  0.81709366725E+03  0.00000000000E+00 0.  1.
         -1    1    6    6    0  502 -0.94844149648E+02 -0.46601087945E+03  0.45808682449E+03  0.66030681600E+03  0.00000000000E+00 0.  1.
<mgrwt>
<rscale>  0 0.16361056E+04</rscale>
<asrwt>0</asrwt>
<pdfrwt beam="1">  1        2 0.48665873E+00 0.16361056E+04</pdfrwt>
<pdfrwt beam="2">  1       -2 0.32547034E-01 0.16361056E+04</pdfrwt>
<totfact> 0.11609199E+01</totfact>
</mgrwt>
</event>
<event>
12    1  0.1201209E-007  0.1734039E+04  0.7818608E-02  0.8742185E-01
         -1   -1    0    0    0  501 -0.00000000000E+00  0.00000000000E+00  0.79527635048E+03  0.79527635048E+03  0.00000000000E+00 0.  1.
          1   -1    0    0  501    0  0.00000000000E+00 -0.00000000000E+00 -0.94523525498E+03  0.94523525498E+03  0.00000000000E+00 0. -1.
         23    2    1    2    0    0 -0.23993165183E+03  0.43794344108E+03 -0.43647948209E+03  0.66957240529E+03  0.91930476481E+02 0.  0.
        254    2    1    2    0    0  0.23993165183E+03 -0.43794344108E+03  0.28652057759E+03  0.10709392002E+04  0.90302551124E+03 0.  0.
        -24    2    4    4    0    0  0.83078180923E+02  0.24137685434E+03 -0.80028003461E+02  0.27920634127E+03  0.79918268958E+02 0.  0.
         24    2    4    4    0    0  0.15685347091E+03 -0.67932029542E+03  0.36654858105E+03  0.79173285891E+03  0.80024886752E+02 0.  0.
         13    1    3    3    0    0 -0.13086584633E+03  0.22163646900E+03 -0.16504764888E+03  0.30576023372E+03  0.00000000000E+00 0. -1.
        -13    1    3    3    0    0 -0.10906580550E+03  0.21630697208E+03 -0.27143183322E+03  0.36381217157E+03  0.00000000000E+00 0.  1.
          4    1    6    6  502    0  0.30871426090E+02 -0.14471242337E+03  0.42227931595E+02  0.15387634202E+03  0.00000000000E+00 0. -1.
          1    1    5    5  503    0 -0.10420916514E+02  0.51116893599E+02  0.12062477352E+01  0.52182251253E+02  0.00000000000E+00 0. -1.
         -2    1    5    5    0  503  0.93499097437E+02  0.19025996074E+03 -0.81234251196E+02  0.22702409002E+03  0.00000000000E+00 0.  1.
         -3    1    6    6    0  502  0.12598204482E+03 -0.53460787205E+03  0.32432064946E+03  0.63785651689E+03  0.00000000000E+00 0.  1.
<mgrwt>
<rscale>  0 0.17340395E+04</rscale>
<asrwt>0</asrwt>
<pdfrwt beam="1">  1        1 0.14542081E+00 0.17340395E+04</pdfrwt>
<pdfrwt beam="2">  1       -1 0.12235021E+00 0.17340395E+04</pdfrwt>
<totfact> 0.93663087E+00</totfact>
</mgrwt>
</event>
<event>
12    1  0.1201209E-007  0.2072574E+04  0.7818608E-02  0.8573422E-01
          1   -1    0    0  501    0  0.00000000000E+00  0.00000000000E+00  0.22250138358E+04  0.22250138358E+04  0.00000000000E+00 0. -1.
         -1   -1    0    0    0  501 -0.00000000000E+00 -0.00000000000E+00 -0.48264429951E+03  0.48264429951E+03  0.00000000000E+00 0.  1.
         23    2    1    2    0    0  0.39789594782E+02  0.61633695328E+03 -0.31873828499E+02  0.62510543034E+03  0.91029699912E+02 0.  0.
        254    2    1    2    0    0 -0.39789594782E+02 -0.61633695328E+03  0.17742433648E+04  0.20825527050E+04  0.89868337010E+03 0.  0.
        -24    2    4    4    0    0 -0.93346933760E+02 -0.37745139827E+03  0.17810476224E+04  0.18249249420E+04  0.83888036539E+02 0.  0.
         24    2    4    4    0    0  0.53557338978E+02 -0.23888555501E+03 -0.68042575600E+01  0.25762776300E+03  0.79944164255E+02 0.  0.
         13    1    3    3    0    0  0.24301114303E+02  0.37536458180E+02  0.45877766114E+01  0.44950834734E+02  0.00000000000E+00 0. -1.
        -13    1    3    3    0    0  0.15488480479E+02  0.57880049510E+03 -0.36461605110E+02  0.58015459560E+03  0.00000000000E+00 0.  1.
          2    1    6    6  502    0  0.45766903951E+02 -0.24331290215E+03 -0.22812771025E+01  0.24759035134E+03  0.00000000000E+00 0. -1.
          3    1    5    5  503    0 -0.98878527549E+02 -0.23956223208E+03  0.12092228092E+04  0.12366838029E+04  0.00000000000E+00 0. -1.
         -4    1    5    5    0  503  0.55315937895E+01 -0.13788916618E+03  0.57182481322E+03  0.58824113907E+03  0.00000000000E+00 0.  1.
         -1    1    6    6    0  502  0.77904350271E+01  0.44273471448E+01 -0.45229804574E+01  0.10037411662E+02  0.00000000000E+00 0.  1.
<mgrwt>
<rscale>  0 0.20725735E+04</rscale>
<asrwt>0</asrwt>
<pdfrwt beam="1">  1        1 0.34230981E+00 0.20725735E+04</pdfrwt>
<pdfrwt beam="2">  1       -1 0.74252971E-01 0.20725735E+04</pdfrwt>
<totfact> 0.35252771E+00</totfact>
</mgrwt>
</event>
<event>
12    1  0.1201209E-007  0.1259694E+04  0.7818608E-02  0.9062154E-01
          2   -1    0    0  501    0  0.00000000000E+00  0.00000000000E+00  0.79147490747E+03  0.79147490747E+03  0.00000000000E+00 0. -1.
         -2   -1    0    0    0  501 -0.00000000000E+00 -0.00000000000E+00 -0.50122502623E+03  0.50122502623E+03  0.00000000000E+00 0.  1.
         23    2    1    2    0    0 -0.11041568233E+03 -0.22687579228E+03 -0.55533568966E+02  0.27396039860E+03  0.91137668900E+02 0.  0.
        254    2    1    2    0    0  0.11041568233E+03  0.22687579228E+03  0.34578345021E+03  0.10187395351E+04  0.92444567061E+03 0.  0.
        -24    2    4    4    0    0 -0.31617879964E+03  0.11542541625E+03  0.44148172527E+03  0.56068339510E+03  0.78534678569E+02 0.  0.
         24    2    4    4    0    0  0.42659448196E+03  0.11145037602E+03 -0.95698275058E+02  0.45805614000E+03  0.79077362004E+02 0.  0.
         11    1    3    3    0    0 -0.57088773554E+02 -0.19851896295E+03 -0.54161931067E+02  0.21354723481E+03  0.00000000000E+00 0. -1.
        -11    1    3    3    0    0 -0.53326908773E+02 -0.28356829328E+02 -0.13716378990E+01  0.60413163792E+02  0.00000000000E+00 0.  1.
          4    1    6    6  502    0  0.37794616381E+03  0.96868815382E+02 -0.10985528676E+03  0.40533326308E+03  0.00000000000E+00 0. -1.
          1    1    5    5  503    0 -0.24525675901E+03  0.73663166113E+02  0.37875505466E+03  0.45720075603E+03  0.00000000000E+00 0. -1.
         -2    1    5    5    0  503 -0.70922040632E+02  0.41762250141E+02  0.62726670606E+02  0.10348263907E+03  0.00000000000E+00 0.  1.
         -3    1    6    6    0  502  0.48648318158E+02  0.14581560641E+02  0.14157011698E+02  0.52722876918E+02  0.00000000000E+00 0.  1.
<mgrwt>
<rscale>  0 0.12596937E+04</rscale>
<asrwt>0</asrwt>
<pdfrwt beam="1">  1        2 0.12176537E+00 0.12596937E+04</pdfrwt>
<pdfrwt beam="2">  1       -2 0.77111543E-01 0.12596937E+04</pdfrwt>
<totfact> 0.51573225E+01</totfact>
</mgrwt>
</event>
<event>
12    1  0.1201209E-007  0.3073623E+04  0.7818608E-02  0.8223014E-01
          1   -1    0    0  501    0  0.00000000000E+00  0.00000000000E+00  0.12257232652E+04  0.12257232652E+04  0.00000000000E+00 0. -1.
         -1   -1    0    0    0  501 -0.00000000000E+00 -0.00000000000E+00 -0.19268543095E+04  0.19268543095E+04  0.00000000000E+00 0.  1.
         23    2    1    2    0    0  0.35292575861E+03 -0.11717160124E+04 -0.10631059619E+04  0.16235834217E+04  0.91399321708E+02 0.  0.
        254    2    1    2    0    0 -0.35292575861E+03  0.11717160124E+04  0.36197491767E+03  0.15289941530E+04  0.84221272496E+03 0.  0.
        -24    2    4    4    0    0 -0.31164898482E+03  0.59705380105E+03  0.59562710826E+03  0.90265270637E+03  0.80074497401E+02 0.  0.
         24    2    4    4    0    0 -0.41276773784E+02  0.57466221135E+03 -0.23365219059E+03  0.62634144663E+03  0.75959412782E+02 0.  0.
         13    1    3    3    0    0  0.22293288685E+01 -0.19775626404E+02 -0.34927514022E+02  0.40199210722E+02  0.00000000000E+00 0. -1.
        -13    1    3    3    0    0  0.35069642974E+03 -0.11519403860E+04 -0.10281784479E+04  0.15833842109E+04  0.00000000000E+00 0.  1.
          4    1    6    6  502    0 -0.16444656588E+02  0.26520844158E+03 -0.14862750672E+03  0.30446030935E+03  0.00000000000E+00 0. -1.
          3    1    5    5  503    0 -0.63051872703E+02  0.19934102236E+03  0.17494642451E+03  0.27261444073E+03  0.00000000000E+00 0. -1.
         -4    1    5    5    0  503 -0.24859711212E+03  0.39771277869E+03  0.42068068375E+03  0.63003826564E+03  0.00000000000E+00 0.  1.
         -3    1    6    6    0  502 -0.24832117195E+02  0.30945376977E+03 -0.85024683871E+02  0.32188113728E+03  0.00000000000E+00 0.  1.
<mgrwt>
<rscale>  0 0.30736234E+04</rscale>
<asrwt>0</asrwt>
<pdfrwt beam="1">  1        1 0.18857281E+00 0.30736234E+04</pdfrwt>
<pdfrwt beam="2">  1       -1 0.29643912E+00 0.30736234E+04</pdfrwt>
<totfact> 0.30139098E-01</totfact>
</mgrwt>
</event>
<event>
12    1  0.1201209E-007  0.1648742E+04  0.7818608E-02  0.8791151E-01
         -1   -1    0    0    0  501 -0.00000000000E+00  0.00000000000E+00  0.12642535398E+04  0.12642535398E+04  0.00000000000E+00 0.  1.
          1   -1    0    0  501    0  0.00000000000E+00 -0.00000000000E+00 -0.53754033709E+03  0.53754033709E+03  0.00000000000E+00 0. -1.
         23    2    1    2    0    0  0.18075705483E+03  0.18573983661E+03  0.81805756349E+03  0.86344380307E+03  0.95627527989E+02 0.  0.
        254    2    1    2    0    0 -0.18075705483E+03 -0.18573983661E+03 -0.91344360769E+02  0.93835007382E+03  0.89720937858E+03 0.  0.
        -24    2    4    4    0    0 -0.49960070565E+02  0.69927765106E+02 -0.45440888776E+03  0.46850500809E+03  0.74990695032E+02 0.  0.
         24    2    4    4    0    0 -0.13079698427E+03 -0.25566760172E+03  0.36306452699E+03  0.46984506573E+03  0.80403739784E+02 0.  0.
         11    1    3    3    0    0  0.75612825664E+02  0.55621488139E+02  0.17055335453E+03  0.19467792913E+03  0.00000000000E+00 0. -1.
        -11    1    3    3    0    0  0.10514422917E+03  0.13011834847E+03  0.64750420896E+03  0.66876587395E+03  0.00000000000E+00 0.  1.
          4    1    6    6  502    0 -0.88514147870E+02 -0.23278514881E+03  0.31832255811E+03  0.40416943339E+03  0.00000000000E+00 0. -1.
          1    1    5    5  503    0 -0.24663321519E+02  0.69598791085E+02 -0.41607000962E+03  0.42257132422E+03  0.00000000000E+00 0. -1.
         -2    1    5    5    0  503 -0.25296749046E+02  0.32897402144E+00 -0.38338878139E+02  0.45933683862E+02  0.00000000000E+00 0.  1.
         -3    1    6    6    0  502 -0.42282836396E+02 -0.22882452903E+02  0.44741968881E+02  0.65675632345E+02  0.00000000000E+00 0.  1.
<mgrwt>
<rscale>  0 0.16487417E+04</rscale>
<asrwt>0</asrwt>
<pdfrwt beam="1">  1        1 0.82698514E-01 0.16487417E+04</pdfrwt>
<pdfrwt beam="2">  1       -1 0.19450054E+00 0.16487417E+04</pdfrwt>
<totfact> 0.62910911E+00</totfact>
</mgrwt>
</event>
<event>
12    1  0.1201209E-007  0.1279667E+04  0.7818608E-02  0.9045846E-01
          2   -1    0    0  501    0  0.00000000000E+00  0.00000000000E+00  0.65704029733E+03  0.65704029733E+03  0.00000000000E+00 0.  1.
         -2   -1    0    0    0  501 -0.00000000000E+00 -0.00000000000E+00 -0.62307769935E+03  0.62307769935E+03  0.00000000000E+00 0. -1.
         23    2    1    2    0    0 -0.22710415530E+03 -0.15787423168E+03 -0.16465943787E+03  0.33457144859E+03  0.91240086315E+02 0.  0.
        254    2    1    2    0    0  0.22710415530E+03  0.15787423168E+03  0.19862203584E+03  0.94554654810E+03  0.88210373036E+03 0.  0.
        -24    2    4    4    0    0 -0.16040493830E+03 -0.16005886187E+03 -0.18975446533E+03  0.30612000303E+03  0.79712706924E+02 0.  0.
         24    2    4    4    0    0  0.38750909360E+03  0.31793309355E+03  0.38837650117E+03  0.63942654507E+03  0.82372630661E+02 0.  0.
         13    1    3    3    0    0 -0.19524601598E+03 -0.14910947482E+03 -0.17302538173E+03  0.30048697969E+03  0.00000000000E+00 0. -1.
        -13    1    3    3    0    0 -0.31858139318E+02 -0.87647568569E+01  0.83659438661E+01  0.34084468902E+02  0.00000000000E+00 0.  1.
          2    1    6    6  502    0  0.37074599646E+01  0.83520515968E+01 -0.32845755730E+01  0.97103275928E+01  0.00000000000E+00 0. -1.
          3    1    5    5  503    0 -0.16999019711E+02 -0.65940225191E+02 -0.44489237479E+02  0.81341085688E+02  0.00000000000E+00 0. -1.
         -4    1    5    5    0  503 -0.14340591859E+03 -0.94118636678E+02 -0.14526522785E+03  0.22477891734E+03  0.00000000000E+00 0.  1.
         -1    1    6    6    0  502  0.38380163363E+03  0.30958104195E+03  0.39166107675E+03  0.62971621748E+03  0.00000000000E+00 0.  1.
<mgrwt>
<rscale>  0 0.12796674E+04</rscale>
<asrwt>0</asrwt>
<pdfrwt beam="1">  1        2 0.10108312E+00 0.12796674E+04</pdfrwt>
<pdfrwt beam="2">  1       -2 0.95858108E-01 0.12796674E+04</pdfrwt>
<totfact> 0.39752140E+01</totfact>
</mgrwt>
</event>
<event>
12    1  0.1201209E-007  0.1564067E+04  0.7818608E-02  0.8842932E-01
          2   -1    0    0  501    0  0.00000000000E+00  0.00000000000E+00  0.11379632884E+04  0.11379632884E+04  0.00000000000E+00 0. -1.
         -2   -1    0    0    0  501 -0.00000000000E+00 -0.00000000000E+00 -0.53743056466E+03  0.53743056466E+03  0.00000000000E+00 0.  1.
         23    2    1    2    0    0 -0.36249748149E+03  0.36152600126E+03  0.22161843554E+03  0.56563046365E+03  0.93368178547E+02 0.  0.
        254    2    1    2    0    0  0.36249748149E+03 -0.36152600126E+03  0.37891428820E+03  0.11097633894E+04  0.90878670160E+03 0.  0.
        -24    2    4    4    0    0  0.43675504842E+03 -0.21976678066E+02 -0.15269025553E+03  0.46971130316E+03  0.77951571447E+02 0.  0.
         24    2    4    4    0    0 -0.74257566930E+02 -0.33954932319E+03  0.53160454372E+03  0.64005208624E+03  0.79090790052E+02 0.  0.
         13    1    3    3    0    0 -0.94819100595E+02  0.95782745627E+02  0.10492030251E+03  0.17080183277E+03  0.00000000000E+00 0.  1.
        -13    1    3    3    0    0 -0.26767838089E+03  0.26574325563E+03  0.11669813303E+03  0.39482863088E+03  0.00000000000E+00 0. -1.
          2    1    6    6  502    0 -0.22908769871E+02 -0.23417545108E+03  0.30806214832E+03  0.38764060784E+03  0.00000000000E+00 0. -1.
          3    1    5    5  503    0  0.14133204222E+03  0.27892898262E+02 -0.60488512313E+02  0.15624218398E+03  0.00000000000E+00 0. -1.
         -2    1    5    5    0  503  0.29542300619E+03 -0.49869576328E+02 -0.92201743213E+02  0.31346911919E+03  0.00000000000E+00 0.  1.
         -1    1    6    6    0  502 -0.51348797058E+02 -0.10537387212E+03  0.22354239541E+03  0.25241147840E+03  0.00000000000E+00 0.  1.
<mgrwt>
<rscale>  0 0.15640668E+04</rscale>
<asrwt>0</asrwt>
<pdfrwt beam="1">  1        2 0.17507128E+00 0.15640668E+04</pdfrwt>
<pdfrwt beam="2">  1       -2 0.82681625E-01 0.15640668E+04</pdfrwt>
<totfact> 0.25478464E+01</totfact>
</mgrwt>
</event>
<event>
12    1  0.1201209E-007  0.2065872E+04  0.7818608E-02  0.8576428E-01
          1   -1    0    0  501    0  0.00000000000E+00  0.00000000000E+00  0.28275979163E+04  0.28275979163E+04  0.00000000000E+00 0. -1.
         -1   -1    0    0    0  501 -0.00000000000E+00 -0.00000000000E+00 -0.37733695793E+03  0.37733695793E+03  0.00000000000E+00 0.  1.
         23    2    1    2    0    0  0.36401502492E+03 -0.29339583801E+03  0.20670223451E+04  0.21212501640E+04  0.92373301647E+02 0.  0.
        254    2    1    2    0    0 -0.36401502492E+03  0.29339583801E+03  0.38323861332E+03  0.10836847103E+04  0.89939571964E+03 0.  0.
        -24    2    4    4    0    0  0.17708369095E+03  0.25680690113E+03  0.42591554370E+03  0.53394421506E+03  0.79899664360E+02 0.  0.
         24    2    4    4    0    0 -0.54109871587E+03  0.36588936880E+02 -0.42676930375E+02  0.54974049526E+03  0.79162624511E+02 0.  0.
         13    1    3    3    0    0  0.10207470223E+03 -0.33312117051E+02  0.48113417180E+03  0.49296960683E+03  0.00000000000E+00 0.  1.
        -13    1    3    3    0    0  0.26194032269E+03 -0.26008372095E+03  0.15858881733E+04  0.16282805571E+04  0.00000000000E+00 0. -1.
          2    1    6    6  502    0 -0.25904938134E+03  0.32012294342E+01  0.16605970969E+02  0.25960082456E+03  0.00000000000E+00 0. -1.
          1    1    5    5  503    0  0.12085289921E+03  0.15491022495E+03  0.20319859994E+03  0.28265221043E+03  0.00000000000E+00 0. -1.
         -2    1    5    5    0  503  0.56230791741E+02  0.10189667618E+03  0.22271694375E+03  0.25129200463E+03  0.00000000000E+00 0.  1.
         -1    1    6    6    0  502 -0.28204933454E+03  0.33387707445E+02 -0.59282901344E+02  0.29013967070E+03  0.00000000000E+00 0.  1.
<mgrwt>
<rscale>  0 0.20658724E+04</rscale>
<asrwt>0</asrwt>
<pdfrwt beam="1">  1        1 0.43501505E+00 0.20658724E+04</pdfrwt>
<pdfrwt beam="2">  1       -1 0.58051842E-01 0.20658724E+04</pdfrwt>
<totfact> 0.22106597E+00</totfact>
</mgrwt>
</event>
<event>
12    1  0.1201209E-007  0.2667905E+04  0.7818608E-02  0.8345494E-01
         -2   -1    0    0    0  501 -0.00000000000E+00  0.00000000000E+00  0.34815329089E+04  0.34815329089E+04  0.00000000000E+00 0.  1.
          2   -1    0    0  501    0  0.00000000000E+00 -0.00000000000E+00 -0.51110501615E+03  0.51110501615E+03  0.00000000000E+00 0. -1.
         23    2    1    2    0    0  0.51762504432E+03  0.17535206259E+03 -0.25677319971E+03  0.61091190059E+03  0.92719155689E+02 0.  0.
        254    2    1    2    0    0 -0.51762504432E+03 -0.17535206259E+03  0.32272010925E+04  0.33817260245E+04  0.85003528220E+03 0.  0.
        -24    2    4    4    0    0 -0.51952246618E+03 -0.37983737366E+03  0.14173565176E+04  0.15586040107E+04  0.78529874218E+02 0.  0.
         24    2    4    4    0    0  0.18974218652E+01  0.20448531107E+03  0.18098445749E+04  0.18231220137E+04  0.80116471140E+02 0.  0.
         13    1    3    3    0    0  0.70337020190E+02  0.96708432699E+01 -0.66805903349E+02  0.97487693280E+02  0.00000000000E+00 0.  1.
        -13    1    3    3    0    0  0.44728802413E+03  0.16568121932E+03 -0.18996729636E+03  0.51342420731E+03  0.00000000000E+00 0. -1.
          4    1    6    6  502    0  0.43714466342E+01  0.13441537988E+03  0.14688487643E+04  0.14749926428E+04  0.00000000000E+00 0. -1.
          1    1    5    5  503    0 -0.37334771711E+03 -0.22826423004E+03  0.94013372832E+03  0.10369881888E+04  0.00000000000E+00 0. -1.
         -2    1    5    5    0  503 -0.14617474907E+03 -0.15157314362E+03  0.47722278924E+03  0.52161582194E+03  0.00000000000E+00 0.  1.
         -3    1    6    6    0  502 -0.24740247690E+01  0.70069931195E+02  0.34099581061E+03  0.34812937094E+03  0.00000000000E+00 0.  1.
<mgrwt>
<rscale>  0 0.26679047E+04</rscale>
<asrwt>0</asrwt>
<pdfrwt beam="1">  1        2 0.78631543E-01 0.26679047E+04</pdfrwt>
<pdfrwt beam="2">  1       -2 0.53562043E+00 0.26679047E+04</pdfrwt>
<totfact> 0.53336862E-02</totfact>
</mgrwt>
</event>
<event>
12    1  0.1201209E-007  0.1192992E+04  0.7818608E-02  0.9119012E-01
         -2   -1    0    0    0  501 -0.00000000000E+00  0.00000000000E+00  0.49633665923E+03  0.49633665923E+03  0.00000000000E+00 0.  1.
          2   -1    0    0  501    0  0.00000000000E+00 -0.00000000000E+00 -0.71686767566E+03  0.71686767566E+03  0.00000000000E+00 0. -1.
         23    2    1    2    0    0  0.15992406084E+03 -0.58858252644E+02 -0.13931895765E+03  0.23679458162E+03  0.87303509581E+02 0.  0.
        254    2    1    2    0    0 -0.15992406084E+03  0.58858252644E+02 -0.81212058780E+02  0.97640975326E+03  0.95798779149E+03 0.  0.
        -24    2    4    4    0    0 -0.55613749385E+03 -0.17907352501E+02 -0.53356887946E+02  0.56437000123E+03  0.77826444419E+02 0.  0.
         24    2    4    4    0    0  0.39621343302E+03  0.76765605145E+02 -0.27855170834E+02  0.41203975203E+03  0.78248348715E+02 0.  0.
         11    1    3    3    0    0  0.11045230866E+02 -0.29178146966E+02 -0.67989551954E+00  0.31206147522E+02  0.00000000000E+00 0.  1.
        -11    1    3    3    0    0  0.14887882997E+03 -0.29680105678E+02 -0.13863906213E+03  0.20558843410E+03  0.00000000000E+00 0. -1.
          2    1    6    6  502    0  0.29687766318E+03  0.27232069655E+02 -0.38184384198E+02  0.30055944456E+03  0.00000000000E+00 0. -1.
          3    1    5    5  503    0 -0.51428474009E+03  0.36543425751E+01 -0.55213786728E+02  0.51725304287E+03  0.00000000000E+00 0. -1.
         -4    1    5    5    0  503 -0.41852753760E+02 -0.21561695076E+02  0.18568987817E+01  0.47116958359E+02  0.00000000000E+00 0.  1.
         -1    1    6    6    0  502  0.99335769836E+02  0.49533535490E+02  0.10329213364E+02  0.11148030748E+03  0.00000000000E+00 0.  1.
<mgrwt>
<rscale>  0 0.11929924E+04</rscale>
<asrwt>0</asrwt>
<pdfrwt beam="1">  1        2 0.11028733E+00 0.11929924E+04</pdfrwt>
<pdfrwt beam="2">  1       -2 0.76359486E-01 0.11929924E+04</pdfrwt>
<totfact> 0.60235961E+01</totfact>
</mgrwt>
</event>
<event>
12    1  0.1201209E-007  0.1578295E+04  0.7818608E-02  0.8833994E-01
          1   -1    0    0  501    0  0.00000000000E+00  0.00000000000E+00  0.15339031531E+04  0.15339031531E+04  0.00000000000E+00 0. -1.
         -1   -1    0    0    0  501 -0.00000000000E+00 -0.00000000000E+00 -0.40599284844E+03  0.40599284844E+03  0.00000000000E+00 0.  1.
         23    2    1    2    0    0  0.10255928182E+03  0.48163539852E+03  0.13831253162E+03  0.51962907372E+03  0.91613069273E+02 0.  0.
        254    2    1    2    0    0 -0.10255928182E+03 -0.48163539852E+03  0.98959777306E+03  0.14202669278E+04  0.89183144734E+03 0.  0.
        -24    2    4    4    0    0 -0.12791006681E+03 -0.39801587226E+03  0.11472482802E+04  0.12236752194E+04  0.80154890675E+02 0.  0.
         24    2    4    4    0    0  0.25350784983E+02 -0.83619526261E+02 -0.15765050712E+03  0.19659170841E+03  0.78483947080E+02 0.  0.
         11    1    3    3    0    0  0.82147749263E+02  0.17412229195E+03  0.59699751376E+02  0.20157104350E+03  0.00000000000E+00 0.  1.
        -11    1    3    3    0    0  0.20411532560E+02  0.30751310657E+03  0.78612780241E+02  0.31805803022E+03  0.00000000000E+00 0. -1.
          2    1    6    6  502    0  0.27258207638E+02 -0.73902736138E+02 -0.61504491258E+02  0.99937113913E+02  0.00000000000E+00 0. -1.
          3    1    5    5  503    0 -0.90561342347E+02 -0.17512855476E+03  0.60139387071E+03  0.63288700029E+03  0.00000000000E+00 0. -1.
         -2    1    5    5    0  503 -0.37348724460E+02 -0.22288731750E+03  0.54585440948E+03  0.59078821913E+03  0.00000000000E+00 0.  1.
         -1    1    6    6    0  502 -0.19074226547E+01 -0.97167901236E+01 -0.96146015862E+02  0.96654594498E+02  0.00000000000E+00 0.  1.
<mgrwt>
<rscale>  0 0.15782949E+04</rscale>
<asrwt>0</asrwt>
<pdfrwt beam="1">  1        1 0.23598510E+00 0.15782949E+04</pdfrwt>
<pdfrwt beam="2">  1       -1 0.62460439E-01 0.15782949E+04</pdfrwt>
<totfact> 0.15486903E+01</totfact>
</mgrwt>
</event>
<event>
12    1  0.1201209E-007  0.1579419E+04  0.7818608E-02  0.8833292E-01
          2   -1    0    0  501    0  0.00000000000E+00  0.00000000000E+00  0.56156349271E+03  0.56156349271E+03  0.00000000000E+00 0. -1.
         -2   -1    0    0    0  501 -0.00000000000E+00 -0.00000000000E+00 -0.11105444060E+04  0.11105444060E+04  0.00000000000E+00 0.  1.
         23    2    1    2    0    0  0.37759904916E+03  0.12027370582E+02  0.20210267578E+03  0.43839761397E+03  0.92850830968E+02 0.  0.
        254    2    1    2    0    0 -0.37759904916E+03 -0.12027370582E+02 -0.75108358910E+03  0.12337102848E+04  0.90287807004E+03 0.  0.
        -24    2    4    4    0    0 -0.24573787234E+03  0.35345416334E+02 -0.94650018384E+03  0.98164148550E+03  0.78236869096E+02 0.  0.
         24    2    4    4    0    0 -0.13186117682E+03 -0.47372786917E+02  0.19541659474E+03  0.25206879927E+03  0.75627264731E+02 0.  0.
         11    1    3    3    0    0  0.15764419403E+03 -0.22483757980E+02  0.12615133888E+03  0.20315356651E+03  0.00000000000E+00 0.  1.
        -11    1    3    3    0    0  0.21995485513E+03  0.34511128562E+02  0.75951336893E+02  0.23524404746E+03  0.00000000000E+00 0. -1.
          4    1    6    6  502    0 -0.11092769199E+03 -0.97694195195E+01  0.11054835211E+03  0.15691186240E+03  0.00000000000E+00 0. -1.
          1    1    5    5  503    0 -0.92037942241E+02  0.17476142089E+02 -0.50984578694E+03  0.51838125430E+03  0.00000000000E+00 0. -1.
         -2    1    5    5    0  503 -0.15369993010E+03  0.17869274245E+02 -0.43665439690E+03  0.46326023119E+03  0.00000000000E+00 0.  1.
         -3    1    6    6    0  502 -0.20933484834E+02 -0.37603367397E+02  0.84868242629E+02  0.95156936866E+02  0.00000000000E+00 0.  1.
<mgrwt>
<rscale>  0 0.15794191E+04</rscale>
<asrwt>0</asrwt>
<pdfrwt beam="1">  1        2 0.86394384E-01 0.15794191E+04</pdfrwt>
<pdfrwt beam="2">  1       -2 0.17085298E+00 0.15794191E+04</pdfrwt>
<totfact> 0.10830591E+01</totfact>
</mgrwt>
</event>
<event>
12    1  0.1201209E-007  0.1421583E+04  0.7818608E-02  0.8938342E-01
          1   -1    0    0  501    0  0.00000000000E+00  0.00000000000E+00  0.26822246323E+04  0.26822246323E+04  0.00000000000E+00 0. -1.
         -1   -1    0    0    0  501 -0.00000000000E+00 -0.00000000000E+00 -0.18836035984E+03  0.18836035984E+03  0.00000000000E+00 0.  1.
         23    2    1    2    0    0  0.11430470267E+03  0.29506051836E+03  0.12942831118E+04  0.13354888775E+04  0.90749621174E+02 0.  0.
        254    2    1    2    0    0 -0.11430470267E+03 -0.29506051836E+03  0.11995811606E+04  0.15350961147E+04  0.90410112586E+03 0.  0.
        -24    2    4    4    0    0  0.31729520247E+03 -0.99336617148E+02  0.13586682561E+03  0.36783369733E+03  0.79358840516E+02 0.  0.
         24    2    4    4    0    0 -0.43159990514E+03 -0.19572390121E+03  0.10637143350E+04  0.11672624173E+04  0.80168826782E+02 0.  0.
         13    1    3    3    0    0  0.37166416798E+02  0.44447300016E+02  0.37836022468E+03  0.38277064234E+03  0.00000000000E+00 0.  1.
        -13    1    3    3    0    0  0.77138285872E+02  0.25061321835E+03  0.91592288716E+03  0.95271823514E+03  0.00000000000E+00 0. -1.
          4    1    6    6  502    0 -0.43071312922E+03 -0.19436797225E+03  0.10268219589E+04  0.11303344831E+04  0.00000000000E+00 0. -1.
          1    1    5    5  503    0  0.17984469282E+03 -0.16151613303E+02  0.82670197540E+02  0.19859342816E+03  0.00000000000E+00 0. -1.
         -2    1    5    5    0  503  0.13745050965E+03 -0.83185003845E+02  0.53196628072E+02  0.16924026916E+03  0.00000000000E+00 0.  1.
         -3    1    6    6    0  502 -0.88677592557E+00 -0.13559289656E+01  0.36892376070E+02  0.36927934237E+02  0.00000000000E+00 0.  1.
<mgrwt>
<rscale>  0 0.14215833E+04</rscale>
<asrwt>0</asrwt>
<pdfrwt beam="1">  1        1 0.41264992E+00 0.14215833E+04</pdfrwt>
<pdfrwt beam="2">  1       -1 0.28978519E-01 0.14215833E+04</pdfrwt>
<totfact> 0.10711443E+01</totfact>
</mgrwt>
</event>
<event>
12    1  0.1201209E-007  0.1101495E+04  0.7818608E-02  0.9203736E-01
         -2   -1    0    0    0  501 -0.00000000000E+00  0.00000000000E+00  0.24603231080E+03  0.24603231080E+03  0.00000000000E+00 0.  1.
          2   -1    0    0  501    0  0.00000000000E+00 -0.00000000000E+00 -0.12328576972E+04  0.12328576972E+04  0.00000000000E+00 0. -1.
         23    2    1    2    0    0 -0.20399125792E+03 -0.20733059868E+01 -0.33259108893E+02  0.22581844301E+03  0.90945417562E+02 0.  0.
        254    2    1    2    0    0  0.20399125792E+03  0.20733059868E+01 -0.95356627749E+03  0.12530715650E+04  0.78694534082E+03 0.  0.
        -24    2    4    4    0    0 -0.23997056233E+02 -0.18437094093E+03 -0.92496450548E+03  0.94690941910E+03  0.80682148022E+02 0.  0.
         24    2    4    4    0    0  0.22798831415E+03  0.18644424691E+03 -0.28601772012E+02  0.30616214587E+03  0.78594335691E+02 0.  0.
         11    1    3    3    0    0 -0.21321383824E+03  0.18411807641E+01 -0.33254978595E+02  0.21579950039E+03  0.00000000000E+00 0.  1.
        -11    1    3    3    0    0  0.92225803233E+01 -0.39144867510E+01 -0.41302972336E-02  0.10018942629E+02  0.00000000000E+00 0. -1.
          4    1    6    6  502    0  0.29963784154E+02 -0.34197272091E+01 -0.70917138845E+01  0.30980886056E+02  0.00000000000E+00 0. -1.
          3    1    5    5  503    0 -0.15997012403E+01 -0.23552062303E+02 -0.30910064284E+03  0.31000075175E+03  0.00000000000E+00 0. -1.
         -4    1    5    5    0  503 -0.22397354992E+02 -0.16081887862E+03 -0.61586386264E+03  0.63690866735E+03  0.00000000000E+00 0.  1.
         -3    1    6    6    0  502  0.19802453000E+03  0.18986397412E+03 -0.21510058128E+02  0.27518125981E+03  0.00000000000E+00 0.  1.
<mgrwt>
<rscale>  0 0.11014950E+04</rscale>
<asrwt>0</asrwt>
<pdfrwt beam="1">  1        2 0.18967042E+00 0.11014950E+04</pdfrwt>
<pdfrwt beam="2">  1       -2 0.37851124E-01 0.11014950E+04</pdfrwt>
<totfact> 0.11829623E+02</totfact>
</mgrwt>
</event>
<event>
12    1  0.1201209E-007  0.1200845E+04  0.7818608E-02  0.9112117E-01
          2   -1    0    0  501    0  0.00000000000E+00  0.00000000000E+00  0.33476612600E+03  0.33476612600E+03  0.00000000000E+00 0. -1.
         -2   -1    0    0    0  501 -0.00000000000E+00 -0.00000000000E+00 -0.10768921391E+04  0.10768921391E+04  0.00000000000E+00 0.  1.
         23    2    1    2    0    0  0.26812606951E+03  0.51935316768E+02 -0.15364573155E+03  0.32709467097E+03  0.93781910181E+02 0.  0.
        254    2    1    2    0    0 -0.26812606951E+03 -0.51935316768E+02 -0.58848028154E+03  0.10845635941E+04  0.86912615979E+03 0.  0.
        -24    2    4    4    0    0 -0.31567742448E+03  0.34139305913E+03 -0.46389609528E+03  0.66171203019E+03  0.80385113864E+02 0.  0.
         24    2    4    4    0    0  0.47551354970E+02 -0.39332837590E+03 -0.12458418626E+03  0.42285156392E+03  0.79459945879E+02 0.  0.
         13    1    3    3    0    0  0.21235159346E+03  0.78149862833E+02 -0.13085343806E+03  0.26138711245E+03  0.00000000000E+00 0. -1.
        -13    1    3    3    0    0  0.55774476048E+02 -0.26214546064E+02 -0.22792293496E+02  0.65707558520E+02  0.00000000000E+00 0.  1.
          4    1    6    6  502    0 -0.16242571260E+02 -0.39657326735E+02 -0.26278778264E+02  0.50270258324E+02  0.00000000000E+00 0. -1.
          3    1    5    5  503    0 -0.25017089940E+03  0.22445494323E+03 -0.30531065615E+03  0.45407058614E+03  0.00000000000E+00 0. -1.
         -4    1    5    5    0  503 -0.65506525081E+02  0.11693811591E+03 -0.15858543913E+03  0.20764144405E+03  0.00000000000E+00 0.  1.
         -3    1    6    6    0  502  0.63793926229E+02 -0.35367104916E+03 -0.98305407999E+02  0.37258130560E+03  0.00000000000E+00 0.  1.
<mgrwt>
<rscale>  0 0.12008447E+04</rscale>
<asrwt>0</asrwt>
<pdfrwt beam="1">  1        2 0.51502481E-01 0.12008447E+04</pdfrwt>
<pdfrwt beam="2">  1       -2 0.16567571E+00 0.12008447E+04</pdfrwt>
<totfact> 0.21913482E+01</totfact>
</mgrwt>
</event>
<event>
12    1  0.1201209E-007  0.1516752E+04  0.7818608E-02  0.8873389E-01
         -1   -1    0    0    0  501 -0.00000000000E+00  0.00000000000E+00  0.59613188918E+03  0.59613188918E+03  0.00000000000E+00 0.  1.
          1   -1    0    0  501    0  0.00000000000E+00 -0.00000000000E+00 -0.96477608946E+03  0.96477608946E+03  0.00000000000E+00 0. -1.
         23    2    1    2    0    0 -0.10868863413E+03 -0.38981295154E+03 -0.40531764069E+03  0.58137347958E+03  0.99726508635E+02 0.  0.
        254    2    1    2    0    0  0.10868863413E+03  0.38981295154E+03  0.36673440412E+02  0.97953449907E+03  0.89127747490E+03 0.  0.
        -24    2    4    4    0    0 -0.10407503842E+03  0.82967847342E+02  0.41477914301E+03  0.44218752512E+03  0.75978895664E+02 0.  0.
         24    2    4    4    0    0  0.21276367255E+03  0.30684510419E+03 -0.37810570260E+03  0.53734697395E+03  0.79721701888E+02 0.  0.
         13    1    3    3    0    0 -0.66663528022E+02 -0.34410747558E+03 -0.37118080730E+03  0.51051853289E+03  0.00000000000E+00 0. -1.
        -13    1    3    3    0    0 -0.42025106107E+02 -0.45705475956E+02 -0.34136833395E+02  0.70854946686E+02  0.00000000000E+00 0.  1.
          2    1    6    6  502    0  0.88520912820E+02  0.72988877855E+02 -0.14205639876E+03  0.18260161206E+03  0.00000000000E+00 0. -1.
          3    1    5    5  503    0 -0.87480004546E+02  0.91307611250E+02  0.39631131496E+03  0.41599578054E+03  0.00000000000E+00 0. -1.
         -4    1    5    5    0  503 -0.16595033870E+02 -0.83397639078E+01  0.18467828051E+02  0.26191744579E+02  0.00000000000E+00 0.  1.
         -1    1    6    6    0  502  0.12424275973E+03  0.23385622634E+03 -0.23604930384E+03  0.35474536189E+03  0.00000000000E+00 0.  1.
<mgrwt>
<rscale>  0 0.15167515E+04</rscale>
<asrwt>0</asrwt>
<pdfrwt beam="1">  1        1 0.14842709E+00 0.15167515E+04</pdfrwt>
<pdfrwt beam="2">  1       -1 0.91712599E-01 0.15167515E+04</pdfrwt>
<totfact> 0.18057917E+01</totfact>
</mgrwt>
</event>
<event>
12    1  0.1201209E-007  0.1773649E+04  0.7818608E-02  0.8720440E-01
         -2   -1    0    0    0  501 -0.00000000000E+00  0.00000000000E+00  0.11023437496E+04  0.11023437496E+04  0.00000000000E+00 0.  1.
          2   -1    0    0  501    0  0.00000000000E+00 -0.00000000000E+00 -0.71344139704E+03  0.71344139704E+03  0.00000000000E+00 0. -1.
         23    2    1    2    0    0 -0.13226914922E+03 -0.21066513507E+03  0.76263582508E+03  0.80774541418E+03  0.94680121771E+02 0.  0.
        254    2    1    2    0    0  0.13226914922E+03  0.21066513507E+03 -0.37373347248E+03  0.10080397325E+04  0.90254776431E+03 0.  0.
        -24    2    4    4    0    0 -0.27520626743E+03 -0.35125012548E+02  0.12418859825E+03  0.31462594899E+03  0.81206057057E+02 0.  0.
         24    2    4    4    0    0  0.40747541665E+03  0.24579014762E+03 -0.49792207073E+03  0.69341378350E+03  0.80294923807E+02 0.  0.
         11    1    3    3    0    0 -0.37194861935E+02 -0.14693991543E+03  0.44681172564E+03  0.47182148602E+03  0.00000000000E+00 0.  1.
        -11    1    3    3    0    0 -0.95074287287E+02 -0.63725219641E+02  0.31582409945E+03  0.33592392816E+03  0.00000000000E+00 0. -1.
          4    1    6    6  502    0  0.34657041873E+03  0.17938198919E+03 -0.37692883765E+03  0.54255350136E+03  0.00000000000E+00 0. -1.
          3    1    5    5  503    0 -0.34489789983E+02  0.12415106855E+02 -0.55455733617E+01  0.37073358025E+02  0.00000000000E+00 0. -1.
         -4    1    5    5    0  503 -0.24071647745E+03 -0.47540119403E+02  0.12973417161E+03  0.27755259097E+03  0.00000000000E+00 0.  1.
         -3    1    6    6    0  502  0.60904997926E+02  0.66408158427E+02 -0.12099323308E+03  0.15086028214E+03  0.00000000000E+00 0.  1.
<mgrwt>
<rscale>  0 0.17736490E+04</rscale>
<asrwt>0</asrwt>
<pdfrwt beam="1">  1        2 0.10976021E+00 0.17736490E+04</pdfrwt>
<pdfrwt beam="2">  1       -2 0.16959135E+00 0.17736490E+04</pdfrwt>
<totfact> 0.81128205E+00</totfact>
</mgrwt>
</event>
<event>
12    1  0.1201209E-007  0.2131125E+04  0.7818608E-02  0.8547655E-01
          1   -1    0    0  501    0  0.00000000000E+00  0.00000000000E+00  0.14277946164E+04  0.14277946164E+04  0.00000000000E+00 0. -1.
         -1   -1    0    0    0  501 -0.00000000000E+00 -0.00000000000E+00 -0.79522896369E+03  0.79522896369E+03  0.00000000000E+00 0.  1.
         23    2    1    2    0    0  0.79067561107E+03  0.34949239540E+03  0.11610662693E+03  0.87763791046E+03  0.97235264502E+02 0.  0.
        254    2    1    2    0    0 -0.79067561107E+03 -0.34949239540E+03  0.51645902582E+03  0.13453856697E+04  0.89219942750E+03 0.  0.
        -24    2    4    4    0    0 -0.64931248910E+03  0.10900376974E+03  0.54487601078E+03  0.85860288716E+03  0.82586441996E+02 0.  0.
         24    2    4    4    0    0 -0.14136312197E+03 -0.45849616515E+03 -0.28416984960E+02  0.48678278252E+03  0.77121246182E+02 0.  0.
         11    1    3    3    0    0  0.76783722061E+03  0.35502216589E+03  0.10813107111E+03  0.85282299697E+03  0.00000000000E+00 0.  1.
        -11    1    3    3    0    0  0.22838390467E+02 -0.55297704858E+01  0.79755558177E+01  0.24814913487E+02  0.00000000000E+00 0. -1.
          2    1    6    6  502    0 -0.76361718004E+02 -0.31690577079E+03 -0.48974040622E+02  0.32963439776E+03  0.00000000000E+00 0. -1.
          3    1    5    5  503    0 -0.27239873199E+02 -0.12089923693E+02  0.25257795491E+02  0.39065754567E+02  0.00000000000E+00 0. -1.
         -4    1    5    5    0  503 -0.62207261590E+03  0.12109369344E+03  0.51961821529E+03  0.81953713259E+03  0.00000000000E+00 0.  1.
         -1    1    6    6    0  502 -0.65001403970E+02 -0.14159039436E+03  0.20557055662E+02  0.15714838476E+03  0.00000000000E+00 0.  1.
<mgrwt>
<rscale>  0 0.21311252E+04</rscale>
<asrwt>0</asrwt>
<pdfrwt beam="1">  1        1 0.21966071E+00 0.21311252E+04</pdfrwt>
<pdfrwt beam="2">  1       -1 0.12234292E+00 0.21311252E+04</pdfrwt>
<totfact> 0.39769920E+00</totfact>
</mgrwt>
</event>
<event>
12    1  0.1201209E-007  0.1420267E+04  0.7818608E-02  0.8939278E-01
         -2   -1    0    0    0  501 -0.00000000000E+00  0.00000000000E+00  0.30580267303E+03  0.30580267303E+03  0.00000000000E+00 0. -1.
          2   -1    0    0  501    0  0.00000000000E+00 -0.00000000000E+00 -0.16490683847E+04  0.16490683847E+04  0.00000000000E+00 0.  1.
         23    2    1    2    0    0  0.17368681448E+02 -0.33837623054E+03 -0.65864254028E+02  0.35705920717E+03  0.91394928628E+02 0.  0.
        254    2    1    2    0    0 -0.17368681448E+02  0.33837623054E+03 -0.12774014577E+04  0.15978118506E+04  0.89802454385E+03 0.  0.
        -24    2    4    4    0    0  0.36826427513E+02  0.51127633497E+03 -0.12998920673E+04  0.13994489436E+04  0.77319354644E+02 0.  0.
         24    2    4    4    0    0 -0.54195108961E+02 -0.17290010443E+03  0.22490609649E+02  0.19836290699E+03  0.77527152668E+02 0.  0.
         11    1    3    3    0    0 -0.88697659466E+01 -0.22848047447E+03 -0.49635228750E+01  0.22870644180E+03  0.00000000000E+00 0. -1.
        -11    1    3    3    0    0  0.26238447395E+02 -0.10989575607E+03 -0.60900731153E+02  0.12835276537E+03  0.00000000000E+00 0.  1.
          2    1    6    6  502    0 -0.18710013361E+02 -0.80348567298E+02 -0.28003616906E+02  0.87121521031E+02  0.00000000000E+00 0. -1.
          1    1    5    5  503    0  0.14030021307E+02  0.12177505311E+02 -0.54362466606E+02  0.57449202858E+02  0.00000000000E+00 0. -1.
         -2    1    5    5    0  503  0.22796406206E+02  0.49909882966E+03 -0.12455296007E+04  0.13419997408E+04  0.00000000000E+00 0.  1.
         -1    1    6    6    0  502 -0.35485095600E+02 -0.92551537133E+02  0.50494226555E+02  0.11124138596E+03  0.00000000000E+00 0.  1.
<mgrwt>
<rscale>  0 0.14202669E+04</rscale>
<asrwt>0</asrwt>
<pdfrwt beam="1">  1        2 0.25370283E+00 0.14202669E+04</pdfrwt>
<pdfrwt beam="2">  1       -2 0.47046565E-01 0.14202669E+04</pdfrwt>
<totfact> 0.43566608E+01</totfact>
</mgrwt>
</event>
<event>
12    1  0.1201209E-007  0.1199531E+04  0.7818608E-02  0.9113267E-01
          1   -1    0    0  501    0  0.00000000000E+00  0.00000000000E+00  0.76034217203E+03  0.76034217203E+03  0.00000000000E+00 0. -1.
         -1   -1    0    0    0  501 -0.00000000000E+00 -0.00000000000E+00 -0.47310117264E+03  0.47310117264E+03  0.00000000000E+00 0.  1.
         23    2    1    2    0    0  0.68190855101E+02 -0.14924883426E+03  0.26133568547E+03  0.32395451666E+03  0.98615318867E+02 0.  0.
        254    2    1    2    0    0 -0.68190855101E+02  0.14924883426E+03  0.25905313916E+02  0.90948882801E+03  0.89418881437E+03 0.  0.
        -24    2    4    4    0    0 -0.33411503782E+03 -0.17565176360E+02  0.32154424504E+03  0.47084769112E+03  0.79783787827E+02 0.  0.
         24    2    4    4    0    0  0.26592418272E+03  0.16681401062E+03 -0.29563893112E+03  0.43864113689E+03  0.80380870116E+02 0.  0.
         13    1    3    3    0    0  0.64190475063E+02 -0.53899732190E+02  0.18001757746E+03  0.19857473760E+03  0.00000000000E+00 0. -1.
        -13    1    3    3    0    0  0.40003800378E+01 -0.95349102072E+02  0.81318108018E+02  0.12537977906E+03  0.00000000000E+00 0.  1.
          2    1    6    6  502    0  0.24153880686E+03  0.14159800103E+03 -0.22286606184E+03  0.35785509726E+03  0.00000000000E+00 0. -1.
          3    1    5    5  503    0 -0.31382621135E+03 -0.33895908576E+02  0.30979027428E+03  0.44227348733E+03  0.00000000000E+00 0. -1.
         -4    1    5    5    0  503 -0.20288826469E+02  0.16330732216E+02  0.11753970754E+02  0.28574203798E+02  0.00000000000E+00 0.  1.
         -1    1    6    6    0  502  0.24385375862E+02  0.25216009591E+02 -0.72772869276E+02  0.80786039625E+02  0.00000000000E+00 0.  1.
<mgrwt>
<rscale>  0 0.11995312E+04</rscale>
<asrwt>0</asrwt>
<pdfrwt beam="1">  1        1 0.11697572E+00 0.11995312E+04</pdfrwt>
<pdfrwt beam="2">  1       -1 0.72784796E-01 0.11995312E+04</pdfrwt>
<totfact> 0.45176243E+01</totfact>
</mgrwt>
</event>
<event>
12    1  0.1201209E-007  0.2172679E+04  0.7818608E-02  0.8529886E-01
         -1   -1    0    0    0  501 -0.00000000000E+00  0.00000000000E+00  0.41064964085E+03  0.41064964085E+03  0.00000000000E+00 0.  1.
          1   -1    0    0  501    0  0.00000000000E+00 -0.00000000000E+00 -0.28738218898E+04  0.28738218898E+04  0.00000000000E+00 0. -1.
         23    2    1    2    0    0  0.40505465080E+03 -0.32751521777E+03  0.82024696411E+02  0.53534786914E+03  0.92378580684E+02 0.  0.
        254    2    1    2    0    0 -0.40505465080E+03  0.32751521777E+03 -0.25451969454E+04  0.27491236615E+04  0.89906502970E+03 0.  0.
        -24    2    4    4    0    0 -0.17129156548E+03  0.56834463323E+03 -0.10026453181E+04  0.11684456212E+04  0.87241693434E+02 0.  0.
         24    2    4    4    0    0 -0.23376308532E+03 -0.24082941546E+03 -0.15425516272E+04  0.15806780404E+04  0.80209458593E+02 0.  0.
         11    1    3    3    0    0  0.40107439238E+03 -0.33148920320E+03  0.87337109296E+02  0.52761115485E+03  0.00000000000E+00 0.  1.
        -11    1    3    3    0    0  0.39802584208E+01  0.39739854366E+01 -0.53124128854E+01  0.77367142904E+01  0.00000000000E+00 0. -1.
          2    1    6    6  502    0 -0.79046759552E+02 -0.13866797405E+03 -0.72807726748E+03  0.74536816718E+03  0.00000000000E+00 0. -1.
          1    1    5    5  503    0 -0.16904656260E+03  0.57153781676E+03 -0.99474182659E+03  0.11596307679E+04  0.00000000000E+00 0. -1.
         -2    1    5    5    0  503 -0.22450028782E+01 -0.31931835307E+01 -0.79034915562E+01  0.88148532469E+01  0.00000000000E+00 0.  1.
         -1    1    6    6    0  502 -0.15471632577E+03 -0.10216144141E+03 -0.81447435974E+03  0.83530987319E+03  0.00000000000E+00 0.  1.
<mgrwt>
<rscale>  0 0.21726794E+04</rscale>
<asrwt>0</asrwt>
<pdfrwt beam="1">  1        1 0.44212643E+00 0.21726794E+04</pdfrwt>
<pdfrwt beam="2">  1       -1 0.63176870E-01 0.21726794E+04</pdfrwt>
<totfact> 0.17147363E+00</totfact>
</mgrwt>
</event>
<event>
12    1  0.1201209E-007  0.2081353E+04  0.7818608E-02  0.8569502E-01
         -2   -1    0    0    0  501 -0.00000000000E+00  0.00000000000E+00  0.12248710103E+04  0.12248710103E+04  0.00000000000E+00 0. -1.
          2   -1    0    0  501    0  0.00000000000E+00 -0.00000000000E+00 -0.88418110043E+03  0.88418110043E+03  0.00000000000E+00 0.  1.
         23    2    1    2    0    0 -0.45683664381E+03 -0.53199462643E+03  0.59257469184E+03  0.92245122011E+03  0.89741219004E+02 0.  0.
        254    2    1    2    0    0  0.45683664381E+03  0.53199462643E+03 -0.25188478200E+03  0.11866008906E+04  0.92350296614E+03 0.  0.
        -24    2    4    4    0    0 -0.95347032739E+01  0.25975331146E+03 -0.51351281554E+03  0.58128372886E+03  0.81441195544E+02 0.  0.
         24    2    4    4    0    0  0.46637134708E+03  0.27224131498E+03  0.26162803354E+03  0.60531716173E+03  0.79637123193E+02 0.  0.
         11    1    3    3    0    0 -0.27920312420E+03 -0.37049209777E+03  0.34977073666E+03  0.58099771712E+03  0.00000000000E+00 0. -1.
        -11    1    3    3    0    0 -0.17763351961E+03 -0.16150252867E+03  0.24280395517E+03  0.34145350299E+03  0.00000000000E+00 0.  1.
          4    1    6    6  502    0  0.15876208500E+03  0.13741786247E+03  0.10343676055E+03  0.23406886165E+03  0.00000000000E+00 0. -1.
          1    1    5    5  503    0  0.26658523530E+02  0.49451362674E+02 -0.14413178432E+03  0.15469352086E+03  0.00000000000E+00 0. -1.
         -2    1    5    5    0  503 -0.36193226804E+02  0.21030194878E+03 -0.36938103123E+03  0.42659020800E+03  0.00000000000E+00 0.  1.
         -3    1    6    6    0  502  0.30760926208E+03  0.13482345251E+03  0.15819127299E+03  0.37124830008E+03  0.00000000000E+00 0.  1.
<mgrwt>
<rscale>  0 0.20813532E+04</rscale>
<asrwt>0</asrwt>
<pdfrwt beam="1">  1        2 0.13602786E+00 0.20813532E+04</pdfrwt>
<pdfrwt beam="2">  1       -2 0.18844170E+00 0.20813532E+04</pdfrwt>
<totfact> 0.44034230E+00</totfact>
</mgrwt>
</event>
<event>
12    1  0.1201209E-007  0.2004876E+04  0.7818608E-02  0.8604345E-01
         -2   -1    0    0    0  501 -0.00000000000E+00  0.00000000000E+00  0.12410842160E+04  0.12410842160E+04  0.00000000000E+00 0.  1.
          2   -1    0    0  501    0  0.00000000000E+00 -0.00000000000E+00 -0.80968034085E+03  0.80968034085E+03  0.00000000000E+00 0. -1.
         23    2    1    2    0    0  0.57092870396E+03 -0.49683919615E+03  0.43465644126E+03  0.87741239450E+03  0.90097259994E+02 0.  0.
        254    2    1    2    0    0 -0.57092870396E+03  0.49683919615E+03 -0.32525660696E+01  0.11733521624E+04  0.89662475203E+03 0.  0.
        -24    2    4    4    0    0 -0.96432695879E+02  0.10966995291E+03 -0.40416906567E+03  0.43706437826E+03  0.79660992309E+02 0.  0.
         24    2    4    4    0    0 -0.47449600808E+03  0.38716924325E+03  0.40091649960E+03  0.73628778413E+03  0.79618947502E+02 0.  0.
         13    1    3    3    0    0  0.16442352975E+03 -0.15868569447E+03  0.17795940728E+03  0.28963044972E+03  0.00000000000E+00 0. -1.
        -13    1    3    3    0    0  0.40650517421E+03 -0.33815350169E+03  0.25669703398E+03  0.58778194479E+03  0.00000000000E+00 0.  1.
          2    1    6    6  502    0 -0.13849080835E+03  0.74721432092E+02  0.81403426082E+02  0.17717086157E+03  0.00000000000E+00 0. -1.
          1    1    5    5  503    0 -0.53627829849E+02  0.85883316408E+02 -0.17032338047E+03  0.19814626443E+03  0.00000000000E+00 0. -1.
         -2    1    5    5    0  503 -0.42804866029E+02  0.23786636499E+02 -0.23384568520E+03  0.23891811384E+03  0.00000000000E+00 0.  1.
         -1    1    6    6    0  502 -0.33600519973E+03  0.31244781115E+03  0.31951307352E+03  0.55911692256E+03  0.00000000000E+00 0.  1.
<mgrwt>
<rscale>  0 0.20048755E+04</rscale>
<asrwt>0</asrwt>
<pdfrwt beam="1">  1        2 0.12456621E+00 0.20048755E+04</pdfrwt>
<pdfrwt beam="2">  1       -2 0.19093603E+00 0.20048755E+04</pdfrwt>
<totfact> 0.48069145E+00</totfact>
</mgrwt>
</event>
<event>
12    1  0.1201209E-007  0.1986907E+04  0.7818608E-02  0.8612767E-01
          2   -1    0    0  501    0  0.00000000000E+00  0.00000000000E+00  0.24602389384E+04  0.24602389384E+04  0.00000000000E+00 0.  1.
         -2   -1    0    0    0  501 -0.00000000000E+00 -0.00000000000E+00 -0.40116014877E+03  0.40116014877E+03  0.00000000000E+00 0. -1.
         23    2    1    2    0    0 -0.37856056907E+03 -0.41602339930E+02 -0.17109881524E+03  0.42755471020E+03  0.92137758241E+02 0.  0.
        254    2    1    2    0    0  0.37856056907E+03  0.41602339930E+02  0.22301776049E+04  0.24338443770E+04  0.89714404803E+03 0.  0.
        -24    2    4    4    0    0  0.13671716878E+03 -0.28618838326E+03  0.18247332763E+04  0.18536932056E+04  0.77016854230E+02 0.  0.
         24    2    4    4    0    0  0.24184340028E+03  0.32779072319E+03  0.40544432856E+03  0.58015117138E+03  0.79090388904E+02 0.  0.
         11    1    3    3    0    0 -0.44294138983E+02  0.85592914217E+01 -0.52784817801E+02  0.69436800100E+02  0.00000000000E+00 0.  1.
        -11    1    3    3    0    0 -0.33426643008E+03 -0.50161631351E+02 -0.11831399744E+03  0.35811791010E+03  0.00000000000E+00 0. -1.
          4    1    6    6  502    0  0.22505676330E+03  0.28336095220E+03  0.38523341145E+03  0.52853453741E+03  0.00000000000E+00 0. -1.
          3    1    5    5  503    0  0.10547713077E+03 -0.26222931137E+03  0.14825770070E+04  0.15092793706E+04  0.00000000000E+00 0. -1.
         -4    1    5    5    0  503  0.31240038014E+02 -0.23959071896E+02  0.34215626939E+03  0.34441383507E+03  0.00000000000E+00 0.  1.
         -3    1    6    6    0  502  0.16786636985E+02  0.44429770995E+02  0.20210917115E+02  0.51616633972E+02  0.00000000000E+00 0.  1.
<mgrwt>
<rscale>  0 0.19869070E+04</rscale>
<asrwt>0</asrwt>
<pdfrwt beam="1">  1        2 0.37849829E+00 0.19869070E+04</pdfrwt>
<pdfrwt beam="2">  1       -2 0.61716947E-01 0.19869070E+04</pdfrwt>
<totfact> 0.83314095E+00</totfact>
</mgrwt>
</event>
<event>
12    1  0.1201209E-007  0.3103868E+04  0.7818608E-02  0.8214677E-01
         -2   -1    0    0    0  501 -0.00000000000E+00  0.00000000000E+00  0.21123727999E+04  0.21123727999E+04  0.00000000000E+00 0.  1.
          2   -1    0    0  501    0  0.00000000000E+00 -0.00000000000E+00 -0.11401865392E+04  0.11401865392E+04  0.00000000000E+00 0. -1.
         23    2    1    2    0    0 -0.66236699963E+03 -0.49465604654E+03 -0.75989470858E+03  0.11264529338E+04  0.89674954197E+02 0.  0.
        254    2    1    2    0    0  0.66236699963E+03  0.49465604654E+03  0.17320809693E+04  0.21261064053E+04  0.91477282181E+03 0.  0.
        -24    2    4    4    0    0 -0.79884581181E+02  0.35695056882E+03  0.10150405649E+04  0.10819268906E+04  0.80393987856E+02 0.  0.
         24    2    4    4    0    0  0.74225158081E+03  0.13770547772E+03  0.71704040445E+03  0.10441795147E+04  0.79143600152E+02 0.  0.
         11    1    3    3    0    0 -0.55389228853E+03 -0.43493600479E+03 -0.68081708299E+03  0.97952942582E+03  0.00000000000E+00 0. -1.
        -11    1    3    3    0    0 -0.10847471110E+03 -0.59720041756E+02 -0.79077625594E+02  0.14692350801E+03  0.00000000000E+00 0.  1.
          2    1    6    6  502    0  0.10473903339E+03  0.35318533418E+02  0.74708249717E+02  0.13341284232E+03  0.00000000000E+00 0. -1.
          1    1    5    5  503    0 -0.15130256392E+02  0.23456394966E+03  0.59993551259E+03  0.64433825775E+03  0.00000000000E+00 0. -1.
         -2    1    5    5    0  503 -0.64754324789E+02  0.12238661916E+03  0.41510505231E+03  0.43758863283E+03  0.00000000000E+00 0.  1.
         -3    1    6    6    0  502  0.63751254742E+03  0.10238694430E+03  0.64233215473E+03  0.91076667236E+03  0.00000000000E+00 0.  1.
<mgrwt>
<rscale>  0 0.31038679E+04</rscale>
<asrwt>0</asrwt>
<pdfrwt beam="1">  1        2 0.17541331E+00 0.31038679E+04</pdfrwt>
<pdfrwt beam="2">  1       -2 0.32498043E+00 0.31038679E+04</pdfrwt>
<totfact> 0.38956520E-01</totfact>
</mgrwt>
</event>
<event>
12    1  0.1201209E-007  0.2211426E+04  0.7818608E-02  0.8513687E-01
          2   -1    0    0  501    0  0.00000000000E+00  0.00000000000E+00  0.31014845286E+04  0.31014845286E+04  0.00000000000E+00 0. -1.
         -2   -1    0    0    0  501 -0.00000000000E+00 -0.00000000000E+00 -0.39419878168E+03  0.39419878168E+03  0.00000000000E+00 0.  1.
         23    2    1    2    0    0  0.15448971626E+03 -0.35355456211E+03  0.24658692428E+04  0.24975265661E+04  0.90884129845E+02 0.  0.
        254    2    1    2    0    0 -0.15448971626E+03  0.35355456211E+03  0.24141650418E+03  0.99815674422E+03  0.88835075096E+03 0.  0.
        -24    2    4    4    0    0 -0.41322641495E+03  0.46958574980E+03  0.30040754916E+03  0.69885469571E+03  0.82983996591E+02 0.  0.
         24    2    4    4    0    0  0.25873669869E+03 -0.11603118770E+03 -0.58991044985E+02  0.29930204851E+03  0.75457650968E+02 0.  0.
         11    1    3    3    0    0  0.15105317175E+03 -0.24622683220E+03  0.17674218097E+04  0.17908725714E+04  0.00000000000E+00 0. -1.
        -11    1    3    3    0    0  0.34365445074E+01 -0.10732772991E+03  0.69844743303E+03  0.70665399465E+03  0.00000000000E+00 0.  1.
          4    1    6    6  502    0  0.79074501859E+02 -0.10620787127E+02 -0.42371385855E+02  0.90337767864E+02  0.00000000000E+00 0. -1.
          1    1    5    5  503    0 -0.14878312819E+03  0.11279072039E+03  0.96593542839E+02  0.21021055720E+03  0.00000000000E+00 0. -1.
         -2    1    5    5    0  503 -0.26444328676E+03  0.35679502941E+03  0.20381400632E+03  0.48864413851E+03  0.00000000000E+00 0.  1.
         -3    1    6    6    0  502  0.17966219683E+03 -0.10541040057E+03 -0.16619659130E+02  0.20896428065E+03  0.00000000000E+00 0.  1.
<mgrwt>
<rscale>  0 0.22114262E+04</rscale>
<asrwt>0</asrwt>
<pdfrwt beam="1">  1        2 0.47715145E+00 0.22114262E+04</pdfrwt>
<pdfrwt beam="2">  1       -2 0.60645968E-01 0.22114262E+04</pdfrwt>
<totfact> 0.34769577E+00</totfact>
</mgrwt>
</event>
<event>
12    1  0.1201209E-007  0.2171931E+04  0.7818608E-02  0.8530203E-01
         -2   -1    0    0    0  501 -0.00000000000E+00  0.00000000000E+00  0.82744873653E+03  0.82744873653E+03  0.00000000000E+00 0.  1.
          2   -1    0    0  501    0  0.00000000000E+00 -0.00000000000E+00 -0.14252494164E+04  0.14252494164E+04  0.00000000000E+00 0. -1.
         23    2    1    2    0    0 -0.13868767499E+03 -0.35339593712E+03 -0.10928121103E+04  0.11606720153E+04  0.93799035920E+02 0.  0.
        254    2    1    2    0    0  0.13868767499E+03  0.35339593712E+03  0.49501143037E+03  0.10920261377E+04  0.89630452950E+03 0.  0.
        -24    2    4    4    0    0  0.41518882255E+03  0.49550503722E+03  0.35677899005E+03  0.74258177438E+03  0.78926824420E+02 0.  0.
         24    2    4    4    0    0 -0.27650114756E+03 -0.14210910011E+03  0.13823244032E+03  0.34944436330E+03  0.79719975851E+02 0.  0.
         13    1    3    3    0    0  0.84427048570E+01 -0.53182108067E+02 -0.20632139713E+03  0.21323258381E+03  0.00000000000E+00 0.  1.
        -13    1    3    3    0    0 -0.14713037985E+03 -0.30021382905E+03 -0.88649071313E+03  0.94743943146E+03  0.00000000000E+00 0. -1.
          4    1    6    6  502    0 -0.23555369936E+03 -0.92195811295E+02  0.12987055772E+03  0.28434481649E+03  0.00000000000E+00 0. -1.
          3    1    5    5  503    0  0.30540350398E+03  0.38962004326E+03  0.23815793244E+03  0.54935806096E+03  0.00000000000E+00 0. -1.
         -4    1    5    5    0  503  0.10978531857E+03  0.10588499396E+03  0.11862105760E+03  0.19322371342E+03  0.00000000000E+00 0.  1.
         -3    1    6    6    0  502 -0.40947448196E+02 -0.49913288812E+02  0.83618826034E+01  0.65099546807E+02  0.00000000000E+00 0.  1.
<mgrwt>
<rscale>  0 0.21719308E+04</rscale>
<asrwt>0</asrwt>
<pdfrwt beam="1">  1        2 0.21926914E+00 0.21719308E+04</pdfrwt>
<pdfrwt beam="2">  1       -2 0.12729981E+00 0.21719308E+04</pdfrwt>
<totfact> 0.58739608E+00</totfact>
</mgrwt>
</event>
<event>
12    1  0.1201209E-007  0.2134531E+04  0.7818608E-02  0.8546183E-01
         -1   -1    0    0    0  501 -0.00000000000E+00  0.00000000000E+00  0.40607866460E+03  0.40607866460E+03  0.00000000000E+00 0.  1.
          1   -1    0    0  501    0  0.00000000000E+00 -0.00000000000E+00 -0.28050120754E+04  0.28050120754E+04  0.00000000000E+00 0. -1.
         23    2    1    2    0    0 -0.43879895595E+03  0.22994685654E+03 -0.20800687341E+04  0.21400648967E+04  0.88157490762E+02 0.  0.
        254    2    1    2    0    0  0.43879895595E+03 -0.22994685654E+03 -0.31886467674E+03  0.10710258433E+04  0.89442808226E+03 0.  0.
        -24    2    4    4    0    0  0.56352783022E+03 -0.45782059617E+03 -0.13659990364E+03  0.74410563051E+03  0.88714947877E+02 0.  0.
         24    2    4    4    0    0 -0.12472887427E+03  0.22787373964E+03 -0.18226477309E+03  0.32692021277E+03  0.78566180485E+02 0.  0.
         13    1    3    3    0    0 -0.38497302808E+03  0.18240581537E+03 -0.18750076717E+04  0.19227922100E+04  0.00000000000E+00 0. -1.
        -13    1    3    3    0    0 -0.53825927867E+02  0.47541041165E+02 -0.20506106239E+03  0.21727268677E+03  0.00000000000E+00 0.  1.
          2    1    6    6  502    0 -0.73374216917E+02  0.19767558964E+03 -0.15319902011E+03  0.26063260389E+03  0.00000000000E+00 0. -1.
          1    1    5    5  503    0  0.15334369346E+03 -0.17202996685E+03 -0.24389370035E+02  0.23174002501E+03  0.00000000000E+00 0. -1.
         -2    1    5    5    0  503  0.41018413675E+03 -0.28579062932E+03 -0.11221053361E+03  0.51236560551E+03  0.00000000000E+00 0.  1.
         -1    1    6    6    0  502 -0.51354657351E+02  0.30198149996E+02 -0.29065752987E+02  0.66287608884E+02  0.00000000000E+00 0.  1.
<mgrwt>
<rscale>  0 0.21345309E+04</rscale>
<asrwt>0</asrwt>
<pdfrwt beam="1">  1        1 0.43154031E+00 0.21345309E+04</pdfrwt>
<pdfrwt beam="2">  1       -1 0.62473642E-01 0.21345309E+04</pdfrwt>
<totfact> 0.19709796E+00</totfact>
</mgrwt>
</event>
<event>
12    1  0.1201209E-007  0.1933288E+04  0.7818608E-02  0.8638462E-01
          2   -1    0    0  501    0  0.00000000000E+00  0.00000000000E+00  0.18014026226E+04  0.18014026226E+04  0.00000000000E+00 0.  1.
         -2   -1    0    0    0  501 -0.00000000000E+00 -0.00000000000E+00 -0.51870724757E+03  0.51870724757E+03  0.00000000000E+00 0. -1.
         23    2    1    2    0    0 -0.13017363020E+03  0.43035298795E+03 -0.22652669291E+03  0.51570296667E+03  0.11174228829E+03 0.  0.
        254    2    1    2    0    0  0.13017363020E+03 -0.43035298795E+03  0.15092220679E+04  0.18044069035E+04  0.88089962813E+03 0.  0.
        -24    2    4    4    0    0 -0.54429297046E+02 -0.63726840911E+03  0.73207624562E+03  0.97539976456E+03  0.79971855543E+02 0.  0.
         24    2    4    4    0    0  0.18460292725E+03  0.20691542116E+03  0.77714582230E+03  0.82900713894E+03  0.80031087814E+02 0.  0.
         11    1    3    3    0    0 -0.46286531090E+02  0.13946415641E+03 -0.17886595224E+02  0.14802913285E+03  0.00000000000E+00 0.  1.
        -11    1    3    3    0    0 -0.83887099110E+02  0.29088883154E+03 -0.20864009769E+03  0.36767383382E+03  0.00000000000E+00 0. -1.
          2    1    6    6  502    0  0.11426996134E+02  0.28925391260E+02  0.17366847047E+03  0.17643126745E+03  0.00000000000E+00 0. -1.
          3    1    5    5  503    0  0.12764862386E+02 -0.47147068751E+02  0.76735680632E+02  0.90962368514E+02  0.00000000000E+00 0. -1.
         -4    1    5    5    0  503 -0.67194159432E+02 -0.59012134036E+03  0.65534056499E+03  0.88443739605E+03  0.00000000000E+00 0.  1.
         -1    1    6    6    0  502  0.17317593111E+03  0.17799002990E+03  0.60347735184E+03  0.65257587148E+03  0.00000000000E+00 0.  1.
<mgrwt>
<rscale>  0 0.19332880E+04</rscale>
<asrwt>0</asrwt>
<pdfrwt beam="1">  1        2 0.27713886E+00 0.19332880E+04</pdfrwt>
<pdfrwt beam="2">  1       -2 0.79801116E-01 0.19332880E+04</pdfrwt>
<totfact> 0.11182784E+01</totfact>
</mgrwt>
</event>
<event>
12    1  0.1201209E-007  0.1956906E+04  0.7818608E-02  0.8627038E-01
         -1   -1    0    0    0  501 -0.00000000000E+00  0.00000000000E+00  0.15964493630E+04  0.15964493630E+04  0.00000000000E+00 0.  1.
          1   -1    0    0  501    0  0.00000000000E+00 -0.00000000000E+00 -0.59968724794E+03  0.59968724794E+03  0.00000000000E+00 0. -1.
         23    2    1    2    0    0  0.61132819118E+02 -0.40557234024E+03 -0.33834270542E+03  0.53983885850E+03  0.93402687795E+02 0.  0.
        254    2    1    2    0    0 -0.61132819118E+02  0.40557234024E+03  0.13351048205E+04  0.16562977524E+04  0.89027592259E+03 0.  0.
        -24    2    4    4    0    0  0.21240489221E+03  0.76882992045E+02 -0.12815255034E+02  0.23992082807E+03  0.79818170101E+02 0.  0.
         24    2    4    4    0    0 -0.27353771133E+03  0.32868934820E+03  0.13479200755E+04  0.14163769244E+04  0.79846695634E+02 0.  0.
         13    1    3    3    0    0 -0.75329903011E+01 -0.39070808201E+01  0.22195621014E+01  0.87714126190E+01  0.00000000000E+00 0.  1.
        -13    1    3    3    0    0  0.68665809420E+02 -0.40166525942E+03 -0.34056226752E+03  0.53106744588E+03  0.00000000000E+00 0. -1.
          4    1    6    6  502    0 -0.23093531819E+02  0.44054951787E+01  0.48674010582E+02  0.54054406904E+02  0.00000000000E+00 0. -1.
          1    1    5    5  503    0  0.82177119827E+02 -0.10124490630E+02 -0.25576069973E+00  0.82798851122E+02  0.00000000000E+00 0. -1.
         -2    1    5    5    0  503  0.13022777238E+03  0.87007482675E+02 -0.12559494334E+02  0.15712197695E+03  0.00000000000E+00 0.  1.
         -3    1    6    6    0  502 -0.25044417951E+03  0.32428385302E+03  0.12992460649E+04  0.13623225175E+04  0.00000000000E+00 0.  1.
<mgrwt>
<rscale>  0 0.19569061E+04</rscale>
<asrwt>0</asrwt>
<pdfrwt beam="1">  1        1 0.92259577E-01 0.19569061E+04</pdfrwt>
<pdfrwt beam="2">  1       -1 0.24560759E+00 0.19569061E+04</pdfrwt>
<totfact> 0.23770580E+00</totfact>
</mgrwt>
</event>
<event>
12    1  0.1201209E-007  0.2078678E+04  0.7818608E-02  0.8570694E-01
          1   -1    0    0  501    0  0.00000000000E+00  0.00000000000E+00  0.22668379488E+04  0.22668379488E+04  0.00000000000E+00 0. -1.
         -1   -1    0    0    0  501 -0.00000000000E+00 -0.00000000000E+00 -0.47653431308E+03  0.47653431308E+03  0.00000000000E+00 0.  1.
         23    2    1    2    0    0 -0.79463066951E+03 -0.16176604472E+03  0.10368883596E+04  0.13192928414E+04  0.88260846623E+02 0.  0.
        254    2    1    2    0    0  0.79463066951E+03  0.16176604472E+03  0.75341527616E+03  0.14240794205E+04  0.89596956606E+03 0.  0.
        -24    2    4    4    0    0  0.66131293604E+03 -0.25321984316E+03  0.65866701916E+03  0.97043338024E+03  0.80272130988E+02 0.  0.
         24    2    4    4    0    0  0.13331773347E+03  0.41498588788E+03  0.94748257001E+02  0.45364604023E+03  0.82647398114E+02 0.  0.
         11    1    3    3    0    0 -0.20524099929E+03 -0.70202308592E+02  0.23368512505E+03  0.31884317397E+03  0.00000000000E+00 0. -1.
        -11    1    3    3    0    0 -0.58938967022E+03 -0.91563736131E+02  0.80320323452E+03  0.10004496674E+04  0.00000000000E+00 0.  1.
          4    1    6    6  502    0  0.14042949250E+03  0.33809522872E+03  0.84766035831E+02  0.37578465492E+03  0.00000000000E+00 0. -1.
          1    1    5    5  503    0  0.42777334119E+03 -0.12230529707E+03  0.40719962615E+03  0.60312532086E+03  0.00000000000E+00 0. -1.
         -2    1    5    5    0  503  0.23353959485E+03 -0.13091454608E+03  0.25146739302E+03  0.36730805938E+03  0.00000000000E+00 0.  1.
         -3    1    6    6    0  502 -0.71117590229E+01  0.76890659161E+02  0.99822211696E+01  0.77861385309E+02  0.00000000000E+00 0.  1.
<mgrwt>
<rscale>  0 0.20786785E+04</rscale>
<asrwt>0</asrwt>
<pdfrwt beam="1">  1        1 0.34874429E+00 0.20786785E+04</pdfrwt>
<pdfrwt beam="2">  1       -1 0.73312973E-01 0.20786785E+04</pdfrwt>
<totfact> 0.33878371E+00</totfact>
</mgrwt>
</event>
<event>
12    1  0.1201209E-007  0.3328754E+04  0.7818608E-02  0.8155617E-01
         -2   -1    0    0    0  501 -0.00000000000E+00  0.00000000000E+00  0.12367165234E+04  0.12367165234E+04  0.00000000000E+00 0.  1.
          2   -1    0    0  501    0  0.00000000000E+00 -0.00000000000E+00 -0.22399244856E+04  0.22399244856E+04  0.00000000000E+00 0. -1.
         23    2    1    2    0    0  0.11745924289E+04 -0.14856047426E+03  0.56473942473E+03  0.13147725863E+04  0.89211810427E+02 0.  0.
        254    2    1    2    0    0 -0.11745924289E+04  0.14856047426E+03 -0.15679473869E+04  0.21618684227E+04  0.90193041868E+03 0.  0.
        -24    2    4    4    0    0 -0.83985279341E+03  0.39750918986E+03 -0.61134176288E+03  0.11151910019E+04  0.80907039589E+02 0.  0.
         24    2    4    4    0    0 -0.33473963552E+03 -0.24894871560E+03 -0.95660562405E+03  0.10466774208E+04  0.80082561140E+02 0.  0.
         13    1    3    3    0    0  0.56201246861E+03 -0.50720801969E+02  0.22509288980E+03  0.60753388684E+03  0.00000000000E+00 0.  1.
        -13    1    3    3    0    0  0.61257996032E+03 -0.97839672292E+02  0.33964653493E+03  0.70723869942E+03  0.00000000000E+00 0. -1.
          4    1    6    6  502    0 -0.17480338041E+03 -0.16481691451E+03 -0.47544579395E+03  0.53270023474E+03  0.00000000000E+00 0. -1.
          3    1    5    5  503    0 -0.21816761970E+03  0.13616540616E+03 -0.19368988836E+03  0.32195325899E+03  0.00000000000E+00 0. -1.
         -4    1    5    5    0  503 -0.62168517370E+03  0.26134378370E+03 -0.41765187452E+03  0.79323774291E+03  0.00000000000E+00 0.  1.
         -1    1    6    6    0  502 -0.15993625512E+03 -0.84131801089E+02 -0.48115983011E+03  0.51397718603E+03  0.00000000000E+00 0.  1.
<mgrwt>
<rscale>  0 0.33287545E+04</rscale>
<asrwt>0</asrwt>
<pdfrwt beam="1">  1        2 0.34460377E+00 0.33287545E+04</pdfrwt>
<pdfrwt beam="2">  1       -2 0.19026408E+00 0.33287545E+04</pdfrwt>
<totfact> 0.63066484E-01</totfact>
</mgrwt>
</event>
<event>
12    1  0.1201209E-007  0.1728136E+04  0.7818608E-02  0.8745478E-01
         -1   -1    0    0    0  501 -0.00000000000E+00  0.00000000000E+00  0.44973057313E+03  0.44973057313E+03  0.00000000000E+00 0.  1.
          1   -1    0    0  501    0  0.00000000000E+00 -0.00000000000E+00 -0.16601343503E+04  0.16601343503E+04  0.00000000000E+00 0. -1.
         23    2    1    2    0    0  0.43269558032E+03  0.37348168175E+03 -0.75856271170E+03  0.95421978982E+03  0.91673266878E+02 0.  0.
        254    2    1    2    0    0 -0.43269558032E+03 -0.37348168175E+03 -0.45184106547E+03  0.11556451336E+04  0.89701800125E+03 0.  0.
        -24    2    4    4    0    0 -0.27101788481E+03  0.27280445705E+03 -0.16410912683E+03  0.42545623067E+03  0.78792341228E+02 0.  0.
         24    2    4    4    0    0 -0.16167769551E+03 -0.64628613880E+03 -0.28773193864E+03  0.73018890294E+03  0.80998240882E+02 0.  0.
         13    1    3    3    0    0  0.48596232565E+02  0.87184866017E+02 -0.12779506971E+03  0.16215540239E+03  0.00000000000E+00 0.  1.
        -13    1    3    3    0    0  0.38409934776E+03  0.28629681574E+03 -0.63076764198E+03  0.79206438742E+03  0.00000000000E+00 0. -1.
          4    1    6    6  502    0 -0.16796989986E+03 -0.57405390295E+03 -0.24788901228E+03  0.64745712844E+03  0.00000000000E+00 0. -1.
          1    1    5    5  503    0 -0.21445320683E+03  0.23822074284E+03 -0.10689872784E+03  0.33788554016E+03  0.00000000000E+00 0. -1.
         -2    1    5    5    0  503 -0.56564677981E+02  0.34583714214E+02 -0.57210398991E+02  0.87570690511E+02  0.00000000000E+00 0.  1.
         -3    1    6    6    0  502  0.62922043471E+01 -0.72232235853E+02 -0.39842926351E+02  0.82731774501E+02  0.00000000000E+00 0.  1.
<mgrwt>
<rscale>  0 0.17281356E+04</rscale>
<asrwt>0</asrwt>
<pdfrwt beam="1">  1        1 0.25540529E+00 0.17281356E+04</pdfrwt>
<pdfrwt beam="2">  1       -1 0.69189319E-01 0.17281356E+04</pdfrwt>
<totfact> 0.10180275E+01</totfact>
</mgrwt>
</event>
<event>
12    1  0.1201209E-007  0.3727635E+04  0.7818608E-02  0.8061865E-01
          1   -1    0    0  501    0  0.00000000000E+00  0.00000000000E+00  0.16758935949E+04  0.16758935949E+04  0.00000000000E+00 0. -1.
         -1   -1    0    0    0  501 -0.00000000000E+00 -0.00000000000E+00 -0.20728144991E+04  0.20728144991E+04  0.00000000000E+00 0.  1.
         23    2    1    2    0    0 -0.79183145416E+03  0.94929507019E+03  0.10631247050E+04  0.16330072873E+04  0.91216665372E+02 0.  0.
        254    2    1    2    0    0  0.79183145416E+03 -0.94929507019E+03 -0.14600456091E+04  0.21157008067E+04  0.90349241318E+03 0.  0.
        -24    2    4    4    0    0  0.96536056986E+03 -0.62640400268E+03 -0.10511180412E+04  0.15607282240E+04  0.81978340211E+02 0.  0.
         24    2    4    4    0    0 -0.17352911570E+03 -0.32289106751E+03 -0.40892756790E+03  0.55497258268E+03  0.80011350843E+02 0.  0.
         11    1    3    3    0    0 -0.77298637953E+03  0.90763054350E+03  0.10066085135E+04  0.15603082535E+04  0.00000000000E+00 0. -1.
        -11    1    3    3    0    0 -0.18845074626E+02  0.41664526693E+02  0.56516191501E+02  0.72699033859E+02  0.00000000000E+00 0.  1.
          4    1    6    6  502    0 -0.84232139691E+02 -0.18442757539E+03 -0.28032647343E+03  0.34596461615E+03  0.00000000000E+00 0. -1.
          1    1    5    5  503    0  0.20016870955E+03 -0.14672489857E+03 -0.18638713434E+03  0.31038020554E+03  0.00000000000E+00 0. -1.
         -2    1    5    5    0  503  0.76519186030E+03 -0.47967910411E+03 -0.86473090690E+03  0.12503480185E+04  0.00000000000E+00 0.  1.
         -3    1    6    6    0  502 -0.89296976007E+02 -0.13846349212E+03 -0.12860109447E+03  0.20900796653E+03  0.00000000000E+00 0.  1.
<mgrwt>
<rscale>  0 0.37276355E+04</rscale>
<asrwt>0</asrwt>
<pdfrwt beam="1">  1        1 0.25782978E+00 0.37276355E+04</pdfrwt>
<pdfrwt beam="2">  1       -1 0.31889454E+00 0.37276355E+04</pdfrwt>
<totfact> 0.98589591E-02</totfact>
</mgrwt>
</event>
<event>
12    1  0.1201209E-007  0.1445710E+04  0.7818608E-02  0.8921380E-01
          1   -1    0    0  501    0  0.00000000000E+00  0.00000000000E+00  0.49345710148E+03  0.49345710148E+03  0.00000000000E+00 0. -1.
         -1   -1    0    0    0  501 -0.00000000000E+00 -0.00000000000E+00 -0.10588948232E+04  0.10588948232E+04  0.00000000000E+00 0.  1.
         23    2    1    2    0    0 -0.96502722855E+02  0.31773564940E+03 -0.48169057825E+03  0.59233415023E+03  0.92548441067E+02 0.  0.
        254    2    1    2    0    0  0.96502722855E+02 -0.31773564940E+03 -0.83747143431E+02  0.96001777441E+03  0.89685663555E+03 0.  0.
        -24    2    4    4    0    0 -0.14883078328E+03  0.23483452575E+03 -0.18228590686E+03  0.34203718681E+03  0.80395452501E+02 0.  0.
         24    2    4    4    0    0  0.24533350614E+03 -0.55257017515E+03  0.98538763426E+02  0.61798058760E+03  0.81656543257E+02 0.  0.
         13    1    3    3    0    0  0.41605667240E+01  0.15104604339E+02 -0.69058640419E+02  0.70813524161E+02  0.00000000000E+00 0. -1.
        -13    1    3    3    0    0 -0.10066328958E+03  0.30263104506E+03 -0.41263193783E+03  0.52152062607E+03  0.00000000000E+00 0.  1.
          4    1    6    6  502    0  0.43168279477E+02 -0.84872940651E+02  0.46026649077E+02  0.10576090409E+03  0.00000000000E+00 0. -1.
          3    1    5    5  503    0 -0.74881527653E+01  0.20344607967E+02 -0.46904830319E+02  0.51672416359E+02  0.00000000000E+00 0. -1.
         -4    1    5    5    0  503 -0.14134263052E+03  0.21448991778E+03 -0.13538107654E+03  0.29036477045E+03  0.00000000000E+00 0.  1.
         -3    1    6    6    0  502  0.20216522666E+03 -0.46769723450E+03  0.52512114349E+02  0.51221968351E+03  0.00000000000E+00 0.  1.
<mgrwt>
<rscale>  0 0.14457097E+04</rscale>
<asrwt>0</asrwt>
<pdfrwt beam="1">  1        1 0.75916478E-01 0.14457097E+04</pdfrwt>
<pdfrwt beam="2">  1       -1 0.16290689E+00 0.14457097E+04</pdfrwt>
<totfact> 0.12183576E+01</totfact>
</mgrwt>
</event>
<event>
12    1  0.1201209E-007  0.1550362E+04  0.7818608E-02  0.8851637E-01
         -2   -1    0    0    0  501 -0.00000000000E+00  0.00000000000E+00  0.33034066620E+03  0.33034066620E+03  0.00000000000E+00 0.  1.
          2   -1    0    0  501    0  0.00000000000E+00 -0.00000000000E+00 -0.18190480578E+04  0.18190480578E+04  0.00000000000E+00 0. -1.
         23    2    1    2    0    0 -0.19170429229E+03 -0.26569909091E+03  0.40347627692E+02  0.34269660995E+03  0.92013546940E+02 0.  0.
        254    2    1    2    0    0  0.19170429229E+03  0.26569909091E+03 -0.15290550193E+04  0.18066921140E+04  0.90486496248E+03 0.  0.
        -24    2    4    4    0    0 -0.10223826367E+03  0.31296691217E+03 -0.11300222691E+03  0.35757576358E+03  0.81792253543E+02 0.  0.
         24    2    4    4    0    0  0.29394255595E+03 -0.47267821267E+02 -0.14160527924E+04  0.14491163505E+04  0.78078250719E+02 0.  0.
         11    1    3    3    0    0 -0.29452002073E+02 -0.16072902691E+02  0.29658765473E+02  0.44781703813E+02  0.00000000000E+00 0. -1.
        -11    1    3    3    0    0 -0.16225229022E+03 -0.24962618821E+03  0.10688862219E+02  0.29791490614E+03  0.00000000000E+00 0.  1.
          2    1    6    6  502    0  0.25031288741E+03 -0.64913288979E+02 -0.12530850955E+04  0.12794891689E+04  0.00000000000E+00 0. -1.
          1    1    5    5  503    0 -0.93707828615E+02  0.20942181959E+03 -0.10794661063E+03  0.25355694905E+03  0.00000000000E+00 0. -1.
         -2    1    5    5    0  503 -0.85304350504E+01  0.10354509258E+03 -0.50556162787E+01  0.10401881453E+03  0.00000000000E+00 0.  1.
         -1    1    6    6    0  502  0.43629668545E+02  0.17645467711E+02 -0.16296769688E+03  0.16962718159E+03  0.00000000000E+00 0.  1.
<mgrwt>
<rscale>  0 0.15503620E+04</rscale>
<asrwt>0</asrwt>
<pdfrwt beam="1">  1        2 0.27985355E+00 0.15503620E+04</pdfrwt>
<pdfrwt beam="2">  1       -2 0.50821641E-01 0.15503620E+04</pdfrwt>
<totfact> 0.29667450E+01</totfact>
</mgrwt>
</event>
<event>
12    1  0.1201209E-007  0.3589763E+04  0.7818608E-02  0.8092841E-01
          1   -1    0    0  501    0  0.00000000000E+00  0.00000000000E+00  0.81677717436E+03  0.81677717436E+03  0.00000000000E+00 0. -1.
         -1   -1    0    0    0  501 -0.00000000000E+00 -0.00000000000E+00 -0.39442818757E+04  0.39442818757E+04  0.00000000000E+00 0.  1.
         23    2    1    2    0    0  0.37233532746E+03 -0.11412179316E+04  0.87429021487E+02  0.12070486091E+04  0.91162204117E+02 0.  0.
        254    2    1    2    0    0 -0.37233532746E+03  0.11412179316E+04 -0.32149337228E+04  0.35540104410E+04  0.92421826900E+03 0.  0.
        -24    2    4    4    0    0 -0.39290419804E+03  0.42139594325E+03 -0.23728251047E+04  0.24431516852E+04  0.82115343883E+02 0.  0.
         24    2    4    4    0    0  0.20568870580E+02  0.71982198836E+03 -0.84210861818E+03  0.11108587558E+04  0.79331438432E+02 0.  0.
         13    1    3    3    0    0  0.14095051474E+03 -0.35411860959E+03 -0.71783098829E+01  0.38120672265E+03  0.00000000000E+00 0.  1.
        -13    1    3    3    0    0  0.23138481272E+03 -0.78709932202E+03  0.94607331370E+02  0.82584188646E+03  0.00000000000E+00 0. -1.
          2    1    6    6  502    0 -0.23780866366E+02  0.43764184531E+03 -0.53067887223E+03  0.68827028107E+03  0.00000000000E+00 0. -1.
          1    1    5    5  503    0 -0.13204583943E+03  0.10977894636E+03 -0.83977751127E+03  0.85715447220E+03  0.00000000000E+00 0. -1.
         -2    1    5    5    0  503 -0.26085835861E+03  0.31161699689E+03 -0.15330475934E+04  0.15859972130E+04  0.00000000000E+00 0.  1.
         -1    1    6    6    0  502  0.44349736946E+02  0.28218014305E+03 -0.31142974595E+03  0.42258847471E+03  0.00000000000E+00 0.  1.
<mgrwt>
<rscale>  0 0.35897629E+04</rscale>
<asrwt>0</asrwt>
<pdfrwt beam="1">  1        1 0.12565803E+00 0.35897629E+04</pdfrwt>
<pdfrwt beam="2">  1       -1 0.60681260E+00 0.35897629E+04</pdfrwt>
<totfact> 0.71446940E-03</totfact>
</mgrwt>
</event>
<event>
12    1  0.1201209E-007  0.1879738E+04  0.7818608E-02  0.8665008E-01
         -1   -1    0    0    0  501 -0.00000000000E+00  0.00000000000E+00  0.41481178088E+03  0.41481178088E+03  0.00000000000E+00 0.  1.
          1   -1    0    0  501    0  0.00000000000E+00 -0.00000000000E+00 -0.21295292504E+04  0.21295292504E+04  0.00000000000E+00 0. -1.
         23    2    1    2    0    0 -0.60036002515E+03  0.24312262909E+03 -0.10816296863E+04  0.12639776936E+04  0.90421563707E+02 0.  0.
        254    2    1    2    0    0  0.60036002515E+03 -0.24312262909E+03 -0.63308778323E+03  0.12803633376E+04  0.90498031058E+03 0.  0.
        -24    2    4    4    0    0 -0.19579189746E+03 -0.12097260597E+02 -0.33360789625E+03  0.39532141985E+03  0.80647292118E+02 0.  0.
         24    2    4    4    0    0  0.79615192261E+03 -0.23102536850E+03 -0.29947988698E+03  0.88504191779E+03  0.79877335851E+02 0.  0.
         13    1    3    3    0    0 -0.44141311704E+03  0.20732757755E+03 -0.86378760264E+03  0.99194721976E+03  0.00000000000E+00 0.  1.
        -13    1    3    3    0    0 -0.15894690811E+03  0.35795051541E+02 -0.21784208364E+03  0.27203047387E+03  0.00000000000E+00 0. -1.
          2    1    6    6  502    0  0.74843170931E+03 -0.22162515924E+03 -0.26104220285E+03  0.82304967431E+03  0.00000000000E+00 0. -1.
          3    1    5    5  503    0 -0.11517487207E+03  0.19927452813E+02 -0.24428663656E+03  0.27081047863E+03  0.00000000000E+00 0. -1.
         -4    1    5    5    0  503 -0.80617025391E+02 -0.32024713410E+02 -0.89321259695E+02  0.12451094123E+03  0.00000000000E+00 0.  1.
         -1    1    6    6    0  502  0.47720213300E+02 -0.94002092528E+01 -0.38437684122E+02  0.61992243483E+02  0.00000000000E+00 0.  1.
<mgrwt>
<rscale>  0 0.18797381E+04</rscale>
<asrwt>0</asrwt>
<pdfrwt beam="1">  1        1 0.32761989E+00 0.18797381E+04</pdfrwt>
<pdfrwt beam="2">  1       -1 0.63817196E-01 0.18797381E+04</pdfrwt>
<totfact> 0.56797076E+00</totfact>
</mgrwt>
</event>
<event>
12    1  0.1201209E-007  0.1819843E+04  0.7818608E-02  0.8695818E-01
          1   -1    0    0  501    0  0.00000000000E+00  0.00000000000E+00  0.42341498594E+03  0.42341498594E+03  0.00000000000E+00 0. -1.
         -1   -1    0    0    0  501 -0.00000000000E+00 -0.00000000000E+00 -0.19554268195E+04  0.19554268195E+04  0.00000000000E+00 0.  1.
         23    2    1    2    0    0  0.53890530257E+03 -0.62583514592E+02 -0.11215068120E+04  0.12493570278E+04  0.93700758561E+02 0.  0.
        254    2    1    2    0    0 -0.53890530257E+03  0.62583514592E+02 -0.41050502155E+03  0.11294847776E+04  0.90160183491E+03 0.  0.
        -24    2    4    4    0    0 -0.64410758039E+03 -0.12099606552E+03 -0.55115026635E+03  0.86025375259E+03  0.82190508952E+02 0.  0.
         24    2    4    4    0    0  0.10520227783E+03  0.18357958011E+03  0.14064524480E+03  0.26923102502E+03  0.89080179930E+02 0.  0.
         11    1    3    3    0    0  0.34398646888E+02  0.19309088397E+02 -0.81172394287E+02  0.90250016048E+02  0.00000000000E+00 0. -1.
        -11    1    3    3    0    0  0.50450665568E+03 -0.81892602989E+02 -0.10403344177E+04  0.11591070118E+04  0.00000000000E+00 0.  1.
          2    1    6    6  502    0  0.34138938688E+01 -0.93561298674E+01  0.13384033468E+02  0.16683050960E+02  0.00000000000E+00 0. -1.
          1    1    5    5  503    0 -0.38402293292E+03 -0.11197175775E+03 -0.32225637747E+03  0.51367349587E+03  0.00000000000E+00 0. -1.
         -2    1    5    5    0  503 -0.26008464748E+03 -0.90243077727E+01 -0.22889388888E+03  0.34658025673E+03  0.00000000000E+00 0.  1.
         -1    1    6    6    0  502  0.10178838396E+03  0.19293570998E+03  0.12726121133E+03  0.25254797406E+03  0.00000000000E+00 0.  1.
<mgrwt>
<rscale>  0 0.18198429E+04</rscale>
<asrwt>0</asrwt>
<pdfrwt beam="1">  1        1 0.65140767E-01 0.18198429E+04</pdfrwt>
<pdfrwt beam="2">  1       -1 0.30083490E+00 0.18198429E+04</pdfrwt>
<totfact> 0.17100001E+00</totfact>
</mgrwt>
</event>
<event>
12    1  0.1201209E-007  0.2003146E+04  0.7818608E-02  0.8605151E-01
         -2   -1    0    0    0  501 -0.00000000000E+00  0.00000000000E+00  0.64115989803E+03  0.64115989803E+03  0.00000000000E+00 0. -1.
          2   -1    0    0  501    0  0.00000000000E+00 -0.00000000000E+00 -0.15645847025E+04  0.15645847025E+04  0.00000000000E+00 0.  1.
         23    2    1    2    0    0 -0.53263371205E+03 -0.46711815476E+03 -0.29912357050E+02  0.71490029652E+03  0.91047477437E+02 0.  0.
        254    2    1    2    0    0  0.53263371205E+03  0.46711815476E+03 -0.89351244744E+03  0.14908443040E+04  0.96039273393E+03 0.  0.
        -24    2    4    4    0    0  0.31267202930E+03  0.75033346540E+03 -0.52851855240E+03  0.97296655001E+03  0.81042828208E+02 0.  0.
         24    2    4    4    0    0  0.21996168275E+03 -0.28321531064E+03 -0.36499389504E+03  0.51787775401E+03  0.79892243862E+02 0.  0.
         11    1    3    3    0    0 -0.48839936841E+03 -0.39253622670E+03 -0.14062507119E+02  0.62675065731E+03  0.00000000000E+00 0. -1.
        -11    1    3    3    0    0 -0.44234343640E+02 -0.74581928059E+02 -0.15849849931E+02  0.88149639212E+02  0.00000000000E+00 0.  1.
          2    1    6    6  502    0  0.65861682537E+02 -0.13480032911E+03 -0.11635952845E+03  0.18986424049E+03  0.00000000000E+00 0. -1.
          3    1    5    5  503    0  0.21030249465E+02  0.11496971468E+03 -0.59888683525E+02  0.13132768596E+03  0.00000000000E+00 0. -1.
         -4    1    5    5    0  503  0.29164177983E+03  0.63536375072E+03 -0.46862986887E+03  0.84163886405E+03  0.00000000000E+00 0.  1.
         -1    1    6    6    0  502  0.15410000021E+03 -0.14841498153E+03 -0.24863436658E+03  0.32801351352E+03  0.00000000000E+00 0.  1.
<mgrwt>
<rscale>  0 0.20031465E+04</rscale>
<asrwt>0</asrwt>
<pdfrwt beam="1">  1        2 0.24070533E+00 0.20031465E+04</pdfrwt>
<pdfrwt beam="2">  1       -2 0.98639987E-01 0.20031465E+04</pdfrwt>
<totfact> 0.92518398E+00</totfact>
</mgrwt>
</event>
<event>
12    1  0.1201209E-007  0.1664806E+04  0.7818608E-02  0.8781695E-01
         -1   -1    0    0    0  501 -0.00000000000E+00  0.00000000000E+00  0.78054677844E+03  0.78054677844E+03  0.00000000000E+00 0.  1.
          1   -1    0    0  501    0  0.00000000000E+00 -0.00000000000E+00 -0.88770480073E+03  0.88770480073E+03  0.00000000000E+00 0. -1.
         23    2    1    2    0    0 -0.16738146138E+03 -0.82887913991E+02 -0.58903025009E+03  0.62405195858E+03  0.87162214250E+02 0.  0.
        254    2    1    2    0    0  0.16738146138E+03  0.82887913991E+02  0.48187222780E+03  0.10441996206E+04  0.90733954164E+03 0.  0.
        -24    2    4    4    0    0  0.49141387336E+03  0.72803328959E+02  0.61146622393E+02  0.50709695227E+03  0.81366393175E+02 0.  0.
         24    2    4    4    0    0 -0.32403241197E+03  0.10084585032E+02  0.42072560540E+03  0.53710266832E+03  0.79815652657E+02 0.  0.
         13    1    3    3    0    0 -0.29386245179E+01 -0.27442126342E+02 -0.13916277292E+03  0.14187312352E+03  0.00000000000E+00 0.  1.
        -13    1    3    3    0    0 -0.16444283686E+03 -0.55445787649E+02 -0.44986747717E+03  0.48217883506E+03  0.00000000000E+00 0. -1.
          2    1    6    6  502    0 -0.31725467533E+03  0.89914228334E+01  0.42389143694E+03  0.52954256204E+03  0.00000000000E+00 0. -1.
          1    1    5    5  503    0  0.45710887519E+03  0.45161263331E+02  0.56531928734E+02  0.46280008907E+03  0.00000000000E+00 0. -1.
         -2    1    5    5    0  503  0.34304998169E+02  0.27642065628E+02  0.46146936593E+01  0.44296863197E+02  0.00000000000E+00 0.  1.
         -3    1    6    6    0  502 -0.67777366447E+01  0.10931621986E+01 -0.31658315363E+01  0.75601062779E+01  0.00000000000E+00 0.  1.
<mgrwt>
<rscale>  0 0.16648064E+04</rscale>
<asrwt>0</asrwt>
<pdfrwt beam="1">  1        1 0.13656997E+00 0.16648064E+04</pdfrwt>
<pdfrwt beam="2">  1       -1 0.12008412E+00 0.16648064E+04</pdfrwt>
<totfact> 0.10989040E+01</totfact>
</mgrwt>
</event>
<event>
12    1  0.1201209E-007  0.2633565E+04  0.7818608E-02  0.8356889E-01
          2   -1    0    0  501    0  0.00000000000E+00  0.00000000000E+00  0.22316000398E+04  0.22316000398E+04  0.00000000000E+00 0. -1.
         -2   -1    0    0    0  501 -0.00000000000E+00 -0.00000000000E+00 -0.77698310516E+03  0.77698310516E+03  0.00000000000E+00 0.  1.
         23    2    1    2    0    0 -0.24120976031E+03  0.30834353538E+03 -0.60527926678E+03  0.72890477693E+03  0.10808005717E+03 0.  0.
        254    2    1    2    0    0  0.24120976031E+03 -0.30834353538E+03  0.20598962014E+04  0.22796783681E+04  0.89470845350E+03 0.  0.
        -24    2    4    4    0    0 -0.13295848643E+03  0.82360815400E+02  0.14497176132E+04  0.14604057083E+04  0.81500992550E+02 0.  0.
         24    2    4    4    0    0  0.37416824674E+03 -0.39070435078E+03  0.61017858823E+03  0.81927265974E+03  0.78981104535E+02 0.  0.
         13    1    3    3    0    0 -0.63133155548E+02  0.26022201105E+02 -0.67911606771E+02  0.96306472337E+02  0.00000000000E+00 0. -1.
        -13    1    3    3    0    0 -0.17807660477E+03  0.28232133427E+03 -0.53736766001E+03  0.63259830459E+03  0.00000000000E+00 0.  1.
          2    1    6    6  502    0  0.81296398523E+02 -0.42596933515E+02  0.10084834892E+03  0.13635979113E+03  0.00000000000E+00 0. -1.
          1    1    5    5  503    0 -0.14080188031E+03  0.73117339546E+02  0.12065916245E+04  0.12169776757E+04  0.00000000000E+00 0. -1.
         -2    1    5    5    0  503  0.78433938824E+01  0.92434758542E+01  0.24312598875E+03  0.24342803265E+03  0.00000000000E+00 0.  1.
         -1    1    6    6    0  502  0.29287184822E+03 -0.34810741726E+03  0.50933023930E+03  0.68291286860E+03  0.00000000000E+00 0.  1.
<mgrwt>
<rscale>  0 0.26335645E+04</rscale>
<asrwt>0</asrwt>
<pdfrwt beam="1">  1        2 0.34332308E+00 0.26335645E+04</pdfrwt>
<pdfrwt beam="2">  1       -2 0.11953586E+00 0.26335645E+04</pdfrwt>
<totfact> 0.23437932E+00</totfact>
</mgrwt>
</event>
<event>
12    1  0.1201209E-007  0.1468379E+04  0.7818608E-02  0.8905757E-01
         -1   -1    0    0    0  501 -0.00000000000E+00  0.00000000000E+00  0.19141801054E+03  0.19141801054E+03  0.00000000000E+00 0.  1.
          1   -1    0    0  501    0  0.00000000000E+00 -0.00000000000E+00 -0.28160048601E+04  0.28160048601E+04  0.00000000000E+00 0. -1.
         23    2    1    2    0    0  0.29166359506E+03 -0.22756158689E+03 -0.27789647364E+03  0.47216175323E+03  0.94118768801E+02 0.  0.
        254    2    1    2    0    0 -0.29166359506E+03  0.22756158689E+03 -0.23466903759E+04  0.25352611174E+04  0.88529163812E+03 0.  0.
        -24    2    4    4    0    0 -0.34983393881E+03  0.25958577049E+03 -0.43563045655E+03  0.62129394346E+03  0.80397217137E+02 0.  0.
         24    2    4    4    0    0  0.58170343747E+02 -0.32024183602E+02 -0.19110599194E+04  0.19139671740E+04  0.81920634283E+02 0.  0.
         13    1    3    3    0    0  0.14995705480E+03 -0.85021847141E+02 -0.17771466413E+03  0.24758500484E+03  0.00000000000E+00 0.  1.
        -13    1    3    3    0    0  0.14170654026E+03 -0.14253973975E+03 -0.10018180951E+03  0.22457674839E+03  0.00000000000E+00 0. -1.
          4    1    6    6  502    0  0.11625600261E+02 -0.10619919156E+02 -0.55242236197E+02  0.57442509733E+02  0.00000000000E+00 0. -1.
          1    1    5    5  503    0 -0.16393465275E+03  0.72689709864E+02 -0.17195923542E+03  0.24845189261E+03  0.00000000000E+00 0. -1.
         -2    1    5    5    0  503 -0.18589928606E+03  0.18689606063E+03 -0.26367122113E+03  0.37284205086E+03  0.00000000000E+00 0.  1.
         -3    1    6    6    0  502  0.46544743486E+02 -0.21404264445E+02 -0.18558176832E+04  0.18565246642E+04  0.00000000000E+00 0.  1.
<mgrwt>
<rscale>  0 0.14683788E+04</rscale>
<asrwt>0</asrwt>
<pdfrwt beam="1">  1        1 0.43323148E+00 0.14683788E+04</pdfrwt>
<pdfrwt beam="2">  1       -1 0.29448927E-01 0.14683788E+04</pdfrwt>
<totfact> 0.83412280E+00</totfact>
</mgrwt>
</event>
<event>
12    1  0.1201209E-007  0.1221554E+04  0.7818608E-02  0.9094197E-01
          1   -1    0    0  501    0  0.00000000000E+00  0.00000000000E+00  0.12595468451E+04  0.12595468451E+04  0.00000000000E+00 0. -1.
         -1   -1    0    0    0  501 -0.00000000000E+00 -0.00000000000E+00 -0.29617687839E+03  0.29617687839E+03  0.00000000000E+00 0.  1.
         23    2    1    2    0    0 -0.22847098744E+03  0.12635049952E+03  0.25105115774E+03  0.37323888448E+03  0.90095173274E+02 0.  0.
        254    2    1    2    0    0  0.22847098744E+03 -0.12635049952E+03  0.71231880897E+03  0.11824848390E+04  0.90703300275E+03 0.  0.
        -24    2    4    4    0    0 -0.38384348806E+02  0.29626275322E+03  0.22380706482E+01  0.31056271720E+03  0.84848188987E+02 0.  0.
         24    2    4    4    0    0  0.26685533625E+03 -0.42261325275E+03  0.71008073833E+03  0.87192212183E+03  0.78865706792E+02 0.  0.
         13    1    3    3    0    0 -0.12080836661E+03  0.30616700374E+02  0.73864945703E+02  0.14487261297E+03  0.00000000000E+00 0. -1.
        -13    1    3    3    0    0 -0.10766262083E+03  0.95733799149E+02  0.17718621204E+03  0.22836627150E+03  0.00000000000E+00 0.  1.
          4    1    6    6  502    0  0.24929623004E+03 -0.41642721075E+03  0.66612217743E+03  0.82418383109E+03  0.00000000000E+00 0. -1.
          3    1    5    5  503    0 -0.10690876257E+02  0.24242726416E+03 -0.25444265052E+02  0.24399320455E+03  0.00000000000E+00 0. -1.
         -4    1    5    5    0  503 -0.27693472550E+02  0.53835489063E+02  0.27682335701E+02  0.66569512649E+02  0.00000000000E+00 0.  1.
         -3    1    6    6    0  502  0.17559106205E+02 -0.61860419942E+01  0.43958560894E+02  0.47738290733E+02  0.00000000000E+00 0.  1.
<mgrwt>
<rscale>  0 0.12215542E+04</rscale>
<asrwt>0</asrwt>
<pdfrwt beam="1">  1        1 0.19377643E+00 0.12215542E+04</pdfrwt>
<pdfrwt beam="2">  1       -1 0.45565674E-01 0.12215542E+04</pdfrwt>
<totfact> 0.45710112E+01</totfact>
</mgrwt>
</event>
<event>
12    1  0.1201209E-007  0.1454190E+04  0.7818608E-02  0.8915500E-01
         -4   -1    0    0    0  501 -0.00000000000E+00  0.00000000000E+00  0.20768193844E+03  0.20768193844E+03  0.00000000000E+00 0.  1.
          4   -1    0    0  501    0  0.00000000000E+00 -0.00000000000E+00 -0.25455630694E+04  0.25455630694E+04  0.00000000000E+00 0. -1.
         23    2    1    2    0    0 -0.13899318091E+03 -0.70690828784E+02 -0.12955631376E+04  0.13080735831E+04  0.90864501560E+02 0.  0.
        254    2    1    2    0    0  0.13899318091E+03  0.70690828784E+02 -0.10423179933E+04  0.14451714247E+04  0.98882624862E+03 0.  0.
        -24    2    4    4    0    0  0.28902222465E+03  0.20018000728E+03  0.20548592497E+02  0.36109173710E+03  0.79744067444E+02 0.  0.
         24    2    4    4    0    0 -0.15002904375E+03 -0.12948917849E+03 -0.10628665858E+04  0.10840796876E+04  0.79165829267E+02 0.  0.
         13    1    3    3    0    0 -0.63067272846E+01  0.99619294859E+01 -0.20971685865E+02  0.24058812442E+02  0.00000000000E+00 0.  1.
        -13    1    3    3    0    0 -0.13268645362E+03 -0.80652758270E+02 -0.12745914518E+04  0.12840147707E+04  0.00000000000E+00 0. -1.
          4    1    6    6  502    0 -0.13783732976E+03 -0.13268314150E+03 -0.10440321791E+04  0.10614175128E+04  0.00000000000E+00 0. -1.
          3    1    5    5  503    0  0.24443972059E+03  0.18769813864E+03  0.40191587022E+02  0.31080014787E+03  0.00000000000E+00 0. -1.
         -4    1    5    5    0  503  0.44582504069E+02  0.12481868640E+02 -0.19642994525E+02  0.50291589234E+02  0.00000000000E+00 0.  1.
         -3    1    6    6    0  502 -0.12191713989E+02  0.31939630085E+01 -0.18834406674E+02  0.22662174751E+02  0.00000000000E+00 0.  1.
<mgrwt>
<rscale>  0 0.14541905E+04</rscale>
<asrwt>0</asrwt>
<pdfrwt beam="1">  1        4 0.39162508E+00 0.14541905E+04</pdfrwt>
<pdfrwt beam="2">  1       -4 0.31951068E-01 0.14541905E+04</pdfrwt>
<totfact> 0.14629430E-01</totfact>
</mgrwt>
</event>
<event>
12    1  0.1201209E-007  0.1316850E+04  0.7818608E-02  0.9016309E-01
          1   -1    0    0  501    0  0.00000000000E+00  0.00000000000E+00  0.10540782864E+04  0.10540782864E+04  0.00000000000E+00 0. -1.
         -1   -1    0    0    0  501 -0.00000000000E+00 -0.00000000000E+00 -0.41128178641E+03  0.41128178641E+03  0.00000000000E+00 0.  1.
         23    2    1    2    0    0 -0.32193957001E+03 -0.48056704778E+02  0.23905062875E+03  0.41317247913E+03  0.87245405574E+02 0.  0.
        254    2    1    2    0    0  0.32193957001E+03  0.48056704778E+02  0.40374587124E+03  0.10521875937E+04  0.91549629717E+03 0.  0.
        -24    2    4    4    0    0  0.53401255592E+03  0.29736632834E+03  0.16131025723E+03  0.63713873103E+03  0.79552626471E+02 0.  0.
         24    2    4    4    0    0 -0.21207298591E+03 -0.24930962357E+03  0.24243561401E+03  0.41504886265E+03  0.79751436932E+02 0.  0.
         13    1    3    3    0    0 -0.78586782982E+02  0.24805352977E+02  0.69010327200E+02  0.10748773537E+03  0.00000000000E+00 0.  1.
        -13    1    3    3    0    0 -0.24335278703E+03 -0.72862057755E+02  0.17004030155E+03  0.30568474376E+03  0.00000000000E+00 0. -1.
          4    1    6    6  502    0 -0.21157747300E+03 -0.21664311030E+03  0.22928985086E+03  0.37983298966E+03  0.00000000000E+00 0. -1.
          1    1    5    5  503    0  0.50592071408E+03  0.26184315150E+03  0.13772373815E+03  0.58607630302E+03  0.00000000000E+00 0. -1.
         -2    1    5    5    0  503  0.28091841843E+02  0.35523176848E+02  0.23586519080E+02  0.51062428005E+02  0.00000000000E+00 0.  1.
         -3    1    6    6    0  502 -0.49551290529E+00 -0.32666513267E+02  0.13145763148E+02  0.35215872995E+02  0.00000000000E+00 0.  1.
<mgrwt>
<rscale>  0 0.13168496E+04</rscale>
<asrwt>0</asrwt>
<pdfrwt beam="1">  1        1 0.16216589E+00 0.13168496E+04</pdfrwt>
<pdfrwt beam="2">  1       -1 0.63274121E-01 0.13168496E+04</pdfrwt>
<totfact> 0.34157669E+01</totfact>
</mgrwt>
</event>
<event>
12    1  0.1201209E-007  0.1587000E+04  0.7818608E-02  0.8828574E-01
          2   -1    0    0  501    0  0.00000000000E+00  0.00000000000E+00  0.19517820397E+04  0.19517820397E+04  0.00000000000E+00 0. -1.
         -2   -1    0    0    0  501 -0.00000000000E+00 -0.00000000000E+00 -0.32259863969E+03  0.32259863969E+03  0.00000000000E+00 0.  1.
         23    2    1    2    0    0  0.15691955482E+03 -0.50602896714E+03  0.70176255208E+03  0.88363047902E+03  0.87424720061E+02 0.  0.
        254    2    1    2    0    0 -0.15691955482E+03  0.50602896714E+03  0.92742084795E+03  0.13907502004E+04  0.89072309300E+03 0.  0.
        -24    2    4    4    0    0  0.26091033394E+03 -0.60122794453E+01  0.57737012758E+03  0.63856417431E+03  0.79357360332E+02 0.  0.
         24    2    4    4    0    0 -0.41782988876E+03  0.51204124658E+03  0.35005072038E+03  0.75218602608E+03  0.80500042550E+02 0.  0.
         13    1    3    3    0    0  0.11869314495E+03 -0.34939477470E+03  0.54924573107E+03  0.66169150240E+03  0.00000000000E+00 0.  1.
        -13    1    3    3    0    0  0.38226409872E+02 -0.15663419243E+03  0.15251682101E+03  0.22193897662E+03  0.00000000000E+00 0. -1.
          4    1    6    6  502    0 -0.70811837005E+02  0.48079149130E+02  0.57702177950E+02  0.10322529816E+03  0.00000000000E+00 0. -1.
          1    1    5    5  503    0  0.92877984099E+01  0.17414446938E+02  0.50603577484E+02  0.54316187419E+02  0.00000000000E+00 0. -1.
         -2    1    5    5    0  503  0.25162253553E+03 -0.23426726383E+02  0.52676655009E+03  0.58424798689E+03  0.00000000000E+00 0.  1.
         -3    1    6    6    0  502 -0.34701805175E+03  0.46396209745E+03  0.29234854243E+03  0.64896072791E+03  0.00000000000E+00 0.  1.
<mgrwt>
<rscale>  0 0.15870000E+04</rscale>
<asrwt>0</asrwt>
<pdfrwt beam="1">  1        2 0.30027415E+00 0.15870000E+04</pdfrwt>
<pdfrwt beam="2">  1       -2 0.49630561E-01 0.15870000E+04</pdfrwt>
<totfact> 0.26212725E+01</totfact>
</mgrwt>
</event>
<event>
12    1  0.1201209E-007  0.1713628E+04  0.7818608E-02  0.8753630E-01
         -1   -1    0    0    0  501 -0.00000000000E+00  0.00000000000E+00  0.60325104908E+03  0.60325104908E+03  0.00000000000E+00 0.  1.
          1   -1    0    0  501    0  0.00000000000E+00 -0.00000000000E+00 -0.12169557844E+04  0.12169557844E+04  0.00000000000E+00 0. -1.
         23    2    1    2    0    0  0.26927555649E+03  0.41393212066E+03 -0.60489352569E+03  0.78540599205E+03  0.84363908635E+02 0.  0.
        254    2    1    2    0    0 -0.26927555649E+03 -0.41393212066E+03 -0.88112096288E+01  0.10348008414E+04  0.90933273239E+03 0.  0.
        -24    2    4    4    0    0 -0.22265691211E+03 -0.27404934401E+03  0.43177578054E+03  0.56348420370E+03  0.80031117075E+02 0.  0.
         24    2    4    4    0    0 -0.46618644381E+02 -0.13988277665E+03 -0.44058699017E+03  0.47131663774E+03  0.79258992541E+02 0.  0.
         11    1    3    3    0    0  0.32639894978E+02  0.13337875708E+02 -0.51509161182E+02  0.62421593686E+02  0.00000000000E+00 0.  1.
        -11    1    3    3    0    0  0.23663566151E+03  0.40059424495E+03 -0.55338436451E+03  0.72298439836E+03  0.00000000000E+00 0. -1.
          2    1    6    6  502    0 -0.95126178120E+01 -0.11237249318E+03 -0.37126135634E+03  0.38801167744E+03  0.00000000000E+00 0. -1.
          1    1    5    5  503    0 -0.22745878264E+03 -0.25304045048E+03  0.40072548678E+03  0.52568800931E+03  0.00000000000E+00 0. -1.
         -2    1    5    5    0  503  0.48018705304E+01 -0.21008893529E+02  0.31050293756E+02  0.37796194389E+02  0.00000000000E+00 0.  1.
         -1    1    6    6    0  502 -0.37106026569E+02 -0.27510283474E+02 -0.69325633824E+02  0.83304960295E+02  0.00000000000E+00 0.  1.
<mgrwt>
<rscale>  0 0.17136276E+04</rscale>
<asrwt>0</asrwt>
<pdfrwt beam="1">  1        1 0.18722396E+00 0.17136276E+04</pdfrwt>
<pdfrwt beam="2">  1       -1 0.92807855E-01 0.17136276E+04</pdfrwt>
<totfact> 0.11138543E+01</totfact>
</mgrwt>
</event>
<event>
12    1  0.1201209E-007  0.2351573E+04  0.7818608E-02  0.8457860E-01
         -2   -1    0    0    0  501 -0.00000000000E+00  0.00000000000E+00  0.10597783844E+04  0.10597783844E+04  0.00000000000E+00 0.  1.
          2   -1    0    0  501    0  0.00000000000E+00 -0.00000000000E+00 -0.13044931806E+04  0.13044931806E+04  0.00000000000E+00 0. -1.
         23    2    1    2    0    0  0.49674853528E+03 -0.84399539586E+03 -0.30023759971E+03  0.10280882118E+04  0.87951233082E+02 0.  0.
        254    2    1    2    0    0 -0.49674853528E+03  0.84399539586E+03  0.55522803544E+02  0.13361833532E+04  0.90731242477E+03 0.  0.
        -24    2    4    4    0    0 -0.27200993050E+03  0.54610787906E+03  0.46888815848E+03  0.77349744868E+03  0.78860510274E+02 0.  0.
         24    2    4    4    0    0 -0.22473860479E+03  0.29788751680E+03 -0.41336535494E+03  0.56268590453E+03  0.80623181201E+02 0.  0.
         11    1    3    3    0    0  0.33748038344E+03 -0.53058364928E+03 -0.15450564732E+03  0.64752143837E+03  0.00000000000E+00 0. -1.
        -11    1    3    3    0    0  0.15926815185E+03 -0.31341174658E+03 -0.14573195239E+03  0.38056677342E+03  0.00000000000E+00 0.  1.
          2    1    6    6  502    0 -0.17327021336E+03  0.27509419718E+03 -0.36076715442E+03  0.48564629502E+03  0.00000000000E+00 0. -1.
          1    1    5    5  503    0 -0.25245630906E+03  0.44006968346E+03  0.38828458174E+03  0.63887434656E+03  0.00000000000E+00 0. -1.
         -2    1    5    5    0  503 -0.19553621439E+02  0.10603819560E+03  0.80603576744E+02  0.13462310211E+03  0.00000000000E+00 0.  1.
         -1    1    6    6    0  502 -0.51468391430E+02  0.22793319621E+02 -0.52598200517E+02  0.77039609510E+02  0.00000000000E+00 0.  1.
<mgrwt>
<rscale>  0 0.23515728E+04</rscale>
<asrwt>0</asrwt>
<pdfrwt beam="1">  1        2 0.20069126E+00 0.23515728E+04</pdfrwt>
<pdfrwt beam="2">  1       -2 0.16304283E+00 0.23515728E+04</pdfrwt>
<totfact> 0.35494630E+00</totfact>
</mgrwt>
</event>
<event>
12    1  0.1201209E-007  0.1318350E+04  0.7818608E-02  0.9015139E-01
         -2   -1    0    0    0  501 -0.00000000000E+00  0.00000000000E+00  0.29375128647E+03  0.29375128647E+03  0.00000000000E+00 0.  1.
          2   -1    0    0  501    0  0.00000000000E+00 -0.00000000000E+00 -0.14791823578E+04  0.14791823578E+04  0.00000000000E+00 0. -1.
         23    2    1    2    0    0 -0.18248581169E+03 -0.14685706690E+03 -0.66141704998E+03  0.70764255998E+03  0.91746439281E+02 0.  0.
        254    2    1    2    0    0  0.18248581169E+03  0.14685706690E+03 -0.52401402139E+03  0.10652910843E+04  0.89743318980E+03 0.  0.
        -24    2    4    4    0    0  0.73114293589E+02  0.40487655129E+03  0.49593419642E+02  0.42187013140E+03  0.79020116305E+02 0.  0.
         24    2    4    4    0    0  0.10937151810E+03 -0.25801948439E+03 -0.57360744103E+03  0.64342095293E+03  0.80180065881E+02 0.  0.
         11    1    3    3    0    0 -0.28469301970E+02 -0.99398379545E+01 -0.20049484113E+03  0.20274980358E+03  0.00000000000E+00 0. -1.
        -11    1    3    3    0    0 -0.15401650972E+03 -0.13691722895E+03 -0.46092220885E+03  0.50489275640E+03  0.00000000000E+00 0.  1.
          4    1    6    6  502    0  0.11491191875E+02  0.19348876965E+01 -0.42407159403E+02  0.43979068313E+02  0.00000000000E+00 0. -1.
          1    1    5    5  503    0 -0.14015306954E+02  0.29254160817E+02 -0.35420035187E+01  0.32630975208E+02  0.00000000000E+00 0. -1.
         -2    1    5    5    0  503  0.87129600543E+02  0.37562239047E+03  0.53135423160E+02  0.38923915619E+03  0.00000000000E+00 0.  1.
         -3    1    6    6    0  502  0.97880326230E+02 -0.25995437209E+03 -0.53120028163E+03  0.59944188461E+03  0.00000000000E+00 0.  1.
<mgrwt>
<rscale>  0 0.13183501E+04</rscale>
<asrwt>0</asrwt>
<pdfrwt beam="1">  1        2 0.22756652E+00 0.13183501E+04</pdfrwt>
<pdfrwt beam="2">  1       -2 0.45192505E-01 0.13183501E+04</pdfrwt>
<totfact> 0.59266107E+01</totfact>
</mgrwt>
</event>
<event>
12    1  0.1201209E-007  0.4381542E+04  0.7818608E-02  0.7931710E-01
         -2   -1    0    0    0  501 -0.00000000000E+00  0.00000000000E+00  0.22987477768E+04  0.22987477768E+04  0.00000000000E+00 0.  1.
          2   -1    0    0  501    0  0.00000000000E+00 -0.00000000000E+00 -0.20878658649E+04  0.20878658649E+04  0.00000000000E+00 0. -1.
         23    2    1    2    0    0 -0.11748940609E+04 -0.16493576276E+04  0.65578171773E+03  0.21304951953E+04  0.90573052801E+02 0.  0.
        254    2    1    2    0    0  0.11748940609E+04  0.16493576276E+04 -0.44489980582E+03  0.22561184463E+04  0.88959427189E+03 0.  0.
        -24    2    4    4    0    0  0.74775338958E+03  0.11604432163E+04  0.12591275522E+03  0.13884957939E+04  0.79391170696E+02 0.  0.
         24    2    4    4    0    0  0.42714067128E+03  0.48891441137E+03 -0.57081256104E+03  0.86762265242E+03  0.73862253167E+02 0.  0.
         13    1    3    3    0    0 -0.89848716190E+03 -0.12044924625E+04  0.50932924890E+03  0.15866623951E+04  0.00000000000E+00 0. -1.
        -13    1    3    3    0    0 -0.27640689897E+03 -0.44486516513E+03  0.14645246884E+03  0.54383280020E+03  0.00000000000E+00 0.  1.
          4    1    6    6  502    0  0.23108032415E+03  0.27127657423E+03 -0.36138344033E+03  0.50753038025E+03  0.00000000000E+00 0. -1.
          1    1    5    5  503    0  0.73027930497E+03  0.11057765212E+04  0.11568722973E+03  0.13302004034E+04  0.00000000000E+00 0. -1.
         -2    1    5    5    0  503  0.17474084613E+02  0.54666695099E+02  0.10225525489E+02  0.58295390535E+02  0.00000000000E+00 0.  1.
         -3    1    6    6    0  502  0.19606034714E+03  0.21763783714E+03 -0.20942912071E+03  0.36009227217E+03  0.00000000000E+00 0.  1.
<mgrwt>
<rscale>  0 0.43815417E+04</rscale>
<asrwt>0</asrwt>
<pdfrwt beam="1">  1        2 0.32121013E+00 0.43815417E+04</pdfrwt>
<pdfrwt beam="2">  1       -2 0.35365351E+00 0.43815417E+04</pdfrwt>
<totfact> 0.67353177E-02</totfact>
</mgrwt>
</event>
<event>
12    1  0.1201209E-007  0.1288981E+04  0.7818608E-02  0.9038349E-01
         -1   -1    0    0    0  501 -0.00000000000E+00  0.00000000000E+00  0.86588836914E+03  0.86588836914E+03  0.00000000000E+00 0. -1.
          1   -1    0    0  501    0  0.00000000000E+00 -0.00000000000E+00 -0.47970181580E+03  0.47970181580E+03  0.00000000000E+00 0.  1.
         23    2    1    2    0    0 -0.59351299845E+02  0.17824014754E+02  0.43316745885E+03  0.44679099559E+03  0.90265575026E+02 0.  0.
        254    2    1    2    0    0  0.59351299845E+02 -0.17824014754E+02 -0.46980905508E+02  0.89879918935E+03  0.89542867108E+03 0.  0.
        -24    2    4    4    0    0  0.17504750124E+03  0.27048170665E+03  0.28463159699E+03  0.43727947037E+03  0.79976295759E+02 0.  0.
         24    2    4    4    0    0 -0.11569620140E+03 -0.28830572140E+03 -0.33161250250E+03  0.46151971897E+03  0.80794796716E+02 0.  0.
         11    1    3    3    0    0 -0.64883053160E+02  0.41456119092E+01  0.42496516648E+03  0.42990974566E+03  0.00000000000E+00 0. -1.
        -11    1    3    3    0    0  0.55317533151E+01  0.13678402845E+02  0.82022923665E+01  0.16881249930E+02  0.00000000000E+00 0.  1.
          4    1    6    6  502    0 -0.76055592492E+02 -0.26262802270E+03 -0.29004314799E+03  0.39860125333E+03  0.00000000000E+00 0. -1.
          3    1    5    5  503    0  0.57466795286E+02  0.15231272493E+03  0.11404748688E+03  0.19876727094E+03  0.00000000000E+00 0. -1.
         -4    1    5    5    0  503  0.11758070596E+03  0.11816898172E+03  0.17058411012E+03  0.23851219943E+03  0.00000000000E+00 0.  1.
         -3    1    6    6    0  502 -0.39640608905E+02 -0.25677698696E+02 -0.41569354510E+02  0.62918465645E+02  0.00000000000E+00 0.  1.
<mgrwt>
<rscale>  0 0.12889813E+04</rscale>
<asrwt>0</asrwt>
<pdfrwt beam="1">  1        1 0.73800279E-01 0.12889813E+04</pdfrwt>
<pdfrwt beam="2">  1       -1 0.13321360E+00 0.12889813E+04</pdfrwt>
<totfact> 0.21999285E+01</totfact>
</mgrwt>
</event>
<event>
12    1  0.1201209E-007  0.3096394E+04  0.7818608E-02  0.8216728E-01
         -2   -1    0    0    0  501 -0.00000000000E+00  0.00000000000E+00  0.11851277700E+04  0.11851277700E+04  0.00000000000E+00 0.  1.
          2   -1    0    0  501    0  0.00000000000E+00 -0.00000000000E+00 -0.20224935931E+04  0.20224935931E+04  0.00000000000E+00 0. -1.
         23    2    1    2    0    0 -0.10696497773E+04 -0.78816357455E+03 -0.90322556796E+03  0.16092154339E+04  0.91681076605E+02 0.  0.
        254    2    1    2    0    0  0.10696497773E+04  0.78816357455E+03  0.65859744896E+02  0.15984059291E+04  0.88612162927E+03 0.  0.
        -24    2    4    4    0    0  0.37327730957E+03  0.44132704671E+03 -0.38203807290E+03  0.69737710396E+03  0.79222622949E+02 0.  0.
         24    2    4    4    0    0  0.69637246777E+03  0.34683652784E+03  0.44789781779E+03  0.90102882517E+03  0.77526109701E+02 0.  0.
         11    1    3    3    0    0 -0.67192000108E+03 -0.45174268208E+03 -0.51559659743E+03  0.95988946757E+03  0.00000000000E+00 0. -1.
        -11    1    3    3    0    0 -0.39772977626E+03 -0.33642089247E+03 -0.38762897053E+03  0.64932596637E+03  0.00000000000E+00 0.  1.
          4    1    6    6  502    0  0.46729124857E+03  0.21059738030E+03  0.32989267321E+03  0.60954207683E+03  0.00000000000E+00 0. -1.
          3    1    5    5  503    0  0.31014862064E+03  0.37369547743E+03 -0.35312561049E+03  0.60044831045E+03  0.00000000000E+00 0. -1.
         -2    1    5    5    0  503  0.63128688920E+02  0.67631569281E+02 -0.28912462406E+02  0.96928793507E+02  0.00000000000E+00 0.  1.
         -3    1    6    6    0  502  0.22908121920E+03  0.13623914753E+03  0.11800514458E+03  0.29148674834E+03  0.00000000000E+00 0.  1.
<mgrwt>
<rscale>  0 0.30963936E+04</rscale>
<asrwt>0</asrwt>
<pdfrwt beam="1">  1        2 0.31115286E+00 0.30963936E+04</pdfrwt>
<pdfrwt beam="2">  1       -2 0.18232735E+00 0.30963936E+04</pdfrwt>
<totfact> 0.96346089E-01</totfact>
</mgrwt>
</event>
<event>
12    1  0.1201209E-007  0.1848923E+04  0.7818608E-02  0.8680707E-01
          2   -1    0    0  501    0  0.00000000000E+00  0.00000000000E+00  0.18333282074E+04  0.18333282074E+04  0.00000000000E+00 0. -1.
         -2   -1    0    0    0  501 -0.00000000000E+00 -0.00000000000E+00 -0.46616265672E+03  0.46616265672E+03  0.00000000000E+00 0.  1.
         23    2    1    2    0    0  0.60539099238E+03 -0.78581966890E+02  0.95546833722E+03  0.11375443579E+04  0.91728095683E+02 0.  0.
        254    2    1    2    0    0 -0.60539099238E+03  0.78581966890E+02  0.41169721344E+03  0.11619465062E+04  0.89886134001E+03 0.  0.
        -24    2    4    4    0    0  0.83226339078E+02 -0.15745430360E+03  0.38179558645E+03  0.42906848942E+03  0.81322921357E+02 0.  0.
         24    2    4    4    0    0 -0.68861733146E+03  0.23603627049E+03  0.29901626987E+02  0.73287801679E+03  0.79430032321E+02 0.  0.
         13    1    3    3    0    0  0.51438322268E+02  0.18405601033E+02  0.95275438186E+02  0.10982748412E+03  0.00000000000E+00 0.  1.
        -13    1    3    3    0    0  0.55395267011E+03 -0.96987567923E+02  0.86019289903E+03  0.10277168738E+04  0.00000000000E+00 0. -1.
          4    1    6    6  502    0 -0.67866540267E+03  0.22777892564E+03  0.19257217804E+02  0.71612904437E+03  0.00000000000E+00 0. -1.
          3    1    5    5  503    0  0.48154383585E+02 -0.70651325847E+02  0.27018949009E+03  0.28339515708E+03  0.00000000000E+00 0. -1.
         -4    1    5    5    0  503  0.35071955494E+02 -0.86802977749E+02  0.11160609636E+03  0.14567333234E+03  0.00000000000E+00 0.  1.
         -3    1    6    6    0  502 -0.99519287875E+01  0.82573448513E+01  0.10644409183E+02  0.16748972429E+02  0.00000000000E+00 0.  1.
<mgrwt>
<rscale>  0 0.18489231E+04</rscale>
<asrwt>0</asrwt>
<pdfrwt beam="1">  1        2 0.28205049E+00 0.18489231E+04</pdfrwt>
<pdfrwt beam="2">  1       -2 0.71717333E-01 0.18489231E+04</pdfrwt>
<totfact> 0.13705432E+01</totfact>
</mgrwt>
</event>
<event>
12    1  0.1201209E-007  0.1489893E+04  0.7818608E-02  0.8891202E-01
         -2   -1    0    0    0  501 -0.00000000000E+00  0.00000000000E+00  0.15560773322E+03  0.15560773322E+03  0.00000000000E+00 0.  1.
          2   -1    0    0  501    0  0.00000000000E+00 -0.00000000000E+00 -0.35663089127E+04  0.35663089127E+04  0.00000000000E+00 0. -1.
         23    2    1    2    0    0  0.22544621811E+03  0.18835875897E+03 -0.20032002766E+04  0.20267892587E+04  0.93585960226E+02 0.  0.
        254    2    1    2    0    0 -0.22544621811E+03 -0.18835875897E+03 -0.14075009029E+04  0.16951273871E+04  0.89782684730E+03 0.  0.
        -24    2    4    4    0    0 -0.44770887014E+03 -0.31945143039E+03 -0.12821506822E+04  0.13974636923E+04  0.80634674329E+02 0.  0.
         24    2    4    4    0    0  0.22226265203E+03  0.13109267142E+03 -0.12535022065E+03  0.29766369481E+03  0.79404171186E+02 0.  0.
         13    1    3    3    0    0  0.22012215649E+03  0.14759024136E+03 -0.18066407045E+04  0.18259757058E+04  0.00000000000E+00 0. -1.
        -13    1    3    3    0    0  0.53240616193E+01  0.40768517610E+02 -0.19655957210E+03  0.20081355294E+03  0.00000000000E+00 0.  1.
          4    1    6    6  502    0  0.44200798617E+02  0.53991553465E+02 -0.64036687717E+01  0.70070003694E+02  0.00000000000E+00 0. -1.
          3    1    5    5  503    0 -0.16819193689E+03 -0.74037132003E+02 -0.40925075028E+03  0.44861587260E+03  0.00000000000E+00 0. -1.
         -4    1    5    5    0  503 -0.27951693325E+03 -0.24541429839E+03 -0.87289993193E+03  0.94884781972E+03  0.00000000000E+00 0.  1.
         -3    1    6    6    0  502  0.17806185341E+03  0.77101117956E+02 -0.11894655188E+03  0.22759369111E+03  0.00000000000E+00 0.  1.
<mgrwt>
<rscale>  0 0.14898929E+04</rscale>
<asrwt>0</asrwt>
<pdfrwt beam="1">  1        2 0.54866293E+00 0.14898929E+04</pdfrwt>
<pdfrwt beam="2">  1       -2 0.23939651E-01 0.14898929E+04</pdfrwt>
<totfact> 0.11122335E+01</totfact>
</mgrwt>
</event>
<event>
12    1  0.1201209E-007  0.2225546E+04  0.7818608E-02  0.8507870E-01
          2   -1    0    0  501    0  0.00000000000E+00  0.00000000000E+00  0.28049203306E+04  0.28049203306E+04  0.00000000000E+00 0. -1.
         -2   -1    0    0    0  501 -0.00000000000E+00 -0.00000000000E+00 -0.44146113878E+03  0.44146113878E+03  0.00000000000E+00 0.  1.
         23    2    1    2    0    0 -0.73975347990E+02 -0.91276243432E+03  0.12034880022E+04  0.15150229371E+04  0.91123624118E+02 0.  0.
        254    2    1    2    0    0  0.73975347990E+02  0.91276243432E+03  0.11599711896E+04  0.17313585323E+04  0.90192105691E+03 0.  0.
        -24    2    4    4    0    0 -0.30586675345E+03  0.33065865032E+03  0.85205175171E+03  0.96689631681E+03  0.77502812697E+02 0.  0.
         24    2    4    4    0    0  0.37984210144E+03  0.58210378400E+03  0.30791943789E+03  0.76446221545E+03  0.80394410513E+02 0.  0.
         13    1    3    3    0    0 -0.91900245607E+02 -0.81046223274E+03  0.10472340368E+04  0.13274011503E+04  0.00000000000E+00 0. -1.
        -13    1    3    3    0    0  0.17924897617E+02 -0.10230020159E+03  0.15625396541E+03  0.18762178686E+03  0.00000000000E+00 0.  1.
          4    1    6    6  502    0  0.36685797492E+03  0.57475317805E+03  0.31066354512E+03  0.74929155054E+03  0.00000000000E+00 0. -1.
          1    1    5    5  503    0 -0.19921696869E+03  0.23529945356E+03  0.50729678407E+03  0.59363562948E+03  0.00000000000E+00 0. -1.
         -2    1    5    5    0  503 -0.10664978475E+03  0.95359196763E+02  0.34475496764E+03  0.37326068733E+03  0.00000000000E+00 0.  1.
         -3    1    6    6    0  502  0.12984126514E+02  0.73506059521E+01 -0.27441072328E+01  0.15170664906E+02  0.00000000000E+00 0.  1.
<mgrwt>
<rscale>  0 0.22255456E+04</rscale>
<asrwt>0</asrwt>
<pdfrwt beam="1">  1        2 0.43152619E+00 0.22255456E+04</pdfrwt>
<pdfrwt beam="2">  1       -2 0.67917100E-01 0.22255456E+04</pdfrwt>
<totfact> 0.41614315E+00</totfact>
</mgrwt>
</event>
<event>
12    1  0.1201209E-007  0.1529702E+04  0.7818608E-02  0.8864938E-01
         -1   -1    0    0    0  501 -0.00000000000E+00  0.00000000000E+00  0.25270847593E+03  0.25270847593E+03  0.00000000000E+00 0.  1.
          1   -1    0    0  501    0  0.00000000000E+00 -0.00000000000E+00 -0.23149079068E+04  0.23149079068E+04  0.00000000000E+00 0. -1.
         23    2    1    2    0    0 -0.38214864576E+03 -0.12022474217E+03 -0.19944174273E+03  0.45650078049E+03  0.90135330275E+02 0.  0.
        254    2    1    2    0    0  0.38214864576E+03  0.12022474217E+03 -0.18627576881E+04  0.21111156022E+04  0.90909367239E+03 0.  0.
        -24    2    4    4    0    0 -0.15652995003E+03 -0.26154383958E+03 -0.44538269479E+03  0.54550761081E+03  0.79410347930E+02 0.  0.
         24    2    4    4    0    0  0.53867859579E+03  0.38176858175E+03 -0.14173749933E+04  0.15656079914E+04  0.79086227955E+02 0.  0.
         11    1    3    3    0    0  0.24203059225E+01 -0.73903594435E+01  0.18752477274E+01  0.79994904527E+01  0.00000000000E+00 0. -1.
        -11    1    3    3    0    0 -0.38456895168E+03 -0.11283438273E+03 -0.20131699046E+03  0.44850129004E+03  0.00000000000E+00 0.  1.
          2    1    6    6  502    0  0.45948813682E+03  0.29353887790E+03 -0.11271925929E+04  0.12521411910E+04  0.00000000000E+00 0. -1.
          3    1    5    5  503    0 -0.15999531501E+03 -0.23222951934E+03 -0.42332519034E+03  0.50865830107E+03  0.00000000000E+00 0. -1.
         -4    1    5    5    0  503  0.34653649766E+01 -0.29314320243E+02 -0.22057504453E+02  0.36849309741E+02  0.00000000000E+00 0.  1.
         -1    1    6    6    0  502  0.79190458971E+02  0.88229703850E+02 -0.29018240044E+03  0.31346680041E+03  0.00000000000E+00 0.  1.
<mgrwt>
<rscale>  0 0.15297017E+04</rscale>
<asrwt>0</asrwt>
<pdfrwt beam="1">  1        1 0.35613966E+00 0.15297017E+04</pdfrwt>
<pdfrwt beam="2">  1       -1 0.38878229E-01 0.15297017E+04</pdfrwt>
<totfact> 0.11273410E+01</totfact>
</mgrwt>
</event>
<event>
12    1  0.1201209E-007  0.1394105E+04  0.7818608E-02  0.8958097E-01
          2   -1    0    0  501    0  0.00000000000E+00  0.00000000000E+00  0.10401683717E+04  0.10401683717E+04  0.00000000000E+00 0. -1.
         -2   -1    0    0    0  501 -0.00000000000E+00 -0.00000000000E+00 -0.46711852219E+03  0.46711852219E+03  0.00000000000E+00 0.  1.
         23    2    1    2    0    0 -0.15887863794E+02 -0.37713745569E+03  0.36107905840E+03  0.52909606874E+03  0.84139638932E+02 0.  0.
        254    2    1    2    0    0  0.15887863794E+02  0.37713745569E+03  0.21197079108E+03  0.97819082513E+03  0.87717762705E+03 0.  0.
        -24    2    4    4    0    0  0.24531343928E+02  0.47214079211E+02  0.51455434021E+03  0.52328801732E+03  0.78950769066E+02 0.  0.
         24    2    4    4    0    0 -0.86434801334E+01  0.32992337648E+03 -0.30258354913E+03  0.45490280781E+03  0.80346849670E+02 0.  0.
         13    1    3    3    0    0  0.30895947536E+02 -0.10290291222E+03  0.83176440701E+02  0.13587453480E+03  0.00000000000E+00 0.  1.
        -13    1    3    3    0    0 -0.46783811330E+02 -0.27423454347E+03  0.27790261770E+03  0.39322153394E+03  0.00000000000E+00 0. -1.
          4    1    6    6  502    0  0.25424979784E+02  0.16061930832E+03 -0.11055455166E+03  0.19664002821E+03  0.00000000000E+00 0. -1.
          3    1    5    5  503    0  0.30669145942E+02 -0.12693437554E+02  0.13715574941E+03  0.14111491581E+03  0.00000000000E+00 0. -1.
         -4    1    5    5    0  503 -0.61378020140E+01  0.59907516765E+02  0.37739859080E+03  0.38217310151E+03  0.00000000000E+00 0.  1.
         -3    1    6    6    0  502 -0.34068459917E+02  0.16930406816E+03 -0.19202899747E+03  0.25826277960E+03  0.00000000000E+00 0.  1.
<mgrwt>
<rscale>  0 0.13941046E+04</rscale>
<asrwt>0</asrwt>
<pdfrwt beam="1">  1        2 0.16002590E+00 0.13941046E+04</pdfrwt>
<pdfrwt beam="2">  1       -2 0.71864388E-01 0.13941046E+04</pdfrwt>
<totfact> 0.40581826E+01</totfact>
</mgrwt>
</event>
<event>
12    1  0.1201209E-007  0.2080906E+04  0.7818608E-02  0.8569701E-01
         -2   -1    0    0    0  501 -0.00000000000E+00  0.00000000000E+00  0.11055861425E+04  0.11055861425E+04  0.00000000000E+00 0.  1.
          2   -1    0    0  501    0  0.00000000000E+00 -0.00000000000E+00 -0.97915700348E+03  0.97915700348E+03  0.00000000000E+00 0. -1.
         23    2    1    2    0    0  0.36899783262E+03 -0.49482910277E+03  0.62129797240E+03  0.88073743969E+03  0.93123711996E+02 0.  0.
        254    2    1    2    0    0 -0.36899783262E+03  0.49482910277E+03 -0.49486883342E+03  0.12040057063E+04  0.90758985064E+03 0.  0.
        -24    2    4    4    0    0 -0.29233111482E+03  0.74406335816E+03 -0.26258815598E+03  0.84524779973E+03  0.80022132138E+02 0.  0.
         24    2    4    4    0    0 -0.76666717804E+02 -0.24923425539E+03 -0.23228067743E+03  0.35875790653E+03  0.82203544398E+02 0.  0.
         11    1    3    3    0    0  0.37093327538E+03 -0.46812562191E+03  0.58988121835E+03  0.83945991234E+03  0.00000000000E+00 0.  1.
        -11    1    3    3    0    0 -0.19354427564E+01 -0.26703480867E+02  0.31416754047E+02  0.41277527348E+02  0.00000000000E+00 0. -1.
          4    1    6    6  502    0 -0.35571379624E+02 -0.20781151297E+02 -0.38416715378E+02  0.56329595401E+02  0.00000000000E+00 0. -1.
          1    1    5    5  503    0 -0.33207723227E+02  0.42684052821E+02 -0.31746372171E+02  0.62709755168E+02  0.00000000000E+00 0. -1.
         -2    1    5    5    0  503 -0.25912339159E+03  0.70137930534E+03 -0.23084178381E+03  0.78253804456E+03  0.00000000000E+00 0.  1.
         -3    1    6    6    0  502 -0.41095338180E+02 -0.22845310409E+03 -0.19386396205E+03  0.30242831113E+03  0.00000000000E+00 0.  1.
<mgrwt>
<rscale>  0 0.20809060E+04</rscale>
<asrwt>0</asrwt>
<pdfrwt beam="1">  1        2 0.15063954E+00 0.20809060E+04</pdfrwt>
<pdfrwt beam="2">  1       -2 0.17009018E+00 0.20809060E+04</pdfrwt>
<totfact> 0.51026067E+00</totfact>
</mgrwt>
</event>
<event>
12    1  0.1201209E-007  0.2028591E+04  0.7818608E-02  0.8593369E-01
          2   -1    0    0  501    0  0.00000000000E+00  0.00000000000E+00  0.40231208926E+04  0.40231208926E+04  0.00000000000E+00 0. -1.
         -2   -1    0    0    0  501 -0.00000000000E+00 -0.00000000000E+00 -0.25572060750E+03  0.25572060750E+03  0.00000000000E+00 0.  1.
         23    2    1    2    0    0 -0.44100167299E+03  0.65726649300E+03  0.11265613062E+04  0.13798788185E+04  0.91888295019E+02 0.  0.
        254    2    1    2    0    0  0.44100167299E+03 -0.65726649300E+03  0.26408389789E+04  0.28989626816E+04  0.89636621889E+03 0.  0.
        -24    2    4    4    0    0  0.94155987425E+02  0.82966446989E+02  0.14173524909E+04  0.14252871512E+04  0.82502114232E+02 0.  0.
         24    2    4    4    0    0  0.34684568557E+03 -0.74023293999E+03  0.12234864880E+04  0.14736755303E+04  0.80954600141E+02 0.  0.
         13    1    3    3    0    0 -0.43398359442E+03  0.64396312014E+03  0.11212997185E+04  0.13639440308E+04  0.00000000000E+00 0.  1.
        -13    1    3    3    0    0 -0.70180785691E+01  0.13303372860E+02  0.52615877275E+01  0.15934787782E+02  0.00000000000E+00 0. -1.
          2    1    6    6  502    0  0.62031302072E+00 -0.23844665817E+02  0.20988986674E+02  0.31772479252E+02  0.00000000000E+00 0. -1.
          3    1    5    5  503    0  0.50770467388E+02  0.31441300483E+02  0.29884188414E+03  0.30475017219E+03  0.00000000000E+00 0. -1.
         -4    1    5    5    0  503  0.43385520037E+02  0.51525146506E+02  0.11185106067E+04  0.11205369791E+04  0.00000000000E+00 0.  1.
         -1    1    6    6    0  502  0.34622537255E+03 -0.71638827417E+03  0.12024975014E+04  0.14419030511E+04  0.00000000000E+00 0.  1.
<mgrwt>
<rscale>  0 0.20285906E+04</rscale>
<asrwt>0</asrwt>
<pdfrwt beam="1">  1        2 0.61894163E+00 0.20285906E+04</pdfrwt>
<pdfrwt beam="2">  1       -2 0.39341635E-01 0.20285906E+04</pdfrwt>
<totfact> 0.18745387E+00</totfact>
</mgrwt>
</event>
<event>
12    1  0.1201209E-007  0.2351010E+04  0.7818608E-02  0.8458076E-01
         -3   -1    0    0    0  501 -0.00000000000E+00  0.00000000000E+00  0.12969708107E+04  0.12969708107E+04  0.00000000000E+00 0.  1.
          3   -1    0    0  501    0  0.00000000000E+00 -0.00000000000E+00 -0.10654146353E+04  0.10654146353E+04  0.00000000000E+00 0. -1.
         23    2    1    2    0    0  0.61288328538E+03  0.73150623523E+03  0.39949925010E+03  0.10383180693E+04  0.88189956795E+02 0.  0.
        254    2    1    2    0    0 -0.61288328538E+03 -0.73150623523E+03 -0.16794307472E+03  0.13240673767E+04  0.90234264447E+03 0.  0.
        -24    2    4    4    0    0  0.11472067599E+03  0.12530136884E+03 -0.26426039181E+02  0.18878509524E+03  0.77975702030E+02 0.  0.
         24    2    4    4    0    0 -0.72760396137E+03 -0.85680760407E+03 -0.14151703554E+03  0.11352822815E+04  0.72883415706E+02 0.  0.
         13    1    3    3    0    0  0.32790790915E+03  0.33978063491E+03  0.22872331812E+03  0.52467974326E+03  0.00000000000E+00 0. -1.
        -13    1    3    3    0    0  0.28497537623E+03  0.39172560033E+03  0.17077593198E+03  0.51363832602E+03  0.00000000000E+00 0.  1.
          2    1    6    6  502    0 -0.44135953215E+03 -0.52718118680E+03 -0.12196544262E+03  0.69827917735E+03  0.00000000000E+00 0. -1.
          1    1    5    5  503    0  0.12131299968E+03  0.11117415110E+03 -0.38586948603E+02  0.16901327867E+03  0.00000000000E+00 0. -1.
         -2    1    5    5    0  503 -0.65923236908E+01  0.14127217734E+02  0.12160909422E+02  0.19771816571E+02  0.00000000000E+00 0.  1.
         -1    1    6    6    0  502 -0.28624442922E+03 -0.32962641727E+03 -0.19551592917E+02  0.43700310412E+03  0.00000000000E+00 0.  1.
<mgrwt>
<rscale>  0 0.23510097E+04</rscale>
<asrwt>0</asrwt>
<pdfrwt beam="1">  1        3 0.16390994E+00 0.23510097E+04</pdfrwt>
<pdfrwt beam="2">  1       -3 0.19953397E+00 0.23510097E+04</pdfrwt>
<totfact> 0.88894361E-02</totfact>
</mgrwt>
</event>
<event>
12    1  0.1201209E-007  0.1340630E+04  0.7818608E-02  0.8997952E-01
         -2   -1    0    0    0  501 -0.00000000000E+00  0.00000000000E+00  0.25219484635E+03  0.25219484635E+03  0.00000000000E+00 0.  1.
          2   -1    0    0  501    0  0.00000000000E+00 -0.00000000000E+00 -0.17816459715E+04  0.17816459715E+04  0.00000000000E+00 0. -1.
         23    2    1    2    0    0  0.20594472916E+03  0.67315992983E+00 -0.86325551887E+03  0.89251156462E+03  0.94620914783E+02 0.  0.
        254    2    1    2    0    0 -0.20594472916E+03 -0.67315992983E+00 -0.66619560633E+03  0.11413292533E+04  0.90354977387E+03 0.  0.
        -24    2    4    4    0    0 -0.36156277382E+03  0.35855482924E+03 -0.46452516734E+03  0.69372612557E+03  0.78632698252E+02 0.  0.
         24    2    4    4    0    0  0.15561804466E+03 -0.35922798917E+03 -0.20167043899E+03  0.44760312770E+03  0.80099125683E+02 0.  0.
         13    1    3    3    0    0  0.15551201927E+03  0.73577185174E+01 -0.77638423532E+03  0.79184001226E+03  0.00000000000E+00 0. -1.
        -13    1    3    3    0    0  0.50432709884E+02 -0.66845585876E+01 -0.86871283545E+02  0.10067155236E+03  0.00000000000E+00 0.  1.
          4    1    6    6  502    0  0.12599616221E+03 -0.32579694380E+03 -0.20083060540E+03  0.40292879464E+03  0.00000000000E+00 0. -1.
          1    1    5    5  503    0 -0.17784337517E+03  0.12660792318E+03 -0.17557077613E+03  0.28014804967E+03  0.00000000000E+00 0. -1.
         -2    1    5    5    0  503 -0.18371939865E+03  0.23194690606E+03 -0.28895439121E+03  0.41357807591E+03  0.00000000000E+00 0.  1.
         -3    1    6    6    0  502  0.29621882446E+02 -0.33431045366E+02 -0.83983359591E+00  0.44674333060E+02  0.00000000000E+00 0.  1.
<mgrwt>
<rscale>  0 0.13406296E+04</rscale>
<asrwt>0</asrwt>
<pdfrwt beam="1">  1        2 0.27409939E+00 0.13406296E+04</pdfrwt>
<pdfrwt beam="2">  1       -2 0.38799206E-01 0.13406296E+04</pdfrwt>
<totfact> 0.54201848E+01</totfact>
</mgrwt>
</event>
<event>
12    1  0.1201209E-007  0.2565749E+04  0.7818608E-02  0.8379930E-01
          1   -1    0    0  501    0  0.00000000000E+00  0.00000000000E+00  0.19445536242E+04  0.19445536242E+04  0.00000000000E+00 0. -1.
         -1   -1    0    0    0  501 -0.00000000000E+00 -0.00000000000E+00 -0.84634660764E+03  0.84634660764E+03  0.00000000000E+00 0.  1.
         23    2    1    2    0    0 -0.81300607701E+03  0.72047240588E+03  0.65786640744E+03  0.12731611512E+04  0.89954088521E+02 0.  0.
        254    2    1    2    0    0  0.81300607701E+03 -0.72047240588E+03  0.44034060917E+03  0.15177390807E+04  0.96414350387E+03 0.  0.
        -24    2    4    4    0    0  0.30662383333E+03  0.43611435592E+02  0.50244188809E+03  0.59585966003E+03  0.81735861582E+02 0.  0.
         24    2    4    4    0    0  0.50638224368E+03 -0.76408384147E+03 -0.62101278918E+02  0.92187942065E+03  0.75881512014E+02 0.  0.
         13    1    3    3    0    0 -0.60961690567E+03  0.50222267729E+03  0.51006249715E+03  0.94022557945E+03  0.00000000000E+00 0. -1.
        -13    1    3    3    0    0 -0.20338917134E+03  0.21824972859E+03  0.14780391029E+03  0.33293557176E+03  0.00000000000E+00 0.  1.
          2    1    6    6  502    0  0.14266939164E+03 -0.16323959247E+03 -0.15165471739E+00  0.21679885346E+03  0.00000000000E+00 0. -1.
          3    1    5    5  503    0  0.13337044638E+03  0.39502013065E+02  0.29049896385E+03  0.32208342553E+03  0.00000000000E+00 0. -1.
         -4    1    5    5    0  503  0.17325338695E+03  0.41094225274E+01  0.21194292424E+03  0.27377623450E+03  0.00000000000E+00 0.  1.
         -1    1    6    6    0  502  0.36371285203E+03 -0.60084424900E+03 -0.61949624200E+02  0.70508056719E+03  0.00000000000E+00 0.  1.
<mgrwt>
<rscale>  0 0.25657485E+04</rscale>
<asrwt>0</asrwt>
<pdfrwt beam="1">  1        1 0.29916209E+00 0.25657485E+04</pdfrwt>
<pdfrwt beam="2">  1       -1 0.13020717E+00 0.25657485E+04</pdfrwt>
<totfact> 0.14498095E+00</totfact>
</mgrwt>
</event>
<event>
12    1  0.1201209E-007  0.2451014E+04  0.7818608E-02  0.8420648E-01
         -2   -1    0    0    0  501 -0.00000000000E+00  0.00000000000E+00  0.51503054321E+03  0.51503054321E+03  0.00000000000E+00 0.  1.
          2   -1    0    0  501    0  0.00000000000E+00 -0.00000000000E+00 -0.29160740221E+04  0.29160740221E+04  0.00000000000E+00 0. -1.
         23    2    1    2    0    0 -0.82777226975E+03 -0.65649600918E+03 -0.10249015485E+04  0.14748737156E+04  0.92926596117E+02 0.  0.
        254    2    1    2    0    0  0.82777226975E+03  0.65649600918E+03 -0.13761419303E+04  0.19562308496E+04  0.90381335684E+03 0.  0.
        -24    2    4    4    0    0  0.21919684347E+03 -0.21980415389E+03 -0.34063101185E+03  0.46738235572E+03  0.77818108105E+02 0.  0.
         24    2    4    4    0    0  0.60857542628E+03  0.87630016308E+03 -0.10355109185E+04  0.14888484939E+04  0.78236502095E+02 0.  0.
         13    1    3    3    0    0 -0.34117103739E+03 -0.23599473026E+03 -0.35181626893E+03  0.54393554448E+03  0.00000000000E+00 0. -1.
        -13    1    3    3    0    0 -0.48660123236E+03 -0.42050127893E+03 -0.67308527959E+03  0.93093817116E+03  0.00000000000E+00 0.  1.
          2    1    6    6  502    0  0.17003265323E+03  0.30010908296E+03 -0.30858896049E+03  0.46282146815E+03  0.00000000000E+00 0. -1.
          3    1    5    5  503    0  0.56888607252E+02 -0.22072307349E+02 -0.93792770864E+02  0.11189541659E+03  0.00000000000E+00 0. -1.
         -4    1    5    5    0  503  0.16230823622E+03 -0.19773184654E+03 -0.24683824099E+03  0.35548693914E+03  0.00000000000E+00 0.  1.
         -1    1    6    6    0  502  0.43854277305E+03  0.57619108011E+03 -0.72692195800E+03  0.10260270258E+04  0.00000000000E+00 0.  1.
<mgrwt>
<rscale>  0 0.24510138E+04</rscale>
<asrwt>0</asrwt>
<pdfrwt beam="1">  1        2 0.44862676E+00 0.24510138E+04</pdfrwt>
<pdfrwt beam="2">  1       -2 0.79235470E-01 0.24510138E+04</pdfrwt>
<totfact> 0.24842169E+00</totfact>
</mgrwt>
</event>
<event>
12    1  0.1201209E-007  0.1673644E+04  0.7818608E-02  0.8776541E-01
         -2   -1    0    0    0  501 -0.00000000000E+00  0.00000000000E+00  0.14541006862E+04  0.14541006862E+04  0.00000000000E+00 0.  1.
          2   -1    0    0  501    0  0.00000000000E+00 -0.00000000000E+00 -0.48158350451E+03  0.48158350451E+03  0.00000000000E+00 0. -1.
         23    2    1    2    0    0  0.71363163243E+02  0.57965258753E+03  0.23206403230E+03  0.63494419317E+03  0.90612306358E+02 0.  0.
        254    2    1    2    0    0 -0.71363163243E+02 -0.57965258753E+03  0.74045314942E+03  0.13007399976E+04  0.89585928107E+03 0.  0.
        -24    2    4    4    0    0 -0.47694773151E+03 -0.31380597916E+03  0.36429012904E+03  0.68157785412E+03  0.76731622998E+02 0.  0.
         24    2    4    4    0    0  0.40558456827E+03 -0.26584660837E+03  0.37616302037E+03  0.61916214344E+03  0.81791691367E+02 0.  0.
         13    1    3    3    0    0  0.73295546209E+01  0.29361049735E+03  0.15389315008E+03  0.33157796695E+03  0.00000000000E+00 0.  1.
        -13    1    3    3    0    0  0.64033608622E+02  0.28604209018E+03  0.78170882214E+02  0.30336622622E+03  0.00000000000E+00 0. -1.
          2    1    6    6  502    0  0.15844038300E+03 -0.12896515362E+03  0.20187451430E+03  0.28720843535E+03  0.00000000000E+00 0. -1.
          1    1    5    5  503    0 -0.14744101564E+03 -0.94088492159E+02  0.15465830041E+03  0.23347523923E+03  0.00000000000E+00 0. -1.
         -2    1    5    5    0  503 -0.32950671587E+03 -0.21971748700E+03  0.20963182864E+03  0.44810261489E+03  0.00000000000E+00 0.  1.
         -3    1    6    6    0  502  0.24714418526E+03 -0.13688145475E+03  0.17428850607E+03  0.33195370808E+03  0.00000000000E+00 0.  1.
<mgrwt>
<rscale>  0 0.16736438E+04</rscale>
<asrwt>0</asrwt>
<pdfrwt beam="1">  1        2 0.74089770E-01 0.16736438E+04</pdfrwt>
<pdfrwt beam="2">  1       -2 0.22370780E+00 0.16736438E+04</pdfrwt>
<totfact> 0.57396775E+00</totfact>
</mgrwt>
</event>
<event>
12    1  0.1201209E-007  0.2510844E+04  0.7818608E-02  0.8399132E-01
          2   -1    0    0  501    0  0.00000000000E+00  0.00000000000E+00  0.18783601900E+04  0.18783601900E+04  0.00000000000E+00 0. -1.
         -2   -1    0    0    0  501 -0.00000000000E+00 -0.00000000000E+00 -0.83907485257E+03  0.83907485257E+03  0.00000000000E+00 0.  1.
         23    2    1    2    0    0  0.89114594720E+03  0.41302778760E+03  0.97998798988E+03  0.13902879247E+04  0.88266645747E+02 0.  0.
        254    2    1    2    0    0 -0.89114594720E+03 -0.41302778760E+03  0.59297347601E+02  0.13271471179E+04  0.89054491442E+03 0.  0.
        -24    2    4    4    0    0 -0.69060914631E+03  0.14148725974E+03 -0.85434727354E+02  0.71441990774E+03  0.78339481087E+02 0.  0.
         24    2    4    4    0    0 -0.20053680089E+03 -0.55451504735E+03  0.14473207496E+03  0.61272721017E+03  0.82373019356E+02 0.  0.
         13    1    3    3    0    0  0.34661391795E+03  0.19697570057E+03  0.35751160090E+03  0.53549526563E+03  0.00000000000E+00 0. -1.
        -13    1    3    3    0    0  0.54453202925E+03  0.21605208704E+03  0.62247638897E+03  0.85479265908E+03  0.00000000000E+00 0.  1.
          4    1    6    6  502    0 -0.14289029972E+03 -0.44336265742E+03  0.14380518772E+03  0.48751206730E+03  0.00000000000E+00 0. -1.
          1    1    5    5  503    0 -0.57717561589E+03  0.10972756461E+03 -0.99176449534E+02  0.59582530842E+03  0.00000000000E+00 0. -1.
         -2    1    5    5    0  503 -0.11343353042E+03  0.31759695133E+02  0.13741722180E+02  0.11859459932E+03  0.00000000000E+00 0.  1.
         -3    1    6    6    0  502 -0.57646501174E+02 -0.11115238993E+03  0.92688723034E+00  0.12521514287E+03  0.00000000000E+00 0.  1.
<mgrwt>
<rscale>  0 0.25108443E+04</rscale>
<asrwt>0</asrwt>
<pdfrwt beam="1">  1        2 0.28897849E+00 0.25108443E+04</pdfrwt>
<pdfrwt beam="2">  1       -2 0.12908844E+00 0.25108443E+04</pdfrwt>
<totfact> 0.30756397E+00</totfact>
</mgrwt>
</event>
<event>
12    1  0.1201209E-007  0.1561544E+04  0.7818608E-02  0.8844528E-01
          2   -1    0    0  501    0  0.00000000000E+00  0.00000000000E+00  0.27091278617E+04  0.27091278617E+04  0.00000000000E+00 0. -1.
         -2   -1    0    0    0  501 -0.00000000000E+00 -0.00000000000E+00 -0.22501880234E+03  0.22501880234E+03  0.00000000000E+00 0.  1.
         23    2    1    2    0    0 -0.12339261360E+03  0.44054096302E+03  0.12533974802E+04  0.13374764124E+04  0.92389572830E+02 0.  0.
        254    2    1    2    0    0  0.12339261360E+03 -0.44054096302E+03  0.12307115792E+04  0.15966702516E+04  0.90851682658E+03 0.  0.
        -24    2    4    4    0    0  0.27490012892E+03 -0.15873785839E+02  0.10756683536E+04  0.11132338749E+04  0.80032464648E+02 0.  0.
         24    2    4    4    0    0 -0.15150751532E+03 -0.42466717718E+03  0.15504322562E+03  0.48343637676E+03  0.79847291680E+02 0.  0.
         11    1    3    3    0    0 -0.13068370774E+03  0.32621288476E+03  0.97698074181E+03  0.10382602985E+04  0.00000000000E+00 0. -1.
        -11    1    3    3    0    0  0.72910941441E+01  0.11432807827E+03  0.27641673835E+03  0.29921611383E+03  0.00000000000E+00 0.  1.
          4    1    6    6  502    0 -0.98768169734E+02 -0.31161307080E+03  0.75539783300E+02  0.33550576166E+03  0.00000000000E+00 0. -1.
          3    1    5    5  503    0  0.21745401525E+03 -0.36989954680E+02  0.74578547456E+03  0.77772133798E+03  0.00000000000E+00 0. -1.
         -4    1    5    5    0  503  0.57446113665E+02  0.21116168841E+02  0.32988287900E+03  0.33551253690E+03  0.00000000000E+00 0.  1.
         -3    1    6    6    0  502 -0.52739345581E+02 -0.11305410639E+03  0.79503442324E+02  0.14793061510E+03  0.00000000000E+00 0.  1.
<mgrwt>
<rscale>  0 0.15615437E+04</rscale>
<asrwt>0</asrwt>
<pdfrwt beam="1">  1        2 0.41678888E+00 0.15615437E+04</pdfrwt>
<pdfrwt beam="2">  1       -2 0.34618279E-01 0.15615437E+04</pdfrwt>
<totfact> 0.19806770E+01</totfact>
</mgrwt>
</event>
<event>
12    1  0.1201209E-007  0.2247770E+04  0.7818608E-02  0.8498804E-01
          2   -1    0    0  501    0  0.00000000000E+00  0.00000000000E+00  0.30463609276E+04  0.30463609276E+04  0.00000000000E+00 0.  1.
         -2   -1    0    0    0  501 -0.00000000000E+00 -0.00000000000E+00 -0.41463155332E+03  0.41463155332E+03  0.00000000000E+00 0. -1.
         23    2    1    2    0    0  0.60154292472E+03 -0.53519834779E+03  0.35840672920E+03  0.88613460153E+03  0.92130270468E+02 0.  0.
        254    2    1    2    0    0 -0.60154292472E+03  0.53519834779E+03  0.22733226451E+04  0.25748578794E+04  0.90200115779E+03 0.  0.
        -24    2    4    4    0    0 -0.72252903745E+02  0.57035530979E+03  0.68353254551E+03  0.89688732877E+03  0.81636255583E+02 0.  0.
         24    2    4    4    0    0 -0.52929002097E+03 -0.35156962003E+02  0.15897900996E+04  0.16779705506E+04  0.82271925882E+02 0.  0.
         11    1    3    3    0    0  0.79730017971E+02 -0.50281442460E+02  0.15400675035E+02  0.95510627749E+02  0.00000000000E+00 0.  1.
        -11    1    3    3    0    0  0.52181290675E+03 -0.48491690533E+03  0.34300605417E+03  0.79062397378E+03  0.00000000000E+00 0. -1.
          2    1    6    6  502    0 -0.40338717988E+03 -0.33377471090E+02  0.10951904861E+04  0.11675947385E+04  0.00000000000E+00 0. -1.
          1    1    5    5  503    0 -0.78101109212E+02  0.32752656302E+03  0.42375482917E+03  0.54124078559E+03  0.00000000000E+00 0. -1.
         -2    1    5    5    0  503  0.58482054665E+01  0.24282874677E+03  0.25977771634E+03  0.35564654318E+03  0.00000000000E+00 0.  1.
         -1    1    6    6    0  502 -0.12590284109E+03 -0.17794909126E+01  0.49459961343E+03  0.51037581211E+03  0.00000000000E+00 0.  1.
<mgrwt>
<rscale>  0 0.22477699E+04</rscale>
<asrwt>0</asrwt>
<pdfrwt beam="1">  1        2 0.46867090E+00 0.22477699E+04</pdfrwt>
<pdfrwt beam="2">  1       -2 0.63789472E-01 0.22477699E+04</pdfrwt>
<totfact> 0.33730227E+00</totfact>
</mgrwt>
</event>
<event>
12    1  0.1201209E-007  0.1919538E+04  0.7818608E-02  0.8645192E-01
         -2   -1    0    0    0  501 -0.00000000000E+00  0.00000000000E+00  0.84982386397E+03  0.84982386397E+03  0.00000000000E+00 0.  1.
          2   -1    0    0  501    0  0.00000000000E+00 -0.00000000000E+00 -0.10839386307E+04  0.10839386307E+04  0.00000000000E+00 0. -1.
         23    2    1    2    0    0  0.10042467180E+03 -0.73542334079E+03 -0.16717437074E+03  0.76634310323E+03  0.91661751798E+02 0.  0.
        254    2    1    2    0    0 -0.10042467180E+03  0.73542334079E+03 -0.66940396019E+02  0.11674193915E+04  0.89858467272E+03 0.  0.
        -24    2    4    4    0    0  0.16213892079E+03 -0.36860482912E+02 -0.26647931859E+03  0.32398630513E+03  0.79424012988E+02 0.  0.
         24    2    4    4    0    0 -0.26256359260E+03  0.77228382371E+03  0.19953892257E+03  0.84343308633E+03  0.78750523659E+02 0.  0.
         11    1    3    3    0    0  0.12399994110E+02 -0.17493312463E+03 -0.18328053759E+01  0.17538163280E+03  0.00000000000E+00 0. -1.
        -11    1    3    3    0    0  0.88024677692E+02 -0.56049021616E+03 -0.16534156536E+03  0.59096147043E+03  0.00000000000E+00 0.  1.
          4    1    6    6  502    0 -0.22810880507E+03  0.71344996249E+03  0.16493188570E+03  0.76697262197E+03  0.00000000000E+00 0. -1.
          1    1    5    5  503    0  0.99620620823E+02 -0.61296109212E+02 -0.16236565730E+03  0.20011018907E+03  0.00000000000E+00 0. -1.
         -2    1    5    5    0  503  0.62518299972E+02  0.24435626300E+02 -0.10411366129E+03  0.12387611606E+03  0.00000000000E+00 0.  1.
         -3    1    6    6    0  502 -0.34454787531E+02  0.58833861213E+02  0.34607036869E+02  0.76460464358E+02  0.00000000000E+00 0.  1.
<mgrwt>
<rscale>  0 0.19195384E+04</rscale>
<asrwt>0</asrwt>
<pdfrwt beam="1">  1        2 0.16675979E+00 0.19195384E+04</pdfrwt>
<pdfrwt beam="2">  1       -2 0.13074213E+00 0.19195384E+04</pdfrwt>
<totfact> 0.89236870E+00</totfact>
</mgrwt>
</event>
<event>
12    1  0.1201209E-007  0.1962188E+04  0.7818608E-02  0.8624506E-01
          3   -1    0    0  501    0  0.00000000000E+00  0.00000000000E+00  0.32367879920E+03  0.32367879920E+03  0.00000000000E+00 0. -1.
         -3   -1    0    0    0  501 -0.00000000000E+00 -0.00000000000E+00 -0.29737683694E+04  0.29737683694E+04  0.00000000000E+00 0.  1.
         23    2    1    2    0    0 -0.11674463673E+03 -0.45403419451E+03 -0.20263614984E+04  0.20817726625E+04  0.88657409041E+02 0.  0.
        254    2    1    2    0    0  0.11674463673E+03  0.45403419451E+03 -0.62372807182E+03  0.12156745061E+04  0.93222928363E+03 0.  0.
        -24    2    4    4    0    0  0.33320192005E+03 -0.13228535981E+03 -0.63877689202E+02  0.37284694263E+03  0.80072139376E+02 0.  0.
         24    2    4    4    0    0 -0.21645728332E+03  0.58631955432E+03 -0.55985038262E+03  0.84282756349E+03  0.79381834078E+02 0.  0.
         13    1    3    3    0    0 -0.37450160133E+02 -0.90956162097E+02 -0.58829809024E+03  0.59646473567E+03  0.00000000000E+00 0. -1.
        -13    1    3    3    0    0 -0.79294476593E+02 -0.36307803241E+03 -0.14380634081E+04  0.14853079268E+04  0.00000000000E+00 0.  1.
          2    1    6    6  502    0 -0.18945763937E+03  0.42221562454E+03 -0.39119227000E+03  0.60596338406E+03  0.00000000000E+00 0. -1.
          3    1    5    5  503    0  0.25656508164E+03 -0.93515351444E+02 -0.13792904052E+02  0.27342458974E+03  0.00000000000E+00 0. -1.
         -4    1    5    5    0  503  0.76636838410E+02 -0.38770008364E+02 -0.50084785150E+02  0.99422352887E+02  0.00000000000E+00 0.  1.
         -1    1    6    6    0  502 -0.26999643952E+02  0.16410392978E+03 -0.16865811261E+03  0.23686417942E+03  0.00000000000E+00 0.  1.
<mgrwt>
<rscale>  0 0.19621883E+04</rscale>
<asrwt>0</asrwt>
<pdfrwt beam="1">  1        3 0.49796738E-01 0.19621883E+04</pdfrwt>
<pdfrwt beam="2">  1       -3 0.45750283E+00 0.19621883E+04</pdfrwt>
<totfact> 0.50196525E-02</totfact>
</mgrwt>
</event>
<event>
12    1  0.1201209E-007  0.2648362E+04  0.7818608E-02  0.8351957E-01
          2   -1    0    0  501    0  0.00000000000E+00  0.00000000000E+00  0.12243144749E+04  0.12243144749E+04  0.00000000000E+00 0. -1.
         -2   -1    0    0    0  501 -0.00000000000E+00 -0.00000000000E+00 -0.14321932147E+04  0.14321932147E+04  0.00000000000E+00 0.  1.
         23    2    1    2    0    0  0.17786787268E+03 -0.11104111254E+04  0.21966128346E+03  0.11493638376E+04  0.90201465145E+02 0.  0.
        254    2    1    2    0    0 -0.17786787268E+03  0.11104111254E+04 -0.42754002330E+03  0.15071438520E+04  0.90776774093E+03 0.  0.
        -24    2    4    4    0    0 -0.18113839699E+03 -0.11280163100E+02 -0.31846004509E+03  0.37730252601E+03  0.89454093646E+02 0.  0.
         24    2    4    4    0    0  0.32705243065E+01  0.11216912885E+04 -0.10907997821E+03  0.11298413259E+04  0.80255449698E+02 0.  0.
         11    1    3    3    0    0  0.13295316600E+03 -0.81455868541E+03  0.12031436606E+03  0.83406111467E+03  0.00000000000E+00 0. -1.
        -11    1    3    3    0    0  0.44914706685E+02 -0.29585243996E+03  0.99346917395E+02  0.31530272296E+03  0.00000000000E+00 0.  1.
          4    1    6    6  502    0 -0.36346240800E+02  0.55670658490E+03 -0.67169592787E+02  0.56192083525E+03  0.00000000000E+00 0. -1.
          1    1    5    5  503    0 -0.14128561382E+03 -0.46920098520E+02 -0.23421958589E+03  0.27752825934E+03  0.00000000000E+00 0. -1.
         -2    1    5    5    0  503 -0.39852783176E+02  0.35639935421E+02 -0.84240459201E+02  0.99774266672E+02  0.00000000000E+00 0.  1.
         -3    1    6    6    0  502  0.39616765106E+02  0.56498470356E+03 -0.41910385422E+02  0.56792049069E+03  0.00000000000E+00 0.  1.
<mgrwt>
<rscale>  0 0.26483617E+04</rscale>
<asrwt>0</asrwt>
<pdfrwt beam="1">  1        2 0.18835607E+00 0.26483617E+04</pdfrwt>
<pdfrwt beam="2">  1       -2 0.22033742E+00 0.26483617E+04</pdfrwt>
<totfact> 0.15872808E+00</totfact>
</mgrwt>
</event>
<event>
12    1  0.1201209E-007  0.1776098E+04  0.7818608E-02  0.8719115E-01
          2   -1    0    0  501    0  0.00000000000E+00  0.00000000000E+00  0.41253291401E+04  0.41253291401E+04  0.00000000000E+00 0. -1.
         -2   -1    0    0    0  501 -0.00000000000E+00 -0.00000000000E+00 -0.19116797916E+03  0.19116797916E+03  0.00000000000E+00 0.  1.
         23    2    1    2    0    0  0.83332226579E+00 -0.67817570241E+02 -0.11823111950E+03  0.16383962475E+03  0.90911538105E+02 0.  0.
        254    2    1    2    0    0 -0.83332226579E+00  0.67817570241E+02  0.40523922804E+04  0.41526574945E+04  0.90447838832E+03 0.  0.
        -24    2    4    4    0    0  0.25094246363E+03  0.22731601793E+03  0.65794513312E+03  0.74424883115E+03  0.79811229833E+02 0.  0.
         24    2    4    4    0    0 -0.25177578590E+03 -0.15949844769E+03  0.33944471473E+04  0.34084086634E+04  0.78405225526E+02 0.  0.
         13    1    3    3    0    0 -0.41435491823E+02 -0.18731581154E+02 -0.68296718710E+02  0.82050069480E+02  0.00000000000E+00 0. -1.
        -13    1    3    3    0    0  0.42268814088E+02 -0.49085989087E+02 -0.49934400791E+02  0.81789555271E+02  0.00000000000E+00 0.  1.
          2    1    6    6  502    0 -0.78708887784E+02 -0.92386246966E+02  0.11982145369E+04  0.12043456248E+04  0.00000000000E+00 0. -1.
          3    1    5    5  503    0  0.19854924974E+03  0.21567925811E+03  0.57569258828E+03  0.64603506341E+03  0.00000000000E+00 0. -1.
         -4    1    5    5    0  503  0.52393213891E+02  0.11636759817E+02  0.82252544841E+02  0.98213767740E+02  0.00000000000E+00 0.  1.
         -1    1    6    6    0  502 -0.17306689812E+03 -0.67112200724E+02  0.21962326105E+04  0.22040630386E+04  0.00000000000E+00 0.  1.
<mgrwt>
<rscale>  0 0.17760978E+04</rscale>
<asrwt>0</asrwt>
<pdfrwt beam="1">  1        2 0.63466596E+00 0.17760978E+04</pdfrwt>
<pdfrwt beam="2">  1       -2 0.29410461E-01 0.17760978E+04</pdfrwt>
<totfact> 0.27589158E+00</totfact>
</mgrwt>
</event>
<event>
12    1  0.1201209E-007  0.1288846E+04  0.7818608E-02  0.9038458E-01
          3   -1    0    0  501    0  0.00000000000E+00  0.00000000000E+00  0.16824189659E+03  0.16824189659E+03  0.00000000000E+00 0. -1.
         -3   -1    0    0    0  501 -0.00000000000E+00 -0.00000000000E+00 -0.24683548004E+04  0.24683548004E+04  0.00000000000E+00 0.  1.
         23    2    1    2    0    0 -0.15959411261E+03  0.89330424040E+02 -0.60370666115E+02  0.21371485705E+03  0.92624064679E+02 0.  0.
        254    2    1    2    0    0  0.15959411261E+03 -0.89330424040E+02 -0.22397422377E+04  0.24228818400E+04  0.90579297501E+03 0.  0.
        -24    2    4    4    0    0 -0.81017107404E+02 -0.19974296116E+03 -0.76592439539E+02  0.24214809134E+03  0.79424644289E+02 0.  0.
         24    2    4    4    0    0  0.24061122001E+03  0.11041253712E+03 -0.21631497982E+04  0.21807337486E+04  0.79359596147E+02 0.  0.
         11    1    3    3    0    0 -0.13246033105E+03  0.42865352791E+02 -0.93067370747E+01  0.13953420056E+03  0.00000000000E+00 0. -1.
        -11    1    3    3    0    0 -0.27133781562E+02  0.46465071249E+02 -0.51063929040E+02  0.74180656489E+02  0.00000000000E+00 0.  1.
          2    1    6    6  502    0  0.14080465375E+03  0.21564870504E+02 -0.11671707283E+04  0.11758309841E+04  0.00000000000E+00 0. -1.
          1    1    5    5  503    0 -0.11659713095E+02  0.51150883026E+01 -0.88527435834E+01  0.15507549992E+02  0.00000000000E+00 0. -1.
         -2    1    5    5    0  503 -0.69357394310E+02 -0.20485804946E+03 -0.67739695956E+02  0.22664054135E+03  0.00000000000E+00 0.  1.
         -1    1    6    6    0  502  0.99806566267E+02  0.88847666613E+02 -0.99597906983E+03  0.10049027645E+04  0.00000000000E+00 0.  1.
<mgrwt>
<rscale>  0 0.12888455E+04</rscale>
<asrwt>0</asrwt>
<pdfrwt beam="1">  1        3 0.25883370E-01 0.12888455E+04</pdfrwt>
<pdfrwt beam="2">  1       -3 0.37974687E+00 0.12888455E+04</pdfrwt>
<totfact> 0.51137250E-01</totfact>
</mgrwt>
</event>
<event>
12    1  0.1201209E-007  0.1921822E+04  0.7818608E-02  0.8644070E-01
          1   -1    0    0  501    0  0.00000000000E+00  0.00000000000E+00  0.10623176426E+04  0.10623176426E+04  0.00000000000E+00 0. -1.
         -1   -1    0    0    0  501 -0.00000000000E+00 -0.00000000000E+00 -0.86918485941E+03  0.86918485941E+03  0.00000000000E+00 0.  1.
         23    2    1    2    0    0  0.59530587390E+03 -0.77488629613E+02  0.53023473804E+03  0.80617935442E+03  0.91557101594E+02 0.  0.
        254    2    1    2    0    0 -0.59530587390E+03  0.77488629613E+02 -0.33710195486E+03  0.11253231476E+04  0.89012408534E+03 0.  0.
        -24    2    4    4    0    0  0.15665535926E+03  0.69035603884E+02 -0.31714123966E+03  0.36875519615E+03  0.78070561699E+02 0.  0.
         24    2    4    4    0    0 -0.75196123316E+03  0.84530257296E+01 -0.19960715202E+02  0.75656795144E+03  0.80495249399E+02 0.  0.
         13    1    3    3    0    0  0.12573611219E+03  0.17531803944E+02  0.13258508688E+03  0.18356399244E+03  0.00000000000E+00 0.  1.
        -13    1    3    3    0    0  0.46956976171E+03 -0.95020433557E+02  0.39764965116E+03  0.62261536198E+03  0.00000000000E+00 0. -1.
          4    1    6    6  502    0 -0.44070605436E+03  0.38701577981E+02 -0.32507354681E+02  0.44359482255E+03  0.00000000000E+00 0. -1.
          3    1    5    5  503    0  0.10817467930E+03  0.12291545085E+02 -0.22676339828E+03  0.25154419517E+03  0.00000000000E+00 0. -1.
         -4    1    5    5    0  503  0.48480679963E+02  0.56744058799E+02 -0.90377841377E+02  0.11721100098E+03  0.00000000000E+00 0.  1.
         -3    1    6    6    0  502 -0.31125517880E+03 -0.30248552252E+02  0.12546639479E+02  0.31297312889E+03  0.00000000000E+00 0.  1.
<mgrwt>
<rscale>  0 0.19218225E+04</rscale>
<asrwt>0</asrwt>
<pdfrwt beam="1">  1        1 0.16343348E+00 0.19218225E+04</pdfrwt>
<pdfrwt beam="2">  1       -1 0.13372075E+00 0.19218225E+04</pdfrwt>
<totfact> 0.59700771E+00</totfact>
</mgrwt>
</event>
<event>
12    1  0.1201209E-007  0.1495516E+04  0.7818608E-02  0.8887440E-01
         -2   -1    0    0    0  501 -0.00000000000E+00  0.00000000000E+00  0.44758138541E+03  0.44758138541E+03  0.00000000000E+00 0.  1.
          2   -1    0    0  501    0  0.00000000000E+00 -0.00000000000E+00 -0.12492521010E+04  0.12492521010E+04  0.00000000000E+00 0. -1.
         23    2    1    2    0    0  0.13450715366E+03  0.12603282407E+02  0.26707685673E+03  0.31473029070E+03  0.97334944252E+02 0.  0.
        254    2    1    2    0    0 -0.13450715366E+03 -0.12603282407E+02 -0.10687475723E+04  0.13821031957E+04  0.86587346255E+03 0.  0.
        -24    2    4    4    0    0  0.59562516524E+02 -0.19410889203E+03  0.54662054143E+02  0.22492014297E+03  0.79844694342E+02 0.  0.
         24    2    4    4    0    0 -0.19406967018E+03  0.18150560962E+03 -0.11234096265E+04  0.11571830528E+04  0.80100596134E+02 0.  0.
         11    1    3    3    0    0  0.27185248687E+02 -0.34254981050E+02  0.40142406886E+02  0.59362061146E+02  0.00000000000E+00 0. -1.
        -11    1    3    3    0    0  0.10732190497E+03  0.46858263458E+02  0.22693444985E+03  0.25536822956E+03  0.00000000000E+00 0.  1.
          4    1    6    6  502    0 -0.98770792425E+02  0.59608558448E+02 -0.61588745128E+03  0.62659891663E+03  0.00000000000E+00 0. -1.
          1    1    5    5  503    0  0.61591107836E+02 -0.99698166988E+02  0.57307621959E+02  0.13045057531E+03  0.00000000000E+00 0. -1.
         -2    1    5    5    0  503 -0.20285913120E+01 -0.94410725037E+02 -0.26455678164E+01  0.94469567660E+02  0.00000000000E+00 0.  1.
         -3    1    6    6    0  502 -0.95298877757E+02  0.12189705117E+03 -0.50752217520E+03  0.53058413612E+03  0.00000000000E+00 0.  1.
<mgrwt>
<rscale>  0 0.14955159E+04</rscale>
<asrwt>0</asrwt>
<pdfrwt beam="1">  1        2 0.19219263E+00 0.14955159E+04</pdfrwt>
<pdfrwt beam="2">  1       -2 0.68858675E-01 0.14955159E+04</pdfrwt>
<totfact> 0.32975155E+01</totfact>
</mgrwt>
</event>
<event>
12    1  0.1201209E-007  0.1881282E+04  0.7818608E-02  0.8664230E-01
          3   -1    0    0  501    0  0.00000000000E+00  0.00000000000E+00  0.29764288959E+04  0.29764288959E+04  0.00000000000E+00 0. -1.
         -3   -1    0    0    0  501 -0.00000000000E+00 -0.00000000000E+00 -0.29727082631E+03  0.29727082631E+03  0.00000000000E+00 0.  1.
         23    2    1    2    0    0 -0.45044965970E+03  0.74789276723E+02  0.76337980749E+02  0.47185489878E+03  0.91220756161E+02 0.  0.
        254    2    1    2    0    0  0.45044965970E+03 -0.74789276723E+02  0.26028200888E+04  0.28018448234E+04  0.93121623045E+03 0.  0.
        -24    2    4    4    0    0  0.48747305820E+03 -0.32041326019E+03  0.24002150845E+04  0.24713250116E+04  0.78231842721E+02 0.  0.
         24    2    4    4    0    0 -0.37023398497E+02  0.24562398347E+03  0.20260500434E+03  0.33051981185E+03  0.80577198697E+02 0.  0.
         11    1    3    3    0    0 -0.39642479536E+03  0.80767524935E+02  0.40151509754E+02  0.40655646004E+03  0.00000000000E+00 0.  1.
        -11    1    3    3    0    0 -0.54024864343E+02 -0.59782482123E+01  0.36186470995E+02  0.65298438741E+02  0.00000000000E+00 0. -1.
          4    1    6    6  502    0  0.19042131506E+02  0.14244978529E+03  0.11184663020E+03  0.18211044118E+03  0.00000000000E+00 0. -1.
          3    1    5    5  503    0  0.41707416529E+02 -0.39542368155E+01  0.17199430127E+03  0.17702311784E+03  0.00000000000E+00 0. -1.
         -4    1    5    5    0  503  0.44576564167E+03 -0.31645902337E+03  0.22282207832E+04  0.22943018937E+04  0.00000000000E+00 0.  1.
         -3    1    6    6    0  502 -0.56065530004E+02  0.10317419818E+03  0.90758374138E+02  0.14840937066E+03  0.00000000000E+00 0.  1.
<mgrwt>
<rscale>  0 0.18812820E+04</rscale>
<asrwt>0</asrwt>
<pdfrwt beam="1">  1        3 0.45791212E+00 0.18812820E+04</pdfrwt>
<pdfrwt beam="2">  1       -3 0.45733975E-01 0.18812820E+04</pdfrwt>
<totfact> 0.65210141E-02</totfact>
</mgrwt>
</event>
<event>
12    1  0.1201209E-007  0.1572564E+04  0.7818608E-02  0.8837582E-01
          1   -1    0    0  501    0  0.00000000000E+00  0.00000000000E+00  0.83384904122E+03  0.83384904122E+03  0.00000000000E+00 0. -1.
         -1   -1    0    0    0  501 -0.00000000000E+00 -0.00000000000E+00 -0.74142863392E+03  0.74142863392E+03  0.00000000000E+00 0.  1.
         23    2    1    2    0    0 -0.34047244411E+03 -0.17170449793E+03  0.39520509810E+03  0.55659888721E+03  0.90616399581E+02 0.  0.
        254    2    1    2    0    0  0.34047244411E+03  0.17170449793E+03 -0.30278469080E+03  0.10186787879E+04  0.89477594078E+03 0.  0.
        -24    2    4    4    0    0  0.37848004292E+03 -0.27194472695E+03 -0.31099298540E+03  0.56587886754E+03  0.79379961928E+02 0.  0.
         24    2    4    4    0    0 -0.38007598809E+02  0.44364922488E+03  0.82082946025E+01  0.45279992040E+03  0.81799630217E+02 0.  0.
         13    1    3    3    0    0 -0.75523967209E+02 -0.65220246749E+01  0.48321611193E+02  0.89896521274E+02  0.00000000000E+00 0. -1.
        -13    1    3    3    0    0 -0.26494847690E+03 -0.16518247326E+03  0.34688348690E+03  0.46670236594E+03  0.00000000000E+00 0.  1.
          4    1    6    6  502    0  0.10280212668E+00  0.65496064323E+02  0.30141407922E+02  0.72098886826E+02  0.00000000000E+00 0. -1.
          1    1    5    5  503    0  0.39762991782E+02 -0.43691320282E+02 -0.70150946384E+02  0.91712497851E+02  0.00000000000E+00 0. -1.
         -2    1    5    5    0  503  0.33871705113E+03 -0.22825340667E+03 -0.24084203902E+03  0.47416636969E+03  0.00000000000E+00 0.  1.
         -3    1    6    6    0  502 -0.38110400936E+02  0.37815316056E+03 -0.21933113319E+02  0.38070103357E+03  0.00000000000E+00 0.  1.
<mgrwt>
<rscale>  0 0.15725642E+04</rscale>
<asrwt>0</asrwt>
<pdfrwt beam="1">  1        1 0.12828447E+00 0.15725642E+04</pdfrwt>
<pdfrwt beam="2">  1       -1 0.11406594E+00 0.15725642E+04</pdfrwt>
<totfact> 0.13918431E+01</totfact>
</mgrwt>
</event>
<event>
12    1  0.1201209E-007  0.1067729E+04  0.7818608E-02  0.9237229E-01
         -1   -1    0    0    0  501 -0.00000000000E+00  0.00000000000E+00  0.49028437721E+03  0.49028437721E+03  0.00000000000E+00 0.  1.
          1   -1    0    0  501    0  0.00000000000E+00 -0.00000000000E+00 -0.58131857242E+03  0.58131857242E+03  0.00000000000E+00 0. -1.
         23    2    1    2    0    0 -0.22279568234E+02  0.11074766034E+03  0.71631733875E+02  0.16325939485E+03  0.93600754680E+02 0.  0.
        254    2    1    2    0    0  0.22279568234E+02 -0.11074766034E+03 -0.16266592909E+03  0.90834355478E+03  0.88649105217E+03 0.  0.
        -24    2    4    4    0    0  0.31522098459E+03 -0.20152040859E+03  0.19576327296E+03  0.42960830194E+03  0.79153583923E+02 0.  0.
         24    2    4    4    0    0 -0.29294141636E+03  0.90772748250E+02 -0.35842920205E+03  0.47873525283E+03  0.81618528424E+02 0.  0.
         13    1    3    3    0    0  0.24623638988E+02  0.26432202165E+01  0.28539953382E+02  0.37786758913E+02  0.00000000000E+00 0.  1.
        -13    1    3    3    0    0 -0.46903207222E+02  0.10810444013E+03  0.43091780494E+02  0.12547263594E+03  0.00000000000E+00 0. -1.
          2    1    6    6  502    0 -0.11400668549E+03  0.50741284619E+02 -0.20336816635E+03  0.23860178831E+03  0.00000000000E+00 0. -1.
          1    1    5    5  503    0  0.76114920761E+02 -0.87656839251E+02  0.77403562603E+02  0.13952961741E+03  0.00000000000E+00 0. -1.
         -2    1    5    5    0  503  0.23910606383E+03 -0.11386356934E+03  0.11835971036E+03  0.29007868454E+03  0.00000000000E+00 0.  1.
         -1    1    6    6    0  502 -0.17893473087E+03  0.40031463631E+02 -0.15506103570E+03  0.24013346453E+03  0.00000000000E+00 0.  1.
<mgrwt>
<rscale>  0 0.10677292E+04</rscale>
<asrwt>0</asrwt>
<pdfrwt beam="1">  1        1 0.89433627E-01 0.10677292E+04</pdfrwt>
<pdfrwt beam="2">  1       -1 0.75428366E-01 0.10677292E+04</pdfrwt>
<totfact> 0.63269739E+01</totfact>
</mgrwt>
</event>
<event>
12    1  0.1201209E-007  0.2275082E+04  0.7818608E-02  0.8487811E-01
         -2   -1    0    0    0  501 -0.00000000000E+00  0.00000000000E+00  0.46192716535E+03  0.46192716535E+03  0.00000000000E+00 0.  1.
          2   -1    0    0  501    0  0.00000000000E+00 -0.00000000000E+00 -0.28013071618E+04  0.28013071618E+04  0.00000000000E+00 0. -1.
         23    2    1    2    0    0  0.36067176097E+03 -0.63626001411E+03 -0.92800169249E+02  0.74286265083E+03  0.91225664563E+02 0.  0.
        254    2    1    2    0    0 -0.36067176097E+03  0.63626001411E+03 -0.22465798272E+04  0.25203716764E+04  0.87763405935E+03 0.  0.
        -24    2    4    4    0    0 -0.61594212669E+03  0.61409538451E+03 -0.16946973805E+04  0.19065300167E+04  0.79747405176E+02 0.  0.
         24    2    4    4    0    0  0.25527036571E+03  0.22164629597E+02 -0.55188244674E+03  0.61384165960E+03  0.81074765641E+02 0.  0.
         11    1    3    3    0    0  0.49213348674E+01 -0.91565382399E+01  0.10194431721E+02  0.14559813444E+02  0.00000000000E+00 0. -1.
        -11    1    3    3    0    0  0.35575042610E+03 -0.62710347587E+03 -0.10299460097E+03  0.72830283739E+03  0.00000000000E+00 0.  1.
          2    1    6    6  502    0  0.30157680297E+02 -0.19536117513E+02 -0.44482231733E+02  0.57182291912E+02  0.00000000000E+00 0. -1.
          3    1    5    5  503    0 -0.64253732853E+02  0.60500797477E+02 -0.23016636154E+03  0.24650647591E+03  0.00000000000E+00 0. -1.
         -4    1    5    5    0  503 -0.55168839383E+03  0.55359458703E+03 -0.14645310189E+04  0.16600235408E+04  0.00000000000E+00 0.  1.
         -1    1    6    6    0  502  0.22511268542E+03  0.41700747110E+02 -0.50740021501E+03  0.55665936769E+03  0.00000000000E+00 0.  1.
<mgrwt>
<rscale>  0 0.22750823E+04</rscale>
<asrwt>0</asrwt>
<pdfrwt beam="1">  1        2 0.43097032E+00 0.22750823E+04</pdfrwt>
<pdfrwt beam="2">  1       -2 0.71065719E-01 0.22750823E+04</pdfrwt>
<totfact> 0.37727115E+00</totfact>
</mgrwt>
</event>
<event>
12    1  0.1201209E-007  0.1849714E+04  0.7818608E-02  0.8680300E-01
          3   -1    0    0  501    0  0.00000000000E+00  0.00000000000E+00  0.69051819531E+03  0.69051819531E+03  0.00000000000E+00 0. -1.
         -3   -1    0    0    0  501 -0.00000000000E+00 -0.00000000000E+00 -0.12387225761E+04  0.12387225761E+04  0.00000000000E+00 0.  1.
         23    2    1    2    0    0  0.44386568830E+03 -0.22647957648E+03 -0.72004904811E+03  0.88012902283E+03  0.88581698657E+02 0.  0.
        254    2    1    2    0    0 -0.44386568830E+03  0.22647957648E+03  0.17184466730E+03  0.10491117486E+04  0.90708054966E+03 0.  0.
        -24    2    4    4    0    0 -0.16124679652E+03  0.37407824461E+03  0.45400686206E+03  0.61516208165E+03  0.79794068830E+02 0.  0.
         24    2    4    4    0    0 -0.28261889177E+03 -0.14759866814E+03 -0.28216219476E+03  0.43394966695E+03  0.83892815361E+02 0.  0.
         13    1    3    3    0    0  0.38574199987E+03 -0.21147629179E+03 -0.58163731876E+03  0.72926064135E+03  0.00000000000E+00 0.  1.
        -13    1    3    3    0    0  0.58123688427E+02 -0.15003284682E+02 -0.13841172935E+03  0.15086838148E+03  0.00000000000E+00 0. -1.
          4    1    6    6  502    0 -0.97031017179E+02 -0.42488991271E+02 -0.14791353166E+03  0.18193060634E+03  0.00000000000E+00 0. -1.
          3    1    5    5  503    0 -0.23302019373E+02  0.16073747838E+02  0.53597935317E+02  0.60614256958E+02  0.00000000000E+00 0. -1.
         -2    1    5    5    0  503 -0.13794477715E+03  0.35800449678E+03  0.40040892674E+03  0.55454782469E+03  0.00000000000E+00 0.  1.
         -3    1    6    6    0  502 -0.18558787460E+03 -0.10510967687E+03 -0.13424866310E+03  0.25201906061E+03  0.00000000000E+00 0.  1.
<mgrwt>
<rscale>  0 0.18497140E+04</rscale>
<asrwt>0</asrwt>
<pdfrwt beam="1">  1        3 0.10623357E+00 0.18497140E+04</pdfrwt>
<pdfrwt beam="2">  1       -3 0.19057270E+00 0.18497140E+04</pdfrwt>
<totfact> 0.31401160E-01</totfact>
</mgrwt>
</event>
<event>
12    1  0.1201209E-007  0.2243440E+04  0.7818608E-02  0.8500562E-01
         -4   -1    0    0    0  501 -0.00000000000E+00  0.00000000000E+00  0.39321617460E+04  0.39321617460E+04  0.00000000000E+00 0. -1.
          4   -1    0    0  501    0  0.00000000000E+00 -0.00000000000E+00 -0.31999075706E+03  0.31999075706E+03  0.00000000000E+00 0.  1.
         23    2    1    2    0    0  0.15551534025E+03 -0.10081807893E+03 -0.22281375166E+03  0.30768401337E+03  0.10331591391E+03 0.  0.
        254    2    1    2    0    0 -0.15551534025E+03  0.10081807893E+03  0.38349847406E+04  0.39444684897E+04  0.90408760603E+03 0.  0.
        -24    2    4    4    0    0 -0.18493756568E+03  0.13656531015E+03  0.38425413023E+04  0.38502104995E+04  0.78391604809E+02 0.  0.
         24    2    4    4    0    0  0.29422225429E+02 -0.35747231221E+02 -0.75565617291E+01  0.94257990120E+02  0.81755337362E+02 0.  0.
         13    1    3    3    0    0  0.11603207378E+03 -0.22998402107E+02 -0.89427131907E+02  0.14828884168E+03  0.00000000000E+00 0.  1.
        -13    1    3    3    0    0  0.39483266471E+02 -0.77819676819E+02 -0.13338661975E+03  0.15939517170E+03  0.00000000000E+00 0. -1.
          4    1    6    6  502    0  0.11360784931E+02 -0.40152214110E+01  0.35684294069E+02  0.37663752873E+02  0.00000000000E+00 0. -1.
          3    1    5    5  503    0 -0.92136336717E+02  0.49917918077E+02  0.11800086489E+04  0.11846524024E+04  0.00000000000E+00 0. -1.
         -4    1    5    5    0  503 -0.92801228963E+02  0.86647392070E+02  0.26625326534E+04  0.26655580971E+04  0.00000000000E+00 0.  1.
         -1    1    6    6    0  502  0.18061440497E+02 -0.31732009810E+02 -0.43240855798E+02  0.56594237247E+02  0.00000000000E+00 0.  1.
<mgrwt>
<rscale>  0 0.22434397E+04</rscale>
<asrwt>0</asrwt>
<pdfrwt beam="1">  1        4 0.49229350E-01 0.22434397E+04</pdfrwt>
<pdfrwt beam="2">  1       -4 0.60494792E+00 0.22434397E+04</pdfrwt>
<totfact> 0.11075135E-03</totfact>
</mgrwt>
</event>
<event>
12    1  0.1201209E-007  0.1305831E+04  0.7818608E-02  0.9024954E-01
         -2   -1    0    0    0  501 -0.00000000000E+00  0.00000000000E+00  0.29114326425E+03  0.29114326425E+03  0.00000000000E+00 0.  1.
          2   -1    0    0  501    0  0.00000000000E+00 -0.00000000000E+00 -0.14642219866E+04  0.14642219866E+04  0.00000000000E+00 0. -1.
         23    2    1    2    0    0  0.30794084467E+03  0.85909226734E+02 -0.43714516071E+03  0.55010787171E+03  0.96513314743E+02 0.  0.
        254    2    1    2    0    0 -0.30794084467E+03 -0.85909226734E+02 -0.73593356168E+03  0.12052573792E+04  0.89935487089E+03 0.  0.
        -24    2    4    4    0    0 -0.51535708539E+02 -0.89396708071E+02 -0.88773314693E+03  0.89727626093E+03  0.79917755319E+02 0.  0.
         24    2    4    4    0    0 -0.25640513614E+03  0.34874813366E+01  0.15179958525E+03  0.30798111824E+03  0.77804233489E+02 0.  0.
         13    1    3    3    0    0  0.15513776125E+03  0.31434840389E+02 -0.13887000589E+03  0.21057244048E+03  0.00000000000E+00 0. -1.
        -13    1    3    3    0    0  0.15280308343E+03  0.54474386345E+02 -0.29827515482E+03  0.33953543122E+03  0.00000000000E+00 0.  1.
          2    1    6    6  502    0 -0.15802407610E+02  0.49829442583E+01 -0.87391210123E+01  0.18732806940E+02  0.00000000000E+00 0. -1.
          3    1    5    5  503    0 -0.98425553296E+01 -0.80207076119E+02 -0.42775664760E+03  0.43532263957E+03  0.00000000000E+00 0. -1.
         -4    1    5    5    0  503 -0.41693153209E+02 -0.91896319517E+01 -0.45997649933E+03  0.46195362137E+03  0.00000000000E+00 0.  1.
         -1    1    6    6    0  502 -0.24060272853E+03 -0.14954629217E+01  0.16053870626E+03  0.28924831130E+03  0.00000000000E+00 0.  1.
<mgrwt>
<rscale>  0 0.13058306E+04</rscale>
<asrwt>0</asrwt>
<pdfrwt beam="1">  1        2 0.22526492E+00 0.13058306E+04</pdfrwt>
<pdfrwt beam="2">  1       -2 0.44791272E-01 0.13058306E+04</pdfrwt>
<totfact> 0.61576494E+01</totfact>
</mgrwt>
</event>
<event>
12    1  0.1201209E-007  0.1594326E+04  0.7818608E-02  0.8824041E-01
          2   -1    0    0  501    0  0.00000000000E+00  0.00000000000E+00  0.94654414718E+03  0.94654414718E+03  0.00000000000E+00 0. -1.
         -2   -1    0    0    0  501 -0.00000000000E+00 -0.00000000000E+00 -0.67135716994E+03  0.67135716994E+03  0.00000000000E+00 0.  1.
         23    2    1    2    0    0 -0.22672188467E+03  0.30675103286E+03 -0.28917670410E+03  0.48619490624E+03  0.85225063844E+02 0.  0.
        254    2    1    2    0    0  0.22672188467E+03 -0.30675103286E+03  0.56436368134E+03  0.11317064109E+04  0.90374444755E+03 0.  0.
        -24    2    4    4    0    0 -0.32455368005E+03 -0.25061622057E+03  0.18850642982E+03  0.45735931895E+03  0.74157206692E+02 0.  0.
         24    2    4    4    0    0  0.55127556471E+03 -0.56134812297E+02  0.37585725151E+03  0.67434709194E+03  0.80121541966E+02 0.  0.
         13    1    3    3    0    0 -0.41175937756E+02  0.39898244000E+02 -0.10987731923E+02  0.58378574642E+02  0.00000000000E+00 0. -1.
        -13    1    3    3    0    0 -0.18554594691E+03  0.26685278886E+03 -0.27818897218E+03  0.42781633159E+03  0.00000000000E+00 0.  1.
          2    1    6    6  502    0  0.13326958893E+03  0.20660286207E+02  0.87799414474E+02  0.16092348474E+03  0.00000000000E+00 0. -1.
          1    1    5    5  503    0 -0.70478510996E+01 -0.26806627525E+02  0.18520745540E+02  0.33335949061E+02  0.00000000000E+00 0. -1.
         -4    1    5    5    0  503 -0.31750582895E+03 -0.22380959304E+03  0.16998568428E+03  0.42402336989E+03  0.00000000000E+00 0.  1.
         -1    1    6    6    0  502  0.41800597578E+03 -0.76795098503E+02  0.28805783704E+03  0.51342360719E+03  0.00000000000E+00 0.  1.
<mgrwt>
<rscale>  0 0.15943264E+04</rscale>
<asrwt>0</asrwt>
<pdfrwt beam="1">  1        2 0.14562218E+00 0.15943264E+04</pdfrwt>
<pdfrwt beam="2">  1       -2 0.10328572E+00 0.15943264E+04</pdfrwt>
<totfact> 0.20025645E+01</totfact>
</mgrwt>
</event>
<event>
12    1  0.1201209E-007  0.1606288E+04  0.7818608E-02  0.8816694E-01
          1   -1    0    0  501    0  0.00000000000E+00  0.00000000000E+00  0.48362575677E+03  0.48362575677E+03  0.00000000000E+00 0. -1.
         -1   -1    0    0    0  501 -0.00000000000E+00 -0.00000000000E+00 -0.13337598223E+04  0.13337598223E+04  0.00000000000E+00 0.  1.
         23    2    1    2    0    0 -0.24326364001E+03 -0.47178910826E+03 -0.15061673028E+03  0.55916423634E+03  0.90648124852E+02 0.  0.
        254    2    1    2    0    0  0.24326364001E+03  0.47178910826E+03 -0.69951733525E+03  0.12582213427E+04  0.90112944896E+03 0.  0.
        -24    2    4    4    0    0  0.52286870855E+03  0.36531030188E+03 -0.69654527026E+03  0.94820798376E+03  0.84141332868E+02 0.  0.
         24    2    4    4    0    0 -0.27960506854E+03  0.10647880637E+03 -0.29720649810E+01  0.31001335897E+03  0.81133957206E+02 0.  0.
         13    1    3    3    0    0 -0.16360687860E+03 -0.38408420737E+03 -0.13948307529E+03  0.44016294411E+03  0.00000000000E+00 0. -1.
        -13    1    3    3    0    0 -0.79656761416E+02 -0.87704900881E+02 -0.11133654992E+02  0.11900129223E+03  0.00000000000E+00 0.  1.
          4    1    6    6  502    0 -0.12203153872E+03  0.16675815056E+02 -0.29677663592E+02  0.12669073749E+03  0.00000000000E+00 0. -1.
          3    1    5    5  503    0  0.28816464175E+02 -0.44558722136E-01 -0.34443073117E+02  0.44907859877E+02  0.00000000000E+00 0. -1.
         -4    1    5    5    0  503  0.49405224438E+03  0.36535486060E+03 -0.66210219715E+03  0.90330012388E+03  0.00000000000E+00 0.  1.
         -3    1    6    6    0  502 -0.15757352982E+03  0.89802991318E+02  0.26705598611E+02  0.18332262148E+03  0.00000000000E+00 0.  1.
<mgrwt>
<rscale>  0 0.16062884E+04</rscale>
<asrwt>0</asrwt>
<pdfrwt beam="1">  1        1 0.74403962E-01 0.16062884E+04</pdfrwt>
<pdfrwt beam="2">  1       -1 0.20519382E+00 0.16062884E+04</pdfrwt>
<totfact> 0.61684896E+00</totfact>
</mgrwt>
</event>
<event>
12    1  0.1201209E-007  0.1512036E+04  0.7818608E-02  0.8876488E-01
          1   -1    0    0  501    0  0.00000000000E+00  0.00000000000E+00  0.64920135334E+03  0.64920135334E+03  0.00000000000E+00 0. -1.
         -1   -1    0    0    0  501 -0.00000000000E+00 -0.00000000000E+00 -0.88040997672E+03  0.88040997672E+03  0.00000000000E+00 0.  1.
         23    2    1    2    0    0 -0.33822752997E+03  0.26301220890E+03  0.14660023693E+03  0.46203320165E+03  0.91704775767E+02 0.  0.
        254    2    1    2    0    0  0.33822752997E+03 -0.26301220890E+03 -0.37780886031E+03  0.10675781284E+04  0.90189258854E+03 0.  0.
        -24    2    4    4    0    0  0.31341893256E+03 -0.56049654003E+03 -0.39386435474E+03  0.75746426203E+03  0.78963153718E+02 0.  0.
         24    2    4    4    0    0  0.24808597405E+02  0.29748433113E+03  0.16055494432E+02  0.31011386637E+03  0.82464764858E+02 0.  0.
         11    1    3    3    0    0 -0.26428456199E+03  0.21444131163E+03  0.75693924651E+02  0.34865595660E+03  0.00000000000E+00 0. -1.
        -11    1    3    3    0    0 -0.73942967975E+02  0.48570897270E+02  0.70906312276E+02  0.11337724505E+03  0.00000000000E+00 0.  1.
          2    1    6    6  502    0 -0.82876641678E+01  0.24492566721E+03  0.28662559131E+02  0.24673631701E+03  0.00000000000E+00 0. -1.
          1    1    5    5  503    0  0.18097788159E+03 -0.38979621315E+03 -0.24012786560E+03  0.49229612354E+03  0.00000000000E+00 0. -1.
         -4    1    5    5    0  503  0.13244105097E+03 -0.17070032688E+03 -0.15373648915E+03  0.26516813850E+03  0.00000000000E+00 0.  1.
         -1    1    6    6    0  502  0.33096261573E+02  0.52558663922E+02 -0.12607064699E+02  0.63377549367E+02  0.00000000000E+00 0.  1.
<mgrwt>
<rscale>  0 0.15120362E+04</rscale>
<asrwt>0</asrwt>
<pdfrwt beam="1">  1        1 0.99877132E-01 0.15120362E+04</pdfrwt>
<pdfrwt beam="2">  1       -1 0.13544769E+00 0.15120362E+04</pdfrwt>
<totfact> 0.13470705E+01</totfact>
</mgrwt>
</event>
<event>
12    1  0.1201209E-007  0.2003263E+04  0.7818608E-02  0.8605096E-01
         -1   -1    0    0    0  501 -0.00000000000E+00  0.00000000000E+00  0.16270240137E+04  0.16270240137E+04  0.00000000000E+00 0.  1.
          1   -1    0    0  501    0  0.00000000000E+00 -0.00000000000E+00 -0.61662652230E+03  0.61662652230E+03  0.00000000000E+00 0. -1.
         23    2    1    2    0    0  0.10747610611E+03  0.77175625765E+02  0.12775914507E+04  0.12882406437E+04  0.99080021038E+02 0.  0.
        254    2    1    2    0    0 -0.10747610611E+03 -0.77175625765E+02 -0.26719395939E+03  0.95540989220E+03  0.90769392396E+03 0.  0.
        -24    2    4    4    0    0 -0.38452073517E+03 -0.33518352857E+02  0.17038558273E+03  0.42914118490E+03  0.78429803158E+02 0.  0.
         24    2    4    4    0    0  0.27704462906E+03 -0.43657272908E+02 -0.43757954212E+03  0.52626870730E+03  0.82602739878E+02 0.  0.
         13    1    3    3    0    0  0.33733187946E+01 -0.21546206862E-01 -0.65867194215E+00  0.34370907257E+01  0.00000000000E+00 0. -1.
        -13    1    3    3    0    0  0.10410278731E+03  0.77197171972E+02  0.12782501227E+04  0.12848035530E+04  0.00000000000E+00 0.  1.
          2    1    6    6  502    0  0.20178249285E+02 -0.17795821906E+02 -0.14292386182E+02  0.30465149340E+02  0.00000000000E+00 0. -1.
          3    1    5    5  503    0 -0.27185413477E+03  0.12550843986E+02  0.11720557410E+03  0.29630953558E+03  0.00000000000E+00 0. -1.
         -4    1    5    5    0  503 -0.11266660039E+03 -0.46069196843E+02  0.53180008632E+02  0.13283164932E+03  0.00000000000E+00 0.  1.
         -1    1    6    6    0  502  0.25686637978E+03 -0.25861451002E+02 -0.42328715594E+03  0.49580355796E+03  0.00000000000E+00 0.  1.
<mgrwt>
<rscale>  0 0.20032635E+04</rscale>
<asrwt>0</asrwt>
<pdfrwt beam="1">  1        1 0.94865619E-01 0.20032635E+04</pdfrwt>
<pdfrwt beam="2">  1       -1 0.25031139E+00 0.20032635E+04</pdfrwt>
<totfact> 0.21181421E+00</totfact>
</mgrwt>
</event>
<event>
12    1  0.1201209E-007  0.1252168E+04  0.7818608E-02  0.9068381E-01
         -2   -1    0    0    0  501 -0.00000000000E+00  0.00000000000E+00  0.54354223895E+03  0.54354223895E+03  0.00000000000E+00 0.  1.
          2   -1    0    0  501    0  0.00000000000E+00 -0.00000000000E+00 -0.72116003752E+03  0.72116003752E+03  0.00000000000E+00 0. -1.
         23    2    1    2    0    0  0.17328516412E+03  0.18642804665E+03 -0.13537265626E+03  0.30263754916E+03  0.92089985421E+02 0.  0.
        254    2    1    2    0    0 -0.17328516412E+03 -0.18642804665E+03 -0.42245142302E+02  0.96206472732E+03  0.92682291880E+03 0.  0.
        -24    2    4    4    0    0  0.27404338915E+03 -0.23783068905E+02  0.26520971568E+03  0.38977268880E+03  0.76948957978E+02 0.  0.
         24    2    4    4    0    0 -0.44732855327E+03 -0.16264497774E+03 -0.30745485799E+03  0.57229203852E+03  0.80208879174E+02 0.  0.
         13    1    3    3    0    0  0.81939437962E+01  0.28848876832E+02 -0.51295305905E+02  0.59418909594E+02  0.00000000000E+00 0.  1.
        -13    1    3    3    0    0  0.16509122032E+03  0.15757916981E+03 -0.84077350360E+02  0.24321863956E+03  0.00000000000E+00 0. -1.
          2    1    6    6  502    0 -0.26289039133E+03 -0.74794713725E+02 -0.13452168745E+03  0.30463370045E+03  0.00000000000E+00 0. -1.
          3    1    5    5  503    0  0.97802385727E+02  0.16278760457E+02  0.58207487668E+02  0.11497137173E+03  0.00000000000E+00 0. -1.
         -4    1    5    5    0  503  0.17624100343E+03 -0.40061829362E+02  0.20700222802E+03  0.27480131707E+03  0.00000000000E+00 0.  1.
         -1    1    6    6    0  502 -0.18443816194E+03 -0.87850264016E+02 -0.17293317053E+03  0.26765833807E+03  0.00000000000E+00 0.  1.
<mgrwt>
<rscale>  0 0.12521676E+04</rscale>
<asrwt>0</asrwt>
<pdfrwt beam="1">  1        2 0.11094770E+00 0.12521676E+04</pdfrwt>
<pdfrwt beam="2">  1       -2 0.83621883E-01 0.12521676E+04</pdfrwt>
<totfact> 0.48531576E+01</totfact>
</mgrwt>
</event>
<event>
12    1  0.1201209E-007  0.2926316E+04  0.7818608E-02  0.8265091E-01
         -2   -1    0    0    0  501 -0.00000000000E+00  0.00000000000E+00  0.15237363462E+04  0.15237363462E+04  0.00000000000E+00 0.  1.
          2   -1    0    0  501    0  0.00000000000E+00 -0.00000000000E+00 -0.14049875796E+04  0.14049875796E+04  0.00000000000E+00 0. -1.
         23    2    1    2    0    0  0.46926627405E+03 -0.96874136330E+03 -0.71630615205E+03  0.12961835532E+04  0.91250398678E+02 0.  0.
        254    2    1    2    0    0 -0.46926627405E+03  0.96874136330E+03  0.83505491871E+03  0.16325403726E+04  0.89955582699E+03 0.  0.
        -24    2    4    4    0    0 -0.71013348956E+03  0.87213464014E+03  0.71540460147E+03  0.13352962176E+04  0.79396733823E+02 0.  0.
         24    2    4    4    0    0  0.24086721550E+03  0.96606723160E+02  0.11965031724E+03  0.29724415500E+03  0.81780283681E+02 0.  0.
         13    1    3    3    0    0  0.41704261813E+03 -0.80950725633E+03 -0.57485703080E+03  0.10768877143E+04  0.00000000000E+00 0. -1.
        -13    1    3    3    0    0  0.52223655920E+02 -0.15923410698E+03 -0.14144912125E+03  0.21929583892E+03  0.00000000000E+00 0.  1.
          4    1    6    6  502    0  0.15234383590E+03  0.66370001911E+02  0.32354086284E+02  0.16929385219E+03  0.00000000000E+00 0. -1.
          1    1    5    5  503    0 -0.34166103493E+03  0.37106109428E+03  0.34991259424E+03  0.61388714117E+03  0.00000000000E+00 0. -1.
         -2    1    5    5    0  503 -0.36847245462E+03  0.50107354586E+03  0.36549200723E+03  0.72140907641E+03  0.00000000000E+00 0.  1.
         -3    1    6    6    0  502  0.88523379602E+02  0.30236721250E+02  0.87296230958E+02  0.12795030280E+03  0.00000000000E+00 0.  1.
<mgrwt>
<rscale>  0 0.29263155E+04</rscale>
<asrwt>0</asrwt>
<pdfrwt beam="1">  1        2 0.21615194E+00 0.29263155E+04</pdfrwt>
<pdfrwt beam="2">  1       -2 0.23442098E+00 0.29263155E+04</pdfrwt>
<totfact> 0.99332708E-01</totfact>
</mgrwt>
</event>
<event>
12    1  0.1201209E-007  0.1753172E+04  0.7818608E-02  0.8731606E-01
          1   -1    0    0  501    0  0.00000000000E+00  0.00000000000E+00  0.91662662521E+03  0.91662662521E+03  0.00000000000E+00 0. -1.
         -1   -1    0    0    0  501 -0.00000000000E+00 -0.00000000000E+00 -0.83829482120E+03  0.83829482120E+03  0.00000000000E+00 0.  1.
         23    2    1    2    0    0 -0.13175845448E+02 -0.30791850144E+03  0.58732079304E+03  0.66963682915E+03  0.92088884131E+02 0.  0.
        254    2    1    2    0    0  0.13175845448E+02  0.30791850144E+03 -0.50898898903E+03  0.10852846173E+04  0.90762630144E+03 0.  0.
        -24    2    4    4    0    0  0.23040185729E+02 -0.72757695419E+02  0.22718284653E+03  0.25208683477E+03  0.78174126830E+02 0.  0.
         24    2    4    4    0    0 -0.98643402809E+01  0.38067619686E+03 -0.73617183556E+03  0.83319778249E+03  0.85193316654E+02 0.  0.
         13    1    3    3    0    0 -0.40710679456E+02 -0.22425674641E+03  0.47542454888E+03  0.52723519364E+03  0.00000000000E+00 0. -1.
        -13    1    3    3    0    0  0.27534834008E+02 -0.83661755033E+02  0.11189624416E+03  0.14240163551E+03  0.00000000000E+00 0.  1.
          2    1    6    6  502    0  0.18967413693E+02  0.18110155158E+03 -0.27444298399E+03  0.32935768737E+03  0.00000000000E+00 0. -1.
          3    1    5    5  503    0  0.26621002941E+02 -0.41011017378E+01  0.19314375908E+02  0.33144259680E+02  0.00000000000E+00 0. -1.
         -4    1    5    5    0  503 -0.35808172119E+01 -0.68656593681E+02  0.20786847062E+03  0.21894257509E+03  0.00000000000E+00 0.  1.
         -1    1    6    6    0  502 -0.28831753974E+02  0.19957464528E+03 -0.46172885157E+03  0.50384009512E+03  0.00000000000E+00 0.  1.
<mgrwt>
<rscale>  0 0.17531724E+04</rscale>
<asrwt>0</asrwt>
<pdfrwt beam="1">  1        1 0.14101948E+00 0.17531724E+04</pdfrwt>
<pdfrwt beam="2">  1       -1 0.12896843E+00 0.17531724E+04</pdfrwt>
<totfact> 0.86468250E+00</totfact>
</mgrwt>
</event>
<event>
12    1  0.1201209E-007  0.1968122E+04  0.7818608E-02  0.8621671E-01
         -2   -1    0    0    0  501 -0.00000000000E+00  0.00000000000E+00  0.95728565148E+03  0.95728565148E+03  0.00000000000E+00 0. -1.
          2   -1    0    0  501    0  0.00000000000E+00 -0.00000000000E+00 -0.10115852649E+04  0.10115852649E+04  0.00000000000E+00 0.  1.
         23    2    1    2    0    0 -0.37613376312E+03 -0.31620787223E+03  0.58363773489E+03  0.76846327404E+03  0.91862787619E+02 0.  0.
        254    2    1    2    0    0  0.37613376312E+03  0.31620787223E+03 -0.63793734827E+03  0.12004076423E+04  0.89025300963E+03 0.  0.
        -24    2    4    4    0    0 -0.17712947125E+03  0.31732091549E+03 -0.50299494189E+03  0.62553375970E+03  0.78874330170E+02 0.  0.
         24    2    4    4    0    0  0.55326323437E+03 -0.11130432642E+01 -0.13494240637E+03  0.57487388260E+03  0.78543506947E+02 0.  0.
         11    1    3    3    0    0 -0.24234112388E+03 -0.21769596548E+03  0.31865015051E+03  0.45569581096E+03  0.00000000000E+00 0. -1.
        -11    1    3    3    0    0 -0.13379263924E+03 -0.98511906746E+02  0.26498758438E+03  0.31276746308E+03  0.00000000000E+00 0.  1.
          2    1    6    6  502    0  0.53266442699E+03 -0.87652173651E+01 -0.11458724278E+03  0.54492059699E+03  0.00000000000E+00 0. -1.
          1    1    5    5  503    0 -0.12375133878E+03  0.28122096412E+03 -0.42313929231E+03  0.52292110801E+03  0.00000000000E+00 0. -1.
         -2    1    5    5    0  503 -0.53378132477E+02  0.36099951368E+02 -0.79855649587E+02  0.10261265169E+03  0.00000000000E+00 0.  1.
         -1    1    6    6    0  502  0.20598807385E+02  0.76521741008E+01 -0.20355163589E+02  0.29953285611E+02  0.00000000000E+00 0.  1.
<mgrwt>
<rscale>  0 0.19681220E+04</rscale>
<asrwt>0</asrwt>
<pdfrwt beam="1">  1        2 0.15562850E+00 0.19681220E+04</pdfrwt>
<pdfrwt beam="2">  1       -2 0.14727472E+00 0.19681220E+04</pdfrwt>
<totfact> 0.72532805E+00</totfact>
</mgrwt>
</event>
<event>
12    1  0.1201209E-007  0.1890114E+04  0.7818608E-02  0.8659793E-01
          1   -1    0    0  501    0  0.00000000000E+00  0.00000000000E+00  0.71342864428E+03  0.71342864428E+03  0.00000000000E+00 0. -1.
         -1   -1    0    0    0  501 -0.00000000000E+00 -0.00000000000E+00 -0.12518885696E+04  0.12518885696E+04  0.00000000000E+00 0.  1.
         23    2    1    2    0    0  0.29182645335E+03 -0.51453493207E+03  0.23451368336E+03  0.64288022235E+03  0.91593872143E+02 0.  0.
        254    2    1    2    0    0 -0.29182645335E+03  0.51453493207E+03 -0.77297360870E+03  0.13224369916E+04  0.89523322195E+03 0.  0.
        -24    2    4    4    0    0 -0.34735903937E+03  0.69030295897E+03 -0.80813679274E+03  0.11209810479E+04  0.79605003777E+02 0.  0.
         24    2    4    4    0    0  0.55532586014E+02 -0.17576802690E+03  0.35163184042E+02  0.20145594363E+03  0.73278784925E+02 0.  0.
         13    1    3    3    0    0  0.21209177306E+03 -0.44332590915E+03  0.19937284115E+03  0.53034923561E+03  0.00000000000E+00 0. -1.
        -13    1    3    3    0    0  0.79734680291E+02 -0.71209022921E+02  0.35140842207E+02  0.11253098674E+03  0.00000000000E+00 0.  1.
          4    1    6    6  502    0  0.69069242195E+02 -0.14940199791E+03  0.14307826737E+02  0.16521571082E+03  0.00000000000E+00 0. -1.
          1    1    5    5  503    0 -0.19048844010E+03  0.42584780168E+03 -0.43937190003E+03  0.64084308731E+03  0.00000000000E+00 0. -1.
         -2    1    5    5    0  503 -0.15687059927E+03  0.26445515729E+03 -0.36876489271E+03  0.48013796062E+03  0.00000000000E+00 0.  1.
         -3    1    6    6    0  502 -0.13536656181E+02 -0.26366028996E+02  0.20855357304E+02  0.36240232806E+02  0.00000000000E+00 0.  1.
<mgrwt>
<rscale>  0 0.18901145E+04</rscale>
<asrwt>0</asrwt>
<pdfrwt beam="1">  1        1 0.10975825E+00 0.18901145E+04</pdfrwt>
<pdfrwt beam="2">  1       -1 0.19259824E+00 0.18901145E+04</pdfrwt>
<totfact> 0.41983517E+00</totfact>
</mgrwt>
</event>
<event>
12    1  0.1201209E-007  0.1978808E+04  0.7818608E-02  0.8616593E-01
         -1   -1    0    0    0  501 -0.00000000000E+00  0.00000000000E+00  0.12589053316E+04  0.12589053316E+04  0.00000000000E+00 0.  1.
          1   -1    0    0  501    0  0.00000000000E+00 -0.00000000000E+00 -0.77759640443E+03  0.77759640443E+03  0.00000000000E+00 0. -1.
         23    2    1    2    0    0  0.67739210782E+03  0.35066498471E+03  0.41722586308E+02  0.76898663147E+03  0.88168395305E+02 0.  0.
        254    2    1    2    0    0 -0.67739210782E+03 -0.35066498471E+03  0.43958634084E+03  0.12675151045E+04  0.91188397833E+03 0.  0.
        -24    2    4    4    0    0 -0.75064508674E+02 -0.35568851717E+03  0.53565751519E+03  0.65218970853E+03  0.79205054311E+02 0.  0.
         24    2    4    4    0    0 -0.60232759915E+03  0.50235324571E+01 -0.96071174348E+02  0.61532539601E+03  0.81067255149E+02 0.  0.
         11    1    3    3    0    0  0.65908157988E+03  0.35014931857E+03  0.51735686003E+02  0.74811072405E+03  0.00000000000E+00 0. -1.
        -11    1    3    3    0    0  0.18310527938E+02  0.51566613796E+00 -0.10013099695E+02  0.20875907416E+02  0.00000000000E+00 0.  1.
          2    1    6    6  502    0 -0.25972148015E+03  0.31069499871E+02 -0.69809432412E+02  0.27072849486E+03  0.00000000000E+00 0. -1.
          3    1    5    5  503    0 -0.91649403566E+02 -0.30969554682E+03  0.45802589432E+03  0.56044505954E+03  0.00000000000E+00 0. -1.
         -4    1    5    5    0  503  0.16584894892E+02 -0.45992970350E+02  0.77631620870E+02  0.91744648995E+02  0.00000000000E+00 0.  1.
         -1    1    6    6    0  502 -0.34260611899E+03 -0.26045967414E+02 -0.26261741936E+02  0.34459690115E+03  0.00000000000E+00 0.  1.
<mgrwt>
<rscale>  0 0.19788080E+04</rscale>
<asrwt>0</asrwt>
<pdfrwt beam="1">  1        1 0.11963022E+00 0.19788080E+04</pdfrwt>
<pdfrwt beam="2">  1       -1 0.19367774E+00 0.19788080E+04</pdfrwt>
<totfact> 0.35800982E+00</totfact>
</mgrwt>
</event>
<event>
12    1  0.1201209E-007  0.1421252E+04  0.7818608E-02  0.8938578E-01
          2   -1    0    0  501    0  0.00000000000E+00  0.00000000000E+00  0.26052848579E+04  0.26052848579E+04  0.00000000000E+00 0. -1.
         -2   -1    0    0    0  501 -0.00000000000E+00 -0.00000000000E+00 -0.19383256419E+03  0.19383256419E+03  0.00000000000E+00 0.  1.
         23    2    1    2    0    0 -0.33376827185E+03  0.20395332757E+03  0.70408788525E+03  0.81070838078E+03  0.92250254185E+02 0.  0.
        254    2    1    2    0    0  0.33376827185E+03 -0.20395332757E+03  0.17073644085E+04  0.19884090413E+04  0.94110524022E+03 0.  0.
        -24    2    4    4    0    0  0.34234194931E+03  0.32112670851E+03  0.96350974269E+03  0.10746005510E+04  0.78070140455E+02 0.  0.
         24    2    4    4    0    0 -0.85736774581E+01 -0.52508003608E+03  0.74385466581E+03  0.91380849032E+03  0.77095012157E+02 0.  0.
         13    1    3    3    0    0 -0.31833147525E+03  0.16666781355E+03  0.65571019669E+03  0.74770913479E+03  0.00000000000E+00 0.  1.
        -13    1    3    3    0    0 -0.15436796599E+02  0.37285514021E+02  0.48377688553E+02  0.62999245986E+02  0.00000000000E+00 0. -1.
          2    1    6    6  502    0  0.64921207802E+01 -0.42455918850E+03  0.64355769893E+03  0.77101177943E+03  0.00000000000E+00 0. -1.
          3    1    5    5  503    0  0.23048262800E+03  0.25441974266E+03  0.64927874086E+03  0.73444845333E+03  0.00000000000E+00 0. -1.
         -4    1    5    5    0  503  0.11185932131E+03  0.66706965855E+02  0.31423100183E+03  0.34015209770E+03  0.00000000000E+00 0.  1.
         -1    1    6    6    0  502 -0.15065798238E+02 -0.10052084758E+03  0.10029696688E+03  0.14279671089E+03  0.00000000000E+00 0.  1.
<mgrwt>
<rscale>  0 0.14212516E+04</rscale>
<asrwt>0</asrwt>
<pdfrwt beam="1">  1        2 0.40081303E+00 0.14212516E+04</pdfrwt>
<pdfrwt beam="2">  1       -2 0.29820396E-01 0.14212516E+04</pdfrwt>
<totfact> 0.30584331E+01</totfact>
</mgrwt>
</event>
<event>
12    1  0.1201209E-007  0.1373690E+04  0.7818608E-02  0.8973087E-01
          1   -1    0    0  501    0  0.00000000000E+00  0.00000000000E+00  0.47267804952E+03  0.47267804952E+03  0.00000000000E+00 0. -1.
         -1   -1    0    0    0  501 -0.00000000000E+00 -0.00000000000E+00 -0.99804885113E+03  0.99804885113E+03  0.00000000000E+00 0.  1.
         23    2    1    2    0    0  0.33663404253E+03 -0.96727473781E+02 -0.30958284752E+03  0.47641029366E+03  0.91905090451E+02 0.  0.
        254    2    1    2    0    0 -0.33663404253E+03  0.96727473781E+02 -0.21578795409E+03  0.99431660698E+03  0.90521952642E+03 0.  0.
        -24    2    4    4    0    0 -0.44313907083E+02 -0.38137800617E+03 -0.11619721108E+02  0.39251350290E+03  0.80739866798E+02 0.  0.
         24    2    4    4    0    0 -0.29232013545E+03  0.47810547995E+03 -0.20416823298E+03  0.60180310408E+03  0.80289458655E+02 0.  0.
         11    1    3    3    0    0  0.18532931293E+03 -0.55235332707E+02 -0.22997875527E+03  0.30047982309E+03  0.00000000000E+00 0.  1.
        -11    1    3    3    0    0  0.15130472960E+03 -0.41492141074E+02 -0.79604092248E+02  0.17593047057E+03  0.00000000000E+00 0. -1.
          2    1    6    6  502    0 -0.29085660514E+03  0.44519833108E+03 -0.20175801806E+03  0.56877536568E+03  0.00000000000E+00 0. -1.
          3    1    5    5  503    0 -0.65371644075E+02 -0.31474392064E+03  0.12100124769E+01  0.32146329737E+03  0.00000000000E+00 0. -1.
         -4    1    5    5    0  503  0.21057736992E+02 -0.66634085537E+02 -0.12829733585E+02  0.71050205534E+02  0.00000000000E+00 0.  1.
         -1    1    6    6    0  502 -0.14635303110E+01  0.32907148878E+02 -0.24102149172E+01  0.33027738405E+02  0.00000000000E+00 0.  1.
<mgrwt>
<rscale>  0 0.13736896E+04</rscale>
<asrwt>0</asrwt>
<pdfrwt beam="1">  1        1 0.72719700E-01 0.13736896E+04</pdfrwt>
<pdfrwt beam="2">  1       -1 0.15354598E+00 0.13736896E+04</pdfrwt>
<totfact> 0.15321293E+01</totfact>
</mgrwt>
</event>
<event>
12    1  0.1201209E-007  0.1902875E+04  0.7818608E-02  0.8653427E-01
          2   -1    0    0  501    0  0.00000000000E+00  0.00000000000E+00  0.32807770073E+04  0.32807770073E+04  0.00000000000E+00 0. -1.
         -2   -1    0    0    0  501 -0.00000000000E+00 -0.00000000000E+00 -0.27592033628E+03  0.27592033628E+03  0.00000000000E+00 0.  1.
         23    2    1    2    0    0 -0.54394752530E+03  0.47516292418E+03  0.93630912175E+03  0.11860019862E+04  0.90924281491E+02 0.  0.
        254    2    1    2    0    0  0.54394752530E+03 -0.47516292418E+03  0.20685475492E+04  0.23706953574E+04  0.90534457480E+03 0.  0.
        -24    2    4    4    0    0  0.32194826799E+03 -0.69653804370E+03  0.17708253843E+04  0.19313187137E+04  0.73167604817E+02 0.  0.
         24    2    4    4    0    0  0.22199925731E+03  0.22137511952E+03  0.29772216492E+03  0.43937664370E+03  0.78247899341E+02 0.  0.
         11    1    3    3    0    0 -0.30675692845E+03  0.26314619759E+03  0.44973665117E+03  0.60465592684E+03  0.00000000000E+00 0.  1.
        -11    1    3    3    0    0 -0.23719059685E+03  0.21201672659E+03  0.48657247057E+03  0.58134605934E+03  0.00000000000E+00 0. -1.
          2    1    6    6  502    0 -0.98090327486E+00  0.60265298620E-01  0.20093931762E+02  0.20117949617E+02  0.00000000000E+00 0. -1.
          1    1    5    5  503    0  0.51917182616E+02 -0.18407503325E+03  0.46371383723E+03  0.50160695226E+03  0.00000000000E+00 0. -1.
         -2    1    5    5    0  503  0.27003108537E+03 -0.51246301045E+03  0.13071115471E+04  0.14297117614E+04  0.00000000000E+00 0.  1.
         -1    1    6    6    0  502  0.22298016059E+03  0.22131485422E+03  0.27762823316E+03  0.41925869408E+03  0.00000000000E+00 0.  1.
<mgrwt>
<rscale>  0 0.19028748E+04</rscale>
<asrwt>0</asrwt>
<pdfrwt beam="1">  1        2 0.50473490E+00 0.19028748E+04</pdfrwt>
<pdfrwt beam="2">  1       -2 0.42449285E-01 0.19028748E+04</pdfrwt>
<totfact> 0.56787312E+00</totfact>
</mgrwt>
</event>
<event>
12    1  0.1201209E-007  0.2437885E+04  0.7818608E-02  0.8425455E-01
         -2   -1    0    0    0  501 -0.00000000000E+00  0.00000000000E+00  0.13080148719E+04  0.13080148719E+04  0.00000000000E+00 0.  1.
          2   -1    0    0  501    0  0.00000000000E+00 -0.00000000000E+00 -0.11359355822E+04  0.11359355822E+04  0.00000000000E+00 0. -1.
         23    2    1    2    0    0  0.67480568984E+02  0.73188736861E+03 -0.67633703709E+03  0.10031307426E+04  0.92880307449E+02 0.  0.
        254    2    1    2    0    0 -0.67480568984E+02 -0.73188736861E+03  0.84841632686E+03  0.14408197115E+04  0.90329310296E+03 0.  0.
        -24    2    4    4    0    0  0.25906114446E+03  0.34756768272E+01  0.30895910940E+01  0.27099411903E+03  0.79394647644E+02 0.  0.
         24    2    4    4    0    0 -0.32654171345E+03 -0.73536304544E+03  0.84532673577E+03  0.11698255925E+04  0.80785688098E+02 0.  0.
         11    1    3    3    0    0  0.62825653117E+02  0.22241585259E+03 -0.19967079035E+03  0.30542478402E+03  0.00000000000E+00 0.  1.
        -11    1    3    3    0    0  0.46549158671E+01  0.50947151602E+03 -0.47666624673E+03  0.69770595859E+03  0.00000000000E+00 0. -1.
          4    1    6    6  502    0 -0.89332451651E+02 -0.14372069041E+03  0.14499156652E+03  0.22284182312E+03  0.00000000000E+00 0. -1.
          3    1    5    5  503    0 -0.16441402463E+01  0.42770806553E+01 -0.89018491104E+01  0.10011969520E+02  0.00000000000E+00 0. -1.
         -4    1    5    5    0  503  0.26070528471E+03 -0.80140382811E+00  0.11991440204E+02  0.26098214951E+03  0.00000000000E+00 0.  1.
         -3    1    6    6    0  502 -0.23720926180E+03 -0.59164235503E+03  0.70033516925E+03  0.94698376936E+03  0.00000000000E+00 0.  1.
<mgrwt>
<rscale>  0 0.24378848E+04</rscale>
<asrwt>0</asrwt>
<pdfrwt beam="1">  1        2 0.17475932E+00 0.24378848E+04</pdfrwt>
<pdfrwt beam="2">  1       -2 0.20123306E+00 0.24378848E+04</pdfrwt>
<totfact> 0.24230156E+00</totfact>
</mgrwt>
</event>
<event>
12    1  0.1201209E-007  0.1135368E+04  0.7818608E-02  0.9171389E-01
         -1   -1    0    0    0  501 -0.00000000000E+00  0.00000000000E+00  0.23204696515E+03  0.23204696515E+03  0.00000000000E+00 0.  1.
          1   -1    0    0  501    0  0.00000000000E+00 -0.00000000000E+00 -0.13887930412E+04  0.13887930412E+04  0.00000000000E+00 0. -1.
         23    2    1    2    0    0 -0.60034548346E+02  0.80284778554E+02 -0.47146234271E+03  0.48966667568E+03  0.86295538816E+02 0.  0.
        254    2    1    2    0    0  0.60034548346E+02 -0.80284778554E+02 -0.68528373333E+03  0.11311733306E+04  0.89436542651E+03 0.  0.
        -24    2    4    4    0    0 -0.25148013065E+03 -0.30276289957E+03 -0.61506641553E+03  0.73473584270E+03  0.81378335989E+02 0.  0.
         24    2    4    4    0    0  0.31151467899E+03  0.22247812102E+03 -0.70217317797E+02  0.39643748794E+03  0.75460589503E+02 0.  0.
         13    1    3    3    0    0 -0.44503045783E+02  0.55059440699E+02 -0.44287873533E+03  0.44850154660E+03  0.00000000000E+00 0. -1.
        -13    1    3    3    0    0 -0.15531502562E+02  0.25225337855E+02 -0.28583607379E+02  0.41165129084E+02  0.00000000000E+00 0.  1.
          2    1    6    6  502    0  0.12832868765E+03  0.66419171185E+02 -0.57294555434E+02  0.15544267257E+03  0.00000000000E+00 0. -1.
          1    1    5    5  503    0 -0.14932853743E+03 -0.12788410196E+03 -0.25993661670E+03  0.32591471327E+03  0.00000000000E+00 0. -1.
         -2    1    5    5    0  503 -0.10215159322E+03 -0.17487879761E+03 -0.35512979883E+03  0.40882112943E+03  0.00000000000E+00 0.  1.
         -1    1    6    6    0  502  0.18318599135E+03  0.15605894983E+03 -0.12922762363E+02  0.24099481537E+03  0.00000000000E+00 0.  1.
<mgrwt>
<rscale>  0 0.11353682E+04</rscale>
<asrwt>0</asrwt>
<pdfrwt beam="1">  1        1 0.21366047E+00 0.11353682E+04</pdfrwt>
<pdfrwt beam="2">  1       -1 0.35699533E-01 0.11353682E+04</pdfrwt>
<totfact> 0.58217026E+01</totfact>
</mgrwt>
</event>
<event>
12    1  0.1201209E-007  0.3158881E+04  0.7818608E-02  0.8199762E-01
          2   -1    0    0  501    0  0.00000000000E+00  0.00000000000E+00  0.37221542110E+04  0.37221542110E+04  0.00000000000E+00 0. -1.
         -2   -1    0    0    0  501 -0.00000000000E+00 -0.00000000000E+00 -0.67021180814E+03  0.67021180814E+03  0.00000000000E+00 0.  1.
         23    2    1    2    0    0 -0.24416877962E+03 -0.13668148377E+03 -0.57496143464E+03  0.64576538178E+03  0.90177913183E+02 0.  0.
        254    2    1    2    0    0  0.24416877962E+03  0.13668148377E+03  0.36269038375E+04  0.37466006374E+04  0.89681919492E+03 0.  0.
        -24    2    4    4    0    0  0.17011547045E+03 -0.24916198673E+03  0.28988939250E+04  0.29156708174E+04  0.80804444102E+02 0.  0.
         24    2    4    4    0    0  0.74053309174E+02  0.38584347050E+03  0.72800991250E+03  0.83092981994E+03  0.78018309664E+02 0.  0.
         13    1    3    3    0    0 -0.88763788303E+02 -0.59402213092E+02 -0.13060446902E+03  0.16871621250E+03  0.00000000000E+00 0. -1.
        -13    1    3    3    0    0 -0.15540499132E+03 -0.77279270674E+02 -0.44435696563E+03  0.47704916927E+03  0.00000000000E+00 0.  1.
          2    1    6    6  502    0  0.87027488921E+02  0.33390020164E+03  0.65579331903E+03  0.74103171711E+03  0.00000000000E+00 0. -1.
          3    1    5    5  503    0  0.84615246559E+02 -0.63971111519E+02  0.11653832207E+04  0.11702008777E+04  0.00000000000E+00 0. -1.
         -4    1    5    5    0  503  0.85500223888E+02 -0.18519087521E+03  0.17335107043E+04  0.17454699398E+04  0.00000000000E+00 0.  1.
         -1    1    6    6    0  502 -0.12974179747E+02  0.51943268852E+02  0.72216593473E+02  0.89898102828E+02  0.00000000000E+00 0.  1.
<mgrwt>
<rscale>  0 0.31588806E+04</rscale>
<asrwt>0</asrwt>
<pdfrwt beam="1">  1        2 0.57263910E+00 0.31588806E+04</pdfrwt>
<pdfrwt beam="2">  1       -2 0.10310951E+00 0.31588806E+04</pdfrwt>
<totfact> 0.36412624E-01</totfact>
</mgrwt>
</event>
<event>
12    1  0.1201209E-007  0.1603403E+04  0.7818608E-02  0.8818460E-01
         -2   -1    0    0    0  501 -0.00000000000E+00  0.00000000000E+00  0.10039964878E+04  0.10039964878E+04  0.00000000000E+00 0.  1.
          2   -1    0    0  501    0  0.00000000000E+00 -0.00000000000E+00 -0.64016725708E+03  0.64016725708E+03  0.00000000000E+00 0. -1.
         23    2    1    2    0    0  0.36066392198E+03  0.17971406935E+03 -0.25219725632E+03  0.48412933663E+03  0.91663226811E+02 0.  0.
        254    2    1    2    0    0 -0.36066392198E+03 -0.17971406935E+03  0.61602648706E+03  0.11600344083E+04  0.89655763021E+03 0.  0.
        -24    2    4    4    0    0 -0.19426531566E+03  0.33827232437E+03  0.11095939463E+03  0.41340781162E+03  0.80167656505E+02 0.  0.
         24    2    4    4    0    0 -0.16639860631E+03 -0.51798639372E+03  0.50506709243E+03  0.74662659665E+03  0.79750277212E+02 0.  0.
         13    1    3    3    0    0  0.31130291973E+03  0.11979945814E+03 -0.18482635328E+03  0.38134262661E+03  0.00000000000E+00 0. -1.
        -13    1    3    3    0    0  0.49361002242E+02  0.59914611207E+02 -0.67370903048E+02  0.10278671002E+03  0.00000000000E+00 0.  1.
          4    1    6    6  502    0 -0.92499330583E+02 -0.40042112398E+03  0.37343192761E+03  0.55528785980E+03  0.00000000000E+00 0. -1.
          1    1    5    5  503    0 -0.13177763281E+03  0.19167035212E+03  0.10144652151E+03  0.25376025126E+03  0.00000000000E+00 0. -1.
         -2    1    5    5    0  503 -0.62487682854E+02  0.14660197225E+03  0.95128731172E+01  0.15964756037E+03  0.00000000000E+00 0.  1.
         -1    1    6    6    0  502 -0.73899275731E+02 -0.11756526974E+03  0.13163516482E+03  0.19133873685E+03  0.00000000000E+00 0.  1.
<mgrwt>
<rscale>  0 0.16034035E+04</rscale>
<asrwt>0</asrwt>
<pdfrwt beam="1">  1        2 0.98487270E-01 0.16034035E+04</pdfrwt>
<pdfrwt beam="2">  1       -2 0.15446100E+00 0.16034035E+04</pdfrwt>
<totfact> 0.12162946E+01</totfact>
</mgrwt>
</event>
<event>
12    1  0.1201209E-007  0.1812272E+04  0.7818608E-02  0.8699800E-01
          2   -1    0    0  501    0  0.00000000000E+00  0.00000000000E+00  0.43199464194E+03  0.43199464194E+03  0.00000000000E+00 0. -1.
         -2   -1    0    0    0  501 -0.00000000000E+00 -0.00000000000E+00 -0.19006775013E+04  0.19006775013E+04  0.00000000000E+00 0.  1.
         23    2    1    2    0    0  0.14351735010E+03 -0.57482024625E+03 -0.97285624460E+03  0.11429732011E+04  0.94461212211E+02 0.  0.
        254    2    1    2    0    0 -0.14351735010E+03  0.57482024625E+03 -0.49582661479E+03  0.11896989421E+04  0.90472315966E+03 0.  0.
        -24    2    4    4    0    0 -0.33171774710E+03  0.93828882704E+02 -0.56014399122E+03  0.66331969483E+03  0.85972109946E+02 0.  0.
         24    2    4    4    0    0  0.18820039700E+03  0.48099136355E+03  0.64317376426E+02  0.52637924727E+03  0.78525828920E+02 0.  0.
         13    1    3    3    0    0  0.23696119405E+02 -0.28574338962E+03 -0.48320836500E+03  0.56187286355E+03  0.00000000000E+00 0. -1.
        -13    1    3    3    0    0  0.11982123069E+03 -0.28907685663E+03 -0.48964787959E+03  0.58110033760E+03  0.00000000000E+00 0.  1.
          4    1    6    6  502    0  0.10547413650E+03  0.35879748858E+03  0.59929570173E+02  0.37875055731E+03  0.00000000000E+00 0. -1.
          1    1    5    5  503    0 -0.26459251939E+03  0.96223145086E+02 -0.49659017422E+03  0.57085015205E+03  0.00000000000E+00 0. -1.
         -2    1    5    5    0  503 -0.67125227707E+02 -0.23942623823E+01 -0.63553816997E+02  0.92469542781E+02  0.00000000000E+00 0.  1.
         -3    1    6    6    0  502  0.82726260496E+02  0.12219387497E+03  0.43878062529E+01  0.14762868996E+03  0.00000000000E+00 0.  1.
<mgrwt>
<rscale>  0 0.18122721E+04</rscale>
<asrwt>0</asrwt>
<pdfrwt beam="1">  1        2 0.66460714E-01 0.18122721E+04</pdfrwt>
<pdfrwt beam="2">  1       -2 0.29241192E+00 0.18122721E+04</pdfrwt>
<totfact> 0.24341029E+00</totfact>
</mgrwt>
</event>
<event>
12    1  0.1201209E-007  0.2465927E+04  0.7818608E-02  0.8415226E-01
          2   -1    0    0  501    0  0.00000000000E+00  0.00000000000E+00  0.91178849731E+03  0.91178849731E+03  0.00000000000E+00 0. -1.
         -2   -1    0    0    0  501 -0.00000000000E+00 -0.00000000000E+00 -0.16672713312E+04  0.16672713312E+04  0.00000000000E+00 0.  1.
         23    2    1    2    0    0  0.58653849486E+02 -0.95845436981E+03 -0.81317655830E+03  0.12616174911E+04  0.91364795012E+02 0.  0.
        254    2    1    2    0    0 -0.58653849486E+02  0.95845436981E+03  0.57693724433E+02  0.13174423374E+04  0.90013926337E+03 0.  0.
        -24    2    4    4    0    0  0.39696713682E+03  0.29972829050E+03  0.90293436076E+02  0.51187758349E+03  0.80285739959E+02 0.  0.
         24    2    4    4    0    0 -0.45562098631E+03  0.65872607931E+03 -0.32599711643E+02  0.80556475391E+03  0.79757763283E+02 0.  0.
         11    1    3    3    0    0 -0.11106870140E+02 -0.58396202847E+02 -0.73508663092E+02  0.94535721401E+02  0.00000000000E+00 0. -1.
        -11    1    3    3    0    0  0.69760719626E+02 -0.90005816696E+03 -0.73966789520E+03  0.11670817697E+04  0.00000000000E+00 0.  1.
          4    1    6    6  502    0 -0.43020810355E+03  0.60772252981E+03 -0.49211750798E+02  0.74620873890E+03  0.00000000000E+00 0. -1.
          3    1    5    5  503    0  0.24014955835E+03  0.13394298026E+03  0.62477521124E+02  0.28198576734E+03  0.00000000000E+00 0. -1.
         -4    1    5    5    0  503  0.15681757847E+03  0.16578531023E+03  0.27815914952E+02  0.22989181615E+03  0.00000000000E+00 0.  1.
         -1    1    6    6    0  502 -0.25412882756E+02  0.51003549508E+02  0.16612039155E+02  0.59356015005E+02  0.00000000000E+00 0.  1.
<mgrwt>
<rscale>  0 0.24659269E+04</rscale>
<asrwt>0</asrwt>
<pdfrwt beam="1">  1        2 0.14027515E+00 0.24659269E+04</pdfrwt>
<pdfrwt beam="2">  1       -2 0.25650328E+00 0.24659269E+04</pdfrwt>
<totfact> 0.15090384E+00</totfact>
</mgrwt>
</event>
<event>
12    1  0.1201209E-007  0.2267454E+04  0.7818608E-02  0.8490865E-01
         -2   -1    0    0    0  501 -0.00000000000E+00  0.00000000000E+00  0.42248809062E+03  0.42248809062E+03  0.00000000000E+00 0.  1.
          2   -1    0    0  501    0  0.00000000000E+00 -0.00000000000E+00 -0.30423040051E+04  0.30423040051E+04  0.00000000000E+00 0. -1.
         23    2    1    2    0    0  0.49385181657E+03 -0.76026979626E+03 -0.65609251219E+03  0.11228052671E+04  0.91293502061E+02 0.  0.
        254    2    1    2    0    0 -0.49385181657E+03  0.76026979626E+03 -0.19637234023E+04  0.23419868286E+04  0.89821652443E+03 0.  0.
        -24    2    4    4    0    0 -0.47285084222E+03 -0.85098096654E+01 -0.97764974905E+03  0.10889174091E+04  0.79257531208E+02 0.  0.
         24    2    4    4    0    0 -0.21000974353E+02  0.76877960592E+03 -0.98607365323E+03  0.12530694194E+04  0.79866118939E+02 0.  0.
         13    1    3    3    0    0  0.12935528005E+03 -0.22173803650E+03 -0.13859305927E+03  0.29173375085E+03  0.00000000000E+00 0. -1.
        -13    1    3    3    0    0  0.36449653653E+03 -0.53853175975E+03 -0.51749945292E+03  0.83107151628E+03  0.00000000000E+00 0.  1.
          2    1    6    6  502    0 -0.30955713106E+02  0.67066917309E+03 -0.81847177061E+03  0.10586082539E+04  0.00000000000E+00 0. -1.
          1    1    5    5  503    0 -0.19530018121E+03 -0.42570693670E+02 -0.40535889045E+03  0.45196266971E+03  0.00000000000E+00 0. -1.
         -4    1    5    5    0  503 -0.27755066101E+03  0.34060884004E+02 -0.57229085860E+03  0.63695473943E+03  0.00000000000E+00 0.  1.
         -1    1    6    6    0  502  0.99547387533E+01  0.98110432830E+02 -0.16760188262E+03  0.19446116556E+03  0.00000000000E+00 0.  1.
<mgrwt>
<rscale>  0 0.22674543E+04</rscale>
<asrwt>0</asrwt>
<pdfrwt beam="1">  1        2 0.46804678E+00 0.22674543E+04</pdfrwt>
<pdfrwt beam="2">  1       -2 0.64998166E-01 0.22674543E+04</pdfrwt>
<totfact> 0.32533817E+00</totfact>
</mgrwt>
</event>
<event>
12    1  0.1201209E-007  0.2752247E+04  0.7818608E-02  0.8318249E-01
          1   -1    0    0  501    0  0.00000000000E+00  0.00000000000E+00  0.10223773351E+04  0.10223773351E+04  0.00000000000E+00 0. -1.
         -1   -1    0    0    0  501 -0.00000000000E+00 -0.00000000000E+00 -0.18522673459E+04  0.18522673459E+04  0.00000000000E+00 0.  1.
         23    2    1    2    0    0  0.64810988965E+03  0.58612509109E+03  0.51828099120E+03  0.10200308488E+04  0.90877364013E+02 0.  0.
        254    2    1    2    0    0 -0.64810988965E+03 -0.58612509109E+03 -0.13481710020E+04  0.18546138322E+04  0.92651948957E+03 0.  0.
        -24    2    4    4    0    0 -0.84888748290E+03 -0.59837583981E+03 -0.99546295965E+03  0.14408782233E+04  0.80746182798E+02 0.  0.
         24    2    4    4    0    0  0.20077759325E+03  0.12250748713E+02 -0.35270804235E+03  0.41373560893E+03  0.79451042559E+02 0.  0.
         13    1    3    3    0    0  0.80022737156E+02  0.10480745982E+03  0.10416876400E+03  0.16804574821E+03  0.00000000000E+00 0.  1.
        -13    1    3    3    0    0  0.56808715249E+03  0.48131763127E+03  0.41411222720E+03  0.85198510064E+03  0.00000000000E+00 0. -1.
          4    1    6    6  502    0  0.95230542936E+02  0.72643776543E+01 -0.92788563033E+02  0.13315909627E+03  0.00000000000E+00 0. -1.
          3    1    5    5  503    0 -0.35972549084E+03 -0.28741135477E+03 -0.48104077350E+03  0.66588883560E+03  0.00000000000E+00 0. -1.
         -4    1    5    5    0  503 -0.48916199206E+03 -0.31096448503E+03 -0.51442218616E+03  0.77498938769E+03  0.00000000000E+00 0.  1.
         -3    1    6    6    0  502  0.10554705031E+03  0.49863710590E+01 -0.25991947932E+03  0.28057651266E+03  0.00000000000E+00 0.  1.
<mgrwt>
<rscale>  0 0.27522472E+04</rscale>
<asrwt>0</asrwt>
<pdfrwt beam="1">  1        1 0.15728882E+00 0.27522472E+04</pdfrwt>
<pdfrwt beam="2">  1       -1 0.28496420E+00 0.27522472E+04</pdfrwt>
<totfact> 0.52220380E-01</totfact>
</mgrwt>
</event>
<event>
12    1  0.1201209E-007  0.1153371E+04  0.7818608E-02  0.9154679E-01
         -2   -1    0    0    0  501 -0.00000000000E+00  0.00000000000E+00  0.33268783582E+03  0.33268783582E+03  0.00000000000E+00 0.  1.
          2   -1    0    0  501    0  0.00000000000E+00 -0.00000000000E+00 -0.99963510767E+03  0.99963510767E+03  0.00000000000E+00 0. -1.
         23    2    1    2    0    0  0.13478130480E+02  0.20587445756E+03 -0.17043369369E+03  0.28308112818E+03  0.92311044346E+02 0.  0.
        254    2    1    2    0    0 -0.13478130480E+02 -0.20587445756E+03 -0.49651357816E+03  0.10492418153E+04  0.90100871329E+03 0.  0.
        -24    2    4    4    0    0 -0.33866744992E+03 -0.82834248110E+02  0.84741272221E+02  0.36722260190E+03  0.78193361800E+02 0.  0.
         24    2    4    4    0    0  0.32518931944E+03 -0.12304020945E+03 -0.58125485038E+03  0.68201921341E+03  0.80037614630E+02 0.  0.
         13    1    3    3    0    0 -0.15985279036E+02  0.18902995391E+03 -0.15817536121E+03  0.24699655365E+03  0.00000000000E+00 0. -1.
        -13    1    3    3    0    0  0.29463409516E+02  0.16844503650E+02 -0.12258332476E+02  0.36084574524E+02  0.00000000000E+00 0.  1.
          2    1    6    6  502    0  0.27903773529E+03 -0.13329891522E+03 -0.49500207061E+03  0.58365889733E+03  0.00000000000E+00 0. -1.
          1    1    5    5  503    0 -0.21853230818E+03 -0.16766200948E+02  0.65653308284E+02  0.22879648621E+03  0.00000000000E+00 0. -1.
         -2    1    5    5    0  503 -0.12013514174E+03 -0.66068047162E+02  0.19087963936E+02  0.13842611569E+03  0.00000000000E+00 0.  1.
         -1    1    6    6    0  502  0.46151584148E+02  0.10258705771E+02 -0.86252779765E+02  0.98360316087E+02  0.00000000000E+00 0.  1.
<mgrwt>
<rscale>  0 0.11533715E+04</rscale>
<asrwt>0</asrwt>
<pdfrwt beam="1">  1        2 0.15379002E+00 0.11533715E+04</pdfrwt>
<pdfrwt beam="2">  1       -2 0.51182744E-01 0.11533715E+04</pdfrwt>
<totfact> 0.89960028E+01</totfact>
</mgrwt>
</event>
<event>
12    1  0.1201209E-007  0.2104087E+04  0.7818608E-02  0.8559445E-01
         -1   -1    0    0    0  501 -0.00000000000E+00  0.00000000000E+00  0.12377810460E+04  0.12377810460E+04  0.00000000000E+00 0. -1.
          1   -1    0    0  501    0  0.00000000000E+00 -0.00000000000E+00 -0.89417688641E+03  0.89417688641E+03  0.00000000000E+00 0.  1.
         23    2    1    2    0    0  0.45518641772E+03 -0.58618078817E+03 -0.34505351594E+03  0.82374775152E+03  0.93251477062E+02 0.  0.
        254    2    1    2    0    0 -0.45518641772E+03  0.58618078817E+03  0.68865767553E+03  0.13082101809E+04  0.82846960841E+03 0.  0.
        -24    2    4    4    0    0  0.12079457105E+03 -0.12730712822E+03  0.12108697876E+03  0.22692889200E+03  0.77693193445E+02 0.  0.
         24    2    4    4    0    0 -0.57598098877E+03  0.71348791639E+03  0.56757069677E+03  0.10812812889E+04  0.78826541579E+02 0.  0.
         11    1    3    3    0    0  0.36180064130E+03 -0.45487804773E+03 -0.22686946640E+03  0.62392587471E+03  0.00000000000E+00 0.  1.
        -11    1    3    3    0    0  0.93385776416E+02 -0.13130274044E+03 -0.11818404954E+03  0.19982187681E+03  0.00000000000E+00 0. -1.
          2    1    6    6  502    0 -0.37775610543E+03  0.51304870571E+03  0.41989955752E+03  0.76304278256E+03  0.00000000000E+00 0. -1.
          1    1    5    5  503    0  0.10750333947E+02 -0.55045269228E+02  0.15553766103E+02  0.58201984367E+02  0.00000000000E+00 0. -1.
         -2    1    5    5    0  503  0.11004423710E+03 -0.72261858988E+02  0.10553321266E+03  0.16872690763E+03  0.00000000000E+00 0.  1.
         -1    1    6    6    0  502 -0.19822488334E+03  0.20043921068E+03  0.14767113926E+03  0.31823850635E+03  0.00000000000E+00 0.  1.
<mgrwt>
<rscale>  0 0.21040867E+04</rscale>
<asrwt>0</asrwt>
<pdfrwt beam="1">  1        1 0.13756568E+00 0.21040867E+04</pdfrwt>
<pdfrwt beam="2">  1       -1 0.19042785E+00 0.21040867E+04</pdfrwt>
<totfact> 0.29680548E+00</totfact>
</mgrwt>
</event>
<event>
12    1  0.1201209E-007  0.1564459E+04  0.7818608E-02  0.8842685E-01
          1   -1    0    0  501    0  0.00000000000E+00  0.00000000000E+00  0.19403613369E+04  0.19403613369E+04  0.00000000000E+00 0. -1.
         -1   -1    0    0    0  501 -0.00000000000E+00 -0.00000000000E+00 -0.31534496973E+03  0.31534496973E+03  0.00000000000E+00 0.  1.
         23    2    1    2    0    0  0.19493494762E+02  0.33386943362E+03 -0.25251478785E+02  0.34760678068E+03  0.91345726499E+02 0.  0.
        254    2    1    2    0    0 -0.19493494762E+02 -0.33386943362E+03  0.16502678460E+04  0.19080995260E+04  0.89755837831E+03 0.  0.
        -24    2    4    4    0    0 -0.40663632184E+03 -0.76262882570E+02  0.11252524469E+04  0.12016111563E+04  0.80667070435E+02 0.  0.
         24    2    4    4    0    0  0.38714282708E+03 -0.25760655106E+03  0.52501539912E+03  0.70648836968E+03  0.85111359274E+02 0.  0.
         13    1    3    3    0    0 -0.49136844014E+01  0.70823751191E+02  0.31068363599E+02  0.77494459439E+02  0.00000000000E+00 0. -1.
        -13    1    3    3    0    0  0.24407179163E+02  0.26304568243E+03 -0.56319842384E+02  0.27011232124E+03  0.00000000000E+00 0.  1.
          2    1    6    6  502    0  0.23470961888E+03 -0.14692269025E+03  0.24948683980E+03  0.37271780926E+03  0.00000000000E+00 0. -1.
          3    1    5    5  503    0 -0.21509679441E+03 -0.44634457541E+02  0.71023492589E+03  0.74343292618E+03  0.00000000000E+00 0. -1.
         -4    1    5    5    0  503 -0.19153952743E+03 -0.31628425028E+02  0.41501752096E+03  0.45817823011E+03  0.00000000000E+00 0.  1.
         -1    1    6    6    0  502  0.15243320820E+03 -0.11068386081E+03  0.27552855932E+03  0.33377056043E+03  0.00000000000E+00 0.  1.
<mgrwt>
<rscale>  0 0.15644593E+04</rscale>
<asrwt>0</asrwt>
<pdfrwt beam="1">  1        1 0.29851712E+00 0.15644593E+04</pdfrwt>
<pdfrwt beam="2">  1       -1 0.48514612E-01 0.15644593E+04</pdfrwt>
<totfact> 0.13385737E+01</totfact>
</mgrwt>
</event>
<event>
12    1  0.1201209E-007  0.1777840E+04  0.7818608E-02  0.8718174E-01
          1   -1    0    0  501    0  0.00000000000E+00  0.00000000000E+00  0.82480281398E+03  0.82480281398E+03  0.00000000000E+00 0. -1.
         -1   -1    0    0    0  501 -0.00000000000E+00 -0.00000000000E+00 -0.95802110998E+03  0.95802110998E+03  0.00000000000E+00 0.  1.
         23    2    1    2    0    0  0.34611962223E+03  0.24121594329E+03  0.43219714418E+03  0.61048698175E+03  0.88972238684E+02 0.  0.
        254    2    1    2    0    0 -0.34611962223E+03 -0.24121594329E+03 -0.56541544018E+03  0.11723369422E+04  0.93632011720E+03 0.  0.
        -24    2    4    4    0    0 -0.18291836399E+03 -0.71088788246E+02  0.24426568920E+03  0.32516669424E+03  0.86918976201E+02 0.  0.
         24    2    4    4    0    0 -0.16320125824E+03 -0.17012715505E+03 -0.80968112937E+03  0.84717024797E+03  0.80845520613E+02 0.  0.
         13    1    3    3    0    0  0.28401580385E+03  0.19165876234E+03  0.39457172334E+03  0.52257526049E+03  0.00000000000E+00 0. -1.
        -13    1    3    3    0    0  0.62103818373E+02  0.49557180953E+02  0.37625420842E+02  0.87911721255E+02  0.00000000000E+00 0.  1.
          2    1    6    6  502    0 -0.10105147373E+03 -0.15040441994E+03 -0.64740379738E+03  0.67228310014E+03  0.00000000000E+00 0. -1.
          1    1    5    5  503    0 -0.13968603740E+03 -0.89920057875E+02  0.17423747313E+03  0.24074156869E+03  0.00000000000E+00 0. -1.
         -2    1    5    5    0  503 -0.43232326591E+02  0.18831269630E+02  0.70028216066E+02  0.84425125547E+02  0.00000000000E+00 0.  1.
         -1    1    6    6    0  502 -0.62149784505E+02 -0.19722735111E+02 -0.16227733200E+03  0.17488714783E+03  0.00000000000E+00 0.  1.
<mgrwt>
<rscale>  0 0.17778397E+04</rscale>
<asrwt>0</asrwt>
<pdfrwt beam="1">  1        1 0.12689274E+00 0.17778397E+04</pdfrwt>
<pdfrwt beam="2">  1       -1 0.14738786E+00 0.17778397E+04</pdfrwt>
<totfact> 0.72773067E+00</totfact>
</mgrwt>
</event>
<event>
12    1  0.1201209E-007  0.2412723E+04  0.7818608E-02  0.8434755E-01
          1   -1    0    0  501    0  0.00000000000E+00  0.00000000000E+00  0.18259774535E+04  0.18259774535E+04  0.00000000000E+00 0. -1.
         -1   -1    0    0    0  501 -0.00000000000E+00 -0.00000000000E+00 -0.79700249537E+03  0.79700249537E+03  0.00000000000E+00 0.  1.
         23    2    1    2    0    0 -0.76146251776E+03 -0.65399683551E+03  0.12144744540E+03  0.10151343353E+04  0.90615726447E+02 0.  0.
        254    2    1    2    0    0  0.76146251776E+03  0.65399683551E+03  0.90752751271E+03  0.16078456136E+04  0.86834572831E+03 0.  0.
        -24    2    4    4    0    0  0.84391093957E+03  0.21977940941E+03  0.63347695652E+03  0.10807509495E+04  0.78999352717E+02 0.  0.
         24    2    4    4    0    0 -0.82448421809E+02  0.43421742611E+03  0.27405055619E+03  0.52709466403E+03  0.85921837174E+02 0.  0.
         13    1    3    3    0    0 -0.56326458382E+03 -0.44274572524E+03  0.59471257258E+02  0.71890722562E+03  0.00000000000E+00 0. -1.
        -13    1    3    3    0    0 -0.19819793394E+03 -0.21125111027E+03  0.61976188145E+02  0.29622710967E+03  0.00000000000E+00 0.  1.
          4    1    6    6  502    0  0.27028974998E+01  0.20675812691E+03  0.13959729570E+03  0.24948674045E+03  0.00000000000E+00 0. -1.
          1    1    5    5  503    0  0.22188556751E+03  0.56747649581E+02  0.21053220205E+03  0.31109051561E+03  0.00000000000E+00 0. -1.
         -2    1    5    5    0  503  0.62202537206E+03  0.16303175983E+03  0.42294475446E+03  0.76966043391E+03  0.00000000000E+00 0.  1.
         -3    1    6    6    0  502 -0.85151319309E+02  0.22745929920E+03  0.13445326050E+03  0.27760792357E+03  0.00000000000E+00 0.  1.
<mgrwt>
<rscale>  0 0.24127234E+04</rscale>
<asrwt>0</asrwt>
<pdfrwt beam="1">  1        1 0.28091961E+00 0.24127234E+04</pdfrwt>
<pdfrwt beam="2">  1       -1 0.12261577E+00 0.24127234E+04</pdfrwt>
<totfact> 0.20553064E+00</totfact>
</mgrwt>
</event>
<event>
12    1  0.1201209E-007  0.1408288E+04  0.7818608E-02  0.8947841E-01
          2   -1    0    0  501    0  0.00000000000E+00  0.00000000000E+00  0.11569149609E+04  0.11569149609E+04  0.00000000000E+00 0. -1.
         -2   -1    0    0    0  501 -0.00000000000E+00 -0.00000000000E+00 -0.42856975050E+03  0.42856975050E+03  0.00000000000E+00 0.  1.
         23    2    1    2    0    0  0.25195415283E+03  0.28803241373E+03  0.36656802222E+03  0.53786199914E+03  0.92086094056E+02 0.  0.
        254    2    1    2    0    0 -0.25195415283E+03 -0.28803241373E+03  0.36177718818E+03  0.10476227123E+04  0.90564178727E+03 0.  0.
        -24    2    4    4    0    0 -0.35423117431E+03  0.19652276378E+02 -0.18420151345E+03  0.40766805538E+03  0.79981929217E+02 0.  0.
         24    2    4    4    0    0  0.10227702148E+03 -0.30768469011E+03  0.54597870162E+03  0.63995465687E+03  0.79490644584E+02 0.  0.
         11    1    3    3    0    0  0.47737873607E+02  0.12589559979E+02  0.61864622586E+02  0.79149435403E+02  0.00000000000E+00 0.  1.
        -11    1    3    3    0    0  0.20421627923E+03  0.27544285375E+03  0.30470339963E+03  0.45871256374E+03  0.00000000000E+00 0. -1.
          4    1    6    6  502    0 -0.11459509336E+01  0.37336569979E+01  0.13919899394E+01  0.41462071959E+01  0.00000000000E+00 0. -1.
          3    1    5    5  503    0 -0.18652231287E+03  0.49664214379E+02 -0.89767967674E+02  0.21287413043E+03  0.00000000000E+00 0. -1.
         -4    1    5    5    0  503 -0.16770886144E+03 -0.30011938001E+02 -0.94433545771E+02  0.19479392495E+03  0.00000000000E+00 0.  1.
         -3    1    6    6    0  502  0.10342297241E+03 -0.31141834711E+03  0.54458671168E+03  0.63580844967E+03  0.00000000000E+00 0.  1.
<mgrwt>
<rscale>  0 0.14082880E+04</rscale>
<asrwt>0</asrwt>
<pdfrwt beam="1">  1        2 0.17798692E+00 0.14082880E+04</pdfrwt>
<pdfrwt beam="2">  1       -2 0.65933808E-01 0.14082880E+04</pdfrwt>
<totfact> 0.41410232E+01</totfact>
</mgrwt>
</event>
<event>
12    1  0.1201209E-007  0.4213407E+04  0.7818608E-02  0.7962827E-01
          1   -1    0    0  501    0  0.00000000000E+00  0.00000000000E+00  0.20006088482E+04  0.20006088482E+04  0.00000000000E+00 0. -1.
         -1   -1    0    0    0  501 -0.00000000000E+00 -0.00000000000E+00 -0.22184241223E+04  0.22184241223E+04  0.00000000000E+00 0.  1.
         23    2    1    2    0    0 -0.99494861310E+03 -0.99237537528E+03 -0.15423935000E+04  0.20883509353E+04  0.86604227006E+02 0.  0.
        254    2    1    2    0    0  0.99494861310E+03  0.99237537528E+03  0.13245782259E+04  0.21306820352E+04  0.90031485056E+03 0.  0.
        -24    2    4    4    0    0 -0.10769642604E+03  0.10588552267E+03  0.40971350475E+03  0.44390267219E+03  0.79838351094E+02 0.  0.
         24    2    4    4    0    0  0.11026450391E+04  0.88648985261E+03  0.91486472119E+03  0.16867793630E+04  0.80974194268E+02 0.  0.
         11    1    3    3    0    0 -0.36722104711E+01 -0.16933376314E+01 -0.14526247670E+02  0.15078607145E+02  0.00000000000E+00 0. -1.
        -11    1    3    3    0    0 -0.99127640263E+03 -0.99068203765E+03 -0.15278672523E+04  0.20732723282E+04  0.00000000000E+00 0.  1.
          2    1    6    6  502    0  0.27095393751E+03  0.26251545283E+03  0.25338866091E+03  0.45446255369E+03  0.00000000000E+00 0. -1.
          1    1    5    5  503    0 -0.56075482798E+02  0.18097511673E+02  0.22909765182E+03  0.23655382848E+03  0.00000000000E+00 0. -1.
         -2    1    5    5    0  503 -0.51620943244E+02  0.87788010994E+02  0.18061585294E+03  0.20734884371E+03  0.00000000000E+00 0.  1.
         -1    1    6    6    0  502  0.83169110163E+03  0.62397439978E+03  0.66147606028E+03  0.12323168093E+04  0.00000000000E+00 0.  1.
<mgrwt>
<rscale>  0 0.42134067E+04</rscale>
<asrwt>0</asrwt>
<pdfrwt beam="1">  1        1 0.30778598E+00 0.42134067E+04</pdfrwt>
<pdfrwt beam="2">  1       -1 0.34129602E+00 0.42134067E+04</pdfrwt>
<totfact> 0.40617248E-02</totfact>
</mgrwt>
</event>
<event>
12    1  0.1201209E-007  0.1341721E+04  0.7818608E-02  0.8997119E-01
         -2   -1    0    0    0  501 -0.00000000000E+00  0.00000000000E+00  0.46269258645E+03  0.46269258645E+03  0.00000000000E+00 0.  1.
          2   -1    0    0  501    0  0.00000000000E+00 -0.00000000000E+00 -0.97268395586E+03  0.97268395586E+03  0.00000000000E+00 0. -1.
         23    2    1    2    0    0 -0.21310488419E+03 -0.14365286237E+02  0.16686483303E+03  0.28646738123E+03  0.92734216384E+02 0.  0.
        254    2    1    2    0    0  0.21310488419E+03  0.14365286237E+02 -0.67685620244E+03  0.11489091611E+04  0.90345884716E+03 0.  0.
        -24    2    4    4    0    0  0.18786150187E+03 -0.68006155462E+02  0.18224276147E+03  0.28124828547E+03  0.77274788286E+02 0.  0.
         24    2    4    4    0    0  0.25243382329E+02  0.82371441698E+02 -0.85909896391E+03  0.86766087561E+03  0.85802578692E+02 0.  0.
         13    1    3    3    0    0 -0.11882970558E+03 -0.40929674152E+02  0.53345839280E+02  0.13653393616E+03  0.00000000000E+00 0. -1.
        -13    1    3    3    0    0 -0.94275178618E+02  0.26564387915E+02  0.11351899375E+03  0.14993344507E+03  0.00000000000E+00 0.  1.
          2    1    6    6  502    0  0.56706329652E+02  0.51738540698E+02 -0.59590477807E+03  0.60082858533E+03  0.00000000000E+00 0. -1.
          1    1    5    5  503    0  0.85791914867E+02 -0.40171392038E+02  0.13610938295E+03  0.16583050842E+03  0.00000000000E+00 0. -1.
         -2    1    5    5    0  503  0.10206958700E+03 -0.27834763424E+02  0.46133378521E+02  0.11541777705E+03  0.00000000000E+00 0.  1.
         -3    1    6    6    0  502 -0.31462947322E+02  0.30632901000E+02 -0.26319418584E+03  0.26683229028E+03  0.00000000000E+00 0.  1.
<mgrwt>
<rscale>  0 0.13417208E+04</rscale>
<asrwt>0</asrwt>
<pdfrwt beam="1">  1        2 0.14964369E+00 0.13417208E+04</pdfrwt>
<pdfrwt beam="2">  1       -2 0.71183475E-01 0.13417208E+04</pdfrwt>
<totfact> 0.45958940E+01</totfact>
</mgrwt>
</event>
<event>
12    1  0.1201209E-007  0.2738850E+04  0.7818608E-02  0.8322508E-01
          1   -1    0    0  501    0  0.00000000000E+00  0.00000000000E+00  0.26040115931E+04  0.26040115931E+04  0.00000000000E+00 0. -1.
         -1   -1    0    0    0  501 -0.00000000000E+00 -0.00000000000E+00 -0.72016769198E+03  0.72016769198E+03  0.00000000000E+00 0.  1.
         23    2    1    2    0    0 -0.11591028368E+04 -0.32932856871E+03  0.63280022926E+03  0.13644062207E+04  0.95872376917E+02 0.  0.
        254    2    1    2    0    0  0.11591028368E+04  0.32932856871E+03  0.12510436718E+04  0.19597730643E+04  0.90753705286E+03 0.  0.
        -24    2    4    4    0    0  0.15513536081E+02  0.14557086620E+03 -0.87746232251E+02  0.18764798475E+03  0.77979600017E+02 0.  0.
         24    2    4    4    0    0  0.11435893007E+04  0.18375770251E+03  0.13387899041E+04  0.17721250795E+04  0.80656731818E+02 0.  0.
         11    1    3    3    0    0 -0.15570013219E+03 -0.57216197961E+02  0.53697631974E+02  0.17435498316E+03  0.00000000000E+00 0. -1.
        -11    1    3    3    0    0 -0.10034027046E+04 -0.27211237074E+03  0.57910259728E+03  0.11900512376E+04  0.00000000000E+00 0.  1.
          4    1    6    6  502    0  0.88752275886E+02 -0.59619495587E+01  0.91374156673E+02  0.12752155828E+03  0.00000000000E+00 0. -1.
          1    1    5    5  503    0 -0.14693344513E+02  0.77392277100E+02 -0.91485039341E+01  0.79304186850E+02  0.00000000000E+00 0. -1.
         -2    1    5    5    0  503  0.30206880594E+02  0.68178589097E+02 -0.78597728317E+02  0.10834379790E+03  0.00000000000E+00 0.  1.
         -3    1    6    6    0  502  0.10548370248E+04  0.18971965207E+03  0.12474157474E+04  0.16446035213E+04  0.00000000000E+00 0.  1.
<mgrwt>
<rscale>  0 0.27388501E+04</rscale>
<asrwt>0</asrwt>
<pdfrwt beam="1">  1        1 0.40061716E+00 0.27388501E+04</pdfrwt>
<pdfrwt beam="2">  1       -1 0.11079503E+00 0.27388501E+04</pdfrwt>
<totfact> 0.74815049E-01</totfact>
</mgrwt>
</event>
<event>
12    1  0.1201209E-007  0.2403831E+04  0.7818608E-02  0.8438071E-01
          1   -1    0    0  501    0  0.00000000000E+00  0.00000000000E+00  0.10235901235E+04  0.10235901235E+04  0.00000000000E+00 0. -1.
         -1   -1    0    0    0  501 -0.00000000000E+00 -0.00000000000E+00 -0.14113081637E+04  0.14113081637E+04  0.00000000000E+00 0.  1.
         23    2    1    2    0    0  0.29444113946E+03 -0.98278112868E+03 -0.20372506837E+03  0.10499146036E+04  0.90897964577E+02 0.  0.
        254    2    1    2    0    0 -0.29444113946E+03  0.98278112868E+03 -0.18399297182E+03  0.13849836835E+04  0.91201538283E+03 0.  0.
        -24    2    4    4    0    0  0.26617526510E+03  0.60752401690E+03 -0.22384120940E+03  0.70456476215E+03  0.79824270613E+02 0.  0.
         24    2    4    4    0    0 -0.56061640456E+03  0.37525711179E+03  0.39848237580E+02  0.68041892140E+03  0.79204630907E+02 0.  0.
         13    1    3    3    0    0  0.24008464514E+03 -0.89402025005E+03 -0.17716358570E+03  0.94249656786E+03  0.00000000000E+00 0.  1.
        -13    1    3    3    0    0  0.54356494315E+02 -0.88760878631E+02 -0.26561482667E+02  0.10741803578E+03  0.00000000000E+00 0. -1.
          2    1    6    6  502    0 -0.34450212352E+03  0.27115253979E+03  0.84730344489E+01  0.43849424769E+03  0.00000000000E+00 0. -1.
          1    1    5    5  503    0  0.46108331129E+02  0.62085875942E+02 -0.67864496810E+01  0.77631759546E+02  0.00000000000E+00 0. -1.
         -2    1    5    5    0  503  0.22006693397E+03  0.54543814095E+03 -0.21705475972E+03  0.62693300260E+03  0.00000000000E+00 0.  1.
         -1    1    6    6    0  502 -0.21611428103E+03  0.10410457200E+03  0.31375203131E+02  0.24192467371E+03  0.00000000000E+00 0.  1.
<mgrwt>
<rscale>  0 0.24038312E+04</rscale>
<asrwt>0</asrwt>
<pdfrwt beam="1">  1        1 0.15747540E+00 0.24038312E+04</pdfrwt>
<pdfrwt beam="2">  1       -1 0.21712433E+00 0.24038312E+04</pdfrwt>
<totfact> 0.14948744E+00</totfact>
</mgrwt>
</event>
<event>
12    1  0.1201209E-007  0.4011291E+04  0.7818608E-02  0.8002273E-01
          1   -1    0    0  501    0  0.00000000000E+00  0.00000000000E+00  0.25947841786E+04  0.25947841786E+04  0.00000000000E+00 0. -1.
         -1   -1    0    0    0  501 -0.00000000000E+00 -0.00000000000E+00 -0.15502688783E+04  0.15502688783E+04  0.00000000000E+00 0.  1.
         23    2    1    2    0    0 -0.18162096902E+04  0.40708866979E+03  0.90362262318E+03  0.20711439190E+04  0.93618716537E+02 0.  0.
        254    2    1    2    0    0  0.18162096902E+04 -0.40708866979E+03  0.14089267711E+03  0.20739091380E+04  0.90383048319E+03 0.  0.
        -24    2    4    4    0    0  0.15521319307E+04 -0.66281311710E+03  0.70559492559E+02  0.16911884162E+04  0.81883199396E+02 0.  0.
         24    2    4    4    0    0  0.26407775944E+03  0.25572444732E+03  0.70333184550E+02  0.38272072181E+03  0.79977109668E+02 0.  0.
         13    1    3    3    0    0 -0.17725817632E+04  0.40622115877E+03  0.86929244190E+03  0.20156217618E+04  0.00000000000E+00 0. -1.
        -13    1    3    3    0    0 -0.43627926959E+02  0.86751101578E+00  0.34330181284E+02  0.55522157137E+02  0.00000000000E+00 0.  1.
          4    1    6    6  502    0  0.23956451181E+02  0.51551574788E+02  0.31929948884E+02  0.65199678313E+02  0.00000000000E+00 0. -1.
          3    1    5    5  503    0  0.70292141809E+03 -0.26876153199E+03  0.60143101214E+02  0.75494931863E+03  0.00000000000E+00 0. -1.
         -4    1    5    5    0  503  0.84921051266E+03 -0.39405158511E+03  0.10416391344E+02  0.93623909753E+03  0.00000000000E+00 0.  1.
         -1    1    6    6    0  502  0.24012130826E+03  0.20417287253E+03  0.38403235666E+02  0.31752104350E+03  0.00000000000E+00 0.  1.
<mgrwt>
<rscale>  0 0.40112906E+04</rscale>
<asrwt>0</asrwt>
<pdfrwt beam="1">  1        1 0.39919756E+00 0.40112906E+04</pdfrwt>
<pdfrwt beam="2">  1       -1 0.23850291E+00 0.40112906E+04</pdfrwt>
<totfact> 0.75452893E-02</totfact>
</mgrwt>
</event>
<event>
12    1  0.1201209E-007  0.1375077E+04  0.7818608E-02  0.8972059E-01
         -1   -1    0    0    0  501 -0.00000000000E+00  0.00000000000E+00  0.25174633406E+03  0.25174633406E+03  0.00000000000E+00 0.  1.
          1   -1    0    0  501    0  0.00000000000E+00 -0.00000000000E+00 -0.18777203371E+04  0.18777203371E+04  0.00000000000E+00 0. -1.
         23    2    1    2    0    0 -0.25361139286E+03 -0.26107832625E+03 -0.65532668890E+03  0.75519193941E+03  0.91548703556E+02 0.  0.
        254    2    1    2    0    0  0.25361139286E+03  0.26107832625E+03 -0.97064731412E+03  0.13742747317E+04  0.90221627056E+03 0.  0.
        -24    2    4    4    0    0  0.48692251834E+03 -0.10616949785E+03 -0.35761960980E+03  0.61830711198E+03  0.77758589758E+02 0.  0.
         24    2    4    4    0    0 -0.23331112547E+03  0.36724782410E+03 -0.61302770432E+03  0.75596761976E+03  0.79868831725E+02 0.  0.
         11    1    3    3    0    0 -0.23452235312E+03 -0.25154003520E+03 -0.64613169079E+03  0.73195579461E+03  0.00000000000E+00 0. -1.
        -11    1    3    3    0    0 -0.19089039744E+02 -0.95382910520E+01 -0.91949981139E+01  0.23236144794E+02  0.00000000000E+00 0.  1.
          4    1    6    6  502    0 -0.71558628069E+02  0.53743326750E+02 -0.11780460837E+03  0.14794224607E+03  0.00000000000E+00 0. -1.
          3    1    5    5  503    0  0.19350307819E+03 -0.22600526088E+02 -0.18021172198E+03  0.26538743336E+03  0.00000000000E+00 0. -1.
         -4    1    5    5    0  503  0.29341944015E+03 -0.83568971760E+02 -0.17740788782E+03  0.35291967862E+03  0.00000000000E+00 0.  1.
         -3    1    6    6    0  502 -0.16175249740E+03  0.31350449735E+03 -0.49522309595E+03  0.60802537368E+03  0.00000000000E+00 0.  1.
<mgrwt>
<rscale>  0 0.13750770E+04</rscale>
<asrwt>0</asrwt>
<pdfrwt beam="1">  1        1 0.28888004E+00 0.13750770E+04</pdfrwt>
<pdfrwt beam="2">  1       -1 0.38730207E-01 0.13750770E+04</pdfrwt>
<totfact> 0.22784294E+01</totfact>
</mgrwt>
</event>
<event>
12    1  0.1201209E-007  0.2370579E+04  0.7818608E-02  0.8450601E-01
          2   -1    0    0  501    0  0.00000000000E+00  0.00000000000E+00  0.16486105095E+04  0.16486105095E+04  0.00000000000E+00 0. -1.
         -2   -1    0    0    0  501 -0.00000000000E+00 -0.00000000000E+00 -0.85217929038E+03  0.85217929038E+03  0.00000000000E+00 0.  1.
         23    2    1    2    0    0 -0.39789386421E+03  0.82739640585E+03 -0.10637387930E+03  0.92883083902E+03  0.92233322287E+02 0.  0.
        254    2    1    2    0    0  0.39789386421E+03 -0.82739640585E+03  0.90280509846E+03  0.15719589609E+04  0.90171702290E+03 0.  0.
        -24    2    4    4    0    0  0.51979365470E+03 -0.17814539473E+03  0.66282926936E+03  0.86497367633E+03  0.83160058262E+02 0.  0.
         24    2    4    4    0    0 -0.12189979049E+03 -0.64925101112E+03  0.23997582910E+03  0.70698528458E+03  0.76507252544E+02 0.  0.
         11    1    3    3    0    0 -0.86468307665E+02  0.17016396671E+03 -0.59956224178E+02  0.20006821991E+03  0.00000000000E+00 0. -1.
        -11    1    3    3    0    0 -0.31142555654E+03  0.65723243913E+03 -0.46417655125E+02  0.72876261912E+03  0.00000000000E+00 0.  1.
          2    1    6    6  502    0 -0.12975818265E+03 -0.56280850382E+03  0.21890877798E+03  0.61766629422E+03  0.00000000000E+00 0. -1.
          1    1    5    5  503    0  0.75177136732E+02 -0.29254515041E+02  0.56456870283E+02  0.98462209703E+02  0.00000000000E+00 0. -1.
         -4    1    5    5    0  503  0.44461651797E+03 -0.14889087968E+03  0.60637239908E+03  0.76651146663E+03  0.00000000000E+00 0.  1.
         -1    1    6    6    0  502  0.78583921593E+01 -0.86442507302E+02  0.21067051129E+02  0.89318990362E+02  0.00000000000E+00 0.  1.
<mgrwt>
<rscale>  0 0.23705795E+04</rscale>
<asrwt>0</asrwt>
<pdfrwt beam="1">  1        2 0.25363239E+00 0.23705795E+04</pdfrwt>
<pdfrwt beam="2">  1       -2 0.13110451E+00 0.23705795E+04</pdfrwt>
<totfact> 0.40144701E+00</totfact>
</mgrwt>
</event>
<event>
12    1  0.1201209E-007  0.1340497E+04  0.7818608E-02  0.8998053E-01
          2   -1    0    0  501    0  0.00000000000E+00  0.00000000000E+00  0.91504351568E+03  0.91504351568E+03  0.00000000000E+00 0. -1.
         -2   -1    0    0    0  501 -0.00000000000E+00 -0.00000000000E+00 -0.49094176680E+03  0.49094176680E+03  0.00000000000E+00 0.  1.
         23    2    1    2    0    0  0.59799950384E+02  0.20140795979E+03 -0.18750655391E+03  0.29608922395E+03  0.91481803911E+02 0.  0.
        254    2    1    2    0    0 -0.59799950384E+02 -0.20140795979E+03  0.61160830279E+03  0.11098960585E+04  0.90203289539E+03 0.  0.
        -24    2    4    4    0    0 -0.42359843669E+03  0.10432587500E+03  0.26099355630E+03  0.51345252338E+03  0.72085598953E+02 0.  0.
         24    2    4    4    0    0  0.36379848631E+03 -0.30573383479E+03  0.35061474649E+03  0.59644353515E+03  0.83616229236E+02 0.  0.
         11    1    3    3    0    0  0.32978022624E+02  0.19895431665E+03 -0.17169201508E+03  0.26485565528E+03  0.00000000000E+00 0.  1.
        -11    1    3    3    0    0  0.26821927760E+02  0.24536431343E+01 -0.15814538834E+02  0.31233568671E+02  0.00000000000E+00 0. -1.
          4    1    6    6  502    0  0.30831373863E+03 -0.29003677113E+03  0.32331290101E+03  0.53264427341E+03  0.00000000000E+00 0. -1.
          3    1    5    5  503    0 -0.32993248903E+03  0.68176203983E+02  0.16742338425E+03  0.37621008985E+03  0.00000000000E+00 0. -1.
         -2    1    5    5    0  503 -0.93665947659E+02  0.36149671021E+02  0.93570172051E+02  0.13724243354E+03  0.00000000000E+00 0.  1.
         -3    1    6    6    0  502  0.55484747676E+02 -0.15697063665E+02  0.27301845477E+02  0.63799261742E+02  0.00000000000E+00 0.  1.
<mgrwt>
<rscale>  0 0.13404970E+04</rscale>
<asrwt>0</asrwt>
<pdfrwt beam="1">  1        2 0.14077593E+00 0.13404970E+04</pdfrwt>
<pdfrwt beam="2">  1       -2 0.75529503E-01 0.13404970E+04</pdfrwt>
<totfact> 0.44028004E+01</totfact>
</mgrwt>
</event>
<event>
12    1  0.1201209E-007  0.2787316E+04  0.7818608E-02  0.8307217E-01
         -2   -1    0    0    0  501 -0.00000000000E+00  0.00000000000E+00  0.14301053426E+04  0.14301053426E+04  0.00000000000E+00 0.  1.
          2   -1    0    0  501    0  0.00000000000E+00 -0.00000000000E+00 -0.13581396481E+04  0.13581396481E+04  0.00000000000E+00 0. -1.
         23    2    1    2    0    0  0.78632715931E+03  0.69018603238E+03 -0.56439745717E+03  0.11921901843E+04  0.90032133922E+02 0.  0.
        254    2    1    2    0    0 -0.78632715931E+03 -0.69018603238E+03  0.63636315169E+03  0.15960548063E+04  0.10236042805E+04 0.  0.
        -24    2    4    4    0    0 -0.74016826605E+03 -0.47002777108E+03  0.88724636092E+03  0.12496246176E+04  0.74702156720E+02 0.  0.
         24    2    4    4    0    0 -0.46158893261E+02 -0.22015826130E+03 -0.25088320924E+03  0.34643018874E+03  0.80443691761E+02 0.  0.
         13    1    3    3    0    0  0.78239920005E+03  0.69006960298E+03 -0.55429396519E+03  0.11813493831E+04  0.00000000000E+00 0. -1.
        -13    1    3    3    0    0  0.39279592673E+01  0.11642939696E+00 -0.10103491985E+02  0.10840801175E+02  0.00000000000E+00 0.  1.
          2    1    6    6  502    0 -0.33504484566E+02 -0.19528233760E+03 -0.17069385954E+03  0.26152272472E+03  0.00000000000E+00 0. -1.
          3    1    5    5  503    0 -0.74127198380E+03 -0.46626182104E+03  0.88528873746E+03  0.12452390889E+04  0.00000000000E+00 0. -1.
         -4    1    5    5    0  503  0.11037177497E+01 -0.37659500355E+01  0.19576234627E+01  0.43855287210E+01  0.00000000000E+00 0.  1.
         -1    1    6    6    0  502 -0.12654408696E+02 -0.24875923703E+02 -0.80189349700E+02  0.84907464011E+02  0.00000000000E+00 0.  1.
<mgrwt>
<rscale>  0 0.27873161E+04</rscale>
<asrwt>0</asrwt>
<pdfrwt beam="1">  1        2 0.20894456E+00 0.27873161E+04</pdfrwt>
<pdfrwt beam="2">  1       -2 0.22001621E+00 0.27873161E+04</pdfrwt>
<totfact> 0.13165470E+00</totfact>
</mgrwt>
</event>
<event>
12    1  0.1201209E-007  0.1721696E+04  0.7818608E-02  0.8749086E-01
          1   -1    0    0  501    0  0.00000000000E+00  0.00000000000E+00  0.17976507429E+04  0.17976507429E+04  0.00000000000E+00 0. -1.
         -1   -1    0    0    0  501 -0.00000000000E+00 -0.00000000000E+00 -0.41223754130E+03  0.41223754130E+03  0.00000000000E+00 0.  1.
         23    2    1    2    0    0  0.58727876353E+03 -0.62064026286E+02  0.26881521278E+03  0.65552799297E+03  0.93311529259E+02 0.  0.
        254    2    1    2    0    0 -0.58727876353E+03  0.62064026286E+02  0.11165979888E+04  0.15543602912E+04  0.90581264994E+03 0.  0.
        -24    2    4    4    0    0 -0.20420769811E+03  0.44793308496E+03  0.34301490020E+03  0.60536494852E+03  0.80390711980E+02 0.  0.
         24    2    4    4    0    0 -0.38307106542E+03 -0.38586905868E+03  0.77358308858E+03  0.94899534266E+03  0.80765053312E+02 0.  0.
         11    1    3    3    0    0  0.56897368346E+03 -0.76847206307E+02  0.25478805245E+03  0.62813493555E+03  0.00000000000E+00 0.  1.
        -11    1    3    3    0    0  0.18305080075E+02  0.14783180022E+02  0.14027160331E+02  0.27393057424E+02  0.00000000000E+00 0. -1.
          4    1    6    6  502    0 -0.15829870805E+03 -0.12551803300E+03  0.34079183319E+03  0.39617209790E+03  0.00000000000E+00 0. -1.
          1    1    5    5  503    0 -0.14917222480E+02  0.38127643836E+02  0.46243449736E+01  0.41202248937E+02  0.00000000000E+00 0. -1.
         -2    1    5    5    0  503 -0.18929047563E+03  0.40980544113E+03  0.33839055522E+03  0.56416269959E+03  0.00000000000E+00 0.  1.
         -3    1    6    6    0  502 -0.22477235737E+03 -0.26035102567E+03  0.43279125539E+03  0.55282324476E+03  0.00000000000E+00 0.  1.
<mgrwt>
<rscale>  0 0.17216958E+04</rscale>
<asrwt>0</asrwt>
<pdfrwt beam="1">  1        1 0.27656165E+00 0.17216958E+04</pdfrwt>
<pdfrwt beam="2">  1       -1 0.63421161E-01 0.17216958E+04</pdfrwt>
<totfact> 0.97940284E+00</totfact>
</mgrwt>
</event>
<event>
12    1  0.1201209E-007  0.1508812E+04  0.7818608E-02  0.8878614E-01
          1   -1    0    0  501    0  0.00000000000E+00  0.00000000000E+00  0.22292315903E+04  0.22292315903E+04  0.00000000000E+00 0. -1.
         -1   -1    0    0    0  501 -0.00000000000E+00 -0.00000000000E+00 -0.25530260936E+03  0.25530260936E+03  0.00000000000E+00 0.  1.
         23    2    1    2    0    0  0.18216586775E+03 -0.29599440814E+03  0.10218415360E+03  0.37354191035E+03  0.91076146826E+02 0.  0.
        254    2    1    2    0    0 -0.18216586775E+03  0.29599440814E+03  0.18717448274E+04  0.21109922893E+04  0.91217468385E+03 0.  0.
        -24    2    4    4    0    0  0.26743082898E+03 -0.16112099789E+03  0.75346145691E+03  0.81948349269E+03  0.79811048742E+02 0.  0.
         24    2    4    4    0    0 -0.44959669672E+03  0.45711540603E+03  0.11182833704E+04  0.12915087966E+04  0.79659218123E+02 0.  0.
         13    1    3    3    0    0  0.66213041314E+02 -0.71582782336E+02 -0.82496167212E+01  0.97858662075E+02  0.00000000000E+00 0. -1.
        -13    1    3    3    0    0  0.11595282643E+03 -0.22441162580E+03  0.11043377032E+03  0.27568324828E+03  0.00000000000E+00 0.  1.
          4    1    6    6  502    0 -0.79512921562E+02  0.43588418535E+02  0.17476903322E+03  0.19689202599E+03  0.00000000000E+00 0. -1.
          3    1    5    5  503    0  0.35483439858E+02  0.35514745091E+01  0.57864063961E+02  0.67970121181E+02  0.00000000000E+00 0. -1.
         -4    1    5    5    0  503  0.23194738912E+03 -0.16467247240E+03  0.69559739295E+03  0.75151337151E+03  0.00000000000E+00 0.  1.
         -3    1    6    6    0  502 -0.37008377516E+03  0.41352698750E+03  0.94351433723E+03  0.10946167707E+04  0.00000000000E+00 0.  1.
<mgrwt>
<rscale>  0 0.15088123E+04</rscale>
<asrwt>0</asrwt>
<pdfrwt beam="1">  1        1 0.34295869E+00 0.15088123E+04</pdfrwt>
<pdfrwt beam="2">  1       -1 0.39277326E-01 0.15088123E+04</pdfrwt>
<totfact> 0.12683529E+01</totfact>
</mgrwt>
</event>
<event>
12    1  0.1201209E-007  0.1278006E+04  0.7818608E-02  0.9047190E-01
          2   -1    0    0  501    0  0.00000000000E+00  0.00000000000E+00  0.13363227960E+04  0.13363227960E+04  0.00000000000E+00 0. -1.
         -2   -1    0    0    0  501 -0.00000000000E+00 -0.00000000000E+00 -0.30555870017E+03  0.30555870017E+03  0.00000000000E+00 0.  1.
         23    2    1    2    0    0  0.88548598016E+02 -0.10960395416E+03  0.62339724405E+03  0.64589821111E+03  0.93308596809E+02 0.  0.
        254    2    1    2    0    0 -0.88548598016E+02  0.10960395416E+03  0.40736685175E+03  0.99598328503E+03  0.89787586624E+03 0.  0.
        -24    2    4    4    0    0 -0.82739945766E+02  0.18021642757E+03  0.67356769624E+03  0.70735170349E+03  0.85610347596E+02 0.  0.
         24    2    4    4    0    0 -0.58086522496E+01 -0.70612473413E+02 -0.26620084449E+03  0.28863158154E+03  0.86170983578E+02 0.  0.
         13    1    3    3    0    0  0.10320525156E+03 -0.71481371651E+02  0.51445271077E+03  0.52954933865E+03  0.00000000000E+00 0. -1.
        -13    1    3    3    0    0 -0.14656653542E+02 -0.38122582511E+02  0.10894453328E+03  0.11634887246E+03  0.00000000000E+00 0.  1.
          4    1    6    6  502    0 -0.21579076402E+02 -0.86187868548E+02 -0.20084867465E+03  0.21962284793E+03  0.00000000000E+00 0. -1.
          3    1    5    5  503    0 -0.33802606396E+02  0.76023757518E+02  0.15249270039E+03  0.17371313013E+03  0.00000000000E+00 0. -1.
         -4    1    5    5    0  503 -0.48937339371E+02  0.10419267006E+03  0.52107499585E+03  0.53363857336E+03  0.00000000000E+00 0.  1.
         -3    1    6    6    0  502  0.15770424153E+02  0.15575395135E+02 -0.65352169840E+02  0.69008733610E+02  0.00000000000E+00 0.  1.
<mgrwt>
<rscale>  0 0.12780063E+04</rscale>
<asrwt>0</asrwt>
<pdfrwt beam="1">  1        2 0.20558812E+00 0.12780063E+04</pdfrwt>
<pdfrwt beam="2">  1       -2 0.47009032E-01 0.12780063E+04</pdfrwt>
<totfact> 0.66278199E+01</totfact>
</mgrwt>
</event>
<event>
12    1  0.1201209E-007  0.2873978E+04  0.7818608E-02  0.8280662E-01
          2   -1    0    0  501    0  0.00000000000E+00  0.00000000000E+00  0.27970662278E+04  0.27970662278E+04  0.00000000000E+00 0. -1.
         -2   -1    0    0    0  501 -0.00000000000E+00 -0.00000000000E+00 -0.73825125190E+03  0.73825125190E+03  0.00000000000E+00 0.  1.
         23    2    1    2    0    0 -0.66548813639E+03  0.10949905595E+04  0.11528492120E+04  0.17260455708E+04  0.91067127183E+02 0.  0.
        254    2    1    2    0    0  0.66548813639E+03 -0.10949905595E+04  0.90596576392E+03  0.18092719090E+04  0.90045104815E+03 0.  0.
        -24    2    4    4    0    0 -0.18999339157E+03 -0.36124614456E+03  0.37875074863E+03  0.56234688287E+03  0.78648720783E+02 0.  0.
         24    2    4    4    0    0  0.85548152797E+03 -0.73374441494E+03  0.52721501528E+03  0.12469250261E+04  0.81466786046E+02 0.  0.
         13    1    3    3    0    0 -0.23569749375E+03  0.33887170361E+03  0.32586230330E+03  0.52590263431E+03  0.00000000000E+00 0. -1.
        -13    1    3    3    0    0 -0.42979064265E+03  0.75611885589E+03  0.82698690870E+03  0.12001429364E+04  0.00000000000E+00 0.  1.
          2    1    6    6  502    0  0.57602782379E+03 -0.47015892300E+03  0.38489580191E+03  0.83725876824E+03  0.00000000000E+00 0. -1.
          1    1    5    5  503    0 -0.10529628735E+03 -0.23265987577E+03  0.18750931579E+03  0.31682435107E+03  0.00000000000E+00 0. -1.
         -2    1    5    5    0  503 -0.84697104221E+02 -0.12858626879E+03  0.19124143284E+03  0.24552253180E+03  0.00000000000E+00 0.  1.
         -1    1    6    6    0  502  0.27945370418E+03 -0.26358549194E+03  0.14231921337E+03  0.40966625787E+03  0.00000000000E+00 0.  1.
<mgrwt>
<rscale>  0 0.28739782E+04</rscale>
<asrwt>0</asrwt>
<pdfrwt beam="1">  1        2 0.43031788E+00 0.28739782E+04</pdfrwt>
<pdfrwt beam="2">  1       -2 0.11357712E+00 0.28739782E+04</pdfrwt>
<totfact> 0.12201793E+00</totfact>
</mgrwt>
</event>
<event>
12    1  0.1201209E-007  0.1847032E+04  0.7818608E-02  0.8681681E-01
          2   -1    0    0  501    0  0.00000000000E+00  0.00000000000E+00  0.34825213901E+04  0.34825213901E+04  0.00000000000E+00 0. -1.
         -2   -1    0    0    0  501 -0.00000000000E+00 -0.00000000000E+00 -0.24490347200E+03  0.24490347200E+03  0.00000000000E+00 0.  1.
         23    2    1    2    0    0  0.65631232319E+03 -0.23404875599E+03  0.11133383813E+04  0.13165395774E+04  0.90716160494E+02 0.  0.
        254    2    1    2    0    0 -0.65631232319E+03  0.23404875599E+03  0.21242795367E+04  0.24108852847E+04  0.90237443440E+03 0.  0.
        -24    2    4    4    0    0 -0.51810916436E+03  0.55558731979E+03  0.16294685463E+04  0.17995929214E+04  0.79073151983E+02 0.  0.
         24    2    4    4    0    0 -0.13820315883E+03 -0.32153856380E+03  0.49481099046E+03  0.61129236326E+03  0.79707439919E+02 0.  0.
         13    1    3    3    0    0  0.32581311743E+03 -0.16421273109E+03  0.57275218316E+03  0.67909135752E+03  0.00000000000E+00 0. -1.
        -13    1    3    3    0    0  0.33049920576E+03 -0.69836024895E+02  0.54058619819E+03  0.63744821990E+03  0.00000000000E+00 0.  1.
          2    1    6    6  502    0 -0.76024511639E+02 -0.22881550472E+03  0.28240462925E+03  0.37133359152E+03  0.00000000000E+00 0. -1.
          1    1    5    5  503    0 -0.48555691837E+03  0.48624654351E+03  0.14693048348E+04  0.16220536118E+04  0.00000000000E+00 0. -1.
         -2    1    5    5    0  503 -0.32552245987E+02  0.69340776280E+02  0.16016371146E+03  0.17753930957E+03  0.00000000000E+00 0.  1.
         -1    1    6    6    0  502 -0.62178647194E+02 -0.92723059079E+02  0.21240636121E+03  0.23995877174E+03  0.00000000000E+00 0.  1.
<mgrwt>
<rscale>  0 0.18470318E+04</rscale>
<asrwt>0</asrwt>
<pdfrwt beam="1">  1        2 0.53577249E+00 0.18470318E+04</pdfrwt>
<pdfrwt beam="2">  1       -2 0.37677460E-01 0.18470318E+04</pdfrwt>
<totfact> 0.52653192E+00</totfact>
</mgrwt>
</event>
<event>
12    1  0.1201209E-007  0.1885077E+04  0.7818608E-02  0.8662321E-01
         -2   -1    0    0    0  501 -0.00000000000E+00  0.00000000000E+00  0.32817622721E+03  0.32817622721E+03  0.00000000000E+00 0. -1.
          2   -1    0    0  501    0  0.00000000000E+00 -0.00000000000E+00 -0.27070167407E+04  0.27070167407E+04  0.00000000000E+00 0.  1.
         23    2    1    2    0    0  0.23309928638E+03  0.39065661405E+03 -0.18302036164E+04  0.18880170439E+04  0.89527722317E+02 0.  0.
        254    2    1    2    0    0 -0.23309928638E+03 -0.39065661405E+03 -0.54863689711E+03  0.11471759241E+04  0.89892284900E+03 0.  0.
        -24    2    4    4    0    0 -0.23925174825E+03 -0.12141596076E+03  0.20223058093E+03  0.34538607078E+03  0.80069316610E+02 0.  0.
         24    2    4    4    0    0  0.61524618674E+01 -0.26924065329E+03 -0.75086747803E+03  0.80178985327E+03  0.80849347980E+02 0.  0.
         13    1    3    3    0    0  0.19616980406E+03  0.37541996235E+03 -0.16835896571E+04  0.17360578543E+04  0.00000000000E+00 0.  1.
        -13    1    3    3    0    0  0.36929482316E+02  0.15236651700E+02 -0.14661395936E+03  0.15195918958E+03  0.00000000000E+00 0. -1.
          4    1    6    6  502    0 -0.23672534076E+02 -0.56798077885E+02 -0.23881249590E+03  0.24661268970E+03  0.00000000000E+00 0. -1.
          3    1    5    5  503    0 -0.25692462891E+02  0.11632425307E+02  0.24142351876E+02  0.37125047098E+02  0.00000000000E+00 0. -1.
         -4    1    5    5    0  503 -0.21355928536E+03 -0.13304838607E+03  0.17808822905E+03  0.30826102368E+03  0.00000000000E+00 0.  1.
         -3    1    6    6    0  502  0.29824995943E+02 -0.21244257540E+03 -0.51205498213E+03  0.55517716358E+03  0.00000000000E+00 0.  1.
<mgrwt>
<rscale>  0 0.18850767E+04</rscale>
<asrwt>0</asrwt>
<pdfrwt beam="1">  1        2 0.41646410E+00 0.18850767E+04</pdfrwt>
<pdfrwt beam="2">  1       -2 0.50488652E-01 0.18850767E+04</pdfrwt>
<totfact> 0.91638389E+00</totfact>
</mgrwt>
</event>
<event>
12    1  0.1201209E-007  0.1412268E+04  0.7818608E-02  0.8944986E-01
          2   -1    0    0  501    0  0.00000000000E+00  0.00000000000E+00  0.69204805229E+03  0.69204805229E+03  0.00000000000E+00 0. -1.
         -2   -1    0    0    0  501 -0.00000000000E+00 -0.00000000000E+00 -0.72050681198E+03  0.72050681198E+03  0.00000000000E+00 0.  1.
         23    2    1    2    0    0  0.33293967252E+03 -0.24094274556E+03  0.67545302201E+02  0.42639021260E+03  0.91345571206E+02 0.  0.
        254    2    1    2    0    0 -0.33293967252E+03  0.24094274556E+03 -0.96004061894E+02  0.98616465167E+03  0.89129215643E+03 0.  0.
        -24    2    4    4    0    0 -0.16020379608E+03  0.12079930259E+03 -0.48816821493E+03  0.53404809320E+03  0.81494981477E+02 0.  0.
         24    2    4    4    0    0 -0.17273587644E+03  0.12014344297E+03  0.39216415303E+03  0.45211655846E+03  0.79652555613E+02 0.  0.
         11    1    3    3    0    0  0.33161573969E+03 -0.22543141598E+03  0.76809562230E+02  0.40827445545E+03  0.00000000000E+00 0. -1.
        -11    1    3    3    0    0  0.13239328311E+01 -0.15511329579E+02 -0.92642600296E+01  0.18115757157E+02  0.00000000000E+00 0.  1.
          2    1    6    6  502    0 -0.15946231030E+03  0.87040500154E+02  0.27455290903E+03  0.32921661096E+03  0.00000000000E+00 0. -1.
          3    1    5    5  503    0 -0.12414146662E+03  0.85235158618E+02 -0.43628529089E+03  0.46154197105E+03  0.00000000000E+00 0. -1.
         -4    1    5    5    0  503 -0.36062329462E+02  0.35564143971E+02 -0.51882924040E+02  0.72506122152E+02  0.00000000000E+00 0.  1.
         -1    1    6    6    0  502 -0.13273566136E+02  0.33102942816E+02  0.11761124400E+03  0.12289994750E+03  0.00000000000E+00 0.  1.
<mgrwt>
<rscale>  0 0.14122682E+04</rscale>
<asrwt>0</asrwt>
<pdfrwt beam="1">  1        2 0.10646893E+00 0.14122682E+04</pdfrwt>
<pdfrwt beam="2">  1       -2 0.11084720E+00 0.14122682E+04</pdfrwt>
<totfact> 0.26071209E+01</totfact>
</mgrwt>
</event>
<event>
12    1  0.1201209E-007  0.1278260E+04  0.7818608E-02  0.9046985E-01
          1   -1    0    0  501    0  0.00000000000E+00  0.00000000000E+00  0.68920795613E+03  0.68920795613E+03  0.00000000000E+00 0. -1.
         -1   -1    0    0    0  501 -0.00000000000E+00 -0.00000000000E+00 -0.59269111146E+03  0.59269111146E+03  0.00000000000E+00 0.  1.
         23    2    1    2    0    0  0.23809843429E+03 -0.78479189596E+02  0.21050189077E+03  0.34024677490E+03  0.92773779726E+02 0.  0.
        254    2    1    2    0    0 -0.23809843429E+03  0.78479189596E+02 -0.11398504610E+03  0.94165229269E+03  0.90048131685E+03 0.  0.
        -24    2    4    4    0    0  0.20750720825E+03  0.34414668520E+03 -0.62778819259E+02  0.41456169512E+03  0.80150087327E+02 0.  0.
         24    2    4    4    0    0 -0.44560564254E+03 -0.26566749561E+03 -0.51206226843E+02  0.52709059758E+03  0.77838380654E+02 0.  0.
         13    1    3    3    0    0  0.18303597825E+03 -0.22024740683E+02  0.11888833536E+03  0.21936657635E+03  0.00000000000E+00 0. -1.
        -13    1    3    3    0    0  0.55062456041E+02 -0.56454448912E+02  0.91613555415E+02  0.12088019856E+03  0.00000000000E+00 0.  1.
          2    1    6    6  502    0 -0.23764311487E+03 -0.11808098388E+03  0.72678404047E+01  0.26546222011E+03  0.00000000000E+00 0. -1.
          1    1    5    5  503    0  0.15546223054E+03  0.26204191116E+03 -0.81868227912E+02  0.31549465141E+03  0.00000000000E+00 0. -1.
         -2    1    5    5    0  503  0.52044977703E+02  0.82104774047E+02  0.19089408653E+02  0.99067043703E+02  0.00000000000E+00 0.  1.
         -1    1    6    6    0  502 -0.20796252766E+03 -0.14758651173E+03 -0.58474067248E+02  0.26162837747E+03  0.00000000000E+00 0.  1.
<mgrwt>
<rscale>  0 0.12782604E+04</rscale>
<asrwt>0</asrwt>
<pdfrwt beam="1">  1        1 0.10603199E+00 0.12782604E+04</pdfrwt>
<pdfrwt beam="2">  1       -1 0.91183248E-01 0.12782604E+04</pdfrwt>
<totfact> 0.32231047E+01</totfact>
</mgrwt>
</event>
<event>
12    1  0.1201209E-007  0.1297128E+04  0.7818608E-02  0.9031846E-01
          1   -1    0    0  501    0  0.00000000000E+00  0.00000000000E+00  0.19607391022E+04  0.19607391022E+04  0.00000000000E+00 0. -1.
         -1   -1    0    0    0  501 -0.00000000000E+00 -0.00000000000E+00 -0.21452897241E+03  0.21452897241E+03  0.00000000000E+00 0.  1.
         23    2    1    2    0    0  0.14096279076E+03 -0.77109147787E+02  0.93145945814E+03  0.94856774673E+03  0.79672573270E+02 0.  0.
        254    2    1    2    0    0 -0.14096279076E+03  0.77109147787E+02  0.81475067161E+03  0.12267003278E+04  0.90286140042E+03 0.  0.
        -24    2    4    4    0    0 -0.36345767309E+03 -0.41210020216E+02  0.52865849045E+01  0.37506531677E+03  0.82742358954E+02 0.  0.
         24    2    4    4    0    0  0.22249488233E+03  0.11831916800E+03  0.80946408671E+03  0.85163501107E+03  0.80911595134E+02 0.  0.
         13    1    3    3    0    0  0.60354371500E+01 -0.35299851855E+02  0.13446805313E+03  0.13915517725E+03  0.00000000000E+00 0.  1.
        -13    1    3    3    0    0  0.13492735361E+03 -0.41809295932E+02  0.79699140500E+03  0.80941256947E+03  0.00000000000E+00 0. -1.
          4    1    6    6  502    0  0.14958810780E+03  0.10708042135E+03  0.65688867317E+03  0.68216240557E+03  0.00000000000E+00 0. -1.
          1    1    5    5  503    0 -0.19670762809E+03 -0.36805999489E+02 -0.35735575173E+02  0.20328699880E+03  0.00000000000E+00 0. -1.
         -2    1    5    5    0  503 -0.16675004500E+03 -0.44040207277E+01  0.41022160077E+02  0.17177831797E+03  0.00000000000E+00 0.  1.
         -3    1    6    6    0  502  0.72906774529E+02  0.11238746651E+02  0.15257541354E+03  0.16947260550E+03  0.00000000000E+00 0.  1.
<mgrwt>
<rscale>  0 0.12971281E+04</rscale>
<asrwt>0</asrwt>
<pdfrwt beam="1">  1        1 0.30165216E+00 0.12971281E+04</pdfrwt>
<pdfrwt beam="2">  1       -1 0.33004459E-01 0.12971281E+04</pdfrwt>
<totfact> 0.26867091E+01</totfact>
</mgrwt>
</event>
<event>
12    1  0.1201209E-007  0.1799962E+04  0.7818608E-02  0.8706320E-01
          2   -1    0    0  501    0  0.00000000000E+00  0.00000000000E+00  0.30194832567E+04  0.30194832567E+04  0.00000000000E+00 0. -1.
         -2   -1    0    0    0  501 -0.00000000000E+00 -0.00000000000E+00 -0.26824639670E+03  0.26824639670E+03  0.00000000000E+00 0.  1.
         23    2    1    2    0    0 -0.10774995742E+03 -0.29131983885E+03 -0.53389471229E+02  0.32821789559E+03  0.91647419577E+02 0.  0.
        254    2    1    2    0    0  0.10774995742E+03  0.29131983885E+03  0.28046263313E+04  0.29595117579E+04  0.89235849576E+03 0.  0.
        -24    2    4    4    0    0  0.26687645101E+03  0.54911136851E+02  0.25591953771E+04  0.25751686194E+04  0.88171236897E+02 0.  0.
         24    2    4    4    0    0 -0.15912649359E+03  0.23640870200E+03  0.24543095413E+03  0.38434313843E+03  0.79202143063E+02 0.  0.
         11    1    3    3    0    0 -0.10864779143E+03 -0.23532221754E+03 -0.72332094199E+02  0.26909630340E+03  0.00000000000E+00 0.  1.
        -11    1    3    3    0    0  0.89783401149E+00 -0.55997621309E+02  0.18942622970E+02  0.59121592191E+02  0.00000000000E+00 0. -1.
          4    1    6    6  502    0 -0.14189670500E+03  0.20029374831E+03  0.16882563172E+03  0.29791669041E+03  0.00000000000E+00 0. -1.
          3    1    5    5  503    0  0.12791843853E+03  0.63583965271E+02  0.10732639754E+04  0.10827287788E+04  0.00000000000E+00 0. -1.
         -4    1    5    5    0  503  0.13895801248E+03 -0.86728284194E+01  0.14859314017E+04  0.14924398406E+04  0.00000000000E+00 0.  1.
         -3    1    6    6    0  502 -0.17229788595E+02  0.36114953696E+02  0.76605322406E+02  0.86426448015E+02  0.00000000000E+00 0.  1.
<mgrwt>
<rscale>  0 0.17999617E+04</rscale>
<asrwt>0</asrwt>
<pdfrwt beam="1">  1        2 0.46453586E+00 0.17999617E+04</pdfrwt>
<pdfrwt beam="2">  1       -2 0.41268679E-01 0.17999617E+04</pdfrwt>
<totfact> 0.89242886E+00</totfact>
</mgrwt>
</event>
<event>
12    1  0.1201209E-007  0.2100593E+04  0.7818608E-02  0.8560982E-01
         -1   -1    0    0    0  501 -0.00000000000E+00  0.00000000000E+00  0.56528250758E+03  0.56528250758E+03  0.00000000000E+00 0. -1.
          1   -1    0    0  501    0  0.00000000000E+00 -0.00000000000E+00 -0.19514538309E+04  0.19514538309E+04  0.00000000000E+00 0.  1.
         23    2    1    2    0    0  0.75020897096E+03  0.36190098782E+03 -0.84575975255E+03  0.11900203001E+04  0.83981726737E+02 0.  0.
        254    2    1    2    0    0 -0.75020897096E+03 -0.36190098782E+03 -0.54041157075E+03  0.13267160384E+04  0.87996872424E+03 0.  0.
        -24    2    4    4    0    0 -0.35752716181E+02 -0.42734716337E+03 -0.39840254208E+03  0.59099050079E+03  0.81494366210E+02 0.  0.
         24    2    4    4    0    0 -0.71445625478E+03  0.65446175552E+02 -0.14200902866E+03  0.73572553760E+03  0.79965996383E+02 0.  0.
         11    1    3    3    0    0  0.34087695754E+03  0.21036250789E+03 -0.39477454363E+03  0.56240236948E+03  0.00000000000E+00 0.  1.
        -11    1    3    3    0    0  0.40933201342E+03  0.15153847993E+03 -0.45098520893E+03  0.62761793058E+03  0.00000000000E+00 0. -1.
          2    1    6    6  502    0 -0.30986695910E+03  0.22560549911E+02 -0.21651339333E+02  0.31144067051E+03  0.00000000000E+00 0. -1.
          1    1    5    5  503    0 -0.31354615231E+01 -0.37380763821E+03 -0.34065786010E+03  0.50575662047E+03  0.00000000000E+00 0. -1.
         -2    1    5    5    0  503 -0.32617254658E+02 -0.53539525163E+02 -0.57744681985E+02  0.85233880316E+02  0.00000000000E+00 0.  1.
         -1    1    6    6    0  502 -0.40458929568E+03  0.42885625640E+02 -0.12035768933E+03  0.42428486710E+03  0.00000000000E+00 0.  1.
<mgrwt>
<rscale>  0 0.21005930E+04</rscale>
<asrwt>0</asrwt>
<pdfrwt beam="1">  1        1 0.30022367E+00 0.21005930E+04</pdfrwt>
<pdfrwt beam="2">  1       -1 0.86966540E-01 0.21005930E+04</pdfrwt>
<totfact> 0.38504078E+00</totfact>
</mgrwt>
</event>
<event>
12    1  0.1201209E-007  0.2534974E+04  0.7818608E-02  0.8390631E-01
          2   -1    0    0  501    0  0.00000000000E+00  0.00000000000E+00  0.18448336449E+04  0.18448336449E+04  0.00000000000E+00 0. -1.
         -2   -1    0    0    0  501 -0.00000000000E+00 -0.00000000000E+00 -0.87082268436E+03  0.87082268436E+03  0.00000000000E+00 0.  1.
         23    2    1    2    0    0  0.10953999058E+04  0.11970492434E+03  0.34983750682E+03  0.11595213437E+04  0.88731294841E+02 0.  0.
        254    2    1    2    0    0 -0.10953999058E+04 -0.11970492434E+03  0.62417345375E+03  0.15561349856E+04  0.90428611088E+03 0.  0.
        -24    2    4    4    0    0 -0.32862444177E+03 -0.25382174233E+03  0.64847404461E+03  0.77330457506E+03  0.71146881019E+02 0.  0.
         24    2    4    4    0    0 -0.76677546408E+03  0.13411681799E+03 -0.24300590860E+02  0.78283041051E+03  0.79378836764E+02 0.  0.
         13    1    3    3    0    0  0.13509517205E+03 -0.34268273823E+01  0.67309309903E+02  0.15097348064E+03  0.00000000000E+00 0. -1.
        -13    1    3    3    0    0  0.96030473379E+03  0.12313175172E+03  0.28252819691E+03  0.10085478631E+04  0.00000000000E+00 0.  1.
          2    1    6    6  502    0 -0.69582747071E+03  0.97537547727E+02 -0.21705737219E+02  0.70296556191E+03  0.00000000000E+00 0. -1.
          1    1    5    5  503    0 -0.98047450037E+02 -0.68189553896E+02  0.24847129134E+03  0.27568297071E+03  0.00000000000E+00 0. -1.
         -2    1    5    5    0  503 -0.23057699173E+03 -0.18563218843E+03  0.40000275327E+03  0.49762160436E+03  0.00000000000E+00 0.  1.
         -1    1    6    6    0  502 -0.70947993368E+02  0.36579270261E+02 -0.25948536413E+01  0.79864848596E+02  0.00000000000E+00 0.  1.
<mgrwt>
<rscale>  0 0.25349738E+04</rscale>
<asrwt>0</asrwt>
<pdfrwt beam="1">  1        2 0.28382056E+00 0.25349738E+04</pdfrwt>
<pdfrwt beam="2">  1       -2 0.13397272E+00 0.25349738E+04</pdfrwt>
<totfact> 0.29154203E+00</totfact>
</mgrwt>
</event>
<event>
12    1  0.1201209E-007  0.1701904E+04  0.7818608E-02  0.8760279E-01
          2   -1    0    0  501    0  0.00000000000E+00  0.00000000000E+00  0.17524690721E+04  0.17524690721E+04  0.00000000000E+00 0.  1.
         -2   -1    0    0    0  501 -0.00000000000E+00 -0.00000000000E+00 -0.41319929994E+03  0.41319929994E+03  0.00000000000E+00 0. -1.
         23    2    1    2    0    0 -0.49370335848E+03 -0.33432833995E+03  0.33092677183E+03  0.68810217997E+03  0.91943660467E+02 0.  0.
        254    2    1    2    0    0  0.49370335848E+03  0.33432833995E+03  0.10083430004E+04  0.14775661921E+04  0.90051529725E+03 0.  0.
        -24    2    4    4    0    0  0.44508496894E+03  0.18346370833E+03  0.36329661910E+02  0.48946339427E+03  0.80591613375E+02 0.  0.
         24    2    4    4    0    0  0.48618389537E+02  0.15086463162E+03  0.97201333845E+03  0.98810279782E+03  0.80083232072E+02 0.  0.
         11    1    3    3    0    0 -0.24435881780E+03 -0.18860272255E+03  0.21849814673E+03  0.37818468889E+03  0.00000000000E+00 0. -1.
        -11    1    3    3    0    0 -0.24934454068E+03 -0.14572561739E+03  0.11242862510E+03  0.30991749108E+03  0.00000000000E+00 0.  1.
          4    1    6    6  502    0  0.59817656243E+02  0.15272003492E+03  0.85882118686E+03  0.87434283440E+03  0.00000000000E+00 0. -1.
          1    1    5    5  503    0  0.40428406184E+03  0.17552391360E+03  0.54499030516E+02  0.44409952852E+03  0.00000000000E+00 0. -1.
         -2    1    5    5    0  503  0.40800907104E+02  0.79397947311E+01 -0.18169368605E+02  0.45363865757E+02  0.00000000000E+00 0.  1.
         -3    1    6    6    0  502 -0.11199266706E+02 -0.18554032967E+01  0.11319215159E+03  0.11375996342E+03  0.00000000000E+00 0.  1.
<mgrwt>
<rscale>  0 0.17019036E+04</rscale>
<asrwt>0</asrwt>
<pdfrwt beam="1">  1        2 0.26961062E+00 0.17019036E+04</pdfrwt>
<pdfrwt beam="2">  1       -2 0.63569124E-01 0.17019036E+04</pdfrwt>
<totfact> 0.19976344E+01</totfact>
</mgrwt>
</event>
<event>
12    1  0.1201209E-007  0.2099597E+04  0.7818608E-02  0.8561421E-01
         -2   -1    0    0    0  501 -0.00000000000E+00  0.00000000000E+00  0.28587909382E+03  0.28587909382E+03  0.00000000000E+00 0.  1.
          2   -1    0    0  501    0  0.00000000000E+00 -0.00000000000E+00 -0.38550472497E+04  0.38550472497E+04  0.00000000000E+00 0. -1.
         23    2    1    2    0    0 -0.46041935801E+02  0.61954786070E+03 -0.26176201073E+04  0.26918187670E+04  0.89408256803E+02 0.  0.
        254    2    1    2    0    0  0.46041935801E+02 -0.61954786070E+03 -0.95154804859E+03  0.14491075766E+04  0.89917165670E+03 0.  0.
        -24    2    4    4    0    0 -0.36405170254E+03 -0.54549534134E+03 -0.49609542616E+03  0.82582044990E+03  0.75960082028E+02 0.  0.
         24    2    4    4    0    0  0.41009363834E+03 -0.74052519357E+02 -0.45545262242E+03  0.62328712669E+03  0.85960358291E+02 0.  0.
         11    1    3    3    0    0 -0.89398702714E+01  0.50001951840E+03 -0.21820284731E+04  0.22386039617E+04  0.00000000000E+00 0.  1.
        -11    1    3    3    0    0 -0.37102065529E+02  0.11952834231E+03 -0.43559163423E+03  0.45321480525E+03  0.00000000000E+00 0. -1.
          4    1    6    6  502    0  0.14051087591E+03 -0.63264224159E+02 -0.14001588669E+03  0.20820690871E+03  0.00000000000E+00 0. -1.
          1    1    5    5  503    0 -0.20826421984E+03 -0.27437710348E+03 -0.29951628974E+03  0.45647211087E+03  0.00000000000E+00 0. -1.
         -2    1    5    5    0  503 -0.15578748270E+03 -0.27111823787E+03 -0.19657913642E+03  0.36934833903E+03  0.00000000000E+00 0.  1.
         -3    1    6    6    0  502  0.26958276243E+03 -0.10788295198E+02 -0.31543673574E+03  0.41508021799E+03  0.00000000000E+00 0.  1.
<mgrwt>
<rscale>  0 0.20995975E+04</rscale>
<asrwt>0</asrwt>
<pdfrwt beam="1">  1        2 0.59308417E+00 0.20995975E+04</pdfrwt>
<pdfrwt beam="2">  1       -2 0.43981401E-01 0.20995975E+04</pdfrwt>
<totfact> 0.20282136E+00</totfact>
</mgrwt>
</event>
<event>
12    1  0.1201209E-007  0.1760547E+04  0.7818608E-02  0.8727566E-01
         -1   -1    0    0    0  501 -0.00000000000E+00  0.00000000000E+00  0.83583144906E+03  0.83583144906E+03  0.00000000000E+00 0.  1.
          1   -1    0    0  501    0  0.00000000000E+00 -0.00000000000E+00 -0.92707897813E+03  0.92707897813E+03  0.00000000000E+00 0. -1.
         23    2    1    2    0    0  0.11023023035E+03 -0.38513198872E+02  0.60483555424E+03  0.62236641907E+03  0.88769036009E+02 0.  0.
        254    2    1    2    0    0 -0.11023023035E+03  0.38513198872E+02 -0.69608308330E+03  0.11405440081E+04  0.89592131653E+03 0.  0.
        -24    2    4    4    0    0 -0.29185588665E+03  0.24931020815E+03 -0.74969966226E+03  0.84568168308E+03  0.76108390121E+02 0.  0.
         24    2    4    4    0    0  0.18162565630E+03 -0.21079700927E+03  0.53616578960E+02  0.29486232503E+03  0.81521745802E+02 0.  0.
         11    1    3    3    0    0  0.11241726411E+03 -0.55421123832E+01  0.43348841462E+03  0.44786221306E+03  0.00000000000E+00 0.  1.
        -11    1    3    3    0    0 -0.21870337656E+01 -0.32971086489E+02  0.17134713962E+03  0.17450420601E+03  0.00000000000E+00 0. -1.
          4    1    6    6  502    0  0.15773087331E+03 -0.20624830671E+03  0.65511672006E+02  0.26778568219E+03  0.00000000000E+00 0. -1.
          3    1    5    5  503    0 -0.23101565358E+03  0.16044471136E+03 -0.49862417458E+03  0.57248301728E+03  0.00000000000E+00 0. -1.
         -4    1    5    5    0  503 -0.60840233068E+02  0.88865496790E+02 -0.25107548768E+03  0.27319866580E+03  0.00000000000E+00 0.  1.
         -3    1    6    6    0  502  0.23894782988E+02 -0.45487025639E+01 -0.11895093046E+02  0.27076642843E+02  0.00000000000E+00 0.  1.
<mgrwt>
<rscale>  0 0.17605474E+04</rscale>
<asrwt>0</asrwt>
<pdfrwt beam="1">  1        1 0.14262754E+00 0.17605474E+04</pdfrwt>
<pdfrwt beam="2">  1       -1 0.12858945E+00 0.17605474E+04</pdfrwt>
<totfact> 0.85372642E+00</totfact>
</mgrwt>
</event>
<event>
12    1  0.1201209E-007  0.1334748E+04  0.7818608E-02  0.9002454E-01
         -1   -1    0    0    0  501 -0.00000000000E+00  0.00000000000E+00  0.13450161707E+04  0.13450161707E+04  0.00000000000E+00 0.  1.
          1   -1    0    0  501    0  0.00000000000E+00 -0.00000000000E+00 -0.33113976125E+03  0.33113976125E+03  0.00000000000E+00 0. -1.
         23    2    1    2    0    0  0.14520910149E+03 -0.30678265974E+03  0.15659188266E+03  0.38471809399E+03  0.91025879068E+02 0.  0.
        254    2    1    2    0    0 -0.14520910149E+03  0.30678265974E+03  0.85728452681E+03  0.12914378380E+04  0.90425308734E+03 0.  0.
        -24    2    4    4    0    0  0.93623541659E+01 -0.11823628731E+02 -0.17688083501E+03  0.19513180280E+03  0.81007029330E+02 0.  0.
         24    2    4    4    0    0 -0.15457145565E+03  0.31860628847E+03  0.10341653618E+04  0.10963060352E+04  0.83586034761E+02 0.  0.
         13    1    3    3    0    0  0.14327467848E+02  0.33025479548E+01  0.45168852596E+01  0.15381333180E+02  0.00000000000E+00 0.  1.
        -13    1    3    3    0    0  0.13088163364E+03 -0.31008520769E+03  0.15207499740E+03  0.36933676081E+03  0.00000000000E+00 0. -1.
          2    1    6    6  502    0 -0.85905706677E+01  0.35621548023E+02  0.50544621441E+02  0.62429571075E+02  0.00000000000E+00 0. -1.
          1    1    5    5  503    0  0.16316773163E+02 -0.27628763579E+02 -0.21113917969E+02  0.38410717194E+02  0.00000000000E+00 0. -1.
         -2    1    5    5    0  503 -0.69544189969E+01  0.15805134849E+02 -0.15576691704E+03  0.15672108561E+03  0.00000000000E+00 0.  1.
         -1    1    6    6    0  502 -0.14598088499E+03  0.28298474044E+03  0.98362074037E+03  0.10338764641E+04  0.00000000000E+00 0.  1.
<mgrwt>
<rscale>  0 0.13347484E+04</rscale>
<asrwt>0</asrwt>
<pdfrwt beam="1">  1        1 0.50944579E-01 0.13347484E+04</pdfrwt>
<pdfrwt beam="2">  1       -1 0.20692556E+00 0.13347484E+04</pdfrwt>
<totfact> 0.10185008E+01</totfact>
</mgrwt>
</event>
<event>
12    1  0.1201209E-007  0.1970000E+04  0.7818608E-02  0.8620777E-01
         -1   -1    0    0    0  501 -0.00000000000E+00  0.00000000000E+00  0.78162869490E+03  0.78162869490E+03  0.00000000000E+00 0.  1.
          1   -1    0    0  501    0  0.00000000000E+00 -0.00000000000E+00 -0.12412857228E+04  0.12412857228E+04  0.00000000000E+00 0. -1.
         23    2    1    2    0    0 -0.49067091142E+03  0.11923290350E+03  0.42813345758E+03  0.66799229113E+03  0.89112372452E+02 0.  0.
        254    2    1    2    0    0  0.49067091142E+03 -0.11923290350E+03 -0.88779048547E+03  0.13549221266E+04  0.89031881612E+03 0.  0.
        -24    2    4    4    0    0  0.71009573916E+03 -0.22042336306E+03 -0.53424571038E+03  0.91908967847E+03  0.80529126781E+02 0.  0.
         24    2    4    4    0    0 -0.21942482773E+03  0.10119045956E+03 -0.35354477509E+03  0.43583244808E+03  0.81050914125E+02 0.  0.
         11    1    3    3    0    0 -0.37205741381E+03  0.12737394821E+03  0.34216114312E+03  0.52127256758E+03  0.00000000000E+00 0.  1.
        -11    1    3    3    0    0 -0.11861349762E+03 -0.81410447175E+01  0.85972314456E+02  0.14671972355E+03  0.00000000000E+00 0. -1.
          4    1    6    6  502    0 -0.16594318648E+03  0.10837700712E+03 -0.24965256100E+03  0.31876185159E+03  0.00000000000E+00 0. -1.
          1    1    5    5  503    0  0.50461641610E+03 -0.19409502957E+03 -0.38139325187E+03  0.66164297055E+03  0.00000000000E+00 0. -1.
         -2    1    5    5    0  503  0.20547932305E+03 -0.26328333487E+02 -0.15285245851E+03  0.25744670792E+03  0.00000000000E+00 0.  1.
         -3    1    6    6    0  502 -0.53481641252E+02 -0.71865475623E+01 -0.10389221408E+03  0.11707059650E+03  0.00000000000E+00 0.  1.
<mgrwt>
<rscale>  0 0.19699995E+04</rscale>
<asrwt>0</asrwt>
<pdfrwt beam="1">  1        1 0.19096703E+00 0.19699995E+04</pdfrwt>
<pdfrwt beam="2">  1       -1 0.12025057E+00 0.19699995E+04</pdfrwt>
<totfact> 0.57119730E+00</totfact>
</mgrwt>
</event>
<event>
12    1  0.1201209E-007  0.2564530E+04  0.7818608E-02  0.8380350E-01
         -2   -1    0    0    0  501 -0.00000000000E+00  0.00000000000E+00  0.44350661898E+03  0.44350661898E+03  0.00000000000E+00 0.  1.
          2   -1    0    0  501    0  0.00000000000E+00 -0.00000000000E+00 -0.37072796680E+04  0.37072796680E+04  0.00000000000E+00 0. -1.
         23    2    1    2    0    0  0.23660190730E+03  0.84734655458E+03 -0.30672253701E+03  0.93660705876E+03  0.95798860635E+02 0.  0.
        254    2    1    2    0    0 -0.23660190730E+03 -0.84734655458E+03 -0.29570505120E+04  0.32141792282E+04  0.90156737654E+03 0.  0.
        -24    2    4    4    0    0  0.28330102339E+03 -0.60594333194E+03 -0.14134662972E+04  0.15657114585E+04  0.78349260158E+02 0.  0.
         24    2    4    4    0    0 -0.51990293070E+03 -0.24140322264E+03 -0.15435842148E+04  0.16484677697E+04  0.78861818166E+02 0.  0.
         13    1    3    3    0    0  0.59336940941E+02  0.18996142410E+03 -0.28305103439E+02  0.20101590506E+03  0.00000000000E+00 0. -1.
        -13    1    3    3    0    0  0.17726496636E+03  0.65738513048E+03 -0.27841743358E+03  0.73559115369E+03  0.00000000000E+00 0.  1.
          4    1    6    6  502    0 -0.50697772690E+03 -0.21979056811E+03 -0.14926932182E+04  0.15916869520E+04  0.00000000000E+00 0. -1.
          1    1    5    5  503    0  0.25851005657E+03 -0.48635790876E+03 -0.11806591323E+04  0.13028152023E+04  0.00000000000E+00 0. -1.
         -2    1    5    5    0  503  0.24790966820E+02 -0.11958542318E+03 -0.23280716495E+03  0.26289625621E+03  0.00000000000E+00 0.  1.
         -3    1    6    6    0  502 -0.12925203792E+02 -0.21612654532E+02 -0.50890996573E+02  0.56780817722E+02  0.00000000000E+00 0.  1.
<mgrwt>
<rscale>  0 0.25645296E+04</rscale>
<asrwt>0</asrwt>
<pdfrwt beam="1">  1        2 0.57035070E+00 0.25645296E+04</pdfrwt>
<pdfrwt beam="2">  1       -2 0.68231790E-01 0.25645296E+04</pdfrwt>
<totfact> 0.10068670E+00</totfact>
</mgrwt>
</event>
<event>
12    1  0.1220116E-007  0.1871493E+04  0.7818608E-02  0.8669178E-01
         -2   -1    0    0    0  501 -0.00000000000E+00  0.00000000000E+00  0.97558642301E+03  0.97558642301E+03  0.00000000000E+00 0.  1.
          2   -1    0    0  501    0  0.00000000000E+00 -0.00000000000E+00 -0.89753383054E+03  0.89753383054E+03  0.00000000000E+00 0. -1.
         23    2    1    2    0    0  0.75238467425E+02 -0.57489610120E+03  0.45025870026E+03  0.73966913772E+03  0.90615572495E+02 0.  0.
        254    2    1    2    0    0 -0.75238467425E+02  0.57489610120E+03 -0.37220610779E+03  0.11334511158E+04  0.90000427284E+03 0.  0.
        -24    2    4    4    0    0 -0.89012412400E+02  0.66194757113E+03 -0.58311023489E+03  0.89042612142E+03  0.82117812865E+02 0.  0.
         24    2    4    4    0    0  0.13773944974E+02 -0.87051469927E+02  0.21090412710E+03  0.24302499441E+03  0.82540396783E+02 0.  0.
         11    1    3    3    0    0  0.16711075220E+02 -0.17684949188E+03  0.19207774345E+03  0.26162733485E+03  0.00000000000E+00 0.  1.
        -11    1    3    3    0    0  0.58527392206E+02 -0.39804660932E+03  0.25818095682E+03  0.47804180287E+03  0.00000000000E+00 0. -1.
          4    1    6    6  502    0  0.44711931132E+02 -0.74951576914E+02  0.15962134878E+03  0.18192270516E+03  0.00000000000E+00 0. -1.
          3    1    5    5  503    0 -0.84093272318E+02  0.62913311661E+03 -0.57457723617E+03  0.85616537958E+03  0.00000000000E+00 0. -1.
         -4    1    5    5    0  503 -0.49191400821E+01  0.32814454517E+02 -0.85329987236E+01  0.34260741842E+02  0.00000000000E+00 0.  1.
         -3    1    6    6    0  502 -0.30937986158E+02 -0.12099893013E+02  0.51282778326E+02  0.61102289248E+02  0.00000000000E+00 0.  1.
<mgrwt>
<rscale>  0 0.18714933E+04</rscale>
<asrwt>0</asrwt>
<pdfrwt beam="1">  1        2 0.13808213E+00 0.18714933E+04</pdfrwt>
<pdfrwt beam="2">  1       -2 0.15009022E+00 0.18714933E+04</pdfrwt>
<totfact> 0.82633688E+00</totfact>
</mgrwt>
</event>
<event>
12    1  0.1201209E-007  0.1818098E+04  0.7818608E-02  0.8696734E-01
         -1   -1    0    0    0  501 -0.00000000000E+00  0.00000000000E+00  0.13559200531E+04  0.13559200531E+04  0.00000000000E+00 0.  1.
          1   -1    0    0  501    0  0.00000000000E+00 -0.00000000000E+00 -0.60945314846E+03  0.60945314846E+03  0.00000000000E+00 0. -1.
         23    2    1    2    0    0 -0.60338269154E+03 -0.36611269028E+03  0.46700960723E+03  0.85125257614E+03  0.91781265617E+02 0.  0.
        254    2    1    2    0    0  0.60338269154E+03  0.36611269028E+03  0.27945729737E+03  0.11141206254E+04  0.81551162617E+03 0.  0.
        -24    2    4    4    0    0  0.68462761715E+02 -0.67247258887E+02 -0.22453421321E+03  0.25701822727E+03  0.80208557391E+02 0.  0.
         24    2    4    4    0    0  0.53491992982E+03  0.43335994917E+03  0.50399151058E+03  0.85710239811E+03  0.81712307812E+02 0.  0.
         11    1    3    3    0    0 -0.97398121326E+02 -0.86543365308E+02  0.55283619949E+02  0.14153595568E+03  0.00000000000E+00 0. -1.
        -11    1    3    3    0    0 -0.50598457021E+03 -0.27956932497E+03  0.41172598728E+03  0.70971662046E+03  0.00000000000E+00 0.  1.
          2    1    6    6  502    0  0.12051789318E+02  0.17617915379E+02  0.18768054379E+01  0.21427994930E+02  0.00000000000E+00 0. -1.
          3    1    5    5  503    0 -0.62397430276E+01  0.63769111610E+01 -0.68065517816E+02  0.68647753820E+02  0.00000000000E+00 0. -1.
         -4    1    5    5    0  503  0.74702504743E+02 -0.73624170048E+02 -0.15646869539E+03  0.18837047345E+03  0.00000000000E+00 0.  1.
         -1    1    6    6    0  502  0.52286814050E+03  0.41574203379E+03  0.50211470514E+03  0.83567440318E+03  0.00000000000E+00 0.  1.
<mgrwt>
<rscale>  0 0.18180976E+04</rscale>
<asrwt>0</asrwt>
<pdfrwt beam="1">  1        1 0.93762023E-01 0.18180976E+04</pdfrwt>
<pdfrwt beam="2">  1       -1 0.20860309E+00 0.18180976E+04</pdfrwt>
<totfact> 0.41440677E+00</totfact>
</mgrwt>
</event>
<event>
12    1  0.1201209E-007  0.2213428E+04  0.7818608E-02  0.8512860E-01
          2   -1    0    0  501    0  0.00000000000E+00  0.00000000000E+00  0.97650863337E+03  0.97650863337E+03  0.00000000000E+00 0.  1.
         -2   -1    0    0    0  501 -0.00000000000E+00 -0.00000000000E+00 -0.12542810280E+04  0.12542810280E+04  0.00000000000E+00 0. -1.
         23    2    1    2    0    0  0.52937757586E+03  0.53428509208E+02 -0.87227013264E+03  0.10259175476E+04  0.92500846930E+02 0.  0.
        254    2    1    2    0    0 -0.52937757586E+03 -0.53428509208E+02  0.59449773806E+03  0.12048721138E+04  0.90288095922E+03 0.  0.
        -24    2    4    4    0    0  0.12972994096E+03 -0.22278381024E+03  0.41700015388E+03  0.49669250874E+03  0.79698407890E+02 0.  0.
         24    2    4    4    0    0 -0.65910751682E+03  0.16935530103E+03  0.17749758418E+03  0.70817960501E+03  0.83120538070E+02 0.  0.
         11    1    3    3    0    0  0.44177862454E+03  0.19995440616E+02 -0.66750926754E+03  0.80071018040E+03  0.00000000000E+00 0. -1.
        -11    1    3    3    0    0  0.87598951320E+02  0.33433068592E+02 -0.20476086510E+03  0.22520736716E+03  0.00000000000E+00 0.  1.
          2    1    6    6  502    0 -0.11732080021E+03  0.17703400917E+02  0.61863359160E+02  0.13380827991E+03  0.00000000000E+00 0. -1.
          3    1    5    5  503    0  0.43013891367E+02 -0.69320939230E+02  0.70034353396E+02  0.10751929186E+03  0.00000000000E+00 0. -1.
         -4    1    5    5    0  503  0.86716049597E+02 -0.15346287101E+03  0.34696580048E+03  0.38917321688E+03  0.00000000000E+00 0.  1.
         -1    1    6    6    0  502 -0.54178671661E+03  0.15165190011E+03  0.11563422502E+03  0.57437132511E+03  0.00000000000E+00 0.  1.
<mgrwt>
<rscale>  0 0.22134283E+04</rscale>
<asrwt>0</asrwt>
<pdfrwt beam="1">  1        2 0.15023210E+00 0.22134283E+04</pdfrwt>
<pdfrwt beam="2">  1       -2 0.19296631E+00 0.22134283E+04</pdfrwt>
<totfact> 0.35257122E+00</totfact>
</mgrwt>
</event>
<event>
12    1  0.1201209E-007  0.1185714E+04  0.7818608E-02  0.9125454E-01
         -1   -1    0    0    0  501 -0.00000000000E+00  0.00000000000E+00  0.15080867350E+04  0.15080867350E+04  0.00000000000E+00 0.  1.
          1   -1    0    0  501    0  0.00000000000E+00 -0.00000000000E+00 -0.23306321293E+03  0.23306321293E+03  0.00000000000E+00 0. -1.
         23    2    1    2    0    0 -0.14085435290E+02  0.23560710270E+03  0.31260734788E+03  0.40209494016E+03  0.90817843092E+02 0.  0.
        254    2    1    2    0    0  0.14085435290E+02 -0.23560710270E+03  0.96241617417E+03  0.13390550077E+04  0.90061885120E+03 0.  0.
        -24    2    4    4    0    0  0.25466491812E+03 -0.25017234666E+03  0.23436010152E+02  0.36641079281E+03  0.79165642538E+02 0.  0.
         24    2    4    4    0    0 -0.24057948283E+03  0.14565243963E+02  0.93898016402E+03  0.97264421494E+03  0.79135242084E+02 0.  0.
         13    1    3    3    0    0  0.35082140829E+01  0.24658083161E+02  0.42235436107E+00  0.24909978210E+02  0.00000000000E+00 0. -1.
        -13    1    3    3    0    0 -0.17593649373E+02  0.21094901954E+03  0.31218499352E+03  0.37718496195E+03  0.00000000000E+00 0.  1.
          2    1    6    6  502    0 -0.23163632930E+03  0.31723164404E+02  0.84873440499E+03  0.88034756684E+03  0.00000000000E+00 0. -1.
          3    1    5    5  503    0  0.19886871154E+03 -0.16990225623E+03 -0.13491333314E+02  0.26191135366E+03  0.00000000000E+00 0. -1.
         -4    1    5    5    0  503  0.55796206583E+02 -0.80270090432E+02  0.36927343466E+02  0.10449943915E+03  0.00000000000E+00 0.  1.
         -1    1    6    6    0  502 -0.89431535286E+01 -0.17157920441E+02  0.90245759028E+02  0.92296648105E+02  0.00000000000E+00 0.  1.
<mgrwt>
<rscale>  0 0.11857142E+04</rscale>
<asrwt>0</asrwt>
<pdfrwt beam="1">  1        1 0.35855880E-01 0.11857142E+04</pdfrwt>
<pdfrwt beam="2">  1       -1 0.23201334E+00 0.11857142E+04</pdfrwt>
<totfact> 0.11068238E+01</totfact>
</mgrwt>
</event>
<event>
12    1  0.1201209E-007  0.1239836E+04  0.7818608E-02  0.9078685E-01
          1   -1    0    0  501    0  0.00000000000E+00  0.00000000000E+00  0.20529518799E+04  0.20529518799E+04  0.00000000000E+00 0. -1.
         -1   -1    0    0    0  501 -0.00000000000E+00 -0.00000000000E+00 -0.18719315339E+03  0.18719315339E+03  0.00000000000E+00 0.  1.
         23    2    1    2    0    0  0.28451385555E+02 -0.50775972116E+02  0.94900464597E+03  0.95499475681E+03  0.89540419766E+02 0.  0.
        254    2    1    2    0    0 -0.28451385555E+02  0.50775972116E+02  0.91675408053E+03  0.12851502765E+04  0.89876888480E+03 0.  0.
        -24    2    4    4    0    0  0.31388684741E+03  0.12649913955E+03  0.55563915039E+02  0.35198086446E+03  0.79222440044E+02 0.  0.
         24    2    4    4    0    0 -0.34233823297E+03 -0.75723167437E+02  0.86119016549E+03  0.93316941202E+03  0.78912524681E+02 0.  0.
         11    1    3    3    0    0  0.39346976095E+02  0.44305694380E+01  0.20015839368E+03  0.20403724423E+03  0.00000000000E+00 0.  1.
        -11    1    3    3    0    0 -0.10895590540E+02 -0.55206541554E+02  0.74884625229E+03  0.75095751258E+03  0.00000000000E+00 0. -1.
          2    1    6    6  502    0 -0.68921103265E+02 -0.35291273507E+01  0.10321709024E+03  0.12416255850E+03  0.00000000000E+00 0. -1.
          3    1    5    5  503    0  0.11681655217E+03  0.51470777758E+02  0.60030934054E+02  0.14106403109E+03  0.00000000000E+00 0. -1.
         -4    1    5    5    0  503  0.19707029525E+03  0.75028361795E+02 -0.44670190151E+01  0.21091683337E+03  0.00000000000E+00 0.  1.
         -1    1    6    6    0  502 -0.27341712970E+03 -0.72194040087E+02  0.75797307525E+03  0.80900685352E+03  0.00000000000E+00 0.  1.
<mgrwt>
<rscale>  0 0.12398363E+04</rscale>
<asrwt>0</asrwt>
<pdfrwt beam="1">  1        1 0.31583874E+00 0.12398363E+04</pdfrwt>
<pdfrwt beam="2">  1       -1 0.28798948E-01 0.12398363E+04</pdfrwt>
<totfact> 0.29733041E+01</totfact>
</mgrwt>
</event>
<event>
12    1  0.1201209E-007  0.2256375E+04  0.7818608E-02  0.8495323E-01
          1   -1    0    0  501    0  0.00000000000E+00  0.00000000000E+00  0.47214232577E+03  0.47214232577E+03  0.00000000000E+00 0. -1.
         -1   -1    0    0    0  501 -0.00000000000E+00 -0.00000000000E+00 -0.26958118130E+04  0.26958118130E+04  0.00000000000E+00 0.  1.
         23    2    1    2    0    0 -0.43955112594E+03 -0.72052223093E+02  0.24203025000E+03  0.51521970438E+03  0.92065122032E+02 0.  0.
        254    2    1    2    0    0  0.43955112594E+03  0.72052223093E+02 -0.24656997372E+04  0.26527344343E+04  0.87116477776E+03 0.  0.
        -24    2    4    4    0    0  0.60332049450E+03 -0.46176360644E+02 -0.22960507788E+04  0.23757730713E+04  0.79502403892E+02 0.  0.
         24    2    4    4    0    0 -0.16376936856E+03  0.11822858374E+03 -0.16964895842E+03  0.27696136305E+03  0.84429991359E+02 0.  0.
         13    1    3    3    0    0 -0.12246591372E+03 -0.57682850416E+02  0.50403074269E+02  0.14444957996E+03  0.00000000000E+00 0. -1.
        -13    1    3    3    0    0 -0.31708521222E+03 -0.14369372678E+02  0.19162717573E+03  0.37077012442E+03  0.00000000000E+00 0.  1.
          2    1    6    6  502    0 -0.79080619352E+02  0.79178483978E+02 -0.43454520957E+02  0.12004695779E+03  0.00000000000E+00 0. -1.
          3    1    5    5  503    0  0.16539089183E+03  0.19406237153E+02 -0.68808264668E+03  0.70794666310E+03  0.00000000000E+00 0. -1.
         -4    1    5    5    0  503  0.43792960267E+03 -0.65582597797E+02 -0.16079681321E+04  0.16678264082E+04  0.00000000000E+00 0.  1.
         -1    1    6    6    0  502 -0.84688749205E+02  0.39050099759E+02 -0.12619443747E+03  0.15691440527E+03  0.00000000000E+00 0.  1.
<mgrwt>
<rscale>  0 0.22563748E+04</rscale>
<asrwt>0</asrwt>
<pdfrwt beam="1">  1        1 0.72637281E-01 0.22563748E+04</pdfrwt>
<pdfrwt beam="2">  1       -1 0.41474028E+00 0.22563748E+04</pdfrwt>
<totfact> 0.24674754E-01</totfact>
</mgrwt>
</event>
<event>
12    1  0.1201209E-007  0.2039225E+04  0.7818608E-02  0.8588498E-01
          1   -1    0    0  501    0  0.00000000000E+00  0.00000000000E+00  0.14888461391E+04  0.14888461391E+04  0.00000000000E+00 0. -1.
         -1   -1    0    0    0  501 -0.00000000000E+00 -0.00000000000E+00 -0.69826533963E+03  0.69826533963E+03  0.00000000000E+00 0.  1.
         23    2    1    2    0    0  0.28407360182E+02 -0.56877304726E+03 -0.29874070177E+03  0.64970017817E+03  0.92490849354E+02 0.  0.
        254    2    1    2    0    0 -0.28407360182E+02  0.56877304726E+03  0.10893215012E+04  0.15374113006E+04  0.92341887387E+03 0.  0.
        -24    2    4    4    0    0 -0.58533495129E+02  0.62412863021E+03  0.12189316263E+04  0.13729384182E+04  0.78758323605E+02 0.  0.
         24    2    4    4    0    0  0.30126134947E+02 -0.55355582942E+02 -0.12961012502E+03  0.16447288238E+03  0.79250993445E+02 0.  0.
         13    1    3    3    0    0  0.55692164464E+02 -0.49530204048E+03 -0.26311845734E+03  0.56361072655E+03  0.00000000000E+00 0.  1.
        -13    1    3    3    0    0 -0.27284804281E+02 -0.73471006782E+02 -0.35622244430E+02  0.86089451622E+02  0.00000000000E+00 0. -1.
          2    1    6    6  502    0  0.16800051280E+02  0.83364549150E+01 -0.81283392509E+02  0.83418991251E+02  0.00000000000E+00 0. -1.
          3    1    5    5  503    0  0.15060262415E+02  0.22643852137E+03  0.46221121477E+03  0.51491787939E+03  0.00000000000E+00 0. -1.
         -4    1    5    5    0  503 -0.73593757544E+02  0.39769010884E+03  0.75672041148E+03  0.85802053878E+03  0.00000000000E+00 0.  1.
         -1    1    6    6    0  502  0.13326083666E+02 -0.63692037857E+02 -0.48326732507E+02  0.81053891129E+02  0.00000000000E+00 0.  1.
<mgrwt>
<rscale>  0 0.20392250E+04</rscale>
<asrwt>0</asrwt>
<pdfrwt beam="1">  1        1 0.22905325E+00 0.20392250E+04</pdfrwt>
<pdfrwt beam="2">  1       -1 0.10742544E+00 0.20392250E+04</pdfrwt>
<totfact> 0.49685714E+00</totfact>
</mgrwt>
</event>
<event>
12    1  0.1201209E-007  0.2564300E+04  0.7818608E-02  0.8380430E-01
          1   -1    0    0  501    0  0.00000000000E+00  0.00000000000E+00  0.13685715599E+04  0.13685715599E+04  0.00000000000E+00 0. -1.
         -1   -1    0    0    0  501 -0.00000000000E+00 -0.00000000000E+00 -0.12011855450E+04  0.12011855450E+04  0.00000000000E+00 0.  1.
         23    2    1    2    0    0 -0.39321162150E+03  0.39909227113E+03 -0.90466423357E+03  0.10681552629E+04  0.92996075738E+02 0.  0.
        254    2    1    2    0    0  0.39321162150E+03 -0.39909227113E+03  0.10720502485E+04  0.15016018420E+04  0.88973385713E+03 0.  0.
        -24    2    4    4    0    0  0.48632825408E+03 -0.52822810449E+03  0.11044861474E+04  0.13196397102E+04  0.77583593774E+02 0.  0.
         24    2    4    4    0    0 -0.93116632574E+02  0.12913583337E+03 -0.32435898916E+02  0.18196213176E+03  0.81922885291E+02 0.  0.
         13    1    3    3    0    0 -0.26157972172E+03  0.32129536579E+03 -0.63658599064E+03  0.75953695524E+03  0.00000000000E+00 0.  1.
        -13    1    3    3    0    0 -0.13163189978E+03  0.77796905333E+02 -0.26807824294E+03  0.30861830771E+03  0.00000000000E+00 0. -1.
          2    1    6    6  502    0 -0.28942196887E+02 -0.16046434881E+01 -0.21153206781E+02  0.35884311314E+02  0.00000000000E+00 0. -1.
          1    1    5    5  503    0  0.15223234191E+03 -0.20820056752E+03  0.35356515592E+03  0.43764195608E+03  0.00000000000E+00 0. -1.
         -2    1    5    5    0  503  0.33409591217E+03 -0.32002753697E+03  0.75092099145E+03  0.88199775417E+03  0.00000000000E+00 0.  1.
         -1    1    6    6    0  502 -0.64174435687E+02  0.13074047685E+03 -0.11282692134E+02  0.14607782044E+03  0.00000000000E+00 0.  1.
<mgrwt>
<rscale>  0 0.25642998E+04</rscale>
<asrwt>0</asrwt>
<pdfrwt beam="1">  1        1 0.21054947E+00 0.25642998E+04</pdfrwt>
<pdfrwt beam="2">  1       -1 0.18479778E+00 0.25642998E+04</pdfrwt>
<totfact> 0.13736955E+00</totfact>
</mgrwt>
</event>
<event>
12    1  0.1201209E-007  0.1518793E+04  0.7818608E-02  0.8872051E-01
          2   -1    0    0  501    0  0.00000000000E+00  0.00000000000E+00  0.14005390589E+04  0.14005390589E+04  0.00000000000E+00 0. -1.
         -2   -1    0    0    0  501 -0.00000000000E+00 -0.00000000000E+00 -0.41175766640E+03  0.41175766640E+03  0.00000000000E+00 0.  1.
         23    2    1    2    0    0  0.36681104134E+03  0.21915607064E+02  0.69758472518E+03  0.79411490219E+03  0.94675208938E+02 0.  0.
        254    2    1    2    0    0 -0.36681104134E+03 -0.21915607064E+02  0.29119666731E+03  0.10181818231E+04  0.90380755251E+03 0.  0.
        -24    2    4    4    0    0 -0.46891862402E+03  0.19209511940E+03  0.48166046343E+03  0.70353176246E+03  0.78580709553E+02 0.  0.
         24    2    4    4    0    0  0.10210758268E+03 -0.21401072646E+03 -0.19046379612E+03  0.31465006065E+03  0.80632831732E+02 0.  0.
         13    1    3    3    0    0  0.32069836947E+03  0.45403220247E+02  0.55726400880E+03  0.64455571683E+03  0.00000000000E+00 0. -1.
        -13    1    3    3    0    0  0.46112671868E+02 -0.23487613182E+02  0.14032071638E+03  0.14955918536E+03  0.00000000000E+00 0.  1.
          4    1    6    6  502    0  0.89668319082E+02 -0.20307331591E+03 -0.19704522929E+03  0.29682655115E+03  0.00000000000E+00 0. -1.
          1    1    5    5  503    0 -0.30732442295E+03  0.99578226152E+02  0.34440942130E+03  0.47220967117E+03  0.00000000000E+00 0. -1.
         -2    1    5    5    0  503 -0.16159420107E+03  0.92516893244E+02  0.13725104213E+03  0.23132209129E+03  0.00000000000E+00 0.  1.
         -3    1    6    6    0  502  0.12439263599E+02 -0.10937410549E+02  0.65814331662E+01  0.17823509501E+02  0.00000000000E+00 0.  1.
<mgrwt>
<rscale>  0 0.15187925E+04</rscale>
<asrwt>0</asrwt>
<pdfrwt beam="1">  1        2 0.21546755E+00 0.15187925E+04</pdfrwt>
<pdfrwt beam="2">  1       -2 0.63347334E-01 0.15187925E+04</pdfrwt>
<totfact> 0.32187786E+01</totfact>
</mgrwt>
</event>
<event>
12    1  0.1650307E-007  0.2199270E+04  0.7818608E-02  0.8518732E-01
          2   -1    0    0  501    0  0.00000000000E+00  0.00000000000E+00  0.14327441206E+04  0.14327441206E+04  0.00000000000E+00 0. -1.
         -2   -1    0    0    0  501 -0.00000000000E+00 -0.00000000000E+00 -0.84397314858E+03  0.84397314858E+03  0.00000000000E+00 0.  1.
         23    2    1    2    0    0 -0.32913886311E+03 -0.66593282717E+03 -0.30430057535E+03  0.80827436134E+03  0.94391109423E+02 0.  0.
        254    2    1    2    0    0  0.32913886311E+03  0.66593282717E+03  0.89307154735E+03  0.14684429078E+04  0.89830332478E+03 0.  0.
        -24    2    4    4    0    0  0.26716315292E+02 -0.17044404047E+03 -0.20113386626E+02  0.19122412039E+03  0.79982394714E+02 0.  0.
         24    2    4    4    0    0  0.30242254781E+03  0.83637686764E+03  0.91318493397E+03  0.12772187874E+04  0.79971527171E+02 0.  0.
         11    1    3    3    0    0 -0.27990164395E+03 -0.62485186709E+03 -0.27775873732E+03  0.73887394205E+03  0.00000000000E+00 0.  1.
        -11    1    3    3    0    0 -0.49237219157E+02 -0.41080960081E+02 -0.26541838035E+02  0.69400419291E+02  0.00000000000E+00 0. -1.
          2    1    6    6  502    0  0.96824782709E+02  0.36386351353E+03  0.35397906991E+03  0.51679094126E+03  0.00000000000E+00 0. -1.
          3    1    5    5  503    0  0.35057690333E+02 -0.60508425919E+02  0.21837378049E+02  0.73261056085E+02  0.00000000000E+00 0. -1.
         -4    1    5    5    0  503 -0.83413750402E+01 -0.10993561455E+03 -0.41950764675E+02  0.11796306431E+03  0.00000000000E+00 0.  1.
         -1    1    6    6    0  502  0.20559776510E+03  0.47251335410E+03  0.55920586406E+03  0.76042784616E+03  0.00000000000E+00 0.  1.
<mgrwt>
<rscale>  0 0.21992704E+04</rscale>
<asrwt>0</asrwt>
<pdfrwt beam="1">  1        2 0.22042217E+00 0.21992704E+04</pdfrwt>
<pdfrwt beam="2">  1       -2 0.12984202E+00 0.21992704E+04</pdfrwt>
<totfact> 0.55204033E+00</totfact>
</mgrwt>
</event>
<event>
12    1  0.1201209E-007  0.3696745E+04  0.7818608E-02  0.8068684E-01
          2   -1    0    0  501    0  0.00000000000E+00  0.00000000000E+00  0.10237822392E+04  0.10237822392E+04  0.00000000000E+00 0. -1.
         -2   -1    0    0    0  501 -0.00000000000E+00 -0.00000000000E+00 -0.33371165431E+04  0.33371165431E+04  0.00000000000E+00 0.  1.
         23    2    1    2    0    0 -0.15858148853E+04 -0.68698876829E+03 -0.83871970145E+03  0.19231800209E+04  0.91696438881E+02 0.  0.
        254    2    1    2    0    0  0.15858148853E+04  0.68698876829E+03 -0.14746146024E+04  0.24377187614E+04  0.88386770259E+03 0.  0.
        -24    2    4    4    0    0  0.85794672556E+03  0.80426216879E+03 -0.72757686555E+03  0.13852753766E+04  0.81911865440E+02 0.  0.
         24    2    4    4    0    0  0.72786815973E+03 -0.11727340050E+03 -0.74703773690E+03  0.10524433848E+04  0.77631111017E+02 0.  0.
         11    1    3    3    0    0 -0.11091171196E+04 -0.51292098006E+03 -0.62490418626E+03  0.13724918793E+04  0.00000000000E+00 0. -1.
        -11    1    3    3    0    0 -0.47669776570E+03 -0.17406778823E+03 -0.21381551519E+03  0.55068814156E+03  0.00000000000E+00 0.  1.
          4    1    6    6  502    0  0.58291323980E+03 -0.12119941900E+03 -0.62122664518E+03  0.86046480985E+03  0.00000000000E+00 0. -1.
          1    1    5    5  503    0  0.56912688388E+03  0.52662930757E+03 -0.43392353564E+03  0.88855696066E+03  0.00000000000E+00 0. -1.
         -2    1    5    5    0  503  0.28881984168E+03  0.27763286122E+03 -0.29365332991E+03  0.49671841595E+03  0.00000000000E+00 0.  1.
         -3    1    6    6    0  502  0.14495491993E+03  0.39260185040E+01 -0.12581109171E+03  0.19197857493E+03  0.00000000000E+00 0.  1.
<mgrwt>
<rscale>  0 0.36967449E+04</rscale>
<asrwt>0</asrwt>
<pdfrwt beam="1">  1        2 0.15750496E+00 0.36967449E+04</pdfrwt>
<pdfrwt beam="2">  1       -2 0.51340254E+00 0.36967449E+04</pdfrwt>
<totfact> 0.26863515E-02</totfact>
</mgrwt>
</event>
<event>
12    1  0.1201209E-007  0.3375324E+04  0.7818608E-02  0.8143989E-01
          2   -1    0    0  501    0  0.00000000000E+00  0.00000000000E+00  0.30114847420E+04  0.30114847420E+04  0.00000000000E+00 0. -1.
         -2   -1    0    0    0  501 -0.00000000000E+00 -0.00000000000E+00 -0.94578037804E+03  0.94578037804E+03  0.00000000000E+00 0.  1.
         23    2    1    2    0    0 -0.13094331235E+04  0.20714229357E+03  0.19359264362E+04  0.23481472091E+04  0.91984317051E+02 0.  0.
        254    2    1    2    0    0  0.13094331235E+04 -0.20714229357E+03  0.12977792775E+03  0.16091179109E+04  0.90271540685E+03 0.  0.
        -24    2    4    4    0    0  0.57625439984E+03 -0.11843433607E+03  0.50335639397E+03  0.77824121605E+03  0.78714075724E+02 0.  0.
         24    2    4    4    0    0  0.73317872370E+03 -0.88707957501E+02 -0.37357846622E+03  0.83087669483E+03  0.73314861857E+02 0.  0.
         13    1    3    3    0    0 -0.12005264898E+04  0.16526424025E+03  0.17496681345E+04  0.21283596272E+04  0.00000000000E+00 0. -1.
        -13    1    3    3    0    0 -0.10890663379E+03  0.41878053318E+02  0.18625830163E+03  0.21978758191E+03  0.00000000000E+00 0.  1.
          2    1    6    6  502    0  0.62028618372E+03 -0.56427573010E+02 -0.29197022267E+03  0.68788489709E+03  0.00000000000E+00 0. -1.
          1    1    5    5  503    0  0.32311877079E+03 -0.80154059462E+02  0.33205823890E+03  0.47020536716E+03  0.00000000000E+00 0. -1.
         -2    1    5    5    0  503  0.25313562905E+03 -0.38280276605E+02  0.17129815507E+03  0.30803584889E+03  0.00000000000E+00 0.  1.
         -1    1    6    6    0  502  0.11289253998E+03 -0.32280384491E+02 -0.81608243546E+02  0.14299179774E+03  0.00000000000E+00 0.  1.
<mgrwt>
<rscale>  0 0.33753241E+04</rscale>
<asrwt>0</asrwt>
<pdfrwt beam="1">  1        2 0.46330534E+00 0.33753241E+04</pdfrwt>
<pdfrwt beam="2">  1       -2 0.14550467E+00 0.33753241E+04</pdfrwt>
<totfact> 0.46122483E-01</totfact>
</mgrwt>
</event>
<event>
12    1  0.1201209E-007  0.2131267E+04  0.7818608E-02  0.8547594E-01
          2   -1    0    0  501    0  0.00000000000E+00  0.00000000000E+00  0.34022446032E+04  0.34022446032E+04  0.00000000000E+00 0. -1.
         -2   -1    0    0    0  501 -0.00000000000E+00 -0.00000000000E+00 -0.33377221707E+03  0.33377221707E+03  0.00000000000E+00 0.  1.
         23    2    1    2    0    0  0.56675653907E+03  0.44416856215E+03  0.39604296287E+03  0.82580844706E+03  0.81307297406E+02 0.  0.
        254    2    1    2    0    0 -0.56675653907E+03 -0.44416856215E+03  0.26724294233E+04  0.29102083733E+04  0.89940817601E+03 0.  0.
        -24    2    4    4    0    0 -0.69077036880E+03 -0.32954441038E+03  0.11961578807E+04  0.14221344205E+04  0.76872710174E+02 0.  0.
         24    2    4    4    0    0  0.12401382973E+03 -0.11462415177E+03  0.14762715426E+04  0.14880739527E+04  0.80425712796E+02 0.  0.
         13    1    3    3    0    0  0.68024231941E+01  0.16987402938E+02  0.21091868371E+02  0.27923318773E+02  0.00000000000E+00 0.  1.
        -13    1    3    3    0    0  0.55995411588E+03  0.42718115921E+03  0.37495109450E+03  0.79788512828E+03  0.00000000000E+00 0. -1.
          4    1    6    6  502    0  0.91242213555E+02 -0.68657858688E+02  0.12358281985E+04  0.12410924137E+04  0.00000000000E+00 0. -1.
          1    1    5    5  503    0 -0.44117460354E+03 -0.22734902896E+03  0.71175217003E+03  0.86770603509E+03  0.00000000000E+00 0. -1.
         -2    1    5    5    0  503 -0.24959576526E+03 -0.10219538142E+03  0.48440571069E+03  0.55442838543E+03  0.00000000000E+00 0.  1.
         -3    1    6    6    0  502  0.32771616170E+02 -0.45966293080E+02  0.24044334410E+03  0.24698153909E+03  0.00000000000E+00 0.  1.
<mgrwt>
<rscale>  0 0.21312670E+04</rscale>
<asrwt>0</asrwt>
<pdfrwt beam="1">  1        2 0.52342222E+00 0.21312670E+04</pdfrwt>
<pdfrwt beam="2">  1       -2 0.51349574E-01 0.21312670E+04</pdfrwt>
<totfact> 0.31405006E+00</totfact>
</mgrwt>
</event>
<event>
12    1  0.1201209E-007  0.2018876E+04  0.7818608E-02  0.8597846E-01
          1   -1    0    0  501    0  0.00000000000E+00  0.00000000000E+00  0.17751333872E+04  0.17751333872E+04  0.00000000000E+00 0. -1.
         -1   -1    0    0    0  501 -0.00000000000E+00 -0.00000000000E+00 -0.57402158068E+03  0.57402158068E+03  0.00000000000E+00 0.  1.
         23    2    1    2    0    0 -0.70545625135E+03  0.35312994321E+03  0.35488162825E+03  0.87077562537E+03  0.99699249281E+02 0.  0.
        254    2    1    2    0    0  0.70545625135E+03 -0.35312994321E+03  0.84623017825E+03  0.14783793425E+04  0.92039702649E+03 0.  0.
        -24    2    4    4    0    0  0.57602240792E+03 -0.49075265521E+03  0.97512562161E+03  0.12372863619E+04  0.85834611378E+02 0.  0.
         24    2    4    4    0    0  0.12943384343E+03  0.13762271201E+03 -0.12889544335E+03  0.24109298055E+03  0.76280136793E+02 0.  0.
         11    1    3    3    0    0 -0.64686640406E+03  0.31719954639E+03  0.29119541564E+03  0.77707558643E+03  0.00000000000E+00 0. -1.
        -11    1    3    3    0    0 -0.58589847291E+02  0.35930396819E+02  0.63686212611E+02  0.93700038943E+02  0.00000000000E+00 0.  1.
          2    1    6    6  502    0  0.12260095788E+03  0.14372911643E+03 -0.13301518721E+03  0.23104565309E+03  0.00000000000E+00 0. -1.
          1    1    5    5  503    0  0.30676701367E+03 -0.21518152730E+03  0.52081292507E+03  0.64160361072E+03  0.00000000000E+00 0. -1.
         -4    1    5    5    0  503  0.26925539425E+03 -0.27557112791E+03  0.45431269654E+03  0.59568275123E+03  0.00000000000E+00 0.  1.
         -3    1    6    6    0  502  0.68328855481E+01 -0.61064044171E+01  0.41197438539E+01  0.10047327468E+02  0.00000000000E+00 0.  1.
<mgrwt>
<rscale>  0 0.20188758E+04</rscale>
<asrwt>0</asrwt>
<pdfrwt beam="1">  1        1 0.27309744E+00 0.20188758E+04</pdfrwt>
<pdfrwt beam="2">  1       -1 0.88311013E-01 0.20188758E+04</pdfrwt>
<totfact> 0.49402547E+00</totfact>
</mgrwt>
</event>
<event>
12    1  0.1201209E-007  0.2943637E+04  0.7818608E-02  0.8260011E-01
          2   -1    0    0  501    0  0.00000000000E+00  0.00000000000E+00  0.12031675514E+04  0.12031675514E+04  0.00000000000E+00 0. -1.
         -2   -1    0    0    0  501 -0.00000000000E+00 -0.00000000000E+00 -0.18004557760E+04  0.18004557760E+04  0.00000000000E+00 0.  1.
         23    2    1    2    0    0 -0.82513145963E+03 -0.10152528700E+04  0.17885381568E+02  0.13115161716E+04  0.90412752827E+02 0.  0.
        254    2    1    2    0    0  0.82513145963E+03  0.10152528700E+04 -0.61517360613E+03  0.16921071558E+04  0.87932232168E+03 0.  0.
        -24    2    4    4    0    0  0.93698092621E+00 -0.13760396578E+03 -0.41542922251E+02  0.16145020850E+03  0.73516162191E+02 0.  0.
         24    2    4    4    0    0  0.82419447870E+03  0.11528568358E+04 -0.57363068388E+03  0.15306569473E+04  0.74048000577E+02 0.  0.
         13    1    3    3    0    0 -0.62642927197E+02 -0.11214474794E+03  0.16974091971E+02  0.12957121832E+03  0.00000000000E+00 0. -1.
        -13    1    3    3    0    0 -0.76248853243E+03 -0.90310812205E+03  0.91128959707E+00  0.11819449533E+04  0.00000000000E+00 0.  1.
          4    1    6    6  502    0  0.81076516236E+03  0.11152712744E+04 -0.56308995430E+03  0.14893758628E+04  0.00000000000E+00 0. -1.
          3    1    5    5  503    0 -0.22659293661E+02 -0.46893819682E+02  0.12083118174E+02  0.53464714143E+02  0.00000000000E+00 0. -1.
         -4    1    5    5    0  503  0.23596274587E+02 -0.90710146099E+02 -0.53626040425E+02  0.10798549436E+03  0.00000000000E+00 0.  1.
         -3    1    6    6    0  502  0.13429316339E+02  0.37585561354E+02 -0.10540729574E+02  0.41281084526E+02  0.00000000000E+00 0.  1.
<mgrwt>
<rscale>  0 0.29436372E+04</rscale>
<asrwt>0</asrwt>
<pdfrwt beam="1">  1        2 0.18510270E+00 0.29436372E+04</pdfrwt>
<pdfrwt beam="2">  1       -2 0.27699320E+00 0.29436372E+04</pdfrwt>
<totfact> 0.71241840E-01</totfact>
</mgrwt>
</event>
<event>
12    1  0.1201209E-007  0.3825255E+04  0.7818608E-02  0.8040757E-01
         -2   -1    0    0    0  501 -0.00000000000E+00  0.00000000000E+00  0.22796605856E+04  0.22796605856E+04  0.00000000000E+00 0.  1.
          2   -1    0    0  501    0  0.00000000000E+00 -0.00000000000E+00 -0.16046878692E+04  0.16046878692E+04  0.00000000000E+00 0. -1.
         23    2    1    2    0    0 -0.60721150503E+03  0.13619559119E+04 -0.70825044261E+03  0.16532571080E+04  0.89502277177E+02 0.  0.
        254    2    1    2    0    0  0.60721150503E+03 -0.13619559119E+04  0.13832231590E+04  0.22310913469E+04  0.91696923205E+03 0.  0.
        -24    2    4    4    0    0  0.47037917921E+03 -0.11954967198E+04  0.61014167246E+03  0.14245195696E+04  0.80710373257E+02 0.  0.
         24    2    4    4    0    0  0.13683232582E+03 -0.16645919217E+03  0.77308148655E+03  0.80657177732E+03  0.80444384934E+02 0.  0.
         11    1    3    3    0    0 -0.27287739809E+03  0.70073497452E+03 -0.38599425745E+03  0.84527104864E+03  0.00000000000E+00 0.  1.
        -11    1    3    3    0    0 -0.33433410695E+03  0.66122093743E+03 -0.32225618516E+03  0.80798605931E+03  0.00000000000E+00 0. -1.
          2    1    6    6  502    0  0.11145013671E+03 -0.75506433155E+02  0.41757535393E+03  0.43873856752E+03  0.00000000000E+00 0. -1.
          1    1    5    5  503    0  0.31863930904E+03 -0.88681400348E+03  0.47105840197E+03  0.10535018292E+04  0.00000000000E+00 0. -1.
         -2    1    5    5    0  503  0.15173987018E+03 -0.30868271629E+03  0.13908327049E+03  0.37101774037E+03  0.00000000000E+00 0.  1.
         -1    1    6    6    0  502  0.25382189107E+02 -0.90952759017E+02  0.35550613262E+03  0.36783320980E+03  0.00000000000E+00 0.  1.
<mgrwt>
<rscale>  0 0.38252549E+04</rscale>
<asrwt>0</asrwt>
<pdfrwt beam="1">  1        2 0.24687506E+00 0.38252549E+04</pdfrwt>
<pdfrwt beam="2">  1       -2 0.35071701E+00 0.38252549E+04</pdfrwt>
<totfact> 0.13651681E-01</totfact>
</mgrwt>
</event>
<event>
12    1  0.1201209E-007  0.1754304E+04  0.7818608E-02  0.8730985E-01
         -2   -1    0    0    0  501 -0.00000000000E+00  0.00000000000E+00  0.47235667669E+03  0.47235667669E+03  0.00000000000E+00 0.  1.
          2   -1    0    0  501    0  0.00000000000E+00 -0.00000000000E+00 -0.16288444433E+04  0.16288444433E+04  0.00000000000E+00 0. -1.
         23    2    1    2    0    0  0.17075012462E+03 -0.59586317514E+03 -0.63195763589E+03  0.89002775372E+03  0.92576564419E+02 0.  0.
        254    2    1    2    0    0 -0.17075012462E+03  0.59586317514E+03 -0.52453013069E+03  0.12111733662E+04  0.89866597606E+03 0.  0.
        -24    2    4    4    0    0 -0.51224782415E+03  0.24941691143E+03 -0.15577334436E+03  0.59625512139E+03  0.81536531191E+02 0.  0.
         24    2    4    4    0    0  0.34149769953E+03  0.34644626371E+03 -0.36875678633E+03  0.61491824485E+03  0.74143023675E+02 0.  0.
         13    1    3    3    0    0  0.89054641452E+02 -0.44568586933E+03 -0.43344380547E+03  0.62804470843E+03  0.00000000000E+00 0. -1.
        -13    1    3    3    0    0  0.81695483172E+02 -0.15017730581E+03 -0.19851383042E+03  0.26198304529E+03  0.00000000000E+00 0.  1.
          2    1    6    6  502    0  0.30339503227E+03  0.29396296496E+03 -0.28771079617E+03  0.51111669178E+03  0.00000000000E+00 0. -1.
          1    1    5    5  503    0 -0.50907704616E+03  0.25132968731E+03 -0.14659566927E+03  0.58635854296E+03  0.00000000000E+00 0. -1.
         -2    1    5    5    0  503 -0.31707779939E+01 -0.19127758829E+01 -0.91776750917E+01  0.98965784367E+01  0.00000000000E+00 0.  1.
         -1    1    6    6    0  502  0.38102667252E+02  0.52483298753E+02 -0.81045990157E+02  0.10380155307E+03  0.00000000000E+00 0.  1.
<mgrwt>
<rscale>  0 0.17543039E+04</rscale>
<asrwt>0</asrwt>
<pdfrwt beam="1">  1        2 0.25059145E+00 0.17543039E+04</pdfrwt>
<pdfrwt beam="2">  1       -2 0.72670259E-01 0.17543039E+04</pdfrwt>
<totfact> 0.17430954E+01</totfact>
</mgrwt>
</event>
<event>
12    1  0.1201209E-007  0.1634874E+04  0.7818608E-02  0.8799406E-01
          2   -1    0    0  501    0  0.00000000000E+00  0.00000000000E+00  0.17557279187E+04  0.17557279187E+04  0.00000000000E+00 0. -1.
         -2   -1    0    0    0  501 -0.00000000000E+00 -0.00000000000E+00 -0.38058453074E+03  0.38058453074E+03  0.00000000000E+00 0.  1.
         23    2    1    2    0    0 -0.20974649432E+03 -0.19867664100E+02 -0.18676348782E+03  0.29607618968E+03  0.91608917430E+02 0.  0.
        254    2    1    2    0    0  0.20974649432E+03  0.19867664100E+02  0.15619068758E+04  0.18402362598E+04  0.95001478261E+03 0.  0.
        -24    2    4    4    0    0  0.14139117652E+03 -0.45434596730E+03  0.86816422394E+03  0.99330156831E+03  0.80728948235E+02 0.  0.
         24    2    4    4    0    0  0.68355317800E+02  0.47421363140E+03  0.69374265185E+03  0.84693469146E+03  0.80426904277E+02 0.  0.
         11    1    3    3    0    0 -0.35922382826E+02 -0.40126394793E+02 -0.33314227121E+02  0.63327583845E+02  0.00000000000E+00 0. -1.
        -11    1    3    3    0    0 -0.17382411149E+03  0.20258730693E+02 -0.15344926070E+03  0.23274860583E+03  0.00000000000E+00 0.  1.
          4    1    6    6  502    0  0.24326992577E+02  0.28769779531E+03  0.35342259421E+03  0.45636537347E+03  0.00000000000E+00 0. -1.
          1    1    5    5  503    0  0.81987822926E+02 -0.13704684692E+03  0.27672250681E+03  0.31949833667E+03  0.00000000000E+00 0. -1.
         -2    1    5    5    0  503  0.59403353594E+02 -0.31729912037E+03  0.59144171713E+03  0.67380323164E+03  0.00000000000E+00 0.  1.
         -3    1    6    6    0  502  0.44028325223E+02  0.18651583608E+03  0.34032005763E+03  0.39056931799E+03  0.00000000000E+00 0.  1.
<mgrwt>
<rscale>  0 0.16348736E+04</rscale>
<asrwt>0</asrwt>
<pdfrwt beam="1">  1        2 0.27011198E+00 0.16348736E+04</pdfrwt>
<pdfrwt beam="2">  1       -2 0.58551467E-01 0.16348736E+04</pdfrwt>
<totfact> 0.23813850E+01</totfact>
</mgrwt>
</event>
<event>
12    1  0.1201209E-007  0.2993263E+04  0.7818608E-02  0.8245657E-01
         -1   -1    0    0    0  501 -0.00000000000E+00  0.00000000000E+00  0.12337445992E+04  0.12337445992E+04  0.00000000000E+00 0.  1.
          1   -1    0    0  501    0  0.00000000000E+00 -0.00000000000E+00 -0.18155348409E+04  0.18155348409E+04  0.00000000000E+00 0. -1.
         23    2    1    2    0    0 -0.85626427168E+03 -0.34330728162E+02 -0.13401715569E+04  0.15933086502E+04  0.90584497178E+02 0.  0.
        254    2    1    2    0    0  0.85626427168E+03  0.34330728162E+02  0.75838131527E+03  0.14559707898E+04  0.90018976870E+03 0.  0.
        -24    2    4    4    0    0  0.13552145612E+03  0.44367323716E+02  0.71079353215E+03  0.72916383759E+03  0.78217211844E+02 0.  0.
         24    2    4    4    0    0  0.72074281556E+03 -0.10036595555E+02  0.47587783125E+02  0.72680695225E+03  0.80080018147E+02 0.  0.
         11    1    3    3    0    0 -0.61860483286E+03 -0.42974678574E+02 -0.10331351568E+04  0.12049427432E+04  0.00000000000E+00 0.  1.
        -11    1    3    3    0    0 -0.23765943882E+03  0.86439504128E+01 -0.30703640012E+03  0.38836590702E+03  0.00000000000E+00 0. -1.
          4    1    6    6  502    0  0.66849238821E+03 -0.41978567624E+01  0.64420757985E+02  0.67160235940E+03  0.00000000000E+00 0. -1.
          3    1    5    5  503    0  0.11963445701E+03  0.49542184246E+01  0.54653863043E+03  0.55950104749E+03  0.00000000000E+00 0. -1.
         -4    1    5    5    0  503  0.15886999117E+02  0.39413105292E+02  0.16425490171E+03  0.16966279011E+03  0.00000000000E+00 0.  1.
         -3    1    6    6    0  502  0.52250427347E+02 -0.58387387923E+01 -0.16832974859E+02  0.55204592845E+02  0.00000000000E+00 0.  1.
<mgrwt>
<rscale>  0 0.29932633E+04</rscale>
<asrwt>0</asrwt>
<pdfrwt beam="1">  1        1 0.27931305E+00 0.29932633E+04</pdfrwt>
<pdfrwt beam="2">  1       -1 0.18980686E+00 0.29932633E+04</pdfrwt>
<totfact> 0.60017996E-01</totfact>
</mgrwt>
</event>
<event>
12    1  0.1201209E-007  0.1877199E+04  0.7818608E-02  0.8666290E-01
         -1   -1    0    0    0  501 -0.00000000000E+00  0.00000000000E+00  0.35095202621E+03  0.35095202621E+03  0.00000000000E+00 0.  1.
          1   -1    0    0  501    0  0.00000000000E+00 -0.00000000000E+00 -0.25102253884E+04  0.25102253884E+04  0.00000000000E+00 0. -1.
         23    2    1    2    0    0  0.56275430455E+03 -0.22632631476E+03 -0.20337497628E+03  0.64642345721E+03  0.92660115597E+02 0.  0.
        254    2    1    2    0    0 -0.56275430455E+03  0.22632631476E+03 -0.19558983859E+04  0.22147539574E+04  0.84361163323E+03 0.  0.
        -24    2    4    4    0    0  0.18143257772E+03  0.28695912532E+02 -0.15130065141E+03  0.25114578014E+03  0.80256340006E+02 0.  0.
         24    2    4    4    0    0 -0.74418688226E+03  0.19763040223E+03 -0.18045977345E+04  0.19636081773E+04  0.79449347249E+02 0.  0.
         11    1    3    3    0    0  0.99112230352E+02 -0.39436816912E+02 -0.74735218423E+02  0.13024534389E+03  0.00000000000E+00 0. -1.
        -11    1    3    3    0    0  0.46364207419E+03 -0.18688949785E+03 -0.12863975785E+03  0.51617811332E+03  0.00000000000E+00 0.  1.
          2    1    6    6  502    0 -0.28087225246E+03  0.37568422096E+02 -0.62697379139E+03  0.68803833006E+03  0.00000000000E+00 0. -1.
          1    1    5    5  503    0 -0.50024366222E+01 -0.25920801351E+01  0.36511745602E+01  0.67137416732E+01  0.00000000000E+00 0. -1.
         -2    1    5    5    0  503  0.18643501434E+03  0.31287992667E+02 -0.15495182597E+03  0.24443203847E+03  0.00000000000E+00 0.  1.
         -1    1    6    6    0  502 -0.46331462981E+03  0.16006198013E+03 -0.11776239431E+04  0.12755698472E+04  0.00000000000E+00 0.  1.
<mgrwt>
<rscale>  0 0.18771986E+04</rscale>
<asrwt>0</asrwt>
<pdfrwt beam="1">  1        1 0.38618852E+00 0.18771986E+04</pdfrwt>
<pdfrwt beam="2">  1       -1 0.53992620E-01 0.18771986E+04</pdfrwt>
<totfact> 0.43303377E+00</totfact>
</mgrwt>
</event>
<event>
12    1  0.1201209E-007  0.1832534E+04  0.7818608E-02  0.8689187E-01
         -2   -1    0    0    0  501 -0.00000000000E+00  0.00000000000E+00  0.19702887917E+04  0.19702887917E+04  0.00000000000E+00 0.  1.
          2   -1    0    0  501    0  0.00000000000E+00 -0.00000000000E+00 -0.42610271256E+03  0.42610271256E+03  0.00000000000E+00 0. -1.
         23    2    1    2    0    0  0.48645814168E+03  0.12158433729E+03 -0.35894627773E+02  0.51078324000E+03  0.90481043789E+02 0.  0.
        254    2    1    2    0    0 -0.48645814168E+03 -0.12158433729E+03  0.15800807069E+04  0.18856082642E+04  0.89857621334E+03 0.  0.
        -24    2    4    4    0    0  0.15489632093E+03  0.23329024888E+03  0.41970976818E+03  0.51075616453E+03  0.79362205366E+02 0.  0.
         24    2    4    4    0    0 -0.64135446261E+03 -0.35487458616E+03  0.11603709387E+04  0.13748520997E+04  0.80536091544E+02 0.  0.
         11    1    3    3    0    0  0.87187757641E+02  0.51150344786E+02 -0.29486571161E+02  0.10529729689E+03  0.00000000000E+00 0.  1.
        -11    1    3    3    0    0  0.39927038404E+03  0.70433992500E+02 -0.64080566123E+01  0.40548594311E+03  0.00000000000E+00 0. -1.
          4    1    6    6  502    0 -0.63945517262E+03 -0.34376632702E+03  0.11392847386E+04  0.13509433448E+04  0.00000000000E+00 0. -1.
          3    1    5    5  503    0  0.15942306983E+03  0.20767427181E+03  0.35570891235E+03  0.44167086013E+03  0.00000000000E+00 0. -1.
         -4    1    5    5    0  503 -0.45267488955E+01  0.25615977072E+02  0.64000855838E+02  0.69085304406E+02  0.00000000000E+00 0.  1.
         -3    1    6    6    0  502 -0.18992899928E+01 -0.11108259146E+02  0.21086200103E+02  0.23908754851E+02  0.00000000000E+00 0.  1.
<mgrwt>
<rscale>  0 0.18325342E+04</rscale>
<asrwt>0</asrwt>
<pdfrwt beam="1">  1        2 0.65554265E-01 0.18325342E+04</pdfrwt>
<pdfrwt beam="2">  1       -2 0.30312135E+00 0.18325342E+04</pdfrwt>
<totfact> 0.21233912E+00</totfact>
</mgrwt>
</event>
<event>
12    1  0.1201209E-007  0.2332496E+04  0.7818608E-02  0.8465218E-01
          1   -1    0    0  501    0  0.00000000000E+00  0.00000000000E+00  0.75713605076E+03  0.75713605076E+03  0.00000000000E+00 0. -1.
         -1   -1    0    0    0  501 -0.00000000000E+00 -0.00000000000E+00 -0.17964195088E+04  0.17964195088E+04  0.00000000000E+00 0.  1.
         23    2    1    2    0    0  0.25800715941E+03  0.82450847298E+03  0.88317882371E+02  0.87368450900E+03  0.95617240036E+02 0.  0.
        254    2    1    2    0    0 -0.25800715941E+03 -0.82450847298E+03 -0.11276013404E+04  0.16798710506E+04  0.89671625796E+03 0.  0.
        -24    2    4    4    0    0 -0.26275809312E+03 -0.99860685496E+03 -0.10409299484E+04  0.14686769709E+04  0.84967175674E+02 0.  0.
         24    2    4    4    0    0  0.47509337149E+01  0.17409838197E+03 -0.86671391980E+02  0.21119407970E+03  0.82208218168E+02 0.  0.
         11    1    3    3    0    0  0.25516251428E+03  0.81154482717E+03  0.73637790700E+02  0.85389427883E+03  0.00000000000E+00 0. -1.
        -11    1    3    3    0    0  0.28446451243E+01  0.12963645815E+02  0.14680091671E+02  0.19790230170E+02  0.00000000000E+00 0.  1.
          4    1    6    6  502    0  0.18969260075E+02  0.24416588049E+02 -0.46016032805E+02  0.55438956293E+02  0.00000000000E+00 0. -1.
          1    1    5    5  503    0 -0.92214863683E+02 -0.28828100545E+03 -0.35619159496E+03  0.46742055101E+03  0.00000000000E+00 0. -1.
         -2    1    5    5    0  503 -0.17054322944E+03 -0.71032584951E+03 -0.68473835348E+03  0.10012564199E+04  0.00000000000E+00 0.  1.
         -3    1    6    6    0  502 -0.14218326360E+02  0.14968179392E+03 -0.40655359175E+02  0.15575512340E+03  0.00000000000E+00 0.  1.
<mgrwt>
<rscale>  0 0.23324956E+04</rscale>
<asrwt>0</asrwt>
<pdfrwt beam="1">  1        1 0.11648247E+00 0.23324956E+04</pdfrwt>
<pdfrwt beam="2">  1       -1 0.27637223E+00 0.23324956E+04</pdfrwt>
<totfact> 0.10219651E+00</totfact>
</mgrwt>
</event>
<event>
12    1  0.1201209E-007  0.2307575E+04  0.7818608E-02  0.8474941E-01
          1   -1    0    0  501    0  0.00000000000E+00  0.00000000000E+00  0.10824744462E+04  0.10824744462E+04  0.00000000000E+00 0. -1.
         -1   -1    0    0    0  501 -0.00000000000E+00 -0.00000000000E+00 -0.12297981970E+04  0.12297981970E+04  0.00000000000E+00 0.  1.
         23    2    1    2    0    0 -0.29215883267E+03  0.37139016843E+03  0.79142823978E+03  0.92615183888E+03  0.90061807739E+02 0.  0.
        254    2    1    2    0    0  0.29215883267E+03 -0.37139016843E+03 -0.93875199056E+03  0.13861208043E+04  0.90376332275E+03 0.  0.
        -24    2    4    4    0    0 -0.12460532569E+01 -0.44956490401E+03 -0.69248236120E+02  0.46175298224E+03  0.79437666371E+02 0.  0.
         24    2    4    4    0    0  0.29340488593E+03  0.78174735575E+02 -0.86950375444E+03  0.92436782203E+03  0.78875693715E+02 0.  0.
         13    1    3    3    0    0 -0.51345712370E+02  0.12105947709E+03  0.17955591241E+03  0.22255809321E+03  0.00000000000E+00 0.  1.
        -13    1    3    3    0    0 -0.24081312030E+03  0.25033069135E+03  0.61187232737E+03  0.70359374567E+03  0.00000000000E+00 0. -1.
          2    1    6    6  502    0  0.16221955594E+01 -0.82379477221E+01 -0.13675809617E+02  0.16047525347E+02  0.00000000000E+00 0. -1.
          1    1    5    5  503    0 -0.40236315928E+02 -0.23267526936E+03 -0.38712033634E+02  0.23928093037E+03  0.00000000000E+00 0. -1.
         -2    1    5    5    0  503  0.38990262672E+02 -0.21688963465E+03 -0.30536202486E+02  0.22247205187E+03  0.00000000000E+00 0.  1.
         -1    1    6    6    0  502  0.29178269037E+03  0.86412683298E+02 -0.85582794482E+03  0.90832029668E+03  0.00000000000E+00 0.  1.
<mgrwt>
<rscale>  0 0.23075746E+04</rscale>
<asrwt>0</asrwt>
<pdfrwt beam="1">  1        1 0.16653453E+00 0.23075746E+04</pdfrwt>
<pdfrwt beam="2">  1       -1 0.18919972E+00 0.23075746E+04</pdfrwt>
<totfact> 0.21136377E+00</totfact>
</mgrwt>
</event>
<event>
12    1  0.1201209E-007  0.1879553E+04  0.7818608E-02  0.8665102E-01
         -2   -1    0    0    0  501 -0.00000000000E+00  0.00000000000E+00  0.71878263852E+03  0.71878263852E+03  0.00000000000E+00 0.  1.
          2   -1    0    0  501    0  0.00000000000E+00 -0.00000000000E+00 -0.12287156114E+04  0.12287156114E+04  0.00000000000E+00 0. -1.
         23    2    1    2    0    0  0.72210960612E+02 -0.45388139583E+03 -0.67512828586E+03  0.82180263123E+03  0.91316033753E+02 0.  0.
        254    2    1    2    0    0 -0.72210960612E+02  0.45388139583E+03  0.16519531294E+03  0.11256956187E+04  0.10142378371E+04 0.  0.
        -24    2    4    4    0    0 -0.44889247971E+03 -0.38146709168E+02  0.20118342562E+03  0.49974086651E+03  0.79413683675E+02 0.  0.
         24    2    4    4    0    0  0.37668151910E+03  0.49202810500E+03 -0.35988112682E+02  0.62595475222E+03  0.80892426352E+02 0.  0.
         13    1    3    3    0    0  0.64269863356E+02 -0.45248463403E+03 -0.67291425058E+03  0.81344117673E+03  0.00000000000E+00 0. -1.
        -13    1    3    3    0    0  0.79410972564E+01 -0.13967617988E+01 -0.22140352811E+01  0.83614545017E+01  0.00000000000E+00 0.  1.
          4    1    6    6  502    0  0.25169342594E+03  0.30454917093E+03 -0.58936824321E+02  0.39946630325E+03  0.00000000000E+00 0. -1.
          3    1    5    5  503    0 -0.35355064531E+02 -0.82427638996E+01  0.42252984850E+02  0.55706718387E+02  0.00000000000E+00 0. -1.
         -4    1    5    5    0  503 -0.41353741518E+03 -0.29903945268E+02  0.15893044077E+03  0.44403414812E+03  0.00000000000E+00 0.  1.
         -3    1    6    6    0  502  0.12498809315E+03  0.18747893407E+03  0.22948711639E+02  0.22648844897E+03  0.00000000000E+00 0.  1.
<mgrwt>
<rscale>  0 0.18795526E+04</rscale>
<asrwt>0</asrwt>
<pdfrwt beam="1">  1        2 0.18903317E+00 0.18795526E+04</pdfrwt>
<pdfrwt beam="2">  1       -2 0.11058195E+00 0.18795526E+04</pdfrwt>
<totfact> 0.11082125E+01</totfact>
</mgrwt>
</event>
<event>
12    1  0.1201209E-007  0.1102532E+04  0.7818608E-02  0.9202728E-01
          1   -1    0    0  501    0  0.00000000000E+00  0.00000000000E+00  0.58047566993E+03  0.58047566993E+03  0.00000000000E+00 0. -1.
         -1   -1    0    0    0  501 -0.00000000000E+00 -0.00000000000E+00 -0.52352571317E+03  0.52352571317E+03  0.00000000000E+00 0.  1.
         23    2    1    2    0    0  0.16870614404E+03 -0.12144499498E+00  0.58308927179E+02  0.19965464696E+03  0.89444224395E+02 0.  0.
        254    2    1    2    0    0 -0.16870614404E+03  0.12144499498E+00 -0.13589704133E+01  0.90434673614E+03  0.88847025532E+03 0.  0.
        -24    2    4    4    0    0 -0.45976011988E+03  0.18411393389E+03 -0.14611821208E+03  0.52256496868E+03  0.80288891536E+02 0.  0.
         24    2    4    4    0    0  0.29105397584E+03 -0.18399248889E+03  0.14475924167E+03  0.38178176747E+03  0.78971052308E+02 0.  0.
         13    1    3    3    0    0  0.13163221862E+03  0.86118122222E+01  0.23147348701E+01  0.13193393151E+03  0.00000000000E+00 0.  1.
        -13    1    3    3    0    0  0.37073925426E+02 -0.87332572172E+01  0.55994192309E+02  0.67720715445E+02  0.00000000000E+00 0. -1.
          4    1    6    6  502    0  0.53943830921E+02 -0.56440777144E+01  0.38977682968E+02  0.66791109268E+02  0.00000000000E+00 0. -1.
          3    1    5    5  503    0 -0.10136422582E+03  0.18158775568E+02 -0.56926581576E+02  0.11766513118E+03  0.00000000000E+00 0. -1.
         -4    1    5    5    0  503 -0.35839589406E+03  0.16595515832E+03 -0.89191630507E+02  0.40489983750E+03  0.00000000000E+00 0.  1.
         -3    1    6    6    0  502  0.23711014492E+03 -0.17834841118E+03  0.10578155870E+03  0.31499065820E+03  0.00000000000E+00 0.  1.
<mgrwt>
<rscale>  0 0.11025315E+04</rscale>
<asrwt>0</asrwt>
<pdfrwt beam="1">  1        1 0.89303950E-01 0.11025315E+04</pdfrwt>
<pdfrwt beam="2">  1       -1 0.80542417E-01 0.11025315E+04</pdfrwt>
<totfact> 0.55058527E+01</totfact>
</mgrwt>
</event>
<event>
12    1  0.1201209E-007  0.1403261E+04  0.7818608E-02  0.8951462E-01
          2   -1    0    0  501    0  0.00000000000E+00  0.00000000000E+00  0.20386118993E+04  0.20386118993E+04  0.00000000000E+00 0. -1.
         -2   -1    0    0    0  501 -0.00000000000E+00 -0.00000000000E+00 -0.24148062405E+03  0.24148062405E+03  0.00000000000E+00 0.  1.
         23    2    1    2    0    0  0.54757845441E+02  0.36909111525E+03  0.27332443817E+03  0.47186286559E+03  0.93389734044E+02 0.  0.
        254    2    1    2    0    0 -0.54757845441E+02 -0.36909111525E+03  0.15238068371E+04  0.18082296578E+04  0.89915546234E+03 0.  0.
        -24    2    4    4    0    0 -0.19683309187E+02  0.10582501814E+03 -0.64147908414E+02  0.14851657436E+03  0.79723594889E+02 0.  0.
         24    2    4    4    0    0 -0.35074536254E+02 -0.47491613339E+03  0.15879547455E+04  0.16597130834E+04  0.79193993550E+02 0.  0.
         11    1    3    3    0    0  0.61384646663E+02  0.36022885992E+03  0.24110246925E+03  0.43779368091E+03  0.00000000000E+00 0.  1.
        -11    1    3    3    0    0 -0.66268012214E+01  0.88622553368E+01  0.32221968914E+02  0.34069184680E+02  0.00000000000E+00 0. -1.
          2    1    6    6  502    0  0.14410496526E+01 -0.39005229743E+03  0.13065827522E+04  0.13635620117E+04  0.00000000000E+00 0. -1.
          3    1    5    5  503    0 -0.21212994981E+02  0.11889823693E+03 -0.57288720069E+02  0.13367415363E+03  0.00000000000E+00 0. -1.
         -4    1    5    5    0  503  0.15296857941E+01 -0.13073218798E+02 -0.68591883448E+01  0.14842420729E+02  0.00000000000E+00 0.  1.
         -3    1    6    6    0  502 -0.36515585907E+02 -0.84863835955E+02  0.28137199330E+03  0.29615107172E+03  0.00000000000E+00 0.  1.
<mgrwt>
<rscale>  0 0.14032609E+04</rscale>
<asrwt>0</asrwt>
<pdfrwt beam="1">  1        2 0.31363259E+00 0.14032609E+04</pdfrwt>
<pdfrwt beam="2">  1       -2 0.37150867E-01 0.14032609E+04</pdfrwt>
<totfact> 0.42288928E+01</totfact>
</mgrwt>
</event>
<event>
12    1  0.1201209E-007  0.1869493E+04  0.7818608E-02  0.8670193E-01
         -2   -1    0    0    0  501 -0.00000000000E+00  0.00000000000E+00  0.65091434075E+03  0.65091434075E+03  0.00000000000E+00 0.  1.
          2   -1    0    0  501    0  0.00000000000E+00 -0.00000000000E+00 -0.13423434323E+04  0.13423434323E+04  0.00000000000E+00 0. -1.
         23    2    1    2    0    0 -0.49859890947E+03  0.43959438555E+03 -0.52619780443E+03  0.85292861969E+03  0.93589553683E+02 0.  0.
        254    2    1    2    0    0  0.49859890947E+03 -0.43959438555E+03 -0.16523128717E+03  0.11403291534E+04  0.91170450449E+03 0.  0.
        -24    2    4    4    0    0 -0.15392881322E+03 -0.46551799553E+02 -0.31264589413E+03  0.36018189558E+03  0.78245723230E+02 0.  0.
         24    2    4    4    0    0  0.65252772269E+03 -0.39304258600E+03  0.14741460696E+03  0.78014725782E+03  0.81386572911E+02 0.  0.
         13    1    3    3    0    0 -0.35644175013E+03  0.25976399683E+03 -0.32409828099E+03  0.54732782774E+03  0.00000000000E+00 0. -1.
        -13    1    3    3    0    0 -0.14215715934E+03  0.17983038873E+03 -0.20209952344E+03  0.30560079194E+03  0.00000000000E+00 0.  1.
          2    1    6    6  502    0  0.55090861789E+01 -0.14869603524E+02  0.83530713662E+01  0.17922860842E+02  0.00000000000E+00 0. -1.
          3    1    5    5  503    0  0.63340477707E+01  0.37909144183E+00 -0.74393679644E+00  0.63888428874E+01  0.00000000000E+00 0. -1.
         -4    1    5    5    0  503 -0.16026286099E+03 -0.46930890994E+02 -0.31190195733E+03  0.35379305269E+03  0.00000000000E+00 0.  1.
         -1    1    6    6    0  502  0.64701863652E+03 -0.37817298247E+03  0.13906153560E+03  0.76222439698E+03  0.00000000000E+00 0.  1.
<mgrwt>
<rscale>  0 0.18694925E+04</rscale>
<asrwt>0</asrwt>
<pdfrwt beam="1">  1        2 0.20651437E+00 0.18694925E+04</pdfrwt>
<pdfrwt beam="2">  1       -2 0.10014067E+00 0.18694925E+04</pdfrwt>
<totfact> 0.12075106E+01</totfact>
</mgrwt>
</event>
<event>
12    1  0.1201209E-007  0.1139950E+04  0.7818608E-02  0.9167105E-01
          2   -1    0    0  501    0  0.00000000000E+00  0.00000000000E+00  0.11962149274E+04  0.11962149274E+04  0.00000000000E+00 0. -1.
         -2   -1    0    0    0  501 -0.00000000000E+00 -0.00000000000E+00 -0.27158288936E+03  0.27158288936E+03  0.00000000000E+00 0.  1.
         23    2    1    2    0    0 -0.38829176745E+02 -0.17097311993E+03  0.12680727002E+03  0.23467912834E+03  0.90855362242E+02 0.  0.
        254    2    1    2    0    0  0.38829176745E+02  0.17097311993E+03  0.79782476807E+03  0.12331186885E+04  0.92375203739E+03 0.  0.
        -24    2    4    4    0    0  0.78199202085E+02 -0.23547595449E+03  0.77365111557E+03  0.81630534100E+03  0.79084263754E+02 0.  0.
         24    2    4    4    0    0 -0.39370025340E+02  0.40644907442E+03  0.24173652498E+02  0.41681334746E+03  0.79988450157E+02 0.  0.
         11    1    3    3    0    0 -0.93337265758E+01 -0.12109692923E+03  0.12835905139E+03  0.17671341430E+03  0.00000000000E+00 0. -1.
        -11    1    3    3    0    0 -0.29495450169E+02 -0.49876190693E+02 -0.15517813756E+01  0.57965714040E+02  0.00000000000E+00 0.  1.
          4    1    6    6  502    0 -0.42687268010E+02  0.29864834073E+03 -0.15028877655E+02  0.30205777830E+03  0.00000000000E+00 0. -1.
          3    1    5    5  503    0  0.85138084059E+02 -0.17198245594E+03  0.64044432015E+03  0.66857713521E+03  0.00000000000E+00 0. -1.
         -4    1    5    5    0  503 -0.69388819736E+01 -0.63493498550E+02  0.13320679542E+03  0.14772820580E+03  0.00000000000E+00 0.  1.
         -3    1    6    6    0  502  0.33172426697E+01  0.10780073369E+03  0.39202530153E+02  0.11475556916E+03  0.00000000000E+00 0.  1.
<mgrwt>
<rscale>  0 0.11399500E+04</rscale>
<asrwt>0</asrwt>
<pdfrwt beam="1">  1        2 0.18403306E+00 0.11399500E+04</pdfrwt>
<pdfrwt beam="2">  1       -2 0.41781984E-01 0.11399500E+04</pdfrwt>
<totfact> 0.10229923E+02</totfact>
</mgrwt>
</event>
<event>
12    1  0.1201209E-007  0.1323970E+04  0.7818608E-02  0.9010770E-01
         -1   -1    0    0    0  501 -0.00000000000E+00  0.00000000000E+00  0.58105948948E+03  0.58105948948E+03  0.00000000000E+00 0.  1.
          1   -1    0    0  501    0  0.00000000000E+00 -0.00000000000E+00 -0.75418116325E+03  0.75418116325E+03  0.00000000000E+00 0. -1.
         23    2    1    2    0    0 -0.71087384279E+01  0.19505498222E+02 -0.39851453589E+03  0.40945806331E+03  0.91711894918E+02 0.  0.
        254    2    1    2    0    0  0.71087384279E+01 -0.19505498222E+02  0.22539286213E+03  0.92578258942E+03  0.89768617120E+03 0.  0.
        -24    2    4    4    0    0 -0.14991044021E+03  0.39782177948E+03  0.34056011020E+02  0.43390999515E+03  0.79892200470E+02 0.  0.
         24    2    4    4    0    0  0.15701917863E+03 -0.41732727770E+03  0.19133685111E+03  0.49187259427E+03  0.80695596089E+02 0.  0.
         13    1    3    3    0    0  0.41864748022E+02  0.12736678947E+02 -0.21448371497E+03  0.21890213363E+03  0.00000000000E+00 0. -1.
        -13    1    3    3    0    0 -0.48973486450E+02  0.67688192748E+01 -0.18403082092E+03  0.19055592968E+03  0.00000000000E+00 0.  1.
          2    1    6    6  502    0 -0.91052501373E+01 -0.18416047601E+02  0.13540829066E+02  0.24605089739E+02  0.00000000000E+00 0. -1.
          3    1    5    5  503    0 -0.10270925120E+03  0.16064618184E+03  0.11108124588E+02  0.19099679697E+03  0.00000000000E+00 0. -1.
         -4    1    5    5    0  503 -0.47201189012E+02  0.23717559764E+03  0.22947886432E+02  0.24291319819E+03  0.00000000000E+00 0.  1.
         -1    1    6    6    0  502  0.16612442877E+03 -0.39891123010E+03  0.17779602204E+03  0.46726750453E+03  0.00000000000E+00 0.  1.
<mgrwt>
<rscale>  0 0.13239700E+04</rscale>
<asrwt>0</asrwt>
<pdfrwt beam="1">  1        1 0.11602787E+00 0.13239700E+04</pdfrwt>
<pdfrwt beam="2">  1       -1 0.89393768E-01 0.13239700E+04</pdfrwt>
<totfact> 0.29211024E+01</totfact>
</mgrwt>
</event>
<event>
12    1  0.1201209E-007  0.1378593E+04  0.7818608E-02  0.8969462E-01
          2   -1    0    0  501    0  0.00000000000E+00  0.00000000000E+00  0.82809108371E+03  0.82809108371E+03  0.00000000000E+00 0. -1.
         -2   -1    0    0    0  501 -0.00000000000E+00 -0.00000000000E+00 -0.57376481015E+03  0.57376481015E+03  0.00000000000E+00 0.  1.
         23    2    1    2    0    0  0.35542636034E+03  0.31768388241E+02  0.24201304316E+03  0.44097062490E+03  0.92453506409E+02 0.  0.
        254    2    1    2    0    0 -0.35542636034E+03 -0.31768388241E+02  0.12313230403E+02  0.96088526896E+03  0.89208281921E+03 0.  0.
        -24    2    4    4    0    0  0.22756624935E+03  0.16837864293E+03  0.13958471868E+03  0.32659407615E+03  0.83916813843E+02 0.  0.
         24    2    4    4    0    0 -0.58299260969E+03 -0.20014703117E+03 -0.12727148828E+03  0.63429119281E+03  0.78664277168E+02 0.  0.
         13    1    3    3    0    0  0.35355554517E+03  0.18307284713E+02  0.23869775957E+03  0.42698161625E+03  0.00000000000E+00 0.  1.
        -13    1    3    3    0    0  0.18708151704E+01  0.13461103529E+02  0.33152835906E+01  0.13989008646E+02  0.00000000000E+00 0. -1.
          4    1    6    6  502    0 -0.48275000085E+03 -0.18349438071E+03 -0.81485871843E+02  0.52283620608E+03  0.00000000000E+00 0. -1.
          3    1    5    5  503    0  0.21244082600E+03  0.16244376734E+03  0.10302962197E+03  0.28659062285E+03  0.00000000000E+00 0. -1.
         -4    1    5    5    0  503  0.15125423350E+02  0.59348755811E+01  0.36555096719E+02  0.40003453298E+02  0.00000000000E+00 0.  1.
         -3    1    6    6    0  502 -0.10024260884E+03 -0.16652650456E+02 -0.45785616439E+02  0.11145498673E+03  0.00000000000E+00 0.  1.
<mgrwt>
<rscale>  0 0.13785928E+04</rscale>
<asrwt>0</asrwt>
<pdfrwt beam="1">  1        2 0.12739863E+00 0.13785928E+04</pdfrwt>
<pdfrwt beam="2">  1       -2 0.88271509E-01 0.13785928E+04</pdfrwt>
<totfact> 0.35439077E+01</totfact>
</mgrwt>
</event>
<event>
12    1  0.1201209E-007  0.1329653E+04  0.7818608E-02  0.9006375E-01
          2   -1    0    0  501    0  0.00000000000E+00  0.00000000000E+00  0.11450684789E+04  0.11450684789E+04  0.00000000000E+00 0. -1.
         -2   -1    0    0    0  501 -0.00000000000E+00 -0.00000000000E+00 -0.38599807990E+03  0.38599807990E+03  0.00000000000E+00 0.  1.
         23    2    1    2    0    0  0.11833295220E+02 -0.18098961325E+03 -0.12778185971E+03  0.24007693354E+03  0.91714030347E+02 0.  0.
        254    2    1    2    0    0 -0.11833295220E+02  0.18098961325E+03  0.88685225876E+03  0.12909896253E+04  0.92046184973E+03 0.  0.
        -24    2    4    4    0    0 -0.87447135354E+02  0.52989866509E+03  0.36726388279E+03  0.65549136855E+03  0.79665412159E+02 0.  0.
         24    2    4    4    0    0  0.75613840135E+02 -0.34890905183E+03  0.51958837596E+03  0.63549825675E+03  0.80193357775E+02 0.  0.
         11    1    3    3    0    0 -0.31036686471E+02 -0.84176691036E+02 -0.91519698111E+02  0.12815945678E+03  0.00000000000E+00 0.  1.
        -11    1    3    3    0    0  0.42869981690E+02 -0.96812922218E+02 -0.36262161604E+02  0.11191747675E+03  0.00000000000E+00 0. -1.
          2    1    6    6  502    0  0.85530693358E+02 -0.29393506888E+03  0.40175622856E+03  0.50509542802E+03  0.00000000000E+00 0. -1.
          1    1    5    5  503    0 -0.93214001285E+02  0.47331538477E+03  0.30299124058E+03  0.56966656507E+03  0.00000000000E+00 0. -1.
         -2    1    5    5    0  503  0.57668659303E+01  0.56583280316E+02  0.64272642218E+02  0.85824803475E+02  0.00000000000E+00 0.  1.
         -1    1    6    6    0  502 -0.99168532227E+01 -0.54973982955E+02  0.11783214740E+03  0.13040282873E+03  0.00000000000E+00 0.  1.
<mgrwt>
<rscale>  0 0.13296529E+04</rscale>
<asrwt>0</asrwt>
<pdfrwt beam="1">  1        2 0.17616438E+00 0.13296529E+04</pdfrwt>
<pdfrwt beam="2">  1       -2 0.59384320E-01 0.13296529E+04</pdfrwt>
<totfact> 0.52933011E+01</totfact>
</mgrwt>
</event>
<event>
12    1  0.1201209E-007  0.2617379E+04  0.7818608E-02  0.8362322E-01
          2   -1    0    0  501    0  0.00000000000E+00  0.00000000000E+00  0.14156518991E+04  0.14156518991E+04  0.00000000000E+00 0. -1.
         -2   -1    0    0    0  501 -0.00000000000E+00 -0.00000000000E+00 -0.12098085768E+04  0.12098085768E+04  0.00000000000E+00 0.  1.
         23    2    1    2    0    0  0.12422025764E+03 -0.11199897365E+04 -0.15665559974E+03  0.11411048489E+04  0.88156775583E+02 0.  0.
        254    2    1    2    0    0 -0.12422025764E+03  0.11199897365E+04  0.36249892199E+03  0.14843556270E+04  0.89559950690E+03 0.  0.
        -24    2    4    4    0    0  0.93780209573E+01  0.10739074113E+04  0.57159704089E+03  0.12196309002E+04  0.86088793188E+02 0.  0.
         24    2    4    4    0    0 -0.13359827859E+03  0.46082325150E+02 -0.20909811890E+03  0.26472472676E+03  0.79906676150E+02 0.  0.
         11    1    3    3    0    0  0.13325132990E+03 -0.91156317236E+03 -0.13987141944E+03  0.93180864350E+03  0.00000000000E+00 0.  1.
        -11    1    3    3    0    0 -0.90310722675E+01 -0.20842656409E+03 -0.16784180304E+02  0.20929620540E+03  0.00000000000E+00 0. -1.
          4    1    6    6  502    0 -0.38632607562E+02 -0.19202108827E+02 -0.33199565050E+02  0.54437215854E+02  0.00000000000E+00 0. -1.
          1    1    5    5  503    0 -0.13393300878E+02  0.62476906327E+03  0.28906983100E+03  0.68853259191E+03  0.00000000000E+00 0. -1.
         -2    1    5    5    0  503  0.22771321835E+02  0.44913834803E+03  0.28252720989E+03  0.53109830832E+03  0.00000000000E+00 0.  1.
         -3    1    6    6    0  502 -0.94965671032E+02  0.65284433977E+02 -0.17589855385E+03  0.21028751090E+03  0.00000000000E+00 0.  1.
<mgrwt>
<rscale>  0 0.26173787E+04</rscale>
<asrwt>0</asrwt>
<pdfrwt beam="1">  1        2 0.21779260E+00 0.26173787E+04</pdfrwt>
<pdfrwt beam="2">  1       -2 0.18612440E+00 0.26173787E+04</pdfrwt>
<totfact> 0.20615061E+00</totfact>
</mgrwt>
</event>
<event>
12    1  0.1201209E-007  0.2031698E+04  0.7818608E-02  0.8591942E-01
          2   -1    0    0  501    0  0.00000000000E+00  0.00000000000E+00  0.28374994223E+04  0.28374994223E+04  0.00000000000E+00 0. -1.
         -2   -1    0    0    0  501 -0.00000000000E+00 -0.00000000000E+00 -0.36368273158E+03  0.36368273158E+03  0.00000000000E+00 0.  1.
         23    2    1    2    0    0  0.58374674750E+02 -0.63336188810E+03  0.17935502276E+04  0.19051437369E+04  0.90528201085E+02 0.  0.
        254    2    1    2    0    0 -0.58374674750E+02  0.63336188810E+03  0.68026646305E+03  0.12960384170E+04  0.90133136723E+03 0.  0.
        -24    2    4    4    0    0 -0.49203501010E+02  0.25608207891E+03 -0.19750847487E+03  0.33746980629E+03  0.82929228019E+02 0.  0.
         24    2    4    4    0    0 -0.91711737394E+01  0.37727980920E+03  0.87777493793E+03  0.95856861068E+03  0.77076422314E+02 0.  0.
         11    1    3    3    0    0 -0.20358612159E+02 -0.12812600801E+03  0.41563821467E+03  0.43541459841E+03  0.00000000000E+00 0.  1.
        -11    1    3    3    0    0  0.78733286908E+02 -0.50523588009E+03  0.13779120130E+04  0.14697291385E+04  0.00000000000E+00 0. -1.
          2    1    6    6  502    0 -0.10533250284E+02  0.10748820917E+03  0.34282602545E+03  0.35943615316E+03  0.00000000000E+00 0. -1.
          1    1    5    5  503    0 -0.11523008162E+02 -0.24398533020E+01 -0.43171209122E+01  0.12544725354E+02  0.00000000000E+00 0. -1.
         -2    1    5    5    0  503 -0.37680492848E+02  0.25852193221E+03 -0.19319135396E+03  0.32492508093E+03  0.00000000000E+00 0.  1.
         -1    1    6    6    0  502  0.13620765446E+01  0.26979160002E+03  0.53494891247E+03  0.59913245752E+03  0.00000000000E+00 0.  1.
<mgrwt>
<rscale>  0 0.20316983E+04</rscale>
<asrwt>0</asrwt>
<pdfrwt beam="1">  1        2 0.43653836E+00 0.20316983E+04</pdfrwt>
<pdfrwt beam="2">  1       -2 0.55951192E-01 0.20316983E+04</pdfrwt>
<totfact> 0.61087999E+00</totfact>
</mgrwt>
</event>
<event>
12    1  0.1201209E-007  0.1573099E+04  0.7818608E-02  0.8837247E-01
          2   -1    0    0  501    0  0.00000000000E+00  0.00000000000E+00  0.59301456215E+03  0.59301456215E+03  0.00000000000E+00 0. -1.
         -2   -1    0    0    0  501 -0.00000000000E+00 -0.00000000000E+00 -0.10432458747E+04  0.10432458747E+04  0.00000000000E+00 0.  1.
         23    2    1    2    0    0  0.45933061583E+03  0.19581153623E+03 -0.35428002189E+01  0.50847936083E+03  0.95978834104E+02 0.  0.
        254    2    1    2    0    0 -0.45933061583E+03 -0.19581153623E+03 -0.44668851231E+03  0.11277810760E+04  0.90721152771E+03 0.  0.
        -24    2    4    4    0    0 -0.64237831673E+03 -0.19766147145E+03 -0.57632575040E+03  0.88888188995E+03  0.78991674310E+02 0.  0.
         24    2    4    4    0    0  0.18304770090E+03  0.18499352210E+01  0.12963723809E+03  0.23889918606E+03  0.82201730754E+02 0.  0.
         13    1    3    3    0    0  0.12455593973E+01  0.15294515291E+02  0.46724142705E+01  0.16040731633E+02  0.00000000000E+00 0.  1.
        -13    1    3    3    0    0  0.45808505643E+03  0.18051702094E+03 -0.82152144895E+01  0.49243862920E+03  0.00000000000E+00 0. -1.
          2    1    6    6  502    0  0.12917821940E+03 -0.29524530277E+02  0.60077392739E+02  0.14549227943E+03  0.00000000000E+00 0. -1.
          3    1    5    5  503    0 -0.48367366214E+03 -0.17453110740E+03 -0.46849576303E+03  0.69562173548E+03  0.00000000000E+00 0. -1.
         -4    1    5    5    0  503 -0.15870465459E+03 -0.23130364055E+02 -0.10782998736E+03  0.19326015447E+03  0.00000000000E+00 0.  1.
         -1    1    6    6    0  502  0.53869481498E+02  0.31374465498E+02  0.69559845347E+02  0.93406906634E+02  0.00000000000E+00 0.  1.
<mgrwt>
<rscale>  0 0.15730988E+04</rscale>
<asrwt>0</asrwt>
<pdfrwt beam="1">  1        2 0.91233010E-01 0.15730988E+04</pdfrwt>
<pdfrwt beam="2">  1       -2 0.16049936E+00 0.15730988E+04</pdfrwt>
<totfact> 0.12062494E+01</totfact>
</mgrwt>
</event>
<event>
12    1  0.1262049E-007  0.2442114E+04  0.7818608E-02  0.8423903E-01
         -1   -1    0    0    0  501 -0.00000000000E+00  0.00000000000E+00  0.10743903758E+04  0.10743903758E+04  0.00000000000E+00 0.  1.
          1   -1    0    0  501    0  0.00000000000E+00 -0.00000000000E+00 -0.13877453731E+04  0.13877453731E+04  0.00000000000E+00 0. -1.
         23    2    1    2    0    0 -0.14602750032E+03 -0.82614652607E+03  0.52067524673E+03  0.99207462371E+03  0.96266469062E+02 0.  0.
        254    2    1    2    0    0  0.14602750032E+03  0.82614652607E+03 -0.83403024409E+03  0.14700611252E+04  0.87271481613E+03 0.  0.
        -24    2    4    4    0    0 -0.23266102107E+03 -0.33295247326E+02 -0.74490754964E+02  0.25949782036E+03  0.80935295008E+02 0.  0.
         24    2    4    4    0    0  0.37868852139E+03  0.85944177340E+03 -0.75953948912E+03  0.12105633048E+04  0.80734882898E+02 0.  0.
         13    1    3    3    0    0 -0.14865245950E+03 -0.79625977999E+03  0.51900644988E+03  0.96202644764E+03  0.00000000000E+00 0.  1.
        -13    1    3    3    0    0  0.26249591799E+01 -0.29886746083E+02  0.16687968444E+01  0.30048176068E+02  0.00000000000E+00 0. -1.
          2    1    6    6  502    0  0.70628856613E+02  0.94451607705E+02 -0.96823317524E+02  0.15259192771E+03  0.00000000000E+00 0. -1.
          3    1    5    5  503    0 -0.21103407320E+02 -0.55878483576E+00 -0.36372732389E+02  0.42055222059E+02  0.00000000000E+00 0. -1.
         -2    1    5    5    0  503 -0.21155761375E+03 -0.32736462490E+02 -0.38118022575E+02  0.21744259830E+03  0.00000000000E+00 0.  1.
         -1    1    6    6    0  502  0.30805966477E+03  0.76499016569E+03 -0.66271617160E+03  0.10579713771E+04  0.00000000000E+00 0.  1.
<mgrwt>
<rscale>  0 0.24421141E+04</rscale>
<asrwt>0</asrwt>
<pdfrwt beam="1">  1        1 0.21349929E+00 0.24421141E+04</pdfrwt>
<pdfrwt beam="2">  1       -1 0.16529083E+00 0.24421141E+04</pdfrwt>
<totfact> 0.18659618E+00</totfact>
</mgrwt>
</event>
<event>
12    1  0.1547087E-007  0.1990437E+04  0.7818608E-02  0.8611105E-01
         -2   -1    0    0    0  501 -0.00000000000E+00  0.00000000000E+00  0.45312297754E+03  0.45312297754E+03  0.00000000000E+00 0.  1.
          2   -1    0    0  501    0  0.00000000000E+00 -0.00000000000E+00 -0.21858524251E+04  0.21858524251E+04  0.00000000000E+00 0. -1.
         23    2    1    2    0    0  0.30283447047E+03 -0.64617398196E+03 -0.92967056938E+03  0.11756356556E+04  0.92640680604E+02 0.  0.
        254    2    1    2    0    0 -0.30283447047E+03  0.64617398196E+03 -0.80305887817E+03  0.14633397470E+04  0.99358448152E+03 0.  0.
        -24    2    4    4    0    0  0.30602043582E+03  0.21453245731E+02 -0.80175534267E+02  0.32758867005E+03  0.82325400420E+02 0.  0.
         24    2    4    4    0    0 -0.60885490629E+03  0.62472073623E+03 -0.72288334391E+03  0.11357510770E+04  0.79936754658E+02 0.  0.
         13    1    3    3    0    0  0.30068122425E+03 -0.64135771893E+03 -0.89907891203E+03  0.11445924219E+04  0.00000000000E+00 0. -1.
        -13    1    3    3    0    0  0.21532462127E+01 -0.48162630347E+01 -0.30591657350E+02  0.31043233695E+02  0.00000000000E+00 0.  1.
          4    1    6    6  502    0 -0.51150341127E+03  0.53823433498E+03 -0.57813791579E+03  0.94105015210E+03  0.00000000000E+00 0. -1.
          1    1    5    5  503    0  0.20544581657E+03 -0.17816387850E+02 -0.75214803978E+02  0.21950552148E+03  0.00000000000E+00 0. -1.
         -4    1    5    5    0  503  0.10057461925E+03  0.39269633581E+02 -0.49607302898E+01  0.10808314857E+03  0.00000000000E+00 0.  1.
         -3    1    6    6    0  502 -0.97351495019E+02  0.86486401254E+02 -0.14474542812E+03  0.19470092487E+03  0.00000000000E+00 0.  1.
<mgrwt>
<rscale>  0 0.19904371E+04</rscale>
<asrwt>0</asrwt>
<pdfrwt beam="1">  1        2 0.33628499E+00 0.19904371E+04</pdfrwt>
<pdfrwt beam="2">  1       -2 0.69711227E-01 0.19904371E+04</pdfrwt>
<totfact> 0.91728713E+00</totfact>
</mgrwt>
</event>
<event>
12    1  0.1201209E-007  0.1322415E+04  0.7818608E-02  0.9011976E-01
         -1   -1    0    0    0  501 -0.00000000000E+00  0.00000000000E+00  0.16387502167E+03  0.16387502167E+03  0.00000000000E+00 0.  1.
          1   -1    0    0  501    0  0.00000000000E+00 -0.00000000000E+00 -0.26678600070E+04  0.26678600070E+04  0.00000000000E+00 0. -1.
         23    2    1    2    0    0 -0.23022968457E+03 -0.24889011926E+03 -0.49817804042E+03  0.60944550137E+03  0.91051963499E+02 0.  0.
        254    2    1    2    0    0  0.23022968457E+03  0.24889011926E+03 -0.20058069449E+04  0.22222895273E+04  0.89462687407E+03 0.  0.
        -24    2    4    4    0    0  0.41933245764E+03  0.33173486899E+03 -0.19033348447E+04  0.19786865800E+04  0.81420621813E+02 0.  0.
         24    2    4    4    0    0 -0.18910277307E+03 -0.82844749721E+02 -0.10247210025E+03  0.24360294730E+03  0.78859072171E+02 0.  0.
         13    1    3    3    0    0 -0.21317829328E+03 -0.25547649140E+03 -0.47432090768E+03  0.57939066773E+03  0.00000000000E+00 0.  1.
        -13    1    3    3    0    0 -0.17051391287E+02  0.65863721355E+01 -0.23857132736E+02  0.30054833639E+02  0.00000000000E+00 0. -1.
          4    1    6    6  502    0 -0.14124741936E+03 -0.74148456562E+02 -0.11083464145E+03  0.19425021192E+03  0.00000000000E+00 0. -1.
          3    1    5    5  503    0  0.38995449124E+03  0.30001922131E+03 -0.16538654348E+04  0.17254990335E+04  0.00000000000E+00 0. -1.
         -4    1    5    5    0  503  0.29377966408E+02  0.31715647673E+02 -0.24946940990E+03  0.25318754649E+03  0.00000000000E+00 0.  1.
         -3    1    6    6    0  502 -0.47855353714E+02 -0.86962931588E+01  0.83625412041E+01  0.49352735377E+02  0.00000000000E+00 0.  1.
<mgrwt>
<rscale>  0 0.13224154E+04</rscale>
<asrwt>0</asrwt>
<pdfrwt beam="1">  1        1 0.41044001E+00 0.13224154E+04</pdfrwt>
<pdfrwt beam="2">  1       -1 0.25211541E-01 0.13224154E+04</pdfrwt>
<totfact> 0.14084268E+01</totfact>
</mgrwt>
</event>
<event>
12    1  0.1201209E-007  0.2004671E+04  0.7818608E-02  0.8604440E-01
          1   -1    0    0  501    0  0.00000000000E+00  0.00000000000E+00  0.17531396073E+04  0.17531396073E+04  0.00000000000E+00 0.  1.
         -1   -1    0    0    0  501 -0.00000000000E+00 -0.00000000000E+00 -0.57307285833E+03  0.57307285833E+03  0.00000000000E+00 0. -1.
         23    2    1    2    0    0  0.29885909787E+03 -0.20698281669E+03  0.12933908751E+04  0.13465233648E+04  0.90036489998E+02 0.  0.
        254    2    1    2    0    0 -0.29885909787E+03  0.20698281669E+03 -0.11332412615E+03  0.97968910076E+03  0.90265703886E+03 0.  0.
        -24    2    4    4    0    0 -0.35107788462E+03  0.50447635205E+03  0.59673897412E+02  0.62262193724E+03  0.79655708202E+02 0.  0.
         24    2    4    4    0    0  0.52218786743E+02 -0.29749353536E+03 -0.17299802356E+03  0.35706716353E+03  0.79620586812E+02 0.  0.
         11    1    3    3    0    0  0.39694558210E+02 -0.66760669483E+02  0.21502221928E+03  0.22862020848E+03  0.00000000000E+00 0. -1.
        -11    1    3    3    0    0  0.25916453966E+03 -0.14022214721E+03  0.10783686558E+04  0.11179031563E+04  0.00000000000E+00 0.  1.
          2    1    6    6  502    0  0.53761947142E+02 -0.94958076829E+02 -0.49308075337E+02  0.11974418403E+03  0.00000000000E+00 0. -1.
          1    1    5    5  503    0 -0.39625881971E+02  0.10781470350E+03  0.21446684860E+02  0.11685110656E+03  0.00000000000E+00 0. -1.
         -2    1    5    5    0  503 -0.31145200264E+03  0.39666164855E+03  0.38227212552E+02  0.50577083068E+03  0.00000000000E+00 0.  1.
         -1    1    6    6    0  502 -0.15431603992E+01 -0.20253545853E+03 -0.12368994822E+03  0.23732297950E+03  0.00000000000E+00 0.  1.
<mgrwt>
<rscale>  0 0.20046713E+04</rscale>
<asrwt>0</asrwt>
<pdfrwt beam="1">  1        1 0.26971378E+00 0.20046713E+04</pdfrwt>
<pdfrwt beam="2">  1       -1 0.88165056E-01 0.20046713E+04</pdfrwt>
<totfact> 0.51384782E+00</totfact>
</mgrwt>
</event>
<event>
12    1  0.1201209E-007  0.1452147E+04  0.7818608E-02  0.8916913E-01
          2   -1    0    0  501    0  0.00000000000E+00  0.00000000000E+00  0.13666990654E+04  0.13666990654E+04  0.00000000000E+00 0. -1.
         -2   -1    0    0    0  501 -0.00000000000E+00 -0.00000000000E+00 -0.38573426248E+03  0.38573426248E+03  0.00000000000E+00 0.  1.
         23    2    1    2    0    0  0.82214268195E+02 -0.33245851030E+03  0.67534645482E+03  0.76345597957E+03  0.97387636487E+02 0.  0.
        254    2    1    2    0    0 -0.82214268195E+02  0.33245851030E+03  0.30561834813E+03  0.98897734834E+03  0.87600557867E+03 0.  0.
        -24    2    4    4    0    0 -0.28985542362E+03 -0.13678786519E+03 -0.82560040000E+02  0.34082114329E+03  0.81337597965E+02 0.  0.
         24    2    4    4    0    0  0.20764115543E+03  0.46924637549E+03  0.38817838813E+03  0.64815620505E+03  0.78211219188E+02 0.  0.
         11    1    3    3    0    0  0.35526486891E+02 -0.28896920249E+02  0.12627572979E+03  0.13432320427E+03  0.00000000000E+00 0.  1.
        -11    1    3    3    0    0  0.46687781304E+02 -0.30356159005E+03  0.54907072503E+03  0.62913277530E+03  0.00000000000E+00 0. -1.
          4    1    6    6  502    0 -0.65438433655E+01  0.16233878646E+02  0.84511923933E+01  0.19436649783E+02  0.00000000000E+00 0. -1.
          3    1    5    5  503    0 -0.10643266335E+03 -0.31534136720E+02 -0.64954080217E+02  0.12861316474E+03  0.00000000000E+00 0. -1.
         -4    1    5    5    0  503 -0.18342276027E+03 -0.10525372847E+03 -0.17605959784E+02  0.21220797855E+03  0.00000000000E+00 0.  1.
         -3    1    6    6    0  502  0.21418499879E+03  0.45301249684E+03  0.37972719573E+03  0.62871955527E+03  0.00000000000E+00 0.  1.
<mgrwt>
<rscale>  0 0.14521469E+04</rscale>
<asrwt>0</asrwt>
<pdfrwt beam="1">  1        2 0.21026139E+00 0.14521469E+04</pdfrwt>
<pdfrwt beam="2">  1       -2 0.59343733E-01 0.14521469E+04</pdfrwt>
<totfact> 0.38866486E+01</totfact>
</mgrwt>
</event>
<event>
12    1  0.1201209E-007  0.1098610E+04  0.7818608E-02  0.9206548E-01
          2   -1    0    0  501    0  0.00000000000E+00  0.00000000000E+00  0.32937753634E+04  0.32937753634E+04  0.00000000000E+00 0.  1.
         -2   -1    0    0    0  501 -0.00000000000E+00 -0.00000000000E+00 -0.91607923346E+02  0.91607923346E+02  0.00000000000E+00 0. -1.
         23    2    1    2    0    0  0.96465863394E+02  0.77970323943E+01  0.13009446974E+03  0.18167215188E+03  0.81937434648E+02 0.  0.
        254    2    1    2    0    0 -0.96465863394E+02 -0.77970323943E+01  0.30720729703E+04  0.32037111348E+04  0.90375120704E+03 0.  0.
        -24    2    4    4    0    0 -0.40020964838E+03  0.14093035013E+03  0.83741501176E+03  0.94221287451E+03  0.80449193374E+02 0.  0.
         24    2    4    4    0    0  0.30374378499E+03 -0.14872738253E+03  0.22346579585E+04  0.22614982603E+04  0.79360372161E+02 0.  0.
         11    1    3    3    0    0 -0.51289420580E+01  0.17940711922E+02  0.34144616277E+01  0.18969284096E+02  0.00000000000E+00 0. -1.
        -11    1    3    3    0    0  0.10159480545E+03 -0.10143679528E+02  0.12668000811E+03  0.16270286778E+03  0.00000000000E+00 0.  1.
          4    1    6    6  502    0  0.14116436868E+03 -0.89561071131E+02  0.13279276220E+04  0.13384096285E+04  0.00000000000E+00 0. -1.
          3    1    5    5  503    0 -0.23255200816E+03  0.12090779410E+03  0.47919303866E+03  0.54619144947E+03  0.00000000000E+00 0. -1.
         -4    1    5    5    0  503 -0.16765764022E+03  0.20022556031E+02  0.35822197310E+03  0.39602142504E+03  0.00000000000E+00 0.  1.
         -3    1    6    6    0  502  0.16257941631E+03 -0.59166311395E+02  0.90673033655E+03  0.92308863184E+03  0.00000000000E+00 0.  1.
<mgrwt>
<rscale>  0 0.10986099E+04</rscale>
<asrwt>0</asrwt>
<pdfrwt beam="1">  1        2 0.50673458E+00 0.10986099E+04</pdfrwt>
<pdfrwt beam="2">  1       -2 0.14093529E-01 0.10986099E+04</pdfrwt>
<totfact> 0.44716965E+01</totfact>
</mgrwt>
</event>
<event>
12    1  0.1201209E-007  0.1595906E+04  0.7818608E-02  0.8823067E-01
          2   -1    0    0  501    0  0.00000000000E+00  0.00000000000E+00  0.16589542837E+04  0.16589542837E+04  0.00000000000E+00 0. -1.
         -2   -1    0    0    0  501 -0.00000000000E+00 -0.00000000000E+00 -0.38381330260E+03  0.38381330260E+03  0.00000000000E+00 0.  1.
         23    2    1    2    0    0  0.51883147419E+02  0.25001561001E+03 -0.17008758664E+03  0.31958705559E+03  0.89478671961E+02 0.  0.
        254    2    1    2    0    0 -0.51883147419E+02 -0.25001561001E+03  0.14452285677E+04  0.17231805307E+04  0.90303148461E+03 0.  0.
        -24    2    4    4    0    0 -0.33579911242E+03  0.53346971723E+02  0.18797234674E+03  0.39661637751E+03  0.79774710762E+02 0.  0.
         24    2    4    4    0    0  0.28391596500E+03 -0.30336258173E+03  0.12572562210E+04  0.13265641532E+04  0.80262794240E+02 0.  0.
         11    1    3    3    0    0  0.25151889626E+02  0.37500822843E+02  0.14450429993E+01  0.45177620731E+02  0.00000000000E+00 0. -1.
        -11    1    3    3    0    0  0.26731257792E+02  0.21251478717E+03 -0.17153262964E+03  0.27440943485E+03  0.00000000000E+00 0.  1.
          2    1    6    6  502    0  0.18481387181E+03 -0.20228264862E+03  0.94085911538E+03  0.97994403521E+03  0.00000000000E+00 0. -1.
          1    1    5    5  503    0 -0.22030164777E+03  0.71062846754E+01  0.89267270689E+02  0.23780656195E+03  0.00000000000E+00 0. -1.
         -2    1    5    5    0  503 -0.11549746465E+03  0.46240687047E+02  0.98705076053E+02  0.15880981556E+03  0.00000000000E+00 0.  1.
         -1    1    6    6    0  502  0.99102093199E+02 -0.10107993311E+03  0.31639710561E+03  0.34662011798E+03  0.00000000000E+00 0.  1.
<mgrwt>
<rscale>  0 0.15959057E+04</rscale>
<asrwt>0</asrwt>
<pdfrwt beam="1">  1        2 0.25522373E+00 0.15959057E+04</pdfrwt>
<pdfrwt beam="2">  1       -2 0.59048201E-01 0.15959057E+04</pdfrwt>
<totfact> 0.26560848E+01</totfact>
</mgrwt>
</event>
<event>
12    1  0.1201209E-007  0.1392439E+04  0.7818608E-02  0.8959310E-01
          2   -1    0    0  501    0  0.00000000000E+00  0.00000000000E+00  0.67064343434E+03  0.67064343434E+03  0.00000000000E+00 0. -1.
         -2   -1    0    0    0  501 -0.00000000000E+00 -0.00000000000E+00 -0.72277068763E+03  0.72277068763E+03  0.00000000000E+00 0.  1.
         23    2    1    2    0    0  0.22701250417E+03  0.15694380215E+03  0.35391230919E+03  0.45644432883E+03  0.83195364277E+02 0.  0.
        254    2    1    2    0    0 -0.22701250417E+03 -0.15694380215E+03 -0.40603956248E+03  0.93696979315E+03  0.79804651048E+03 0.  0.
        -24    2    4    4    0    0  0.23313810608E+03 -0.22055358321E+03 -0.26605239758E+02  0.33190407809E+03  0.80344375668E+02 0.  0.
         24    2    4    4    0    0 -0.46015061025E+03  0.63609781056E+02 -0.37943432273E+03  0.60506571505E+03  0.79682657531E+02 0.  0.
         11    1    3    3    0    0  0.23155210920E+03  0.14168831490E+03  0.34155881648E+03  0.43629621012E+03  0.00000000000E+00 0. -1.
        -11    1    3    3    0    0 -0.45396050296E+01  0.15255487250E+02  0.12353492718E+02  0.20148118706E+02  0.00000000000E+00 0.  1.
          4    1    6    6  502    0 -0.92063966255E+02  0.40681838289E+02 -0.60127985298E+02  0.11724402102E+03  0.00000000000E+00 0. -1.
          1    1    5    5  503    0  0.90461433638E+02 -0.13909137048E+03 -0.23528532149E+02  0.16758064370E+03  0.00000000000E+00 0. -1.
         -2    1    5    5    0  503  0.14267667244E+03 -0.81462212725E+02 -0.30767076096E+01  0.16432343439E+03  0.00000000000E+00 0.  1.
         -3    1    6    6    0  502 -0.36808664400E+03  0.22927942767E+02 -0.31930633743E+03  0.48782169403E+03  0.00000000000E+00 0.  1.
<mgrwt>
<rscale>  0 0.13924387E+04</rscale>
<asrwt>0</asrwt>
<pdfrwt beam="1">  1        2 0.10317591E+00 0.13924387E+04</pdfrwt>
<pdfrwt beam="2">  1       -2 0.11119549E+00 0.13924387E+04</pdfrwt>
<totfact> 0.26954157E+01</totfact>
</mgrwt>
</event>
<event>
12    1  0.1201209E-007  0.1632744E+04  0.7818608E-02  0.8800681E-01
         -2   -1    0    0    0  501 -0.00000000000E+00  0.00000000000E+00  0.34847773454E+03  0.34847773454E+03  0.00000000000E+00 0. -1.
          2   -1    0    0  501    0  0.00000000000E+00 -0.00000000000E+00 -0.19124989357E+04  0.19124989357E+04  0.00000000000E+00 0.  1.
         23    2    1    2    0    0  0.34219165369E+02  0.13040567445E+03  0.21080709197E+03  0.26651896371E+03  0.91739505026E+02 0.  0.
        254    2    1    2    0    0 -0.34219165369E+02 -0.13040567445E+03 -0.17748282931E+04  0.19944577065E+04  0.89981636006E+03 0.  0.
        -24    2    4    4    0    0  0.42353671471E+02  0.20796817077E+03 -0.15659973508E+04  0.15822168103E+04  0.77574084664E+02 0.  0.
         24    2    4    4    0    0 -0.76572836840E+02 -0.33837384522E+03 -0.20883094232E+03  0.41224089620E+03  0.77278299400E+02 0.  0.
         11    1    3    3    0    0  0.13195789994E+02  0.16322139703E+02 -0.49396111699E+01  0.21562487717E+02  0.00000000000E+00 0.  1.
        -11    1    3    3    0    0  0.21023375376E+02  0.11408353474E+03  0.21574670314E+03  0.24495647599E+03  0.00000000000E+00 0. -1.
          4    1    6    6  502    0 -0.59866798589E+02 -0.12172298955E+03 -0.56894898862E+02  0.14709707432E+03  0.00000000000E+00 0. -1.
          1    1    5    5  503    0  0.22773472212E+02  0.20488585128E+03 -0.14298269334E+04  0.14446113327E+04  0.00000000000E+00 0. -1.
         -2    1    5    5    0  503  0.19580199259E+02  0.30823194919E+01 -0.13617041738E+03  0.13760547761E+03  0.00000000000E+00 0.  1.
         -3    1    6    6    0  502 -0.16706038251E+02 -0.21665085567E+03 -0.15193604346E+03  0.26514382188E+03  0.00000000000E+00 0.  1.
<mgrwt>
<rscale>  0 0.16327441E+04</rscale>
<asrwt>0</asrwt>
<pdfrwt beam="1">  1        2 0.29423061E+00 0.16327441E+04</pdfrwt>
<pdfrwt beam="2">  1       -2 0.53611959E-01 0.16327441E+04</pdfrwt>
<totfact> 0.23436006E+01</totfact>
</mgrwt>
</event>
<event>
12    1  0.1201209E-007  0.1222182E+04  0.7818608E-02  0.9093659E-01
         -2   -1    0    0    0  501 -0.00000000000E+00  0.00000000000E+00  0.32623578724E+03  0.32623578724E+03  0.00000000000E+00 0. -1.
          2   -1    0    0  501    0  0.00000000000E+00 -0.00000000000E+00 -0.11446693866E+04  0.11446693866E+04  0.00000000000E+00 0.  1.
         23    2    1    2    0    0  0.18282256149E+03  0.14478896979E+03 -0.35118116645E+03  0.43041217981E+03  0.86824524730E+02 0.  0.
        254    2    1    2    0    0 -0.18282256149E+03 -0.14478896979E+03 -0.46725243287E+03  0.10404929940E+04  0.89995160968E+03 0.  0.
        -24    2    4    4    0    0 -0.12473688677E+03 -0.51365653912E+03 -0.18395238532E+03  0.56559548660E+03  0.81593157145E+02 0.  0.
         24    2    4    4    0    0 -0.58085674718E+02  0.36886756933E+03 -0.28330004755E+03  0.47489750739E+03  0.76364234233E+02 0.  0.
         11    1    3    3    0    0  0.11364021823E+03  0.12096784080E+03 -0.18329146880E+03  0.24727126854E+03  0.00000000000E+00 0.  1.
        -11    1    3    3    0    0  0.69182343252E+02  0.23821128989E+02 -0.16788969765E+03  0.18314091127E+03  0.00000000000E+00 0. -1.
          2    1    6    6  502    0 -0.36129514964E+01  0.25691332357E+02  0.96367142249E+00  0.25962023022E+02  0.00000000000E+00 0. -1.
          1    1    5    5  503    0 -0.29799922673E+02 -0.39394040139E+02 -0.30994095327E+02  0.58314318438E+02  0.00000000000E+00 0. -1.
         -2    1    5    5    0  503 -0.94936964096E+02 -0.47426249898E+03 -0.15295829000E+03  0.50728116816E+03  0.00000000000E+00 0.  1.
         -1    1    6    6    0  502 -0.54472723222E+02  0.34317623698E+03 -0.28426371897E+03  0.44893548437E+03  0.00000000000E+00 0.  1.
<mgrwt>
<rscale>  0 0.12221818E+04</rscale>
<asrwt>0</asrwt>
<pdfrwt beam="1">  1        2 0.17610298E+00 0.12221818E+04</pdfrwt>
<pdfrwt beam="2">  1       -2 0.50190121E-01 0.12221818E+04</pdfrwt>
<totfact> 0.75660694E+01</totfact>
</mgrwt>
</event>
<event>
12    1  0.1201209E-007  0.2695974E+04  0.7818608E-02  0.8336312E-01
         -2   -1    0    0    0  501 -0.00000000000E+00  0.00000000000E+00  0.12188840352E+04  0.12188840352E+04  0.00000000000E+00 0.  1.
          2   -1    0    0  501    0  0.00000000000E+00 -0.00000000000E+00 -0.14907649504E+04  0.14907649504E+04  0.00000000000E+00 0. -1.
         23    2    1    2    0    0  0.25468775850E+03  0.61414679109E+03  0.88069465882E+03  0.11071436056E+04  0.90009698955E+02 0.  0.
        254    2    1    2    0    0 -0.25468775850E+03 -0.61414679109E+03 -0.11525755740E+04  0.16025053801E+04  0.89305705537E+03 0.  0.
        -24    2    4    4    0    0  0.22864943012E+03  0.47511800715E+02 -0.10006564546E+03  0.26636527079E+03  0.79996193552E+02 0.  0.
         24    2    4    4    0    0 -0.48333718862E+03 -0.66165859181E+03 -0.10525099286E+04  0.13361401093E+04  0.78014819341E+02 0.  0.
         11    1    3    3    0    0  0.18334375929E+03  0.47113982595E+03  0.60446328161E+03  0.78801239107E+03  0.00000000000E+00 0.  1.
        -11    1    3    3    0    0  0.71343999215E+02  0.14300696514E+03  0.27623137720E+03  0.31913121448E+03  0.00000000000E+00 0. -1.
          2    1    6    6  502    0 -0.26163716911E+03 -0.40852847254E+03 -0.58171607782E+03  0.75745832647E+03  0.00000000000E+00 0. -1.
          3    1    5    5  503    0  0.12359303444E+03 -0.15146430491E+02 -0.51908622589E+02  0.13490425352E+03  0.00000000000E+00 0. -1.
         -4    1    5    5    0  503  0.10505639568E+03  0.62658231206E+02 -0.48157022871E+02  0.13146101727E+03  0.00000000000E+00 0.  1.
         -1    1    6    6    0  502 -0.22170001950E+03 -0.25313011927E+03 -0.47079385073E+03  0.57868178286E+03  0.00000000000E+00 0.  1.
<mgrwt>
<rscale>  0 0.26959745E+04</rscale>
<asrwt>0</asrwt>
<pdfrwt beam="1">  1        2 0.22934845E+00 0.26959745E+04</pdfrwt>
<pdfrwt beam="2">  1       -2 0.18752062E+00 0.26959745E+04</pdfrwt>
<totfact> 0.18163673E+00</totfact>
</mgrwt>
</event>
<event>
12    1  0.1201209E-007  0.2537104E+04  0.7818608E-02  0.8389885E-01
          1   -1    0    0  501    0  0.00000000000E+00  0.00000000000E+00  0.24566034165E+04  0.24566034165E+04  0.00000000000E+00 0. -1.
         -1   -1    0    0    0  501 -0.00000000000E+00 -0.00000000000E+00 -0.65506086591E+03  0.65506086591E+03  0.00000000000E+00 0.  1.
         23    2    1    2    0    0  0.84275239865E+03 -0.71325495547E+03  0.90337552194E+03  0.14294670679E+04  0.91238848876E+02 0.  0.
        254    2    1    2    0    0 -0.84275239865E+03  0.71325495547E+03  0.89816702863E+03  0.16821972145E+04  0.89672694855E+03 0.  0.
        -24    2    4    4    0    0 -0.79468315104E+03  0.71115666950E+03  0.34843536834E+03  0.11246164373E+04  0.78037208767E+02 0.  0.
         24    2    4    4    0    0 -0.48069247606E+02  0.20982859778E+01  0.54973166029E+03  0.55758077724E+03  0.79852172478E+02 0.  0.
         13    1    3    3    0    0  0.74812041293E+02 -0.65773925175E+02  0.11787739569E+03  0.15433123848E+03  0.00000000000E+00 0.  1.
        -13    1    3    3    0    0  0.76794035736E+03 -0.64748103030E+03  0.78549812624E+03  0.12751358294E+04  0.00000000000E+00 0. -1.
          2    1    6    6  502    0  0.13084240878E+02 -0.18487743177E+02  0.71129096247E+02  0.74648123486E+02  0.00000000000E+00 0. -1.
          3    1    5    5  503    0 -0.40909854474E+03  0.36740051773E+03  0.22063249340E+03  0.59247232584E+03  0.00000000000E+00 0. -1.
         -4    1    5    5    0  503 -0.38558460630E+03  0.34375615176E+03  0.12780287494E+03  0.53214411144E+03  0.00000000000E+00 0.  1.
         -1    1    6    6    0  502 -0.61153488484E+02  0.20586029155E+02  0.47860256405E+03  0.48293265375E+03  0.00000000000E+00 0.  1.
<mgrwt>
<rscale>  0 0.25371045E+04</rscale>
<asrwt>0</asrwt>
<pdfrwt beam="1">  1        1 0.37793898E+00 0.25371045E+04</pdfrwt>
<pdfrwt beam="2">  1       -1 0.10077860E+00 0.25371045E+04</pdfrwt>
<totfact> 0.12034160E+00</totfact>
</mgrwt>
</event>
<event>
12    1  0.1201209E-007  0.1298349E+04  0.7818608E-02  0.9030876E-01
          1   -1    0    0  501    0  0.00000000000E+00  0.00000000000E+00  0.10075144433E+04  0.10075144433E+04  0.00000000000E+00 0. -1.
         -1   -1    0    0    0  501 -0.00000000000E+00 -0.00000000000E+00 -0.41828411877E+03  0.41828411877E+03  0.00000000000E+00 0.  1.
         23    2    1    2    0    0 -0.21865907406E+03 -0.24278790597E+01 -0.11764501852E+03  0.26083081491E+03  0.79841582869E+02 0.  0.
        254    2    1    2    0    0  0.21865907406E+03  0.24278790597E+01  0.70687534301E+03  0.11649677471E+04  0.89981076678E+03 0.  0.
        -24    2    4    4    0    0 -0.20669763891E+03  0.17151745765E+03 -0.42014772628E+02  0.28368526892E+03  0.81055157007E+02 0.  0.
         24    2    4    4    0    0  0.42535671297E+03 -0.16908957859E+03  0.74889011564E+03  0.88128247820E+03  0.79390063792E+02 0.  0.
         11    1    3    3    0    0 -0.17636152039E+03  0.28727925086E+00 -0.54147478767E+02  0.18448690430E+03  0.00000000000E+00 0.  1.
        -11    1    3    3    0    0 -0.42297553677E+02 -0.27151583106E+01 -0.63497539750E+02  0.76343910603E+02  0.00000000000E+00 0. -1.
          4    1    6    6  502    0  0.15427723897E+03 -0.95778356807E+02  0.33629193226E+03  0.38218741973E+03  0.00000000000E+00 0. -1.
          3    1    5    5  503    0 -0.66800470500E+02  0.90130970118E+02 -0.47299685962E+02  0.12175037957E+03  0.00000000000E+00 0. -1.
         -4    1    5    5    0  503 -0.13989716841E+03  0.81386487528E+02  0.52849133342E+01  0.16193488935E+03  0.00000000000E+00 0.  1.
         -3    1    6    6    0  502  0.27107947400E+03 -0.73311221779E+02  0.41259818338E+03  0.49909505847E+03  0.00000000000E+00 0.  1.
<mgrwt>
<rscale>  0 0.12983486E+04</rscale>
<asrwt>0</asrwt>
<pdfrwt beam="1">  1        1 0.15500222E+00 0.12983486E+04</pdfrwt>
<pdfrwt beam="2">  1       -1 0.64351403E-01 0.12983486E+04</pdfrwt>
<totfact> 0.35922933E+01</totfact>
</mgrwt>
</event>
<event>
12    1  0.1201209E-007  0.1940992E+04  0.7818608E-02  0.8634717E-01
          2   -1    0    0  501    0  0.00000000000E+00  0.00000000000E+00  0.18531875666E+04  0.18531875666E+04  0.00000000000E+00 0. -1.
         -2   -1    0    0    0  501 -0.00000000000E+00 -0.00000000000E+00 -0.50823891034E+03  0.50823891034E+03  0.00000000000E+00 0.  1.
         23    2    1    2    0    0  0.10988233996E-01  0.73466504149E+03  0.32724217389E+03  0.80956431677E+03  0.92597080375E+02 0.  0.
        254    2    1    2    0    0 -0.10988233996E-01 -0.73466504149E+03  0.10177064824E+04  0.15518621602E+04  0.91258805420E+03 0.  0.
        -24    2    4    4    0    0  0.24357056760E+03  0.93323008795E+02  0.10368851435E+03  0.29194258047E+03  0.80270523301E+02 0.  0.
         24    2    4    4    0    0 -0.24358155584E+03 -0.82798805029E+03  0.91401796806E+03  0.12599195797E+04  0.84097061332E+02 0.  0.
         11    1    3    3    0    0  0.29467590052E+02  0.60336164462E+03  0.28910251351E+03  0.66969685409E+03  0.00000000000E+00 0.  1.
        -11    1    3    3    0    0 -0.29456601818E+02  0.13130339687E+03  0.38139660386E+02  0.13986746267E+03  0.00000000000E+00 0. -1.
          2    1    6    6  502    0 -0.11139958819E+03 -0.24795093213E+03  0.26847501426E+03  0.38205806663E+03  0.00000000000E+00 0. -1.
          3    1    5    5  503    0  0.18037641882E+03  0.71101348741E+02  0.11284483608E+03  0.22433236790E+03  0.00000000000E+00 0. -1.
         -4    1    5    5    0  503  0.63194148785E+02  0.22221660054E+02 -0.91563217282E+01  0.67610212570E+02  0.00000000000E+00 0.  1.
         -1    1    6    6    0  502 -0.13218196764E+03 -0.58003711816E+03  0.64554295380E+03  0.87786151312E+03  0.00000000000E+00 0.  1.
<mgrwt>
<rscale>  0 0.19409915E+04</rscale>
<asrwt>0</asrwt>
<pdfrwt beam="1">  1        2 0.28510577E+00 0.19409915E+04</pdfrwt>
<pdfrwt beam="2">  1       -2 0.78190603E-01 0.19409915E+04</pdfrwt>
<totfact> 0.10949852E+01</totfact>
</mgrwt>
</event>
<event>
12    1  0.1201209E-007  0.1186418E+04  0.7818608E-02  0.9124829E-01
          1   -1    0    0  501    0  0.00000000000E+00  0.00000000000E+00  0.80873016937E+03  0.80873016937E+03  0.00000000000E+00 0. -1.
         -1   -1    0    0    0  501 -0.00000000000E+00 -0.00000000000E+00 -0.43512264067E+03  0.43512264067E+03  0.00000000000E+00 0.  1.
         23    2    1    2    0    0 -0.95841681844E+00 -0.17397570471E+03  0.26273407070E+03  0.32781546917E+03  0.90362190833E+02 0.  0.
        254    2    1    2    0    0  0.95841681844E+00  0.17397570471E+03  0.11087345800E+03  0.91603734087E+03  0.89250379371E+03 0.  0.
        -24    2    4    4    0    0  0.36891981235E+03  0.30412137723E+03  0.16917490822E+03  0.51321815852E+03  0.78619899764E+02 0.  0.
         24    2    4    4    0    0 -0.36796139553E+03 -0.13014567252E+03 -0.58301450219E+02  0.40281918234E+03  0.80813055217E+02 0.  0.
         13    1    3    3    0    0  0.93301190158E+01 -0.17073722277E+03  0.26628618308E+03  0.31645944710E+03  0.00000000000E+00 0. -1.
        -13    1    3    3    0    0 -0.10288535834E+02 -0.32384819395E+01 -0.35521123844E+01  0.11356022071E+02  0.00000000000E+00 0.  1.
          4    1    6    6  502    0 -0.36620142339E+03 -0.12801043467E+03 -0.46511578670E+02  0.39070894644E+03  0.00000000000E+00 0. -1.
          3    1    5    5  503    0  0.17645825168E+03  0.14790490969E+03  0.39987868641E+02  0.23369297494E+03  0.00000000000E+00 0. -1.
         -4    1    5    5    0  503  0.19246156066E+03  0.15621646754E+03  0.12918703958E+03  0.27952518359E+03  0.00000000000E+00 0.  1.
         -3    1    6    6    0  502 -0.17599721398E+01 -0.21352378489E+01 -0.11789871549E+02  0.12110235908E+02  0.00000000000E+00 0.  1.
<mgrwt>
<rscale>  0 0.11864178E+04</rscale>
<asrwt>0</asrwt>
<pdfrwt beam="1">  1        1 0.12442003E+00 0.11864178E+04</pdfrwt>
<pdfrwt beam="2">  1       -1 0.66941945E-01 0.11864178E+04</pdfrwt>
<totfact> 0.48668675E+01</totfact>
</mgrwt>
</event>
<event>
12    1  0.1201209E-007  0.1467615E+04  0.7818608E-02  0.8906279E-01
         -1   -1    0    0    0  501 -0.00000000000E+00  0.00000000000E+00  0.36916494233E+03  0.36916494233E+03  0.00000000000E+00 0.  1.
          1   -1    0    0  501    0  0.00000000000E+00 -0.00000000000E+00 -0.14586247779E+04  0.14586247779E+04  0.00000000000E+00 0. -1.
         23    2    1    2    0    0  0.35905822070E+03 -0.28652452794E+03 -0.38751838755E+03  0.60740165971E+03  0.88017978688E+02 0.  0.
        254    2    1    2    0    0 -0.35905822070E+03  0.28652452794E+03 -0.70194144804E+03  0.12203880605E+04  0.88634423948E+03 0.  0.
        -24    2    4    4    0    0 -0.31791033771E+03  0.55073498042E+03 -0.24786104248E+03  0.68731976080E+03  0.81224107974E+02 0.  0.
         24    2    4    4    0    0 -0.41147882983E+02 -0.26421045248E+03 -0.45408040556E+03  0.53306829974E+03  0.80451761927E+02 0.  0.
         13    1    3    3    0    0  0.23392901385E+03 -0.18413975554E+03 -0.30372654371E+03  0.42529994880E+03  0.00000000000E+00 0.  1.
        -13    1    3    3    0    0  0.12512920684E+03 -0.10238477240E+03 -0.83791843840E+02  0.18210171091E+03  0.00000000000E+00 0. -1.
          4    1    6    6  502    0 -0.86181630561E+01 -0.11482324659E+03 -0.27163441940E+03  0.29503204656E+03  0.00000000000E+00 0. -1.
          3    1    5    5  503    0 -0.32209880023E+03  0.54438632737E+03 -0.24044346112E+03  0.67669577251E+03  0.00000000000E+00 0. -1.
         -4    1    5    5    0  503  0.41884625192E+01  0.63486530508E+01 -0.74175813601E+01  0.10623988284E+02  0.00000000000E+00 0.  1.
         -3    1    6    6    0  502 -0.32529719927E+02 -0.14938720590E+03 -0.18244598616E+03  0.23803625318E+03  0.00000000000E+00 0.  1.
<mgrwt>
<rscale>  0 0.14676146E+04</rscale>
<asrwt>0</asrwt>
<pdfrwt beam="1">  1        1 0.22440381E+00 0.14676146E+04</pdfrwt>
<pdfrwt beam="2">  1       -1 0.56794607E-01 0.14676146E+04</pdfrwt>
<totfact> 0.21273971E+01</totfact>
</mgrwt>
</event>
<event>
12    1  0.1201209E-007  0.3596970E+04  0.7818608E-02  0.8091186E-01
          2   -1    0    0  501    0  0.00000000000E+00  0.00000000000E+00  0.38425210809E+04  0.38425210809E+04  0.00000000000E+00 0. -1.
         -2   -1    0    0    0  501 -0.00000000000E+00 -0.00000000000E+00 -0.84177747002E+03  0.84177747002E+03  0.00000000000E+00 0.  1.
         23    2    1    2    0    0  0.14802738175E+04 -0.79952397827E+03  0.12914161521E+04  0.21227852759E+04  0.89512474957E+02 0.  0.
        254    2    1    2    0    0 -0.14802738175E+04  0.79952397827E+03  0.17093274587E+04  0.25615132750E+04  0.89950026685E+03 0.  0.
        -24    2    4    4    0    0 -0.33561263403E+03  0.32176416442E+03  0.10570079508E+04  0.11574806068E+04  0.79545769176E+02 0.  0.
         24    2    4    4    0    0 -0.11446611835E+04  0.47775981386E+03  0.65231950796E+03  0.14040326682E+04  0.85342417779E+02 0.  0.
         11    1    3    3    0    0  0.51663240730E+03 -0.31539414240E+03  0.42836966708E+03  0.74154101775E+03  0.00000000000E+00 0. -1.
        -11    1    3    3    0    0  0.96364141019E+03 -0.48412983587E+03  0.86304648502E+03  0.13812442582E+04  0.00000000000E+00 0.  1.
          4    1    6    6  502    0 -0.21785854733E+02  0.16505744508E+02  0.27399836939E+02  0.38701603746E+02  0.00000000000E+00 0. -1.
          3    1    5    5  503    0 -0.29509282470E+02  0.60250124989E+02  0.11672765734E+03  0.13463365590E+03  0.00000000000E+00 0. -1.
         -4    1    5    5    0  503 -0.30610335156E+03  0.26151403943E+03  0.94028029344E+03  0.10228469509E+04  0.00000000000E+00 0.  1.
         -3    1    6    6    0  502 -0.11228753287E+04  0.46125406935E+03  0.62491967102E+03  0.13653310645E+04  0.00000000000E+00 0.  1.
<mgrwt>
<rscale>  0 0.35969697E+04</rscale>
<asrwt>0</asrwt>
<pdfrwt beam="1">  1        2 0.59115708E+00 0.35969697E+04</pdfrwt>
<pdfrwt beam="2">  1       -2 0.12950423E+00 0.35969697E+04</pdfrwt>
<totfact> 0.16248601E-01</totfact>
</mgrwt>
</event>
<event>
12    1  0.1201209E-007  0.1880380E+04  0.7818608E-02  0.8664685E-01
         -1   -1    0    0    0  501 -0.00000000000E+00  0.00000000000E+00  0.35083332534E+03  0.35083332534E+03  0.00000000000E+00 0.  1.
          1   -1    0    0  501    0  0.00000000000E+00 -0.00000000000E+00 -0.25195918445E+04  0.25195918445E+04  0.00000000000E+00 0. -1.
         23    2    1    2    0    0 -0.59717410759E+03  0.29580096652E+03 -0.49089962654E+03  0.83163347808E+03  0.80725906389E+02 0.  0.
        254    2    1    2    0    0  0.59717410759E+03 -0.29580096652E+03 -0.16778588926E+04  0.20387916917E+04  0.94728346985E+03 0.  0.
        -24    2    4    4    0    0  0.48778414497E+03  0.13239885067E+03 -0.30811841600E+03  0.59722585586E+03  0.79239743143E+02 0.  0.
         24    2    4    4    0    0  0.10938996262E+03 -0.42819981718E+03 -0.13697404766E+04  0.14415658359E+04  0.81251698867E+02 0.  0.
         13    1    3    3    0    0 -0.36920515669E+03  0.21824394866E+03 -0.34164165225E+03  0.54832644238E+03  0.00000000000E+00 0.  1.
        -13    1    3    3    0    0 -0.22796895089E+03  0.77557017856E+02 -0.14925797428E+03  0.28330703570E+03  0.00000000000E+00 0. -1.
          2    1    6    6  502    0  0.42625183896E+00  0.37056957455E+01 -0.80944343417E+01  0.89125607376E+01  0.00000000000E+00 0. -1.
          1    1    5    5  503    0  0.26031579983E+02 -0.99440352345E+01 -0.10802942014E+02  0.29886962865E+02  0.00000000000E+00 0. -1.
         -2    1    5    5    0  503  0.46175256499E+03  0.14234288590E+03 -0.29731547399E+03  0.56733889300E+03  0.00000000000E+00 0.  1.
         -1    1    6    6    0  502  0.10896371078E+03 -0.43190551293E+03 -0.13616460423E+04  0.14326532751E+04  0.00000000000E+00 0.  1.
<mgrwt>
<rscale>  0 0.18803795E+04</rscale>
<asrwt>0</asrwt>
<pdfrwt beam="1">  1        1 0.38762952E+00 0.18803795E+04</pdfrwt>
<pdfrwt beam="2">  1       -1 0.53974357E-01 0.18803795E+04</pdfrwt>
<totfact> 0.42676058E+00</totfact>
</mgrwt>
</event>
<event>
12    1  0.1201209E-007  0.1527539E+04  0.7818608E-02  0.8866344E-01
         -2   -1    0    0    0  501 -0.00000000000E+00  0.00000000000E+00  0.43817983655E+03  0.43817983655E+03  0.00000000000E+00 0.  1.
          2   -1    0    0  501    0  0.00000000000E+00 -0.00000000000E+00 -0.13312884546E+04  0.13312884546E+04  0.00000000000E+00 0. -1.
         23    2    1    2    0    0  0.18042736294E+03  0.31370952854E+03  0.94805182580E+02  0.38493546577E+03  0.90661946652E+02 0.  0.
        254    2    1    2    0    0 -0.18042736294E+03 -0.31370952854E+03 -0.98791380059E+03  0.13845328254E+04  0.89999431414E+03 0.  0.
        -24    2    4    4    0    0 -0.37879143031E+03  0.34065029420E+02 -0.87992889307E+03  0.96187537273E+03  0.79284310516E+02 0.  0.
         24    2    4    4    0    0  0.19836406737E+03 -0.34777455796E+03 -0.10798490752E+03  0.42265745262E+03  0.81750447215E+02 0.  0.
         11    1    3    3    0    0  0.18929391047E+03  0.31022239916E+03  0.90705420197E+02  0.37456320526E+03  0.00000000000E+00 0.  1.
        -11    1    3    3    0    0 -0.88665475351E+01  0.34871293827E+01  0.40997623829E+01  0.10372260512E+02  0.00000000000E+00 0. -1.
          2    1    6    6  502    0  0.19234299960E+03 -0.32165337804E+03 -0.78687305816E+02  0.38294701617E+03  0.00000000000E+00 0. -1.
          3    1    5    5  503    0 -0.17759170995E+03 -0.22752396598E+02 -0.42733063705E+03  0.46332273887E+03  0.00000000000E+00 0. -1.
         -4    1    5    5    0  503 -0.20119972036E+03  0.56817426017E+02 -0.45259825602E+03  0.49855263386E+03  0.00000000000E+00 0.  1.
         -1    1    6    6    0  502  0.60210677688E+01 -0.26121179917E+02 -0.29297601705E+02  0.39710436449E+02  0.00000000000E+00 0.  1.
<mgrwt>
<rscale>  0 0.15275389E+04</rscale>
<asrwt>0</asrwt>
<pdfrwt beam="1">  1        2 0.20481361E+00 0.15275389E+04</pdfrwt>
<pdfrwt beam="2">  1       -2 0.67412284E-01 0.15275389E+04</pdfrwt>
<totfact> 0.30842361E+01</totfact>
</mgrwt>
</event>
<event>
12    1  0.1201209E-007  0.1513195E+04  0.7818608E-02  0.8875725E-01
          2   -1    0    0  501    0  0.00000000000E+00  0.00000000000E+00  0.11251530540E+04  0.11251530540E+04  0.00000000000E+00 0. -1.
         -2   -1    0    0    0  501 -0.00000000000E+00 -0.00000000000E+00 -0.50876627521E+03  0.50876627521E+03  0.00000000000E+00 0.  1.
         23    2    1    2    0    0 -0.46354841826E+03 -0.90154003955E+02  0.76826917532E+02  0.48702763931E+03  0.91042109458E+02 0.  0.
        254    2    1    2    0    0  0.46354841826E+03  0.90154003955E+02  0.53955986125E+03  0.11468916899E+04  0.89511497807E+03 0.  0.
        -24    2    4    4    0    0  0.24327353823E+03 -0.37256791035E+03  0.91444703113E+02  0.46143028513E+03  0.81036486130E+02 0.  0.
         24    2    4    4    0    0  0.22027488003E+03  0.46272191431E+03  0.44811515814E+03  0.68546140476E+03  0.80109610579E+02 0.  0.
         11    1    3    3    0    0 -0.74004888855E+02  0.18562358256E+02  0.70459394821E+01  0.76621994111E+02  0.00000000000E+00 0. -1.
        -11    1    3    3    0    0 -0.38954352941E+03 -0.10871636221E+03  0.69780978050E+02  0.41040564520E+03  0.00000000000E+00 0.  1.
          2    1    6    6  502    0  0.59691847838E+02  0.75095659313E+02  0.55421499713E+02  0.11078816442E+03  0.00000000000E+00 0. -1.
          3    1    5    5  503    0  0.78442166511E+02 -0.93808586630E+02  0.59564724461E+02  0.13601904577E+03  0.00000000000E+00 0. -1.
         -4    1    5    5    0  503  0.16483137172E+03 -0.27875932372E+03  0.31879978653E+02  0.32541123936E+03  0.00000000000E+00 0.  1.
         -1    1    6    6    0  502  0.16058303219E+03  0.38762625499E+03  0.39269365842E+03  0.57467324033E+03  0.00000000000E+00 0.  1.
<mgrwt>
<rscale>  0 0.15131952E+04</rscale>
<asrwt>0</asrwt>
<pdfrwt beam="1">  1        2 0.17310047E+00 0.15131952E+04</pdfrwt>
<pdfrwt beam="2">  1       -2 0.78271735E-01 0.15131952E+04</pdfrwt>
<totfact> 0.29465708E+01</totfact>
</mgrwt>
</event>
<event>
12    1  0.1201209E-007  0.1750638E+04  0.7818608E-02  0.8732999E-01
         -2   -1    0    0    0  501 -0.00000000000E+00  0.00000000000E+00  0.12856058376E+04  0.12856058376E+04  0.00000000000E+00 0. -1.
          2   -1    0    0  501    0  0.00000000000E+00 -0.00000000000E+00 -0.59597032244E+03  0.59597032244E+03  0.00000000000E+00 0.  1.
         23    2    1    2    0    0 -0.32102398783E+03  0.47178114845E+03 -0.58241385813E+02  0.57808608583E+03  0.71816507958E+02 0.  0.
        254    2    1    2    0    0  0.32102398783E+03 -0.47178114845E+03  0.74787690100E+03  0.13034900742E+04  0.90229300218E+03 0.  0.
        -24    2    4    4    0    0  0.57687741115E+03 -0.19098130250E+03  0.22642306628E+03  0.65316515579E+03  0.78076311300E+02 0.  0.
         24    2    4    4    0    0 -0.25585342332E+03 -0.28079984595E+03  0.52145383472E+03  0.65032491845E+03  0.81846625465E+02 0.  0.
         13    1    3    3    0    0 -0.72358621943E+02  0.74220446066E+02  0.10358169335E+02  0.10417166820E+03  0.00000000000E+00 0. -1.
        -13    1    3    3    0    0 -0.24866536589E+03  0.39756070239E+03 -0.68599555147E+02  0.47391441763E+03  0.00000000000E+00 0.  1.
          4    1    6    6  502    0 -0.25452257507E+03 -0.27014619813E+03  0.47590697240E+03  0.60352974737E+03  0.00000000000E+00 0. -1.
          3    1    5    5  503    0  0.48545368024E+03 -0.17565483834E+03  0.21693004476E+03  0.55998084093E+03  0.00000000000E+00 0. -1.
         -4    1    5    5    0  503  0.91423730911E+02 -0.15326464163E+02  0.94930215250E+01  0.93184314855E+02  0.00000000000E+00 0.  1.
         -3    1    6    6    0  502 -0.13308482552E+01 -0.10653647817E+02  0.45546862319E+02  0.46795171075E+02  0.00000000000E+00 0.  1.
<mgrwt>
<rscale>  0 0.17506375E+04</rscale>
<asrwt>0</asrwt>
<pdfrwt beam="1">  1        2 0.91687742E-01 0.17506375E+04</pdfrwt>
<pdfrwt beam="2">  1       -2 0.19778551E+00 0.17506375E+04</pdfrwt>
<totfact> 0.65127142E+00</totfact>
</mgrwt>
</event>
<event>
12    1  0.1201209E-007  0.1149772E+04  0.7818608E-02  0.9157994E-01
          2   -1    0    0  501    0  0.00000000000E+00  0.00000000000E+00  0.82405446402E+03  0.82405446402E+03  0.00000000000E+00 0. -1.
         -2   -1    0    0    0  501 -0.00000000000E+00 -0.00000000000E+00 -0.40105811490E+03  0.40105811490E+03  0.00000000000E+00 0.  1.
         23    2    1    2    0    0 -0.16462481082E+02 -0.15164328321E+03  0.21093597231E+03  0.27551271156E+03  0.90258357992E+02 0.  0.
        254    2    1    2    0    0  0.16462481082E+02  0.15164328321E+03  0.21206037681E+03  0.94959986736E+03  0.91296418663E+03 0.  0.
        -24    2    4    4    0    0 -0.23356713754E+03 -0.58882348833E+02 -0.26430608265E+03  0.36642364324E+03  0.79923977994E+02 0.  0.
         24    2    4    4    0    0  0.25002961862E+03  0.21052563204E+03  0.47636645946E+03  0.58317622412E+03  0.79584249375E+02 0.  0.
         13    1    3    3    0    0  0.10896202943E+02 -0.81253815313E+02  0.45750914166E+02  0.93883203442E+02  0.00000000000E+00 0.  1.
        -13    1    3    3    0    0 -0.27358684025E+02 -0.70389467893E+02  0.16518505815E+03  0.18162950811E+03  0.00000000000E+00 0. -1.
          2    1    6    6  502    0  0.23044307617E+03  0.19362804897E+03  0.38775623278E+03  0.49086732298E+03  0.00000000000E+00 0. -1.
          1    1    5    5  503    0 -0.21029431625E+03 -0.74279717289E+02 -0.25013984165E+03  0.33512850704E+03  0.00000000000E+00 0. -1.
         -2    1    5    5    0  503 -0.23272821285E+02  0.15397368455E+02 -0.14166241001E+02  0.31295136204E+02  0.00000000000E+00 0.  1.
         -1    1    6    6    0  502  0.19586542448E+02  0.16897583064E+02  0.88610226677E+02  0.92308901143E+02  0.00000000000E+00 0.  1.
<mgrwt>
<rscale>  0 0.11497717E+04</rscale>
<asrwt>0</asrwt>
<pdfrwt beam="1">  1        2 0.12677761E+00 0.11497717E+04</pdfrwt>
<pdfrwt beam="2">  1       -2 0.61701249E-01 0.11497717E+04</pdfrwt>
<totfact> 0.80005786E+01</totfact>
</mgrwt>
</event>
<event>
12    1  0.1201209E-007  0.1712525E+04  0.7818608E-02  0.8754253E-01
         -2   -1    0    0    0  501 -0.00000000000E+00  0.00000000000E+00  0.11703483841E+04  0.11703483841E+04  0.00000000000E+00 0.  1.
          2   -1    0    0  501    0  0.00000000000E+00 -0.00000000000E+00 -0.62646744070E+03  0.62646744070E+03  0.00000000000E+00 0. -1.
         23    2    1    2    0    0  0.53869278683E+03 -0.88072933050E+02 -0.10237961923E+03  0.56251053783E+03  0.89385449699E+02 0.  0.
        254    2    1    2    0    0 -0.53869278683E+03  0.88072933050E+02  0.64626056258E+03  0.12343052869E+04  0.89883817590E+03 0.  0.
        -24    2    4    4    0    0 -0.11104520668E+03 -0.37729593381E+03  0.15626037213E+03  0.43080479617E+03  0.80574244733E+02 0.  0.
         24    2    4    4    0    0 -0.42764758014E+03  0.46536886686E+03  0.49000019045E+03  0.80350049075E+03  0.77860239839E+02 0.  0.
         11    1    3    3    0    0  0.27635914773E+03 -0.32297425750E+01 -0.68365172635E+02  0.28470793210E+03  0.00000000000E+00 0.  1.
        -11    1    3    3    0    0  0.26233363909E+03 -0.84843190475E+02 -0.34014446592E+02  0.27780260572E+03  0.00000000000E+00 0. -1.
          2    1    6    6  502    0 -0.37947777032E+03  0.44358861043E+03  0.45440194048E+03  0.73976709644E+03  0.00000000000E+00 0. -1.
          3    1    5    5  503    0 -0.12230124399E+03 -0.31135312217E+03  0.12747601192E+03  0.35797834373E+03  0.00000000000E+00 0. -1.
         -4    1    5    5    0  503  0.11256037309E+02 -0.65942811638E+02  0.28784360214E+02  0.72826452444E+02  0.00000000000E+00 0.  1.
         -1    1    6    6    0  502 -0.48169809826E+02  0.21780256430E+02  0.35598249973E+02  0.63733394308E+02  0.00000000000E+00 0.  1.
<mgrwt>
<rscale>  0 0.17125246E+04</rscale>
<asrwt>0</asrwt>
<pdfrwt beam="1">  1        2 0.96379606E-01 0.17125246E+04</pdfrwt>
<pdfrwt beam="2">  1       -2 0.18005360E+00 0.17125246E+04</pdfrwt>
<totfact> 0.80968596E+00</totfact>
</mgrwt>
</event>
<event>
12    1  0.1201209E-007  0.1659385E+04  0.7818608E-02  0.8784874E-01
          2   -1    0    0  501    0  0.00000000000E+00  0.00000000000E+00  0.13053986266E+04  0.13053986266E+04  0.00000000000E+00 0. -1.
         -2   -1    0    0    0  501 -0.00000000000E+00 -0.00000000000E+00 -0.52734056562E+03  0.52734056562E+03  0.00000000000E+00 0.  1.
         23    2    1    2    0    0  0.53808154533E+03  0.14984927270E+03  0.10214431301E+03  0.57427694553E+03  0.85871971744E+02 0.  0.
        254    2    1    2    0    0 -0.53808154533E+03 -0.14984927270E+03  0.67591374796E+03  0.12584622467E+04  0.90270774765E+03 0.  0.
        -24    2    4    4    0    0 -0.43411394567E+03 -0.13685703548E+02  0.87673443050E+03  0.98256803680E+03  0.90191291230E+02 0.  0.
         24    2    4    4    0    0 -0.10396759966E+03 -0.13616356915E+03 -0.20082068254E+03  0.27589420987E+03  0.80242689146E+02 0.  0.
         11    1    3    3    0    0  0.18891352008E+03  0.26856449401E+02  0.21974383013E+01  0.19082561588E+03  0.00000000000E+00 0. -1.
        -11    1    3    3    0    0  0.34916802526E+03  0.12299282330E+03  0.99946874705E+02  0.38345132965E+03  0.00000000000E+00 0.  1.
          2    1    6    6  502    0 -0.63325428792E+02 -0.56065506312E+02 -0.44410047862E+02  0.95528546942E+02  0.00000000000E+00 0. -1.
          3    1    5    5  503    0 -0.15025053474E+03  0.37850507394E+02  0.31847135308E+03  0.35416364414E+03  0.00000000000E+00 0. -1.
         -4    1    5    5    0  503 -0.28386341094E+03 -0.51536210942E+02  0.55826307742E+03  0.62840439266E+03  0.00000000000E+00 0.  1.
         -1    1    6    6    0  502 -0.40642170867E+02 -0.80098062843E+02 -0.15641063468E+03  0.18036566293E+03  0.00000000000E+00 0.  1.
<mgrwt>
<rscale>  0 0.16593850E+04</rscale>
<asrwt>0</asrwt>
<pdfrwt beam="1">  1        2 0.20083056E+00 0.16593850E+04</pdfrwt>
<pdfrwt beam="2">  1       -2 0.81129318E-01 0.16593850E+04</pdfrwt>
<totfact> 0.20983347E+01</totfact>
</mgrwt>
</event>
<event>
12    1  0.1201209E-007  0.2795569E+04  0.7818608E-02  0.8304645E-01
          2   -1    0    0  501    0  0.00000000000E+00  0.00000000000E+00  0.37585755735E+04  0.37585755735E+04  0.00000000000E+00 0. -1.
         -2   -1    0    0    0  501 -0.00000000000E+00 -0.00000000000E+00 -0.51982481932E+03  0.51982481932E+03  0.00000000000E+00 0.  1.
         23    2    1    2    0    0 -0.11082779545E+04 -0.31516024552E+03  0.70902705578E+03  0.13563156859E+04  0.96264578706E+02 0.  0.
        254    2    1    2    0    0  0.11082779545E+04  0.31516024552E+03  0.25297236984E+04  0.29220847069E+04  0.90081687340E+03 0.  0.
        -24    2    4    4    0    0  0.91294798717E+03  0.81367808439E+02  0.99380444270E+03  0.13542877747E+04  0.79707960244E+02 0.  0.
         24    2    4    4    0    0  0.19532996735E+03  0.23379243709E+03  0.15359192557E+04  0.15677969322E+04  0.78272350297E+02 0.  0.
         11    1    3    3    0    0 -0.10378772886E+04 -0.29589227141E+03  0.63417070060E+03  0.12517643468E+04  0.00000000000E+00 0.  1.
        -11    1    3    3    0    0 -0.70400665898E+02 -0.19267974119E+02  0.74856355181E+02  0.10455133905E+03  0.00000000000E+00 0. -1.
          2    1    6    6  502    0  0.91757190401E+02  0.56241324011E+02  0.59940919281E+03  0.60899412882E+03  0.00000000000E+00 0. -1.
          1    1    5    5  503    0  0.50158119737E+03  0.64826494115E+02  0.49720791050E+03  0.70922625315E+03  0.00000000000E+00 0. -1.
         -2    1    5    5    0  503  0.41136678981E+03  0.16541314323E+02  0.49659653220E+03  0.64506152159E+03  0.00000000000E+00 0.  1.
         -1    1    6    6    0  502  0.10357277695E+03  0.17755111307E+03  0.93651006285E+03  0.95880280334E+03  0.00000000000E+00 0.  1.
<mgrwt>
<rscale>  0 0.27955685E+04</rscale>
<asrwt>0</asrwt>
<pdfrwt beam="1">  1        2 0.57824238E+00 0.27955685E+04</pdfrwt>
<pdfrwt beam="2">  1       -2 0.79973051E-01 0.27955685E+04</pdfrwt>
<totfact> 0.63578483E-01</totfact>
</mgrwt>
</event>
<event>
12    1  0.1201209E-007  0.2027748E+04  0.7818608E-02  0.8593756E-01
         -1   -1    0    0    0  501 -0.00000000000E+00  0.00000000000E+00  0.37492350680E+03  0.37492350680E+03  0.00000000000E+00 0.  1.
          1   -1    0    0  501    0  0.00000000000E+00 -0.00000000000E+00 -0.27417346055E+04  0.27417346055E+04  0.00000000000E+00 0. -1.
         23    2    1    2    0    0  0.60756473370E+03 -0.40697155873E+03 -0.41233214217E+03  0.84372821841E+03  0.84254114576E+02 0.  0.
        254    2    1    2    0    0 -0.60756473370E+03  0.40697155873E+03 -0.19544789565E+04  0.22729298939E+04  0.90081160950E+03 0.  0.
        -24    2    4    4    0    0 -0.40835476554E+03 -0.18970627595E+03 -0.12188680310E+04  0.13017189718E+04  0.78044338926E+02 0.  0.
         24    2    4    4    0    0 -0.19920996816E+03  0.59667783468E+03 -0.73561092552E+03  0.97121092211E+03  0.80113492372E+02 0.  0.
         13    1    3    3    0    0  0.56203601318E+03 -0.39194659304E+03 -0.36500599976E+03  0.77636073559E+03  0.00000000000E+00 0.  1.
        -13    1    3    3    0    0  0.45528720524E+02 -0.15024965697E+02 -0.47326142409E+02  0.67367482824E+02  0.00000000000E+00 0. -1.
          4    1    6    6  502    0 -0.66611533789E+01  0.10447710633E+03 -0.14181371181E+03  0.17626958209E+03  0.00000000000E+00 0. -1.
          1    1    5    5  503    0 -0.16739415996E+03 -0.62336553421E+02 -0.38455528354E+03  0.42401582138E+03  0.00000000000E+00 0. -1.
         -2    1    5    5    0  503 -0.24096060557E+03 -0.12736972253E+03 -0.83431274745E+03  0.87770315040E+03  0.00000000000E+00 0.  1.
         -3    1    6    6    0  502 -0.19254881478E+03  0.49220072835E+03 -0.59379721371E+03  0.79494134002E+03  0.00000000000E+00 0.  1.
<mgrwt>
<rscale>  0 0.20277483E+04</rscale>
<asrwt>0</asrwt>
<pdfrwt beam="1">  1        1 0.42180532E+00 0.20277483E+04</pdfrwt>
<pdfrwt beam="2">  1       -1 0.57680541E-01 0.20277483E+04</pdfrwt>
<totfact> 0.25856219E+00</totfact>
</mgrwt>
</event>
<event>
12    1  0.1201209E-007  0.2520722E+04  0.7818608E-02  0.8395640E-01
          1   -1    0    0  501    0  0.00000000000E+00  0.00000000000E+00  0.11021335853E+04  0.11021335853E+04  0.00000000000E+00 0. -1.
         -1   -1    0    0    0  501 -0.00000000000E+00 -0.00000000000E+00 -0.14413047063E+04  0.14413047063E+04  0.00000000000E+00 0.  1.
         23    2    1    2    0    0 -0.19185586793E+03  0.10176509529E+04 -0.51482857315E+03  0.11600915975E+04  0.91334105116E+02 0.  0.
        254    2    1    2    0    0  0.19185586793E+03 -0.10176509529E+04  0.17565745206E+03  0.13833466941E+04  0.90020575401E+03 0.  0.
        -24    2    4    4    0    0 -0.34747246962E+03 -0.53609625841E+03  0.56361200735E+02  0.64619736340E+03  0.79108356687E+02 0.  0.
         24    2    4    4    0    0  0.53932833755E+03 -0.48155469454E+03  0.11929625133E+03  0.73714933072E+03  0.79922216425E+02 0.  0.
         11    1    3    3    0    0 -0.89911585521E+02  0.49232056891E+03 -0.29969545651E+03  0.58333609732E+03  0.00000000000E+00 0. -1.
        -11    1    3    3    0    0 -0.10194428241E+03  0.52533038404E+03 -0.21513311663E+03  0.57675550018E+03  0.00000000000E+00 0.  1.
          2    1    6    6  502    0  0.70663748579E+02 -0.63564467085E+02  0.43772556813E+02  0.10464150022E+03  0.00000000000E+00 0. -1.
          3    1    5    5  503    0  0.20156919093E+01 -0.92315402478E+01  0.75138907325E+01  0.12072402543E+02  0.00000000000E+00 0. -1.
         -4    1    5    5    0  503 -0.34948816152E+03 -0.52686471816E+03  0.48847310003E+02  0.63412496086E+03  0.00000000000E+00 0.  1.
         -3    1    6    6    0  502  0.46866458897E+03 -0.41799022746E+03  0.75523694512E+02  0.63250783049E+03  0.00000000000E+00 0.  1.
<mgrwt>
<rscale>  0 0.25207224E+04</rscale>
<asrwt>0</asrwt>
<pdfrwt beam="1">  1        1 0.16955901E+00 0.25207224E+04</pdfrwt>
<pdfrwt beam="2">  1       -1 0.22173918E+00 0.25207224E+04</pdfrwt>
<totfact> 0.12001441E+00</totfact>
</mgrwt>
</event>
<event>
12    1  0.1201209E-007  0.1734861E+04  0.7818608E-02  0.8741728E-01
         -2   -1    0    0    0  501 -0.00000000000E+00  0.00000000000E+00  0.57551181378E+03  0.57551181378E+03  0.00000000000E+00 0.  1.
          2   -1    0    0  501    0  0.00000000000E+00 -0.00000000000E+00 -0.13074198251E+04  0.13074198251E+04  0.00000000000E+00 0. -1.
         23    2    1    2    0    0  0.43630313658E+03  0.81895181051E+02 -0.73655145211E+03  0.86500548582E+03  0.93054829122E+02 0.  0.
        254    2    1    2    0    0 -0.43630313658E+03 -0.81895181051E+02  0.46434408253E+01  0.10179261530E+04  0.91601574430E+03 0.  0.
        -24    2    4    4    0    0 -0.22961490591E+03 -0.35228523022E+03 -0.32496009602E+03  0.53749555128E+03  0.80464372205E+02 0.  0.
         24    2    4    4    0    0 -0.20668823066E+03  0.27039004917E+03  0.32960353684E+03  0.48043060174E+03  0.79650914615E+02 0.  0.
         13    1    3    3    0    0  0.53923690712E+02 -0.13153030680E+02 -0.57491216973E+02  0.79912493799E+02  0.00000000000E+00 0.  1.
        -13    1    3    3    0    0  0.38237944587E+03  0.95048211731E+02 -0.67906023513E+03  0.78509299202E+03  0.00000000000E+00 0. -1.
          2    1    6    6  502    0 -0.15372405447E+03  0.19722733224E+03  0.18956395162E+03  0.31379005284E+03  0.00000000000E+00 0. -1.
          3    1    5    5  503    0 -0.10372575430E+03 -0.19297858266E+03 -0.12365711712E+03  0.25157672405E+03  0.00000000000E+00 0. -1.
         -2    1    5    5    0  503 -0.12588915162E+03 -0.15930664756E+03 -0.20130297890E+03  0.28591882723E+03  0.00000000000E+00 0.  1.
         -1    1    6    6    0  502 -0.52964176198E+02  0.73162716934E+02  0.14003958522E+03  0.16664054890E+03  0.00000000000E+00 0.  1.
<mgrwt>
<rscale>  0 0.17348609E+04</rscale>
<asrwt>0</asrwt>
<pdfrwt beam="1">  1        2 0.20114151E+00 0.17348609E+04</pdfrwt>
<pdfrwt beam="2">  1       -2 0.88540280E-01 0.17348609E+04</pdfrwt>
<totfact> 0.17046782E+01</totfact>
</mgrwt>
</event>
<event>
12    1  0.1546073E-007  0.2879787E+04  0.7818608E-02  0.8278917E-01
         -2   -1    0    0    0  501 -0.00000000000E+00  0.00000000000E+00  0.13907061839E+04  0.13907061839E+04  0.00000000000E+00 0.  1.
          2   -1    0    0  501    0  0.00000000000E+00 -0.00000000000E+00 -0.14908199881E+04  0.14908199881E+04  0.00000000000E+00 0. -1.
         23    2    1    2    0    0 -0.93573947239E+03  0.72170113246E+03  0.49091874796E+03  0.12834665240E+04  0.99117184376E+02 0.  0.
        254    2    1    2    0    0  0.93573947239E+03 -0.72170113246E+03 -0.59103255220E+03  0.15980596480E+04  0.89889614312E+03 0.  0.
        -24    2    4    4    0    0  0.58491563295E+03 -0.80184354777E+03 -0.69558298801E+03  0.12147606173E+04  0.82026162747E+02 0.  0.
         24    2    4    4    0    0  0.35082383944E+03  0.80142415318E+02  0.10455043582E+03  0.38329903072E+03  0.80543033633E+02 0.  0.
         13    1    3    3    0    0 -0.81233648410E+03  0.60477710786E+03  0.38666235368E+03  0.10840450587E+04  0.00000000000E+00 0.  1.
        -13    1    3    3    0    0 -0.12340298829E+03  0.11692402460E+03  0.10425639428E+03  0.19942146523E+03  0.00000000000E+00 0. -1.
          4    1    6    6  502    0  0.50975894869E+02 -0.14025190913E+02  0.27986478086E+02  0.59820488075E+02  0.00000000000E+00 0. -1.
          1    1    5    5  503    0  0.33741297789E+02 -0.58130296750E+02 -0.72737195813E+02  0.99036893285E+02  0.00000000000E+00 0. -1.
         -2    1    5    5    0  503  0.55117433516E+03 -0.74371325102E+03 -0.62284579220E+03  0.11157237240E+04  0.00000000000E+00 0.  1.
         -3    1    6    6    0  502  0.29984794457E+03  0.94167606230E+02  0.76563957734E+02  0.32347854264E+03  0.00000000000E+00 0.  1.
<mgrwt>
<rscale>  0 0.28797865E+04</rscale>
<asrwt>0</asrwt>
<pdfrwt beam="1">  1        2 0.22935692E+00 0.28797865E+04</pdfrwt>
<pdfrwt beam="2">  1       -2 0.21395480E+00 0.28797865E+04</pdfrwt>
<totfact> 0.11995233E+00</totfact>
</mgrwt>
</event>
<event>
12    1  0.1201209E-007  0.1501051E+04  0.7818608E-02  0.8883754E-01
         -2   -1    0    0    0  501 -0.00000000000E+00  0.00000000000E+00  0.74853260979E+03  0.74853260979E+03  0.00000000000E+00 0.  1.
          2   -1    0    0  501    0  0.00000000000E+00 -0.00000000000E+00 -0.75252373836E+03  0.75252373836E+03  0.00000000000E+00 0. -1.
         23    2    1    2    0    0 -0.43456870914E+03 -0.17040683217E+03 -0.89843468147E+02  0.48510001152E+03  0.96755986874E+02 0.  0.
        254    2    1    2    0    0  0.43456870914E+03  0.17040683217E+03  0.85852339581E+02  0.10159563366E+04  0.89828069238E+03 0.  0.
        -24    2    4    4    0    0  0.39364905111E+03  0.51441936595E+03  0.65977669954E+01  0.65211862098E+03  0.75022035368E+02 0.  0.
         24    2    4    4    0    0  0.40919658035E+02 -0.34401253379E+03  0.79254572586E+02  0.36383771565E+03  0.77958670051E+02 0.  0.
         11    1    3    3    0    0 -0.33165844835E+02 -0.21293899095E+02 -0.36261164593E+02  0.53556283104E+02  0.00000000000E+00 0.  1.
        -11    1    3    3    0    0 -0.40140286431E+03 -0.14911293307E+03 -0.53582303554E+02  0.43154372842E+03  0.00000000000E+00 0. -1.
          4    1    6    6  502    0  0.63358956277E+02 -0.28514857602E+03  0.64721444219E+02  0.29918712052E+03  0.00000000000E+00 0. -1.
          1    1    5    5  503    0  0.28722621638E+03  0.40811939789E+03  0.29674744465E+02  0.49994092928E+03  0.00000000000E+00 0. -1.
         -2    1    5    5    0  503  0.10642283472E+03  0.10629996807E+03 -0.23076977469E+02  0.15217769170E+03  0.00000000000E+00 0.  1.
         -3    1    6    6    0  502 -0.22439298242E+02 -0.58863957768E+02  0.14533128367E+02  0.64650595123E+02  0.00000000000E+00 0.  1.
<mgrwt>
<rscale>  0 0.15010510E+04</rscale>
<asrwt>0</asrwt>
<pdfrwt beam="1">  1        2 0.11577288E+00 0.15010510E+04</pdfrwt>
<pdfrwt beam="2">  1       -2 0.11515886E+00 0.15010510E+04</pdfrwt>
<totfact> 0.21197638E+01</totfact>
</mgrwt>
</event>
<event>
12    1  0.1201209E-007  0.3482886E+04  0.7818608E-02  0.8117858E-01
         -2   -1    0    0    0  501 -0.00000000000E+00  0.00000000000E+00  0.19637104448E+04  0.19637104448E+04  0.00000000000E+00 0.  1.
          2   -1    0    0  501    0  0.00000000000E+00 -0.00000000000E+00 -0.15443336571E+04  0.15443336571E+04  0.00000000000E+00 0. -1.
         23    2    1    2    0    0  0.86889233626E+03  0.45993759709E+03  0.14979596659E+04  0.17939607053E+04  0.88855872427E+02 0.  0.
        254    2    1    2    0    0 -0.86889233626E+03 -0.45993759709E+03 -0.10785828783E+04  0.17140833966E+04  0.89901300320E+03 0.  0.
        -24    2    4    4    0    0 -0.78364187517E+03 -0.70612825554E+03 -0.86604367378E+03  0.13671436710E+04  0.79614512214E+02 0.  0.
         24    2    4    4    0    0 -0.85250461089E+02  0.24619065845E+03 -0.21253920448E+03  0.34693972554E+03  0.85538168635E+02 0.  0.
         13    1    3    3    0    0  0.21864061733E+03  0.83966180248E+02  0.40352660972E+03  0.46657021307E+03  0.00000000000E+00 0. -1.
        -13    1    3    3    0    0  0.65025171893E+03  0.37597141684E+03  0.10944330562E+04  0.13273904922E+04  0.00000000000E+00 0.  1.
          4    1    6    6  502    0 -0.72942762290E+02  0.17472456669E+03 -0.19608602420E+03  0.27257852018E+03  0.00000000000E+00 0. -1.
          3    1    5    5  503    0 -0.51990541631E+03 -0.44594421929E+03 -0.51736248442E+03  0.85838908946E+03  0.00000000000E+00 0. -1.
         -4    1    5    5    0  503 -0.26373645886E+03 -0.26018403626E+03 -0.34868118936E+03  0.50875458157E+03  0.00000000000E+00 0.  1.
         -3    1    6    6    0  502 -0.12307698799E+02  0.71466091767E+02 -0.16453180276E+02  0.74361205365E+02  0.00000000000E+00 0.  1.
<mgrwt>
<rscale>  0 0.34828862E+04</rscale>
<asrwt>0</asrwt>
<pdfrwt beam="1">  1        2 0.23758979E+00 0.34828862E+04</pdfrwt>
<pdfrwt beam="2">  1       -2 0.30210930E+00 0.34828862E+04</pdfrwt>
<totfact> 0.30419777E-01</totfact>
</mgrwt>
</event>
<event>
12    1  0.1201209E-007  0.3915204E+04  0.7818608E-02  0.8021875E-01
         -2   -1    0    0    0  501 -0.00000000000E+00  0.00000000000E+00  0.14799118323E+04  0.14799118323E+04  0.00000000000E+00 0.  1.
          2   -1    0    0  501    0  0.00000000000E+00 -0.00000000000E+00 -0.25894818431E+04  0.25894818431E+04  0.00000000000E+00 0. -1.
         23    2    1    2    0    0 -0.12290741961E+04 -0.95229411602E+02 -0.19645505133E+04  0.23211001077E+04  0.91405526244E+02 0.  0.
        254    2    1    2    0    0  0.12290741961E+04  0.95229411602E+02  0.85498050248E+03  0.17482935677E+04  0.89768965630E+03 0.  0.
        -24    2    4    4    0    0  0.10115652709E+04  0.43869945164E+03  0.67800408386E+03  0.12967151279E+04  0.77840086452E+02 0.  0.
         24    2    4    4    0    0  0.21750892519E+03 -0.34347004004E+03  0.17697641862E+03  0.45157843982E+03  0.85560701403E+02 0.  0.
         11    1    3    3    0    0 -0.79869336758E+03 -0.46455964745E+02 -0.13498198425E+04  0.15691025650E+04  0.00000000000E+00 0. -1.
        -11    1    3    3    0    0 -0.43038082851E+03 -0.48773446856E+02 -0.61473067076E+03  0.75199754271E+03  0.00000000000E+00 0.  1.
          4    1    6    6  502    0  0.13887733938E+02 -0.65019184679E+02  0.52972798785E+02  0.85008710974E+02  0.00000000000E+00 0. -1.
          1    1    5    5  503    0  0.61022965455E+03  0.26211484337E+03  0.45265790050E+03  0.80373104786E+03  0.00000000000E+00 0. -1.
         -2    1    5    5    0  503  0.40133561635E+03  0.17658460827E+03  0.22534618336E+03  0.49298408006E+03  0.00000000000E+00 0.  1.
         -3    1    6    6    0  502  0.20362119125E+03 -0.27845085536E+03  0.12400361983E+03  0.36656972885E+03  0.00000000000E+00 0.  1.
<mgrwt>
<rscale>  0 0.39152036E+04</rscale>
<asrwt>0</asrwt>
<pdfrwt beam="1">  1        2 0.39838182E+00 0.39152036E+04</pdfrwt>
<pdfrwt beam="2">  1       -2 0.22767875E+00 0.39152036E+04</pdfrwt>
<totfact> 0.21675610E-01</totfact>
</mgrwt>
</event>
<event>
12    1  0.1201209E-007  0.2077105E+04  0.7818608E-02  0.8571396E-01
          1   -1    0    0  501    0  0.00000000000E+00  0.00000000000E+00  0.70837551422E+03  0.70837551422E+03  0.00000000000E+00 0. -1.
         -1   -1    0    0    0  501 -0.00000000000E+00 -0.00000000000E+00 -0.15226261248E+04  0.15226261248E+04  0.00000000000E+00 0.  1.
         23    2    1    2    0    0  0.58841887330E+03  0.14198036895E+03  0.28848842953E+03  0.67700263186E+03  0.93336991291E+02 0.  0.
        254    2    1    2    0    0 -0.58841887330E+03 -0.14198036895E+03 -0.11027390401E+04  0.15539990072E+04  0.91240579134E+03 0.  0.
        -24    2    4    4    0    0  0.61851498713E+02 -0.28840606773E+03 -0.71788782426E+03  0.78014803062E+03  0.79147670006E+02 0.  0.
         24    2    4    4    0    0 -0.65027037202E+03  0.14642569878E+03 -0.38485121587E+03  0.77385097656E+03  0.80267263469E+02 0.  0.
         11    1    3    3    0    0  0.14459720212E+03  0.66239065335E+01  0.37771903485E+02  0.14959593474E+03  0.00000000000E+00 0.  1.
        -11    1    3    3    0    0  0.44382167118E+03  0.13535646242E+03  0.25071652604E+03  0.52740669711E+03  0.00000000000E+00 0. -1.
          4    1    6    6  502    0 -0.63080907417E+03  0.15199001491E+03 -0.36083946368E+03  0.74244607295E+03  0.00000000000E+00 0. -1.
          3    1    5    5  503    0  0.51546400913E+02 -0.27827997206E+03 -0.62433168444E+03  0.68548291481E+03  0.00000000000E+00 0. -1.
         -4    1    5    5    0  503  0.10305097800E+02 -0.10126095667E+02 -0.93556139820E+02  0.94665115814E+02  0.00000000000E+00 0.  1.
         -3    1    6    6    0  502 -0.19461297844E+02 -0.55643161296E+01 -0.24011752185E+02  0.31404903610E+02  0.00000000000E+00 0.  1.
<mgrwt>
<rscale>  0 0.20771048E+04</rscale>
<asrwt>0</asrwt>
<pdfrwt beam="1">  1        1 0.10898085E+00 0.20771048E+04</pdfrwt>
<pdfrwt beam="2">  1       -1 0.23425017E+00 0.20771048E+04</pdfrwt>
<totfact> 0.21808451E+00</totfact>
</mgrwt>
</event>
<event>
12    1  0.1201209E-007  0.1513249E+04  0.7818608E-02  0.8875690E-01
         -2   -1    0    0    0  501 -0.00000000000E+00  0.00000000000E+00  0.29498071686E+03  0.29498071686E+03  0.00000000000E+00 0.  1.
          2   -1    0    0  501    0  0.00000000000E+00 -0.00000000000E+00 -0.19407381491E+04  0.19407381491E+04  0.00000000000E+00 0. -1.
         23    2    1    2    0    0  0.33322104136E+03 -0.29426987921E+03 -0.41498460402E+03  0.61477593214E+03  0.90034443180E+02 0.  0.
        254    2    1    2    0    0 -0.33322104136E+03  0.29426987921E+03 -0.12307728283E+04  0.16209429338E+04  0.95656845849E+03 0.  0.
        -24    2    4    4    0    0 -0.25364730913E+03  0.56066071628E+03 -0.11703337666E+04  0.13245231447E+04  0.77479282380E+02 0.  0.
         24    2    4    4    0    0 -0.79573732228E+02 -0.26639083706E+03 -0.60439061615E+02  0.29641978918E+03  0.83161014398E+02 0.  0.
         11    1    3    3    0    0  0.16641400401E+03 -0.16069413470E+03 -0.27475979758E+03  0.35917846820E+03  0.00000000000E+00 0. -1.
        -11    1    3    3    0    0  0.16680703735E+03 -0.13357574452E+03 -0.14022480644E+03  0.25559746394E+03  0.00000000000E+00 0.  1.
          4    1    6    6  502    0 -0.43514742219E+02 -0.21502101979E+03 -0.75261846027E+02  0.23193084574E+03  0.00000000000E+00 0. -1.
          3    1    5    5  503    0 -0.24061300473E+03  0.46835448320E+03 -0.10119060117E+04  0.11407034306E+04  0.00000000000E+00 0. -1.
         -4    1    5    5    0  503 -0.13034304396E+02  0.92306233075E+02 -0.15842775493E+03  0.18381971409E+03  0.00000000000E+00 0.  1.
         -3    1    6    6    0  502 -0.36058990008E+02 -0.51369817279E+02  0.14822784412E+02  0.64488943435E+02  0.00000000000E+00 0.  1.
<mgrwt>
<rscale>  0 0.15132486E+04</rscale>
<asrwt>0</asrwt>
<pdfrwt beam="1">  1        2 0.29857511E+00 0.15132486E+04</pdfrwt>
<pdfrwt beam="2">  1       -2 0.45381647E-01 0.15132486E+04</pdfrwt>
<totfact> 0.32042266E+01</totfact>
</mgrwt>
</event>
<event>
12    1  0.1201209E-007  0.1400385E+04  0.7818608E-02  0.8953540E-01
          2   -1    0    0  501    0  0.00000000000E+00  0.00000000000E+00  0.21612859328E+04  0.21612859328E+04  0.00000000000E+00 0. -1.
         -2   -1    0    0    0  501 -0.00000000000E+00 -0.00000000000E+00 -0.22684155508E+03  0.22684155508E+03  0.00000000000E+00 0.  1.
         23    2    1    2    0    0 -0.30703420989E+03 -0.36062190819E+02  0.91215166736E+03  0.96750568590E+03  0.92065739170E+02 0.  0.
        254    2    1    2    0    0  0.30703420989E+03  0.36062190819E+02  0.10222927104E+04  0.14206218020E+04  0.93675686867E+03 0.  0.
        -24    2    4    4    0    0  0.22328054658E+03 -0.48006135440E+02  0.11820963232E+04  0.12067177482E+04  0.81591758063E+02 0.  0.
         24    2    4    4    0    0  0.83753663317E+02  0.84068326259E+02 -0.15980361282E+03  0.21390405381E+03  0.78330006807E+02 0.  0.
         13    1    3    3    0    0 -0.26978663306E+03 -0.57161517198E+02  0.83379574049E+03  0.87821842573E+03  0.00000000000E+00 0. -1.
        -13    1    3    3    0    0 -0.37247576830E+02  0.21099326379E+02  0.78355926869E+02  0.89287260172E+02  0.00000000000E+00 0.  1.
          4    1    6    6  502    0  0.41542513170E+02  0.75866103010E+02 -0.14421528544E+03  0.16816508122E+03  0.00000000000E+00 0. -1.
          3    1    5    5  503    0  0.92638457245E+02  0.14470005396E+02  0.57462574851E+03  0.58222505586E+03  0.00000000000E+00 0. -1.
         -4    1    5    5    0  503  0.13064208933E+03 -0.62476140835E+02  0.60747057471E+03  0.62449269236E+03  0.00000000000E+00 0.  1.
         -3    1    6    6    0  502  0.42211150147E+02  0.82022232487E+01 -0.15588327375E+02  0.45738972587E+02  0.00000000000E+00 0.  1.
<mgrwt>
<rscale>  0 0.14003849E+04</rscale>
<asrwt>0</asrwt>
<pdfrwt beam="1">  1        2 0.33250551E+00 0.14003849E+04</pdfrwt>
<pdfrwt beam="2">  1       -2 0.34898702E-01 0.14003849E+04</pdfrwt>
<totfact> 0.40760236E+01</totfact>
</mgrwt>
</event>
<event>
12    1  0.1201209E-007  0.2948718E+04  0.7818608E-02  0.8258528E-01
         -2   -1    0    0    0  501 -0.00000000000E+00  0.00000000000E+00  0.10170209359E+04  0.10170209359E+04  0.00000000000E+00 0. -1.
          2   -1    0    0  501    0  0.00000000000E+00 -0.00000000000E+00 -0.21373552564E+04  0.21373552564E+04  0.00000000000E+00 0.  1.
         23    2    1    2    0    0 -0.81815353531E+02  0.37554751366E+03 -0.18819015192E+04  0.19229196900E+04  0.91307824829E+02 0.  0.
        254    2    1    2    0    0  0.81815353531E+02 -0.37554751366E+03  0.76156719863E+03  0.12314565023E+04  0.88812771156E+03 0.  0.
        -24    2    4    4    0    0  0.18633767910E+03 -0.42342825909E+03  0.13011977747E+02  0.46991112015E+03  0.81448928929E+02 0.  0.
         24    2    4    4    0    0 -0.10452232556E+03  0.47880745439E+02  0.74855522088E+03  0.76154538219E+03  0.79993550345E+02 0.  0.
         13    1    3    3    0    0 -0.94319752139E+02  0.22655547064E+03 -0.11451478614E+04  0.11711478221E+04  0.00000000000E+00 0.  1.
        -13    1    3    3    0    0  0.12504398607E+02  0.14899204301E+03 -0.73675365787E+03  0.75177186783E+03  0.00000000000E+00 0. -1.
          2    1    6    6  502    0 -0.17507773464E+02 -0.61917723184E+01  0.27097178857E+02  0.32849920519E+02  0.00000000000E+00 0. -1.
          3    1    5    5  503    0 -0.29052713766E+01 -0.55451137672E+02 -0.48478495020E+01  0.55738415081E+02  0.00000000000E+00 0. -1.
         -4    1    5    5    0  503  0.18924295047E+03 -0.36797712142E+03  0.17859827249E+02  0.41417270507E+03  0.00000000000E+00 0.  1.
         -1    1    6    6    0  502 -0.87014552100E+02  0.54072517758E+02  0.72145804203E+03  0.72869546167E+03  0.00000000000E+00 0.  1.
<mgrwt>
<rscale>  0 0.29487184E+04</rscale>
<asrwt>0</asrwt>
<pdfrwt beam="1">  1        2 0.32882388E+00 0.29487184E+04</pdfrwt>
<pdfrwt beam="2">  1       -2 0.15646476E+00 0.29487184E+04</pdfrwt>
<totfact> 0.12883435E+00</totfact>
</mgrwt>
</event>
<event>
12    1  0.1201209E-007  0.1661551E+04  0.7818608E-02  0.8783602E-01
         -1   -1    0    0    0  501 -0.00000000000E+00  0.00000000000E+00  0.35473474208E+03  0.35473474208E+03  0.00000000000E+00 0. -1.
          1   -1    0    0  501    0  0.00000000000E+00 -0.00000000000E+00 -0.19456456713E+04  0.19456456713E+04  0.00000000000E+00 0.  1.
         23    2    1    2    0    0 -0.18884908693E+02 -0.23990255089E+03  0.16982154352E+03  0.30835730031E+03  0.91296190017E+02 0.  0.
        254    2    1    2    0    0  0.18884908693E+02  0.23990255089E+03 -0.17607324728E+04  0.19920231131E+04  0.90003742631E+03 0.  0.
        -24    2    4    4    0    0 -0.17473907381E+03  0.22709661745E+03 -0.93730638692E+02  0.31182405309E+03  0.79637867130E+02 0.  0.
         24    2    4    4    0    0  0.19362398250E+03  0.12805933439E+02 -0.16670018341E+04  0.16801990600E+04  0.80743593653E+02 0.  0.
         11    1    3    3    0    0 -0.38376347855E+02 -0.21372495369E+03  0.16991302815E+03  0.27572003380E+03  0.00000000000E+00 0. -1.
        -11    1    3    3    0    0  0.19491439162E+02 -0.26177597201E+02 -0.91484629060E-01  0.32637266511E+02  0.00000000000E+00 0.  1.
          2    1    6    6  502    0  0.71980900703E+02  0.43646434908E+02 -0.72706610029E+03  0.73192306667E+03  0.00000000000E+00 0. -1.
          1    1    5    5  503    0 -0.15811451376E+03  0.16860594595E+03 -0.48858627050E+02  0.23625268233E+03  0.00000000000E+00 0. -1.
         -2    1    5    5    0  503 -0.16624560051E+02  0.58490671504E+02 -0.44872011641E+02  0.75571370761E+02  0.00000000000E+00 0.  1.
         -1    1    6    6    0  502  0.12164308180E+03 -0.30840501470E+02 -0.93993573378E+03  0.94827599332E+03  0.00000000000E+00 0.  1.
<mgrwt>
<rscale>  0 0.16615512E+04</rscale>
<asrwt>0</asrwt>
<pdfrwt beam="1">  1        1 0.29933011E+00 0.16615512E+04</pdfrwt>
<pdfrwt beam="2">  1       -1 0.54574575E-01 0.16615512E+04</pdfrwt>
<totfact> 0.10507586E+01</totfact>
</mgrwt>
</event>
<event>
12    1  0.1201209E-007  0.2023886E+04  0.7818608E-02  0.8595534E-01
         -2   -1    0    0    0  501 -0.00000000000E+00  0.00000000000E+00  0.29644691326E+03  0.29644691326E+03  0.00000000000E+00 0.  1.
          2   -1    0    0  501    0  0.00000000000E+00 -0.00000000000E+00 -0.34543413728E+04  0.34543413728E+04  0.00000000000E+00 0. -1.
         23    2    1    2    0    0  0.56056465977E+03 -0.36664034384E+03 -0.42565450915E+03  0.79882952943E+03  0.91043815873E+02 0.  0.
        254    2    1    2    0    0 -0.56056465977E+03  0.36664034384E+03 -0.27322399503E+04  0.29519587566E+04  0.89457670147E+03 0.  0.
        -24    2    4    4    0    0 -0.72416154691E+03  0.17408060425E+03 -0.24624783188E+04  0.25738417575E+04  0.78408668436E+02 0.  0.
         24    2    4    4    0    0  0.16359688714E+03  0.19255973959E+03 -0.26976163150E+03  0.37811699904E+03  0.79736643675E+02 0.  0.
         11    1    3    3    0    0  0.18521582555E+02  0.44708227751E+01 -0.11208155925E+02  0.22105656196E+02  0.00000000000E+00 0. -1.
        -11    1    3    3    0    0  0.54204307721E+03 -0.37111116661E+03 -0.41444635323E+03  0.77672387323E+03  0.00000000000E+00 0.  1.
          4    1    6    6  502    0  0.69475226698E+02  0.13811642244E+03 -0.13755849775E+03  0.20694273019E+03  0.00000000000E+00 0. -1.
          1    1    5    5  503    0 -0.56627822976E+03  0.15056282312E+03 -0.20286831355E+04  0.21116096849E+04  0.00000000000E+00 0. -1.
         -2    1    5    5    0  503 -0.15788331715E+03  0.23517781130E+02 -0.43379518338E+03  0.46223207265E+03  0.00000000000E+00 0.  1.
         -3    1    6    6    0  502  0.94121660443E+02  0.54443317143E+02 -0.13220313374E+03  0.17117426885E+03  0.00000000000E+00 0.  1.
<mgrwt>
<rscale>  0 0.20238862E+04</rscale>
<asrwt>0</asrwt>
<pdfrwt beam="1">  1        2 0.53143714E+00 0.20238862E+04</pdfrwt>
<pdfrwt beam="2">  1       -2 0.45607217E-01 0.20238862E+04</pdfrwt>
<totfact> 0.37165436E+00</totfact>
</mgrwt>
</event>
<event>
12    1  0.1201209E-007  0.1615764E+04  0.7818608E-02  0.8810922E-01
         -2   -1    0    0    0  501 -0.00000000000E+00  0.00000000000E+00  0.12810803702E+04  0.12810803702E+04  0.00000000000E+00 0.  1.
          2   -1    0    0  501    0  0.00000000000E+00 -0.00000000000E+00 -0.50947079314E+03  0.50947079314E+03  0.00000000000E+00 0. -1.
         23    2    1    2    0    0 -0.39184059870E+03  0.26499751626E+03  0.58640465311E+03  0.75900714456E+03  0.91971136149E+02 0.  0.
        254    2    1    2    0    0  0.39184059870E+03 -0.26499751626E+03  0.18520492394E+03  0.10315440188E+04  0.89778586557E+03 0.  0.
        -24    2    4    4    0    0  0.30331900980E+03 -0.38141219114E+03  0.48248641088E+03  0.69066996966E+03  0.82183873398E+02 0.  0.
         24    2    4    4    0    0  0.88521588900E+02  0.11641467487E+03 -0.29728148695E+03  0.34087404912E+03  0.80189691707E+02 0.  0.
         11    1    3    3    0    0 -0.16485355092E+02  0.46959306561E+00  0.33392984681E+01  0.16826715794E+02  0.00000000000E+00 0. -1.
        -11    1    3    3    0    0 -0.37535524361E+03  0.26452792320E+03  0.58306535464E+03  0.74218042876E+03  0.00000000000E+00 0.  1.
          4    1    6    6  502    0  0.45005879324E+02  0.32186874176E+01 -0.91389978966E+02  0.10192162370E+03  0.00000000000E+00 0. -1.
          3    1    5    5  503    0  0.36065542991E+02 -0.96420480626E+02  0.87623770262E+02  0.13518712065E+03  0.00000000000E+00 0. -1.
         -4    1    5    5    0  503  0.26725346681E+03 -0.28499171051E+03  0.39486264062E+03  0.55548284900E+03  0.00000000000E+00 0.  1.
         -3    1    6    6    0  502  0.43515709576E+02  0.11319598745E+03 -0.20589150798E+03  0.23895242542E+03  0.00000000000E+00 0.  1.
<mgrwt>
<rscale>  0 0.16157636E+04</rscale>
<asrwt>0</asrwt>
<pdfrwt beam="1">  1        2 0.78380122E-01 0.16157636E+04</pdfrwt>
<pdfrwt beam="2">  1       -2 0.19708929E+00 0.16157636E+04</pdfrwt>
<totfact> 0.80131954E+00</totfact>
</mgrwt>
</event>
<event>
12    1  0.1201209E-007  0.1958277E+04  0.7818608E-02  0.8626380E-01
          1   -1    0    0  501    0  0.00000000000E+00  0.00000000000E+00  0.95406047578E+03  0.95406047578E+03  0.00000000000E+00 0. -1.
         -1   -1    0    0    0  501 -0.00000000000E+00 -0.00000000000E+00 -0.10048761894E+04  0.10048761894E+04  0.00000000000E+00 0.  1.
         23    2    1    2    0    0  0.73096836528E+03 -0.10020637976E+03  0.23937925915E+03  0.78115866403E+03  0.92468151772E+02 0.  0.
        254    2    1    2    0    0 -0.73096836528E+03  0.10020637976E+03 -0.29019497272E+03  0.11777780011E+04  0.87097177227E+03 0.  0.
        -24    2    4    4    0    0 -0.23585805206E+03 -0.56404693185E+02  0.29572698077E+03  0.39099921968E+03  0.81335309070E+02 0.  0.
         24    2    4    4    0    0 -0.49511031322E+03  0.15661107295E+03 -0.58592195349E+03  0.78677878142E+03  0.77814297348E+02 0.  0.
         13    1    3    3    0    0  0.50713444372E+03 -0.41293597313E+02  0.12999584980E+03  0.52515657299E+03  0.00000000000E+00 0. -1.
        -13    1    3    3    0    0  0.22383392156E+03 -0.58912782449E+02  0.10938340935E+03  0.25600209104E+03  0.00000000000E+00 0.  1.
          4    1    6    6  502    0 -0.17969523906E+03  0.25324216536E+02 -0.23634020749E+03  0.29797380516E+03  0.00000000000E+00 0. -1.
          3    1    5    5  503    0 -0.26645237341E+02  0.17863786972E+02  0.23723239155E+02  0.39898316180E+02  0.00000000000E+00 0. -1.
         -4    1    5    5    0  503 -0.20921281472E+03 -0.74268480158E+02  0.27200374161E+03  0.35110090350E+03  0.00000000000E+00 0.  1.
         -3    1    6    6    0  502 -0.31541507416E+03  0.13128685641E+03 -0.34958174600E+03  0.48880497625E+03  0.00000000000E+00 0.  1.
<mgrwt>
<rscale>  0 0.19582775E+04</rscale>
<asrwt>0</asrwt>
<pdfrwt beam="1">  1        1 0.14677853E+00 0.19582775E+04</pdfrwt>
<pdfrwt beam="2">  1       -1 0.15459634E+00 0.19582775E+04</pdfrwt>
<totfact> 0.49230050E+00</totfact>
</mgrwt>
</event>
<event>
12    1  0.1201209E-007  0.2008135E+04  0.7818608E-02  0.8602827E-01
          2   -1    0    0  501    0  0.00000000000E+00  0.00000000000E+00  0.29049646297E+04  0.29049646297E+04  0.00000000000E+00 0. -1.
         -2   -1    0    0    0  501 -0.00000000000E+00 -0.00000000000E+00 -0.34704445313E+03  0.34704445313E+03  0.00000000000E+00 0.  1.
         23    2    1    2    0    0  0.74418230744E+02  0.77044230533E+03  0.70790696594E+03  0.10528819033E+04  0.91151582398E+02 0.  0.
        254    2    1    2    0    0 -0.74418230744E+02 -0.77044230533E+03  0.18500132106E+04  0.21991271795E+04  0.90249213475E+03 0.  0.
        -24    2    4    4    0    0  0.28990833750E+03 -0.31837511852E+03  0.13767062077E+04  0.14448199914E+04  0.82311997958E+02 0.  0.
         24    2    4    4    0    0 -0.36432656825E+03 -0.45206718681E+03  0.47330700291E+03  0.75430718810E+03  0.88663551050E+02 0.  0.
         11    1    3    3    0    0  0.48368492366E+02  0.65587907243E+03  0.63742074726E+03  0.91587230427E+03  0.00000000000E+00 0.  1.
        -11    1    3    3    0    0  0.26049738378E+02  0.11456323291E+03  0.70486218683E+02  0.13700959903E+03  0.00000000000E+00 0. -1.
          2    1    6    6  502    0 -0.26104256328E+03 -0.38081792219E+03  0.37928660580E+03  0.59751471868E+03  0.00000000000E+00 0. -1.
          3    1    5    5  503    0  0.29069145545E+03 -0.29776618170E+03  0.12801954535E+04  0.13461302390E+04  0.00000000000E+00 0. -1.
         -4    1    5    5    0  503 -0.78311794551E+00 -0.20608936823E+02  0.96510754243E+02  0.98689752433E+02  0.00000000000E+00 0.  1.
         -1    1    6    6    0  502 -0.10328400497E+03 -0.71249264624E+02  0.94020397111E+02  0.15679246941E+03  0.00000000000E+00 0.  1.
<mgrwt>
<rscale>  0 0.20081353E+04</rscale>
<asrwt>0</asrwt>
<pdfrwt beam="1">  1        2 0.44691762E+00 0.20081353E+04</pdfrwt>
<pdfrwt beam="2">  1       -2 0.53391456E-01 0.20081353E+04</pdfrwt>
<totfact> 0.61360887E+00</totfact>
</mgrwt>
</event>
<event>
12    1  0.1201209E-007  0.1473271E+04  0.7818608E-02  0.8902425E-01
          1   -1    0    0  501    0  0.00000000000E+00  0.00000000000E+00  0.15400094214E+04  0.15400094214E+04  0.00000000000E+00 0. -1.
         -1   -1    0    0    0  501 -0.00000000000E+00 -0.00000000000E+00 -0.35235607911E+03  0.35235607911E+03  0.00000000000E+00 0.  1.
         23    2    1    2    0    0 -0.29990523254E+03 -0.15304121257E+03  0.76020306859E+03  0.83939055288E+03  0.11533877719E+03 0.  0.
        254    2    1    2    0    0  0.29990523254E+03  0.15304121257E+03  0.42745027374E+03  0.10529749477E+04  0.90148640735E+03 0.  0.
        -24    2    4    4    0    0  0.22513532136E+03 -0.36286700525E+03  0.20039293088E+03  0.47869561512E+03  0.81448074046E+02 0.  0.
         24    2    4    4    0    0  0.74769911181E+02  0.51590821783E+03  0.22705734286E+03  0.57427933254E+03  0.80559828698E+02 0.  0.
         11    1    3    3    0    0 -0.29216881146E+03 -0.12772950919E+03  0.62523756863E+03  0.70185430050E+03  0.00000000000E+00 0. -1.
        -11    1    3    3    0    0 -0.77364210832E+01 -0.25311703385E+02  0.13496549996E+03  0.13753625238E+03  0.00000000000E+00 0.  1.
          4    1    6    6  502    0  0.51410492989E+02  0.26627951484E+03  0.15947583740E+03  0.31461144532E+03  0.00000000000E+00 0. -1.
          3    1    5    5  503    0  0.17475939705E+03 -0.32944574776E+03  0.15888750248E+03  0.40536475676E+03  0.00000000000E+00 0. -1.
         -4    1    5    5    0  503  0.50375924307E+02 -0.33421257493E+02  0.41505428395E+02  0.73330858365E+02  0.00000000000E+00 0.  1.
         -3    1    6    6    0  502  0.23359418192E+02  0.24962870299E+03  0.67581505457E+02  0.25966788722E+03  0.00000000000E+00 0.  1.
<mgrwt>
<rscale>  0 0.14732708E+04</rscale>
<asrwt>0</asrwt>
<pdfrwt beam="1">  1        1 0.23692452E+00 0.14732708E+04</pdfrwt>
<pdfrwt beam="2">  1       -1 0.54208629E-01 0.14732708E+04</pdfrwt>
<totfact> 0.20444776E+01</totfact>
</mgrwt>
</event>
<event>
12    1  0.1201209E-007  0.1395120E+04  0.7818608E-02  0.8957359E-01
         -1   -1    0    0    0  501 -0.00000000000E+00  0.00000000000E+00  0.44816367451E+03  0.44816367451E+03  0.00000000000E+00 0.  1.
          1   -1    0    0  501    0  0.00000000000E+00 -0.00000000000E+00 -0.10857411525E+04  0.10857411525E+04  0.00000000000E+00 0. -1.
         23    2    1    2    0    0  0.36303267103E+03  0.11867122450E+03 -0.32223443110E+03  0.50819743640E+03  0.92487977677E+02 0.  0.
        254    2    1    2    0    0 -0.36303267103E+03 -0.11867122450E+03 -0.31534304687E+03  0.10257073906E+04  0.89819754740E+03 0.  0.
        -24    2    4    4    0    0 -0.19551313115E+03  0.18340657570E+03  0.23974333182E+03  0.36716068018E+03  0.73937429349E+02 0.  0.
         24    2    4    4    0    0 -0.16751953987E+03 -0.30207780020E+03 -0.55508637869E+03  0.65854671041E+03  0.79051175671E+02 0.  0.
         11    1    3    3    0    0  0.31688690941E+03  0.10119048618E+03 -0.23269324913E+03  0.40595932806E+03  0.00000000000E+00 0. -1.
        -11    1    3    3    0    0  0.46145761620E+02  0.17480738317E+02 -0.89541181969E+02  0.10223810834E+03  0.00000000000E+00 0.  1.
          4    1    6    6  502    0 -0.13155178159E+03 -0.26575262649E+03 -0.51209306153E+03  0.59175132733E+03  0.00000000000E+00 0. -1.
          3    1    5    5  503    0 -0.13150294842E+03  0.99871159227E+02  0.10303664304E+03  0.19463767287E+03  0.00000000000E+00 0. -1.
         -4    1    5    5    0  503 -0.64010182732E+02  0.83535416474E+02  0.13670668877E+03  0.17252300732E+03  0.00000000000E+00 0.  1.
         -3    1    6    6    0  502 -0.35967758285E+02 -0.36325173708E+02 -0.42993317155E+02  0.66795383081E+02  0.00000000000E+00 0.  1.
<mgrwt>
<rscale>  0 0.13951197E+04</rscale>
<asrwt>0</asrwt>
<pdfrwt beam="1">  1        1 0.16703710E+00 0.13951197E+04</pdfrwt>
<pdfrwt beam="2">  1       -1 0.68948258E-01 0.13951197E+04</pdfrwt>
<totfact> 0.26986465E+01</totfact>
</mgrwt>
</event>
<event>
12    1  0.1201209E-007  0.1785976E+04  0.7818608E-02  0.8713793E-01
         -1   -1    0    0    0  501 -0.00000000000E+00  0.00000000000E+00  0.26615899944E+04  0.26615899944E+04  0.00000000000E+00 0.  1.
          1   -1    0    0  501    0  0.00000000000E+00 -0.00000000000E+00 -0.29960563784E+03  0.29960563784E+03  0.00000000000E+00 0. -1.
         23    2    1    2    0    0 -0.12102930413E+02  0.85457598733E+02  0.19732198474E+04  0.19772009922E+04  0.90981949945E+02 0.  0.
        254    2    1    2    0    0  0.12102930413E+02 -0.85457598733E+02  0.38876450913E+03  0.98399464003E+03  0.89981004993E+03 0.  0.
        -24    2    4    4    0    0 -0.43490444121E+03 -0.80195261732E+02  0.22120054867E+03  0.50063362730E+03  0.78301935261E+02 0.  0.
         24    2    4    4    0    0  0.44700737162E+03 -0.52623370015E+01  0.16756396046E+03  0.48336101274E+03  0.75610219635E+02 0.  0.
         11    1    3    3    0    0  0.18118872091E+02  0.36642245856E+02  0.27603163807E+03  0.27904195548E+03  0.00000000000E+00 0. -1.
        -11    1    3    3    0    0 -0.30221802504E+02  0.48815352877E+02  0.16971882093E+04  0.16981590367E+04  0.00000000000E+00 0.  1.
          2    1    6    6  502    0  0.34890936236E+03  0.19943219610E+02  0.15110954890E+03  0.38074869786E+03  0.00000000000E+00 0. -1.
          3    1    5    5  503    0 -0.39060748150E+03 -0.88486165774E+02  0.21662579619E+03  0.45533585595E+03  0.00000000000E+00 0. -1.
         -4    1    5    5    0  503 -0.44296959706E+02  0.82909040426E+01  0.45747524787E+01  0.45297771350E+02  0.00000000000E+00 0.  1.
         -1    1    6    6    0  502  0.98098009258E+02 -0.25205556612E+02  0.16454411562E+02  0.10261231488E+03  0.00000000000E+00 0.  1.
<mgrwt>
<rscale>  0 0.17859758E+04</rscale>
<asrwt>0</asrwt>
<pdfrwt beam="1">  1        1 0.46093177E-01 0.17859758E+04</pdfrwt>
<pdfrwt beam="2">  1       -1 0.40947537E+00 0.17859758E+04</pdfrwt>
<totfact> 0.51278650E-01</totfact>
</mgrwt>
</event>
<event>
12    1  0.1201209E-007  0.3963430E+04  0.7818608E-02  0.8011965E-01
         -2   -1    0    0    0  501 -0.00000000000E+00  0.00000000000E+00  0.91001584963E+03  0.91001584963E+03  0.00000000000E+00 0.  1.
          2   -1    0    0  501    0  0.00000000000E+00 -0.00000000000E+00 -0.43155233631E+04  0.43155233631E+04  0.00000000000E+00 0. -1.
         23    2    1    2    0    0  0.88617512001E+02  0.13450511889E+03  0.85090609955E+03  0.87026514626E+03  0.85880987992E+02 0.  0.
        254    2    1    2    0    0 -0.88617512001E+02 -0.13450511889E+03 -0.42564136130E+04  0.43552740664E+04  0.90852113818E+03 0.  0.
        -24    2    4    4    0    0  0.18321083380E+03 -0.10838201006E+03 -0.24388622317E+03  0.33264276894E+03  0.76536606584E+02 0.  0.
         24    2    4    4    0    0 -0.27182834580E+03 -0.26123108823E+02 -0.40125273898E+04  0.40226312975E+04  0.81323029987E+02 0.  0.
         13    1    3    3    0    0  0.29753454924E+02  0.55111843582E+02  0.15188196281E+03  0.16428850845E+03  0.00000000000E+00 0. -1.
        -13    1    3    3    0    0  0.58864057076E+02  0.79393275304E+02  0.69902413674E+03  0.70597663781E+03  0.00000000000E+00 0.  1.
          4    1    6    6  502    0 -0.15743764601E+03  0.12949354378E+02 -0.18519602431E+04  0.18586852988E+04  0.00000000000E+00 0. -1.
          3    1    5    5  503    0  0.83463354576E+02 -0.16225579951E+02 -0.13036261792E+03  0.15564001141E+03  0.00000000000E+00 0. -1.
         -4    1    5    5    0  503  0.99747479224E+02 -0.92156430112E+02 -0.11352360526E+03  0.17700275753E+03  0.00000000000E+00 0.  1.
         -3    1    6    6    0  502 -0.11439069979E+03 -0.39072463201E+02 -0.21605671467E+04  0.21639459986E+04  0.00000000000E+00 0.  1.
<mgrwt>
<rscale>  0 0.39634302E+04</rscale>
<asrwt>0</asrwt>
<pdfrwt beam="1">  1        2 0.66392666E+00 0.39634302E+04</pdfrwt>
<pdfrwt beam="2">  1       -2 0.14000244E+00 0.39634302E+04</pdfrwt>
<totfact> 0.51895221E-02</totfact>
</mgrwt>
</event>
<event>
12    1  0.1201209E-007  0.3097671E+04  0.7818608E-02  0.8216377E-01
         -2   -1    0    0    0  501 -0.00000000000E+00  0.00000000000E+00  0.87178174851E+03  0.87178174851E+03  0.00000000000E+00 0.  1.
          2   -1    0    0  501    0  0.00000000000E+00 -0.00000000000E+00 -0.27517112081E+04  0.27517112081E+04  0.00000000000E+00 0. -1.
         23    2    1    2    0    0  0.64715956309E+03 -0.12513543965E+04 -0.10423102558E+04  0.17547784177E+04  0.90184810578E+02 0.  0.
        254    2    1    2    0    0 -0.64715956309E+03  0.12513543965E+04 -0.83761920371E+03  0.18687145389E+04  0.89765515184E+03 0.  0.
        -24    2    4    4    0    0 -0.11792857056E+03  0.11482045270E+03  0.17666878239E+03  0.25409958206E+03  0.79144518555E+02 0.  0.
         24    2    4    4    0    0 -0.52923099253E+03  0.11365339438E+04 -0.10142879861E+04  0.16146149568E+04  0.80040559415E+02 0.  0.
         11    1    3    3    0    0  0.34037111095E+03 -0.65810240556E+03 -0.49208403241E+03  0.88943688046E+03  0.00000000000E+00 0. -1.
        -11    1    3    3    0    0  0.30678845214E+03 -0.59325199094E+03 -0.55022622342E+03  0.86534153724E+03  0.00000000000E+00 0.  1.
          4    1    6    6  502    0 -0.46204342123E+03  0.92860451808E+03 -0.81943639079E+03  0.13218420755E+04  0.00000000000E+00 0. -1.
          3    1    5    5  503    0 -0.12672308632E+03  0.94535707963E+02  0.16700574115E+03  0.22997099440E+03  0.00000000000E+00 0. -1.
         -4    1    5    5    0  503  0.87945157565E+01  0.20284744739E+02  0.96630412367E+01  0.24128587660E+02  0.00000000000E+00 0.  1.
         -3    1    6    6    0  502 -0.67187571300E+02  0.20792942572E+03 -0.19485159531E+03  0.29277288128E+03  0.00000000000E+00 0.  1.
<mgrwt>
<rscale>  0 0.30976711E+04</rscale>
<asrwt>0</asrwt>
<pdfrwt beam="1">  1        2 0.42334018E+00 0.30976711E+04</pdfrwt>
<pdfrwt beam="2">  1       -2 0.13412027E+00 0.30976711E+04</pdfrwt>
<totfact> 0.84203588E-01</totfact>
</mgrwt>
</event>
<event>
12    1  0.1201209E-007  0.1337850E+04  0.7818608E-02  0.9000077E-01
          2   -1    0    0  501    0  0.00000000000E+00  0.00000000000E+00  0.20537936887E+04  0.20537936887E+04  0.00000000000E+00 0. -1.
         -2   -1    0    0    0  501 -0.00000000000E+00 -0.00000000000E+00 -0.21787020785E+03  0.21787020785E+03  0.00000000000E+00 0.  1.
         23    2    1    2    0    0 -0.16692132557E+03  0.21489610024E+02  0.10698944461E+04  0.10868601589E+04  0.90919453495E+02 0.  0.
        254    2    1    2    0    0  0.16692132557E+03 -0.21489610024E+02  0.76602903475E+03  0.11848037376E+04  0.88805117099E+03 0.  0.
        -24    2    4    4    0    0  0.27101115176E+03  0.34851123579E+03  0.18895080563E+03  0.48652716809E+03  0.78097070984E+02 0.  0.
         24    2    4    4    0    0 -0.10408982619E+03 -0.37000084581E+03  0.57707822912E+03  0.69827656951E+03  0.82677488985E+02 0.  0.
         13    1    3    3    0    0 -0.15474908568E+03 -0.12190071842E+02  0.89004601109E+03  0.90348092355E+03  0.00000000000E+00 0. -1.
        -13    1    3    3    0    0 -0.12172239892E+02  0.33679681866E+02  0.17984843499E+03  0.18337923536E+03  0.00000000000E+00 0.  1.
          4    1    6    6  502    0 -0.33309321710E+02 -0.20282505977E+03  0.24487699813E+03  0.31970652167E+03  0.00000000000E+00 0. -1.
          1    1    5    5  503    0  0.96765976904E+02  0.70093184384E+02  0.59618725914E+02  0.13353314668E+03  0.00000000000E+00 0. -1.
         -2    1    5    5    0  503  0.17424517485E+03  0.27841805141E+03  0.12933207971E+03  0.35299402141E+03  0.00000000000E+00 0.  1.
         -3    1    6    6    0  502 -0.70780504477E+02 -0.16717578605E+03  0.33220123099E+03  0.37857004784E+03  0.00000000000E+00 0.  1.
<mgrwt>
<rscale>  0 0.13378497E+04</rscale>
<asrwt>0</asrwt>
<pdfrwt beam="1">  1        2 0.31596825E+00 0.13378497E+04</pdfrwt>
<pdfrwt beam="2">  1       -2 0.33518495E-01 0.13378497E+04</pdfrwt>
<totfact> 0.50771846E+01</totfact>
</mgrwt>
</event>
<event>
12    1  0.1201209E-007  0.1406285E+04  0.7818608E-02  0.8949282E-01
          2   -1    0    0  501    0  0.00000000000E+00  0.00000000000E+00  0.28550959458E+03  0.28550959458E+03  0.00000000000E+00 0.  1.
         -2   -1    0    0    0  501 -0.00000000000E+00 -0.00000000000E+00 -0.17316732989E+04  0.17316732989E+04  0.00000000000E+00 0. -1.
         23    2    1    2    0    0  0.15506762093E+02 -0.38321496959E+03 -0.22487841960E+03  0.45362872620E+03  0.90080769543E+02 0.  0.
        254    2    1    2    0    0 -0.15506762093E+02  0.38321496959E+03 -0.12212852848E+04  0.15635541673E+04  0.89781385307E+03 0.  0.
        -24    2    4    4    0    0 -0.81576778632E+02  0.60734186229E+03 -0.48119010785E+03  0.78319786085E+03  0.79599377242E+02 0.  0.
         24    2    4    4    0    0  0.66070016539E+02 -0.22412689270E+03 -0.74009517690E+03  0.78035630645E+03  0.81344840193E+02 0.  0.
         13    1    3    3    0    0  0.22724920423E+02 -0.26441910562E+02 -0.35031038736E+02  0.49424389904E+02  0.00000000000E+00 0.  1.
        -13    1    3    3    0    0 -0.72181583305E+01 -0.35677305903E+03 -0.18984738087E+03  0.40420433630E+03  0.00000000000E+00 0. -1.
          4    1    6    6  502    0 -0.18096061819E+02 -0.28803885347E+02 -0.83090741941E+02  0.89784200507E+02  0.00000000000E+00 0. -1.
          3    1    5    5  503    0 -0.48867166622E+02  0.12626139647E+03 -0.11678400163E+03  0.17879721264E+03  0.00000000000E+00 0. -1.
         -4    1    5    5    0  503 -0.32709612010E+02  0.48108046582E+03 -0.36440610622E+03  0.60440064822E+03  0.00000000000E+00 0.  1.
         -3    1    6    6    0  502  0.84166078359E+02 -0.19532300735E+03 -0.65700443496E+03  0.69057210594E+03  0.00000000000E+00 0.  1.
<mgrwt>
<rscale>  0 0.14062850E+04</rscale>
<asrwt>0</asrwt>
<pdfrwt beam="1">  1        2 0.43924554E-01 0.14062850E+04</pdfrwt>
<pdfrwt beam="2">  1       -2 0.26641127E+00 0.14062850E+04</pdfrwt>
<totfact> 0.57667787E+00</totfact>
</mgrwt>
</event>
<event>
12    1  0.1201209E-007  0.1768238E+04  0.7818608E-02  0.8723375E-01
          2   -1    0    0  501    0  0.00000000000E+00  0.00000000000E+00  0.15633720606E+04  0.15633720606E+04  0.00000000000E+00 0. -1.
         -2   -1    0    0    0  501 -0.00000000000E+00 -0.00000000000E+00 -0.49998719403E+03  0.49998719403E+03  0.00000000000E+00 0.  1.
         23    2    1    2    0    0  0.46065668328E+03  0.39369043805E+03  0.67757192968E+03  0.91357215287E+03  0.91179042273E+02 0.  0.
        254    2    1    2    0    0 -0.46065668328E+03 -0.39369043805E+03  0.38581293692E+03  0.11497871018E+04  0.89775387289E+03 0.  0.
        -24    2    4    4    0    0 -0.59495255591E+03 -0.44056391946E+01  0.41605236178E+03  0.73048196673E+03  0.80724113685E+02 0.  0.
         24    2    4    4    0    0  0.13429587263E+03 -0.38928479885E+03 -0.30239424858E+02  0.41930513506E+03  0.72968057751E+02 0.  0.
         13    1    3    3    0    0  0.78671907914E+02  0.44112781682E+02  0.14507524500E+03  0.17082749578E+03  0.00000000000E+00 0.  1.
        -13    1    3    3    0    0  0.38198477537E+03  0.34957765636E+03  0.53249668467E+03  0.74274465709E+03  0.00000000000E+00 0. -1.
          4    1    6    6  502    0  0.94174988437E+01 -0.52394489680E+02 -0.27691076472E+02  0.60005562655E+02  0.00000000000E+00 0. -1.
          3    1    5    5  503    0 -0.14026219179E+03  0.27696582175E+02  0.76990323710E+02  0.16238255157E+03  0.00000000000E+00 0. -1.
         -4    1    5    5    0  503 -0.45469036413E+03 -0.32102221370E+02  0.33906203807E+03  0.56809941516E+03  0.00000000000E+00 0.  1.
         -3    1    6    6    0  502  0.12487837379E+03 -0.33689030917E+03 -0.25483483855E+01  0.35929957241E+03  0.00000000000E+00 0.  1.
<mgrwt>
<rscale>  0 0.17682376E+04</rscale>
<asrwt>0</asrwt>
<pdfrwt beam="1">  1        2 0.24051878E+00 0.17682376E+04</pdfrwt>
<pdfrwt beam="2">  1       -2 0.76921108E-01 0.17682376E+04</pdfrwt>
<totfact> 0.16702197E+01</totfact>
</mgrwt>
</event>
<event>
12    1  0.1201209E-007  0.2573138E+04  0.7818608E-02  0.8377383E-01
         -1   -1    0    0    0  501 -0.00000000000E+00  0.00000000000E+00  0.12104717261E+04  0.12104717261E+04  0.00000000000E+00 0.  1.
          1   -1    0    0  501    0  0.00000000000E+00 -0.00000000000E+00 -0.13674501268E+04  0.13674501268E+04  0.00000000000E+00 0. -1.
         23    2    1    2    0    0  0.52590117159E+03  0.89354088429E+03  0.38451483655E+03  0.11096683800E+04  0.92330384872E+02 0.  0.
        254    2    1    2    0    0 -0.52590117159E+03 -0.89354088429E+03 -0.54149323728E+03  0.14682534729E+04  0.88744914241E+03 0.  0.
        -24    2    4    4    0    0 -0.41126819591E+03 -0.79778646197E+03 -0.10946122219E+01  0.90128308214E+03  0.81885457214E+02 0.  0.
         24    2    4    4    0    0 -0.11463297568E+03 -0.95754422319E+02 -0.54039862506E+03  0.56697039072E+03  0.84351179482E+02 0.  0.
         11    1    3    3    0    0  0.11487920388E+03  0.15271071612E+03  0.40890372086E+02  0.19542215031E+03  0.00000000000E+00 0.  1.
        -11    1    3    3    0    0  0.41102196771E+03  0.74083016817E+03  0.34362446446E+03  0.91424622973E+03  0.00000000000E+00 0. -1.
          2    1    6    6  502    0 -0.56253878017E+02 -0.34641586435E+02 -0.37967873892E+03  0.38538355321E+03  0.00000000000E+00 0. -1.
          3    1    5    5  503    0 -0.39086994651E+03 -0.78206982197E+03 -0.89768652114E+01  0.87435296399E+03  0.00000000000E+00 0. -1.
         -4    1    5    5    0  503 -0.20398249401E+02 -0.15716639996E+02  0.78822529895E+01  0.26930118150E+02  0.00000000000E+00 0.  1.
         -1    1    6    6    0  502 -0.58379097661E+02 -0.61112835884E+02 -0.16071988615E+03  0.18158683751E+03  0.00000000000E+00 0.  1.
<mgrwt>
<rscale>  0 0.25731379E+04</rscale>
<asrwt>0</asrwt>
<pdfrwt beam="1">  1        1 0.21037694E+00 0.25731379E+04</pdfrwt>
<pdfrwt beam="2">  1       -1 0.18622642E+00 0.25731379E+04</pdfrwt>
<totfact> 0.13434199E+00</totfact>
</mgrwt>
</event>
<event>
12    1  0.1201209E-007  0.1405351E+04  0.7818608E-02  0.8949954E-01
         -2   -1    0    0    0  501 -0.00000000000E+00  0.00000000000E+00  0.25541343722E+03  0.25541343722E+03  0.00000000000E+00 0.  1.
          2   -1    0    0  501    0  0.00000000000E+00 -0.00000000000E+00 -0.19331519805E+04  0.19331519805E+04  0.00000000000E+00 0. -1.
         23    2    1    2    0    0 -0.35179498029E+03  0.15800571988E+03 -0.28176992689E+03  0.48584256281E+03  0.89012293916E+02 0.  0.
        254    2    1    2    0    0  0.35179498029E+03 -0.15800571988E+03 -0.13959686164E+04  0.17027228549E+04  0.89543912524E+03 0.  0.
        -24    2    4    4    0    0  0.50116751334E+03 -0.16784492090E+03 -0.34209285380E+03  0.63534913654E+03  0.85441270921E+02 0.  0.
         24    2    4    4    0    0 -0.14937253305E+03  0.98392010225E+01 -0.10538757626E+04  0.10673737183E+04  0.78889594953E+02 0.  0.
         13    1    3    3    0    0 -0.35618025294E+03  0.15841546251E+03 -0.28244246357E+03  0.48138713794E+03  0.00000000000E+00 0.  1.
        -13    1    3    3    0    0  0.43852726453E+01 -0.40974263390E+00  0.67253668355E+00  0.44554248720E+01  0.00000000000E+00 0. -1.
          4    1    6    6  502    0 -0.14155410533E+03  0.82447718546E+01 -0.10477840721E+04  0.10573348584E+04  0.00000000000E+00 0. -1.
          1    1    5    5  503    0  0.40138709075E+03 -0.11295496092E+03 -0.30105059822E+03  0.51429746500E+03  0.00000000000E+00 0. -1.
         -2    1    5    5    0  503  0.99780422598E+02 -0.54889959973E+02 -0.41042255583E+02  0.12105167154E+03  0.00000000000E+00 0.  1.
         -3    1    6    6    0  502 -0.78184277266E+01  0.15944291679E+01 -0.60916904297E+01  0.10038859934E+02  0.00000000000E+00 0.  1.
<mgrwt>
<rscale>  0 0.14053512E+04</rscale>
<asrwt>0</asrwt>
<pdfrwt beam="1">  1        2 0.29740800E+00 0.14053512E+04</pdfrwt>
<pdfrwt beam="2">  1       -2 0.39294375E-01 0.14053512E+04</pdfrwt>
<totfact> 0.43381130E+01</totfact>
</mgrwt>
</event>
<event>
12    1  0.1201209E-007  0.1971475E+04  0.7818608E-02  0.8620074E-01
          1   -1    0    0  501    0  0.00000000000E+00  0.00000000000E+00  0.15884448398E+04  0.15884448398E+04  0.00000000000E+00 0. -1.
         -1   -1    0    0    0  501 -0.00000000000E+00 -0.00000000000E+00 -0.61171666300E+03  0.61171666300E+03  0.00000000000E+00 0.  1.
         23    2    1    2    0    0 -0.36503955720E+03  0.68697172458E+03  0.37450017261E+03  0.86821784770E+03  0.91475806037E+02 0.  0.
        254    2    1    2    0    0  0.36503955720E+03 -0.68697172458E+03  0.60222800419E+03  0.13319436551E+04  0.89789270107E+03 0.  0.
        -24    2    4    4    0    0  0.62255035049E+03 -0.26424259413E+03  0.28432871582E+03  0.73824830870E+03  0.82308318054E+02 0.  0.
         24    2    4    4    0    0 -0.25751079329E+03 -0.42272913045E+03  0.31789928837E+03  0.59369534639E+03  0.80015500921E+02 0.  0.
         13    1    3    3    0    0 -0.60987469699E+02  0.15810941515E+03  0.11773513618E+03  0.20634830000E+03  0.00000000000E+00 0.  1.
        -13    1    3    3    0    0 -0.30405208750E+03  0.52886230943E+03  0.25676503643E+03  0.66186954770E+03  0.00000000000E+00 0. -1.
          2    1    6    6  502    0 -0.21590769642E+03 -0.30465497519E+03  0.26450267053E+03  0.45759419796E+03  0.00000000000E+00 0. -1.
          1    1    5    5  503    0  0.49004476677E+03 -0.24310539640E+03  0.23295622494E+03  0.59456934830E+03  0.00000000000E+00 0. -1.
         -2    1    5    5    0  503  0.13250558372E+03 -0.21137197727E+02  0.51372490883E+02  0.14367896041E+03  0.00000000000E+00 0.  1.
         -1    1    6    6    0  502 -0.41603096868E+02 -0.11807415526E+03  0.53396617838E+02  0.13610114844E+03  0.00000000000E+00 0.  1.
<mgrwt>
<rscale>  0 0.19714748E+04</rscale>
<asrwt>0</asrwt>
<pdfrwt beam="1">  1        1 0.24437613E+00 0.19714748E+04</pdfrwt>
<pdfrwt beam="2">  1       -1 0.94110256E-01 0.19714748E+04</pdfrwt>
<totfact> 0.57793053E+00</totfact>
</mgrwt>
</event>
<event>
12    1  0.1201209E-007  0.1641184E+04  0.7818608E-02  0.8795639E-01
          1   -1    0    0  501    0  0.00000000000E+00  0.00000000000E+00  0.18608461514E+04  0.18608461514E+04  0.00000000000E+00 0. -1.
         -1   -1    0    0    0  501 -0.00000000000E+00 -0.00000000000E+00 -0.36186284417E+03  0.36186284417E+03  0.00000000000E+00 0.  1.
         23    2    1    2    0    0 -0.17827563082E+03 -0.31733540259E+03 -0.70664134944E+02  0.38149946749E+03  0.89802368789E+02 0.  0.
        254    2    1    2    0    0  0.17827563082E+03  0.31733540259E+03  0.15696474422E+04  0.18412095281E+04  0.89094078103E+03 0.  0.
        -24    2    4    4    0    0  0.28148486786E+03  0.47947728897E+03  0.50053832640E+03  0.75216566365E+03  0.77989537135E+02 0.  0.
         24    2    4    4    0    0 -0.10320923704E+03 -0.16214188637E+03  0.10691091158E+04  0.10890438645E+04  0.77974991550E+02 0.  0.
         11    1    3    3    0    0 -0.64542444338E+02 -0.93171474001E+02 -0.63744634470E+02  0.13003856779E+03  0.00000000000E+00 0. -1.
        -11    1    3    3    0    0 -0.11373318648E+03 -0.22416392859E+03 -0.69195004744E+01  0.25146089970E+03  0.00000000000E+00 0.  1.
          4    1    6    6  502    0 -0.28179000500E+02 -0.91121736317E+02  0.35880226724E+03  0.37126310600E+03  0.00000000000E+00 0. -1.
          3    1    5    5  503    0  0.26266416982E+02  0.48932552595E+02  0.22099791873E+02  0.59772235740E+02  0.00000000000E+00 0. -1.
         -4    1    5    5    0  503  0.25521845088E+03  0.43054473637E+03  0.47843853453E+03  0.69239342791E+03  0.00000000000E+00 0.  1.
         -3    1    6    6    0  502 -0.75030236536E+02 -0.71020150057E+02  0.71030684855E+03  0.71778075846E+03  0.00000000000E+00 0.  1.
<mgrwt>
<rscale>  0 0.16411838E+04</rscale>
<asrwt>0</asrwt>
<pdfrwt beam="1">  1        1 0.28628402E+00 0.16411838E+04</pdfrwt>
<pdfrwt beam="2">  1       -1 0.55671208E-01 0.16411838E+04</pdfrwt>
<totfact> 0.11560097E+01</totfact>
</mgrwt>
</event>
<event>
12    1  0.1201209E-007  0.4262085E+04  0.7818608E-02  0.7953666E-01
         -2   -1    0    0    0  501 -0.00000000000E+00  0.00000000000E+00  0.13528963884E+04  0.13528963884E+04  0.00000000000E+00 0.  1.
          2   -1    0    0  501    0  0.00000000000E+00 -0.00000000000E+00 -0.33567552157E+04  0.33567552157E+04  0.00000000000E+00 0. -1.
         23    2    1    2    0    0  0.17222945860E+04 -0.33103604202E+03 -0.21023273017E+04  0.27393686315E+04  0.92070156222E+02 0.  0.
        254    2    1    2    0    0 -0.17222945860E+04  0.33103604202E+03  0.98468474399E+02  0.19702829726E+04  0.89243232231E+03 0.  0.
        -24    2    4    4    0    0 -0.55479982089E+03 -0.28064226230E+03  0.16703583841E+03  0.64841193947E+03  0.77292634059E+02 0.  0.
         24    2    4    4    0    0 -0.11674947651E+04  0.61167830432E+03 -0.68567364006E+02  0.13218710332E+04  0.73804949095E+02 0.  0.
         11    1    3    3    0    0  0.53005655732E+03 -0.69897616490E+02 -0.59654286320E+03  0.80106742436E+03  0.00000000000E+00 0. -1.
        -11    1    3    3    0    0  0.11922380286E+04 -0.26113842553E+03 -0.15057844385E+04  0.19383012071E+04  0.00000000000E+00 0.  1.
          2    1    6    6  502    0 -0.20248248124E+03  0.13729212112E+03 -0.51600919342E+01  0.24469349865E+03  0.00000000000E+00 0. -1.
          3    1    5    5  503    0 -0.15383909994E+03 -0.58643791530E+02  0.75142824093E+02  0.18097515567E+03  0.00000000000E+00 0. -1.
         -4    1    5    5    0  503 -0.40096072095E+03 -0.22199847077E+03  0.91893014312E+02  0.46743678380E+03  0.00000000000E+00 0.  1.
         -1    1    6    6    0  502 -0.96501228382E+03  0.47438618320E+03 -0.63407272072E+02  0.10771775345E+04  0.00000000000E+00 0.  1.
<mgrwt>
<rscale>  0 0.42620849E+04</rscale>
<asrwt>0</asrwt>
<pdfrwt beam="1">  1        2 0.51642387E+00 0.42620849E+04</pdfrwt>
<pdfrwt beam="2">  1       -2 0.20813791E+00 0.42620849E+04</pdfrwt>
<totfact> 0.92630020E-02</totfact>
</mgrwt>
</event>
<event>
12    1  0.1201209E-007  0.1243756E+04  0.7818608E-02  0.9075396E-01
         -2   -1    0    0    0  501 -0.00000000000E+00  0.00000000000E+00  0.49385050599E+03  0.49385050599E+03  0.00000000000E+00 0. -1.
          2   -1    0    0  501    0  0.00000000000E+00 -0.00000000000E+00 -0.78309562605E+03  0.78309562605E+03  0.00000000000E+00 0.  1.
         23    2    1    2    0    0 -0.19241510799E+03  0.13912703251E+03 -0.27969839502E+03  0.37834300525E+03  0.92370625700E+02 0.  0.
        254    2    1    2    0    0  0.19241510799E+03 -0.13912703251E+03 -0.95467250502E+01  0.89860312679E+03  0.86661210156E+03 0.  0.
        -24    2    4    4    0    0 -0.33583256628E+03 -0.26338148502E+01 -0.31475727619E+02  0.34689386666E+03  0.80957913380E+02 0.  0.
         24    2    4    4    0    0  0.52824767427E+03 -0.13649321766E+03  0.21929002569E+02  0.55170926014E+03  0.78906417533E+02 0.  0.
         11    1    3    3    0    0 -0.18806919425E+03  0.10864284727E+03 -0.26901713734E+03  0.34575064753E+03  0.00000000000E+00 0.  1.
        -11    1    3    3    0    0 -0.43459137346E+01  0.30484185242E+02 -0.10681257679E+02  0.32592357718E+02  0.00000000000E+00 0. -1.
          2    1    6    6  502    0  0.46133902103E+02  0.40018604214E+01 -0.13665619522E+02  0.48281476437E+02  0.00000000000E+00 0. -1.
          3    1    5    5  503    0 -0.11640563608E+01  0.39373940631E+01  0.88349002228E+01  0.97423591171E+01  0.00000000000E+00 0. -1.
         -4    1    5    5    0  503 -0.33466850992E+03 -0.65712089133E+01 -0.40310627842E+02  0.33715150754E+03  0.00000000000E+00 0.  1.
         -1    1    6    6    0  502  0.48211377217E+03 -0.14049507808E+03  0.35594622091E+02  0.50342778370E+03  0.00000000000E+00 0.  1.
<mgrwt>
<rscale>  0 0.12437559E+04</rscale>
<asrwt>0</asrwt>
<pdfrwt beam="1">  1        2 0.12047625E+00 0.12437559E+04</pdfrwt>
<pdfrwt beam="2">  1       -2 0.75977001E-01 0.12437559E+04</pdfrwt>
<totfact> 0.54121206E+01</totfact>
</mgrwt>
</event>
<event>
12    1  0.1201209E-007  0.1266258E+04  0.7818608E-02  0.9056759E-01
         -2   -1    0    0    0  501 -0.00000000000E+00  0.00000000000E+00  0.40092336378E+03  0.40092336378E+03  0.00000000000E+00 0.  1.
          2   -1    0    0  501    0  0.00000000000E+00 -0.00000000000E+00 -0.99982268589E+03  0.99982268589E+03  0.00000000000E+00 0. -1.
         23    2    1    2    0    0 -0.11872333852E+01 -0.18266682796E+03 -0.41211147798E+03  0.46129859475E+03  0.97938468823E+02 0.  0.
        254    2    1    2    0    0  0.11872333852E+01  0.18266682796E+03 -0.18678784413E+03  0.93944745491E+03  0.90238752333E+03 0.  0.
        -24    2    4    4    0    0 -0.39818367209E+03  0.25876200238E+03  0.10547969735E+02  0.48116164513E+03  0.76793609646E+02 0.  0.
         24    2    4    4    0    0  0.39937090547E+03 -0.76095174422E+02 -0.19733581387E+03  0.45828580979E+03  0.76137141469E+02 0.  0.
         13    1    3    3    0    0  0.11903393998E+00 -0.13037957367E+02 -0.14024919860E+03  0.14085396767E+03  0.00000000000E+00 0.  1.
        -13    1    3    3    0    0 -0.13062673252E+01 -0.16962887059E+03 -0.27186227939E+03  0.32044462708E+03  0.00000000000E+00 0. -1.
          2    1    6    6  502    0  0.32597489902E+03 -0.54414920087E+02 -0.12608114962E+03  0.35371892034E+03  0.00000000000E+00 0. -1.
          3    1    5    5  503    0 -0.32176427145E+03  0.23866163668E+03 -0.49151504268E+01  0.40064420863E+03  0.00000000000E+00 0. -1.
         -4    1    5    5    0  503 -0.76419400636E+02  0.20100365702E+02  0.15463120162E+02  0.80517436497E+02  0.00000000000E+00 0.  1.
         -1    1    6    6    0  502  0.73396006452E+02 -0.21680254335E+02 -0.71254664250E+02  0.10456688945E+03  0.00000000000E+00 0.  1.
<mgrwt>
<rscale>  0 0.12662579E+04</rscale>
<asrwt>0</asrwt>
<pdfrwt beam="1">  1        2 0.15381888E+00 0.12662579E+04</pdfrwt>
<pdfrwt beam="2">  1       -2 0.61680517E-01 0.12662579E+04</pdfrwt>
<totfact> 0.60464403E+01</totfact>
</mgrwt>
</event>
<event>
12    1  0.1201209E-007  0.2379693E+04  0.7818608E-02  0.8447145E-01
          1   -1    0    0  501    0  0.00000000000E+00  0.00000000000E+00  0.82780572938E+03  0.82780572938E+03  0.00000000000E+00 0. -1.
         -1   -1    0    0    0  501 -0.00000000000E+00 -0.00000000000E+00 -0.17102263753E+04  0.17102263753E+04  0.00000000000E+00 0.  1.
         23    2    1    2    0    0  0.62572154396E+03  0.48083144889E+03  0.30785924298E+03  0.85278458921E+03  0.98680845594E+02 0.  0.
        254    2    1    2    0    0 -0.62572154396E+03 -0.48083144889E+03 -0.11902798889E+04  0.16852475154E+04  0.89474389722E+03 0.  0.
        -24    2    4    4    0    0 -0.31179108890E+03 -0.64616278479E+03 -0.10905729005E+04  0.13078821621E+04  0.80414371250E+02 0.  0.
         24    2    4    4    0    0 -0.31393045506E+03  0.16533133590E+03 -0.99706988391E+02  0.37736535334E+03  0.81094667647E+02 0.  0.
         11    1    3    3    0    0  0.55482470856E+03  0.46088969670E+03  0.28651396022E+03  0.77610567525E+03  0.00000000000E+00 0. -1.
        -11    1    3    3    0    0  0.70896835397E+02  0.19941752190E+02  0.21345282763E+02  0.76678913959E+02  0.00000000000E+00 0.  1.
          4    1    6    6  502    0 -0.27844773732E+03  0.16867065255E+03 -0.10329744114E+03  0.34154544763E+03  0.00000000000E+00 0. -1.
          1    1    5    5  503    0 -0.10741890560E+03 -0.28778062813E+03 -0.51652847025E+03  0.60096436815E+03  0.00000000000E+00 0. -1.
         -4    1    5    5    0  503 -0.20437218330E+03 -0.35838215666E+03 -0.57404443021E+03  0.70691779393E+03  0.00000000000E+00 0.  1.
         -3    1    6    6    0  502 -0.35482717742E+02 -0.33393166498E+01  0.35904527514E+01  0.35819905709E+02  0.00000000000E+00 0.  1.
<mgrwt>
<rscale>  0 0.23796934E+04</rscale>
<asrwt>0</asrwt>
<pdfrwt beam="1">  1        1 0.12735473E+00 0.23796934E+04</pdfrwt>
<pdfrwt beam="2">  1       -1 0.26311175E+00 0.23796934E+04</pdfrwt>
<totfact> 0.10754438E+00</totfact>
</mgrwt>
</event>
<event>
12    1  0.1201209E-007  0.3555310E+04  0.7818608E-02  0.8100806E-01
          2   -1    0    0  501    0  0.00000000000E+00  0.00000000000E+00  0.22538278229E+04  0.22538278229E+04  0.00000000000E+00 0. -1.
         -2   -1    0    0    0  501 -0.00000000000E+00 -0.00000000000E+00 -0.14020842232E+04  0.14020842232E+04  0.00000000000E+00 0.  1.
         23    2    1    2    0    0 -0.64002581248E+03  0.39813133937E+03  0.19220523190E+04  0.20666705877E+04  0.93276991918E+02 0.  0.
        254    2    1    2    0    0  0.64002581248E+03 -0.39813133937E+03 -0.10703087193E+04  0.15892414584E+04  0.90110268800E+03 0.  0.
        -24    2    4    4    0    0 -0.29794533465E+02 -0.25962197026E+03 -0.80667042060E+03  0.85180493426E+03  0.81013560005E+02 0.  0.
         24    2    4    4    0    0  0.66982034594E+03 -0.13850936911E+03 -0.26363829871E+03  0.73743652410E+03  0.80394858991E+02 0.  0.
         13    1    3    3    0    0 -0.60184169293E+03  0.38254364261E+03  0.18613482007E+04  0.19932812612E+04  0.00000000000E+00 0. -1.
        -13    1    3    3    0    0 -0.38184119549E+02  0.15587696761E+02  0.60704118253E+02  0.73389326532E+02  0.00000000000E+00 0.  1.
          2    1    6    6  502    0 -0.41608188328E+00 -0.50484136942E+01 -0.34962962191E+00  0.50775826762E+01  0.00000000000E+00 0. -1.
          1    1    5    5  503    0  0.19696081950E+02 -0.36825864303E+02 -0.18251139344E+03  0.18722843978E+03  0.00000000000E+00 0. -1.
         -2    1    5    5    0  503 -0.49490615415E+02 -0.22279610596E+03 -0.62415902716E+03  0.66457649449E+03  0.00000000000E+00 0.  1.
         -1    1    6    6    0  502  0.67023642783E+03 -0.13346095542E+03 -0.26328866909E+03  0.73235894142E+03  0.00000000000E+00 0.  1.
<mgrwt>
<rscale>  0 0.35553095E+04</rscale>
<asrwt>0</asrwt>
<pdfrwt beam="1">  1        2 0.34674274E+00 0.35553095E+04</pdfrwt>
<pdfrwt beam="2">  1       -2 0.21570527E+00 0.35553095E+04</pdfrwt>
<totfact> 0.41457979E-01</totfact>
</mgrwt>
</event>
<event>
12    1  0.1201209E-007  0.2169149E+04  0.7818608E-02  0.8531380E-01
          4   -1    0    0  501    0  0.00000000000E+00  0.00000000000E+00  0.85394907275E+03  0.85394907275E+03  0.00000000000E+00 0.  1.
         -4   -1    0    0    0  501 -0.00000000000E+00 -0.00000000000E+00 -0.13774848708E+04  0.13774848708E+04  0.00000000000E+00 0. -1.
         23    2    1    2    0    0  0.29602293966E+03  0.67255077658E+02 -0.10811702972E+04  0.11271069534E+04  0.96374512404E+02 0.  0.
        254    2    1    2    0    0 -0.29602293966E+03 -0.67255077658E+02  0.55763449909E+03  0.11043269902E+04  0.90356462990E+03 0.  0.
        -24    2    4    4    0    0 -0.43511769417E+03  0.21329309865E+03  0.39682767942E+02  0.49311492681E+03  0.82257250528E+02 0.  0.
         24    2    4    4    0    0  0.13909475451E+03 -0.28054817630E+03  0.51795173115E+03  0.61121206337E+03  0.85156095809E+02 0.  0.
         11    1    3    3    0    0  0.14653827489E+02  0.21647318955E+02 -0.18119229523E+03  0.18306826303E+03  0.00000000000E+00 0.  1.
        -11    1    3    3    0    0  0.28136911217E+03  0.45607758703E+02 -0.89997800194E+03  0.94403869037E+03  0.00000000000E+00 0. -1.
          2    1    6    6  502    0  0.15094068320E+03 -0.25466831137E+03  0.47373285134E+03  0.55862496641E+03  0.00000000000E+00 0. -1.
          3    1    5    5  503    0 -0.10469680460E+03  0.66235901034E+02  0.43855849730E+02  0.13142279496E+03  0.00000000000E+00 0. -1.
         -4    1    5    5    0  503 -0.33042088957E+03  0.14705719761E+03 -0.41730817878E+01  0.36169213185E+03  0.00000000000E+00 0.  1.
         -3    1    6    6    0  502 -0.11845928684E+02 -0.25879864936E+02  0.44218879807E+02  0.52587096962E+02  0.00000000000E+00 0.  1.
<mgrwt>
<rscale>  0 0.21691491E+04</rscale>
<asrwt>0</asrwt>
<pdfrwt beam="1">  1        4 0.13137678E+00 0.21691491E+04</pdfrwt>
<pdfrwt beam="2">  1       -4 0.21192075E+00 0.21691491E+04</pdfrwt>
<totfact> 0.84814551E-02</totfact>
</mgrwt>
</event>
<event>
12    1  0.1201209E-007  0.4722459E+04  0.7818608E-02  0.7872808E-01
         -1   -1    0    0    0  501 -0.00000000000E+00  0.00000000000E+00  0.11542849445E+04  0.11542849445E+04  0.00000000000E+00 0.  1.
          1   -1    0    0  501    0  0.00000000000E+00 -0.00000000000E+00 -0.48301812823E+04  0.48301812823E+04  0.00000000000E+00 0. -1.
         23    2    1    2    0    0  0.20419719174E+04  0.51040540265E+03 -0.28642280635E+04  0.35555826642E+04  0.90568735133E+02 0.  0.
        254    2    1    2    0    0 -0.20419719174E+04 -0.51040540265E+03 -0.81166827431E+03  0.24288835626E+04  0.90028161523E+03 0.  0.
        -24    2    4    4    0    0 -0.60939268209E+03  0.24195835499E+03 -0.14116705476E+03  0.67558947269E+03  0.81177039358E+02 0.  0.
         24    2    4    4    0    0 -0.14325792353E+04 -0.75236375764E+03 -0.67050121954E+03  0.17532940899E+04  0.78318523438E+02 0.  0.
         13    1    3    3    0    0  0.45720857292E+03  0.15347854903E+03 -0.65416216084E+03  0.81272595433E+03  0.00000000000E+00 0. -1.
        -13    1    3    3    0    0  0.15847633445E+04  0.35692685362E+03 -0.22100659026E+04  0.27428567098E+04  0.00000000000E+00 0.  1.
          4    1    6    6  502    0 -0.10082115570E+04 -0.55381912565E+03 -0.44566816662E+03  0.12336232335E+04  0.00000000000E+00 0. -1.
          1    1    5    5  503    0 -0.43568672042E+03  0.18720297344E+03 -0.13626328757E+03  0.49339188801E+03  0.00000000000E+00 0. -1.
         -2    1    5    5    0  503 -0.17370596167E+03  0.54755381551E+02 -0.49037671887E+01  0.18219758467E+03  0.00000000000E+00 0.  1.
         -3    1    6    6    0  502 -0.42436767833E+03 -0.19854463199E+03 -0.22483305292E+03  0.51967085640E+03  0.00000000000E+00 0.  1.
<mgrwt>
<rscale>  0 0.47224593E+04</rscale>
<asrwt>0</asrwt>
<pdfrwt beam="1">  1        1 0.74310481E+00 0.47224593E+04</pdfrwt>
<pdfrwt beam="2">  1       -1 0.17758230E+00 0.47224593E+04</pdfrwt>
<totfact> 0.22095315E-03</totfact>
</mgrwt>
</event>
<event>
12    1  0.1201209E-007  0.1282618E+04  0.7818608E-02  0.9043464E-01
          2   -1    0    0  501    0  0.00000000000E+00  0.00000000000E+00  0.26538678287E+03  0.26538678287E+03  0.00000000000E+00 0. -1.
         -2   -1    0    0    0  501 -0.00000000000E+00 -0.00000000000E+00 -0.15497270032E+04  0.15497270032E+04  0.00000000000E+00 0.  1.
         23    2    1    2    0    0  0.15968860955E+03  0.93379673763E+02 -0.68807137959E+03  0.71860130336E+03  0.93409819012E+02 0.  0.
        254    2    1    2    0    0 -0.15968860955E+03 -0.93379673763E+02 -0.59626884071E+03  0.10965124827E+04  0.90143379056E+03 0.  0.
        -24    2    4    4    0    0 -0.46229205486E+03 -0.14975358980E+03 -0.93608152827E+02  0.50176772374E+03  0.82875090758E+02 0.  0.
         24    2    4    4    0    0  0.30260344531E+03  0.56373916041E+02 -0.50266068788E+03  0.59474475893E+03  0.79414719134E+02 0.  0.
         13    1    3    3    0    0  0.31959334978E+01 -0.15444172730E+02 -0.37509374670E+02  0.40690166507E+02  0.00000000000E+00 0. -1.
        -13    1    3    3    0    0  0.15649267605E+03  0.10882384649E+03 -0.65056200492E+03  0.67791113685E+03  0.00000000000E+00 0.  1.
          4    1    6    6  502    0  0.14373970344E+03  0.35723509095E+02 -0.16967215829E+03  0.22522413891E+03  0.00000000000E+00 0. -1.
          1    1    5    5  503    0 -0.14430615265E+03 -0.64888761085E+02 -0.66194241470E+02  0.17151237451E+03  0.00000000000E+00 0. -1.
         -2    1    5    5    0  503 -0.31798590221E+03 -0.84864828719E+02 -0.27413911357E+02  0.33025534923E+03  0.00000000000E+00 0.  1.
         -3    1    6    6    0  502  0.15886374187E+03  0.20650406946E+02 -0.33298852958E+03  0.36952062003E+03  0.00000000000E+00 0.  1.
<mgrwt>
<rscale>  0 0.12826177E+04</rscale>
<asrwt>0</asrwt>
<pdfrwt beam="1">  1        2 0.40828736E-01 0.12826177E+04</pdfrwt>
<pdfrwt beam="2">  1       -2 0.23841954E+00 0.12826177E+04</pdfrwt>
<totfact> 0.93707455E+00</totfact>
</mgrwt>
</event>
<event>
12    1  0.1201209E-007  0.1245195E+04  0.7818608E-02  0.9074192E-01
         -2   -1    0    0    0  501 -0.00000000000E+00  0.00000000000E+00  0.23803239429E+03  0.23803239429E+03  0.00000000000E+00 0.  1.
          2   -1    0    0  501    0  0.00000000000E+00 -0.00000000000E+00 -0.16284657750E+04  0.16284657750E+04  0.00000000000E+00 0. -1.
         23    2    1    2    0    0 -0.28210596487E+03 -0.81659312715E+01 -0.43788421996E+03  0.52887405051E+03  0.91185050104E+02 0.  0.
        254    2    1    2    0    0  0.28210596487E+03  0.81659312715E+01 -0.95254916075E+03  0.13376241188E+04  0.89567735356E+03 0.  0.
        -24    2    4    4    0    0  0.12783777651E+03  0.23294854190E+03 -0.10101350089E+04  0.10475519495E+04  0.79905133957E+02 0.  0.
         24    2    4    4    0    0  0.15426818836E+03 -0.22478261063E+03  0.57585848103E+02  0.29007216933E+03  0.80621569916E+02 0.  0.
         11    1    3    3    0    0 -0.16263510155E+03 -0.38343892879E+02 -0.30414135504E+03  0.34701929950E+03  0.00000000000E+00 0.  1.
        -11    1    3    3    0    0 -0.11947086331E+03  0.30177961607E+02 -0.13374286492E+03  0.18185475101E+03  0.00000000000E+00 0. -1.
          2    1    6    6  502    0  0.33890626551E+02 -0.75750774971E+02  0.52950539913E+02  0.98440409150E+02  0.00000000000E+00 0. -1.
          1    1    5    5  503    0  0.40629635984E+02  0.16088450284E+02 -0.16549046405E+03  0.17116278581E+03  0.00000000000E+00 0. -1.
         -2    1    5    5    0  503  0.87208140526E+02  0.21686009162E+03 -0.84464454480E+03  0.87638916366E+03  0.00000000000E+00 0.  1.
         -1    1    6    6    0  502  0.12037756181E+03 -0.14903183566E+03  0.46353081900E+01  0.19163176018E+03  0.00000000000E+00 0.  1.
<mgrwt>
<rscale>  0 0.12451949E+04</rscale>
<asrwt>0</asrwt>
<pdfrwt beam="1">  1        2 0.25053320E+00 0.12451949E+04</pdfrwt>
<pdfrwt beam="2">  1       -2 0.36620368E-01 0.12451949E+04</pdfrwt>
<totfact> 0.74246505E+01</totfact>
</mgrwt>
</event>
<event>
12    1  0.1201209E-007  0.2251967E+04  0.7818608E-02  0.8497104E-01
         -1   -1    0    0    0  501 -0.00000000000E+00  0.00000000000E+00  0.11234962700E+04  0.11234962700E+04  0.00000000000E+00 0.  1.
          1   -1    0    0  501    0  0.00000000000E+00 -0.00000000000E+00 -0.11284764096E+04  0.11284764096E+04  0.00000000000E+00 0. -1.
         23    2    1    2    0    0 -0.17407211790E+03 -0.86570252791E+03  0.36016139334E+03  0.95815271063E+03  0.92727658077E+02 0.  0.
        254    2    1    2    0    0  0.17407211790E+03  0.86570252791E+03 -0.36514153290E+03  0.12938199689E+04  0.87229570897E+03 0.  0.
        -24    2    4    4    0    0  0.30018535825E+03  0.57105225769E+03  0.16396179142E+03  0.67051295750E+03  0.80574355785E+02 0.  0.
         24    2    4    4    0    0 -0.12611324035E+03  0.29465027022E+03 -0.52910332431E+03  0.62330701143E+03  0.76406619878E+02 0.  0.
         11    1    3    3    0    0 -0.17988374289E+03 -0.74150215470E+03  0.29793756280E+03  0.81911561925E+03  0.00000000000E+00 0.  1.
        -11    1    3    3    0    0  0.58116249873E+01 -0.12420037322E+03  0.62223830547E+02  0.13903709138E+03  0.00000000000E+00 0. -1.
          2    1    6    6  502    0  0.88591981302E+01  0.17171112843E+02 -0.18749533449E+02  0.26923549401E+02  0.00000000000E+00 0. -1.
          1    1    5    5  503    0  0.13318186527E+03  0.31916157680E+03  0.11431890565E+03  0.36423939042E+03  0.00000000000E+00 0. -1.
         -2    1    5    5    0  503  0.16700349298E+03  0.25189068089E+03  0.49642885769E+02  0.30627356709E+03  0.00000000000E+00 0.  1.
         -1    1    6    6    0  502 -0.13497243848E+03  0.27747915738E+03 -0.51035379087E+03  0.59638346203E+03  0.00000000000E+00 0.  1.
<mgrwt>
<rscale>  0 0.22519672E+04</rscale>
<asrwt>0</asrwt>
<pdfrwt beam="1">  1        1 0.17361176E+00 0.22519672E+04</pdfrwt>
<pdfrwt beam="2">  1       -1 0.17284558E+00 0.22519672E+04</pdfrwt>
<totfact> 0.25693285E+00</totfact>
</mgrwt>
</event>
<event>
12    1  0.1201209E-007  0.1671173E+04  0.7818608E-02  0.8777978E-01
         -2   -1    0    0    0  501 -0.00000000000E+00  0.00000000000E+00  0.74233873638E+03  0.74233873638E+03  0.00000000000E+00 0. -1.
          2   -1    0    0  501    0  0.00000000000E+00 -0.00000000000E+00 -0.94054768238E+03  0.94054768238E+03  0.00000000000E+00 0.  1.
         23    2    1    2    0    0  0.44265546062E+03 -0.19452585202E+03  0.26732635543E+03  0.55756739388E+03  0.75059006757E+02 0.  0.
        254    2    1    2    0    0 -0.44265546062E+03  0.19452585202E+03 -0.46553530143E+03  0.11253190249E+04  0.90323619666E+03 0.  0.
        -24    2    4    4    0    0 -0.30205424509E+03  0.40596076118E+03  0.79627479154E+02  0.51865847820E+03  0.81395177820E+02 0.  0.
         24    2    4    4    0    0 -0.14060121552E+03 -0.21143490917E+03 -0.54516278059E+03  0.60666054668E+03  0.79756748549E+02 0.  0.
         11    1    3    3    0    0  0.22598953546E+03 -0.99173731716E+02  0.17913834511E+03  0.30495449806E+03  0.00000000000E+00 0.  1.
        -11    1    3    3    0    0  0.21666592516E+03 -0.95352120301E+02  0.88188010323E+02  0.25261289582E+03  0.00000000000E+00 0. -1.
          4    1    6    6  502    0 -0.60882201269E+02 -0.10361362138E+03 -0.16947679963E+03  0.20776142707E+03  0.00000000000E+00 0. -1.
          3    1    5    5  503    0 -0.14672623983E+03  0.21269606979E+03  0.51650638866E+00  0.25839596424E+03  0.00000000000E+00 0. -1.
         -4    1    5    5    0  503 -0.15532800527E+03  0.19326469139E+03  0.79110972765E+02  0.26026251396E+03  0.00000000000E+00 0.  1.
         -3    1    6    6    0  502 -0.79719014256E+02 -0.10782128778E+03 -0.37568598096E+03  0.39889911961E+03  0.00000000000E+00 0.  1.
<mgrwt>
<rscale>  0 0.16711732E+04</rscale>
<asrwt>0</asrwt>
<pdfrwt beam="1">  1        2 0.14469964E+00 0.16711732E+04</pdfrwt>
<pdfrwt beam="2">  1       -2 0.11420596E+00 0.16711732E+04</pdfrwt>
<totfact> 0.15754404E+01</totfact>
</mgrwt>
</event>
<event>
12    1  0.1201209E-007  0.1857347E+04  0.7818608E-02  0.8676384E-01
         -1   -1    0    0    0  501 -0.00000000000E+00  0.00000000000E+00  0.90978959830E+03  0.90978959830E+03  0.00000000000E+00 0.  1.
          1   -1    0    0  501    0  0.00000000000E+00 -0.00000000000E+00 -0.94794965253E+03  0.94794965253E+03  0.00000000000E+00 0. -1.
         23    2    1    2    0    0  0.43342221920E+03 -0.52494394802E+03 -0.21833826027E+03  0.72048742422E+03  0.89496167022E+02 0.  0.
        254    2    1    2    0    0 -0.43342221920E+03  0.52494394802E+03  0.18017820604E+03  0.11372518266E+04  0.89300423433E+03 0.  0.
        -24    2    4    4    0    0 -0.20893267703E+02  0.67243248747E+03  0.11962914614E+03  0.68787840491E+03  0.79142836075E+02 0.  0.
         24    2    4    4    0    0 -0.41252895149E+03 -0.14748853945E+03  0.60549059895E+02  0.44937342169E+03  0.79607024685E+02 0.  0.
         11    1    3    3    0    0  0.91910220400E+02 -0.12264311006E+03 -0.11502533714E+02  0.15369166972E+03  0.00000000000E+00 0.  1.
        -11    1    3    3    0    0  0.34151199880E+03 -0.40230083796E+03 -0.20683572656E+03  0.56679575450E+03  0.00000000000E+00 0. -1.
          4    1    6    6  502    0 -0.28048011383E+03 -0.12969984756E+03  0.66137129749E+02  0.31601465891E+03  0.00000000000E+00 0. -1.
          1    1    5    5  503    0 -0.50607248149E+02  0.43014916583E+03  0.68852317097E+02  0.43855448920E+03  0.00000000000E+00 0. -1.
         -2    1    5    5    0  503  0.29713980446E+02  0.24228332164E+03  0.50776829047E+02  0.24932391571E+03  0.00000000000E+00 0.  1.
         -3    1    6    6    0  502 -0.13204883766E+03 -0.17788691890E+02 -0.55880698540E+01  0.13335876278E+03  0.00000000000E+00 0.  1.
<mgrwt>
<rscale>  0 0.18573473E+04</rscale>
<asrwt>0</asrwt>
<pdfrwt beam="1">  1        1 0.14583841E+00 0.18573473E+04</pdfrwt>
<pdfrwt beam="2">  1       -1 0.13996763E+00 0.18573473E+04</pdfrwt>
<totfact> 0.65532378E+00</totfact>
</mgrwt>
</event>
<event>
12    1  0.1201209E-007  0.2698345E+04  0.7818608E-02  0.8335542E-01
         -1   -1    0    0    0  501 -0.00000000000E+00  0.00000000000E+00  0.83614034273E+03  0.83614034273E+03  0.00000000000E+00 0.  1.
          1   -1    0    0  501    0  0.00000000000E+00 -0.00000000000E+00 -0.21769872951E+04  0.21769872951E+04  0.00000000000E+00 0. -1.
         23    2    1    2    0    0 -0.49576200173E+03  0.10803367943E+04 -0.43053463893E+03  0.12674792952E+04  0.90753165546E+02 0.  0.
        254    2    1    2    0    0  0.49576200173E+03 -0.10803367943E+04 -0.91031231344E+03  0.17456483426E+04  0.89761465936E+03 0.  0.
        -24    2    4    4    0    0  0.33701606987E+03  0.27697282841E+01 -0.48267378879E+02  0.35007288913E+03  0.81448051504E+02 0.  0.
         24    2    4    4    0    0  0.15874593186E+03 -0.10831065225E+04 -0.86204493456E+03  0.13955754535E+04  0.78672530929E+02 0.  0.
         11    1    3    3    0    0 -0.14095233899E+03  0.23048433589E+03 -0.76054332879E+02  0.28066858127E+03  0.00000000000E+00 0. -1.
        -11    1    3    3    0    0 -0.35480966274E+03  0.84985245836E+03 -0.35448030605E+03  0.98681071393E+03  0.00000000000E+00 0.  1.
          2    1    6    6  502    0  0.57011183177E+02 -0.61683534993E+03 -0.51318904676E+03  0.80442471472E+03  0.00000000000E+00 0. -1.
          3    1    5    5  503    0  0.13892307940E+03 -0.38908678350E+02 -0.17797051208E+02  0.14536245138E+03  0.00000000000E+00 0. -1.
         -4    1    5    5    0  503  0.19809299048E+03  0.41678406634E+02 -0.30470327672E+02  0.20471043775E+03  0.00000000000E+00 0.  1.
         -1    1    6    6    0  502  0.10173474868E+03 -0.46627117261E+03 -0.34885588780E+03  0.59115073877E+03  0.00000000000E+00 0.  1.
<mgrwt>
<rscale>  0 0.26983453E+04</rscale>
<asrwt>0</asrwt>
<pdfrwt beam="1">  1        1 0.33492112E+00 0.26983453E+04</pdfrwt>
<pdfrwt beam="2">  1       -1 0.12863698E+00 0.26983453E+04</pdfrwt>
<totfact> 0.10270500E+00</totfact>
</mgrwt>
</event>
<event>
12    1  0.1201209E-007  0.2708440E+04  0.7818608E-02  0.8332272E-01
          2   -1    0    0  501    0  0.00000000000E+00  0.00000000000E+00  0.17728065374E+04  0.17728065374E+04  0.00000000000E+00 0. -1.
         -2   -1    0    0    0  501 -0.00000000000E+00 -0.00000000000E+00 -0.10344677643E+04  0.10344677643E+04  0.00000000000E+00 0.  1.
         23    2    1    2    0    0  0.59572411471E+03 -0.27365890977E+03  0.13752988157E+04  0.15265672890E+04  0.95835461236E+02 0.  0.
        254    2    1    2    0    0 -0.59572411471E+03  0.27365890977E+03 -0.63696004256E+03  0.12807070127E+04  0.89705960601E+03 0.  0.
        -24    2    4    4    0    0 -0.16815737683E+03  0.15358175642E+03  0.21074839441E+03  0.32022360192E+03  0.79145500141E+02 0.  0.
         24    2    4    4    0    0 -0.42756673787E+03  0.12007715336E+03 -0.84770843697E+03  0.96048341075E+03  0.81773773972E+02 0.  0.
         13    1    3    3    0    0  0.89476129829E+01 -0.78527685776E+01  0.69601232179E+02  0.70612019326E+02  0.00000000000E+00 0.  1.
        -13    1    3    3    0    0  0.58677650172E+03 -0.26580614120E+03  0.13056975835E+04  0.14559552697E+04  0.00000000000E+00 0. -1.
          4    1    6    6  502    0 -0.66972374542E+02  0.51476979603E+02 -0.15352436661E+03  0.17522816419E+03  0.00000000000E+00 0. -1.
          3    1    5    5  503    0 -0.35581068498E+02 -0.32258912234E+01  0.33034199935E+02  0.48658783123E+02  0.00000000000E+00 0. -1.
         -4    1    5    5    0  503 -0.13257630833E+03  0.15680764764E+03  0.17771419448E+03  0.27156481880E+03  0.00000000000E+00 0.  1.
         -3    1    6    6    0  502 -0.36059436333E+03  0.68600173753E+02 -0.69418407036E+03  0.78525524656E+03  0.00000000000E+00 0.  1.
<mgrwt>
<rscale>  0 0.27084396E+04</rscale>
<asrwt>0</asrwt>
<pdfrwt beam="1">  1        2 0.27273947E+00 0.27084396E+04</pdfrwt>
<pdfrwt beam="2">  1       -2 0.15914889E+00 0.27084396E+04</pdfrwt>
<totfact> 0.20021048E+00</totfact>
</mgrwt>
</event>
<event>
12    1  0.1201209E-007  0.2772940E+04  0.7818608E-02  0.8311719E-01
          2   -1    0    0  501    0  0.00000000000E+00  0.00000000000E+00  0.29084704049E+04  0.29084704049E+04  0.00000000000E+00 0. -1.
         -2   -1    0    0    0  501 -0.00000000000E+00 -0.00000000000E+00 -0.66093144093E+03  0.66093144093E+03  0.00000000000E+00 0.  1.
         23    2    1    2    0    0 -0.75860570020E+02 -0.11884996141E+04  0.59933642464E+03  0.13361115930E+04  0.87771751247E+02 0.  0.
        254    2    1    2    0    0  0.75860570020E+02  0.11884996141E+04  0.16482025393E+04  0.22332902528E+04  0.92343250110E+03 0.  0.
        -24    2    4    4    0    0  0.32358867065E+03  0.29129669230E+03  0.14965120847E+03  0.46738047159E+03  0.80533411132E+02 0.  0.
         24    2    4    4    0    0 -0.24772810063E+03  0.89720292175E+03  0.14985513308E+04  0.17659097812E+04  0.80243190768E+02 0.  0.
         13    1    3    3    0    0 -0.62420156862E+02 -0.59347872464E+03  0.34081091133E+03  0.68721565019E+03  0.00000000000E+00 0.  1.
        -13    1    3    3    0    0 -0.13440413158E+02 -0.59502088941E+03  0.25852551331E+03  0.64889594279E+03  0.00000000000E+00 0. -1.
          2    1    6    6  502    0 -0.19955800686E+02  0.99854933721E+02  0.12234473466E+03  0.15917749800E+03  0.00000000000E+00 0. -1.
          1    1    5    5  503    0  0.93117039270E+02  0.39008585024E+02  0.29869106961E+02  0.10528350421E+03  0.00000000000E+00 0. -1.
         -2    1    5    5    0  503  0.23047163138E+03  0.25228810727E+03  0.11978210151E+03  0.36209696738E+03  0.00000000000E+00 0.  1.
         -1    1    6    6    0  502 -0.22777229994E+03  0.79734798803E+03  0.13762065962E+04  0.16067322832E+04  0.00000000000E+00 0.  1.
<mgrwt>
<rscale>  0 0.27729403E+04</rscale>
<asrwt>0</asrwt>
<pdfrwt beam="1">  1        2 0.44745698E+00 0.27729403E+04</pdfrwt>
<pdfrwt beam="2">  1       -2 0.10168176E+00 0.27729403E+04</pdfrwt>
<totfact> 0.13737288E+00</totfact>
</mgrwt>
</event>
<event>
12    1  0.1201209E-007  0.1650850E+04  0.7818608E-02  0.8789904E-01
         -2   -1    0    0    0  501 -0.00000000000E+00  0.00000000000E+00  0.17843094528E+03  0.17843094528E+03  0.00000000000E+00 0.  1.
          2   -1    0    0  501    0  0.00000000000E+00 -0.00000000000E+00 -0.38184331106E+04  0.38184331106E+04  0.00000000000E+00 0. -1.
         23    2    1    2    0    0  0.20780935551E+03 -0.43158936391E+02  0.11018400547E+02  0.23121525592E+03  0.91058593191E+02 0.  0.
        254    2    1    2    0    0 -0.20780935551E+03  0.43158936391E+02 -0.36510205658E+04  0.37656487999E+04  0.89728049691E+03 0.  0.
        -24    2    4    4    0    0 -0.33419700769E+03  0.38159887388E+03 -0.26300842978E+04  0.26797401684E+04  0.79740934080E+02 0.  0.
         24    2    4    4    0    0  0.12638765218E+03 -0.33843993749E+03 -0.10209362681E+04  0.10859086315E+04  0.79820188698E+02 0.  0.
         11    1    3    3    0    0  0.76540298934E+01  0.28916574401E+01 -0.21745440507E+02  0.23233812412E+02  0.00000000000E+00 0. -1.
        -11    1    3    3    0    0  0.20015532562E+03 -0.46050593831E+02  0.32763841054E+02  0.20798144351E+03  0.00000000000E+00 0.  1.
          2    1    6    6  502    0  0.56951961568E+02 -0.13712913806E+03 -0.53783986188E+03  0.55796025258E+03  0.00000000000E+00 0. -1.
          1    1    5    5  503    0 -0.68603387492E+02  0.73905523557E+02 -0.70823456755E+03  0.71537728078E+03  0.00000000000E+00 0. -1.
         -2    1    5    5    0  503 -0.26559362019E+03  0.30769335032E+03 -0.19218497302E+04  0.19643628877E+04  0.00000000000E+00 0.  1.
         -1    1    6    6    0  502  0.69435690607E+02 -0.20131079943E+03 -0.48309640621E+03  0.52794837891E+03  0.00000000000E+00 0.  1.
<mgrwt>
<rscale>  0 0.16508502E+04</rscale>
<asrwt>0</asrwt>
<pdfrwt beam="1">  1        2 0.58745128E+00 0.16508502E+04</pdfrwt>
<pdfrwt beam="2">  1       -2 0.27450913E-01 0.16508502E+04</pdfrwt>
<totfact> 0.55773720E+00</totfact>
</mgrwt>
</event>
<event>
12    1  0.1201209E-007  0.2638672E+04  0.7818608E-02  0.8355183E-01
          2   -1    0    0  501    0  0.00000000000E+00  0.00000000000E+00  0.25765135637E+04  0.25765135637E+04  0.00000000000E+00 0. -1.
         -2   -1    0    0    0  501 -0.00000000000E+00 -0.00000000000E+00 -0.67558256759E+03  0.67558256759E+03  0.00000000000E+00 0.  1.
         23    2    1    2    0    0  0.11237362838E+04 -0.24724318695E+03  0.69029444990E+03  0.13449044194E+04  0.91373085995E+02 0.  0.
        254    2    1    2    0    0 -0.11237362838E+04  0.24724318695E+03  0.12106365462E+04  0.19071917118E+04  0.92077518957E+03 0.  0.
        -24    2    4    4    0    0 -0.50164201869E+03  0.57047994816E+03  0.55601244773E+03  0.94463331571E+03  0.78039560219E+02 0.  0.
         24    2    4    4    0    0 -0.62209426510E+03 -0.32323676121E+03  0.65462409846E+03  0.96255839612E+03  0.80639179041E+02 0.  0.
         11    1    3    3    0    0  0.31417640855E+03 -0.61434031493E+02  0.14602822995E+03  0.35185963090E+03  0.00000000000E+00 0. -1.
        -11    1    3    3    0    0  0.80955987524E+03 -0.18580915546E+03  0.54426621995E+03  0.99304478853E+03  0.00000000000E+00 0.  1.
          2    1    6    6  502    0 -0.29794296944E+03 -0.14989197706E+03  0.36622210859E+03  0.49533448360E+03  0.00000000000E+00 0. -1.
          3    1    5    5  503    0 -0.38467320435E+03  0.48332417893E+03  0.44451227364E+03  0.76103015545E+03  0.00000000000E+00 0. -1.
         -4    1    5    5    0  503 -0.11696881434E+03  0.87155769230E+02  0.11150017409E+03  0.18360316027E+03  0.00000000000E+00 0.  1.
         -1    1    6    6    0  502 -0.32415129566E+03 -0.17334478415E+03  0.28840198987E+03  0.46722391252E+03  0.00000000000E+00 0.  1.
<mgrwt>
<rscale>  0 0.26386721E+04</rscale>
<asrwt>0</asrwt>
<pdfrwt beam="1">  1        2 0.39638670E+00 0.26386721E+04</pdfrwt>
<pdfrwt beam="2">  1       -2 0.10393578E+00 0.26386721E+04</pdfrwt>
<totfact> 0.20859525E+00</totfact>
</mgrwt>
</event>
<event>
12    1  0.1201209E-007  0.2725199E+04  0.7818608E-02  0.8326875E-01
         -2   -1    0    0    0  501 -0.00000000000E+00  0.00000000000E+00  0.28620440096E+04  0.28620440096E+04  0.00000000000E+00 0.  1.
          2   -1    0    0  501    0  0.00000000000E+00 -0.00000000000E+00 -0.64872425821E+03  0.64872425821E+03  0.00000000000E+00 0. -1.
         23    2    1    2    0    0 -0.10093187632E+04  0.31498998148E+03  0.22318656927E+03  0.10843780478E+04  0.90113548806E+02 0.  0.
        254    2    1    2    0    0  0.10093187632E+04 -0.31498998148E+03  0.19901331821E+04  0.24263902200E+04  0.89933106433E+03 0.  0.
        -24    2    4    4    0    0  0.29174897277E+03  0.28845770760E+03  0.40215742704E+03  0.58012504431E+03  0.80555314729E+02 0.  0.
         24    2    4    4    0    0  0.71756979039E+03 -0.60344768908E+03  0.15879757551E+04  0.18462651757E+04  0.89289321187E+02 0.  0.
         13    1    3    3    0    0 -0.63945874723E+03  0.21154312924E+03  0.99207904123E+02  0.68080848495E+03  0.00000000000E+00 0.  1.
        -13    1    3    3    0    0 -0.36986001592E+03  0.10344685224E+03  0.12397866515E+03  0.40356956281E+03  0.00000000000E+00 0. -1.
          4    1    6    6  502    0  0.18523074742E+03 -0.11334870199E+03  0.40466726718E+03  0.45925369368E+03  0.00000000000E+00 0. -1.
          3    1    5    5  503    0  0.36767611332E+02  0.80064759241E+02  0.71589674144E+02  0.11352226372E+03  0.00000000000E+00 0. -1.
         -4    1    5    5    0  503  0.25498136144E+03  0.20839294836E+03  0.33056775290E+03  0.46660278060E+03  0.00000000000E+00 0.  1.
         -3    1    6    6    0  502  0.53233904297E+03 -0.49009898709E+03  0.11833084879E+04  0.13870114820E+04  0.00000000000E+00 0.  1.
<mgrwt>
<rscale>  0 0.27251990E+04</rscale>
<asrwt>0</asrwt>
<pdfrwt beam="1">  1        2 0.99803734E-01 0.27251990E+04</pdfrwt>
<pdfrwt beam="2">  1       -2 0.44031446E+00 0.27251990E+04</pdfrwt>
<totfact> 0.15857829E-01</totfact>
</mgrwt>
</event>
<event>
12    1  0.1201209E-007  0.1842532E+04  0.7818608E-02  0.8684003E-01
          2   -1    0    0  501    0  0.00000000000E+00  0.00000000000E+00  0.18398465196E+04  0.18398465196E+04  0.00000000000E+00 0. -1.
         -2   -1    0    0    0  501 -0.00000000000E+00 -0.00000000000E+00 -0.46130511088E+03  0.46130511088E+03  0.00000000000E+00 0.  1.
         23    2    1    2    0    0 -0.41072805853E+03 -0.56612557334E+03  0.53584780466E+03  0.88577768354E+03  0.90958958028E+02 0.  0.
        254    2    1    2    0    0  0.41072805853E+03  0.56612557334E+03  0.84269360410E+03  0.14153739470E+04  0.89663548701E+03 0.  0.
        -24    2    4    4    0    0  0.59267920360E+03  0.40046578525E+03  0.23736121377E+03  0.75778652858E+03  0.79111273296E+02 0.  0.
         24    2    4    4    0    0 -0.18195114506E+03  0.16565978808E+03  0.60533239033E+03  0.65758741841E+03  0.73787027870E+02 0.  0.
         13    1    3    3    0    0 -0.21565171707E+03 -0.26858609892E+03  0.31670153793E+03  0.46791454319E+03  0.00000000000E+00 0.  1.
        -13    1    3    3    0    0 -0.19507634147E+03 -0.29753947442E+03  0.21914626673E+03  0.41786314034E+03  0.00000000000E+00 0. -1.
          4    1    6    6  502    0 -0.16251659963E+03  0.16885269335E+03  0.52598950179E+03  0.57583663760E+03  0.00000000000E+00 0. -1.
          3    1    5    5  503    0  0.51317417648E+03  0.35653987018E+03  0.17971014705E+03  0.65020316162E+03  0.00000000000E+00 0. -1.
         -4    1    5    5    0  503  0.79505027119E+02  0.43925915070E+02  0.57651066718E+02  0.10758336696E+03  0.00000000000E+00 0.  1.
         -3    1    6    6    0  502 -0.19434545433E+02 -0.31929052694E+01  0.79342888539E+02  0.81750780803E+02  0.00000000000E+00 0.  1.
<mgrwt>
<rscale>  0 0.18425315E+04</rscale>
<asrwt>0</asrwt>
<pdfrwt beam="1">  1        2 0.28305331E+00 0.18425315E+04</pdfrwt>
<pdfrwt beam="2">  1       -2 0.70970018E-01 0.18425315E+04</pdfrwt>
<totfact> 0.13914989E+01</totfact>
</mgrwt>
</event>
<event>
12    1  0.1201209E-007  0.1262077E+04  0.7818608E-02  0.9060191E-01
         -1   -1    0    0    0  501 -0.00000000000E+00  0.00000000000E+00  0.40863092126E+03  0.40863092126E+03  0.00000000000E+00 0.  1.
          1   -1    0    0  501    0  0.00000000000E+00 -0.00000000000E+00 -0.97449619508E+03  0.97449619508E+03  0.00000000000E+00 0. -1.
         23    2    1    2    0    0 -0.13928778098E+02  0.16965385056E+03  0.17481326778E+03  0.26085933562E+03  0.92257652922E+02 0.  0.
        254    2    1    2    0    0  0.13928778098E+02 -0.16965385056E+03 -0.74067854160E+03  0.11222677807E+04  0.82577468463E+03 0.  0.
        -24    2    4    4    0    0  0.78114821179E+01  0.32822864891E+03 -0.26878234550E+03  0.43168920497E+03  0.79476758966E+02 0.  0.
         24    2    4    4    0    0  0.61172959804E+01 -0.49788249947E+03 -0.47189619610E+03  0.69057857575E+03  0.79299084526E+02 0.  0.
         11    1    3    3    0    0 -0.14717696251E+02  0.68276238957E+02  0.14740769241E+02  0.71383090903E+02  0.00000000000E+00 0. -1.
        -11    1    3    3    0    0  0.78891815244E+00  0.10137761160E+03  0.16007249853E+03  0.18947624472E+03  0.00000000000E+00 0.  1.
          4    1    6    6  502    0 -0.33152699697E+01 -0.48607973723E+03 -0.44162999381E+03  0.65675075439E+03  0.00000000000E+00 0. -1.
          3    1    5    5  503    0 -0.15965212506E+02  0.23130167675E+03 -0.14822821273E+03  0.27518531343E+03  0.00000000000E+00 0. -1.
         -4    1    5    5    0  503  0.23776694623E+02  0.96926972159E+02 -0.12055413277E+03  0.15650389154E+03  0.00000000000E+00 0.  1.
         -3    1    6    6    0  502  0.94325659500E+01 -0.11802762237E+02 -0.30266202295E+02  0.33827821364E+02  0.00000000000E+00 0.  1.
<mgrwt>
<rscale>  0 0.12620765E+04</rscale>
<asrwt>0</asrwt>
<pdfrwt beam="1">  1        1 0.14992249E+00 0.12620765E+04</pdfrwt>
<pdfrwt beam="2">  1       -1 0.62866296E-01 0.12620765E+04</pdfrwt>
<totfact> 0.40073454E+01</totfact>
</mgrwt>
</event>
<event>
12    1  0.1201209E-007  0.1697476E+04  0.7818608E-02  0.8762805E-01
         -2   -1    0    0    0  501 -0.00000000000E+00  0.00000000000E+00  0.64621152421E+03  0.64621152421E+03  0.00000000000E+00 0.  1.
          2   -1    0    0  501    0  0.00000000000E+00 -0.00000000000E+00 -0.11147377686E+04  0.11147377686E+04  0.00000000000E+00 0. -1.
         23    2    1    2    0    0  0.22279332822E+03 -0.22035140303E+03 -0.70589893362E+03  0.77813135902E+03  0.94886771926E+02 0.  0.
        254    2    1    2    0    0 -0.22279332822E+03  0.22035140303E+03  0.23737268921E+03  0.98281793381E+03  0.90077393919E+03 0.  0.
        -24    2    4    4    0    0  0.14278570386E+03 -0.19665004121E+03  0.32720315817E+03  0.41547710805E+03  0.80624590947E+02 0.  0.
         24    2    4    4    0    0 -0.36557903208E+03  0.41700144424E+03 -0.89830468956E+02  0.56734082576E+03  0.79169856797E+02 0.  0.
         13    1    3    3    0    0  0.16924989751E+03 -0.16076886369E+03 -0.41226198144E+03  0.47376375619E+03  0.00000000000E+00 0. -1.
        -13    1    3    3    0    0  0.53543430708E+02 -0.59582539349E+02 -0.29363695218E+03  0.30436760283E+03  0.00000000000E+00 0.  1.
          2    1    6    6  502    0 -0.82491320214E+01  0.26184561781E+02  0.85010964535E+01  0.28739312721E+02  0.00000000000E+00 0. -1.
          1    1    5    5  503    0 -0.53206039949E+01 -0.44178167033E+01  0.34856700411E+02  0.35536115359E+02  0.00000000000E+00 0. -1.
         -2    1    5    5    0  503  0.14810630785E+03 -0.19223222450E+03  0.29234645776E+03  0.37994099269E+03  0.00000000000E+00 0.  1.
         -1    1    6    6    0  502 -0.35732990006E+03  0.39081688246E+03 -0.98331565410E+02  0.53860151304E+03  0.00000000000E+00 0.  1.
<mgrwt>
<rscale>  0 0.16974762E+04</rscale>
<asrwt>0</asrwt>
<pdfrwt beam="1">  1        2 0.17149812E+00 0.16974762E+04</pdfrwt>
<pdfrwt beam="2">  1       -2 0.99417159E-01 0.16974762E+04</pdfrwt>
<totfact> 0.17009465E+01</totfact>
</mgrwt>
</event>
<event>
12    1  0.1201209E-007  0.1580909E+04  0.7818608E-02  0.8832363E-01
         -2   -1    0    0    0  501 -0.00000000000E+00  0.00000000000E+00  0.33582687354E+03  0.33582687354E+03  0.00000000000E+00 0.  1.
          2   -1    0    0  501    0  0.00000000000E+00 -0.00000000000E+00 -0.18605369024E+04  0.18605369024E+04  0.00000000000E+00 0. -1.
         23    2    1    2    0    0  0.32326710091E+03 -0.28977075764E+03 -0.11532558944E+03  0.46355276346E+03  0.11450966081E+03 0.  0.
        254    2    1    2    0    0 -0.32326710091E+03  0.28977075764E+03 -0.14093844394E+04  0.17328110125E+04  0.90983558757E+03 0.  0.
        -24    2    4    4    0    0  0.30268641866E+03  0.14389596623E+03 -0.64114346418E+03  0.72787859511E+03  0.80107368090E+02 0.  0.
         24    2    4    4    0    0 -0.62595351957E+03  0.14587479141E+03 -0.76824097522E+03  0.10049324174E+04  0.81226252023E+02 0.  0.
         11    1    3    3    0    0  0.35647741225E+02 -0.34996354400E+02  0.23242180187E+02  0.55097234192E+02  0.00000000000E+00 0. -1.
        -11    1    3    3    0    0  0.28761935968E+03 -0.25477440324E+03 -0.13856776963E+03  0.40845552927E+03  0.00000000000E+00 0.  1.
          4    1    6    6  502    0 -0.11850016570E+03  0.29503743442E+02 -0.10010574033E+03  0.15790477952E+03  0.00000000000E+00 0. -1.
          3    1    5    5  503    0  0.13135881373E+02 -0.98512637068E+01 -0.24295139997E+02  0.29323243401E+02  0.00000000000E+00 0. -1.
         -4    1    5    5    0  503  0.28955053729E+03  0.15374722994E+03 -0.61684832418E+03  0.69855535171E+03  0.00000000000E+00 0.  1.
         -3    1    6    6    0  502 -0.50745335387E+03  0.11637104796E+03 -0.66813523489E+03  0.84702763784E+03  0.00000000000E+00 0.  1.
<mgrwt>
<rscale>  0 0.15809090E+04</rscale>
<asrwt>0</asrwt>
<pdfrwt beam="1">  1        2 0.28623645E+00 0.15809090E+04</pdfrwt>
<pdfrwt beam="2">  1       -2 0.51665673E-01 0.15809090E+04</pdfrwt>
<totfact> 0.27138082E+01</totfact>
</mgrwt>
</event>
<event>
12    1  0.1201209E-007  0.1379639E+04  0.7818608E-02  0.8968690E-01
          2   -1    0    0  501    0  0.00000000000E+00  0.00000000000E+00  0.44563248928E+03  0.44563248928E+03  0.00000000000E+00 0.  1.
         -2   -1    0    0    0  501 -0.00000000000E+00 -0.00000000000E+00 -0.10678103181E+04  0.10678103181E+04  0.00000000000E+00 0. -1.
         23    2    1    2    0    0 -0.79991055839E+02  0.16675507899E+03  0.19175789873E+03  0.28153211085E+03  0.91013253596E+02 0.  0.
        254    2    1    2    0    0  0.79991055839E+02 -0.16675507899E+03 -0.81393572753E+03  0.12319106965E+04  0.90603905559E+03 0.  0.
        -24    2    4    4    0    0 -0.12031430728E+03 -0.48726434341E+02  0.16201882448E+03  0.22560997449E+03  0.88317400112E+02 0.  0.
         24    2    4    4    0    0  0.20030536312E+03 -0.11802864465E+03 -0.97595455201E+03  0.10063007220E+04  0.78107977287E+02 0.  0.
         11    1    3    3    0    0 -0.49196135361E+01 -0.11255980380E+02  0.66358947434E+01  0.13961904982E+02  0.00000000000E+00 0. -1.
        -11    1    3    3    0    0 -0.75071442303E+02  0.17801105937E+03  0.18512200399E+03  0.26757020587E+03  0.00000000000E+00 0.  1.
          4    1    6    6  502    0  0.12746478687E+03 -0.11310913704E+03 -0.73681571675E+03  0.75626605716E+03  0.00000000000E+00 0. -1.
          3    1    5    5  503    0 -0.61097955084E+02 -0.41318885461E+02  0.14638702841E+03  0.16391879849E+03  0.00000000000E+00 0. -1.
         -4    1    5    5    0  503 -0.59216352195E+02 -0.74075488800E+01  0.15631796069E+02  0.61691175998E+02  0.00000000000E+00 0.  1.
         -3    1    6    6    0  502  0.72840576244E+02 -0.49195076081E+01 -0.23913883526E+03  0.25003466486E+03  0.00000000000E+00 0.  1.
<mgrwt>
<rscale>  0 0.13796390E+04</rscale>
<asrwt>0</asrwt>
<pdfrwt beam="1">  1        2 0.68558845E-01 0.13796390E+04</pdfrwt>
<pdfrwt beam="2">  1       -2 0.16427851E+00 0.13796390E+04</pdfrwt>
<totfact> 0.16045729E+01</totfact>
</mgrwt>
</event>
<event>
12    1  0.1201209E-007  0.2795504E+04  0.7818608E-02  0.8304665E-01
          1   -1    0    0  501    0  0.00000000000E+00  0.00000000000E+00  0.22240140192E+04  0.22240140192E+04  0.00000000000E+00 0. -1.
         -1   -1    0    0    0  501 -0.00000000000E+00 -0.00000000000E+00 -0.87846170895E+03  0.87846170895E+03  0.00000000000E+00 0.  1.
         23    2    1    2    0    0  0.11648671511E+04 -0.37369282269E+03  0.89569026886E+03  0.15187060124E+04  0.87436199068E+02 0.  0.
        254    2    1    2    0    0 -0.11648671511E+04  0.37369282269E+03  0.44986204142E+03  0.15837697158E+04  0.89966040873E+03 0.  0.
        -24    2    4    4    0    0 -0.16619544207E+03  0.43880315969E+03  0.31475833171E+03  0.57066625151E+03  0.80112578993E+02 0.  0.
         24    2    4    4    0    0 -0.99867170900E+03 -0.65110337004E+02  0.13510370971E+03  0.10131034643E+04  0.80876935226E+02 0.  0.
         13    1    3    3    0    0  0.96473354012E+03 -0.32096422713E+03  0.78119460351E+03  0.12821832346E+04  0.00000000000E+00 0.  1.
        -13    1    3    3    0    0  0.20013361095E+03 -0.52728595562E+02  0.11449566535E+03  0.23652277777E+03  0.00000000000E+00 0. -1.
          4    1    6    6  502    0 -0.99385154672E+03 -0.69039774442E+02  0.12930940607E+03  0.10046035586E+04  0.00000000000E+00 0. -1.
          3    1    5    5  503    0 -0.87215993464E+02  0.31001952072E+03  0.18429262148E+03  0.37105592985E+03  0.00000000000E+00 0. -1.
         -4    1    5    5    0  503 -0.78979448601E+02  0.12878363897E+03  0.13046571023E+03  0.19961032167E+03  0.00000000000E+00 0.  1.
         -3    1    6    6    0  502 -0.48201622858E+01  0.39294374383E+01  0.57943036319E+01  0.84999057420E+01  0.00000000000E+00 0.  1.
<mgrwt>
<rscale>  0 0.27955044E+04</rscale>
<asrwt>0</asrwt>
<pdfrwt beam="1">  1        1 0.34215600E+00 0.27955044E+04</pdfrwt>
<pdfrwt beam="2">  1       -1 0.13514796E+00 0.27955044E+04</pdfrwt>
<totfact> 0.83435995E-01</totfact>
</mgrwt>
</event>
<event>
12    1  0.1201209E-007  0.1429370E+04  0.7818608E-02  0.8932829E-01
          2   -1    0    0  501    0  0.00000000000E+00  0.00000000000E+00  0.19710017492E+04  0.19710017492E+04  0.00000000000E+00 0. -1.
         -2   -1    0    0    0  501 -0.00000000000E+00 -0.00000000000E+00 -0.25914487734E+03  0.25914487734E+03  0.00000000000E+00 0.  1.
         23    2    1    2    0    0 -0.17602392603E+03  0.27935642145E+02 -0.79558398718E+02  0.21596107531E+03  0.92438220480E+02 0.  0.
        254    2    1    2    0    0  0.17602392603E+03 -0.27935642145E+02  0.17914152706E+04  0.20141855513E+04  0.90333268540E+03 0.  0.
        -24    2    4    4    0    0  0.37403184135E+03 -0.26778201323E+03  0.15293177993E+04  0.15990999987E+04  0.81858717496E+02 0.  0.
         24    2    4    4    0    0 -0.19800791532E+03  0.23984637109E+03  0.26209747132E+03  0.41508555257E+03  0.82870472622E+02 0.  0.
         13    1    3    3    0    0 -0.32799192309E+02  0.29791740346E+01 -0.61100420194E+02  0.69411265958E+02  0.00000000000E+00 0. -1.
        -13    1    3    3    0    0 -0.14322473372E+03  0.24956468110E+02 -0.18457978525E+02  0.14654980935E+03  0.00000000000E+00 0.  1.
          4    1    6    6  502    0 -0.17687189818E+03  0.23776529788E+03  0.22401708713E+03  0.37148305556E+03  0.00000000000E+00 0. -1.
          3    1    5    5  503    0  0.25127034957E+03 -0.16380506837E+03  0.86314514955E+03  0.91377701776E+03  0.00000000000E+00 0. -1.
         -4    1    5    5    0  503  0.12276149178E+03 -0.10397694486E+03  0.66617264973E+03  0.68532298092E+03  0.00000000000E+00 0.  1.
         -3    1    6    6    0  502 -0.21136017142E+02  0.20810732082E+01  0.38080384184E+02  0.43602497015E+02  0.00000000000E+00 0.  1.
<mgrwt>
<rscale>  0 0.14293705E+04</rscale>
<asrwt>0</asrwt>
<pdfrwt beam="1">  1        2 0.30323103E+00 0.14293705E+04</pdfrwt>
<pdfrwt beam="2">  1       -2 0.39868444E-01 0.14293705E+04</pdfrwt>
<totfact> 0.40106297E+01</totfact>
</mgrwt>
</event>
<event>
12    1  0.1201209E-007  0.2655614E+04  0.7818608E-02  0.8349552E-01
          1   -1    0    0  501    0  0.00000000000E+00  0.00000000000E+00  0.12630991033E+04  0.12630991033E+04  0.00000000000E+00 0. -1.
         -1   -1    0    0    0  501 -0.00000000000E+00 -0.00000000000E+00 -0.13958295483E+04  0.13958295483E+04  0.00000000000E+00 0.  1.
         23    2    1    2    0    0  0.88550079320E+03  0.27279954432E+03 -0.77834529466E+03  0.12135285964E+04  0.91098904766E+02 0.  0.
        254    2    1    2    0    0 -0.88550079320E+03 -0.27279954432E+03  0.64561484958E+03  0.14454000552E+04  0.90212612168E+03 0.  0.
        -24    2    4    4    0    0 -0.52666622132E+03 -0.29694107040E+03 -0.95955050765E+02  0.61712395958E+03  0.77995523871E+02 0.  0.
         24    2    4    4    0    0 -0.35883457188E+03  0.24141526078E+02  0.74156990035E+03  0.82827609562E+03  0.82281894832E+02 0.  0.
         13    1    3    3    0    0  0.66488975344E+03  0.18403505029E+03 -0.53251755399E+03  0.87150572532E+03  0.00000000000E+00 0. -1.
        -13    1    3    3    0    0  0.22061103976E+03  0.88764494028E+02 -0.24582774067E+03  0.34202287109E+03  0.00000000000E+00 0.  1.
          4    1    6    6  502    0 -0.94042470107E+01  0.15703760452E+02  0.24807924191E+02  0.30829872799E+02  0.00000000000E+00 0. -1.
          1    1    5    5  503    0 -0.12573170227E+03 -0.59693316964E+02 -0.54284180028E+02  0.14939385947E+03  0.00000000000E+00 0. -1.
         -2    1    5    5    0  503 -0.40093451905E+03 -0.23724775343E+03 -0.41670870736E+02  0.46773010010E+03  0.00000000000E+00 0.  1.
         -3    1    6    6    0  502 -0.34943032487E+03  0.84377656259E+01  0.71676197615E+03  0.79744622282E+03  0.00000000000E+00 0.  1.
<mgrwt>
<rscale>  0 0.26556137E+04</rscale>
<asrwt>0</asrwt>
<pdfrwt beam="1">  1        1 0.19432294E+00 0.26556137E+04</pdfrwt>
<pdfrwt beam="2">  1       -1 0.21474301E+00 0.26556137E+04</pdfrwt>
<totfact> 0.10061854E+00</totfact>
</mgrwt>
</event>
<event>
12    1  0.1201209E-007  0.2590324E+04  0.7818608E-02  0.8371495E-01
         -2   -1    0    0    0  501 -0.00000000000E+00  0.00000000000E+00  0.13340758421E+04  0.13340758421E+04  0.00000000000E+00 0. -1.
          2   -1    0    0  501    0  0.00000000000E+00 -0.00000000000E+00 -0.12573829490E+04  0.12573829490E+04  0.00000000000E+00 0.  1.
         23    2    1    2    0    0 -0.17735403779E+03  0.13424673408E+03 -0.10780793487E+04  0.11045434514E+04  0.91019304038E+02 0.  0.
        254    2    1    2    0    0  0.17735403779E+03 -0.13424673408E+03  0.11547722418E+04  0.14869153397E+04  0.90991299402E+03 0.  0.
        -24    2    4    4    0    0  0.18550145066E+03  0.29522224377E+03  0.92897556772E+03  0.99550752534E+03  0.80452881641E+02 0.  0.
         24    2    4    4    0    0 -0.81474128684E+01 -0.42946897786E+03  0.22579667408E+03  0.49140781437E+03  0.77379058664E+02 0.  0.
         13    1    3    3    0    0 -0.18572330229E+03  0.13267149358E+03 -0.10629799284E+04  0.10872079831E+04  0.00000000000E+00 0.  1.
        -13    1    3    3    0    0  0.83692645006E+01  0.15752404992E+01 -0.15099420228E+02  0.17335468327E+02  0.00000000000E+00 0. -1.
          2    1    6    6  502    0  0.16978394007E+02 -0.75354506982E+02  0.68010215919E+02  0.10291723400E+03  0.00000000000E+00 0. -1.
          3    1    5    5  503    0  0.47332647643E+02  0.11444837063E+03  0.24230537275E+03  0.27212258770E+03  0.00000000000E+00 0. -1.
         -4    1    5    5    0  503  0.13816880301E+03  0.18077387314E+03  0.68667019498E+03  0.72338493764E+03  0.00000000000E+00 0.  1.
         -1    1    6    6    0  502 -0.25125806875E+02 -0.35411447087E+03  0.15778645816E+03  0.38849058037E+03  0.00000000000E+00 0.  1.
<mgrwt>
<rscale>  0 0.25903237E+04</rscale>
<asrwt>0</asrwt>
<pdfrwt beam="1">  1        2 0.19344353E+00 0.25903237E+04</pdfrwt>
<pdfrwt beam="2">  1       -2 0.20524244E+00 0.25903237E+04</pdfrwt>
<totfact> 0.19054220E+00</totfact>
</mgrwt>
</event>
<event>
12    1  0.1201209E-007  0.2398664E+04  0.7818608E-02  0.8440004E-01
         -1   -1    0    0    0  501 -0.00000000000E+00  0.00000000000E+00  0.67350496815E+03  0.67350496815E+03  0.00000000000E+00 0.  1.
          1   -1    0    0  501    0  0.00000000000E+00 -0.00000000000E+00 -0.21356896735E+04  0.21356896735E+04  0.00000000000E+00 0. -1.
         23    2    1    2    0    0  0.98106001951E+03  0.26424161723E+03 -0.82064932295E+03  0.13089590259E+04  0.87212533537E+02 0.  0.
        254    2    1    2    0    0 -0.98106001951E+03 -0.26424161723E+03 -0.64153538237E+03  0.15002356158E+04  0.89824098202E+03 0.  0.
        -24    2    4    4    0    0 -0.13040656787E+03 -0.20619371523E+03 -0.58799119552E+03  0.64221283269E+03  0.84746417740E+02 0.  0.
         24    2    4    4    0    0 -0.85065345164E+03 -0.58047902001E+02 -0.53544186857E+02  0.85802278307E+03  0.79719900915E+02 0.  0.
         13    1    3    3    0    0  0.28637836224E+03  0.44105191610E+02 -0.20435508490E+03  0.35456851949E+03  0.00000000000E+00 0. -1.
        -13    1    3    3    0    0  0.69468165727E+03  0.22013642562E+03 -0.61629423805E+03  0.95439050639E+03  0.00000000000E+00 0.  1.
          2    1    6    6  502    0 -0.36333679516E+03  0.11223978044E+02 -0.65519468383E+01  0.36356915767E+03  0.00000000000E+00 0. -1.
          3    1    5    5  503    0 -0.40294868354E+02 -0.76950076322E+02 -0.11805196831E+03  0.14656485897E+03  0.00000000000E+00 0. -1.
         -4    1    5    5    0  503 -0.90111699518E+02 -0.12924363891E+03 -0.46993922720E+03  0.49564797372E+03  0.00000000000E+00 0.  1.
         -1    1    6    6    0  502 -0.48731665648E+03 -0.69271880045E+02 -0.46992240018E+02  0.49445362540E+03  0.00000000000E+00 0.  1.
<mgrwt>
<rscale>  0 0.23986643E+04</rscale>
<asrwt>0</asrwt>
<pdfrwt beam="1">  1        1 0.32856764E+00 0.23986643E+04</pdfrwt>
<pdfrwt beam="2">  1       -1 0.10361615E+00 0.23986643E+04</pdfrwt>
<totfact> 0.18959827E+00</totfact>
</mgrwt>
</event>
<event>
12    1  0.1201209E-007  0.1482400E+04  0.7818608E-02  0.8896242E-01
         -2   -1    0    0    0  501 -0.00000000000E+00  0.00000000000E+00  0.47636073524E+03  0.47636073524E+03  0.00000000000E+00 0.  1.
          2   -1    0    0  501    0  0.00000000000E+00 -0.00000000000E+00 -0.11532797027E+04  0.11532797027E+04  0.00000000000E+00 0. -1.
         23    2    1    2    0    0 -0.25983395294E+03  0.17558066305E+03  0.12688831211E+03  0.35037530119E+03  0.91213790596E+02 0.  0.
        254    2    1    2    0    0  0.25983395294E+03 -0.17558066305E+03 -0.80380727962E+03  0.12792651368E+04  0.94449504769E+03 0.  0.
        -24    2    4    4    0    0 -0.21813129767E+03  0.10507436105E+03 -0.65009994122E+03  0.69827638986E+03  0.79612176811E+02 0.  0.
         24    2    4    4    0    0  0.47796525061E+03 -0.28065502409E+03 -0.15370733840E+03  0.58098874693E+03  0.81877682202E+02 0.  0.
         11    1    3    3    0    0 -0.59955627515E+02 -0.78156715100E+00  0.20515567699E+02  0.63373311701E+02  0.00000000000E+00 0. -1.
        -11    1    3    3    0    0 -0.19987832543E+03  0.17636223020E+03  0.10637274442E+03  0.28700198949E+03  0.00000000000E+00 0.  1.
          2    1    6    6  502    0  0.35166337641E+02 -0.43229119917E+01 -0.25124963890E+02  0.43435270019E+02  0.00000000000E+00 0. -1.
          1    1    5    5  503    0 -0.17542420091E+02  0.40099104058E+02 -0.10040470948E+03  0.10952981482E+03  0.00000000000E+00 0. -1.
         -2    1    5    5    0  503 -0.20058887757E+03  0.64975256987E+02 -0.54969523174E+03  0.58874657504E+03  0.00000000000E+00 0.  1.
         -1    1    6    6    0  502  0.44279891297E+03 -0.27633211210E+03 -0.12858237451E+03  0.53755347691E+03  0.00000000000E+00 0.  1.
<mgrwt>
<rscale>  0 0.14823996E+04</rscale>
<asrwt>0</asrwt>
<pdfrwt beam="1">  1        2 0.17742764E+00 0.14823996E+04</pdfrwt>
<pdfrwt beam="2">  1       -2 0.73286268E-01 0.14823996E+04</pdfrwt>
<totfact> 0.32864412E+01</totfact>
</mgrwt>
</event>
<event>
12    1  0.1201209E-007  0.4651652E+04  0.7818608E-02  0.7884612E-01
          2   -1    0    0  501    0  0.00000000000E+00  0.00000000000E+00  0.26970147132E+04  0.26970147132E+04  0.00000000000E+00 0. -1.
         -2   -1    0    0    0  501 -0.00000000000E+00 -0.00000000000E+00 -0.20057235502E+04  0.20057235502E+04  0.00000000000E+00 0.  1.
         23    2    1    2    0    0 -0.15825428907E+04  0.21242293339E+03  0.19132456557E+04  0.24936192996E+04  0.89792920263E+02 0.  0.
        254    2    1    2    0    0  0.15825428907E+04 -0.21242293339E+03 -0.12219544926E+04  0.22091189638E+04  0.91513294710E+03 0.  0.
        -24    2    4    4    0    0  0.16922974779E+02 -0.25219792346E+03 -0.24766747017E+03  0.36299112187E+03  0.80828207342E+02 0.  0.
         24    2    4    4    0    0  0.15656199159E+04  0.39774990069E+02 -0.97428702247E+03  0.18461278420E+04  0.78772050027E+02 0.  0.
         13    1    3    3    0    0 -0.12950595933E+04  0.19871177657E+03  0.15300846469E+04  0.20144043156E+04  0.00000000000E+00 0. -1.
        -13    1    3    3    0    0 -0.28748329737E+03  0.13711156824E+02  0.38316100886E+03  0.47921498390E+03  0.00000000000E+00 0.  1.
          4    1    6    6  502    0  0.10623788571E+03  0.22626014055E+02 -0.66838615685E+02  0.12753754513E+03  0.00000000000E+00 0. -1.
          1    1    5    5  503    0 -0.31275410529E+01 -0.33678591068E+02 -0.24304474854E+01  0.33910707518E+02  0.00000000000E+00 0. -1.
         -2    1    5    5    0  503  0.20050515832E+02 -0.21851933240E+03 -0.24523702269E+03  0.32908041436E+03  0.00000000000E+00 0.  1.
         -1    1    6    6    0  502  0.14593820302E+04  0.17148976013E+02 -0.90744840679E+03  0.17185902968E+04  0.00000000000E+00 0.  1.
<mgrwt>
<rscale>  0 0.46516517E+04</rscale>
<asrwt>0</asrwt>
<pdfrwt beam="1">  1        2 0.41492534E+00 0.46516517E+04</pdfrwt>
<pdfrwt beam="2">  1       -2 0.30857285E+00 0.46516517E+04</pdfrwt>
<totfact> 0.56192332E-02</totfact>
</mgrwt>
</event>
<event>
12    1  0.1201209E-007  0.1181522E+04  0.7818608E-02  0.9129186E-01
         -2   -1    0    0    0  501 -0.00000000000E+00  0.00000000000E+00  0.28806983479E+03  0.28806983479E+03  0.00000000000E+00 0.  1.
          2   -1    0    0  501    0  0.00000000000E+00 -0.00000000000E+00 -0.12115066223E+04  0.12115066223E+04  0.00000000000E+00 0. -1.
         23    2    1    2    0    0 -0.19674843002E+03 -0.36523129176E+02 -0.35308843979E+03  0.41575156679E+03  0.90188886752E+02 0.  0.
        254    2    1    2    0    0  0.19674843002E+03  0.36523129176E+02 -0.57034834769E+03  0.10838248903E+04  0.89963063052E+03 0.  0.
        -24    2    4    4    0    0  0.49738169307E+03  0.18048943106E+03 -0.18029097749E+03  0.56431915424E+03  0.77371105462E+02 0.  0.
         24    2    4    4    0    0 -0.30063326304E+03 -0.14396630188E+03 -0.39005737020E+03  0.51950573603E+03  0.81454298806E+02 0.  0.
         11    1    3    3    0    0 -0.20258639803E+03 -0.23900029419E+02 -0.31581023553E+03  0.37596351543E+03  0.00000000000E+00 0. -1.
        -11    1    3    3    0    0  0.58379680037E+01 -0.12623099757E+02 -0.37278204259E+02  0.39788051355E+02  0.00000000000E+00 0.  1.
          4    1    6    6  502    0 -0.20245763846E+03 -0.11287209159E+03 -0.21364867083E+03  0.31523794026E+03  0.00000000000E+00 0. -1.
          1    1    5    5  503    0  0.29719815497E+03  0.13042877119E+03 -0.14283708446E+03  0.35459954930E+03  0.00000000000E+00 0. -1.
         -2    1    5    5    0  503  0.20018353810E+03  0.50060659865E+02 -0.37453893030E+02  0.20971960494E+03  0.00000000000E+00 0.  1.
         -3    1    6    6    0  502 -0.98175624583E+02 -0.31094210293E+02 -0.17640869937E+03  0.20426779577E+03  0.00000000000E+00 0.  1.
<mgrwt>
<rscale>  0 0.11815219E+04</rscale>
<asrwt>0</asrwt>
<pdfrwt beam="1">  1        2 0.18638563E+00 0.11815219E+04</pdfrwt>
<pdfrwt beam="2">  1       -2 0.44318436E-01 0.11815219E+04</pdfrwt>
<totfact> 0.88882979E+01</totfact>
</mgrwt>
</event>
<event>
12    1  0.1201209E-007  0.1567253E+04  0.7818608E-02  0.8840922E-01
         -2   -1    0    0    0  501 -0.00000000000E+00  0.00000000000E+00  0.13156212931E+04  0.13156212931E+04  0.00000000000E+00 0. -1.
          2   -1    0    0  501    0  0.00000000000E+00 -0.00000000000E+00 -0.46675345905E+03  0.46675345905E+03  0.00000000000E+00 0.  1.
         23    2    1    2    0    0 -0.49912220473E+03 -0.64131255816E+02  0.14275505620E+03  0.53119023132E+03  0.92456814534E+02 0.  0.
        254    2    1    2    0    0  0.49912220473E+03  0.64131255816E+02  0.70611277786E+03  0.12511845208E+04  0.90201533075E+03 0.  0.
        -24    2    4    4    0    0  0.12132487893E+03  0.33772109667E+03 -0.37524843882E+02  0.36974310897E+03  0.80787296888E+02 0.  0.
         24    2    4    4    0    0  0.37779732580E+03 -0.27358984086E+03  0.74363762175E+03  0.88144141187E+03  0.79748540337E+02 0.  0.
         13    1    3    3    0    0 -0.81619235341E+02  0.23338802842E+02  0.18335884136E+02  0.86848166031E+02  0.00000000000E+00 0. -1.
        -13    1    3    3    0    0 -0.41750296939E+03 -0.87470058659E+02  0.12441917206E+03  0.44434206529E+03  0.00000000000E+00 0.  1.
          4    1    6    6  502    0  0.35526548638E+03 -0.27239678253E+03  0.68201085909E+03  0.81581394010E+03  0.00000000000E+00 0. -1.
          1    1    5    5  503    0  0.10015587092E+03  0.30848116710E+03 -0.56095056998E+02  0.32914811918E+03  0.00000000000E+00 0. -1.
         -2    1    5    5    0  503  0.21169008011E+02  0.29239929571E+02  0.18570213116E+02  0.40594989797E+02  0.00000000000E+00 0.  1.
         -3    1    6    6    0  502  0.22531839418E+02 -0.11930583315E+01  0.61626762661E+02  0.65627471777E+02  0.00000000000E+00 0.  1.
<mgrwt>
<rscale>  0 0.15672534E+04</rscale>
<asrwt>0</asrwt>
<pdfrwt beam="1">  1        2 0.71808225E-01 0.15672534E+04</pdfrwt>
<pdfrwt beam="2">  1       -2 0.20240327E+00 0.15672534E+04</pdfrwt>
<totfact> 0.82147359E+00</totfact>
</mgrwt>
</event>
<event>
12    1  0.1201209E-007  0.1945680E+04  0.7818608E-02  0.8632447E-01
          2   -1    0    0  501    0  0.00000000000E+00  0.00000000000E+00  0.30374755364E+04  0.30374755364E+04  0.00000000000E+00 0. -1.
         -2   -1    0    0    0  501 -0.00000000000E+00 -0.00000000000E+00 -0.31158038204E+03  0.31158038204E+03  0.00000000000E+00 0.  1.
         23    2    1    2    0    0  0.47024747369E+03 -0.48890186398E+03  0.16746555361E+04  0.18091080035E+04  0.90790332201E+02 0.  0.
        254    2    1    2    0    0 -0.47024747369E+03  0.48890186398E+03  0.10512396182E+04  0.15399479150E+04  0.89787366973E+03 0.  0.
        -24    2    4    4    0    0  0.23403107049E+03  0.16468152510E+03  0.50856000891E+03  0.59014318004E+03  0.88006497604E+02 0.  0.
         24    2    4    4    0    0 -0.70427854418E+03  0.32422033888E+03  0.54267960933E+03  0.94980473495E+03  0.80627415971E+02 0.  0.
         11    1    3    3    0    0  0.18311361764E+03 -0.21020074385E+03  0.80238228370E+03  0.84943056154E+03  0.00000000000E+00 0.  1.
        -11    1    3    3    0    0  0.28713385605E+03 -0.27870112013E+03  0.87227325244E+03  0.95967744194E+03  0.00000000000E+00 0. -1.
          4    1    6    6  502    0 -0.37315965378E+03  0.18066368717E+03  0.24192465008E+03  0.48001565744E+03  0.00000000000E+00 0. -1.
          3    1    5    5  503    0  0.15749140353E+03  0.71511470576E+02  0.24076591285E+03  0.29645515243E+03  0.00000000000E+00 0. -1.
         -4    1    5    5    0  503  0.76539666961E+02  0.93170054524E+02  0.26779409606E+03  0.29368802762E+03  0.00000000000E+00 0.  1.
         -3    1    6    6    0  502 -0.33111889040E+03  0.14355665171E+03  0.30075495925E+03  0.46978907750E+03  0.00000000000E+00 0.  1.
<mgrwt>
<rscale>  0 0.19456801E+04</rscale>
<asrwt>0</asrwt>
<pdfrwt beam="1">  1        2 0.46730391E+00 0.19456801E+04</pdfrwt>
<pdfrwt beam="2">  1       -2 0.47935446E-01 0.19456801E+04</pdfrwt>
<totfact> 0.63638790E+00</totfact>
</mgrwt>
</event>
<event>
12    1  0.1201209E-007  0.3184441E+04  0.7818608E-02  0.8192938E-01
          1   -1    0    0  501    0  0.00000000000E+00  0.00000000000E+00  0.10107886712E+04  0.10107886712E+04  0.00000000000E+00 0. -1.
         -1   -1    0    0    0  501 -0.00000000000E+00 -0.00000000000E+00 -0.25081064202E+04  0.25081064202E+04  0.00000000000E+00 0.  1.
         23    2    1    2    0    0  0.23304096381E+03  0.71277027137E+03 -0.20757947103E+04  0.22090641338E+04  0.93226161393E+02 0.  0.
        254    2    1    2    0    0 -0.23304096381E+03 -0.71277027137E+03  0.57847696134E+03  0.13098309576E+04  0.90480494702E+03 0.  0.
        -24    2    4    4    0    0 -0.20446865233E+03  0.56154611363E+02  0.47919919578E+03  0.52996860742E+03  0.79209124764E+02 0.  0.
         24    2    4    4    0    0 -0.28572311478E+02 -0.76892488273E+03  0.99277765555E+02  0.77986235019E+03  0.79166648586E+02 0.  0.
         11    1    3    3    0    0  0.44965869975E+02  0.96694813707E+02 -0.39260241351E+03  0.40682732400E+03  0.00000000000E+00 0. -1.
        -11    1    3    3    0    0  0.18807509383E+03  0.61607545766E+03 -0.16831922968E+04  0.18022368098E+04  0.00000000000E+00 0.  1.
          4    1    6    6  502    0 -0.27385604421E+02 -0.82160387057E+02  0.15938062325E+02  0.88058630250E+02  0.00000000000E+00 0. -1.
          1    1    5    5  503    0 -0.90116054054E+02  0.53959685979E+02  0.29508343160E+03  0.31322002253E+03  0.00000000000E+00 0. -1.
         -2    1    5    5    0  503 -0.11435259828E+03  0.21949253836E+01  0.18411576419E+03  0.21674858489E+03  0.00000000000E+00 0.  1.
         -3    1    6    6    0  502 -0.11867070574E+01 -0.68676449568E+03  0.83339703230E+02  0.69180371994E+03  0.00000000000E+00 0.  1.
<mgrwt>
<rscale>  0 0.31844406E+04</rscale>
<asrwt>0</asrwt>
<pdfrwt beam="1">  1        1 0.15550595E+00 0.31844406E+04</pdfrwt>
<pdfrwt beam="2">  1       -1 0.38586252E+00 0.31844406E+04</pdfrwt>
<totfact> 0.11093770E-01</totfact>
</mgrwt>
</event>
<event>
12    1  0.1201209E-007  0.1123247E+04  0.7818608E-02  0.9182825E-01
         -2   -1    0    0    0  501 -0.00000000000E+00  0.00000000000E+00  0.95475297158E+02  0.95475297158E+02  0.00000000000E+00 0.  1.
          2   -1    0    0  501    0  0.00000000000E+00 -0.00000000000E+00 -0.33036927085E+04  0.33036927085E+04  0.00000000000E+00 0. -1.
         23    2    1    2    0    0 -0.71966969163E+01  0.42934867118E+02 -0.47968822435E+02  0.11247271814E+03  0.91945142006E+02 0.  0.
        254    2    1    2    0    0  0.71966969163E+01 -0.42934867118E+02 -0.31602485890E+04  0.32866952876E+04  0.90183123370E+03 0.  0.
        -24    2    4    4    0    0 -0.24368200748E+03 -0.23857865212E+02 -0.23449991739E+03  0.34909450577E+03  0.83226463349E+02 0.  0.
         24    2    4    4    0    0  0.25087870439E+03 -0.19077001906E+02 -0.29257486716E+04  0.29376007818E+04  0.78670246923E+02 0.  0.
         11    1    3    3    0    0 -0.27124827264E+02 -0.98200437688E+01 -0.48090438108E+02  0.56079227448E+02  0.00000000000E+00 0. -1.
        -11    1    3    3    0    0  0.19928130348E+02  0.52754910887E+02  0.12161567306E+00  0.56393490690E+02  0.00000000000E+00 0.  1.
          4    1    6    6  502    0  0.57457642141E+02 -0.17859152331E+02 -0.10976215395E+04  0.10992694729E+04  0.00000000000E+00 0. -1.
          1    1    5    5  503    0 -0.15455001965E+02  0.20068085205E+02 -0.15150742427E+02  0.29514913614E+02  0.00000000000E+00 0. -1.
         -2    1    5    5    0  503 -0.22822700551E+03 -0.43925950418E+02 -0.21934917496E+03  0.31957959215E+03  0.00000000000E+00 0.  1.
         -3    1    6    6    0  502  0.19342106225E+03 -0.12178495749E+01 -0.18281271320E+04  0.18383313089E+04  0.00000000000E+00 0.  1.
<mgrwt>
<rscale>  0 0.11232472E+04</rscale>
<asrwt>0</asrwt>
<pdfrwt beam="1">  1        2 0.50826044E+00 0.11232472E+04</pdfrwt>
<pdfrwt beam="2">  1       -2 0.14688507E-01 0.11232472E+04</pdfrwt>
<totfact> 0.40965720E+01</totfact>
</mgrwt>
</event>
<event>
12    1  0.1201209E-007  0.1427007E+04  0.7818608E-02  0.8934498E-01
          2   -1    0    0  501    0  0.00000000000E+00  0.00000000000E+00  0.20683959321E+04  0.20683959321E+04  0.00000000000E+00 0. -1.
         -2   -1    0    0    0  501 -0.00000000000E+00 -0.00000000000E+00 -0.24612671504E+03  0.24612671504E+03  0.00000000000E+00 0.  1.
         23    2    1    2    0    0  0.18860642615E+02 -0.33927207991E+03  0.13294452071E+03  0.37638473387E+03  0.92357751472E+02 0.  0.
        254    2    1    2    0    0 -0.18860642615E+02  0.33927207991E+03  0.16893246964E+04  0.19381379133E+04  0.88718621106E+03 0.  0.
        -24    2    4    4    0    0  0.18701813148E+03  0.10717408793E+03  0.15838959568E+04  0.16003584371E+04  0.77192346879E+02 0.  0.
         24    2    4    4    0    0 -0.20587877410E+03  0.23209799198E+03  0.10542873953E+03  0.33777947620E+03  0.82001267793E+02 0.  0.
         11    1    3    3    0    0  0.26483983394E+02 -0.47067940905E+02 -0.28408838456E+01  0.54082003092E+02  0.00000000000E+00 0. -1.
        -11    1    3    3    0    0 -0.76233407795E+01 -0.29220413901E+03  0.13578540455E+03  0.32230273078E+03  0.00000000000E+00 0.  1.
          2    1    6    6  502    0 -0.14424317715E+03  0.14265013170E+03  0.28931850552E+02  0.20491999953E+03  0.00000000000E+00 0. -1.
          3    1    5    5  503    0  0.18922148160E+03  0.90747295079E+02  0.13896038747E+04  0.14053607257E+04  0.00000000000E+00 0. -1.
         -4    1    5    5    0  503 -0.22033501167E+01  0.16426792855E+02  0.19429208210E+03  0.19499771137E+03  0.00000000000E+00 0.  1.
         -1    1    6    6    0  502 -0.61635596947E+02  0.89447860275E+02  0.76496888982E+02  0.13285947668E+03  0.00000000000E+00 0.  1.
<mgrwt>
<rscale>  0 0.14270074E+04</rscale>
<asrwt>0</asrwt>
<pdfrwt beam="1">  1        2 0.31821475E+00 0.14270074E+04</pdfrwt>
<pdfrwt beam="2">  1       -2 0.37865650E-01 0.14270074E+04</pdfrwt>
<totfact> 0.39159926E+01</totfact>
</mgrwt>
</event>
<event>
12    1  0.1201209E-007  0.1414341E+04  0.7818608E-02  0.8943503E-01
         -2   -1    0    0    0  501 -0.00000000000E+00  0.00000000000E+00  0.28881958278E+03  0.28881958278E+03  0.00000000000E+00 0.  1.
          2   -1    0    0  501    0  0.00000000000E+00 -0.00000000000E+00 -0.17314958940E+04  0.17314958940E+04  0.00000000000E+00 0. -1.
         23    2    1    2    0    0 -0.12866836206E+03 -0.29825502314E+03 -0.79506943403E+03  0.86376911336E+03  0.91924262546E+02 0.  0.
        254    2    1    2    0    0  0.12866836206E+03  0.29825502314E+03 -0.64760687721E+03  0.11565463634E+04  0.90149499010E+03 0.  0.
        -24    2    4    4    0    0  0.29832312790E+03 -0.10034426723E+03 -0.63807312799E+03  0.71592251932E+03  0.79637154675E+02 0.  0.
         24    2    4    4    0    0 -0.16965476584E+03  0.39859929037E+03 -0.95337492191E+01  0.44062384412E+03  0.79964653318E+02 0.  0.
         11    1    3    3    0    0 -0.11318679971E+03 -0.22560295851E+03 -0.69297097717E+03  0.73750709944E+03  0.00000000000E+00 0. -1.
        -11    1    3    3    0    0 -0.15481562349E+02 -0.72652064625E+02 -0.10209845686E+03  0.12626201392E+03  0.00000000000E+00 0.  1.
          2    1    6    6  502    0 -0.82790777962E+02  0.11914722493E+03  0.20154663354E+02  0.14648066282E+03  0.00000000000E+00 0. -1.
          3    1    5    5  503    0  0.36561769893E+01 -0.86557736624E+01 -0.59070915885E+02  0.59813569960E+02  0.00000000000E+00 0. -1.
         -4    1    5    5    0  503  0.29466695091E+03 -0.91688493570E+02 -0.57900221211E+03  0.65610894936E+03  0.00000000000E+00 0.  1.
         -1    1    6    6    0  502 -0.86863987877E+02  0.27945206544E+03 -0.29688412573E+02  0.29414318131E+03  0.00000000000E+00 0.  1.
<mgrwt>
<rscale>  0 0.14143407E+04</rscale>
<asrwt>0</asrwt>
<pdfrwt beam="1">  1        2 0.26638398E+00 0.14143407E+04</pdfrwt>
<pdfrwt beam="2">  1       -2 0.44433782E-01 0.14143407E+04</pdfrwt>
<totfact> 0.43986032E+01</totfact>
</mgrwt>
</event>
<event>
12    1  0.1201209E-007  0.2240812E+04  0.7818608E-02  0.8501631E-01
         -2   -1    0    0    0  501 -0.00000000000E+00  0.00000000000E+00  0.33935398787E+03  0.33935398787E+03  0.00000000000E+00 0.  1.
          2   -1    0    0  501    0  0.00000000000E+00 -0.00000000000E+00 -0.36991153104E+04  0.36991153104E+04  0.00000000000E+00 0. -1.
         23    2    1    2    0    0  0.88083568662E+03 -0.10469100414E+03 -0.19563618061E+04  0.21500248436E+04  0.91780164938E+02 0.  0.
        254    2    1    2    0    0 -0.88083568662E+03  0.10469100414E+03 -0.14033995165E+04  0.18884444547E+04  0.89992252022E+03 0.  0.
        -24    2    4    4    0    0 -0.98849526255E+03 -0.40939073781E+02 -0.87167056530E+03  0.13208751568E+04  0.78119866066E+02 0.  0.
         24    2    4    4    0    0  0.10765957592E+03  0.14563007792E+03 -0.53172895120E+03  0.56756929794E+03  0.81243624637E+02 0.  0.
         13    1    3    3    0    0  0.19420967931E+03  0.11408657014E+02 -0.38937124915E+03  0.43526718996E+03  0.00000000000E+00 0. -1.
        -13    1    3    3    0    0  0.68662600732E+03 -0.11609966116E+03 -0.15669905569E+04  0.17147576536E+04  0.00000000000E+00 0.  1.
          4    1    6    6  502    0  0.11583419272E+03  0.12820378871E+03 -0.51033481232E+03  0.53879067578E+03  0.00000000000E+00 0. -1.
          3    1    5    5  503    0 -0.87414112582E+03 -0.15872245411E+02 -0.74822242388E+03  0.11507438601E+04  0.00000000000E+00 0. -1.
         -4    1    5    5    0  503 -0.11435413673E+03 -0.25066828370E+02 -0.12344814142E+03  0.17013129663E+03  0.00000000000E+00 0.  1.
         -3    1    6    6    0  502 -0.81746167944E+01  0.17426289209E+02 -0.21394138879E+02  0.28778622165E+02  0.00000000000E+00 0.  1.
<mgrwt>
<rscale>  0 0.22408119E+04</rscale>
<asrwt>0</asrwt>
<pdfrwt beam="1">  1        2 0.56909466E+00 0.22408119E+04</pdfrwt>
<pdfrwt beam="2">  1       -2 0.52208306E-01 0.22408119E+04</pdfrwt>
<totfact> 0.18523347E+00</totfact>
</mgrwt>
</event>
<event>
12    1  0.1201209E-007  0.1835676E+04  0.7818608E-02  0.8687554E-01
         -2   -1    0    0    0  501 -0.00000000000E+00  0.00000000000E+00  0.70452811368E+03  0.70452811368E+03  0.00000000000E+00 0. -1.
          2   -1    0    0  501    0  0.00000000000E+00 -0.00000000000E+00 -0.11957314479E+04  0.11957314479E+04  0.00000000000E+00 0.  1.
         23    2    1    2    0    0  0.50513496857E+03  0.34962438048E+03  0.14971150511E+03  0.63874599899E+03  0.90467522160E+02 0.  0.
        254    2    1    2    0    0 -0.50513496857E+03 -0.34962438048E+03 -0.64091483936E+03  0.12615135626E+04  0.89623997538E+03 0.  0.
        -24    2    4    4    0    0 -0.37085753916E+03 -0.61480196273E+03 -0.62099268700E+03  0.95267746863E+03  0.80284956269E+02 0.  0.
         24    2    4    4    0    0 -0.13427742941E+03  0.26517758224E+03 -0.19922152365E+02  0.30883609400E+03  0.81444844097E+02 0.  0.
         13    1    3    3    0    0  0.19937905805E+03  0.11588585818E+03  0.97426145862E+02  0.25034654943E+03  0.00000000000E+00 0.  1.
        -13    1    3    3    0    0  0.30575591053E+03  0.23373852231E+03  0.52285359247E+02  0.38839944957E+03  0.00000000000E+00 0. -1.
          4    1    6    6  502    0 -0.14127486207E+03  0.24339430216E+03 -0.31522462123E+02  0.28318375412E+03  0.00000000000E+00 0. -1.
          1    1    5    5  503    0 -0.14616962253E+03 -0.30894822175E+03 -0.32141159023E+03  0.46916944978E+03  0.00000000000E+00 0. -1.
         -2    1    5    5    0  503 -0.22468791664E+03 -0.30585374097E+03 -0.29958109677E+03  0.48350801885E+03  0.00000000000E+00 0.  1.
         -3    1    6    6    0  502  0.69974326630E+01  0.21783280078E+02  0.11600309758E+02  0.25652339879E+02  0.00000000000E+00 0.  1.
<mgrwt>
<rscale>  0 0.18356758E+04</rscale>
<asrwt>0</asrwt>
<pdfrwt beam="1">  1        2 0.18395869E+00 0.18356758E+04</pdfrwt>
<pdfrwt beam="2">  1       -2 0.10838894E+00 0.18356758E+04</pdfrwt>
<totfact> 0.12214805E+01</totfact>
</mgrwt>
</event>
<event>
12    1  0.1201209E-007  0.1945641E+04  0.7818608E-02  0.8632465E-01
         -2   -1    0    0    0  501 -0.00000000000E+00  0.00000000000E+00  0.27193818187E+03  0.27193818187E+03  0.00000000000E+00 0.  1.
          2   -1    0    0  501    0  0.00000000000E+00 -0.00000000000E+00 -0.34801299304E+04  0.34801299304E+04  0.00000000000E+00 0. -1.
         23    2    1    2    0    0 -0.57824993903E+03 -0.38028280366E+01 -0.22156958744E+04  0.22921734723E+04  0.10180160031E+03 0.  0.
        254    2    1    2    0    0  0.57824993903E+03  0.38028280366E+01 -0.99249587418E+03  0.14598946400E+04  0.90103099069E+03 0.  0.
        -24    2    4    4    0    0  0.79304648877E+03 -0.94176738385E+02 -0.86416700135E+03  0.11794296417E+04  0.80484049186E+02 0.  0.
         24    2    4    4    0    0 -0.21479654973E+03  0.97979566422E+02 -0.12832887283E+03  0.28046499828E+03  0.80341536248E+02 0.  0.
         11    1    3    3    0    0 -0.10200927833E+03  0.23816631937E+01 -0.56499061311E+03  0.57413061065E+03  0.00000000000E+00 0.  1.
        -11    1    3    3    0    0 -0.47624066070E+03 -0.61844912303E+01 -0.16507052613E+04  0.17180428617E+04  0.00000000000E+00 0. -1.
          4    1    6    6  502    0 -0.20797153798E+03  0.75813131686E+02 -0.97485801240E+02  0.24187449842E+03  0.00000000000E+00 0. -1.
          1    1    5    5  503    0  0.72633511757E+03 -0.10166644858E+03 -0.76593438979E+03  0.10604500268E+04  0.00000000000E+00 0. -1.
         -2    1    5    5    0  503  0.66711371194E+02  0.74897101931E+01 -0.98232611565E+02  0.11897961498E+03  0.00000000000E+00 0.  1.
         -3    1    6    6    0  502 -0.68250117576E+01  0.22166434736E+02 -0.30843071588E+02  0.38590499859E+02  0.00000000000E+00 0.  1.
<mgrwt>
<rscale>  0 0.19456415E+04</rscale>
<asrwt>0</asrwt>
<pdfrwt beam="1">  1        2 0.53540463E+00 0.19456415E+04</pdfrwt>
<pdfrwt beam="2">  1       -2 0.41836642E-01 0.19456415E+04</pdfrwt>
<totfact> 0.42666696E+00</totfact>
</mgrwt>
</event>
<event>
12    1  0.1201209E-007  0.2755832E+04  0.7818608E-02  0.8317113E-01
         -1   -1    0    0    0  501 -0.00000000000E+00  0.00000000000E+00  0.71652705000E+03  0.71652705000E+03  0.00000000000E+00 0.  1.
          1   -1    0    0  501    0  0.00000000000E+00 -0.00000000000E+00 -0.26497996064E+04  0.26497996064E+04  0.00000000000E+00 0. -1.
         23    2    1    2    0    0 -0.17952878590E+03  0.91447190034E+03  0.10576645348E+03  0.94219409974E+03  0.89742617647E+02 0.  0.
        254    2    1    2    0    0  0.17952878590E+03 -0.91447190034E+03 -0.20390390099E+04  0.24241325566E+04  0.92208954391E+03 0.  0.
        -24    2    4    4    0    0 -0.29092817353E+03 -0.64128300767E+03 -0.80146542650E+03  0.10699050369E+04  0.80416789136E+02 0.  0.
         24    2    4    4    0    0  0.47045695943E+03 -0.27318889268E+03 -0.12375735834E+04  0.13542275198E+04  0.79886665534E+02 0.  0.
         13    1    3    3    0    0 -0.43342246361E+02  0.34862036633E+03  0.75956901099E+02  0.35942198175E+03  0.00000000000E+00 0. -1.
        -13    1    3    3    0    0 -0.13618653954E+03  0.56585153402E+03  0.29809552379E+02  0.58277211799E+03  0.00000000000E+00 0.  1.
          4    1    6    6  502    0  0.38947742297E+03 -0.25673072812E+03 -0.10753640445E+04  0.11721822204E+04  0.00000000000E+00 0. -1.
          3    1    5    5  503    0 -0.29252526307E+03 -0.60067797267E+03 -0.75679414301E+03  0.10095159391E+04  0.00000000000E+00 0. -1.
         -4    1    5    5    0  503  0.15970895413E+01 -0.40605035003E+02 -0.44671283486E+02  0.60389097782E+02  0.00000000000E+00 0.  1.
         -3    1    6    6    0  502  0.80979536451E+02 -0.16458164559E+02 -0.16220953889E+03  0.18204529934E+03  0.00000000000E+00 0.  1.
<mgrwt>
<rscale>  0 0.27558324E+04</rscale>
<asrwt>0</asrwt>
<pdfrwt beam="1">  1        1 0.40766148E+00 0.27558324E+04</pdfrwt>
<pdfrwt beam="2">  1       -1 0.11023493E+00 0.27558324E+04</pdfrwt>
<totfact> 0.70217323E-01</totfact>
</mgrwt>
</event>
<event>
12    1  0.1201209E-007  0.2034033E+04  0.7818608E-02  0.8590872E-01
          2   -1    0    0  501    0  0.00000000000E+00  0.00000000000E+00  0.11545246776E+04  0.11545246776E+04  0.00000000000E+00 0. -1.
         -2   -1    0    0    0  501 -0.00000000000E+00 -0.00000000000E+00 -0.89588618236E+03  0.89588618236E+03  0.00000000000E+00 0.  1.
         23    2    1    2    0    0  0.52677688996E+03 -0.61555884465E+03  0.17554977505E+03  0.83424386616E+03  0.93480060367E+02 0.  0.
        254    2    1    2    0    0 -0.52677688996E+03  0.61555884465E+03  0.83088720158E+02  0.12161669938E+04  0.90318981298E+03 0.  0.
        -24    2    4    4    0    0  0.18827140302E+03  0.25788199245E+03  0.22889255131E+03  0.39955260083E+03  0.72809598044E+02 0.  0.
         24    2    4    4    0    0 -0.71504829298E+03  0.35767685220E+03 -0.14580383115E+03  0.81661439292E+03  0.79834313820E+02 0.  0.
         13    1    3    3    0    0  0.39739813311E+03 -0.51366748752E+03  0.11996516964E+03  0.66043258994E+03  0.00000000000E+00 0. -1.
        -13    1    3    3    0    0  0.12937875685E+03 -0.10189135713E+03  0.55584605410E+02  0.17381127622E+03  0.00000000000E+00 0.  1.
          2    1    6    6  502    0 -0.86871991604E+02  0.18264300654E+02 -0.27033585557E+02  0.92796241043E+02  0.00000000000E+00 0. -1.
          3    1    5    5  503    0  0.69187318353E+02  0.14634006341E+03  0.89579502052E+02  0.18500482796E+03  0.00000000000E+00 0. -1.
         -4    1    5    5    0  503  0.11908408467E+03  0.11154192904E+03  0.13931304925E+03  0.21454777288E+03  0.00000000000E+00 0.  1.
         -1    1    6    6    0  502 -0.62817630137E+03  0.33941255155E+03 -0.11877024559E+03  0.72381815188E+03  0.00000000000E+00 0.  1.
<mgrwt>
<rscale>  0 0.20340331E+04</rscale>
<asrwt>0</asrwt>
<pdfrwt beam="1">  1        2 0.17761918E+00 0.20340331E+04</pdfrwt>
<pdfrwt beam="2">  1       -2 0.13782864E+00 0.20340331E+04</pdfrwt>
<totfact> 0.69918544E+00</totfact>
</mgrwt>
</event>
<event>
12    1  0.1201209E-007  0.1211652E+04  0.7818608E-02  0.9102718E-01
         -2   -1    0    0    0  501 -0.00000000000E+00  0.00000000000E+00  0.17609343853E+04  0.17609343853E+04  0.00000000000E+00 0.  1.
          2   -1    0    0  501    0  0.00000000000E+00 -0.00000000000E+00 -0.20842639996E+03  0.20842639996E+03  0.00000000000E+00 0. -1.
         23    2    1    2    0    0  0.17979943057E+03 -0.11381718437E+03  0.49715939310E+03  0.54940754002E+03  0.96948420298E+02 0.  0.
        254    2    1    2    0    0 -0.17979943057E+03  0.11381718437E+03  0.10553485922E+04  0.14199532452E+04  0.92586412653E+03 0.  0.
        -24    2    4    4    0    0  0.36967309902E+03  0.11433356191E+03  0.45592070427E+03  0.60301949019E+03  0.77707486438E+02 0.  0.
         24    2    4    4    0    0 -0.54947252959E+03 -0.51637754348E+00  0.59942788794E+03  0.81693375502E+03  0.78400509057E+02 0.  0.
         13    1    3    3    0    0  0.27073713219E+02  0.16747382833E+02  0.51467754903E+02  0.60517688108E+02  0.00000000000E+00 0. -1.
        -13    1    3    3    0    0  0.15272571736E+03 -0.13056456720E+03  0.44569163819E+03  0.48888985192E+03  0.00000000000E+00 0.  1.
          4    1    6    6  502    0 -0.40360938588E+03  0.10967174169E+02  0.48578088127E+03  0.63166753904E+03  0.00000000000E+00 0. -1.
          3    1    5    5  503    0  0.43581843268E+02  0.41574196148E+02  0.60968329299E+02  0.85702555536E+02  0.00000000000E+00 0. -1.
         -4    1    5    5    0  503  0.32609125575E+03  0.72759365766E+02  0.39495237497E+03  0.51731693465E+03  0.00000000000E+00 0.  1.
         -3    1    6    6    0  502 -0.14586314372E+03 -0.11483551713E+02  0.11364700667E+03  0.18526621597E+03  0.00000000000E+00 0.  1.
<mgrwt>
<rscale>  0 0.12116521E+04</rscale>
<asrwt>0</asrwt>
<pdfrwt beam="1">  1        2 0.32065601E-01 0.12116521E+04</pdfrwt>
<pdfrwt beam="2">  1       -2 0.27091297E+00 0.12116521E+04</pdfrwt>
<totfact> 0.78287492E+00</totfact>
</mgrwt>
</event>
<event>
12    1  0.1201209E-007  0.1311454E+04  0.7818608E-02  0.9020531E-01
          1   -1    0    0  501    0  0.00000000000E+00  0.00000000000E+00  0.13548181535E+04  0.13548181535E+04  0.00000000000E+00 0. -1.
         -1   -1    0    0    0  501 -0.00000000000E+00 -0.00000000000E+00 -0.31736961301E+03  0.31736961301E+03  0.00000000000E+00 0.  1.
         23    2    1    2    0    0  0.10613892982E+03  0.20575287132E+03 -0.32925359131E+02  0.25090678851E+03  0.90941853780E+02 0.  0.
        254    2    1    2    0    0 -0.10613892982E+03 -0.20575287132E+03  0.10703738997E+04  0.14212809780E+04  0.90594680691E+03 0.  0.
        -24    2    4    4    0    0  0.96020855354E+01 -0.53490924089E+03  0.44482770576E+03  0.70064977885E+03  0.82573172110E+02 0.  0.
         24    2    4    4    0    0 -0.11574101536E+03  0.32915636957E+03  0.62554619390E+03  0.72063119917E+03  0.79128921734E+02 0.  0.
         11    1    3    3    0    0 -0.46150591565E+01  0.67319744976E+02 -0.29351911206E+02  0.73585199096E+02  0.00000000000E+00 0. -1.
        -11    1    3    3    0    0  0.11075398898E+03  0.13843312634E+03 -0.35734479256E+01  0.17732158942E+03  0.00000000000E+00 0.  1.
          4    1    6    6  502    0 -0.42741682450E+02  0.77260534013E+02  0.10083477420E+03  0.13402870298E+03  0.00000000000E+00 0. -1.
          3    1    5    5  503    0  0.32876845548E+02 -0.11858719375E+03  0.12230512105E+03  0.17350029432E+03  0.00000000000E+00 0. -1.
         -4    1    5    5    0  503 -0.23274760013E+02 -0.41632204714E+03  0.32252258471E+03  0.52714948453E+03  0.00000000000E+00 0.  1.
         -3    1    6    6    0  502 -0.72999332905E+02  0.25189583556E+03  0.52471141970E+03  0.58660249619E+03  0.00000000000E+00 0.  1.
<mgrwt>
<rscale>  0 0.13114543E+04</rscale>
<asrwt>0</asrwt>
<pdfrwt beam="1">  1        1 0.20843356E+00 0.13114543E+04</pdfrwt>
<pdfrwt beam="2">  1       -1 0.48826095E-01 0.13114543E+04</pdfrwt>
<totfact> 0.34079319E+01</totfact>
</mgrwt>
</event>
<event>
12    1  0.1201209E-007  0.1583473E+04  0.7818608E-02  0.8830766E-01
         -2   -1    0    0    0  501 -0.00000000000E+00  0.00000000000E+00  0.59619327653E+03  0.59619327653E+03  0.00000000000E+00 0.  1.
          2   -1    0    0  501    0  0.00000000000E+00 -0.00000000000E+00 -0.10514151595E+04  0.10514151595E+04  0.00000000000E+00 0. -1.
         23    2    1    2    0    0  0.36257602466E+03 -0.38473937027E+03 -0.17656054954E+03  0.56503213549E+03  0.92746589102E+02 0.  0.
        254    2    1    2    0    0 -0.36257602466E+03  0.38473937027E+03 -0.27866133348E+03  0.10825763006E+04  0.90268131204E+03 0.  0.
        -24    2    4    4    0    0 -0.52788127065E+03  0.32370086601E+02 -0.39883977649E+03  0.66752187918E+03  0.82497475474E+02 0.  0.
         24    2    4    4    0    0  0.16530524599E+03  0.35236928367E+03  0.12017844301E+03  0.41505442141E+03  0.79607651242E+02 0.  0.
         13    1    3    3    0    0  0.35373423070E+02 -0.90990734577E+01 -0.25224218290E+02  0.44388437524E+02  0.00000000000E+00 0.  1.
        -13    1    3    3    0    0  0.32720260159E+03 -0.37564029682E+03 -0.15133633125E+03  0.52064369797E+03  0.00000000000E+00 0. -1.
          2    1    6    6  502    0  0.17220319501E+02  0.10710300932E+02 -0.71699391530E+01  0.21509485750E+02  0.00000000000E+00 0. -1.
          3    1    5    5  503    0 -0.36536523487E+03  0.14692608029E+02 -0.22723508546E+03  0.43051528620E+03  0.00000000000E+00 0. -1.
         -4    1    5    5    0  503 -0.16251603578E+03  0.17677478572E+02 -0.17160469102E+03  0.23700659298E+03  0.00000000000E+00 0.  1.
         -1    1    6    6    0  502  0.14808492649E+03  0.34165898274E+03  0.12734838217E+03  0.39354493566E+03  0.00000000000E+00 0.  1.
<mgrwt>
<rscale>  0 0.15834730E+04</rscale>
<asrwt>0</asrwt>
<pdfrwt beam="1">  1        2 0.16175618E+00 0.15834730E+04</pdfrwt>
<pdfrwt beam="2">  1       -2 0.91722044E-01 0.15834730E+04</pdfrwt>
<totfact> 0.22690809E+01</totfact>
</mgrwt>
</event>
<event>
12    1  0.1201209E-007  0.2921914E+04  0.7818608E-02  0.8266387E-01
          2   -1    0    0  501    0  0.00000000000E+00  0.00000000000E+00  0.20435746047E+04  0.20435746047E+04  0.00000000000E+00 0. -1.
         -2   -1    0    0    0  501 -0.00000000000E+00 -0.00000000000E+00 -0.10444417819E+04  0.10444417819E+04  0.00000000000E+00 0.  1.
         23    2    1    2    0    0  0.16468547722E+03  0.28261100324E+03 -0.89618098404E+03  0.95943243504E+03  0.10188206756E+03 0.  0.
        254    2    1    2    0    0 -0.16468547722E+03 -0.28261100324E+03  0.18953138069E+04  0.21285839516E+04  0.91195664741E+03 0.  0.
        -24    2    4    4    0    0  0.19758069390E+03  0.15995249512E+03  0.18789269219E+03  0.32616577077E+03  0.80358664415E+02 0.  0.
         24    2    4    4    0    0 -0.36226617111E+03 -0.44256349836E+03  0.17074211147E+04  0.18024181808E+04  0.79531168566E+02 0.  0.
         11    1    3    3    0    0  0.16438711280E+03  0.27051586910E+03 -0.76794775316E+03  0.83062970683E+03  0.00000000000E+00 0.  1.
        -11    1    3    3    0    0  0.29836441840E+00  0.12095134139E+02 -0.12823323088E+03  0.12880272821E+03  0.00000000000E+00 0. -1.
          4    1    6    6  502    0 -0.16789494174E+03 -0.20363636486E+03  0.66543244464E+03  0.71586089356E+03  0.00000000000E+00 0. -1.
          3    1    5    5  503    0  0.85466695570E+02  0.77652715135E+02  0.13430073197E+03  0.17711913174E+03  0.00000000000E+00 0. -1.
         -4    1    5    5    0  503  0.11211399833E+03  0.82299779986E+02  0.53591960221E+02  0.14904663903E+03  0.00000000000E+00 0.  1.
         -3    1    6    6    0  502 -0.19437122937E+03 -0.23892713350E+03  0.10419886701E+04  0.10865572872E+04  0.00000000000E+00 0.  1.
<mgrwt>
<rscale>  0 0.29219136E+04</rscale>
<asrwt>0</asrwt>
<pdfrwt beam="1">  1        2 0.31439609E+00 0.29219136E+04</pdfrwt>
<pdfrwt beam="2">  1       -2 0.16068335E+00 0.29219136E+04</pdfrwt>
<totfact> 0.13552973E+00</totfact>
</mgrwt>
</event>
<event>
12    1  0.1201209E-007  0.2345090E+04  0.7818608E-02  0.8460352E-01
          1   -1    0    0  501    0  0.00000000000E+00  0.00000000000E+00  0.38963859789E+04  0.38963859789E+04  0.00000000000E+00 0. -1.
         -1   -1    0    0    0  501 -0.00000000000E+00 -0.00000000000E+00 -0.35285570224E+03  0.35285570224E+03  0.00000000000E+00 0.  1.
         23    2    1    2    0    0  0.70549850875E+03  0.31922222899E+03  0.37320959209E+03  0.86437366984E+03  0.90694344630E+02 0.  0.
        254    2    1    2    0    0 -0.70549850875E+03 -0.31922222899E+03  0.31703206846E+04  0.33848680113E+04  0.89820222312E+03 0.  0.
        -24    2    4    4    0    0 -0.41790227479E+03 -0.29391592954E+03  0.29910109519E+04  0.30353381370E+04  0.78116622023E+02 0.  0.
         24    2    4    4    0    0 -0.28759623396E+03 -0.25306299453E+02  0.17930973267E+03  0.34952987430E+03  0.81652619180E+02 0.  0.
         11    1    3    3    0    0  0.20213584510E+03  0.75168731289E+02  0.14682063658E+03  0.26089372810E+03  0.00000000000E+00 0. -1.
        -11    1    3    3    0    0  0.50336266366E+03  0.24405349770E+03  0.22638895551E+03  0.60347994174E+03  0.00000000000E+00 0.  1.
          4    1    6    6  502    0 -0.44454542878E+02  0.24154848144E+02  0.18575737634E+02  0.53895464559E+02  0.00000000000E+00 0. -1.
          1    1    5    5  503    0 -0.28422028797E+03 -0.15741368485E+03  0.17962471810E+04  0.18253942521E+04  0.00000000000E+00 0. -1.
         -2    1    5    5    0  503 -0.13368198681E+03 -0.13650224469E+03  0.11947637709E+04  0.12099438849E+04  0.00000000000E+00 0.  1.
         -1    1    6    6    0  502 -0.24314169109E+03 -0.49461147597E+02  0.16073399504E+03  0.29563440975E+03  0.00000000000E+00 0.  1.
<mgrwt>
<rscale>  0 0.23450902E+04</rscale>
<asrwt>0</asrwt>
<pdfrwt beam="1">  1        1 0.59944397E+00 0.23450902E+04</pdfrwt>
<pdfrwt beam="2">  1       -1 0.54285495E-01 0.23450902E+04</pdfrwt>
<totfact> 0.36556855E-01</totfact>
</mgrwt>
</event>
<event>
12    1  0.1201209E-007  0.1988662E+04  0.7818608E-02  0.8611940E-01
          1   -1    0    0  501    0  0.00000000000E+00  0.00000000000E+00  0.92951841815E+03  0.92951841815E+03  0.00000000000E+00 0. -1.
         -1   -1    0    0    0  501 -0.00000000000E+00 -0.00000000000E+00 -0.10636630461E+04  0.10636630461E+04  0.00000000000E+00 0.  1.
         23    2    1    2    0    0 -0.39195726169E+03  0.42942942284E+03  0.47275103076E+03  0.75599508244E+03  0.99974513754E+02 0.  0.
        254    2    1    2    0    0  0.39195726169E+03 -0.42942942284E+03 -0.60689565872E+03  0.12371863818E+04  0.90789188705E+03 0.  0.
        -24    2    4    4    0    0  0.47055355822E+03  0.21184736091E+02 -0.64865860026E+01  0.47808751596E+03  0.81585249418E+02 0.  0.
         24    2    4    4    0    0 -0.78596296530E+02 -0.45061415893E+03 -0.60040907272E+03  0.75909886585E+03  0.80681692316E+02 0.  0.
         11    1    3    3    0    0 -0.50095240969E+02  0.54414044623E+02  0.21752730819E+02  0.77094764530E+02  0.00000000000E+00 0.  1.
        -11    1    3    3    0    0 -0.34186202072E+03  0.37501537821E+03  0.45099829995E+03  0.67890031791E+03  0.00000000000E+00 0. -1.
          2    1    6    6  502    0 -0.39051618099E+02 -0.95165577624E+02 -0.17834940098E+03  0.20588837964E+03  0.00000000000E+00 0. -1.
          1    1    5    5  503    0  0.22211573716E+03 -0.26594135584E+02 -0.20969692428E+02  0.22468283588E+03  0.00000000000E+00 0. -1.
         -2    1    5    5    0  503  0.24843782106E+03  0.47778871675E+02  0.14483106426E+02  0.25340468007E+03  0.00000000000E+00 0.  1.
         -1    1    6    6    0  502 -0.39544678430E+02 -0.35544858130E+03 -0.42205967174E+03  0.55321048621E+03  0.00000000000E+00 0.  1.
<mgrwt>
<rscale>  0 0.19886623E+04</rscale>
<asrwt>0</asrwt>
<pdfrwt beam="1">  1        1 0.14300283E+00 0.19886623E+04</pdfrwt>
<pdfrwt beam="2">  1       -1 0.16364047E+00 0.19886623E+04</pdfrwt>
<totfact> 0.43856851E+00</totfact>
</mgrwt>
</event>
<event>
12    1  0.1201209E-007  0.1516080E+04  0.7818608E-02  0.8873830E-01
         -2   -1    0    0    0  501 -0.00000000000E+00  0.00000000000E+00  0.75536762724E+03  0.75536762724E+03  0.00000000000E+00 0.  1.
          2   -1    0    0  501    0  0.00000000000E+00 -0.00000000000E+00 -0.76072216335E+03  0.76072216335E+03  0.00000000000E+00 0. -1.
         23    2    1    2    0    0 -0.17859899983E+03  0.13114886050E+02  0.45114452703E+03  0.49410952177E+03  0.92429607047E+02 0.  0.
        254    2    1    2    0    0  0.17859899983E+03 -0.13114886050E+02 -0.45649906314E+03  0.10219802688E+04  0.89665080841E+03 0.  0.
        -24    2    4    4    0    0 -0.33464436131E+02 -0.16399144960E+03  0.22253723422E+03  0.29047273099E+03  0.82695361458E+02 0.  0.
         24    2    4    4    0    0  0.21206343596E+03  0.15087656355E+03 -0.67903629736E+03  0.73150753783E+03  0.79236017498E+02 0.  0.
         13    1    3    3    0    0 -0.15701018832E+03 -0.23484998117E+02  0.36610144229E+03  0.39904136429E+03  0.00000000000E+00 0.  1.
        -13    1    3    3    0    0 -0.21588811512E+02  0.36599884167E+02  0.85043084745E+02  0.95068157479E+02  0.00000000000E+00 0. -1.
          4    1    6    6  502    0  0.56693254464E+02  0.77933584960E+02 -0.30732255236E+03  0.32207905855E+03  0.00000000000E+00 0. -1.
          1    1    5    5  503    0 -0.44805014318E+02 -0.16399629797E+03  0.18496200421E+03  0.25122344249E+03  0.00000000000E+00 0. -1.
         -2    1    5    5    0  503  0.11340578187E+02  0.48483723636E-02  0.37575230011E+02  0.39249288497E+02  0.00000000000E+00 0.  1.
         -3    1    6    6    0  502  0.15537018150E+03  0.72942978589E+02 -0.37171374500E+03  0.40942847928E+03  0.00000000000E+00 0.  1.
<mgrwt>
<rscale>  0 0.15160803E+04</rscale>
<asrwt>0</asrwt>
<pdfrwt beam="1">  1        2 0.11703418E+00 0.15160803E+04</pdfrwt>
<pdfrwt beam="2">  1       -2 0.11621040E+00 0.15160803E+04</pdfrwt>
<totfact> 0.20417268E+01</totfact>
</mgrwt>
</event>
<event>
12    1  0.1201209E-007  0.1602918E+04  0.7818608E-02  0.8818757E-01
          2   -1    0    0  501    0  0.00000000000E+00  0.00000000000E+00  0.10524539410E+04  0.10524539410E+04  0.00000000000E+00 0. -1.
         -2   -1    0    0    0  501 -0.00000000000E+00 -0.00000000000E+00 -0.61032279776E+03  0.61032279776E+03  0.00000000000E+00 0.  1.
         23    2    1    2    0    0  0.14768913435E+03 -0.52035864684E+03  0.19918133047E+03  0.58375758543E+03  0.92274126355E+02 0.  0.
        254    2    1    2    0    0 -0.14768913435E+03  0.52035864684E+03  0.24294981280E+03  0.10790191534E+04  0.90148351067E+03 0.  0.
        -24    2    4    4    0    0  0.23825832227E+03  0.37991923454E+03  0.42514983716E+03  0.62316660557E+03  0.80489635065E+02 0.  0.
         24    2    4    4    0    0 -0.38594745662E+03  0.14043941230E+03 -0.18220002436E+03  0.45585254778E+03  0.76980703114E+02 0.  0.
         13    1    3    3    0    0  0.57867738212E+02 -0.26125753412E+03  0.14456419569E+03  0.30414302711E+03  0.00000000000E+00 0. -1.
        -13    1    3    3    0    0  0.89821396138E+02 -0.25910111272E+03  0.54617134778E+02  0.27961455833E+03  0.00000000000E+00 0.  1.
          4    1    6    6  502    0 -0.78818956266E+02  0.59219935134E+02 -0.26631198729E+02  0.10212075857E+03  0.00000000000E+00 0. -1.
          1    1    5    5  503    0  0.10746595290E+03  0.11776124868E+03  0.18603081486E+03  0.24499817713E+03  0.00000000000E+00 0. -1.
         -2    1    5    5    0  503  0.13079236937E+03  0.26215798586E+03  0.23911902230E+03  0.37816842843E+03  0.00000000000E+00 0.  1.
         -3    1    6    6    0  502 -0.30712850035E+03  0.81219477163E+02 -0.15556882563E+03  0.35373178922E+03  0.00000000000E+00 0.  1.
<mgrwt>
<rscale>  0 0.16029181E+04</rscale>
<asrwt>0</asrwt>
<pdfrwt beam="1">  1        2 0.16191599E+00 0.16029181E+04</pdfrwt>
<pdfrwt beam="2">  1       -2 0.93895815E-01 0.16029181E+04</pdfrwt>
<totfact> 0.21423293E+01</totfact>
</mgrwt>
</event>
<event>
12    1  0.1201209E-007  0.2194009E+04  0.7818608E-02  0.8520926E-01
         -1   -1    0    0    0  501 -0.00000000000E+00  0.00000000000E+00  0.66181707780E+03  0.66181707780E+03  0.00000000000E+00 0.  1.
          1   -1    0    0  501    0  0.00000000000E+00 -0.00000000000E+00 -0.18183562781E+04  0.18183562781E+04  0.00000000000E+00 0. -1.
         23    2    1    2    0    0  0.24740274813E+03 -0.68177539010E+03 -0.11062291979E+04  0.13259033092E+04  0.90833611178E+02 0.  0.
        254    2    1    2    0    0 -0.24740274813E+03  0.68177539010E+03 -0.50310002485E+02  0.11542700467E+04  0.89653914696E+03 0.  0.
        -24    2    4    4    0    0  0.13865669830E+03  0.17570088214E+03  0.33175430315E+03  0.40774576046E+03  0.78097423412E+02 0.  0.
         24    2    4    4    0    0 -0.38605944643E+03  0.50607450796E+03 -0.38206430564E+03  0.74652428624E+03  0.78562538912E+02 0.  0.
         13    1    3    3    0    0  0.71039996437E+02 -0.18916475332E+03 -0.23806972577E+03  0.31226139582E+03  0.00000000000E+00 0. -1.
        -13    1    3    3    0    0  0.17636275169E+03 -0.49261063678E+03 -0.86815947208E+03  0.10136419134E+04  0.00000000000E+00 0.  1.
          4    1    6    6  502    0  0.22727226722E+01  0.44436666182E+01  0.14894779885E+01  0.52086453168E+01  0.00000000000E+00 0. -1.
          1    1    5    5  503    0  0.13492596863E+03  0.14959670918E+03  0.24563759841E+03  0.31768226605E+03  0.00000000000E+00 0. -1.
         -2    1    5    5    0  503  0.37307296693E+01  0.26104172963E+02  0.86116704744E+02  0.90063494413E+02  0.00000000000E+00 0.  1.
         -3    1    6    6    0  502 -0.38833216910E+03  0.50163084134E+03 -0.38355378362E+03  0.74131564092E+03  0.00000000000E+00 0.  1.
<mgrwt>
<rscale>  0 0.21940093E+04</rscale>
<asrwt>0</asrwt>
<pdfrwt beam="1">  1        1 0.27974712E+00 0.21940093E+04</pdfrwt>
<pdfrwt beam="2">  1       -1 0.10181801E+00 0.21940093E+04</pdfrwt>
<totfact> 0.33014775E+00</totfact>
</mgrwt>
</event>
<event>
12    1  0.1201209E-007  0.1759601E+04  0.7818608E-02  0.8728083E-01
          1   -1    0    0  501    0  0.00000000000E+00  0.00000000000E+00  0.71763196897E+03  0.71763196897E+03  0.00000000000E+00 0. -1.
         -1   -1    0    0    0  501 -0.00000000000E+00 -0.00000000000E+00 -0.10786150522E+04  0.10786150522E+04  0.00000000000E+00 0.  1.
         23    2    1    2    0    0 -0.16694353825E+03 -0.52963171399E+03  0.20371465607E+03  0.59848566266E+03  0.91134679940E+02 0.  0.
        254    2    1    2    0    0  0.16694353825E+03  0.52963171399E+03 -0.56469773925E+03  0.11977613585E+04  0.89853705415E+03 0.  0.
        -24    2    4    4    0    0 -0.12165932666E+03 -0.20621430208E+03 -0.20763357923E+03  0.32673091795E+03  0.79473639493E+02 0.  0.
         24    2    4    4    0    0  0.28860286491E+03  0.73584601607E+03 -0.35706416002E+03  0.87103044051E+03  0.80238649810E+02 0.  0.
         13    1    3    3    0    0 -0.29194192079E+01 -0.26469974350E+02 -0.90063376862E+01  0.28112215657E+02  0.00000000000E+00 0. -1.
        -13    1    3    3    0    0 -0.16402411904E+03 -0.50316173964E+03  0.21272099376E+03  0.57037344700E+03  0.00000000000E+00 0.  1.
          2    1    6    6  502    0  0.15142012369E+02  0.11610737297E+03 -0.52416158666E+02  0.12828739722E+03  0.00000000000E+00 0. -1.
          1    1    5    5  503    0 -0.95063803848E+02 -0.10573477303E+03 -0.15460022458E+03  0.21004332522E+03  0.00000000000E+00 0. -1.
         -2    1    5    5    0  503 -0.26595522813E+02 -0.10047952905E+03 -0.53033354654E+02  0.11668759273E+03  0.00000000000E+00 0.  1.
         -1    1    6    6    0  502  0.27346085254E+03  0.61973864310E+03 -0.30464800136E+03  0.74274304329E+03  0.00000000000E+00 0.  1.
<mgrwt>
<rscale>  0 0.17596007E+04</rscale>
<asrwt>0</asrwt>
<pdfrwt beam="1">  1        1 0.11040492E+00 0.17596007E+04</pdfrwt>
<pdfrwt beam="2">  1       -1 0.16594078E+00 0.17596007E+04</pdfrwt>
<totfact> 0.65479728E+00</totfact>
</mgrwt>
</event>
<event>
12    1  0.1201209E-007  0.1030952E+04  0.7818608E-02  0.9275233E-01
          2   -1    0    0  501    0  0.00000000000E+00  0.00000000000E+00  0.25385665015E+03  0.25385665015E+03  0.00000000000E+00 0.  1.
         -2   -1    0    0    0  501 -0.00000000000E+00 -0.00000000000E+00 -0.10467154312E+04  0.10467154312E+04  0.00000000000E+00 0. -1.
         23    2    1    2    0    0 -0.22072901918E+02  0.38554694668E+02 -0.18578315340E+03  0.21461309105E+03  0.97824952244E+02 0.  0.
        254    2    1    2    0    0  0.22072901918E+02 -0.38554694668E+02 -0.60707562761E+03  0.10859589903E+04  0.89932887945E+03 0.  0.
        -24    2    4    4    0    0  0.70195229754E+02  0.95679358941E+02 -0.81333427798E+03  0.82576055944E+03  0.79283944063E+02 0.  0.
         24    2    4    4    0    0 -0.48122327836E+02 -0.13423405361E+03  0.20625865036E+03  0.26019843083E+03  0.69469798977E+02 0.  0.
         11    1    3    3    0    0 -0.17436388408E+02 -0.15631794108E+02 -0.26401446207E+01  0.23565886178E+02  0.00000000000E+00 0.  1.
        -11    1    3    3    0    0 -0.46365135099E+01  0.54186488776E+02 -0.18314300878E+03  0.19104720487E+03  0.00000000000E+00 0. -1.
          2    1    6    6  502    0  0.16907050151E+02 -0.18711492086E+02  0.43513341221E+02  0.50292933351E+02  0.00000000000E+00 0. -1.
          1    1    5    5  503    0  0.37359169894E+02  0.20573742846E+01 -0.13055570862E+03  0.13581138913E+03  0.00000000000E+00 0. -1.
         -2    1    5    5    0  503  0.32836059860E+02  0.93621984656E+02 -0.68277856935E+03  0.68994917031E+03  0.00000000000E+00 0.  1.
         -1    1    6    6    0  502 -0.65029377987E+02 -0.11552256152E+03  0.16274530914E+03  0.20990549748E+03  0.00000000000E+00 0.  1.
<mgrwt>
<rscale>  0 0.10309523E+04</rscale>
<asrwt>0</asrwt>
<pdfrwt beam="1">  1        2 0.39054870E-01 0.10309523E+04</pdfrwt>
<pdfrwt beam="2">  1       -2 0.16103314E+00 0.10309523E+04</pdfrwt>
<totfact> 0.32608124E+01</totfact>
</mgrwt>
</event>
<event>
12    1  0.1201209E-007  0.1809396E+04  0.7818608E-02  0.8701319E-01
          1   -1    0    0  501    0  0.00000000000E+00  0.00000000000E+00  0.63805427708E+03  0.63805427708E+03  0.00000000000E+00 0. -1.
         -1   -1    0    0    0  501 -0.00000000000E+00 -0.00000000000E+00 -0.12827729990E+04  0.12827729990E+04  0.00000000000E+00 0.  1.
         23    2    1    2    0    0  0.10333353161E+02  0.31835597014E+03 -0.88317935378E+03  0.94348261311E+03  0.93254320989E+02 0.  0.
        254    2    1    2    0    0 -0.10333353161E+02 -0.31835597014E+03  0.23846063182E+03  0.97734466302E+03  0.89268237100E+03 0.  0.
        -24    2    4    4    0    0 -0.10910442448E+03 -0.60081340634E+03  0.25614777197E+03  0.66718129334E+03  0.81478048635E+02 0.  0.
         24    2    4    4    0    0  0.98771071323E+02  0.28245743620E+03 -0.17687140149E+02  0.31016336968E+03  0.79690358071E+02 0.  0.
         11    1    3    3    0    0 -0.11015199733E+02  0.25129384047E+03 -0.57916739064E+03  0.63143075255E+03  0.00000000000E+00 0.  1.
        -11    1    3    3    0    0  0.21348552894E+02  0.67062129670E+02 -0.30401196314E+03  0.31205186056E+03  0.00000000000E+00 0. -1.
          4    1    6    6  502    0  0.19560242448E+02  0.10852491512E+02  0.12521707057E+02  0.25635381883E+02  0.00000000000E+00 0. -1.
          3    1    5    5  503    0 -0.65657946287E+02 -0.15785635764E+03  0.71851506703E+02  0.18545143454E+03  0.00000000000E+00 0. -1.
         -2    1    5    5    0  503 -0.43446478197E+02 -0.44295704870E+03  0.18429626527E+03  0.48172985879E+03  0.00000000000E+00 0.  1.
         -3    1    6    6    0  502  0.79210828874E+02  0.27160494469E+03 -0.30208847206E+02  0.28452798780E+03  0.00000000000E+00 0.  1.
<mgrwt>
<rscale>  0 0.18093964E+04</rscale>
<asrwt>0</asrwt>
<pdfrwt beam="1">  1        1 0.98162197E-01 0.18093964E+04</pdfrwt>
<pdfrwt beam="2">  1       -1 0.19734969E+00 0.18093964E+04</pdfrwt>
<totfact> 0.46330611E+00</totfact>
</mgrwt>
</event>
<event>
12    1  0.1201209E-007  0.3487932E+04  0.7818608E-02  0.8116656E-01
          2   -1    0    0  501    0  0.00000000000E+00  0.00000000000E+00  0.16416735453E+04  0.16416735453E+04  0.00000000000E+00 0. -1.
         -2   -1    0    0    0  501 -0.00000000000E+00 -0.00000000000E+00 -0.18526325406E+04  0.18526325406E+04  0.00000000000E+00 0.  1.
         23    2    1    2    0    0 -0.12645146355E+04  0.42588346791E+03  0.83376975546E+03  0.15759565780E+04  0.89961874397E+02 0.  0.
        254    2    1    2    0    0  0.12645146355E+04 -0.42588346791E+03 -0.10447287508E+04  0.19183495079E+04  0.89901761946E+03 0.  0.
        -24    2    4    4    0    0  0.74827632732E+03 -0.66040504688E+03 -0.85075014568E+03  0.13138044026E+04  0.79081665689E+02 0.  0.
         24    2    4    4    0    0  0.51623830820E+03  0.23452157897E+03 -0.19397860513E+03  0.60454510536E+03  0.79653771478E+02 0.  0.
         13    1    3    3    0    0 -0.33236612907E+03  0.12927224814E+03  0.18073463452E+03  0.39980440969E+03  0.00000000000E+00 0. -1.
        -13    1    3    3    0    0 -0.93214850645E+03  0.29661121976E+03  0.65303512094E+03  0.11761521683E+04  0.00000000000E+00 0.  1.
          4    1    6    6  502    0  0.24117098597E+03  0.14411827117E+03 -0.12131394650E+03  0.30602384576E+03  0.00000000000E+00 0. -1.
          3    1    5    5  503    0  0.22325026556E+03 -0.23668155974E+03 -0.24810803801E+03  0.40916554146E+03  0.00000000000E+00 0. -1.
         -2    1    5    5    0  503  0.52502606175E+03 -0.42372348714E+03 -0.60264210767E+03  0.90463886110E+03  0.00000000000E+00 0.  1.
         -3    1    6    6    0  502  0.27506732222E+03  0.90403307802E+02 -0.72664658638E+02  0.29852125960E+03  0.00000000000E+00 0.  1.
<mgrwt>
<rscale>  0 0.34879322E+04</rscale>
<asrwt>0</asrwt>
<pdfrwt beam="1">  1        2 0.25256516E+00 0.34879322E+04</pdfrwt>
<pdfrwt beam="2">  1       -2 0.28502039E+00 0.34879322E+04</pdfrwt>
<totfact> 0.34116024E-01</totfact>
</mgrwt>
</event>
<event>
12    1  0.1201209E-007  0.1277907E+04  0.7818608E-02  0.9047271E-01
          2   -1    0    0  501    0  0.00000000000E+00  0.00000000000E+00  0.14597453147E+04  0.14597453147E+04  0.00000000000E+00 0. -1.
         -2   -1    0    0    0  501 -0.00000000000E+00 -0.00000000000E+00 -0.27967989482E+03  0.27967989482E+03  0.00000000000E+00 0.  1.
         23    2    1    2    0    0 -0.29290088567E+03 -0.12023541972E+02  0.15857870565E+03  0.34494545173E+03  0.88908179560E+02 0.  0.
        254    2    1    2    0    0  0.29290088567E+03  0.12023541972E+02  0.10214867142E+04  0.13944797578E+04  0.90288603553E+03 0.  0.
        -24    2    4    4    0    0 -0.70029471897E+02  0.39023050002E+03  0.56556657145E+03  0.69519163863E+03  0.79005680810E+02 0.  0.
         24    2    4    4    0    0  0.36293035757E+03 -0.37820695805E+03  0.45592014280E+03  0.69928811918E+03  0.79885852608E+02 0.  0.
         13    1    3    3    0    0 -0.24333629393E+02  0.72202510829E+01  0.47141280025E+02  0.53540244933E+02  0.00000000000E+00 0. -1.
        -13    1    3    3    0    0 -0.26856725628E+03 -0.19243793055E+02  0.11143742562E+03  0.29140520680E+03  0.00000000000E+00 0.  1.
          2    1    6    6  502    0  0.28486532077E+03 -0.33506619059E+03  0.36039778129E+03  0.56859842051E+03  0.00000000000E+00 0. -1.
          1    1    5    5  503    0 -0.83646202935E+02  0.30892460431E+03  0.47457251621E+03  0.57240734757E+03  0.00000000000E+00 0. -1.
         -2    1    5    5    0  503  0.13616731039E+02  0.81305895713E+02  0.90994055236E+02  0.12278429106E+03  0.00000000000E+00 0.  1.
         -1    1    6    6    0  502  0.78065036800E+02 -0.43140767462E+02  0.95522361516E+02  0.13068969867E+03  0.00000000000E+00 0.  1.
<mgrwt>
<rscale>  0 0.12779068E+04</rscale>
<asrwt>0</asrwt>
<pdfrwt beam="1">  1        2 0.22457620E+00 0.12779068E+04</pdfrwt>
<pdfrwt beam="2">  1       -2 0.43027677E-01 0.12779068E+04</pdfrwt>
<totfact> 0.67226861E+01</totfact>
</mgrwt>
</event>
<event>
12    1  0.1201209E-007  0.2356687E+04  0.7818608E-02  0.8455899E-01
         -1   -1    0    0    0  501 -0.00000000000E+00  0.00000000000E+00  0.74484178878E+03  0.74484178878E+03  0.00000000000E+00 0.  1.
          1   -1    0    0  501    0  0.00000000000E+00 -0.00000000000E+00 -0.18641461913E+04  0.18641461913E+04  0.00000000000E+00 0. -1.
         23    2    1    2    0    0  0.66160525142E+03 -0.65339797179E+03 -0.53382565263E+02  0.93579531520E+03  0.90624254079E+02 0.  0.
        254    2    1    2    0    0 -0.66160525142E+03  0.65339797179E+03 -0.10659218372E+04  0.16731926649E+04  0.89371914627E+03 0.  0.
        -24    2    4    4    0    0 -0.17470643834E+03  0.11137979139E+03 -0.89299055169E+03  0.92021525666E+03  0.80225903897E+02 0.  0.
         24    2    4    4    0    0 -0.48689881308E+03  0.54201818040E+03 -0.17293128553E+03  0.75297740819E+03  0.78838985669E+02 0.  0.
         13    1    3    3    0    0  0.36132866545E+02 -0.11612328422E+02  0.12179936346E+01  0.37972539086E+02  0.00000000000E+00 0. -1.
        -13    1    3    3    0    0  0.62547238487E+03 -0.64178564337E+03 -0.54600558897E+02  0.89782277611E+03  0.00000000000E+00 0.  1.
          2    1    6    6  502    0 -0.23271564223E+03  0.29018562710E+03 -0.53733837190E+02  0.37583452951E+03  0.00000000000E+00 0. -1.
          3    1    5    5  503    0 -0.74097323612E+02  0.14985545401E+02 -0.21092184413E+03  0.22406026928E+03  0.00000000000E+00 0. -1.
         -4    1    5    5    0  503 -0.10060911472E+03  0.96394245989E+02 -0.68206870756E+03  0.69615498738E+03  0.00000000000E+00 0.  1.
         -1    1    6    6    0  502 -0.25418317085E+03  0.25183255330E+03 -0.11919744834E+03  0.37714287867E+03  0.00000000000E+00 0.  1.
<mgrwt>
<rscale>  0 0.23566875E+04</rscale>
<asrwt>0</asrwt>
<pdfrwt beam="1">  1        1 0.28679171E+00 0.23566875E+04</pdfrwt>
<pdfrwt beam="2">  1       -1 0.11459105E+00 0.23566875E+04</pdfrwt>
<totfact> 0.22943520E+00</totfact>
</mgrwt>
</event>
<event>
12    1  0.1201209E-007  0.1167606E+04  0.7818608E-02  0.9141693E-01
         -1   -1    0    0    0  501 -0.00000000000E+00  0.00000000000E+00  0.63701212497E+03  0.63701212497E+03  0.00000000000E+00 0.  1.
          1   -1    0    0  501    0  0.00000000000E+00 -0.00000000000E+00 -0.53503819601E+03  0.53503819601E+03  0.00000000000E+00 0. -1.
         23    2    1    2    0    0  0.12736456705E+03 -0.18014822560E+03  0.47897927257E+02  0.24313631175E+03  0.90254853211E+02 0.  0.
        254    2    1    2    0    0 -0.12736456705E+03  0.18014822560E+03  0.54076001702E+02  0.92891400922E+03  0.90071188870E+03 0.  0.
        -24    2    4    4    0    0 -0.18437962537E+03  0.15111823979E+03 -0.39463209780E+03  0.46800635799E+03  0.80392100715E+02 0.  0.
         24    2    4    4    0    0  0.57015058319E+02  0.29029985813E+02  0.44870809950E+03  0.46090765123E+03  0.83686602627E+02 0.  0.
         13    1    3    3    0    0  0.27764154261E+02 -0.64356229182E+02  0.56693142629E+02  0.90148127642E+02  0.00000000000E+00 0.  1.
        -13    1    3    3    0    0  0.99600412792E+02 -0.11579199642E+03 -0.87952153717E+01  0.15298818411E+03  0.00000000000E+00 0. -1.
          4    1    6    6  502    0 -0.19196478507E+02  0.19255435990E+02  0.87907892233E+02  0.92016705652E+02  0.00000000000E+00 0. -1.
          1    1    5    5  503    0 -0.49897672047E+02  0.39871413512E+02 -0.18220950093E+03  0.19307980091E+03  0.00000000000E+00 0. -1.
         -2    1    5    5    0  503 -0.13448195333E+03  0.11124682628E+03 -0.21242259687E+03  0.27492655708E+03  0.00000000000E+00 0.  1.
         -3    1    6    6    0  502  0.76211536826E+02  0.97745498228E+01  0.36080020726E+03  0.36889094558E+03  0.00000000000E+00 0.  1.
<mgrwt>
<rscale>  0 0.11676058E+04</rscale>
<asrwt>0</asrwt>
<pdfrwt beam="1">  1        1 0.82313569E-01 0.11676058E+04</pdfrwt>
<pdfrwt beam="2">  1       -1 0.98001865E-01 0.11676058E+04</pdfrwt>
<totfact> 0.39949265E+01</totfact>
</mgrwt>
</event>
<event>
12    1  0.1201209E-007  0.2255080E+04  0.7818608E-02  0.8495846E-01
         -1   -1    0    0    0  501 -0.00000000000E+00  0.00000000000E+00  0.99855873409E+03  0.99855873409E+03  0.00000000000E+00 0.  1.
          1   -1    0    0  501    0  0.00000000000E+00 -0.00000000000E+00 -0.12731815511E+04  0.12731815511E+04  0.00000000000E+00 0. -1.
         23    2    1    2    0    0  0.34069070298E+03 -0.62906954235E+03  0.49623186577E+03  0.87533129879E+03  0.90333680473E+02 0.  0.
        254    2    1    2    0    0 -0.34069070298E+03  0.62906954235E+03 -0.77085468281E+03  0.13964089864E+04  0.91866341560E+03 0.  0.
        -24    2    4    4    0    0 -0.53724090155E+02  0.54688544465E+01  0.18985389646E+03  0.21235729171E+03  0.78325801042E+02 0.  0.
         24    2    4    4    0    0 -0.28696661283E+03  0.62360068790E+03 -0.96070857926E+03  0.11840516947E+04  0.88259768136E+02 0.  0.
         11    1    3    3    0    0  0.18527891169E+03 -0.42998765228E+03  0.33463046345E+03  0.57549561536E+03  0.00000000000E+00 0.  1.
        -11    1    3    3    0    0  0.15541179130E+03 -0.19908189007E+03  0.16160140232E+03  0.29983568343E+03  0.00000000000E+00 0. -1.
          4    1    6    6  502    0 -0.23799584316E+02  0.18597300025E+02 -0.25420342260E+02  0.39477507298E+02  0.00000000000E+00 0. -1.
          1    1    5    5  503    0  0.85839169079E+01  0.22558515419E+02  0.22630001107E+02  0.33086057448E+02  0.00000000000E+00 0. -1.
         -2    1    5    5    0  503 -0.62308007063E+02 -0.17089660972E+02  0.16722389535E+03  0.17927123426E+03  0.00000000000E+00 0.  1.
         -3    1    6    6    0  502 -0.26316702851E+03  0.60500338788E+03 -0.93528823700E+03  0.11445741874E+04  0.00000000000E+00 0.  1.
<mgrwt>
<rscale>  0 0.22550801E+04</rscale>
<asrwt>0</asrwt>
<pdfrwt beam="1">  1        1 0.19587408E+00 0.22550801E+04</pdfrwt>
<pdfrwt beam="2">  1       -1 0.15362442E+00 0.22550801E+04</pdfrwt>
<totfact> 0.28058624E+00</totfact>
</mgrwt>
</event>
<event>
12    1  0.1201209E-007  0.1295256E+04  0.7818608E-02  0.9033336E-01
          3   -1    0    0  501    0  0.00000000000E+00  0.00000000000E+00  0.40997994081E+03  0.40997994081E+03  0.00000000000E+00 0. -1.
         -3   -1    0    0    0  501 -0.00000000000E+00 -0.00000000000E+00 -0.10230308183E+04  0.10230308183E+04  0.00000000000E+00 0.  1.
         23    2    1    2    0    0 -0.84794767476E+02  0.26343397046E+03  0.28880635893E+02  0.29403889327E+03  0.95064032327E+02 0.  0.
        254    2    1    2    0    0  0.84794767476E+02 -0.26343397046E+03 -0.64193151344E+03  0.11389718659E+04  0.89921812367E+03 0.  0.
        -24    2    4    4    0    0 -0.25415219814E+03  0.87756912613E+02  0.53195384984E+02  0.28559478406E+03  0.80249711313E+02 0.  0.
         24    2    4    4    0    0  0.33894696562E+03 -0.35119088308E+03 -0.69512689842E+03  0.85337708182E+03  0.82649603808E+02 0.  0.
         11    1    3    3    0    0 -0.10154637709E+03  0.24628782506E+03  0.36492121615E+02  0.26888851670E+03  0.00000000000E+00 0. -1.
        -11    1    3    3    0    0  0.16751609615E+02  0.17146145407E+02 -0.76114857221E+01  0.25150376576E+02  0.00000000000E+00 0.  1.
          4    1    6    6  502    0  0.23417305817E+03 -0.19914088999E+03 -0.47847152384E+03  0.56870828582E+03  0.00000000000E+00 0. -1.
          1    1    5    5  503    0 -0.11012889394E+03 -0.31829647629E+01  0.17351757005E+02  0.11153290104E+03  0.00000000000E+00 0. -1.
         -2    1    5    5    0  503 -0.14402330421E+03  0.90939877376E+02  0.35843627979E+02  0.17406188302E+03  0.00000000000E+00 0.  1.
         -3    1    6    6    0  502  0.10477390745E+03 -0.15204999308E+03 -0.21665537458E+03  0.28466879600E+03  0.00000000000E+00 0.  1.
<mgrwt>
<rscale>  0 0.12952561E+04</rscale>
<asrwt>0</asrwt>
<pdfrwt beam="1">  1        3 0.63073837E-01 0.12952561E+04</pdfrwt>
<pdfrwt beam="2">  1       -3 0.15738936E+00 0.12952561E+04</pdfrwt>
<totfact> 0.17846253E+00</totfact>
</mgrwt>
</event>
<event>
12    1  0.1201209E-007  0.2711274E+04  0.7818608E-02  0.8331356E-01
          1   -1    0    0  501    0  0.00000000000E+00  0.00000000000E+00  0.15595891661E+04  0.15595891661E+04  0.00000000000E+00 0. -1.
         -1   -1    0    0    0  501 -0.00000000000E+00 -0.00000000000E+00 -0.11783558734E+04  0.11783558734E+04  0.00000000000E+00 0.  1.
         23    2    1    2    0    0  0.26473497798E+03  0.11696270480E+04  0.33750061948E+03  0.12489537362E+04  0.88694572398E+02 0.  0.
        254    2    1    2    0    0 -0.26473497798E+03 -0.11696270480E+04  0.43732673251E+02  0.14889913033E+04  0.88151603200E+03 0.  0.
        -24    2    4    4    0    0 -0.53909662003E+03 -0.46995054978E+03 -0.77644023611E+02  0.72352358600E+03  0.77324641201E+02 0.  0.
         24    2    4    4    0    0  0.27436164205E+03 -0.69967649818E+03  0.12137669686E+03  0.76546771728E+03  0.79918777079E+02 0.  0.
         11    1    3    3    0    0  0.10851753709E+03  0.36983435008E+03  0.14349986464E+03  0.41127328324E+03  0.00000000000E+00 0.  1.
        -11    1    3    3    0    0  0.15621744089E+03  0.79979269787E+03  0.19400075484E+03  0.83768045297E+03  0.00000000000E+00 0. -1.
          2    1    6    6  502    0  0.68891542326E+02 -0.23495629419E+03  0.70581897684E+02  0.25481818826E+03  0.00000000000E+00 0. -1.
          1    1    5    5  503    0 -0.88080432997E+01  0.13506534081E+01  0.32133416104E+01  0.94726688796E+01  0.00000000000E+00 0. -1.
         -2    1    5    5    0  503 -0.53028857673E+03 -0.47130120318E+03 -0.80857365222E+02  0.71405091712E+03  0.00000000000E+00 0.  1.
         -1    1    6    6    0  502  0.20547009972E+03 -0.46472020398E+03  0.50794799178E+02  0.51064952903E+03  0.00000000000E+00 0.  1.
<mgrwt>
<rscale>  0 0.27112735E+04</rscale>
<asrwt>0</asrwt>
<pdfrwt beam="1">  1        1 0.23993680E+00 0.27112735E+04</pdfrwt>
<pdfrwt beam="2">  1       -1 0.18128552E+00 0.27112735E+04</pdfrwt>
<totfact> 0.10573705E+00</totfact>
</mgrwt>
</event>
<event>
12    1  0.1253668E-007  0.1298127E+04  0.7818608E-02  0.9031052E-01
         -1   -1    0    0    0  501 -0.00000000000E+00  0.00000000000E+00  0.27918600975E+03  0.27918600975E+03  0.00000000000E+00 0.  1.
          1   -1    0    0  501    0  0.00000000000E+00 -0.00000000000E+00 -0.15089707268E+04  0.15089707268E+04  0.00000000000E+00 0. -1.
         23    2    1    2    0    0  0.12612341248E+03 -0.15528297641E+03 -0.74932615360E+03  0.78171107438E+03  0.97788554568E+02 0.  0.
        254    2    1    2    0    0 -0.12612341248E+03  0.15528297641E+03 -0.48045856344E+03  0.10064456622E+04  0.86143631324E+03 0.  0.
        -24    2    4    4    0    0  0.61999407573E+02  0.71483928953E+02 -0.69047285848E+03  0.70143341748E+03  0.79386347843E+02 0.  0.
         24    2    4    4    0    0 -0.18812282005E+03  0.83799047453E+02  0.21001429504E+03  0.30501224468E+03  0.80709290069E+02 0.  0.
         11    1    3    3    0    0  0.23657890464E+02 -0.64015603205E+02 -0.41082405052E+03  0.41645419162E+03  0.00000000000E+00 0.  1.
        -11    1    3    3    0    0  0.10246552201E+03 -0.91267373202E+02 -0.33850210308E+03  0.36525688275E+03  0.00000000000E+00 0. -1.
          4    1    6    6  502    0 -0.15011598840E+03  0.49720781193E+02  0.19645724321E+03  0.25219519121E+03  0.00000000000E+00 0. -1.
          3    1    5    5  503    0  0.64746972549E+02  0.70333816911E+02 -0.69165386998E+03  0.69822925469E+03  0.00000000000E+00 0. -1.
         -4    1    5    5    0  503 -0.27475649767E+01  0.11501120424E+01  0.11810114973E+01  0.32041627874E+01  0.00000000000E+00 0.  1.
         -3    1    6    6    0  502 -0.38006831645E+02  0.34078266260E+02  0.13557051830E+02  0.52817053470E+02  0.00000000000E+00 0.  1.
<mgrwt>
<rscale>  0 0.12981271E+04</rscale>
<asrwt>0</asrwt>
<pdfrwt beam="1">  1        1 0.23214935E+00 0.12981271E+04</pdfrwt>
<pdfrwt beam="2">  1       -1 0.42951693E-01 0.12981271E+04</pdfrwt>
<totfact> 0.33842779E+01</totfact>
</mgrwt>
</event>
<event>
12    1  0.1201209E-007  0.1659177E+04  0.7818608E-02  0.8784996E-01
         -2   -1    0    0    0  501 -0.00000000000E+00  0.00000000000E+00  0.49002878393E+03  0.49002878393E+03  0.00000000000E+00 0.  1.
          2   -1    0    0  501    0  0.00000000000E+00 -0.00000000000E+00 -0.14044426183E+04  0.14044426183E+04  0.00000000000E+00 0. -1.
         23    2    1    2    0    0 -0.51924418895E+03 -0.24844761885E+03 -0.24416178881E+03  0.63175881911E+03  0.90351974728E+02 0.  0.
        254    2    1    2    0    0  0.51924418895E+03  0.24844761885E+03 -0.67025204558E+03  0.12627125831E+04  0.90214439860E+03 0.  0.
        -24    2    4    4    0    0 -0.24435245854E+03  0.16550427445E+02 -0.91251703450E+02  0.27357330978E+03  0.80829708633E+02 0.  0.
         24    2    4    4    0    0  0.76359664749E+03  0.23189719140E+03 -0.57900034212E+03  0.98913927335E+03  0.79365978043E+02 0.  0.
         11    1    3    3    0    0 -0.12380651270E+02 -0.26154590565E+02 -0.16394120100E+02  0.33258236684E+02  0.00000000000E+00 0.  1.
        -11    1    3    3    0    0 -0.50686353768E+03 -0.22229302828E+03 -0.22776766871E+03  0.59850058242E+03  0.00000000000E+00 0. -1.
          4    1    6    6  502    0  0.72734874421E+03  0.23725791130E+03 -0.54709483739E+03  0.94055317408E+03  0.00000000000E+00 0. -1.
          3    1    5    5  503    0 -0.21243165696E+03  0.14672038963E+02 -0.10657069235E+03  0.23811717719E+03  0.00000000000E+00 0. -1.
         -4    1    5    5    0  503 -0.31920801583E+02  0.18783884819E+01  0.15318988904E+02  0.35456132588E+02  0.00000000000E+00 0.  1.
         -1    1    6    6    0  502  0.36247903275E+02 -0.53607198952E+01 -0.31905504734E+02  0.48586099267E+02  0.00000000000E+00 0.  1.
<mgrwt>
<rscale>  0 0.16591773E+04</rscale>
<asrwt>0</asrwt>
<pdfrwt beam="1">  1        2 0.21606809E+00 0.16591773E+04</pdfrwt>
<pdfrwt beam="2">  1       -2 0.75389046E-01 0.16591773E+04</pdfrwt>
<totfact> 0.21677924E+01</totfact>
</mgrwt>
</event>
<event>
12    1  0.1201209E-007  0.1829266E+04  0.7818608E-02  0.8690889E-01
          2   -1    0    0  501    0  0.00000000000E+00  0.00000000000E+00  0.45532300837E+04  0.45532300837E+04  0.00000000000E+00 0. -1.
         -2   -1    0    0    0  501 -0.00000000000E+00 -0.00000000000E+00 -0.18372741847E+03  0.18372741847E+03  0.00000000000E+00 0.  1.
         23    2    1    2    0    0  0.45441235778E+03 -0.46360775976E+03  0.11777745383E+04  0.13479326321E+04  0.91360669330E+02 0.  0.
        254    2    1    2    0    0 -0.45441235778E+03  0.46360775976E+03  0.31917281269E+04  0.33890248700E+04  0.93644988527E+03 0.  0.
        -24    2    4    4    0    0 -0.42497370230E+03  0.73405511760E+03  0.25016377181E+04  0.26427518740E+04  0.80663693938E+02 0.  0.
         24    2    4    4    0    0 -0.29438655484E+02 -0.27044735783E+03  0.69009040880E+03  0.74627299602E+03  0.81793670095E+02 0.  0.
         11    1    3    3    0    0  0.11915492220E+03 -0.14051026591E+03  0.41865238205E+03  0.45739572288E+03  0.00000000000E+00 0.  1.
        -11    1    3    3    0    0  0.33525743558E+03 -0.32309749385E+03  0.75912215623E+03  0.89053690924E+03  0.00000000000E+00 0. -1.
          2    1    6    6  502    0 -0.40424695320E+02 -0.60136405596E+02  0.15030021631E+03  0.16685532144E+03  0.00000000000E+00 0. -1.
          1    1    5    5  503    0 -0.64557393618E+02  0.17214697503E+03  0.58228980807E+03  0.61062562890E+03  0.00000000000E+00 0. -1.
         -2    1    5    5    0  503 -0.36041630868E+03  0.56190814257E+03  0.19193479101E+04  0.20321262451E+04  0.00000000000E+00 0.  1.
         -1    1    6    6    0  502  0.10986039836E+02 -0.21031095224E+03  0.53979019249E+03  0.57941767458E+03  0.00000000000E+00 0.  1.
<mgrwt>
<rscale>  0 0.18292657E+04</rscale>
<asrwt>0</asrwt>
<pdfrwt beam="1">  1        2 0.70049685E+00 0.18292657E+04</pdfrwt>
<pdfrwt beam="2">  1       -2 0.28265760E-01 0.18292657E+04</pdfrwt>
<totfact> 0.12028569E+00</totfact>
</mgrwt>
</event>
<event>
12    1  0.1214408E-007  0.1645603E+04  0.7818608E-02  0.8793012E-01
         -2   -1    0    0    0  501 -0.00000000000E+00  0.00000000000E+00  0.39681824453E+03  0.39681824453E+03  0.00000000000E+00 0.  1.
          2   -1    0    0  501    0  0.00000000000E+00 -0.00000000000E+00 -0.17060763100E+04  0.17060763100E+04  0.00000000000E+00 0. -1.
         23    2    1    2    0    0  0.22241546295E+02 -0.54715232214E+03 -0.22601433839E+03  0.59947012412E+03  0.91714767341E+02 0.  0.
        254    2    1    2    0    0 -0.22241546295E+02  0.54715232214E+03 -0.10832437270E+04  0.15034244304E+04  0.88712890590E+03 0.  0.
        -24    2    4    4    0    0  0.21972653832E+03  0.49797666361E+03 -0.11136181805E+04  0.12420781789E+04  0.79700949361E+02 0.  0.
         24    2    4    4    0    0 -0.24196808461E+03  0.49175658531E+02  0.30374453474E+02  0.26134625150E+03  0.80077814574E+02 0.  0.
         13    1    3    3    0    0  0.19345785213E+02 -0.54147261211E+03 -0.23319288892E+03  0.58986928426E+03  0.00000000000E+00 0.  1.
        -13    1    3    3    0    0  0.28957610814E+01 -0.56797100302E+01  0.71785505307E+01  0.96008398586E+01  0.00000000000E+00 0. -1.
          2    1    6    6  502    0 -0.23372782396E+03  0.27719330317E+02  0.34845341084E+02  0.23793119754E+03  0.00000000000E+00 0. -1.
          3    1    5    5  503    0  0.18546237803E+03  0.39911916215E+03 -0.82445597733E+03  0.93456945050E+03  0.00000000000E+00 0. -1.
         -4    1    5    5    0  503  0.34264160292E+02  0.98857501460E+02 -0.28916220320E+03  0.30750872839E+03  0.00000000000E+00 0.  1.
         -1    1    6    6    0  502 -0.82402606509E+01  0.21456328215E+02 -0.44708876095E+01  0.23415053963E+02  0.00000000000E+00 0.  1.
<mgrwt>
<rscale>  0 0.16456029E+04</rscale>
<asrwt>0</asrwt>
<pdfrwt beam="1">  1        2 0.26247328E+00 0.16456029E+04</pdfrwt>
<pdfrwt beam="2">  1       -2 0.61048961E-01 0.16456029E+04</pdfrwt>
<totfact> 0.23211005E+01</totfact>
</mgrwt>
</event>
<event>
12    1  0.1201209E-007  0.1652198E+04  0.7818608E-02  0.8789107E-01
          2   -1    0    0  501    0  0.00000000000E+00  0.00000000000E+00  0.33710436890E+04  0.33710436890E+04  0.00000000000E+00 0. -1.
         -2   -1    0    0    0  501 -0.00000000000E+00 -0.00000000000E+00 -0.20244169630E+03  0.20244169630E+03  0.00000000000E+00 0.  1.
         23    2    1    2    0    0  0.50940186839E+03  0.77989857141E+02  0.16197812032E+04  0.17022184169E+04  0.91014895688E+02 0.  0.
        254    2    1    2    0    0 -0.50940186839E+03 -0.77989857141E+02  0.15488207895E+04  0.18712669684E+04  0.91499811351E+03 0.  0.
        -24    2    4    4    0    0 -0.12644817146E+03  0.14194735844E+03  0.13741010132E+04  0.13894956500E+04  0.80039828234E+02 0.  0.
         24    2    4    4    0    0 -0.38295369693E+03 -0.21993721558E+03  0.17471977631E+03  0.48177131847E+03  0.80936334708E+02 0.  0.
         13    1    3    3    0    0  0.45096910727E+02  0.12176156630E+02  0.25167512231E+03  0.25597335278E+03  0.00000000000E+00 0.  1.
        -13    1    3    3    0    0  0.46430495766E+03  0.65813700512E+02  0.13681060809E+04  0.14462450641E+04  0.00000000000E+00 0. -1.
          2    1    6    6  502    0 -0.16003976356E+03 -0.13115472044E+03  0.57683835016E+02  0.21480621834E+03  0.00000000000E+00 0. -1.
          1    1    5    5  503    0 -0.66196479182E+02  0.43880939708E+02  0.34735571319E+03  0.35631938231E+03  0.00000000000E+00 0. -1.
         -2    1    5    5    0  503 -0.60251692276E+02  0.98066418734E+02  0.10267453000E+04  0.10331762676E+04  0.00000000000E+00 0.  1.
         -1    1    6    6    0  502 -0.22291393337E+03 -0.88782495141E+02  0.11703594129E+03  0.26696510013E+03  0.00000000000E+00 0.  1.
<mgrwt>
<rscale>  0 0.16521983E+04</rscale>
<asrwt>0</asrwt>
<pdfrwt beam="1">  1        2 0.51862207E+00 0.16521983E+04</pdfrwt>
<pdfrwt beam="2">  1       -2 0.31144879E-01 0.16521983E+04</pdfrwt>
<totfact> 0.91936582E+00</totfact>
</mgrwt>
</event>
<event>
12    1  0.1201209E-007  0.1499534E+04  0.7818608E-02  0.8884763E-01
          2   -1    0    0  501    0  0.00000000000E+00  0.00000000000E+00  0.17317509839E+04  0.17317509839E+04  0.00000000000E+00 0. -1.
         -2   -1    0    0    0  501 -0.00000000000E+00 -0.00000000000E+00 -0.32461405926E+03  0.32461405926E+03  0.00000000000E+00 0.  1.
         23    2    1    2    0    0 -0.47878099916E+03  0.14066285059E+03  0.45593973308E+03  0.68202226705E+03  0.90862807926E+02 0.  0.
        254    2    1    2    0    0  0.47878099916E+03 -0.14066285059E+03  0.95119719154E+03  0.13743427761E+04  0.85733580720E+03 0.  0.
        -24    2    4    4    0    0  0.16022915300E+03 -0.22900989434E+03 -0.69294569584E+02  0.29871641629E+03  0.79440838431E+02 0.  0.
         24    2    4    4    0    0  0.31855184616E+03  0.88347043749E+02  0.10204917611E+04  0.10756263598E+04  0.79297872266E+02 0.  0.
         13    1    3    3    0    0 -0.17498181965E+03  0.89050138292E+02  0.21245605539E+03  0.28928556792E+03  0.00000000000E+00 0.  1.
        -13    1    3    3    0    0 -0.30379917951E+03  0.51612712300E+02  0.24348367769E+03  0.39273669913E+03  0.00000000000E+00 0. -1.
          4    1    6    6  502    0  0.16153792530E+03  0.75068119520E+02  0.62534063255E+03  0.65021583386E+03  0.00000000000E+00 0. -1.
          1    1    5    5  503    0  0.15919772702E+03 -0.21933657737E+03 -0.47910180738E+02  0.27522324735E+03  0.00000000000E+00 0. -1.
         -2    1    5    5    0  503  0.10314259797E+01 -0.96733169695E+01 -0.21384388846E+02  0.23493168944E+02  0.00000000000E+00 0.  1.
         -3    1    6    6    0  502  0.15701392085E+03  0.13278924229E+02  0.39515112857E+03  0.42541052594E+03  0.00000000000E+00 0.  1.
<mgrwt>
<rscale>  0 0.14995342E+04</rscale>
<asrwt>0</asrwt>
<pdfrwt beam="1">  1        2 0.26642322E+00 0.14995342E+04</pdfrwt>
<pdfrwt beam="2">  1       -2 0.49940625E-01 0.14995342E+04</pdfrwt>
<totfact> 0.34509304E+01</totfact>
</mgrwt>
</event>
<event>
12    1  0.1201209E-007  0.1264180E+04  0.7818608E-02  0.9058463E-01
          2   -1    0    0  501    0  0.00000000000E+00  0.00000000000E+00  0.77483272291E+03  0.77483272291E+03  0.00000000000E+00 0. -1.
         -2   -1    0    0    0  501 -0.00000000000E+00 -0.00000000000E+00 -0.51564389109E+03  0.51564389109E+03  0.00000000000E+00 0.  1.
         23    2    1    2    0    0 -0.15327456045E+03 -0.71374077627E+02 -0.17781562036E+03  0.26776032195E+03  0.10719069609E+03 0.  0.
        254    2    1    2    0    0  0.15327456045E+03  0.71374077627E+02  0.43700445218E+03  0.10227162921E+04  0.90905905913E+03 0.  0.
        -24    2    4    4    0    0  0.58289903932E+01  0.39890120119E+03 -0.52670411733E+02  0.41056226957E+03  0.81431317536E+02 0.  0.
         24    2    4    4    0    0  0.14744557005E+03 -0.32752712357E+03  0.48967486391E+03  0.61215402249E+03  0.77051035741E+02 0.  0.
         13    1    3    3    0    0 -0.78999430204E+02 -0.90439819945E+02 -0.13192658949E+03  0.17839533632E+03  0.00000000000E+00 0.  1.
        -13    1    3    3    0    0 -0.74275130242E+02  0.19065742319E+02 -0.45889030868E+02  0.89364985630E+02  0.00000000000E+00 0. -1.
          2    1    6    6  502    0  0.11216478330E+03 -0.21367707495E+03  0.38016210847E+03  0.45029108329E+03  0.00000000000E+00 0. -1.
          3    1    5    5  503    0  0.20730621813E+02  0.38830279373E+03 -0.51295060842E+02  0.39222442755E+03  0.00000000000E+00 0. -1.
         -4    1    5    5    0  503 -0.14901631419E+02  0.10598407463E+02 -0.13753508906E+01  0.18337842015E+02  0.00000000000E+00 0.  1.
         -1    1    6    6    0  502  0.35280786755E+02 -0.11385004862E+03  0.10951275544E+03  0.16186293921E+03  0.00000000000E+00 0.  1.
<mgrwt>
<rscale>  0 0.12641800E+04</rscale>
<asrwt>0</asrwt>
<pdfrwt beam="1">  1        2 0.11920503E+00 0.12641800E+04</pdfrwt>
<pdfrwt beam="2">  1       -2 0.79329829E-01 0.12641800E+04</pdfrwt>
<totfact> 0.49762716E+01</totfact>
</mgrwt>
</event>
<event>
12    1  0.1201209E-007  0.1101022E+04  0.7818608E-02  0.9204196E-01
         -1   -1    0    0    0  501 -0.00000000000E+00  0.00000000000E+00  0.16893973573E+03  0.16893973573E+03  0.00000000000E+00 0.  1.
          1   -1    0    0  501    0  0.00000000000E+00 -0.00000000000E+00 -0.17939075843E+04  0.17939075843E+04  0.00000000000E+00 0. -1.
         23    2    1    2    0    0 -0.17849334615E+01 -0.53600769986E+02 -0.92190125555E+00  0.10565784045E+03  0.91030219242E+02 0.  0.
        254    2    1    2    0    0  0.17849334615E+01  0.53600769986E+02 -0.16240459473E+04  0.18571894796E+04  0.89930600774E+03 0.  0.
        -24    2    4    4    0    0 -0.34669429638E+03  0.19127607385E+03 -0.12798848798E+04  0.13420937070E+04  0.79540814868E+02 0.  0.
         24    2    4    4    0    0  0.34847922984E+03 -0.13767530387E+03 -0.34416106756E+03  0.51509577264E+03  0.80526713822E+02 0.  0.
         13    1    3    3    0    0  0.29017738227E+02 -0.32244376025E+02 -0.34429832434E+02  0.55381786524E+02  0.00000000000E+00 0. -1.
        -13    1    3    3    0    0 -0.30802671689E+02 -0.21356393960E+02  0.33507931179E+02  0.50276053923E+02  0.00000000000E+00 0.  1.
          2    1    6    6  502    0  0.12931015204E+03 -0.32364254444E+02 -0.16986348229E+03  0.21592165941E+03  0.00000000000E+00 0. -1.
          1    1    5    5  503    0 -0.16826888697E+02 -0.78353412533E+01 -0.57432536313E+02  0.60357542885E+02  0.00000000000E+00 0. -1.
         -2    1    5    5    0  503 -0.32986740768E+03  0.19911141511E+03 -0.12224523435E+04  0.12817361641E+04  0.00000000000E+00 0.  1.
         -1    1    6    6    0  502  0.21916907780E+03 -0.10531104942E+03 -0.17429758527E+03  0.29917411323E+03  0.00000000000E+00 0.  1.
<mgrwt>
<rscale>  0 0.11010218E+04</rscale>
<asrwt>0</asrwt>
<pdfrwt beam="1">  1        1 0.27598578E+00 0.11010218E+04</pdfrwt>
<pdfrwt beam="2">  1       -1 0.25990729E-01 0.11010218E+04</pdfrwt>
<totfact> 0.53757649E+01</totfact>
</mgrwt>
</event>
<event>
12    1  0.1201209E-007  0.1668369E+04  0.7818608E-02  0.8779613E-01
          2   -1    0    0  501    0  0.00000000000E+00  0.00000000000E+00  0.20042791041E+04  0.20042791041E+04  0.00000000000E+00 0. -1.
         -2   -1    0    0    0  501 -0.00000000000E+00 -0.00000000000E+00 -0.34718889991E+03  0.34718889991E+03  0.00000000000E+00 0.  1.
         23    2    1    2    0    0 -0.50901940085E+03 -0.44028198841E+02  0.98969025740E+03  0.11173828480E+04  0.89545466691E+02 0.  0.
        254    2    1    2    0    0  0.50901940085E+03  0.44028198841E+02  0.66739994675E+03  0.12340851560E+04  0.90360624755E+03 0.  0.
        -24    2    4    4    0    0  0.45639033266E+03  0.38562012443E+03  0.63900264918E+03  0.87850311907E+03  0.80301484772E+02 0.  0.
         24    2    4    4    0    0  0.52629068191E+02 -0.34159192559E+03  0.28397297569E+02  0.35558203693E+03  0.78595903399E+02 0.  0.
         11    1    3    3    0    0 -0.27626096178E+03  0.41636382947E+01  0.45634019965E+03  0.53346399382E+03  0.00000000000E+00 0.  1.
        -11    1    3    3    0    0 -0.23275843907E+03 -0.48191837136E+02  0.53335005775E+03  0.58391885415E+03  0.00000000000E+00 0. -1.
          2    1    6    6  502    0  0.42315852877E+02 -0.74387823079E+02  0.20791662449E+02  0.88070839979E+02  0.00000000000E+00 0. -1.
          1    1    5    5  503    0  0.10800126009E+03  0.12090741032E+03  0.21448085249E+03  0.26885853183E+03  0.00000000000E+00 0. -1.
         -2    1    5    5    0  503  0.34838907257E+03  0.26471271410E+03  0.42452179669E+03  0.60964458724E+03  0.00000000000E+00 0.  1.
         -1    1    6    6    0  502  0.10313215313E+02 -0.26720410251E+03  0.76056351202E+01  0.26751119695E+03  0.00000000000E+00 0.  1.
<mgrwt>
<rscale>  0 0.16683686E+04</rscale>
<asrwt>0</asrwt>
<pdfrwt beam="1">  1        2 0.30835063E+00 0.16683686E+04</pdfrwt>
<pdfrwt beam="2">  1       -2 0.53413678E-01 0.16683686E+04</pdfrwt>
<totfact> 0.20943000E+01</totfact>
</mgrwt>
</event>
<event>
12    1  0.1201209E-007  0.1943739E+04  0.7818608E-02  0.8633386E-01
         -1   -1    0    0    0  501 -0.00000000000E+00  0.00000000000E+00  0.27319184896E+03  0.27319184896E+03  0.00000000000E+00 0.  1.
          1   -1    0    0  501    0  0.00000000000E+00 -0.00000000000E+00 -0.34573873218E+04  0.34573873218E+04  0.00000000000E+00 0. -1.
         23    2    1    2    0    0  0.42964864748E+03 -0.32550619981E+03 -0.23005400520E+04  0.23645009691E+04  0.88476299906E+02 0.  0.
        254    2    1    2    0    0 -0.42964864748E+03  0.32550619981E+03 -0.88365542082E+03  0.13660782016E+04  0.89149902066E+03 0.  0.
        -24    2    4    4    0    0 -0.16192211044E+03  0.61156132281E+03 -0.59901431495E+03  0.87475323426E+03  0.78415878037E+02 0.  0.
         24    2    4    4    0    0 -0.26772653704E+03 -0.28605512300E+03 -0.28464110587E+03  0.49132496737E+03  0.82913402882E+02 0.  0.
         11    1    3    3    0    0  0.24622198990E+03 -0.13677939447E+03 -0.11045407950E+04  0.11398878186E+04  0.00000000000E+00 0.  1.
        -11    1    3    3    0    0  0.18342665758E+03 -0.18872680534E+03 -0.11959992570E+04  0.12246131505E+04  0.00000000000E+00 0. -1.
          4    1    6    6  502    0 -0.20985295316E+03 -0.17002440616E+03 -0.17829512933E+03  0.32362897550E+03  0.00000000000E+00 0. -1.
          3    1    5    5  503    0 -0.11117064104E+03  0.46710204637E+03 -0.49522729734E+03  0.68977772447E+03  0.00000000000E+00 0. -1.
         -4    1    5    5    0  503 -0.50751469399E+02  0.14445927644E+03 -0.10378701761E+03  0.18497550979E+03  0.00000000000E+00 0.  1.
         -3    1    6    6    0  502 -0.57873583879E+02 -0.11603071685E+03 -0.10634597655E+03  0.16769599188E+03  0.00000000000E+00 0.  1.
<mgrwt>
<rscale>  0 0.19437387E+04</rscale>
<asrwt>0</asrwt>
<pdfrwt beam="1">  1        1 0.53190573E+00 0.19437387E+04</pdfrwt>
<pdfrwt beam="2">  1       -1 0.42029516E-01 0.19437387E+04</pdfrwt>
<totfact> 0.14056324E+00</totfact>
</mgrwt>
</event>
<event>
12    1  0.1201209E-007  0.1971911E+04  0.7818608E-02  0.8619867E-01
         -2   -1    0    0    0  501 -0.00000000000E+00  0.00000000000E+00  0.92352496289E+03  0.92352496289E+03  0.00000000000E+00 0. -1.
          2   -1    0    0  501    0  0.00000000000E+00 -0.00000000000E+00 -0.10526058805E+04  0.10526058805E+04  0.00000000000E+00 0.  1.
         23    2    1    2    0    0 -0.55109597266E+03  0.40488528544E+03 -0.41756435857E+03  0.80686111369E+03  0.95005251416E+02 0.  0.
        254    2    1    2    0    0  0.55109597266E+03 -0.40488528544E+03  0.28848344100E+03  0.11692697297E+04  0.90350990006E+03 0.  0.
        -24    2    4    4    0    0 -0.19585013301E+03 -0.12498737453E+03  0.27320819130E+03  0.36757101999E+03  0.80539558931E+02 0.  0.
         24    2    4    4    0    0  0.74694610567E+03 -0.27989791091E+03  0.15275249705E+02  0.80169870966E+03  0.78842644033E+02 0.  0.
         13    1    3    3    0    0 -0.80238922501E+02  0.31116497572E+02 -0.27996304370E+02  0.90500354494E+02  0.00000000000E+00 0. -1.
        -13    1    3    3    0    0 -0.47085705016E+03  0.37376878787E+03 -0.38956805420E+03  0.71636075920E+03  0.00000000000E+00 0.  1.
          4    1    6    6  502    0  0.23071553239E+03 -0.65785500201E+02 -0.25936281677E+02  0.24130909562E+03  0.00000000000E+00 0. -1.
          1    1    5    5  503    0 -0.70803515782E+02 -0.56150241762E+02  0.16617992239E+03  0.18916065686E+03  0.00000000000E+00 0. -1.
         -2    1    5    5    0  503 -0.12504661723E+03 -0.68837132769E+02  0.10702826890E+03  0.17841036313E+03  0.00000000000E+00 0.  1.
         -3    1    6    6    0  502  0.51623057328E+03 -0.21411241071E+03  0.41211531382E+02  0.56038961404E+03  0.00000000000E+00 0.  1.
<mgrwt>
<rscale>  0 0.19719106E+04</rscale>
<asrwt>0</asrwt>
<pdfrwt beam="1">  1        2 0.16193937E+00 0.19719106E+04</pdfrwt>
<pdfrwt beam="2">  1       -2 0.14208076E+00 0.19719106E+04</pdfrwt>
<totfact> 0.75048419E+00</totfact>
</mgrwt>
</event>
<event>
12    1  0.1201209E-007  0.1200540E+04  0.7818608E-02  0.9112384E-01
          1   -1    0    0  501    0  0.00000000000E+00  0.00000000000E+00  0.20396907789E+03  0.20396907789E+03  0.00000000000E+00 0. -1.
         -1   -1    0    0    0  501 -0.00000000000E+00 -0.00000000000E+00 -0.17665633595E+04  0.17665633595E+04  0.00000000000E+00 0.  1.
         23    2    1    2    0    0  0.19502794037E+02  0.22959031409E+03 -0.15262070780E+03  0.28803402640E+03  0.81107636004E+02 0.  0.
        254    2    1    2    0    0 -0.19502794037E+02 -0.22959031409E+03 -0.14099735738E+04  0.16824984110E+04  0.88864129593E+03 0.  0.
        -24    2    4    4    0    0  0.63047771223E+02 -0.31910279510E+03 -0.80562437447E+02  0.34521587521E+03  0.82958296006E+02 0.  0.
         24    2    4    4    0    0 -0.82550565260E+02  0.89512481010E+02 -0.13294111364E+04  0.13372825358E+04  0.78508158247E+02 0.  0.
         11    1    3    3    0    0 -0.16385801523E+02  0.45259657080E+02 -0.35453905349E+01  0.48264902823E+02  0.00000000000E+00 0. -1.
        -11    1    3    3    0    0  0.35888595560E+02  0.18433065701E+03 -0.14907531726E+03  0.23976912358E+03  0.00000000000E+00 0.  1.
          2    1    6    6  502    0 -0.26206556627E+02  0.27395045014E+02 -0.83105195159E+03  0.83191623277E+03  0.00000000000E+00 0. -1.
          1    1    5    5  503    0  0.38783227566E+02 -0.17305261007E+03 -0.14477631643E+01  0.17735117877E+03  0.00000000000E+00 0. -1.
         -2    1    5    5    0  503  0.24264543657E+02 -0.14605018503E+03 -0.79114674283E+02  0.16786469645E+03  0.00000000000E+00 0.  1.
         -1    1    6    6    0  502 -0.56344008633E+02  0.62117435996E+02 -0.49835918479E+03  0.50536630302E+03  0.00000000000E+00 0.  1.
<mgrwt>
<rscale>  0 0.12005404E+04</rscale>
<asrwt>0</asrwt>
<pdfrwt beam="1">  1        1 0.31379858E-01 0.12005404E+04</pdfrwt>
<pdfrwt beam="2">  1       -1 0.27177898E+00 0.12005404E+04</pdfrwt>
<totfact> 0.72500222E+00</totfact>
</mgrwt>
</event>
<event>
12    1  0.1201209E-007  0.1724417E+04  0.7818608E-02  0.8747560E-01
          2   -1    0    0  501    0  0.00000000000E+00  0.00000000000E+00  0.26383097980E+03  0.26383097980E+03  0.00000000000E+00 0.  1.
         -2   -1    0    0    0  501 -0.00000000000E+00 -0.00000000000E+00 -0.28177249505E+04  0.28177249505E+04  0.00000000000E+00 0. -1.
         23    2    1    2    0    0  0.16659100581E+03  0.58274105586E+03 -0.69549906676E+03  0.92709668152E+03  0.91921725501E+02 0.  0.
        254    2    1    2    0    0 -0.16659100581E+03 -0.58274105586E+03 -0.18583949040E+04  0.21544592488E+04  0.90593782035E+03 0.  0.
        -24    2    4    4    0    0 -0.12203526057E+02 -0.78168854194E+03 -0.10986061047E+04  0.13507294545E+04  0.79679252587E+02 0.  0.
         24    2    4    4    0    0 -0.15438747975E+03  0.19894748609E+03 -0.75978879924E+03  0.80372979431E+03  0.72711530591E+02 0.  0.
         11    1    3    3    0    0  0.57055746681E+02  0.17064314877E+03 -0.14696202683E+03  0.23231934870E+03  0.00000000000E+00 0. -1.
        -11    1    3    3    0    0  0.10953525912E+03  0.41209790708E+03 -0.54853703993E+03  0.69477733281E+03  0.00000000000E+00 0.  1.
          2    1    6    6  502    0 -0.13776828816E+03  0.19630235713E+03 -0.65347095262E+03  0.69608835829E+03  0.00000000000E+00 0. -1.
          3    1    5    5  503    0  0.84552430369E+01 -0.63985583378E+03 -0.93775644349E+03  0.11352859228E+04  0.00000000000E+00 0. -1.
         -4    1    5    5    0  503 -0.20658769094E+02 -0.14183270816E+03 -0.16084966124E+03  0.21544353173E+03  0.00000000000E+00 0.  1.
         -1    1    6    6    0  502 -0.16619191585E+02  0.26451289576E+01 -0.10631784662E+03  0.10764143601E+03  0.00000000000E+00 0.  1.
<mgrwt>
<rscale>  0 0.17244166E+04</rscale>
<asrwt>0</asrwt>
<pdfrwt beam="1">  1        2 0.40589381E-01 0.17244166E+04</pdfrwt>
<pdfrwt beam="2">  1       -2 0.43349615E+00 0.17244166E+04</pdfrwt>
<totfact> 0.54012143E-01</totfact>
</mgrwt>
</event>
<event>
12    1  0.1201209E-007  0.2196970E+04  0.7818608E-02  0.8519690E-01
          1   -1    0    0  501    0  0.00000000000E+00  0.00000000000E+00  0.17288325547E+04  0.17288325547E+04  0.00000000000E+00 0. -1.
         -1   -1    0    0    0  501 -0.00000000000E+00 -0.00000000000E+00 -0.69796790884E+03  0.69796790884E+03  0.00000000000E+00 0.  1.
         23    2    1    2    0    0 -0.73942004531E+03 -0.12357879524E+03 -0.14316301262E+03  0.76858278345E+03  0.90609738965E+02 0.  0.
        254    2    1    2    0    0  0.73942004531E+03  0.12357879524E+03  0.11740276585E+04  0.16582176801E+04  0.89962837308E+03 0.  0.
        -24    2    4    4    0    0  0.45728994262E+03 -0.33890978308E+03  0.83674076862E+03  0.10151402448E+04  0.80004188191E+02 0.  0.
         24    2    4    4    0    0  0.28213010269E+03  0.46248857833E+03  0.33728688989E+03  0.64307743527E+03  0.79328820337E+02 0.  0.
         13    1    3    3    0    0 -0.48079216415E+03 -0.81243649840E+02 -0.13680467890E+03  0.50643573720E+03  0.00000000000E+00 0. -1.
        -13    1    3    3    0    0 -0.25862788116E+03 -0.42335145404E+02 -0.63583337251E+01  0.26214704625E+03  0.00000000000E+00 0.  1.
          4    1    6    6  502    0  0.24623164136E+01  0.36167129410E+02  0.34710917585E+02  0.50189361935E+02  0.00000000000E+00 0. -1.
          3    1    5    5  503    0  0.19193055863E+02 -0.15043253527E+02  0.73212558134E+02  0.77167036606E+02  0.00000000000E+00 0. -1.
         -4    1    5    5    0  503  0.43809688676E+03 -0.32386652956E+03  0.76352821049E+03  0.93797320824E+03  0.00000000000E+00 0.  1.
         -3    1    6    6    0  502  0.27966778627E+03  0.42632144892E+03  0.30257597230E+03  0.59288807333E+03  0.00000000000E+00 0.  1.
<mgrwt>
<rscale>  0 0.21969703E+04</rscale>
<asrwt>0</asrwt>
<pdfrwt beam="1">  1        1 0.26597424E+00 0.21969703E+04</pdfrwt>
<pdfrwt beam="2">  1       -1 0.10737968E+00 0.21969703E+04</pdfrwt>
<totfact> 0.33553403E+00</totfact>
</mgrwt>
</event>
<event>
12    1  0.1201209E-007  0.1880121E+04  0.7818608E-02  0.8664815E-01
          1   -1    0    0  501    0  0.00000000000E+00  0.00000000000E+00  0.18334784402E+04  0.18334784402E+04  0.00000000000E+00 0. -1.
         -1   -1    0    0    0  501 -0.00000000000E+00 -0.00000000000E+00 -0.48198741407E+03  0.48198741407E+03  0.00000000000E+00 0.  1.
         23    2    1    2    0    0 -0.47769473725E+03 -0.39582172513E+03  0.96788123542E+03  0.11531716975E+04  0.90242883174E+02 0.  0.
        254    2    1    2    0    0  0.47769473725E+03  0.39582172513E+03  0.38360979074E+03  0.11622941568E+04  0.90493322146E+03 0.  0.
        -24    2    4    4    0    0  0.20143436420E+03 -0.24448222940E+03  0.32032002857E+03  0.45758251615E+03  0.80184005973E+02 0.  0.
         24    2    4    4    0    0  0.27626037305E+03  0.64030395453E+03  0.63289762178E+02  0.70471164064E+03  0.79397446803E+02 0.  0.
         11    1    3    3    0    0 -0.46359387325E+03 -0.39387891984E+03  0.96101120404E+03  0.11373664392E+04  0.00000000000E+00 0. -1.
        -11    1    3    3    0    0 -0.14100863991E+02 -0.19428052918E+01  0.68700313838E+01  0.15805258268E+02  0.00000000000E+00 0.  1.
          4    1    6    6  502    0  0.26808233227E+03  0.62569602987E+03  0.74182731516E+02  0.68473844374E+03  0.00000000000E+00 0. -1.
          3    1    5    5  503    0  0.11712139027E+03 -0.19792902045E+03  0.21438570576E+03  0.31441143113E+03  0.00000000000E+00 0. -1.
         -4    1    5    5    0  503  0.84312973931E+02 -0.46553208958E+02  0.10593432281E+03  0.14317108502E+03  0.00000000000E+00 0.  1.
         -3    1    6    6    0  502  0.81780407768E+01  0.14607924658E+02 -0.10892969338E+02  0.19973196909E+02  0.00000000000E+00 0.  1.
<mgrwt>
<rscale>  0 0.18801208E+04</rscale>
<asrwt>0</asrwt>
<pdfrwt beam="1">  1        1 0.28207360E+00 0.18801208E+04</pdfrwt>
<pdfrwt beam="2">  1       -1 0.74151911E-01 0.18801208E+04</pdfrwt>
<totfact> 0.66335047E+00</totfact>
</mgrwt>
</event>
<event>
12    1  0.1201209E-007  0.1129351E+04  0.7818608E-02  0.9177048E-01
         -1   -1    0    0    0  501 -0.00000000000E+00  0.00000000000E+00  0.72473581169E+03  0.72473581169E+03  0.00000000000E+00 0.  1.
          1   -1    0    0  501    0  0.00000000000E+00 -0.00000000000E+00 -0.43996479315E+03  0.43996479315E+03  0.00000000000E+00 0. -1.
         23    2    1    2    0    0  0.10008502079E+03 -0.13402591936E+03  0.14631225273E+03  0.23964392917E+03  0.89677082039E+02 0.  0.
        254    2    1    2    0    0 -0.10008502079E+03  0.13402591936E+03  0.13845876581E+03  0.92505667567E+03  0.89921024512E+03 0.  0.
        -24    2    4    4    0    0  0.89082894192E+02  0.48645416171E+03  0.12649474621E+03  0.51705891034E+03  0.82313926248E+02 0.  0.
         24    2    4    4    0    0 -0.18916791498E+03 -0.35242824235E+03  0.11964019603E+02  0.40799776533E+03  0.79554212256E+02 0.  0.
         11    1    3    3    0    0  0.48543613975E+02 -0.94580141457E+02  0.13801419594E+03  0.17421195108E+03  0.00000000000E+00 0.  1.
        -11    1    3    3    0    0  0.51541406812E+02 -0.39445777906E+02  0.82980567810E+01  0.65431978092E+02  0.00000000000E+00 0. -1.
          2    1    6    6  502    0 -0.30583762838E+02 -0.25424895449E+02 -0.17345320164E+02  0.43389537789E+02  0.00000000000E+00 0. -1.
          1    1    5    5  503    0  0.12606906916E+02  0.58422581331E+01  0.85411646578E+01  0.16310045242E+02  0.00000000000E+00 0. -1.
         -2    1    5    5    0  503  0.76475987276E+02  0.48061190358E+03  0.11795358155E+03  0.50074886510E+03  0.00000000000E+00 0.  1.
         -1    1    6    6    0  502 -0.15858415214E+03 -0.32700334690E+03  0.29309339767E+02  0.36460822754E+03  0.00000000000E+00 0.  1.
<mgrwt>
<rscale>  0 0.11293507E+04</rscale>
<asrwt>0</asrwt>
<pdfrwt beam="1">  1        1 0.67686891E-01 0.11293507E+04</pdfrwt>
<pdfrwt beam="2">  1       -1 0.11149782E+00 0.11293507E+04</pdfrwt>
<totfact> 0.38824015E+01</totfact>
</mgrwt>
</event>
<event>
12    1  0.1201209E-007  0.1299159E+04  0.7818608E-02  0.9030232E-01
          2   -1    0    0  501    0  0.00000000000E+00  0.00000000000E+00  0.25828951649E+04  0.25828951649E+04  0.00000000000E+00 0. -1.
         -2   -1    0    0    0  501 -0.00000000000E+00 -0.00000000000E+00 -0.16336452715E+03  0.16336452715E+03  0.00000000000E+00 0.  1.
         23    2    1    2    0    0 -0.18416096867E+03  0.26006995950E+02  0.12278238367E+04  0.12451158008E+04  0.90390028559E+02 0.  0.
        254    2    1    2    0    0  0.18416096867E+03 -0.26006995950E+02  0.11917068010E+04  0.15011438912E+04  0.89368688939E+03 0.  0.
        -24    2    4    4    0    0 -0.27808672755E+03 -0.21843207464E+03  0.28067103003E+03  0.45852619965E+03  0.80157653391E+02 0.  0.
         24    2    4    4    0    0  0.46224769622E+03  0.19242507869E+03  0.91103577096E+03  0.10426176915E+04  0.79781771971E+02 0.  0.
         13    1    3    3    0    0 -0.18527763091E+03  0.36696838109E+02  0.12069297164E+04  0.12216193346E+04  0.00000000000E+00 0. -1.
        -13    1    3    3    0    0  0.11166622397E+01 -0.10689842159E+02  0.20894120349E+02  0.23496466226E+02  0.00000000000E+00 0.  1.
          2    1    6    6  502    0  0.43303421774E+03  0.17912168026E+03  0.88449369252E+03  0.10009656848E+04  0.00000000000E+00 0. -1.
          1    1    5    5  503    0 -0.22245781081E+03 -0.17590184516E+03  0.18001308207E+03  0.33590719915E+03  0.00000000000E+00 0. -1.
         -2    1    5    5    0  503 -0.55628916741E+02 -0.42530229475E+02  0.10065794796E+03  0.12261900050E+03  0.00000000000E+00 0.  1.
         -1    1    6    6    0  502  0.29213478486E+02  0.13303398430E+02  0.26542078443E+02  0.41652006712E+02  0.00000000000E+00 0.  1.
<mgrwt>
<rscale>  0 0.12991589E+04</rscale>
<asrwt>0</asrwt>
<pdfrwt beam="1">  1        2 0.39736846E+00 0.12991589E+04</pdfrwt>
<pdfrwt beam="2">  1       -2 0.25133006E-01 0.12991589E+04</pdfrwt>
<totfact> 0.43624571E+01</totfact>
</mgrwt>
</event>
<event>
12    1  0.1201209E-007  0.1310792E+04  0.7818608E-02  0.9021050E-01
          2   -1    0    0  501    0  0.00000000000E+00  0.00000000000E+00  0.88962894615E+03  0.88962894615E+03  0.00000000000E+00 0. -1.
         -2   -1    0    0    0  501 -0.00000000000E+00 -0.00000000000E+00 -0.48283519887E+03  0.48283519887E+03  0.00000000000E+00 0.  1.
         23    2    1    2    0    0 -0.10428581548E+02  0.32277871992E+03  0.23890456152E+03  0.41238987828E+03  0.93247867759E+02 0.  0.
        254    2    1    2    0    0  0.10428581548E+02 -0.32277871992E+03  0.16788918576E+03  0.96007426675E+03  0.88840360289E+03 0.  0.
        -24    2    4    4    0    0  0.28982158804E+03 -0.31758833099E+03 -0.20769562925E+03  0.48448454793E+03  0.82029884185E+02 0.  0.
         24    2    4    4    0    0 -0.27939300650E+03 -0.51903889303E+01  0.37558481501E+03  0.47558971881E+03  0.83870347326E+02 0.  0.
         13    1    3    3    0    0  0.22295848223E+01  0.27087933285E+03  0.15266640645E+03  0.31094632282E+03  0.00000000000E+00 0.  1.
        -13    1    3    3    0    0 -0.12658166370E+02  0.51899387067E+02  0.86238155070E+02  0.10144355546E+03  0.00000000000E+00 0. -1.
          2    1    6    6  502    0 -0.13298544792E+03 -0.42458163811E+02  0.15999708722E+03  0.21233674424E+03  0.00000000000E+00 0. -1.
          1    1    5    5  503    0  0.43905046565E+02 -0.14532351333E+02 -0.11452744600E+02  0.47644597889E+02  0.00000000000E+00 0. -1.
         -2    1    5    5    0  503  0.24591654148E+03 -0.30305597966E+03 -0.19624288465E+03  0.43683995004E+03  0.00000000000E+00 0.  1.
         -1    1    6    6    0  502 -0.14640755857E+03  0.37267774881E+02  0.21558772779E+03  0.26325297458E+03  0.00000000000E+00 0.  1.
<mgrwt>
<rscale>  0 0.13107924E+04</rscale>
<asrwt>0</asrwt>
<pdfrwt beam="1">  1        2 0.13686599E+00 0.13107924E+04</pdfrwt>
<pdfrwt beam="2">  1       -2 0.74282338E-01 0.13107924E+04</pdfrwt>
<totfact> 0.47630285E+01</totfact>
</mgrwt>
</event>
<event>
12    1  0.1201209E-007  0.1817705E+04  0.7818608E-02  0.8696941E-01
         -1   -1    0    0    0  501 -0.00000000000E+00  0.00000000000E+00  0.25003267204E+03  0.25003267204E+03  0.00000000000E+00 0.  1.
          1   -1    0    0  501    0  0.00000000000E+00 -0.00000000000E+00 -0.33036181483E+04  0.33036181483E+04  0.00000000000E+00 0. -1.
         23    2    1    2    0    0 -0.59561379099E+03 -0.29837811485E+03 -0.86394015082E+03  0.10947241645E+04  0.90791655788E+02 0.  0.
        254    2    1    2    0    0  0.59561379099E+03  0.29837811485E+03 -0.21896453254E+04  0.24589266558E+04  0.89888172749E+03 0.  0.
        -24    2    4    4    0    0  0.57485916269E+03  0.16085013115E+03 -0.56305164323E+03  0.82438156884E+03  0.79006306541E+02 0.  0.
         24    2    4    4    0    0  0.20754628297E+02  0.13752798370E+03 -0.16265936822E+04  0.16345450870E+04  0.81153764254E+02 0.  0.
         11    1    3    3    0    0 -0.59434910966E+03 -0.29183785838E+03 -0.83841702671E+03  0.10683460630E+04  0.00000000000E+00 0.  1.
        -11    1    3    3    0    0 -0.12646813275E+01 -0.65402564721E+01 -0.25523124114E+02  0.26378101488E+02  0.00000000000E+00 0. -1.
          4    1    6    6  502    0  0.10450988943E+02  0.80972853699E+02 -0.51189130663E+03  0.51836139517E+03  0.00000000000E+00 0. -1.
          1    1    5    5  503    0  0.53342832755E+03  0.12937432929E+03 -0.49854088646E+03  0.74150287470E+03  0.00000000000E+00 0. -1.
         -2    1    5    5    0  503  0.41430835140E+02  0.31475801862E+02 -0.64510756766E+02  0.82878694137E+02  0.00000000000E+00 0.  1.
         -3    1    6    6    0  502  0.10303639355E+02  0.56555130005E+02 -0.11147023756E+04  0.11161836918E+04  0.00000000000E+00 0.  1.
<mgrwt>
<rscale>  0 0.18177046E+04</rscale>
<asrwt>0</asrwt>
<pdfrwt beam="1">  1        1 0.50824894E+00 0.18177046E+04</pdfrwt>
<pdfrwt beam="2">  1       -1 0.38466565E-01 0.18177046E+04</pdfrwt>
<totfact> 0.21978836E+00</totfact>
</mgrwt>
</event>
<event>
12    1  0.1201209E-007  0.1484758E+04  0.7818608E-02  0.8894652E-01
         -1   -1    0    0    0  501 -0.00000000000E+00  0.00000000000E+00  0.48853217240E+03  0.48853217240E+03  0.00000000000E+00 0.  1.
          1   -1    0    0  501    0  0.00000000000E+00 -0.00000000000E+00 -0.11281274147E+04  0.11281274147E+04  0.00000000000E+00 0. -1.
         23    2    1    2    0    0  0.23823989193E+03 -0.29352085543E+03  0.86152164212E+02  0.39830218453E+03  0.91157534663E+02 0.  0.
        254    2    1    2    0    0 -0.23823989193E+03  0.29352085543E+03 -0.72574740653E+03  0.12183574026E+04  0.90264761876E+03 0.  0.
        -24    2    4    4    0    0 -0.44612259119E+03 -0.12668152242E+03 -0.51599026988E+03  0.69843919560E+03  0.80608788884E+02 0.  0.
         24    2    4    4    0    0  0.20788269926E+03  0.42020237786E+03 -0.20975713665E+03  0.51991820698E+03  0.80818503827E+02 0.  0.
         13    1    3    3    0    0  0.23093610329E+03 -0.23993542716E+03  0.87076752866E+02  0.34421338425E+03  0.00000000000E+00 0.  1.
        -13    1    3    3    0    0  0.73037886406E+01 -0.53585428276E+02 -0.92458865400E+00  0.54088800284E+02  0.00000000000E+00 0. -1.
          2    1    6    6  502    0  0.54460110638E+02  0.59292084679E+02 -0.14394029262E+02  0.81784124588E+02  0.00000000000E+00 0. -1.
          1    1    5    5  503    0 -0.15318486557E+03 -0.23058334650E+02 -0.22178693817E+03  0.27053047107E+03  0.00000000000E+00 0. -1.
         -2    1    5    5    0  503 -0.29293772562E+03 -0.10362318777E+03 -0.29420333171E+03  0.42790872453E+03  0.00000000000E+00 0.  1.
         -1    1    6    6    0  502  0.15342258862E+03  0.36091029318E+03 -0.19536310739E+03  0.43813408239E+03  0.00000000000E+00 0.  1.
<mgrwt>
<rscale>  0 0.14847579E+04</rscale>
<asrwt>0</asrwt>
<pdfrwt beam="1">  1        1 0.17355806E+00 0.14847579E+04</pdfrwt>
<pdfrwt beam="2">  1       -1 0.75158796E-01 0.14847579E+04</pdfrwt>
<totfact> 0.20823265E+01</totfact>
</mgrwt>
</event>
<event>
12    1  0.1201209E-007  0.1579553E+04  0.7818608E-02  0.8833208E-01
         -2   -1    0    0    0  501 -0.00000000000E+00  0.00000000000E+00  0.43985065790E+03  0.43985065790E+03  0.00000000000E+00 0.  1.
          2   -1    0    0  501    0  0.00000000000E+00 -0.00000000000E+00 -0.14180887785E+04  0.14180887785E+04  0.00000000000E+00 0. -1.
         23    2    1    2    0    0 -0.24660233112E+03 -0.42865322458E+03 -0.73483166955E+02  0.50913654516E+03  0.96249411069E+02 0.  0.
        254    2    1    2    0    0  0.24660233112E+03  0.42865322458E+03 -0.90475495361E+03  0.13488028912E+04  0.86955817319E+03 0.  0.
        -24    2    4    4    0    0  0.38414581048E+03  0.82912741715E+02 -0.88275579644E+03  0.96950574523E+03  0.79000426881E+02 0.  0.
         24    2    4    4    0    0 -0.13754347936E+03  0.34574048287E+03 -0.21999157168E+02  0.37929714596E+03  0.70197377514E+02 0.  0.
         13    1    3    3    0    0 -0.20199577825E+02 -0.11482716030E+03 -0.23751031584E+02  0.11898492000E+03  0.00000000000E+00 0. -1.
        -13    1    3    3    0    0 -0.22640275330E+03 -0.31382606428E+03 -0.49732135371E+02  0.39015162516E+03  0.00000000000E+00 0.  1.
          2    1    6    6  502    0 -0.90741580791E+02  0.13862946519E+03  0.12779145743E+01  0.16569187116E+03  0.00000000000E+00 0. -1.
          3    1    5    5  503    0  0.10824228848E+03  0.22099752657E+02 -0.16940885606E+03  0.20224775053E+03  0.00000000000E+00 0. -1.
         -4    1    5    5    0  503  0.27590352200E+03  0.60812989058E+02 -0.71334694037E+03  0.76725799470E+03  0.00000000000E+00 0.  1.
         -1    1    6    6    0  502 -0.46801898571E+02  0.20711101768E+03 -0.23277071743E+02  0.21360527480E+03  0.00000000000E+00 0.  1.
<mgrwt>
<rscale>  0 0.15795535E+04</rscale>
<asrwt>0</asrwt>
<pdfrwt beam="1">  1        2 0.21816750E+00 0.15795535E+04</pdfrwt>
<pdfrwt beam="2">  1       -2 0.67669332E-01 0.15795535E+04</pdfrwt>
<totfact> 0.27156802E+01</totfact>
</mgrwt>
</event>
<event>
12    1  0.1201209E-007  0.2990481E+04  0.7818608E-02  0.8246454E-01
         -1   -1    0    0    0  501 -0.00000000000E+00  0.00000000000E+00  0.10736552823E+04  0.10736552823E+04  0.00000000000E+00 0.  1.
          1   -1    0    0  501    0  0.00000000000E+00 -0.00000000000E+00 -0.20823669066E+04  0.20823669066E+04  0.00000000000E+00 0. -1.
         23    2    1    2    0    0  0.53544357997E+03  0.54899525033E+03  0.69310896422E+03  0.10376268781E+04  0.90409566180E+02 0.  0.
        254    2    1    2    0    0 -0.53544357997E+03 -0.54899525033E+03 -0.17018205884E+04  0.21183953108E+04  0.10016535156E+04 0.  0.
        -24    2    4    4    0    0 -0.37137435797E+03 -0.80919973064E+03 -0.14864349954E+04  0.17345183276E+04  0.79634888715E+02 0.  0.
         24    2    4    4    0    0 -0.16406922200E+03  0.26020448031E+03 -0.21538559307E+03  0.38387698316E+03  0.79658667596E+02 0.  0.
         13    1    3    3    0    0  0.16110238420E+03  0.13151491286E+03  0.14514851696E+03  0.25361041476E+03  0.00000000000E+00 0.  1.
        -13    1    3    3    0    0  0.37434119577E+03  0.41748033747E+03  0.54796044726E+03  0.78401646334E+03  0.00000000000E+00 0. -1.
          2    1    6    6  502    0 -0.11939777255E+03  0.15476681446E+03 -0.93644926332E+02  0.21674401301E+03  0.00000000000E+00 0. -1.
          1    1    5    5  503    0 -0.47179218453E+02 -0.14612047340E+03 -0.30513623449E+03  0.34159214423E+03  0.00000000000E+00 0. -1.
         -2    1    5    5    0  503 -0.32419513952E+03 -0.66307925724E+03 -0.11812987609E+04  0.13929261834E+04  0.00000000000E+00 0.  1.
         -1    1    6    6    0  502 -0.44671449444E+02  0.10543766585E+03 -0.12174066674E+03  0.16713297015E+03  0.00000000000E+00 0.  1.
<mgrwt>
<rscale>  0 0.29904811E+04</rscale>
<asrwt>0</asrwt>
<pdfrwt beam="1">  1        1 0.32036414E+00 0.29904811E+04</pdfrwt>
<pdfrwt beam="2">  1       -1 0.16517774E+00 0.29904811E+04</pdfrwt>
<totfact> 0.59611763E-01</totfact>
</mgrwt>
</event>
<event>
12    1  0.1201209E-007  0.1592365E+04  0.7818608E-02  0.8825252E-01
          2   -1    0    0  501    0  0.00000000000E+00  0.00000000000E+00  0.46289182903E+04  0.46289182903E+04  0.00000000000E+00 0. -1.
         -2   -1    0    0    0  501 -0.00000000000E+00 -0.00000000000E+00 -0.13694487893E+03  0.13694487893E+03  0.00000000000E+00 0.  1.
         23    2    1    2    0    0  0.13166136051E+03 -0.51826769375E+03  0.15524709194E+04  0.16446370475E+04  0.93428829414E+02 0.  0.
        254    2    1    2    0    0 -0.13166136051E+03  0.51826769375E+03  0.29395024920E+04  0.31212261218E+04  0.90301798792E+03 0.  0.
        -24    2    4    4    0    0 -0.91131368519E+02 -0.92349135362E+02  0.40971179849E+02  0.15770300829E+03  0.79739025049E+02 0.  0.
         24    2    4    4    0    0 -0.40529991987E+02  0.61061682911E+03  0.28985313122E+04  0.29635231135E+04  0.80559818480E+02 0.  0.
         13    1    3    3    0    0  0.89203729685E+02 -0.36553256499E+03  0.95377459423E+03  0.10253084112E+04  0.00000000000E+00 0. -1.
        -13    1    3    3    0    0  0.42457630821E+02 -0.15273512876E+03  0.59869632517E+03  0.61932863631E+03  0.00000000000E+00 0.  1.
          2    1    6    6  502    0  0.19646058359E+02  0.31010161564E+03  0.14752244721E+04  0.15075928571E+04  0.00000000000E+00 0. -1.
          3    1    5    5  503    0 -0.99188057153E+02 -0.63794669828E+02  0.16175271051E+02  0.11903642289E+03  0.00000000000E+00 0. -1.
         -4    1    5    5    0  503  0.80566886343E+01 -0.28554465534E+02  0.24795908798E+02  0.38666585404E+02  0.00000000000E+00 0.  1.
         -1    1    6    6    0  502 -0.60176050346E+02  0.30051521347E+03  0.14233068400E+04  0.14559302564E+04  0.00000000000E+00 0.  1.
<mgrwt>
<rscale>  0 0.15923651E+04</rscale>
<asrwt>0</asrwt>
<pdfrwt beam="1">  1        2 0.71214116E+00 0.15923651E+04</pdfrwt>
<pdfrwt beam="2">  1       -2 0.21068446E-01 0.15923651E+04</pdfrwt>
<totfact> 0.17664608E+00</totfact>
</mgrwt>
</event>
<event>
12    1  0.1201209E-007  0.1668486E+04  0.7818608E-02  0.8779545E-01
         -1   -1    0    0    0  501 -0.00000000000E+00  0.00000000000E+00  0.66032534370E+03  0.66032534370E+03  0.00000000000E+00 0.  1.
          1   -1    0    0  501    0  0.00000000000E+00 -0.00000000000E+00 -0.10539668996E+04  0.10539668996E+04  0.00000000000E+00 0. -1.
         23    2    1    2    0    0 -0.50602433054E+03  0.28665013608E+03 -0.25577254179E+03  0.64190548654E+03  0.91619522488E+02 0.  0.
        254    2    1    2    0    0  0.50602433054E+03 -0.28665013608E+03 -0.13786901414E+03  0.10723867568E+04  0.89038001296E+03 0.  0.
        -24    2    4    4    0    0  0.15224353749E+03 -0.44738519691E+03  0.22999759120E+03  0.53222579107E+03  0.83867702940E+02 0.  0.
         24    2    4    4    0    0  0.35378079306E+03  0.16073506084E+03 -0.36786660534E+03  0.54016096573E+03  0.73833733876E+02 0.  0.
         13    1    3    3    0    0 -0.43034278910E+03  0.24208495393E+03 -0.17885082409E+03  0.52515488984E+03  0.00000000000E+00 0. -1.
        -13    1    3    3    0    0 -0.75681541444E+02  0.44565182146E+02 -0.76921717697E+02  0.11675059669E+03  0.00000000000E+00 0.  1.
          4    1    6    6  502    0  0.25155396291E+03  0.14721619260E+03 -0.25483252190E+03  0.38715838857E+03  0.00000000000E+00 0. -1.
          3    1    5    5  503    0  0.95944258899E+02 -0.31191724655E+03  0.11565673860E+03  0.34622846604E+03  0.00000000000E+00 0. -1.
         -4    1    5    5    0  503  0.56299278587E+02 -0.13546795036E+03  0.11434085260E+03  0.18599732503E+03  0.00000000000E+00 0.  1.
         -3    1    6    6    0  502  0.10222683015E+03  0.13518868236E+02 -0.11303408343E+03  0.15300257716E+03  0.00000000000E+00 0.  1.
<mgrwt>
<rscale>  0 0.16684856E+04</rscale>
<asrwt>0</asrwt>
<pdfrwt beam="1">  1        1 0.16214875E+00 0.16684856E+04</pdfrwt>
<pdfrwt beam="2">  1       -1 0.10158851E+00 0.16684856E+04</pdfrwt>
<totfact> 0.12054626E+01</totfact>
</mgrwt>
</event>
<event>
12    1  0.1564514E-007  0.2080595E+04  0.7818608E-02  0.8569840E-01
          2   -1    0    0  501    0  0.00000000000E+00  0.00000000000E+00  0.28493156902E+04  0.28493156902E+04  0.00000000000E+00 0. -1.
         -2   -1    0    0    0  501 -0.00000000000E+00 -0.00000000000E+00 -0.37981705890E+03  0.37981705890E+03  0.00000000000E+00 0.  1.
         23    2    1    2    0    0 -0.71397287392E+03  0.35106413933E+03  0.14296893186E+04  0.16386958942E+04  0.91155863851E+02 0.  0.
        254    2    1    2    0    0  0.71397287392E+03 -0.35106413933E+03  0.10398093127E+04  0.15904368548E+04  0.90293005698E+03 0.  0.
        -24    2    4    4    0    0  0.13956408674E+03  0.20643411683E+03  0.64121499746E+03  0.69267653200E+03  0.80937791634E+02 0.  0.
         24    2    4    4    0    0  0.57440878718E+03 -0.55749825616E+03  0.39859431524E+03  0.89776032283E+03  0.79664350258E+02 0.  0.
         11    1    3    3    0    0 -0.54547952867E+03  0.29073271772E+03  0.10389695889E+04  0.12089380612E+04  0.00000000000E+00 0. -1.
        -11    1    3    3    0    0 -0.16849334525E+03  0.60331421610E+02  0.39071972971E+03  0.42975783298E+03  0.00000000000E+00 0.  1.
          4    1    6    6  502    0  0.55220406279E+03 -0.52110466826E+03  0.39243848220E+03  0.85468553548E+03  0.00000000000E+00 0. -1.
          3    1    5    5  503    0  0.12984842111E+03  0.20640722526E+03  0.63701045001E+03  0.68209007362E+03  0.00000000000E+00 0. -1.
         -2    1    5    5    0  503  0.97156656289E+01  0.26891564243E-01  0.42045474500E+01  0.10586458380E+02  0.00000000000E+00 0.  1.
         -3    1    6    6    0  502  0.22204724393E+02 -0.36393587897E+02  0.61558330421E+01  0.43074787356E+02  0.00000000000E+00 0.  1.
<mgrwt>
<rscale>  0 0.20805948E+04</rscale>
<asrwt>0</asrwt>
<pdfrwt beam="1">  1        2 0.43835625E+00 0.20805948E+04</pdfrwt>
<pdfrwt beam="2">  1       -2 0.58433396E-01 0.20805948E+04</pdfrwt>
<totfact> 0.54626362E+00</totfact>
</mgrwt>
</event>
<event>
12    1  0.1201209E-007  0.1720845E+04  0.7818608E-02  0.8749564E-01
          1   -1    0    0  501    0  0.00000000000E+00  0.00000000000E+00  0.80846018843E+03  0.80846018843E+03  0.00000000000E+00 0. -1.
         -1   -1    0    0    0  501 -0.00000000000E+00 -0.00000000000E+00 -0.91572481216E+03  0.91572481216E+03  0.00000000000E+00 0.  1.
         23    2    1    2    0    0  0.45089542790E+03  0.59233081529E+02 -0.48980595073E+03  0.67465427042E+03  0.91832839272E+02 0.  0.
        254    2    1    2    0    0 -0.45089542790E+03 -0.59233081529E+02  0.38254132700E+03  0.10495307302E+04  0.86507898013E+03 0.  0.
        -24    2    4    4    0    0 -0.11062329012E+02  0.14537667038E+03 -0.21738574563E+03  0.27406186275E+03  0.81219399153E+02 0.  0.
         24    2    4    4    0    0 -0.43983309889E+03 -0.20460975191E+03  0.59992707263E+03  0.77546886742E+03  0.78237883459E+02 0.  0.
         11    1    3    3    0    0  0.41024573611E+02  0.11219155009E+02 -0.92499507938E+02  0.10180886036E+03  0.00000000000E+00 0. -1.
        -11    1    3    3    0    0  0.40987085429E+03  0.48013926519E+02 -0.39730644279E+03  0.57284541006E+03  0.00000000000E+00 0.  1.
          2    1    6    6  502    0 -0.22759786026E+03 -0.66881051050E+02  0.26401298951E+03  0.35493199295E+03  0.00000000000E+00 0. -1.
          1    1    5    5  503    0 -0.23568033052E+02  0.15026127425E+03 -0.20801169564E+03  0.25768734591E+03  0.00000000000E+00 0. -1.
         -2    1    5    5    0  503  0.12505704040E+02 -0.48846038705E+01 -0.93740499920E+01  0.16374516841E+02  0.00000000000E+00 0.  1.
         -1    1    6    6    0  502 -0.21223523863E+03 -0.13772870086E+03  0.33591408311E+03  0.42053687447E+03  0.00000000000E+00 0.  1.
<mgrwt>
<rscale>  0 0.17208452E+04</rscale>
<asrwt>0</asrwt>
<pdfrwt beam="1">  1        1 0.12437849E+00 0.17208452E+04</pdfrwt>
<pdfrwt beam="2">  1       -1 0.14088074E+00 0.17208452E+04</pdfrwt>
<totfact> 0.85154122E+00</totfact>
</mgrwt>
</event>
<event>
12    1  0.1201209E-007  0.1663799E+04  0.7818608E-02  0.8782285E-01
         -2   -1    0    0    0  501 -0.00000000000E+00  0.00000000000E+00  0.11768068058E+04  0.11768068058E+04  0.00000000000E+00 0.  1.
          2   -1    0    0  501    0  0.00000000000E+00 -0.00000000000E+00 -0.58807992802E+03  0.58807992802E+03  0.00000000000E+00 0. -1.
         23    2    1    2    0    0  0.78939877028E+02  0.24854234388E+03 -0.34823427904E+03  0.44389010583E+03  0.88127816650E+02 0.  0.
        254    2    1    2    0    0 -0.78939877028E+02 -0.24854234388E+03  0.93696115678E+03  0.13209966279E+04  0.89394131845E+03 0.  0.
        -24    2    4    4    0    0 -0.76768724534E+02 -0.34043379548E+03  0.10769798509E+04  0.11348219727E+04  0.78400920332E+02 0.  0.
         24    2    4    4    0    0 -0.21711524940E+01  0.91891451599E+02 -0.14001869417E+03  0.18617465520E+03  0.81283545320E+02 0.  0.
         13    1    3    3    0    0  0.67126053257E-01  0.52532007592E+02 -0.26126919036E+02  0.58670539676E+02  0.00000000000E+00 0.  1.
        -13    1    3    3    0    0  0.78872750975E+02  0.19601033628E+03 -0.32210736000E+03  0.38521956615E+03  0.00000000000E+00 0. -1.
          4    1    6    6  502    0  0.31211449128E+02  0.48789548105E+02 -0.10904612193E+03  0.12347320061E+03  0.00000000000E+00 0. -1.
          3    1    5    5  503    0 -0.31024929875E+02 -0.27998495862E+03  0.86285413776E+03  0.90767361225E+03  0.00000000000E+00 0. -1.
         -4    1    5    5    0  503 -0.45743794658E+02 -0.60448836856E+02  0.21412571318E+03  0.22714836049E+03  0.00000000000E+00 0.  1.
         -3    1    6    6    0  502 -0.33382601622E+02  0.43101903494E+02 -0.30972572241E+02  0.62701454585E+02  0.00000000000E+00 0.  1.
<mgrwt>
<rscale>  0 0.16637986E+04</rscale>
<asrwt>0</asrwt>
<pdfrwt beam="1">  1        2 0.90473835E-01 0.16637986E+04</pdfrwt>
<pdfrwt beam="2">  1       -2 0.18104720E+00 0.16637986E+04</pdfrwt>
<totfact> 0.86390975E+00</totfact>
</mgrwt>
</event>
<event>
12    1  0.1709918E-007  0.2428703E+04  0.7818608E-02  0.8428835E-01
          1   -1    0    0  501    0  0.00000000000E+00  0.00000000000E+00  0.95541295690E+03  0.95541295690E+03  0.00000000000E+00 0. -1.
         -1   -1    0    0    0  501 -0.00000000000E+00 -0.00000000000E+00 -0.15434677706E+04  0.15434677706E+04  0.00000000000E+00 0.  1.
         23    2    1    2    0    0  0.54163349137E+02  0.49668072852E+03  0.69052512218E+03  0.85754299330E+03  0.94496701108E+02 0.  0.
        254    2    1    2    0    0 -0.54163349137E+02 -0.49668072852E+03 -0.12785799359E+04  0.16413377343E+04  0.89977635604E+03 0.  0.
        -24    2    4    4    0    0  0.38394459967E+03 -0.37566706175E+03 -0.51038588603E+03  0.74504006763E+03  0.77793012607E+02 0.  0.
         24    2    4    4    0    0 -0.43810794881E+03 -0.12101366677E+03 -0.76819404990E+03  0.89629766663E+03  0.81513965407E+02 0.  0.
         11    1    3    3    0    0  0.34702753800E+01  0.42089395303E+02  0.11422063942E+03  0.12177813629E+03  0.00000000000E+00 0.  1.
        -11    1    3    3    0    0  0.50693073757E+02  0.45459133322E+03  0.57630448276E+03  0.73576485701E+03  0.00000000000E+00 0. -1.
          4    1    6    6  502    0 -0.34566807568E+03 -0.97135098136E+02 -0.66479081863E+03  0.75555838846E+03  0.00000000000E+00 0. -1.
          3    1    5    5  503    0  0.31247646082E+03 -0.28971238581E+03 -0.36110458881E+03  0.55854393660E+03  0.00000000000E+00 0. -1.
         -4    1    5    5    0  503  0.71468138856E+02 -0.85954675944E+02 -0.14928129722E+03  0.18649613103E+03  0.00000000000E+00 0.  1.
         -3    1    6    6    0  502 -0.92439873133E+02 -0.23878568629E+02 -0.10340323127E+03  0.14073927817E+03  0.00000000000E+00 0.  1.
<mgrwt>
<rscale>  0 0.24287026E+04</rscale>
<asrwt>0</asrwt>
<pdfrwt beam="1">  1        1 0.14698661E+00 0.24287026E+04</pdfrwt>
<pdfrwt beam="2">  1       -1 0.23745658E+00 0.24287026E+04</pdfrwt>
<totfact> 0.12359684E+00</totfact>
</mgrwt>
</event>
<event>
12    1  0.1201209E-007  0.1199927E+04  0.7818608E-02  0.9112920E-01
         -2   -1    0    0    0  501 -0.00000000000E+00  0.00000000000E+00  0.24494195334E+03  0.24494195334E+03  0.00000000000E+00 0.  1.
          2   -1    0    0  501    0  0.00000000000E+00 -0.00000000000E+00 -0.14695580350E+04  0.14695580350E+04  0.00000000000E+00 0. -1.
         23    2    1    2    0    0 -0.14411292624E+03 -0.19370293904E+03 -0.17188073463E+03  0.31009625597E+03  0.91254243337E+02 0.  0.
        254    2    1    2    0    0  0.14411292624E+03  0.19370293904E+03 -0.10527353470E+04  0.14044037324E+04  0.89766851817E+03 0.  0.
        -24    2    4    4    0    0  0.47368944868E+02  0.34214035416E+03 -0.21786934211E+02  0.35538360426E+03  0.80740304640E+02 0.  0.
         24    2    4    4    0    0  0.96743981370E+02 -0.14843741512E+03 -0.10309484128E+04  0.10490201281E+04  0.78711721851E+02 0.  0.
         11    1    3    3    0    0 -0.13100349163E+03 -0.19202237036E+03 -0.18051165550E+03  0.29431099760E+03  0.00000000000E+00 0.  1.
        -11    1    3    3    0    0 -0.13109434612E+02 -0.16805686862E+01  0.86309208661E+01  0.15785258374E+02  0.00000000000E+00 0. -1.
          2    1    6    6  502    0  0.16568284608E+02 -0.36965493207E+02 -0.46051695514E+03  0.46229516731E+03  0.00000000000E+00 0. -1.
          3    1    5    5  503    0  0.24368976314E+02  0.24192806222E+03  0.20916749051E+02  0.24405029131E+03  0.00000000000E+00 0. -1.
         -4    1    5    5    0  503  0.22999968555E+02  0.10021229194E+03 -0.42703683263E+02  0.11133331296E+03  0.00000000000E+00 0.  1.
         -1    1    6    6    0  502  0.80175696762E+02 -0.11147192191E+03 -0.57043145767E+03  0.58672496080E+03  0.00000000000E+00 0.  1.
<mgrwt>
<rscale>  0 0.11999274E+04</rscale>
<asrwt>0</asrwt>
<pdfrwt beam="1">  1        2 0.22608585E+00 0.11999274E+04</pdfrwt>
<pdfrwt beam="2">  1       -2 0.37683377E-01 0.11999274E+04</pdfrwt>
<totfact> 0.86538579E+01</totfact>
</mgrwt>
</event>
<event>
12    1  0.1201209E-007  0.1313167E+04  0.7818608E-02  0.9019188E-01
          1   -1    0    0  501    0  0.00000000000E+00  0.00000000000E+00  0.16503626543E+04  0.16503626543E+04  0.00000000000E+00 0. -1.
         -1   -1    0    0    0  501 -0.00000000000E+00 -0.00000000000E+00 -0.26121640649E+03  0.26121640649E+03  0.00000000000E+00 0.  1.
         23    2    1    2    0    0 -0.24794174931E+01 -0.14688905071E+03  0.81518342472E+03  0.83320407919E+03  0.90124807395E+02 0.  0.
        254    2    1    2    0    0  0.24794174931E+01  0.14688905071E+03  0.57396282308E+03  0.10783749816E+04  0.90104202894E+03 0.  0.
        -24    2    4    4    0    0 -0.18792538093E+03  0.47894768399E+03  0.36172232476E+03  0.63368119942E+03  0.77472507910E+02 0.  0.
         24    2    4    4    0    0  0.19040479842E+03 -0.33205863328E+03  0.21224049832E+03  0.44469378217E+03  0.78674059113E+02 0.  0.
         11    1    3    3    0    0  0.15380041504E+01 -0.14978444587E+03  0.81455360049E+03  0.82821211882E+03  0.00000000000E+00 0. -1.
        -11    1    3    3    0    0 -0.40174216435E+01  0.28953951578E+01  0.62982422702E+00  0.49919603703E+01  0.00000000000E+00 0.  1.
          2    1    6    6  502    0  0.13679891633E+01 -0.36897223748E+01 -0.61983436730E+01  0.73419963118E+01  0.00000000000E+00 0. -1.
          3    1    5    5  503    0 -0.15204127804E+02  0.18086366770E+02  0.37491786871E+02  0.44316094684E+02  0.00000000000E+00 0. -1.
         -4    1    5    5    0  503 -0.17272125312E+03  0.46086131722E+03  0.32423053789E+03  0.58936510474E+03  0.00000000000E+00 0.  1.
         -1    1    6    6    0  502  0.18903680926E+03 -0.32836891090E+03  0.21843884200E+03  0.43735178586E+03  0.00000000000E+00 0.  1.
<mgrwt>
<rscale>  0 0.13131669E+04</rscale>
<asrwt>0</asrwt>
<pdfrwt beam="1">  1        1 0.25390194E+00 0.13131669E+04</pdfrwt>
<pdfrwt beam="2">  1       -1 0.40187140E-01 0.13131669E+04</pdfrwt>
<totfact> 0.30549981E+01</totfact>
</mgrwt>
</event>
<event>
12    1  0.1201209E-007  0.3105417E+04  0.7818608E-02  0.8214253E-01
          2   -1    0    0  501    0  0.00000000000E+00  0.00000000000E+00  0.21255404340E+04  0.21255404340E+04  0.00000000000E+00 0. -1.
         -2   -1    0    0    0  501 -0.00000000000E+00 -0.00000000000E+00 -0.11342547927E+04  0.11342547927E+04  0.00000000000E+00 0.  1.
         23    2    1    2    0    0  0.30416680609E+03 -0.13637208113E+04  0.28909332957E+03  0.14296798081E+04  0.90318899344E+02 0.  0.
        254    2    1    2    0    0 -0.30416680609E+03  0.13637208113E+04  0.70219231179E+03  0.18301154186E+04  0.95078730828E+03 0.  0.
        -24    2    4    4    0    0 -0.32586526313E+03  0.66240267195E+03  0.82893684896E+03  0.11127970743E+04  0.78838819280E+02 0.  0.
         24    2    4    4    0    0  0.21698457048E+02  0.70131813931E+03 -0.12674453717E+03  0.71731834431E+03  0.78507794556E+02 0.  0.
         11    1    3    3    0    0  0.16890165945E+03 -0.92160946973E+03  0.17013290284E+03  0.95227989052E+03  0.00000000000E+00 0. -1.
        -11    1    3    3    0    0  0.13526514663E+03 -0.44211134153E+03  0.11896042673E+03  0.47739991761E+03  0.00000000000E+00 0.  1.
          2    1    6    6  502    0  0.17571604200E+02  0.69970111979E+03 -0.12990476043E+03  0.71187475380E+03  0.00000000000E+00 0. -1.
          1    1    5    5  503    0 -0.21989872606E+03  0.48220146160E+03  0.64071775068E+03  0.83150041210E+03  0.00000000000E+00 0. -1.
         -2    1    5    5    0  503 -0.10596653707E+03  0.18020121035E+03  0.18821909828E+03  0.28129666217E+03  0.00000000000E+00 0.  1.
         -1    1    6    6    0  502  0.41268528479E+01  0.16170195239E+01  0.31602232620E+01  0.54435905095E+01  0.00000000000E+00 0.  1.
<mgrwt>
<rscale>  0 0.31054175E+04</rscale>
<asrwt>0</asrwt>
<pdfrwt beam="1">  1        2 0.32700622E+00 0.31054175E+04</pdfrwt>
<pdfrwt beam="2">  1       -2 0.17450074E+00 0.31054175E+04</pdfrwt>
<totfact> 0.95574556E-01</totfact>
</mgrwt>
</event>
<event>
12    1  0.1201209E-007  0.2146377E+04  0.7818608E-02  0.8541085E-01
          2   -1    0    0  501    0  0.00000000000E+00  0.00000000000E+00  0.22624606083E+04  0.22624606083E+04  0.00000000000E+00 0.  1.
         -2   -1    0    0    0  501 -0.00000000000E+00 -0.00000000000E+00 -0.50906213501E+03  0.50906213501E+03  0.00000000000E+00 0. -1.
         23    2    1    2    0    0 -0.72013536631E+03  0.29155112300E+03  0.17941866437E+03  0.80270069590E+03  0.92413997491E+02 0.  0.
        254    2    1    2    0    0  0.72013536631E+03 -0.29155112300E+03  0.15739798089E+04  0.19688220474E+04  0.89176836252E+03 0.  0.
        -24    2    4    4    0    0  0.15651807826E+03 -0.90362941828E+02 -0.76419970703E+02  0.21144945470E+03  0.78787625252E+02 0.  0.
         24    2    4    4    0    0  0.56361728805E+03 -0.20118818117E+03  0.16503997796E+04  0.17573725927E+04  0.79986657837E+02 0.  0.
         11    1    3    3    0    0 -0.69940661301E+03  0.28291037606E+03  0.18978972663E+03  0.77796402972E+03  0.00000000000E+00 0. -1.
        -11    1    3    3    0    0 -0.20728753302E+02  0.86407469352E+01 -0.10371062259E+02  0.24736666174E+02  0.00000000000E+00 0.  1.
          2    1    6    6  502    0  0.53377527287E+02 -0.45686980054E+02  0.20264259122E+03  0.21447722570E+03  0.00000000000E+00 0. -1.
          1    1    5    5  503    0  0.30058679932E+02  0.13116626437E+02 -0.52162242002E+01  0.33208118333E+02  0.00000000000E+00 0. -1.
         -2    1    5    5    0  503  0.12645939833E+03 -0.10347956827E+03 -0.71203746503E+02  0.17824133637E+03  0.00000000000E+00 0.  1.
         -1    1    6    6    0  502  0.51023976076E+03 -0.15550120111E+03  0.14477571884E+04  0.15428953670E+04  0.00000000000E+00 0.  1.
<mgrwt>
<rscale>  0 0.21463765E+04</rscale>
<asrwt>0</asrwt>
<pdfrwt beam="1">  1        2 0.34807086E+00 0.21463765E+04</pdfrwt>
<pdfrwt beam="2">  1       -2 0.78317253E-01 0.21463765E+04</pdfrwt>
<totfact> 0.63373362E+00</totfact>
</mgrwt>
</event>
<event>
12    1  0.1201209E-007  0.1239016E+04  0.7818608E-02  0.9079375E-01
          1   -1    0    0  501    0  0.00000000000E+00  0.00000000000E+00  0.20058781806E+03  0.20058781806E+03  0.00000000000E+00 0. -1.
         -1   -1    0    0    0  501 -0.00000000000E+00 -0.00000000000E+00 -0.19133273750E+04  0.19133273750E+04  0.00000000000E+00 0.  1.
         23    2    1    2    0    0 -0.14260766787E+02 -0.51586377644E+01  0.67569347834E+02  0.11515941756E+03  0.92011377955E+02 0.  0.
        254    2    1    2    0    0  0.14260766787E+02  0.51586377644E+01 -0.17803089048E+04  0.19987557755E+04  0.90845741380E+03 0.  0.
        -24    2    4    4    0    0 -0.40963526935E+03  0.11085049736E+03 -0.61228346049E+03  0.74907404428E+03  0.78307095275E+02 0.  0.
         24    2    4    4    0    0  0.42389603613E+03 -0.10569185959E+03 -0.11680254443E+04  0.12496817312E+04  0.81008470079E+02 0.  0.
         11    1    3    3    0    0  0.75477369895E+01  0.22480934373E+01 -0.21638087272E+02  0.23026703597E+02  0.00000000000E+00 0.  1.
        -11    1    3    3    0    0 -0.21808503776E+02 -0.74067312017E+01  0.89207435106E+02  0.92132713963E+02  0.00000000000E+00 0. -1.
          2    1    6    6  502    0  0.36824650327E+03 -0.11203539138E+03 -0.10648756468E+04  0.11323063010E+04  0.00000000000E+00 0. -1.
          1    1    5    5  503    0 -0.41131602759E+03  0.10507775515E+03 -0.60855885496E+03  0.74200140777E+03  0.00000000000E+00 0. -1.
         -4    1    5    5    0  503  0.16807582475E+01  0.57727422060E+01 -0.37246055289E+01  0.70726365105E+01  0.00000000000E+00 0.  1.
         -1    1    6    6    0  502  0.55649532864E+02  0.63435317892E+01 -0.10314979748E+03  0.11737543023E+03  0.00000000000E+00 0.  1.
<mgrwt>
<rscale>  0 0.12390160E+04</rscale>
<asrwt>0</asrwt>
<pdfrwt beam="1">  1        1 0.30859664E-01 0.12390160E+04</pdfrwt>
<pdfrwt beam="2">  1       -1 0.29435806E+00 0.12390160E+04</pdfrwt>
<totfact> 0.52828779E+00</totfact>
</mgrwt>
</event>
<event>
12    1  0.1201209E-007  0.1927933E+04  0.7818608E-02  0.8641076E-01
          2   -1    0    0  501    0  0.00000000000E+00  0.00000000000E+00  0.14585129202E+04  0.14585129202E+04  0.00000000000E+00 0.  1.
         -2   -1    0    0    0  501 -0.00000000000E+00 -0.00000000000E+00 -0.63710874083E+03  0.63710874083E+03  0.00000000000E+00 0. -1.
         23    2    1    2    0    0  0.12542660837E+01  0.75045863085E+03  0.46677322188E+03  0.88844285695E+03  0.90905113180E+02 0.  0.
        254    2    1    2    0    0 -0.12542660837E+01 -0.75045863085E+03  0.35463095748E+03  0.12071788041E+04  0.87654310743E+03 0.  0.
        -24    2    4    4    0    0  0.11707803916E+03  0.13863560525E+03 -0.72477356543E+02  0.21074935084E+03  0.78963430605E+02 0.  0.
         24    2    4    4    0    0 -0.11833230525E+03 -0.88909423609E+03  0.42710831402E+03  0.99642945322E+03  0.77194871671E+02 0.  0.
         13    1    3    3    0    0 -0.15188035693E+02  0.65992314111E+03  0.37841567636E+03  0.76087295439E+03  0.00000000000E+00 0.  1.
        -13    1    3    3    0    0  0.16442301777E+02  0.90535489733E+02  0.88357545515E+02  0.12756990256E+03  0.00000000000E+00 0. -1.
          4    1    6    6  502    0 -0.65994801747E+02 -0.32455176892E+03  0.12498612871E+03  0.35399250972E+03  0.00000000000E+00 0. -1.
          1    1    5    5  503    0  0.12713490076E+03  0.12030523702E+03 -0.73447767761E+02  0.18981888113E+03  0.00000000000E+00 0. -1.
         -2    1    5    5    0  503 -0.10056861593E+02  0.18330368230E+02  0.97041121750E+00  0.20930469715E+02  0.00000000000E+00 0.  1.
         -3    1    6    6    0  502 -0.52337503501E+02 -0.56454246717E+03  0.30212218531E+03  0.64243694350E+03  0.00000000000E+00 0.  1.
<mgrwt>
<rscale>  0 0.19279329E+04</rscale>
<asrwt>0</asrwt>
<pdfrwt beam="1">  1        2 0.22438660E+00 0.19279329E+04</pdfrwt>
<pdfrwt beam="2">  1       -2 0.98016730E-01 0.19279329E+04</pdfrwt>
<totfact> 0.10845730E+01</totfact>
</mgrwt>
</event>
<event>
12    1  0.1201209E-007  0.3125232E+04  0.7818608E-02  0.8208847E-01
          1   -1    0    0  501    0  0.00000000000E+00  0.00000000000E+00  0.33667981228E+04  0.33667981228E+04  0.00000000000E+00 0. -1.
         -1   -1    0    0    0  501 -0.00000000000E+00 -0.00000000000E+00 -0.72524946934E+03  0.72524946934E+03  0.00000000000E+00 0.  1.
         23    2    1    2    0    0  0.19076427103E+03 -0.13513429228E+04  0.18266192997E+04  0.22819617186E+04  0.91063256917E+02 0.  0.
        254    2    1    2    0    0 -0.19076427103E+03  0.13513429228E+04  0.81492935377E+03  0.18100858736E+04  0.86589971476E+03 0.  0.
        -24    2    4    4    0    0 -0.15894153327E+03 -0.43911516764E+02 -0.15680463786E+02  0.18399086304E+03  0.80100739288E+02 0.  0.
         24    2    4    4    0    0 -0.31822737754E+02  0.13952544396E+04  0.83060981756E+03  0.16260950106E+04  0.80775469842E+02 0.  0.
         13    1    3    3    0    0  0.15355816323E+03 -0.11015655747E+04  0.14270834360E+04  0.18093075908E+04  0.00000000000E+00 0. -1.
        -13    1    3    3    0    0  0.37206107794E+02 -0.24977734812E+03  0.39953586372E+03  0.47265412776E+03  0.00000000000E+00 0.  1.
          2    1    6    6  502    0  0.24532205235E+02  0.23923122193E+03  0.13673241442E+03  0.27663904243E+03  0.00000000000E+00 0. -1.
          3    1    5    5  503    0 -0.15176989596E+03 -0.14758609021E+02 -0.19496945575E+02  0.15372718936E+03  0.00000000000E+00 0. -1.
         -4    1    5    5    0  503 -0.71716373090E+01 -0.29152907743E+02  0.38164817894E+01  0.30263673684E+02  0.00000000000E+00 0.  1.
         -1    1    6    6    0  502 -0.56354942990E+02  0.11560232177E+04  0.69387740314E+03  0.13494559681E+04  0.00000000000E+00 0.  1.
<mgrwt>
<rscale>  0 0.31252319E+04</rscale>
<asrwt>0</asrwt>
<pdfrwt beam="1">  1        1 0.51796893E+00 0.31252319E+04</pdfrwt>
<pdfrwt beam="2">  1       -1 0.11157684E+00 0.31252319E+04</pdfrwt>
<totfact> 0.19698008E-01</totfact>
</mgrwt>
</event>
<event>
12    1  0.1201209E-007  0.1662078E+04  0.7818608E-02  0.8783293E-01
          2   -1    0    0  501    0  0.00000000000E+00  0.00000000000E+00  0.14929939041E+04  0.14929939041E+04  0.00000000000E+00 0.  1.
         -2   -1    0    0    0  501 -0.00000000000E+00 -0.00000000000E+00 -0.46257779113E+03  0.46257779113E+03  0.00000000000E+00 0. -1.
         23    2    1    2    0    0 -0.14692991874E+03  0.56949499695E+03  0.41938689645E+03  0.72718553934E+03  0.83668913741E+02 0.  0.
        254    2    1    2    0    0  0.14692991874E+03 -0.56949499695E+03  0.61102921650E+03  0.12283861559E+04  0.88862978341E+03 0.  0.
        -24    2    4    4    0    0 -0.36173529266E+03 -0.32975080079E+03  0.32175251366E+03  0.59108808304E+03  0.79198669746E+02 0.  0.
         24    2    4    4    0    0  0.50866521140E+03 -0.23974419616E+03  0.28927670284E+03  0.63729807284E+03  0.79058497050E+02 0.  0.
         13    1    3    3    0    0 -0.68509824598E+02  0.36441165988E+03  0.30194657703E+03  0.47818530854E+03  0.00000000000E+00 0. -1.
        -13    1    3    3    0    0 -0.78420094146E+02  0.20508333707E+03  0.11744031942E+03  0.24900023079E+03  0.00000000000E+00 0.  1.
          4    1    6    6  502    0  0.13501256741E+03 -0.72796194458E+02  0.41576114672E+02  0.15892215892E+03  0.00000000000E+00 0. -1.
          1    1    5    5  503    0 -0.48572319236E+02 -0.85202516554E+02  0.73714887416E+02  0.12268913420E+03  0.00000000000E+00 0. -1.
         -2    1    5    5    0  503 -0.31316297342E+03 -0.24454828424E+03  0.24803762624E+03  0.46839894885E+03  0.00000000000E+00 0.  1.
         -3    1    6    6    0  502  0.37365264399E+03 -0.16694800170E+03  0.24770058817E+03  0.47837591391E+03  0.00000000000E+00 0.  1.
<mgrwt>
<rscale>  0 0.16620780E+04</rscale>
<asrwt>0</asrwt>
<pdfrwt beam="1">  1        2 0.22969137E+00 0.16620780E+04</pdfrwt>
<pdfrwt beam="2">  1       -2 0.71165815E-01 0.16620780E+04</pdfrwt>
<totfact> 0.21917459E+01</totfact>
</mgrwt>
</event>
<event>
12    1  0.1201209E-007  0.1473165E+04  0.7818608E-02  0.8902497E-01
         -2   -1    0    0    0  501 -0.00000000000E+00  0.00000000000E+00  0.71943936266E+03  0.71943936266E+03  0.00000000000E+00 0.  1.
          2   -1    0    0  501    0  0.00000000000E+00 -0.00000000000E+00 -0.75413404167E+03  0.75413404167E+03  0.00000000000E+00 0. -1.
         23    2    1    2    0    0 -0.32745863005E+02 -0.34062559418E+02  0.43016667095E+03  0.44233204869E+03  0.91551772253E+02 0.  0.
        254    2    1    2    0    0  0.32745863005E+02  0.34062559418E+02 -0.46486134996E+03  0.10312413556E+04  0.91930958300E+03 0.  0.
        -24    2    4    4    0    0 -0.41054705965E+03 -0.13555878940E+03 -0.23696159904E+03  0.49945133885E+03  0.79848399418E+02 0.  0.
         24    2    4    4    0    0  0.44329292265E+03  0.16962134881E+03 -0.22789975091E+03  0.53179001679E+03  0.74714846191E+02 0.  0.
         13    1    3    3    0    0  0.13647535000E+02  0.10891755826E+02  0.17794463460E+02  0.24930473048E+02  0.00000000000E+00 0. -1.
        -13    1    3    3    0    0 -0.46393398005E+02 -0.44954315244E+02  0.41237220749E+03  0.41740157564E+03  0.00000000000E+00 0.  1.
          2    1    6    6  502    0  0.29150721185E+03  0.87997947229E+02 -0.17646654680E+03  0.35193825512E+03  0.00000000000E+00 0. -1.
          3    1    5    5  503    0 -0.32698996059E+03 -0.82728840754E+02 -0.20867962058E+03  0.39662788539E+03  0.00000000000E+00 0. -1.
         -4    1    5    5    0  503 -0.83557099055E+02 -0.52829948643E+02 -0.28281978460E+02  0.10282345346E+03  0.00000000000E+00 0.  1.
         -1    1    6    6    0  502  0.15178571080E+03  0.81623401586E+02 -0.51433204119E+02  0.17985176167E+03  0.00000000000E+00 0.  1.
<mgrwt>
<rscale>  0 0.14731649E+04</rscale>
<asrwt>0</asrwt>
<pdfrwt beam="1">  1        2 0.11602062E+00 0.14731649E+04</pdfrwt>
<pdfrwt beam="2">  1       -2 0.11068298E+00 0.14731649E+04</pdfrwt>
<totfact> 0.23331538E+01</totfact>
</mgrwt>
</event>
<event>
12    1  0.1201209E-007  0.1381025E+04  0.7818608E-02  0.8967670E-01
         -2   -1    0    0    0  501 -0.00000000000E+00  0.00000000000E+00  0.17266992603E+03  0.17266992603E+03  0.00000000000E+00 0.  1.
          2   -1    0    0  501    0  0.00000000000E+00 -0.00000000000E+00 -0.27613799469E+04  0.27613799469E+04  0.00000000000E+00 0. -1.
         23    2    1    2    0    0 -0.26851874927E+03  0.79347391589E+02 -0.17199067999E+03  0.34094813655E+03  0.90920352782E+02 0.  0.
        254    2    1    2    0    0  0.26851874927E+03 -0.79347391589E+02 -0.24167193409E+04  0.25931017364E+04  0.89735495509E+03 0.  0.
        -24    2    4    4    0    0 -0.13782855170E+03  0.13846530392E+03 -0.10677947151E+03  0.23622037803E+03  0.78923136078E+02 0.  0.
         24    2    4    4    0    0  0.40634730097E+03 -0.21781269551E+03 -0.23099398694E+04  0.23568813584E+04  0.80666212959E+02 0.  0.
         13    1    3    3    0    0 -0.23165415017E+03  0.64869785296E+02 -0.10361650280E+03  0.26193150629E+03  0.00000000000E+00 0.  1.
        -13    1    3    3    0    0 -0.36864599103E+02  0.14477606293E+02 -0.68374177191E+02  0.79016630259E+02  0.00000000000E+00 0. -1.
          4    1    6    6  502    0  0.32829594997E+02 -0.22769973685E+01 -0.25985506527E+03  0.26193056708E+03  0.00000000000E+00 0. -1.
          1    1    5    5  503    0 -0.49341180294E+02  0.53290798837E+01 -0.14802159303E+02  0.51788561336E+02  0.00000000000E+00 0. -1.
         -2    1    5    5    0  503 -0.88487371407E+02  0.13313622404E+03 -0.91977312203E+02  0.18443181670E+03  0.00000000000E+00 0.  1.
         -3    1    6    6    0  502  0.37351770597E+03 -0.21553569814E+03 -0.20500848041E+04  0.20949507913E+04  0.00000000000E+00 0.  1.
<mgrwt>
<rscale>  0 0.13810247E+04</rscale>
<asrwt>0</asrwt>
<pdfrwt beam="1">  1        2 0.42482765E+00 0.13810247E+04</pdfrwt>
<pdfrwt beam="2">  1       -2 0.26564606E-01 0.13810247E+04</pdfrwt>
<totfact> 0.30739790E+01</totfact>
</mgrwt>
</event>
<event>
12    1  0.1201209E-007  0.2241713E+04  0.7818608E-02  0.8501264E-01
         -1   -1    0    0    0  501 -0.00000000000E+00  0.00000000000E+00  0.79107142283E+03  0.79107142283E+03  0.00000000000E+00 0.  1.
          1   -1    0    0  501    0  0.00000000000E+00 -0.00000000000E+00 -0.15881238046E+04  0.15881238046E+04  0.00000000000E+00 0. -1.
         23    2    1    2    0    0  0.71674412349E+03  0.58513756741E+03 -0.48605838669E+03  0.10496438326E+04  0.96908764918E+02 0.  0.
        254    2    1    2    0    0 -0.71674412349E+03 -0.58513756741E+03 -0.31099399508E+03  0.13295513948E+04  0.90270789025E+03 0.  0.
        -24    2    4    4    0    0  0.11218083762E+02 -0.25886498710E+03  0.23580374410E+03  0.35941943145E+03  0.80262039714E+02 0.  0.
         24    2    4    4    0    0 -0.72796220726E+03 -0.32627258031E+03 -0.54679773918E+03  0.97013196337E+03  0.76062388323E+02 0.  0.
         11    1    3    3    0    0  0.68367826466E+03  0.53108463539E+03 -0.43863840904E+03  0.97050013571E+03  0.00000000000E+00 0. -1.
        -11    1    3    3    0    0  0.33065858830E+02  0.54052932013E+02 -0.47419977654E+02  0.79143696907E+02  0.00000000000E+00 0.  1.
          4    1    6    6  502    0 -0.55670818804E+03 -0.21392479519E+03 -0.39902020727E+03  0.71756877749E+03  0.00000000000E+00 0. -1.
          3    1    5    5  503    0  0.13319562936E+02 -0.25803152356E+03  0.20846384796E+03  0.33198622534E+03  0.00000000000E+00 0. -1.
         -4    1    5    5    0  503 -0.21014791741E+01 -0.83346353599E+00  0.27339896142E+02  0.27433206106E+02  0.00000000000E+00 0.  1.
         -3    1    6    6    0  502 -0.17125401922E+03 -0.11234778512E+03 -0.14777753192E+03  0.25256318587E+03  0.00000000000E+00 0.  1.
<mgrwt>
<rscale>  0 0.22417131E+04</rscale>
<asrwt>0</asrwt>
<pdfrwt beam="1">  1        1 0.24432674E+00 0.22417131E+04</pdfrwt>
<pdfrwt beam="2">  1       -1 0.12170330E+00 0.22417131E+04</pdfrwt>
<totfact> 0.30886999E+00</totfact>
</mgrwt>
</event>
<event>
12    1  0.1201209E-007  0.1115192E+04  0.7818608E-02  0.9190510E-01
         -1   -1    0    0    0  501 -0.00000000000E+00  0.00000000000E+00  0.62851555568E+03  0.62851555568E+03  0.00000000000E+00 0.  1.
          1   -1    0    0  501    0  0.00000000000E+00 -0.00000000000E+00 -0.49467859622E+03  0.49467859622E+03  0.00000000000E+00 0. -1.
         23    2    1    2    0    0 -0.12512898480E+03 -0.11202158711E+03 -0.57247489856E+01  0.19108239266E+03  0.90959382243E+02 0.  0.
        254    2    1    2    0    0  0.12512898480E+03  0.11202158711E+03  0.13956170845E+03  0.93211175925E+03  0.90617258977E+03 0.  0.
        -24    2    4    4    0    0  0.35837132920E+03  0.23358047084E+02  0.41317501117E+03  0.55337077134E+03  0.80808494379E+02 0.  0.
         24    2    4    4    0    0 -0.23324234440E+03  0.88663540021E+02 -0.27361330272E+03  0.37874098790E+03  0.79481330769E+02 0.  0.
         11    1    3    3    0    0 -0.55984076727E+02 -0.83178468445E+02  0.34517101789E+02  0.10603916623E+03  0.00000000000E+00 0.  1.
        -11    1    3    3    0    0 -0.69144908076E+02 -0.28843118660E+02 -0.40241850775E+02  0.85043226425E+02  0.00000000000E+00 0. -1.
          4    1    6    6  502    0 -0.15252770004E+03  0.38855444948E+02 -0.21770169688E+03  0.26864190609E+03  0.00000000000E+00 0. -1.
          1    1    5    5  503    0  0.11685451593E+03  0.29635115893E+02  0.18658040909E+03  0.22213839615E+03  0.00000000000E+00 0. -1.
         -2    1    5    5    0  503  0.24151681327E+03 -0.62770688088E+01  0.22659460208E+03  0.33123237519E+03  0.00000000000E+00 0.  1.
         -3    1    6    6    0  502 -0.80714644358E+02  0.49808095073E+02 -0.55911605844E+02  0.11009908182E+03  0.00000000000E+00 0.  1.
<mgrwt>
<rscale>  0 0.11151918E+04</rscale>
<asrwt>0</asrwt>
<pdfrwt beam="1">  1        1 0.76104400E-01 0.11151918E+04</pdfrwt>
<pdfrwt beam="2">  1       -1 0.96694700E-01 0.11151918E+04</pdfrwt>
<totfact> 0.46100533E+01</totfact>
</mgrwt>
</event>
<event>
12    1  0.1201209E-007  0.1904883E+04  0.7818608E-02  0.8652429E-01
          1   -1    0    0  501    0  0.00000000000E+00  0.00000000000E+00  0.17335956341E+04  0.17335956341E+04  0.00000000000E+00 0. -1.
         -1   -1    0    0    0  501 -0.00000000000E+00 -0.00000000000E+00 -0.52327383643E+03  0.52327383643E+03  0.00000000000E+00 0.  1.
         23    2    1    2    0    0 -0.17962263591E+03  0.70611687837E+03  0.33103624573E+03  0.80550929678E+03  0.91623653893E+02 0.  0.
        254    2    1    2    0    0  0.17962263591E+03 -0.70611687837E+03  0.87928555195E+03  0.14513601738E+04  0.89578900129E+03 0.  0.
        -24    2    4    4    0    0 -0.13077819137E+03 -0.11100530158E+03  0.73603167085E+03  0.76019875158E+03  0.82063445540E+02 0.  0.
         24    2    4    4    0    0  0.31040082728E+03 -0.59511157680E+03  0.14325388110E+03  0.69116142217E+03  0.81706637615E+02 0.  0.
         13    1    3    3    0    0 -0.44123493152E+02  0.15261768056E+03  0.11485547335E+03  0.19603779949E+03  0.00000000000E+00 0.  1.
        -13    1    3    3    0    0 -0.13549914276E+03  0.55349919781E+03  0.21618077238E+03  0.60947149729E+03  0.00000000000E+00 0. -1.
          2    1    6    6  502    0  0.26853946064E+03 -0.47970955847E+03  0.88874005920E+02  0.55689612258E+03  0.00000000000E+00 0. -1.
          1    1    5    5  503    0 -0.10397356013E+03 -0.35303433678E+02  0.43331604085E+03  0.44701188451E+03  0.00000000000E+00 0. -1.
         -2    1    5    5    0  503 -0.26804631247E+02 -0.75701867899E+02  0.30271563001E+03  0.31318686708E+03  0.00000000000E+00 0.  1.
         -1    1    6    6    0  502  0.41861366640E+02 -0.11540201833E+03  0.54379875182E+02  0.13426529960E+03  0.00000000000E+00 0.  1.
<mgrwt>
<rscale>  0 0.19048834E+04</rscale>
<asrwt>0</asrwt>
<pdfrwt beam="1">  1        1 0.26670702E+00 0.19048834E+04</pdfrwt>
<pdfrwt beam="2">  1       -1 0.80503668E-01 0.19048834E+04</pdfrwt>
<totfact> 0.65070954E+00</totfact>
</mgrwt>
</event>
<event>
12    1  0.1201209E-007  0.1973916E+04  0.7818608E-02  0.8618914E-01
          1   -1    0    0  501    0  0.00000000000E+00  0.00000000000E+00  0.39388107926E+04  0.39388107926E+04  0.00000000000E+00 0. -1.
         -1   -1    0    0    0  501 -0.00000000000E+00 -0.00000000000E+00 -0.24730457156E+03  0.24730457156E+03  0.00000000000E+00 0.  1.
         23    2    1    2    0    0 -0.21279247721E+02  0.57547777866E+03  0.25713339498E+04  0.26365296100E+04  0.88896697531E+02 0.  0.
        254    2    1    2    0    0  0.21279247721E+02 -0.57547777866E+03  0.11201722712E+04  0.15495857541E+04  0.90266417460E+03 0.  0.
        -24    2    4    4    0    0  0.18745598843E+03 -0.53828674995E+03  0.12114032855E+04  0.13412057323E+04  0.80265332107E+02 0.  0.
         24    2    4    4    0    0 -0.16617674071E+03 -0.37191028711E+02 -0.91231014316E+02  0.20838002179E+03  0.78110522568E+02 0.  0.
         11    1    3    3    0    0 -0.34284179559E+02  0.27431726773E+03  0.10622878091E+04  0.10976706053E+04  0.00000000000E+00 0. -1.
        -11    1    3    3    0    0  0.13004931838E+02  0.30116051093E+03  0.15090461407E+04  0.15388590047E+04  0.00000000000E+00 0.  1.
          4    1    6    6  502    0 -0.10005117672E+03  0.88082550561E+01 -0.77054307031E+02  0.12659063770E+03  0.00000000000E+00 0. -1.
          3    1    5    5  503    0  0.16378618059E+03 -0.50814593071E+03  0.11611276518E+04  0.12779888981E+04  0.00000000000E+00 0. -1.
         -4    1    5    5    0  503  0.23669807849E+02 -0.30140819240E+02  0.50275633697E+02  0.63216834243E+02  0.00000000000E+00 0.  1.
         -3    1    6    6    0  502 -0.66125563992E+02 -0.45999283767E+02 -0.14176707286E+02  0.81789384090E+02  0.00000000000E+00 0.  1.
<mgrwt>
<rscale>  0 0.19739158E+04</rscale>
<asrwt>0</asrwt>
<pdfrwt beam="1">  1        1 0.60597085E+00 0.19739158E+04</pdfrwt>
<pdfrwt beam="2">  1       -1 0.38046860E-01 0.19739158E+04</pdfrwt>
<totfact> 0.67882690E-01</totfact>
</mgrwt>
</event>
<event>
12    1  0.1201209E-007  0.1337969E+04  0.7818608E-02  0.8999986E-01
         -2   -1    0    0    0  501 -0.00000000000E+00  0.00000000000E+00  0.21341801343E+03  0.21341801343E+03  0.00000000000E+00 0.  1.
          2   -1    0    0  501    0  0.00000000000E+00 -0.00000000000E+00 -0.20970116873E+04  0.20970116873E+04  0.00000000000E+00 0. -1.
         23    2    1    2    0    0  0.21901082271E+03 -0.22948546090E+03 -0.80303459330E+03  0.86866941843E+03  0.95355562239E+02 0.  0.
        254    2    1    2    0    0 -0.21901082271E+03  0.22948546090E+03 -0.10805590806E+04  0.14417602823E+04  0.90024189407E+03 0.  0.
        -24    2    4    4    0    0 -0.14577854004E+02  0.21825841522E+03  0.90523544406E+02  0.25028494700E+03  0.81232954901E+02 0.  0.
         24    2    4    4    0    0 -0.20443296870E+03  0.11227045674E+02 -0.11710826250E+04  0.11914753353E+04  0.79120634969E+02 0.  0.
         13    1    3    3    0    0  0.17399724592E+03 -0.22617177029E+03 -0.67192271903E+03  0.73000606272E+03  0.00000000000E+00 0. -1.
        -13    1    3    3    0    0  0.45013576784E+02 -0.33136906033E+01 -0.13111187427E+03  0.13866335570E+03  0.00000000000E+00 0.  1.
          4    1    6    6  502    0 -0.14321324901E+03  0.38968000282E+02 -0.90177073717E+03  0.91390316892E+03  0.00000000000E+00 0. -1.
          1    1    5    5  503    0 -0.94247485796E+00  0.21540187201E+03  0.72023508894E+02  0.22712604553E+03  0.00000000000E+00 0. -1.
         -2    1    5    5    0  503 -0.13635379146E+02  0.28565432134E+01  0.18500035513E+02  0.23158901475E+02  0.00000000000E+00 0.  1.
         -3    1    6    6    0  502 -0.61219719696E+02 -0.27740954608E+02 -0.26931188783E+03  0.27757216642E+03  0.00000000000E+00 0.  1.
<mgrwt>
<rscale>  0 0.13379687E+04</rscale>
<asrwt>0</asrwt>
<pdfrwt beam="1">  1        2 0.32261718E+00 0.13379687E+04</pdfrwt>
<pdfrwt beam="2">  1       -2 0.32833541E-01 0.13379687E+04</pdfrwt>
<totfact> 0.49958118E+01</totfact>
</mgrwt>
</event>
<event>
12    1  0.1201209E-007  0.1389430E+04  0.7818608E-02  0.8961505E-01
         -2   -1    0    0    0  501 -0.00000000000E+00  0.00000000000E+00  0.50240999041E+03  0.50240999041E+03  0.00000000000E+00 0.  1.
          2   -1    0    0  501    0  0.00000000000E+00 -0.00000000000E+00 -0.96062830920E+03  0.96062830920E+03  0.00000000000E+00 0. -1.
         23    2    1    2    0    0  0.10794196173E+03 -0.12988138646E+03  0.25783122139E+03  0.32126691365E+03  0.90635806558E+02 0.  0.
        254    2    1    2    0    0 -0.10794196173E+03  0.12988138646E+03 -0.71604954018E+03  0.11417713860E+04  0.87315194105E+03 0.  0.
        -24    2    4    4    0    0  0.29130336151E+03  0.30415515785E+03 -0.46626398774E+03  0.63324622665E+03  0.78934585729E+02 0.  0.
         24    2    4    4    0    0 -0.39924532324E+03 -0.17427377140E+03 -0.24978555244E+03  0.50852515931E+03  0.80229919114E+02 0.  0.
         13    1    3    3    0    0  0.44159205692E+02 -0.11887031229E+03  0.16502242218E+03  0.20811676149E+03  0.00000000000E+00 0.  1.
        -13    1    3    3    0    0  0.63782756037E+02 -0.11011074167E+02  0.92808799209E+02  0.11315015215E+03  0.00000000000E+00 0. -1.
          4    1    6    6  502    0 -0.18219937079E+03 -0.48425632751E+02 -0.13918144885E+03  0.23433550377E+03  0.00000000000E+00 0. -1.
          3    1    5    5  503    0  0.19610871627E+03  0.16215953719E+03 -0.24118197430E+03  0.35060389163E+03  0.00000000000E+00 0. -1.
         -4    1    5    5    0  503  0.95194645238E+02  0.14199562066E+03 -0.22508201344E+03  0.28264233502E+03  0.00000000000E+00 0.  1.
         -3    1    6    6    0  502 -0.21704595245E+03 -0.12584813865E+03 -0.11060410359E+03  0.27418965554E+03  0.00000000000E+00 0.  1.
<mgrwt>
<rscale>  0 0.13894305E+04</rscale>
<asrwt>0</asrwt>
<pdfrwt beam="1">  1        2 0.14778897E+00 0.13894305E+04</pdfrwt>
<pdfrwt beam="2">  1       -2 0.77293846E-01 0.13894305E+04</pdfrwt>
<totfact> 0.38868817E+01</totfact>
</mgrwt>
</event>
<event>
12    1  0.1201209E-007  0.1366590E+04  0.7818608E-02  0.8978364E-01
          2   -1    0    0  501    0  0.00000000000E+00  0.00000000000E+00  0.11371798590E+04  0.11371798590E+04  0.00000000000E+00 0. -1.
         -2   -1    0    0    0  501 -0.00000000000E+00 -0.00000000000E+00 -0.41057032274E+03  0.41057032274E+03  0.00000000000E+00 0.  1.
         23    2    1    2    0    0 -0.62738284048E+02 -0.10675551933E+03 -0.19923210288E+03  0.25024416034E+03  0.87154321594E+02 0.  0.
        254    2    1    2    0    0  0.62738284048E+02  0.10675551933E+03  0.92584163917E+03  0.12975060214E+04  0.90055888292E+03 0.  0.
        -24    2    4    4    0    0 -0.22757483988E+03  0.12602674898E+03 -0.49381822120E+02  0.27670378054E+03  0.80332861302E+02 0.  0.
         24    2    4    4    0    0  0.29031312393E+03 -0.19271229651E+02  0.97522346129E+03  0.10208022409E+04  0.79519339220E+02 0.  0.
         11    1    3    3    0    0 -0.53561269341E+02 -0.61106722261E+02 -0.53585330381E+02  0.97335649744E+02  0.00000000000E+00 0. -1.
        -11    1    3    3    0    0 -0.91770147069E+01 -0.45648797072E+02 -0.14564677250E+03  0.15290851060E+03  0.00000000000E+00 0.  1.
          4    1    6    6  502    0  0.10587134716E+01 -0.38815560679E+01  0.75347542499E+02  0.75454883953E+02  0.00000000000E+00 0. -1.
          1    1    5    5  503    0 -0.43352001722E+01  0.12688988367E+02 -0.20755231034E+02  0.24709998009E+02  0.00000000000E+00 0. -1.
         -4    1    5    5    0  503 -0.22323963971E+03  0.11333776062E+03 -0.28626591085E+02  0.25199378253E+03  0.00000000000E+00 0.  1.
         -3    1    6    6    0  502  0.28925441046E+03 -0.15389673583E+02  0.89987591879E+03  0.94534735692E+03  0.00000000000E+00 0.  1.
<mgrwt>
<rscale>  0 0.13665904E+04</rscale>
<asrwt>0</asrwt>
<pdfrwt beam="1">  1        2 0.17495075E+00 0.13665904E+04</pdfrwt>
<pdfrwt beam="2">  1       -2 0.63164665E-01 0.13665904E+04</pdfrwt>
<totfact> 0.46821753E+01</totfact>
</mgrwt>
</event>
<event>
12    1  0.1201209E-007  0.3161026E+04  0.7818608E-02  0.8199187E-01
          2   -1    0    0  501    0  0.00000000000E+00  0.00000000000E+00  0.17429161735E+04  0.17429161735E+04  0.00000000000E+00 0.  1.
         -2   -1    0    0    0  501 -0.00000000000E+00 -0.00000000000E+00 -0.14332419654E+04  0.14332419654E+04  0.00000000000E+00 0. -1.
         23    2    1    2    0    0  0.99444270679E+02  0.14037467593E+04  0.50712920211E+03  0.14989006667E+04  0.95546083025E+02 0.  0.
        254    2    1    2    0    0 -0.99444270679E+02 -0.14037467593E+04 -0.19745499400E+03  0.16772574722E+04  0.89096017103E+03 0.  0.
        -24    2    4    4    0    0 -0.37657887501E+03 -0.82796867494E+03 -0.40746458846E+03  0.99991235711E+03  0.80334023086E+02 0.  0.
         24    2    4    4    0    0  0.27713460433E+03 -0.57577808431E+03  0.21000959446E+03  0.67734511510E+03  0.79802154743E+02 0.  0.
         13    1    3    3    0    0  0.14534030093E+02  0.18730639356E+03  0.10315161809E+03  0.21432493885E+03  0.00000000000E+00 0. -1.
        -13    1    3    3    0    0  0.84910240585E+02  0.12164403657E+04  0.40397758402E+03  0.12845757279E+04  0.00000000000E+00 0.  1.
          2    1    6    6  502    0  0.13332317844E+03 -0.23755840678E+03  0.52186363344E+02  0.27736705475E+03  0.00000000000E+00 0. -1.
          1    1    5    5  503    0 -0.15901823529E+03 -0.25925210189E+03 -0.14196237791E+03  0.33563636309E+03  0.00000000000E+00 0. -1.
         -2    1    5    5    0  503 -0.21756063972E+03 -0.56871657306E+03 -0.26550221055E+03  0.66427599402E+03  0.00000000000E+00 0.  1.
         -1    1    6    6    0  502  0.14381142588E+03 -0.33821967753E+03  0.15782323112E+03  0.39997806035E+03  0.00000000000E+00 0.  1.
<mgrwt>
<rscale>  0 0.31610255E+04</rscale>
<asrwt>0</asrwt>
<pdfrwt beam="1">  1        2 0.26814095E+00 0.31610255E+04</pdfrwt>
<pdfrwt beam="2">  1       -2 0.22049876E+00 0.31610255E+04</pdfrwt>
<totfact> 0.76945690E-01</totfact>
</mgrwt>
</event>
<event>
12    1  0.1201209E-007  0.2436617E+04  0.7818608E-02  0.8425920E-01
         -1   -1    0    0    0  501 -0.00000000000E+00  0.00000000000E+00  0.12992342071E+04  0.12992342071E+04  0.00000000000E+00 0.  1.
          1   -1    0    0  501    0  0.00000000000E+00 -0.00000000000E+00 -0.11424236931E+04  0.11424236931E+04  0.00000000000E+00 0. -1.
         23    2    1    2    0    0  0.76045072737E+03 -0.17549688576E+03  0.76953553691E+03  0.10996050439E+04  0.88667042048E+02 0.  0.
        254    2    1    2    0    0 -0.76045072737E+03  0.17549688576E+03 -0.61272502295E+03  0.13420528563E+04  0.90365339025E+03 0.  0.
        -24    2    4    4    0    0 -0.51944708839E+03  0.50760704641E+03 -0.20701445809E+03  0.75956467321E+03  0.81199234798E+02 0.  0.
         24    2    4    4    0    0 -0.24100363898E+03 -0.33211016065E+03 -0.40571056486E+03  0.58248818310E+03  0.79445001079E+02 0.  0.
         13    1    3    3    0    0  0.61630846660E+03 -0.14573083050E+03  0.66990676869E+03  0.92187237712E+03  0.00000000000E+00 0.  1.
        -13    1    3    3    0    0  0.14414226077E+03 -0.29766055262E+02  0.99628768222E+02  0.17773266679E+03  0.00000000000E+00 0. -1.
          2    1    6    6  502    0 -0.17703965321E+03 -0.18988201245E+03 -0.28307016568E+03  0.38409235368E+03  0.00000000000E+00 0. -1.
          1    1    5    5  503    0 -0.18170724827E+03  0.20145049212E+03 -0.40735665171E+02  0.27433413799E+03  0.00000000000E+00 0. -1.
         -2    1    5    5    0  503 -0.33773984012E+03  0.30615655429E+03 -0.16627879291E+03  0.48523053523E+03  0.00000000000E+00 0.  1.
         -1    1    6    6    0  502 -0.63963985771E+02 -0.14222814820E+03 -0.12264039918E+03  0.19839582941E+03  0.00000000000E+00 0.  1.
<mgrwt>
<rscale>  0 0.24366173E+04</rscale>
<asrwt>0</asrwt>
<pdfrwt beam="1">  1        1 0.17575749E+00 0.24366173E+04</pdfrwt>
<pdfrwt beam="2">  1       -1 0.19988219E+00 0.24366173E+04</pdfrwt>
<totfact> 0.15872942E+00</totfact>
</mgrwt>
</event>
<event>
12    1  0.1201209E-007  0.1141550E+04  0.7818608E-02  0.9165615E-01
          1   -1    0    0  501    0  0.00000000000E+00  0.00000000000E+00  0.42344253684E+03  0.42344253684E+03  0.00000000000E+00 0. -1.
         -1   -1    0    0    0  501 -0.00000000000E+00 -0.00000000000E+00 -0.76936994969E+03  0.76936994969E+03  0.00000000000E+00 0.  1.
         23    2    1    2    0    0 -0.34245429441E+02  0.50614792438E+02  0.12889483869E+03  0.16924870828E+03  0.91085888937E+02 0.  0.
        254    2    1    2    0    0  0.34245429441E+02 -0.50614792438E+02 -0.47482225154E+03  0.10235637783E+04  0.90470549404E+03 0.  0.
        -24    2    4    4    0    0  0.31716119213E+03 -0.34022927564E+03 -0.36468982546E+03  0.59625490778E+03  0.78575215380E+02 0.  0.
         24    2    4    4    0    0 -0.28291576269E+03  0.28961448320E+03 -0.11013242609E+03  0.42730887047E+03  0.80906377074E+02 0.  0.
         11    1    3    3    0    0 -0.38986754851E+02  0.54504290035E+02  0.14075710759E+03  0.15589499038E+03  0.00000000000E+00 0. -1.
        -11    1    3    3    0    0  0.47413254100E+01 -0.38894975977E+01 -0.11862268908E+02  0.13353717904E+02  0.00000000000E+00 0.  1.
          4    1    6    6  502    0 -0.22556624159E+03  0.18004627318E+03 -0.66556369241E+02  0.29618666432E+03  0.00000000000E+00 0. -1.
          3    1    5    5  503    0  0.30463763003E+03 -0.29577891892E+03 -0.33954155651E+03  0.54367060165E+03  0.00000000000E+00 0. -1.
         -4    1    5    5    0  503  0.12523562103E+02 -0.44450356721E+02 -0.25148268942E+02  0.52584306130E+02  0.00000000000E+00 0.  1.
         -3    1    6    6    0  502 -0.57349521095E+02  0.10956821002E+03 -0.43576056844E+02  0.13112220615E+03  0.00000000000E+00 0.  1.
<mgrwt>
<rscale>  0 0.11415498E+04</rscale>
<asrwt>0</asrwt>
<pdfrwt beam="1">  1        1 0.65145005E-01 0.11415498E+04</pdfrwt>
<pdfrwt beam="2">  1       -1 0.11836461E+00 0.11415498E+04</pdfrwt>
<totfact> 0.35380915E+01</totfact>
</mgrwt>
</event>
<event>
12    1  0.1201209E-007  0.2425344E+04  0.7818608E-02  0.8430076E-01
         -2   -1    0    0    0  501 -0.00000000000E+00  0.00000000000E+00  0.58373444836E+03  0.58373444836E+03  0.00000000000E+00 0.  1.
          2   -1    0    0  501    0  0.00000000000E+00 -0.00000000000E+00 -0.25192500199E+04  0.25192500199E+04  0.00000000000E+00 0. -1.
         23    2    1    2    0    0 -0.38522022582E+03  0.65542055410E+03  0.79172691283E+02  0.76971295220E+03  0.90658637910E+02 0.  0.
        254    2    1    2    0    0  0.38522022582E+03 -0.65542055410E+03 -0.20146882629E+04  0.23332715161E+04  0.89845225036E+03 0.  0.
        -24    2    4    4    0    0  0.36530511548E+03 -0.82376547209E+03 -0.12306759629E+04  0.15273823924E+04  0.79349018160E+02 0.  0.
         24    2    4    4    0    0  0.19915110344E+02  0.16834491799E+03 -0.78401230002E+03  0.80588912370E+03  0.77751977947E+02 0.  0.
         13    1    3    3    0    0 -0.24025752977E+03  0.43938138001E+03  0.92301939720E+02  0.50921442025E+03  0.00000000000E+00 0. -1.
        -13    1    3    3    0    0 -0.14496269605E+03  0.21603917409E+03 -0.13129248437E+02  0.26049853195E+03  0.00000000000E+00 0.  1.
          2    1    6    6  502    0  0.46667991200E+02  0.94918505778E+02 -0.38320222592E+03  0.39753159634E+03  0.00000000000E+00 0. -1.
          1    1    5    5  503    0  0.18780259475E+03 -0.51119469013E+03 -0.71483723013E+03  0.89865571349E+03  0.00000000000E+00 0. -1.
         -2    1    5    5    0  503  0.17750252073E+03 -0.31257078196E+03 -0.51583873272E+03  0.62872667891E+03  0.00000000000E+00 0.  1.
         -1    1    6    6    0  502 -0.26752880857E+02  0.73426412214E+02 -0.40081007410E+03  0.40835752735E+03  0.00000000000E+00 0.  1.
<mgrwt>
<rscale>  0 0.24253437E+04</rscale>
<asrwt>0</asrwt>
<pdfrwt beam="1">  1        2 0.38757693E+00 0.24253437E+04</pdfrwt>
<pdfrwt beam="2">  1       -2 0.89805299E-01 0.24253437E+04</pdfrwt>
<totfact> 0.32331256E+00</totfact>
</mgrwt>
</event>
<event>
12    1  0.1201209E-007  0.1682573E+04  0.7818608E-02  0.8771366E-01
          2   -1    0    0  501    0  0.00000000000E+00  0.00000000000E+00  0.35336244208E+03  0.35336244208E+03  0.00000000000E+00 0. -1.
         -2   -1    0    0    0  501 -0.00000000000E+00 -0.00000000000E+00 -0.20029383281E+04  0.20029383281E+04  0.00000000000E+00 0.  1.
         23    2    1    2    0    0 -0.38880785468E+03  0.41796330142E+03 -0.34578079919E+03  0.67350968358E+03  0.90476867688E+02 0.  0.
        254    2    1    2    0    0  0.38880785468E+03 -0.41796330142E+03 -0.13037950869E+04  0.16827910866E+04  0.89779693892E+03 0.  0.
        -24    2    4    4    0    0 -0.50962846806E+01 -0.29938996386E+03  0.32306562786E+01  0.31009012725E+03  0.80530288072E+02 0.  0.
         24    2    4    4    0    0  0.39390413936E+03 -0.11857333756E+03 -0.13070257431E+04  0.13727009594E+04  0.82289265911E+02 0.  0.
         11    1    3    3    0    0 -0.57707657888E+02  0.11685765738E+03 -0.72741075764E+02  0.14925531807E+03  0.00000000000E+00 0.  1.
        -11    1    3    3    0    0 -0.33110019679E+03  0.30110564404E+03 -0.27303972343E+03  0.52425436551E+03  0.00000000000E+00 0. -1.
          2    1    6    6  502    0  0.38935459452E+03 -0.10990705500E+03 -0.12972298330E+04  0.13588531196E+04  0.00000000000E+00 0. -1.
          3    1    5    5  503    0  0.12935845132E+02 -0.18227730856E+03  0.37910265469E+02  0.18662674388E+03  0.00000000000E+00 0. -1.
         -4    1    5    5    0  503 -0.18032129813E+02 -0.11711265530E+03 -0.34679609191E+02  0.12346338336E+03  0.00000000000E+00 0.  1.
         -1    1    6    6    0  502  0.45495448379E+01 -0.86662825558E+01 -0.97959101736E+01  0.13847839821E+02  0.00000000000E+00 0.  1.
<mgrwt>
<rscale>  0 0.16825732E+04</rscale>
<asrwt>0</asrwt>
<pdfrwt beam="1">  1        2 0.54363452E-01 0.16825732E+04</pdfrwt>
<pdfrwt beam="2">  1       -2 0.30814436E+00 0.16825732E+04</pdfrwt>
<totfact> 0.24747105E+00</totfact>
</mgrwt>
</event>
<event>
12    1  0.1201209E-007  0.1316275E+04  0.7818608E-02  0.9016758E-01
         -1   -1    0    0    0  501 -0.00000000000E+00  0.00000000000E+00  0.43226985360E+03  0.43226985360E+03  0.00000000000E+00 0.  1.
          1   -1    0    0  501    0  0.00000000000E+00 -0.00000000000E+00 -0.10020239413E+04  0.10020239413E+04  0.00000000000E+00 0. -1.
         23    2    1    2    0    0  0.92491477694E+02 -0.30858327306E+02 -0.50916451150E+03  0.52637166977E+03  0.91168663246E+02 0.  0.
        254    2    1    2    0    0 -0.92491477694E+02  0.30858327306E+02 -0.60589576221E+02  0.90792212514E+03  0.90063565262E+03 0.  0.
        -24    2    4    4    0    0 -0.11292536552E+03  0.43014715224E+03  0.11197075021E+03  0.46545242511E+03  0.79560042611E+02 0.  0.
         24    2    4    4    0    0  0.20433887829E+02 -0.39928882493E+03 -0.17256032643E+03  0.44246970003E+03  0.78442716072E+02 0.  0.
         11    1    3    3    0    0  0.18303010875E+02 -0.52988538123E+02 -0.21652638710E+03  0.22366596006E+03  0.00000000000E+00 0.  1.
        -11    1    3    3    0    0  0.74188466819E+02  0.22130210816E+02 -0.29263812441E+03  0.30270570972E+03  0.00000000000E+00 0. -1.
          4    1    6    6  502    0  0.68906370406E+01 -0.13643510802E+03 -0.10045942350E+03  0.16957038465E+03  0.00000000000E+00 0. -1.
          1    1    5    5  503    0 -0.97715783613E+02  0.36922894215E+03  0.12391407991E+03  0.40153839827E+03  0.00000000000E+00 0. -1.
         -2    1    5    5    0  503 -0.15209581910E+02  0.60918210085E+02 -0.11943329696E+02  0.63914026833E+02  0.00000000000E+00 0.  1.
         -3    1    6    6    0  502  0.13543250789E+02 -0.26285371691E+03 -0.72100902931E+02  0.27289931539E+03  0.00000000000E+00 0.  1.
<mgrwt>
<rscale>  0 0.13162747E+04</rscale>
<asrwt>0</asrwt>
<pdfrwt beam="1">  1        1 0.15415753E+00 0.13162747E+04</pdfrwt>
<pdfrwt beam="2">  1       -1 0.66503055E-01 0.13162747E+04</pdfrwt>
<totfact> 0.33899846E+01</totfact>
</mgrwt>
</event>
<event>
12    1  0.1264563E-007  0.2464665E+04  0.7818608E-02  0.8415683E-01
          1   -1    0    0  501    0  0.00000000000E+00  0.00000000000E+00  0.87911181580E+03  0.87911181580E+03  0.00000000000E+00 0. -1.
         -1   -1    0    0    0  501 -0.00000000000E+00 -0.00000000000E+00 -0.17274742990E+04  0.17274742990E+04  0.00000000000E+00 0.  1.
         23    2    1    2    0    0 -0.91889046470E+03 -0.50528894423E+03 -0.55779411496E+03  0.11912464259E+04  0.90868967880E+02 0.  0.
        254    2    1    2    0    0  0.91889046470E+03  0.50528894423E+03 -0.29056836826E+03  0.14153396889E+04  0.90503030612E+03 0.  0.
        -24    2    4    4    0    0  0.69008437437E+03 -0.14548593365E+02  0.12654054459E+03  0.70623173993E+03  0.79515129024E+02 0.  0.
         24    2    4    4    0    0  0.22880609033E+03  0.51983753760E+03 -0.41710891285E+03  0.70910794894E+03  0.79189302353E+02 0.  0.
         11    1    3    3    0    0 -0.15412225563E+03 -0.88320062422E+02 -0.57324420025E+02  0.18665527648E+03  0.00000000000E+00 0.  1.
        -11    1    3    3    0    0 -0.76476820908E+03 -0.41696888181E+03 -0.50046969494E+03  0.10045911495E+04  0.00000000000E+00 0. -1.
          2    1    6    6  502    0  0.20969555675E+03  0.49748775935E+03 -0.41230993649E+03  0.67931272692E+03  0.00000000000E+00 0. -1.
          3    1    5    5  503    0  0.55179005820E+03 -0.17836598135E+02  0.13255140805E+03  0.56776781199E+03  0.00000000000E+00 0. -1.
         -4    1    5    5    0  503  0.13829431617E+03  0.32880047698E+01 -0.60108634582E+01  0.13846392794E+03  0.00000000000E+00 0.  1.
         -1    1    6    6    0  502  0.19110533583E+02  0.22349778248E+02 -0.47989763620E+01  0.29795222027E+02  0.00000000000E+00 0.  1.
<mgrwt>
<rscale>  0 0.24646647E+04</rscale>
<asrwt>0</asrwt>
<pdfrwt beam="1">  1        1 0.13524797E+00 0.24646647E+04</pdfrwt>
<pdfrwt beam="2">  1       -1 0.26576527E+00 0.24646647E+04</pdfrwt>
<totfact> 0.92873453E-01</totfact>
</mgrwt>
</event>
<event>
12    1  0.1201209E-007  0.1248771E+04  0.7818608E-02  0.9071207E-01
         -2   -1    0    0    0  501 -0.00000000000E+00  0.00000000000E+00  0.15940306908E+03  0.15940306908E+03  0.00000000000E+00 0. -1.
          2   -1    0    0  501    0  0.00000000000E+00 -0.00000000000E+00 -0.24457325796E+04  0.24457325796E+04  0.00000000000E+00 0.  1.
         23    2    1    2    0    0 -0.23440131958E+03 -0.14807713921E+03 -0.75818688095E+03  0.81241704439E+03  0.91122389084E+02 0.  0.
        254    2    1    2    0    0  0.23440131958E+03  0.14807713921E+03 -0.15281426296E+04  0.17927186043E+04  0.89540453431E+03 0.  0.
        -24    2    4    4    0    0  0.41287631409E+03  0.38036155400E+03 -0.12825578006E+04  0.14023916604E+04  0.81277886090E+02 0.  0.
         24    2    4    4    0    0 -0.17847499451E+03 -0.23228441479E+03 -0.24558482891E+03  0.39032694384E+03  0.78954682422E+02 0.  0.
         13    1    3    3    0    0 -0.21257592877E+03 -0.14635258502E+03 -0.60606602356E+03  0.65872879818E+03  0.00000000000E+00 0.  1.
        -13    1    3    3    0    0 -0.21825390817E+02 -0.17245541912E+01 -0.15212085738E+03  0.15368824621E+03  0.00000000000E+00 0. -1.
          2    1    6    6  502    0 -0.72686534621E+02 -0.62741173867E+02 -0.41221587711E+02  0.10449405010E+03  0.00000000000E+00 0. -1.
          3    1    5    5  503    0  0.36304708058E+03  0.34870011970E+03 -0.10827527857E+04  0.11940471311E+04  0.00000000000E+00 0. -1.
         -4    1    5    5    0  503  0.49829233511E+02  0.31661434305E+02 -0.19980501492E+03  0.20834452938E+03  0.00000000000E+00 0.  1.
         -1    1    6    6    0  502 -0.10578845989E+03 -0.16954324092E+03 -0.20436324120E+03  0.28583289374E+03  0.00000000000E+00 0.  1.
<mgrwt>
<rscale>  0 0.12487710E+04</rscale>
<asrwt>0</asrwt>
<pdfrwt beam="1">  1        2 0.37626651E+00 0.12487710E+04</pdfrwt>
<pdfrwt beam="2">  1       -2 0.24523552E-01 0.12487710E+04</pdfrwt>
<totfact> 0.54943971E+01</totfact>
</mgrwt>
</event>
<event>
12    1  0.1201209E-007  0.1574915E+04  0.7818608E-02  0.8836109E-01
          2   -1    0    0  501    0  0.00000000000E+00  0.00000000000E+00  0.25444897391E+04  0.25444897391E+04  0.00000000000E+00 0. -1.
         -2   -1    0    0    0  501 -0.00000000000E+00 -0.00000000000E+00 -0.24369886502E+03  0.24369886502E+03  0.00000000000E+00 0.  1.
         23    2    1    2    0    0 -0.23404053287E+03  0.22906457578E+03  0.14894653825E+04  0.15288314877E+04  0.10757807111E+03 0.  0.
        254    2    1    2    0    0  0.23404053287E+03 -0.22906457578E+03  0.81132549164E+03  0.12593571164E+04  0.90580668047E+03 0.  0.
        -24    2    4    4    0    0  0.24751809545E+03 -0.74625146531E+02  0.97946338083E+03  0.10160461630E+04  0.78531336705E+02 0.  0.
         24    2    4    4    0    0 -0.13477562578E+02 -0.15443942925E+03 -0.16813788918E+03  0.24331095345E+03  0.83046302081E+02 0.  0.
         13    1    3    3    0    0 -0.10794447190E+03  0.12583651587E+03  0.98038323781E+03  0.99430283652E+03  0.00000000000E+00 0. -1.
        -13    1    3    3    0    0 -0.12609606097E+03  0.10322805991E+03  0.50908214467E+03  0.53452865121E+03  0.00000000000E+00 0.  1.
          4    1    6    6  502    0  0.14817427747E+02 -0.44787859108E+02 -0.90521837159E+01  0.48035929454E+02  0.00000000000E+00 0. -1.
          3    1    5    5  503    0  0.12991890736E+01  0.56175371537E+01  0.75517187017E+02  0.75736980075E+02  0.00000000000E+00 0. -1.
         -4    1    5    5    0  503  0.24621890637E+03 -0.80242683685E+02  0.90394619381E+03  0.94030918290E+03  0.00000000000E+00 0.  1.
         -3    1    6    6    0  502 -0.28294990325E+02 -0.10965157014E+03 -0.15908570547E+03  0.19527502399E+03  0.00000000000E+00 0.  1.
<mgrwt>
<rscale>  0 0.15749149E+04</rscale>
<asrwt>0</asrwt>
<pdfrwt beam="1">  1        2 0.39145994E+00 0.15749149E+04</pdfrwt>
<pdfrwt beam="2">  1       -2 0.37492135E-01 0.15749149E+04</pdfrwt>
<totfact> 0.21197469E+01</totfact>
</mgrwt>
</event>
<event>
12    1  0.1201209E-007  0.1886088E+04  0.7818608E-02  0.8661812E-01
          2   -1    0    0  501    0  0.00000000000E+00  0.00000000000E+00  0.71228299577E+03  0.71228299577E+03  0.00000000000E+00 0.  1.
         -2   -1    0    0    0  501 -0.00000000000E+00 -0.00000000000E+00 -0.12485657614E+04  0.12485657614E+04  0.00000000000E+00 0. -1.
         23    2    1    2    0    0 -0.75322194636E+03  0.25347018970E+02 -0.41682303414E+01  0.75921816577E+03  0.91701020979E+02 0.  0.
        254    2    1    2    0    0  0.75322194636E+03 -0.25347018970E+02 -0.53211453530E+03  0.12016305914E+04  0.76992494939E+03 0.  0.
        -24    2    4    4    0    0 -0.36887328374E+01  0.25003927212E+03 -0.18442212314E+03  0.32067592617E+03  0.79298712289E+02 0.  0.
         24    2    4    4    0    0  0.75691067920E+03 -0.27538629109E+03 -0.34769241216E+03  0.88095466524E+03  0.80247885543E+02 0.  0.
         13    1    3    3    0    0 -0.27691636560E+01 -0.67969404439E+01 -0.33718168374E+01  0.80768691667E+01  0.00000000000E+00 0. -1.
        -13    1    3    3    0    0 -0.75045278270E+03  0.32143959414E+02 -0.79641350397E+00  0.75114129661E+03  0.00000000000E+00 0.  1.
          4    1    6    6  502    0  0.24062674892E+03 -0.96741248948E+02 -0.15223286016E+03  0.30072403505E+03  0.00000000000E+00 0. -1.
          3    1    5    5  503    0  0.15610271443E+02  0.54645591818E+02 -0.93125917073E+01  0.57589457750E+02  0.00000000000E+00 0. -1.
         -4    1    5    5    0  503 -0.19299004280E+02  0.19539368030E+03 -0.17510953143E+03  0.26308646842E+03  0.00000000000E+00 0.  1.
         -3    1    6    6    0  502  0.51628393027E+03 -0.17864504214E+03 -0.19545955199E+03  0.58023063019E+03  0.00000000000E+00 0.  1.
<mgrwt>
<rscale>  0 0.18860882E+04</rscale>
<asrwt>0</asrwt>
<pdfrwt beam="1">  1        2 0.10958200E+00 0.18860882E+04</pdfrwt>
<pdfrwt beam="2">  1       -2 0.19208704E+00 0.18860882E+04</pdfrwt>
<totfact> 0.56358413E+00</totfact>
</mgrwt>
</event>
<event>
12    1  0.1201209E-007  0.1939006E+04  0.7818608E-02  0.8635681E-01
          2   -1    0    0  501    0  0.00000000000E+00  0.00000000000E+00  0.31949855069E+04  0.31949855069E+04  0.00000000000E+00 0. -1.
         -2   -1    0    0    0  501 -0.00000000000E+00 -0.00000000000E+00 -0.29419103814E+03  0.29419103814E+03  0.00000000000E+00 0.  1.
         23    2    1    2    0    0  0.73563243544E+03 -0.19610184012E+02  0.89148308774E+03  0.11595632329E+04  0.91132628164E+02 0.  0.
        254    2    1    2    0    0 -0.73563243544E+03  0.19610184012E+02  0.20093113810E+04  0.23296133122E+04  0.92099202981E+03 0.  0.
        -24    2    4    4    0    0 -0.84517250756E+03  0.84681578635E+02  0.10239852786E+04  0.13328871297E+04  0.80961179113E+02 0.  0.
         24    2    4    4    0    0  0.10954007212E+03 -0.65071394623E+02  0.98532610245E+03  0.99672618247E+03  0.79763656187E+02 0.  0.
         13    1    3    3    0    0  0.27002198696E+02  0.16907210721E+02  0.34816697688E+02  0.47192954418E+02  0.00000000000E+00 0. -1.
        -13    1    3    3    0    0  0.70863023674E+03 -0.36517394733E+02  0.85666639005E+03  0.11123702785E+04  0.00000000000E+00 0.  1.
          4    1    6    6  502    0  0.28856953354E+02 -0.33235245718E+02  0.13514262503E+03  0.14212963946E+03  0.00000000000E+00 0. -1.
          3    1    5    5  503    0 -0.32125841405E+03  0.71769517488E+02  0.39326138493E+03  0.51284729610E+03  0.00000000000E+00 0. -1.
         -4    1    5    5    0  503 -0.52391409351E+03  0.12912061147E+02  0.63072389365E+03  0.82003983362E+03  0.00000000000E+00 0.  1.
         -3    1    6    6    0  502  0.80683118762E+02 -0.31836148905E+02  0.85018347742E+03  0.85459654300E+03  0.00000000000E+00 0.  1.
<mgrwt>
<rscale>  0 0.19390060E+04</rscale>
<asrwt>0</asrwt>
<pdfrwt beam="1">  1        2 0.49153621E+00 0.19390060E+04</pdfrwt>
<pdfrwt beam="2">  1       -2 0.45260162E-01 0.19390060E+04</pdfrwt>
<totfact> 0.56698741E+00</totfact>
</mgrwt>
</event>
<event>
12    1  0.1201209E-007  0.1637204E+04  0.7818608E-02  0.8798013E-01
         -2   -1    0    0    0  501 -0.00000000000E+00  0.00000000000E+00  0.16293856378E+04  0.16293856378E+04  0.00000000000E+00 0.  1.
          2   -1    0    0  501    0  0.00000000000E+00 -0.00000000000E+00 -0.41126505327E+03  0.41126505327E+03  0.00000000000E+00 0. -1.
         23    2    1    2    0    0 -0.85063885064E+02  0.64595820836E+02  0.10985656600E+04  0.11083348909E+04  0.10075334448E+03 0.  0.
        254    2    1    2    0    0  0.85063885064E+02 -0.64595820836E+02  0.11955492452E+03  0.93231580018E+03  0.91842848751E+03 0.  0.
        -24    2    4    4    0    0 -0.30806834100E+03  0.10510380803E+03 -0.20180637970E+03  0.39121272182E+03  0.79803919900E+02 0.  0.
         24    2    4    4    0    0  0.39313222607E+03 -0.16969962887E+03  0.32136130422E+03  0.54110307836E+03  0.78540068395E+02 0.  0.
         11    1    3    3    0    0 -0.55223917040E+02 -0.66954261159E+00  0.77220051440E+03  0.77417295467E+03  0.00000000000E+00 0.  1.
        -11    1    3    3    0    0 -0.29839968024E+02  0.65265363447E+02  0.32636514559E+03  0.33416193621E+03  0.00000000000E+00 0. -1.
          4    1    6    6  502    0  0.26905680613E+03 -0.80862639460E+02  0.23129679162E+03  0.36390731952E+03  0.00000000000E+00 0. -1.
          3    1    5    5  503    0 -0.41380042517E+02 -0.33080837783E+00 -0.55628596029E+02  0.69332229512E+02  0.00000000000E+00 0. -1.
         -4    1    5    5    0  503 -0.26668829849E+03  0.10543461641E+03 -0.14617778368E+03  0.32188049231E+03  0.00000000000E+00 0.  1.
         -3    1    6    6    0  502  0.12407541994E+03 -0.88836989407E+02  0.90064512604E+02  0.17719575884E+03  0.00000000000E+00 0.  1.
<mgrwt>
<rscale>  0 0.16372042E+04</rscale>
<asrwt>0</asrwt>
<pdfrwt beam="1">  1        2 0.63271548E-01 0.16372042E+04</pdfrwt>
<pdfrwt beam="2">  1       -2 0.25067471E+00 0.16372042E+04</pdfrwt>
<totfact> 0.46910175E+00</totfact>
</mgrwt>
</event>
<event>
12    1  0.1201209E-007  0.2149696E+04  0.7818608E-02  0.8539662E-01
          1   -1    0    0  501    0  0.00000000000E+00  0.00000000000E+00  0.22250540654E+04  0.22250540654E+04  0.00000000000E+00 0. -1.
         -1   -1    0    0    0  501 -0.00000000000E+00 -0.00000000000E+00 -0.51922272313E+03  0.51922272313E+03  0.00000000000E+00 0.  1.
         23    2    1    2    0    0 -0.50977770753E+03 -0.71538056867E+03  0.63655277280E+03  0.10899374638E+04  0.10545887069E+03 0.  0.
        254    2    1    2    0    0  0.50977770753E+03  0.71538056867E+03  0.10692785695E+04  0.16543393247E+04  0.90655351355E+03 0.  0.
        -24    2    4    4    0    0  0.10136147255E+03  0.62197458957E+03  0.16641085748E+03  0.65580388684E+03  0.72523281266E+02 0.  0.
         24    2    4    4    0    0  0.40841623497E+03  0.93405979107E+02  0.90286771202E+03  0.99853543785E+03  0.79839948213E+02 0.  0.
         11    1    3    3    0    0 -0.91780079944E+02 -0.70099254777E+02  0.72099366708E+02  0.13614627161E+03  0.00000000000E+00 0.  1.
        -11    1    3    3    0    0 -0.41799762758E+03 -0.64528131390E+03  0.56445340609E+03  0.95379119223E+03  0.00000000000E+00 0. -1.
          4    1    6    6  502    0  0.15779014727E+03  0.22260015590E+01  0.29004616790E+03  0.33019610109E+03  0.00000000000E+00 0. -1.
          3    1    5    5  503    0  0.50143188252E+02  0.39065627886E+03  0.13727426666E+03  0.41709818009E+03  0.00000000000E+00 0. -1.
         -2    1    5    5    0  503  0.51218284303E+02  0.23131831070E+03  0.29136590815E+02  0.23870570675E+03  0.00000000000E+00 0.  1.
         -1    1    6    6    0  502  0.25062608771E+03  0.91179977548E+02  0.61282154411E+03  0.66833933677E+03  0.00000000000E+00 0.  1.
<mgrwt>
<rscale>  0 0.21496964E+04</rscale>
<asrwt>0</asrwt>
<pdfrwt beam="1">  1        1 0.34231600E+00 0.21496964E+04</pdfrwt>
<pdfrwt beam="2">  1       -1 0.79880420E-01 0.21496964E+04</pdfrwt>
<totfact> 0.30009976E+00</totfact>
</mgrwt>
</event>
<event>
12    1  0.1378233E-007  0.1517864E+04  0.7818608E-02  0.8872660E-01
         -2   -1    0    0    0  501 -0.00000000000E+00  0.00000000000E+00  0.34772631192E+03  0.34772631192E+03  0.00000000000E+00 0.  1.
          2   -1    0    0  501    0  0.00000000000E+00 -0.00000000000E+00 -0.16564115743E+04  0.16564115743E+04  0.00000000000E+00 0. -1.
         23    2    1    2    0    0 -0.14743053605E+03  0.42058498096E+03 -0.16828603396E+03  0.48509360929E+03  0.91477491106E+02 0.  0.
        254    2    1    2    0    0  0.14743053605E+03 -0.42058498096E+03 -0.11403992285E+04  0.15190442770E+04  0.89908710698E+03 0.  0.
        -24    2    4    4    0    0  0.34134079314E+03  0.14992999492E+03 -0.56878056465E+03  0.68468060325E+03  0.79269523174E+02 0.  0.
         24    2    4    4    0    0 -0.19391025709E+03 -0.57051497588E+03 -0.57161866380E+03  0.83436367371E+03  0.79538152432E+02 0.  0.
         11    1    3    3    0    0 -0.13918086236E+03  0.36721754648E+03 -0.11493398080E+03  0.40918193854E+03  0.00000000000E+00 0.  1.
        -11    1    3    3    0    0 -0.82496736933E+01  0.53367434486E+02 -0.53352053160E+02  0.75911670750E+02  0.00000000000E+00 0. -1.
          4    1    6    6  502    0 -0.18182415851E+03 -0.50667663257E+03 -0.47492285078E+03  0.71786694366E+03  0.00000000000E+00 0. -1.
          1    1    5    5  503    0  0.32670885799E+03  0.13426408196E+03 -0.49675985798E+03  0.60953742961E+03  0.00000000000E+00 0. -1.
         -2    1    5    5    0  503  0.14631935144E+02  0.15665912958E+02 -0.72020706676E+02  0.75143173642E+02  0.00000000000E+00 0.  1.
         -3    1    6    6    0  502 -0.12086098578E+02 -0.63838343310E+02 -0.96695813030E+02  0.11649673005E+03  0.00000000000E+00 0.  1.
<mgrwt>
<rscale>  0 0.15178641E+04</rscale>
<asrwt>0</asrwt>
<pdfrwt beam="1">  1        2 0.25483255E+00 0.15178641E+04</pdfrwt>
<pdfrwt beam="2">  1       -2 0.53496356E-01 0.15178641E+04</pdfrwt>
<totfact> 0.32949564E+01</totfact>
</mgrwt>
</event>
<event>
12    1  0.1201209E-007  0.1708764E+04  0.7818608E-02  0.8756382E-01
          2   -1    0    0  501    0  0.00000000000E+00  0.00000000000E+00  0.12592833580E+04  0.12592833580E+04  0.00000000000E+00 0. -1.
         -2   -1    0    0    0  501 -0.00000000000E+00 -0.00000000000E+00 -0.57966999039E+03  0.57966999039E+03  0.00000000000E+00 0.  1.
         23    2    1    2    0    0 -0.94128914780E+01  0.60132989791E+03  0.12570162865E+03  0.62117715965E+03  0.91509101044E+02 0.  0.
        254    2    1    2    0    0  0.94128914780E+01 -0.60132989791E+03  0.55391173896E+03  0.12177761887E+04  0.90248234479E+03 0.  0.
        -24    2    4    4    0    0  0.17215701455E+03  0.18317319415E+03  0.23055650943E+03  0.35017283694E+03  0.79210194897E+02 0.  0.
         24    2    4    4    0    0 -0.16274412308E+03 -0.78450309206E+03  0.32335522953E+03  0.86760335180E+03  0.79033034454E+02 0.  0.
         13    1    3    3    0    0 -0.45720935173E+02  0.34320565224E+03  0.50652853253E+02  0.34992318469E+03  0.00000000000E+00 0.  1.
        -13    1    3    3    0    0  0.36308043695E+02  0.25812424567E+03  0.75048775393E+02  0.27125397496E+03  0.00000000000E+00 0. -1.
          2    1    6    6  502    0 -0.41091283088E+02 -0.10779255433E+03  0.69506179160E+02  0.13468050065E+03  0.00000000000E+00 0. -1.
          3    1    5    5  503    0  0.66747931733E+02  0.59174800235E+02  0.13388500614E+03  0.16087926605E+03  0.00000000000E+00 0. -1.
         -4    1    5    5    0  503  0.10540908282E+03  0.12399839391E+03  0.96671503287E+02  0.18929357090E+03  0.00000000000E+00 0.  1.
         -1    1    6    6    0  502 -0.12165283999E+03 -0.67671053774E+03  0.25384905037E+03  0.73292285115E+03  0.00000000000E+00 0.  1.
<mgrwt>
<rscale>  0 0.17087642E+04</rscale>
<asrwt>0</asrwt>
<pdfrwt beam="1">  1        2 0.19373590E+00 0.17087642E+04</pdfrwt>
<pdfrwt beam="2">  1       -2 0.89179999E-01 0.17087642E+04</pdfrwt>
<totfact> 0.17928933E+01</totfact>
</mgrwt>
</event>
<event>
12    1  0.1201209E-007  0.1743687E+04  0.7818608E-02  0.8736833E-01
         -1   -1    0    0    0  501 -0.00000000000E+00  0.00000000000E+00  0.50180984487E+03  0.50180984487E+03  0.00000000000E+00 0.  1.
          1   -1    0    0  501    0  0.00000000000E+00 -0.00000000000E+00 -0.15147387226E+04  0.15147387226E+04  0.00000000000E+00 0. -1.
         23    2    1    2    0    0  0.25144304223E+03  0.43708915398E+03 -0.82051329902E+03  0.96745582329E+03  0.91968277889E+02 0.  0.
        254    2    1    2    0    0 -0.25144304223E+03 -0.43708915398E+03 -0.19241557875E+03  0.10490927442E+04  0.89961174903E+03 0.  0.
        -24    2    4    4    0    0 -0.56485452101E+03 -0.14351847895E+03 -0.16327016360E+03  0.61072237645E+03  0.81648582807E+02 0.  0.
         24    2    4    4    0    0  0.31341147878E+03 -0.29357067503E+03 -0.29145415151E+02  0.43837036776E+03  0.83118155846E+02 0.  0.
         11    1    3    3    0    0  0.84576663149E+01  0.64559535174E+02 -0.14122544593E+03  0.15551235411E+03  0.00000000000E+00 0.  1.
        -11    1    3    3    0    0  0.24298537591E+03  0.37252961880E+03 -0.67928785308E+03  0.81194346918E+03  0.00000000000E+00 0. -1.
          2    1    6    6  502    0  0.30291712937E+03 -0.25264885256E+03 -0.33665002527E+02  0.39588326860E+03  0.00000000000E+00 0. -1.
          1    1    5    5  503    0 -0.44240220752E+03 -0.80824286108E+02 -0.10832412586E+03  0.46258663479E+03  0.00000000000E+00 0. -1.
         -2    1    5    5    0  503 -0.12245231349E+03 -0.62694192837E+02 -0.54946037739E+02  0.14813574166E+03  0.00000000000E+00 0.  1.
         -1    1    6    6    0  502  0.10494349409E+02 -0.40921822478E+02  0.45195873758E+01  0.42487099154E+02  0.00000000000E+00 0.  1.
<mgrwt>
<rscale>  0 0.17436867E+04</rscale>
<asrwt>0</asrwt>
<pdfrwt beam="1">  1        1 0.23303672E+00 0.17436867E+04</pdfrwt>
<pdfrwt beam="2">  1       -1 0.77201515E-01 0.17436867E+04</pdfrwt>
<totfact> 0.10191318E+01</totfact>
</mgrwt>
</event>
<event>
12    1  0.1201209E-007  0.2098357E+04  0.7818608E-02  0.8561968E-01
         -2   -1    0    0    0  501 -0.00000000000E+00  0.00000000000E+00  0.82452850696E+03  0.82452850696E+03  0.00000000000E+00 0. -1.
          2   -1    0    0  501    0  0.00000000000E+00 -0.00000000000E+00 -0.13350358236E+04  0.13350358236E+04  0.00000000000E+00 0.  1.
         23    2    1    2    0    0  0.65305824847E+02  0.81446080588E+03 -0.45442393339E+03  0.93907561375E+03  0.88037730677E+02 0.  0.
        254    2    1    2    0    0 -0.65305824847E+02 -0.81446080588E+03 -0.56083383297E+02  0.12204887169E+04  0.90489563322E+03 0.  0.
        -24    2    4    4    0    0  0.22002677914E+03 -0.66227077514E+03  0.27150733831E+03  0.75337771077E+03  0.82748880246E+02 0.  0.
         24    2    4    4    0    0 -0.28533260399E+03 -0.15219003074E+03 -0.32759072161E+03  0.46711100609E+03  0.79375756791E+02 0.  0.
         13    1    3    3    0    0 -0.39647715747E+01  0.39235689968E+03 -0.24740563251E+03  0.46386334533E+03  0.00000000000E+00 0. -1.
        -13    1    3    3    0    0  0.69270596421E+02  0.42210390620E+03 -0.20701830088E+03  0.47521226842E+03  0.00000000000E+00 0.  1.
          4    1    6    6  502    0 -0.22830869836E+03 -0.15454086063E+03 -0.26494320356E+03  0.38236453871E+03  0.00000000000E+00 0. -1.
          1    1    5    5  503    0  0.18656009432E+03 -0.62183364274E+03  0.23999786588E+03  0.69215657453E+03  0.00000000000E+00 0. -1.
         -2    1    5    5    0  503  0.33466684818E+02 -0.40437132401E+02  0.31509472438E+02  0.61221136243E+02  0.00000000000E+00 0.  1.
         -3    1    6    6    0  502 -0.57023905633E+02  0.23508298942E+01 -0.62647518056E+02  0.84746467380E+02  0.00000000000E+00 0.  1.
<mgrwt>
<rscale>  0 0.20983566E+04</rscale>
<asrwt>0</asrwt>
<pdfrwt beam="1">  1        2 0.20539013E+00 0.20983566E+04</pdfrwt>
<pdfrwt beam="2">  1       -2 0.12685054E+00 0.20983566E+04</pdfrwt>
<totfact> 0.67188078E+00</totfact>
</mgrwt>
</event>
<event>
12    1  0.1201209E-007  0.2935712E+04  0.7818608E-02  0.8262331E-01
         -2   -1    0    0    0  501 -0.00000000000E+00  0.00000000000E+00  0.78187686031E+03  0.78187686031E+03  0.00000000000E+00 0. -1.
          2   -1    0    0  501    0  0.00000000000E+00 -0.00000000000E+00 -0.27556777536E+04  0.27556777536E+04  0.00000000000E+00 0.  1.
         23    2    1    2    0    0 -0.30859689917E+03  0.12531993310E+04 -0.51731155182E+03  0.13934218238E+04  0.90953438611E+02 0.  0.
        254    2    1    2    0    0  0.30859689917E+03 -0.12531993310E+04 -0.14564893414E+04  0.21441327901E+04  0.90011310981E+03 0.  0.
        -24    2    4    4    0    0  0.56359208756E+03 -0.58545612038E+03 -0.53922712941E+03  0.97847642306E+03  0.79090475621E+02 0.  0.
         24    2    4    4    0    0 -0.25499518840E+03 -0.66774321062E+03 -0.91726221202E+03  0.11656563670E+04  0.80506266677E+02 0.  0.
         13    1    3    3    0    0 -0.40676603105E+02  0.24446557344E+03 -0.13258882409E+03  0.28106547087E+03  0.00000000000E+00 0.  1.
        -13    1    3    3    0    0 -0.26792029606E+03  0.10087337575E+04 -0.38472272773E+03  0.11123563529E+04  0.00000000000E+00 0. -1.
          4    1    6    6  502    0 -0.25860326111E+03 -0.63534023696E+03 -0.86375241897E+03  0.11029964210E+04  0.00000000000E+00 0. -1.
          3    1    5    5  503    0  0.11764268100E+03 -0.93472630794E+02 -0.12840188103E+03  0.19764608813E+03  0.00000000000E+00 0. -1.
         -4    1    5    5    0  503  0.44594940656E+03 -0.49198348958E+03 -0.41082524838E+03  0.78083033492E+03  0.00000000000E+00 0.  1.
         -3    1    6    6    0  502  0.36080727135E+01 -0.32402973655E+02 -0.53509793055E+02  0.62659946083E+02  0.00000000000E+00 0.  1.
<mgrwt>
<rscale>  0 0.29357116E+04</rscale>
<asrwt>0</asrwt>
<pdfrwt beam="1">  1        2 0.42395042E+00 0.29357116E+04</pdfrwt>
<pdfrwt beam="2">  1       -2 0.12028875E+00 0.29357116E+04</pdfrwt>
<totfact> 0.11166329E+00</totfact>
</mgrwt>
</event>
<event>
12    1  0.1201209E-007  0.1521474E+04  0.7818608E-02  0.8870297E-01
          2   -1    0    0  501    0  0.00000000000E+00  0.00000000000E+00  0.31620719791E+04  0.31620719791E+04  0.00000000000E+00 0. -1.
         -2   -1    0    0    0  501 -0.00000000000E+00 -0.00000000000E+00 -0.18301944418E+03  0.18301944418E+03  0.00000000000E+00 0.  1.
         23    2    1    2    0    0  0.66740659058E+02  0.13183044349E+03 -0.52015178265E+02  0.18143969706E+03  0.91548913137E+02 0.  0.
        254    2    1    2    0    0 -0.66740659058E+02 -0.13183044349E+03  0.30310677132E+04  0.31636517263E+04  0.89414047080E+03 0.  0.
        -24    2    4    4    0    0  0.22483633417E+03  0.22337502377E+03  0.20690834133E+04  0.20949661976E+04  0.85612028872E+02 0.  0.
         24    2    4    4    0    0 -0.29157699323E+03 -0.35520546726E+03  0.96198429993E+03  0.10686855287E+04  0.74073604725E+02 0.  0.
         11    1    3    3    0    0  0.88578098075E+02  0.10778609693E+03 -0.52198351796E+02  0.14895835015E+03  0.00000000000E+00 0.  1.
        -11    1    3    3    0    0 -0.21837439017E+02  0.24044346562E+02  0.18317353114E+00  0.32481346908E+02  0.00000000000E+00 0. -1.
          4    1    6    6  502    0 -0.14025166711E+03 -0.12901967948E+03  0.45457512154E+03  0.49290480718E+03  0.00000000000E+00 0. -1.
          3    1    5    5  503    0  0.25186621747E+02 -0.41702823266E+01  0.17088362410E+03  0.17278012083E+03  0.00000000000E+00 0. -1.
         -4    1    5    5    0  503  0.19964971242E+03  0.22754530610E+03  0.18981997892E+04  0.19221860768E+04  0.00000000000E+00 0.  1.
         -3    1    6    6    0  502 -0.15132532612E+03 -0.22618578778E+03  0.50740917839E+03  0.57578072148E+03  0.00000000000E+00 0.  1.
<mgrwt>
<rscale>  0 0.15214738E+04</rscale>
<asrwt>0</asrwt>
<pdfrwt beam="1">  1        2 0.48647257E+00 0.15214738E+04</pdfrwt>
<pdfrwt beam="2">  1       -2 0.28156840E-01 0.15214738E+04</pdfrwt>
<totfact> 0.15412078E+01</totfact>
</mgrwt>
</event>
<event>
12    1  0.1201209E-007  0.1184328E+04  0.7818608E-02  0.9126686E-01
          2   -1    0    0  501    0  0.00000000000E+00  0.00000000000E+00  0.14814373859E+03  0.14814373859E+03  0.00000000000E+00 0. -1.
         -2   -1    0    0    0  501 -0.00000000000E+00 -0.00000000000E+00 -0.23670124012E+04  0.23670124012E+04  0.00000000000E+00 0.  1.
         23    2    1    2    0    0 -0.38134074886E+01  0.11333355071E+03 -0.91300289188E+03  0.92427835406E+03  0.88640619385E+02 0.  0.
        254    2    1    2    0    0  0.38134074886E+01 -0.11333355071E+03 -0.13058657708E+04  0.15908777858E+04  0.90152519777E+03 0.  0.
        -24    2    4    4    0    0  0.37816093868E+03  0.11878740322E+03 -0.90209388121E+03  0.98802593431E+03  0.72840467175E+02 0.  0.
         24    2    4    4    0    0 -0.37434753119E+03 -0.23212095393E+03 -0.40377188955E+03  0.60285185145E+03  0.79889953345E+02 0.  0.
         13    1    3    3    0    0 -0.32262912263E+02  0.11898613210E+02 -0.14162905077E+03  0.14574381814E+03  0.00000000000E+00 0. -1.
        -13    1    3    3    0    0  0.28449504774E+02  0.10143493750E+03 -0.77137384111E+03  0.77853453592E+03  0.00000000000E+00 0.  1.
          4    1    6    6  502    0 -0.17560137422E+02 -0.13608038060E+02 -0.12114890918E+01  0.22248704051E+02  0.00000000000E+00 0. -1.
          3    1    5    5  503    0  0.76296447216E+02  0.55702738628E+02 -0.22365410343E+03  0.24278612178E+03  0.00000000000E+00 0. -1.
         -4    1    5    5    0  503  0.30186449147E+03  0.63084664592E+02 -0.67843977778E+03  0.74523981253E+03  0.00000000000E+00 0.  1.
         -3    1    6    6    0  502 -0.35678739377E+03 -0.21851291587E+03 -0.40256040046E+03  0.58060314740E+03  0.00000000000E+00 0.  1.
<mgrwt>
<rscale>  0 0.11843278E+04</rscale>
<asrwt>0</asrwt>
<pdfrwt beam="1">  1        2 0.22791344E-01 0.11843278E+04</pdfrwt>
<pdfrwt beam="2">  1       -2 0.36415575E+00 0.11843278E+04</pdfrwt>
<totfact> 0.31031326E+00</totfact>
</mgrwt>
</event>
<event>
12    1  0.1201209E-007  0.1793442E+04  0.7818608E-02  0.8709795E-01
         -2   -1    0    0    0  501 -0.00000000000E+00  0.00000000000E+00  0.92395036270E+03  0.92395036270E+03  0.00000000000E+00 0.  1.
          2   -1    0    0  501    0  0.00000000000E+00 -0.00000000000E+00 -0.87029414037E+03  0.87029414037E+03  0.00000000000E+00 0. -1.
         23    2    1    2    0    0 -0.43263035005E+03  0.26429236797E+03  0.45165243034E+03  0.68519247594E+03  0.92083308442E+02 0.  0.
        254    2    1    2    0    0  0.43263035005E+03 -0.26429236797E+03 -0.39799620801E+03  0.11090520271E+04  0.90253860956E+03 0.  0.
        -24    2    4    4    0    0  0.12481862837E+03 -0.42836514646E+03  0.12957802875E+03  0.47130990277E+03  0.79159144947E+02 0.  0.
         24    2    4    4    0    0  0.30781172168E+03  0.16407277848E+03 -0.52757423675E+03  0.63774212436E+03  0.81929904537E+02 0.  0.
         11    1    3    3    0    0 -0.35264318627E+02  0.56991866657E+02  0.62222995600E+02  0.91451332493E+02  0.00000000000E+00 0. -1.
        -11    1    3    3    0    0 -0.39736603143E+03  0.20730050132E+03  0.38942943474E+03  0.59374114344E+03  0.00000000000E+00 0.  1.
          2    1    6    6  502    0  0.28785620391E+03  0.14510507928E+03 -0.51477755547E+03  0.60738176609E+03  0.00000000000E+00 0. -1.
          3    1    5    5  503    0  0.13321901968E+03 -0.41987443382E+03  0.12170809508E+03  0.45700624480E+03  0.00000000000E+00 0. -1.
         -4    1    5    5    0  503 -0.84003913136E+01 -0.84907126343E+01  0.78699336680E+01  0.14303657966E+02  0.00000000000E+00 0.  1.
         -1    1    6    6    0  502  0.19955517772E+02  0.18967699205E+02 -0.12796681284E+02  0.30360358274E+02  0.00000000000E+00 0.  1.
<mgrwt>
<rscale>  0 0.17934420E+04</rscale>
<asrwt>0</asrwt>
<pdfrwt beam="1">  1        2 0.13389141E+00 0.17934420E+04</pdfrwt>
<pdfrwt beam="2">  1       -2 0.14214621E+00 0.17934420E+04</pdfrwt>
<totfact> 0.10016038E+01</totfact>
</mgrwt>
</event>
<event>
12    1  0.1201209E-007  0.4202040E+04  0.7818608E-02  0.7964984E-01
         -1   -1    0    0    0  501 -0.00000000000E+00  0.00000000000E+00  0.16575321079E+04  0.16575321079E+04  0.00000000000E+00 0.  1.
          1   -1    0    0  501    0  0.00000000000E+00 -0.00000000000E+00 -0.26631675091E+04  0.26631675091E+04  0.00000000000E+00 0. -1.
         23    2    1    2    0    0 -0.16942150480E+04 -0.33333133617E+03 -0.14885873355E+04  0.22816006620E+04  0.91295767264E+02 0.  0.
        254    2    1    2    0    0  0.16942150480E+04  0.33333133617E+03  0.48295193425E+03  0.20390989550E+04  0.97118874005E+03 0.  0.
        -24    2    4    4    0    0  0.71790269416E+03 -0.23290037473E+03  0.49724516057E+03  0.90731691033E+03  0.79651511060E+02 0.  0.
         24    2    4    4    0    0  0.97631235384E+03  0.56623171090E+03 -0.14293226320E+02  0.11317820446E+04  0.83199384376E+02 0.  0.
         11    1    3    3    0    0 -0.54364939603E+03 -0.63803685256E+02 -0.47528206474E+03  0.72492662878E+03  0.00000000000E+00 0.  1.
        -11    1    3    3    0    0 -0.11505656520E+04 -0.26952765092E+03 -0.10133052708E+04  0.15566740333E+04  0.00000000000E+00 0. -1.
          2    1    6    6  502    0  0.97146355635E+03  0.55367818685E+03 -0.12797918663E+02  0.11182418176E+04  0.00000000000E+00 0. -1.
          1    1    5    5  503    0  0.35636372937E+03 -0.14361623526E+03  0.21709507550E+03  0.44130601904E+03  0.00000000000E+00 0. -1.
         -2    1    5    5    0  503  0.36153896480E+03 -0.89284139473E+02  0.28015008507E+03  0.46601089128E+03  0.00000000000E+00 0.  1.
         -1    1    6    6    0  502  0.48487974870E+01  0.12553524054E+02 -0.14953076572E+01  0.13540227038E+02  0.00000000000E+00 0.  1.
<mgrwt>
<rscale>  0 0.42020403E+04</rscale>
<asrwt>0</asrwt>
<pdfrwt beam="1">  1        1 0.40971807E+00 0.42020403E+04</pdfrwt>
<pdfrwt beam="2">  1       -1 0.25500494E+00 0.42020403E+04</pdfrwt>
<totfact> 0.51866424E-02</totfact>
</mgrwt>
</event>
<event>
12    1  0.1201209E-007  0.1978391E+04  0.7818608E-02  0.8616791E-01
         -1   -1    0    0    0  501 -0.00000000000E+00  0.00000000000E+00  0.57371737253E+03  0.57371737253E+03  0.00000000000E+00 0.  1.
          1   -1    0    0  501    0  0.00000000000E+00 -0.00000000000E+00 -0.17055564757E+04  0.17055564757E+04  0.00000000000E+00 0. -1.
         23    2    1    2    0    0  0.74172448002E+03 -0.20925788797E+03 -0.49935514108E+03  0.92278479132E+03  0.90731175615E+02 0.  0.
        254    2    1    2    0    0 -0.74172448002E+03  0.20925788797E+03 -0.63248396204E+03  0.13564890569E+04  0.91982744644E+03 0.  0.
        -24    2    4    4    0    0 -0.79868440229E+03  0.45553942074E+03 -0.40676511652E+03  0.10085819859E+04  0.79792380500E+02 0.  0.
         24    2    4    4    0    0  0.56959922271E+02 -0.24628153277E+03 -0.22571884552E+03  0.34790707095E+03  0.78684856630E+02 0.  0.
         13    1    3    3    0    0  0.45037811388E+02 -0.29206763110E+02 -0.56089471112E+02  0.77636771157E+02  0.00000000000E+00 0. -1.
        -13    1    3    3    0    0  0.69668666863E+03 -0.18005112486E+03 -0.44326566997E+03  0.84514802017E+03  0.00000000000E+00 0.  1.
          4    1    6    6  502    0  0.73607696326E+02 -0.22975953870E+03 -0.20424417382E+03  0.31610634464E+03  0.00000000000E+00 0. -1.
          3    1    5    5  503    0 -0.78486975987E+03  0.43429929219E+03 -0.38955107352E+03  0.97795012860E+03  0.00000000000E+00 0. -1.
         -4    1    5    5    0  503 -0.13814642422E+02  0.21240128548E+02 -0.17214043002E+02  0.30631857313E+02  0.00000000000E+00 0.  1.
         -3    1    6    6    0  502 -0.16647774056E+02 -0.16521994076E+02 -0.21474671706E+02  0.31800726314E+02  0.00000000000E+00 0.  1.
<mgrwt>
<rscale>  0 0.19783906E+04</rscale>
<asrwt>0</asrwt>
<pdfrwt beam="1">  1        1 0.26239330E+00 0.19783906E+04</pdfrwt>
<pdfrwt beam="2">  1       -1 0.88264213E-01 0.19783906E+04</pdfrwt>
<totfact> 0.55359281E+00</totfact>
</mgrwt>
</event>
<event>
12    1  0.1201209E-007  0.2927468E+04  0.7818608E-02  0.8264752E-01
         -1   -1    0    0    0  501 -0.00000000000E+00  0.00000000000E+00  0.65262062960E+03  0.65262062960E+03  0.00000000000E+00 0.  1.
          1   -1    0    0  501    0  0.00000000000E+00 -0.00000000000E+00 -0.32829445218E+04  0.32829445218E+04  0.00000000000E+00 0. -1.
         23    2    1    2    0    0 -0.39120584403E+03  0.36342896655E+03 -0.28236478095E+04  0.28752666795E+04  0.95125707391E+02 0.  0.
        254    2    1    2    0    0  0.39120584403E+03 -0.36342896655E+03  0.19332391726E+03  0.10602984719E+04  0.89539716686E+03 0.  0.
        -24    2    4    4    0    0 -0.14299819999E+03 -0.21792750649E+03 -0.23131897262E+03  0.35835646800E+03  0.83486572445E+02 0.  0.
         24    2    4    4    0    0  0.53420404402E+03 -0.14550146006E+03  0.42464288988E+03  0.70194200391E+03  0.76526841085E+02 0.  0.
         11    1    3    3    0    0 -0.24660459400E+02  0.14346985213E+02 -0.30021542355E+03  0.30156802679E+03  0.00000000000E+00 0.  1.
        -11    1    3    3    0    0 -0.36654538462E+03  0.34908198133E+03 -0.25234323859E+04  0.25736986527E+04  0.00000000000E+00 0. -1.
          2    1    6    6  502    0  0.13061545959E+03 -0.56172973608E+02  0.76185224171E+02  0.16130712827E+03  0.00000000000E+00 0. -1.
          1    1    5    5  503    0 -0.12371529767E+03 -0.11586986641E+03 -0.13479728356E+03  0.21656779186E+03  0.00000000000E+00 0. -1.
         -2    1    5    5    0  503 -0.19282902322E+02 -0.10205764008E+03 -0.96521689057E+02  0.14178867613E+03  0.00000000000E+00 0.  1.
         -3    1    6    6    0  502  0.40358858442E+03 -0.89328486449E+02  0.34845766571E+03  0.54063487564E+03  0.00000000000E+00 0.  1.
<mgrwt>
<rscale>  0 0.29274681E+04</rscale>
<asrwt>0</asrwt>
<pdfrwt beam="1">  1        1 0.50506839E+00 0.29274681E+04</pdfrwt>
<pdfrwt beam="2">  1       -1 0.10040317E+00 0.29274681E+04</pdfrwt>
<totfact> 0.29735544E-01</totfact>
</mgrwt>
</event>
<event>
12    1  0.1201209E-007  0.3261792E+04  0.7818608E-02  0.8172686E-01
         -2   -1    0    0    0  501 -0.00000000000E+00  0.00000000000E+00  0.10868174032E+04  0.10868174032E+04  0.00000000000E+00 0.  1.
          2   -1    0    0  501    0  0.00000000000E+00 -0.00000000000E+00 -0.24473493473E+04  0.24473493473E+04  0.00000000000E+00 0. -1.
         23    2    1    2    0    0 -0.13824193310E+04  0.21913096728E+03 -0.12360245875E+04  0.18695445187E+04  0.91314504116E+02 0.  0.
        254    2    1    2    0    0  0.13824193310E+04 -0.21913096728E+03 -0.12450735648E+03  0.16646222318E+04  0.89239201320E+03 0.  0.
        -24    2    4    4    0    0  0.31336000668E+03 -0.28345203942E+03  0.28423877008E+03  0.51549933994E+03  0.80052099423E+02 0.  0.
         24    2    4    4    0    0  0.10690593243E+04  0.64321072138E+02 -0.40874612656E+03  0.11491228919E+04  0.79906103456E+02 0.  0.
         13    1    3    3    0    0 -0.37847373272E+03  0.77556489480E+02 -0.39126073889E+03  0.54985665515E+03  0.00000000000E+00 0.  1.
        -13    1    3    3    0    0 -0.10039455983E+04  0.14157447780E+03 -0.84476384866E+03  0.13196878635E+04  0.00000000000E+00 0. -1.
          4    1    6    6  502    0  0.81649344431E+03  0.20866484241E+02 -0.33135703869E+03  0.88141615701E+03  0.00000000000E+00 0. -1.
          3    1    5    5  503    0  0.18660943093E+03 -0.20753631439E+03  0.21515132059E+03  0.35239820126E+03  0.00000000000E+00 0. -1.
         -4    1    5    5    0  503  0.12675057575E+03 -0.75915725031E+02  0.69087449492E+02  0.16310113868E+03  0.00000000000E+00 0.  1.
         -3    1    6    6    0  502  0.25256588004E+03  0.43454587896E+02 -0.77389087872E+02  0.26770673487E+03  0.00000000000E+00 0.  1.
<mgrwt>
<rscale>  0 0.32617921E+04</rscale>
<asrwt>0</asrwt>
<pdfrwt beam="1">  1        2 0.37651528E+00 0.32617921E+04</pdfrwt>
<pdfrwt beam="2">  1       -2 0.16720268E+00 0.32617921E+04</pdfrwt>
<totfact> 0.69810746E-01</totfact>
</mgrwt>
</event>
<event>
12    1  0.1201209E-007  0.1441848E+04  0.7818608E-02  0.8924072E-01
          4   -1    0    0  501    0  0.00000000000E+00  0.00000000000E+00  0.32165549585E+03  0.32165549585E+03  0.00000000000E+00 0. -1.
         -4   -1    0    0    0  501 -0.00000000000E+00 -0.00000000000E+00 -0.16158003914E+04  0.16158003914E+04  0.00000000000E+00 0.  1.
         23    2    1    2    0    0 -0.40204535692E+03  0.89210333102E+01 -0.18979131591E+03  0.44992268181E+03  0.68480815981E+02 0.  0.
        254    2    1    2    0    0  0.40204535692E+03 -0.89210333102E+01 -0.11043535797E+04  0.14875332055E+04  0.91183230617E+03 0.  0.
        -24    2    4    4    0    0 -0.25201920270E+02  0.10369019373E+03 -0.10224809350E+04  0.10312266698E+04  0.81082606688E+02 0.  0.
         24    2    4    4    0    0  0.42724727719E+03 -0.11261122704E+03 -0.81872644670E+02  0.45630653562E+03  0.79315825534E+02 0.  0.
         11    1    3    3    0    0 -0.72370420469E+02 -0.22188132960E+02 -0.22769349179E+02  0.79045773228E+02  0.00000000000E+00 0.  1.
        -11    1    3    3    0    0 -0.32967493645E+03  0.31109166271E+02 -0.16702196673E+03  0.37087690859E+03  0.00000000000E+00 0. -1.
          2    1    6    6  502    0  0.37964515490E+03 -0.12421142640E+03 -0.79301358362E+02  0.40724394106E+03  0.00000000000E+00 0. -1.
          3    1    5    5  503    0 -0.20598660158E+02  0.11340995835E+03 -0.77627531804E+03  0.78478627208E+03  0.00000000000E+00 0. -1.
         -4    1    5    5    0  503 -0.46032601120E+01 -0.97197646179E+01 -0.24620561696E+03  0.24644039777E+03  0.00000000000E+00 0.  1.
         -1    1    6    6    0  502  0.47602122288E+02  0.11600199365E+02 -0.25712863075E+01  0.49062594560E+02  0.00000000000E+00 0.  1.
<mgrwt>
<rscale>  0 0.14418475E+04</rscale>
<asrwt>0</asrwt>
<pdfrwt beam="1">  1        4 0.49485460E-01 0.14418475E+04</pdfrwt>
<pdfrwt beam="2">  1       -4 0.24858468E+00 0.14418475E+04</pdfrwt>
<totfact> 0.49443415E-01</totfact>
</mgrwt>
</event>
<event>
12    1  0.1201209E-007  0.1873602E+04  0.7818608E-02  0.8668109E-01
         -2   -1    0    0    0  501 -0.00000000000E+00  0.00000000000E+00  0.10643303922E+04  0.10643303922E+04  0.00000000000E+00 0.  1.
          2   -1    0    0  501    0  0.00000000000E+00 -0.00000000000E+00 -0.82455205455E+03  0.82455205455E+03  0.00000000000E+00 0. -1.
         23    2    1    2    0    0  0.77391231061E+02 -0.54016438640E+02 -0.62027512905E+03  0.63409884129E+03  0.91830967059E+02 0.  0.
        254    2    1    2    0    0 -0.77391231061E+02  0.54016438640E+02  0.86005346676E+03  0.12547836055E+04  0.90878091567E+03 0.  0.
        -24    2    4    4    0    0 -0.47741178078E+03  0.66867109315E+02  0.34419687728E+03  0.59708300391E+03  0.75122596387E+02 0.  0.
         24    2    4    4    0    0  0.40002054972E+03 -0.12850670675E+02  0.51585658948E+03  0.65770060160E+03  0.79249482678E+02 0.  0.
         11    1    3    3    0    0  0.57325200704E+02 -0.60381909179E+02 -0.25564495915E+03  0.26886148614E+03  0.00000000000E+00 0. -1.
        -11    1    3    3    0    0  0.20066030357E+02  0.63654705387E+01 -0.36463016990E+03  0.36523735514E+03  0.00000000000E+00 0.  1.
          4    1    6    6  502    0  0.19179727573E+03  0.36200831151E+01  0.30919057631E+03  0.36386551425E+03  0.00000000000E+00 0. -1.
          3    1    5    5  503    0 -0.38649812570E+03  0.54766143112E+02  0.23984460097E+03  0.45815452002E+03  0.00000000000E+00 0. -1.
         -4    1    5    5    0  503 -0.90913655077E+02  0.12100966204E+02  0.10435227631E+03  0.13892848388E+03  0.00000000000E+00 0.  1.
         -3    1    6    6    0  502  0.20822327399E+03 -0.16470753790E+02  0.20666601316E+03  0.29383508735E+03  0.00000000000E+00 0.  1.
<mgrwt>
<rscale>  0 0.18736017E+04</rscale>
<asrwt>0</asrwt>
<pdfrwt beam="1">  1        2 0.12685416E+00 0.18736017E+04</pdfrwt>
<pdfrwt beam="2">  1       -2 0.16374314E+00 0.18736017E+04</pdfrwt>
<totfact> 0.73370329E+00</totfact>
</mgrwt>
</event>
<event>
12    1  0.1201209E-007  0.2258750E+04  0.7818608E-02  0.8494365E-01
         -2   -1    0    0    0  501 -0.00000000000E+00  0.00000000000E+00  0.16036516347E+04  0.16036516347E+04  0.00000000000E+00 0. -1.
          2   -1    0    0  501    0  0.00000000000E+00 -0.00000000000E+00 -0.79536463627E+03  0.79536463627E+03  0.00000000000E+00 0.  1.
         23    2    1    2    0    0  0.43204438426E+03  0.52061054449E+03 -0.32063824635E+03  0.75409567485E+03  0.90297911386E+02 0.  0.
        254    2    1    2    0    0 -0.43204438426E+03 -0.52061054449E+03  0.11289252448E+04  0.16449205962E+04  0.98670860454E+03 0.  0.
        -24    2    4    4    0    0 -0.51118374600E+03 -0.74099118795E+03  0.67540643271E+03  0.11282088918E+04  0.79402086489E+02 0.  0.
         24    2    4    4    0    0  0.79139361740E+02  0.22038064345E+03  0.45351881210E+03  0.51671170438E+03  0.80504695098E+02 0.  0.
         11    1    3    3    0    0  0.91424670601E+02  0.62004992713E+02 -0.38722762023E+02  0.11705785670E+03  0.00000000000E+00 0. -1.
        -11    1    3    3    0    0  0.34061971366E+03  0.45860555178E+03 -0.28191548432E+03  0.63703781815E+03  0.00000000000E+00 0.  1.
          4    1    6    6  502    0  0.88962592864E+02  0.22047303482E+03  0.43356329857E+03  0.49446924665E+03  0.00000000000E+00 0. -1.
          3    1    5    5  503    0 -0.35828014375E+03 -0.56351279532E+03  0.46925254023E+03  0.81615518035E+03  0.00000000000E+00 0. -1.
         -4    1    5    5    0  503 -0.15290360225E+03 -0.17747839263E+03  0.20615389247E+03  0.31205371142E+03  0.00000000000E+00 0.  1.
         -3    1    6    6    0  502 -0.98232311245E+01 -0.92391369699E-01  0.19955513529E+02  0.22242457735E+02  0.00000000000E+00 0.  1.
<mgrwt>
<rscale>  0 0.22587499E+04</rscale>
<asrwt>0</asrwt>
<pdfrwt beam="1">  1        2 0.12236379E+00 0.22587499E+04</pdfrwt>
<pdfrwt beam="2">  1       -2 0.24671563E+00 0.22587499E+04</pdfrwt>
<totfact> 0.21255944E+00</totfact>
</mgrwt>
</event>
<event>
12    1  0.1201209E-007  0.1435772E+04  0.7818608E-02  0.8928324E-01
          2   -1    0    0  501    0  0.00000000000E+00  0.00000000000E+00  0.47120387386E+03  0.47120387386E+03  0.00000000000E+00 0. -1.
         -2   -1    0    0    0  501 -0.00000000000E+00 -0.00000000000E+00 -0.10937096350E+04  0.10937096350E+04  0.00000000000E+00 0.  1.
         23    2    1    2    0    0 -0.18349691206E+03 -0.25893642214E+03  0.10465038046E+03  0.34608331721E+03  0.90015403550E+02 0.  0.
        254    2    1    2    0    0  0.18349691206E+03  0.25893642214E+03 -0.72715614156E+03  0.12188301916E+04  0.92524147890E+03 0.  0.
        -24    2    4    4    0    0  0.33203378294E+02  0.46395714608E+03 -0.81276878702E+03  0.93952282704E+03  0.75837613588E+02 0.  0.
         24    2    4    4    0    0  0.15029353377E+03 -0.20502072394E+03  0.85612645462E+02  0.27930736456E+03  0.77855220101E+02 0.  0.
         11    1    3    3    0    0 -0.27914426036E+02 -0.14230976298E+01  0.16989262462E+02  0.32708950255E+02  0.00000000000E+00 0.  1.
        -11    1    3    3    0    0 -0.15558248603E+03 -0.25751332451E+03  0.87661118002E+02  0.31337436696E+03  0.00000000000E+00 0. -1.
          2    1    6    6  502    0  0.10652548157E+03 -0.16639484238E+03  0.96574142954E+02  0.21991245276E+03  0.00000000000E+00 0. -1.
          3    1    5    5  503    0  0.54302746381E+02  0.37367432985E+03 -0.67553552625E+03  0.77390538199E+03  0.00000000000E+00 0. -1.
         -4    1    5    5    0  503 -0.21099368087E+02  0.90282816229E+02 -0.13723326078E+03  0.16561744505E+03  0.00000000000E+00 0.  1.
         -1    1    6    6    0  502  0.43768052204E+02 -0.38625881561E+02 -0.10961497493E+02  0.59394911797E+02  0.00000000000E+00 0.  1.
<mgrwt>
<rscale>  0 0.14357719E+04</rscale>
<asrwt>0</asrwt>
<pdfrwt beam="1">  1        2 0.72492904E-01 0.14357719E+04</pdfrwt>
<pdfrwt beam="2">  1       -2 0.16826302E+00 0.14357719E+04</pdfrwt>
<totfact> 0.14028218E+01</totfact>
</mgrwt>
</event>
<event>
12    1  0.1201209E-007  0.1418889E+04  0.7818608E-02  0.8940258E-01
          2   -1    0    0  501    0  0.00000000000E+00  0.00000000000E+00  0.16188250228E+04  0.16188250228E+04  0.00000000000E+00 0. -1.
         -2   -1    0    0    0  501 -0.00000000000E+00 -0.00000000000E+00 -0.31091143946E+03  0.31091143946E+03  0.00000000000E+00 0.  1.
         23    2    1    2    0    0 -0.51008672893E+02 -0.15080375322E+03 -0.12789459703E+03  0.22334571374E+03  0.90457853164E+02 0.  0.
        254    2    1    2    0    0  0.51008672893E+02  0.15080375322E+03  0.14358081804E+04  0.17063907486E+04  0.90822937585E+03 0.  0.
        -24    2    4    4    0    0  0.13211378684E+03 -0.33068936332E+03  0.32070953689E+03  0.48641910175E+03  0.83303228108E+02 0.  0.
         24    2    4    4    0    0 -0.81105113949E+02  0.48149311654E+03  0.11150986435E+04  0.12199716468E+04  0.80449819516E+02 0.  0.
         11    1    3    3    0    0  0.11880315749E+02  0.50228269058E+01 -0.19499843702E+02  0.23379790350E+02  0.00000000000E+00 0. -1.
        -11    1    3    3    0    0 -0.62888988642E+02 -0.15582658013E+03 -0.10839475333E+03  0.19996592339E+03  0.00000000000E+00 0.  1.
          4    1    6    6  502    0 -0.38081191925E+01  0.20872647807E+03  0.41215424416E+03  0.46200905338E+03  0.00000000000E+00 0. -1.
          1    1    5    5  503    0  0.80541558217E+01 -0.14561918203E+02 -0.33932339309E+01  0.16983313112E+02  0.00000000000E+00 0. -1.
         -2    1    5    5    0  503  0.12405963102E+03 -0.31612744511E+03  0.32410277082E+03  0.46943578864E+03  0.00000000000E+00 0.  1.
         -3    1    6    6    0  502 -0.77296994756E+02  0.27276663847E+03  0.70294439936E+03  0.75796259344E+03  0.00000000000E+00 0.  1.
<mgrwt>
<rscale>  0 0.14188886E+04</rscale>
<asrwt>0</asrwt>
<pdfrwt beam="1">  1        2 0.24905000E+00 0.14188886E+04</pdfrwt>
<pdfrwt beam="2">  1       -2 0.47832530E-01 0.14188886E+04</pdfrwt>
<totfact> 0.43805496E+01</totfact>
</mgrwt>
</event>
<event>
12    1  0.1201209E-007  0.4233089E+04  0.7818608E-02  0.7959108E-01
         -2   -1    0    0    0  501 -0.00000000000E+00  0.00000000000E+00  0.23161158160E+04  0.23161158160E+04  0.00000000000E+00 0.  1.
          2   -1    0    0  501    0  0.00000000000E+00 -0.00000000000E+00 -0.19341692267E+04  0.19341692267E+04  0.00000000000E+00 0. -1.
         23    2    1    2    0    0  0.33993600409E+03 -0.34258970989E+02 -0.18155452458E+04  0.18496220913E+04  0.90372435683E+02 0.  0.
        254    2    1    2    0    0 -0.33993600409E+03  0.34258970989E+02  0.21974918351E+04  0.24006629513E+04  0.90414715425E+03 0.  0.
        -24    2    4    4    0    0 -0.35800555116E+03  0.18019500822E+03  0.21959076589E+04  0.22336047418E+04  0.79633412822E+02 0.  0.
         24    2    4    4    0    0  0.18069547073E+02 -0.14593603723E+03  0.15841761653E+01  0.16705820950E+03  0.79259701336E+02 0.  0.
         11    1    3    3    0    0  0.17174680563E+02 -0.25000457611E+02 -0.17335785191E+03  0.17599129908E+03  0.00000000000E+00 0.  1.
        -11    1    3    3    0    0  0.32276132353E+03 -0.92585133781E+01 -0.16421873939E+04  0.16736307923E+04  0.00000000000E+00 0. -1.
          2    1    6    6  502    0  0.32958531103E+02 -0.58527745692E+02  0.30534622550E+02  0.73784313797E+02  0.00000000000E+00 0. -1.
          3    1    5    5  503    0 -0.44759878826E+02  0.99531261586E+01  0.14950842716E+03  0.15638184442E+03  0.00000000000E+00 0. -1.
         -4    1    5    5    0  503 -0.31324567234E+03  0.17024188206E+03  0.20463992318E+04  0.20772228974E+04  0.00000000000E+00 0.  1.
         -1    1    6    6    0  502 -0.14888984031E+02 -0.87408291535E+02 -0.28950446385E+02  0.93273895707E+02  0.00000000000E+00 0.  1.
<mgrwt>
<rscale>  0 0.42330887E+04</rscale>
<asrwt>0</asrwt>
<pdfrwt beam="1">  1        2 0.29756450E+00 0.42330887E+04</pdfrwt>
<pdfrwt beam="2">  1       -2 0.35632551E+00 0.42330887E+04</pdfrwt>
<totfact> 0.79838312E-02</totfact>
</mgrwt>
</event>
<event>
12    1  0.1201209E-007  0.2417327E+04  0.7818608E-02  0.8433045E-01
         -2   -1    0    0    0  501 -0.00000000000E+00  0.00000000000E+00  0.11011746415E+04  0.11011746415E+04  0.00000000000E+00 0. -1.
          2   -1    0    0  501    0  0.00000000000E+00 -0.00000000000E+00 -0.13266448889E+04  0.13266448889E+04  0.00000000000E+00 0.  1.
         23    2    1    2    0    0 -0.98386322121E+03  0.20584317342E+03 -0.34191009887E+03  0.10655344513E+04  0.90016115537E+02 0.  0.
        254    2    1    2    0    0  0.98386322121E+03 -0.20584317342E+03  0.11643985140E+03  0.13622850791E+04  0.91208779601E+03 0.  0.
        -24    2    4    4    0    0  0.11332941306E+04 -0.28256526660E+03  0.88227456249E+02  0.11740041860E+04  0.79391613611E+02 0.  0.
         24    2    4    4    0    0 -0.14943090938E+03  0.76722093174E+02  0.28212395147E+02  0.18828089312E+03  0.80236395832E+02 0.  0.
         11    1    3    3    0    0 -0.21030796726E+03  0.45646269709E+02 -0.11300179659E+03  0.24306877435E+03  0.00000000000E+00 0. -1.
        -11    1    3    3    0    0 -0.77355525395E+03  0.16019690371E+03 -0.22890830228E+03  0.82246567693E+03  0.00000000000E+00 0.  1.
          4    1    6    6  502    0 -0.69859885422E+02  0.33210653791E+02 -0.27207443670E+02  0.81997537203E+02  0.00000000000E+00 0. -1.
          3    1    5    5  503    0  0.13906386818E+03 -0.46670203906E+02  0.34904894660E+02  0.15078202492E+03  0.00000000000E+00 0. -1.
         -4    1    5    5    0  503  0.99423026241E+03 -0.23589506269E+03  0.53322561589E+02  0.10232221611E+04  0.00000000000E+00 0.  1.
         -3    1    6    6    0  502 -0.79571023960E+02  0.43511439383E+02  0.55419838818E+02  0.10628335592E+03  0.00000000000E+00 0.  1.
<mgrwt>
<rscale>  0 0.24173272E+04</rscale>
<asrwt>0</asrwt>
<pdfrwt beam="1">  1        2 0.20409921E+00 0.24173272E+04</pdfrwt>
<pdfrwt beam="2">  1       -2 0.16941148E+00 0.24173272E+04</pdfrwt>
<totfact> 0.30827562E+00</totfact>
</mgrwt>
</event>
<event>
12    1  0.1201209E-007  0.2543304E+04  0.7818608E-02  0.8387719E-01
          2   -1    0    0  501    0  0.00000000000E+00  0.00000000000E+00  0.28120744386E+04  0.28120744386E+04  0.00000000000E+00 0. -1.
         -2   -1    0    0    0  501 -0.00000000000E+00 -0.00000000000E+00 -0.57505538768E+03  0.57505538768E+03  0.00000000000E+00 0.  1.
         23    2    1    2    0    0 -0.26622103937E+03 -0.44846316363E+03  0.22895000131E+04  0.23498491135E+04  0.89373908812E+02 0.  0.
        254    2    1    2    0    0  0.26622103937E+03  0.44846316363E+03 -0.52480962134E+02  0.10372807128E+04  0.89510009202E+03 0.  0.
        -24    2    4    4    0    0  0.14873670168E+03  0.68663785578E+03  0.11040332688E+03  0.71554483859E+03  0.78875661838E+02 0.  0.
         24    2    4    4    0    0  0.11748433770E+03 -0.23817469215E+03 -0.16288428901E+03  0.32173587417E+03  0.80330115997E+02 0.  0.
         11    1    3    3    0    0 -0.34487360021E+02 -0.15669292595E+02  0.14399488336E+03  0.14889402663E+03  0.00000000000E+00 0.  1.
        -11    1    3    3    0    0 -0.23173367935E+03 -0.43279387104E+03  0.21455051297E+04  0.22009550869E+04  0.00000000000E+00 0. -1.
          2    1    6    6  502    0  0.99787507435E+02 -0.11388266788E+03 -0.79449883447E+02  0.17099442290E+03  0.00000000000E+00 0. -1.
          1    1    5    5  503    0  0.52869416925E+02  0.39571073491E+03  0.85019600202E+02  0.40817948673E+03  0.00000000000E+00 0. -1.
         -2    1    5    5    0  503  0.95867284751E+02  0.29092712087E+03  0.25383726674E+02  0.30736535186E+03  0.00000000000E+00 0.  1.
         -1    1    6    6    0  502  0.17696830260E+02 -0.12429202427E+03 -0.83434405564E+02  0.15074145127E+03  0.00000000000E+00 0.  1.
<mgrwt>
<rscale>  0 0.25433038E+04</rscale>
<asrwt>0</asrwt>
<pdfrwt beam="1">  1        2 0.43262683E+00 0.25433038E+04</pdfrwt>
<pdfrwt beam="2">  1       -2 0.88470061E-01 0.25433038E+04</pdfrwt>
<totfact> 0.22213454E+00</totfact>
</mgrwt>
</event>
<event>
12    1  0.1201209E-007  0.1448519E+04  0.7818608E-02  0.8919428E-01
         -1   -1    0    0    0  501 -0.00000000000E+00  0.00000000000E+00  0.11036885192E+04  0.11036885192E+04  0.00000000000E+00 0.  1.
          1   -1    0    0  501    0  0.00000000000E+00 -0.00000000000E+00 -0.47527140870E+03  0.47527140870E+03  0.00000000000E+00 0. -1.
         23    2    1    2    0    0 -0.17917276251E+03 -0.41389423014E+02 -0.23610362030E+03  0.31376338126E+03  0.94268641321E+02 0.  0.
        254    2    1    2    0    0  0.17917276251E+03  0.41389423014E+02  0.86452073083E+03  0.12651965467E+04  0.90526805121E+03 0.  0.
        -24    2    4    4    0    0  0.47214188414E+03  0.15471067061E+03  0.22901889772E+03  0.55274580230E+03  0.78898137428E+02 0.  0.
         24    2    4    4    0    0 -0.29296912163E+03 -0.11332124760E+03  0.63550183311E+03  0.71245074438E+03  0.71069486377E+02 0.  0.
         11    1    3    3    0    0 -0.86685712180E+02 -0.51900265962E+02 -0.17607451015E+03  0.20300316112E+03  0.00000000000E+00 0. -1.
        -11    1    3    3    0    0 -0.92487050328E+02  0.10510842948E+02 -0.60029110152E+02  0.11076022013E+03  0.00000000000E+00 0.  1.
          4    1    6    6  502    0 -0.17724609669E+03 -0.10499068904E+03  0.40177808933E+03  0.45151396063E+03  0.00000000000E+00 0. -1.
          3    1    5    5  503    0  0.28267827578E+03  0.11419487236E+03  0.17534798687E+03  0.35170213671E+03  0.00000000000E+00 0. -1.
         -4    1    5    5    0  503  0.18946360836E+03  0.40515798257E+02  0.53670910847E+02  0.20104366559E+03  0.00000000000E+00 0.  1.
         -3    1    6    6    0  502 -0.11572302494E+03 -0.83305585572E+01  0.23372374378E+03  0.26093678375E+03  0.00000000000E+00 0.  1.
<mgrwt>
<rscale>  0 0.14485187E+04</rscale>
<asrwt>0</asrwt>
<pdfrwt beam="1">  1        1 0.73118679E-01 0.14485187E+04</pdfrwt>
<pdfrwt beam="2">  1       -1 0.16979823E+00 0.14485187E+04</pdfrwt>
<totfact> 0.11397719E+01</totfact>
</mgrwt>
</event>
<event>
12    1  0.1201209E-007  0.1155962E+04  0.7818608E-02  0.9152301E-01
          1   -1    0    0  501    0  0.00000000000E+00  0.00000000000E+00  0.26846335195E+03  0.26846335195E+03  0.00000000000E+00 0. -1.
         -1   -1    0    0    0  501 -0.00000000000E+00 -0.00000000000E+00 -0.12443490441E+04  0.12443490441E+04  0.00000000000E+00 0.  1.
         23    2    1    2    0    0  0.49080973470E+02 -0.39760313931E+02 -0.44713198574E+03  0.46096259694E+03  0.92572558504E+02 0.  0.
        254    2    1    2    0    0 -0.49080973470E+02  0.39760313931E+02 -0.52875370644E+03  0.10518497991E+04  0.90709299047E+03 0.  0.
        -24    2    4    4    0    0  0.55383926683E+02 -0.39800108819E+03 -0.93843255176E+02  0.42080586391E+03  0.82454672508E+02 0.  0.
         24    2    4    4    0    0 -0.10446490015E+03  0.43776140212E+03 -0.43491045127E+03  0.63104393524E+03  0.80755105270E+02 0.  0.
         11    1    3    3    0    0  0.70143109176E+02 -0.25493664660E+02 -0.21796984788E+03  0.23039278914E+03  0.00000000000E+00 0. -1.
        -11    1    3    3    0    0 -0.21062135706E+02 -0.14266649271E+02 -0.22916213786E+03  0.23056980780E+03  0.00000000000E+00 0.  1.
          4    1    6    6  502    0 -0.18815607038E+02  0.17375813674E+03 -0.12413157257E+03  0.21437015758E+03  0.00000000000E+00 0. -1.
          1    1    5    5  503    0  0.57702417627E+01 -0.25608554472E+03 -0.86229537357E+02  0.27027510987E+03  0.00000000000E+00 0. -1.
         -2    1    5    5    0  503  0.49613684921E+02 -0.14191554348E+03 -0.76137178192E+01  0.15053075404E+03  0.00000000000E+00 0.  1.
         -3    1    6    6    0  502 -0.85649293115E+02  0.26400326538E+03 -0.31077887870E+03  0.41667377766E+03  0.00000000000E+00 0.  1.
<mgrwt>
<rscale>  0 0.11559621E+04</rscale>
<asrwt>0</asrwt>
<pdfrwt beam="1">  1        1 0.41302054E-01 0.11559621E+04</pdfrwt>
<pdfrwt beam="2">  1       -1 0.19143831E+00 0.11559621E+04</pdfrwt>
<totfact> 0.17375608E+01</totfact>
</mgrwt>
</event>
<event>
12    1  0.1201209E-007  0.1559539E+04  0.7818608E-02  0.8845798E-01
         -1   -1    0    0    0  501 -0.00000000000E+00  0.00000000000E+00  0.38466101705E+03  0.38466101705E+03  0.00000000000E+00 0.  1.
          1   -1    0    0  501    0  0.00000000000E+00 -0.00000000000E+00 -0.15807180033E+04  0.15807180033E+04  0.00000000000E+00 0. -1.
         23    2    1    2    0    0  0.23614218588E+03  0.17654356269E+02 -0.97605719786E+03  0.10085865312E+04  0.92110418742E+02 0.  0.
        254    2    1    2    0    0 -0.23614218588E+03 -0.17654356269E+02 -0.21999978837E+03  0.95679248910E+03  0.90054269864E+03 0.  0.
        -24    2    4    4    0    0  0.26902512083E+03 -0.24264053186E+03 -0.62086607728E+02  0.37620252758E+03  0.80153924160E+02 0.  0.
         24    2    4    4    0    0 -0.50516730670E+03  0.22498617559E+03 -0.15791318064E+03  0.58058996152E+03  0.79594873120E+02 0.  0.
         11    1    3    3    0    0  0.17469554705E+03 -0.23383562474E+02 -0.60061500197E+03  0.62594225432E+03  0.00000000000E+00 0. -1.
        -11    1    3    3    0    0  0.61446638831E+02  0.41037918742E+02 -0.37544219589E+03  0.38264427691E+03  0.00000000000E+00 0.  1.
          4    1    6    6  502    0 -0.45244401179E+03  0.22161918972E+03 -0.15717423125E+03  0.52775409807E+03  0.00000000000E+00 0. -1.
          3    1    5    5  503    0  0.23449713422E+03 -0.23847220917E+03 -0.45039681753E+02  0.33747070012E+03  0.00000000000E+00 0. -1.
         -4    1    5    5    0  503  0.34527986606E+02 -0.41683226885E+01 -0.17046925976E+02  0.38731827459E+02  0.00000000000E+00 0.  1.
         -3    1    6    6    0  502 -0.52723294916E+02  0.33669858715E+01 -0.73894938636E+00  0.52835863453E+02  0.00000000000E+00 0.  1.
<mgrwt>
<rscale>  0 0.15595392E+04</rscale>
<asrwt>0</asrwt>
<pdfrwt beam="1">  1        1 0.24318738E+00 0.15595392E+04</pdfrwt>
<pdfrwt beam="2">  1       -1 0.59178618E-01 0.15595392E+04</pdfrwt>
<totfact> 0.16030506E+01</totfact>
</mgrwt>
</event>
<event>
12    1  0.1201209E-007  0.2860594E+04  0.7818608E-02  0.8284700E-01
          2   -1    0    0  501    0  0.00000000000E+00  0.00000000000E+00  0.18723320079E+04  0.18723320079E+04  0.00000000000E+00 0. -1.
         -2   -1    0    0    0  501 -0.00000000000E+00 -0.00000000000E+00 -0.10926207862E+04  0.10926207862E+04  0.00000000000E+00 0.  1.
         23    2    1    2    0    0  0.35887096808E+03 -0.64757364799E+03 -0.73659164627E+03  0.10481503325E+04  0.88948664597E+02 0.  0.
        254    2    1    2    0    0 -0.35887096808E+03  0.64757364799E+03  0.15163028680E+04  0.19168024616E+04  0.90929493998E+03 0.  0.
        -24    2    4    4    0    0  0.72280070574E+02  0.62444456206E+03  0.49299089927E+03  0.80285606206E+03  0.79889986467E+02 0.  0.
         24    2    4    4    0    0 -0.43115103866E+03  0.23129085939E+02  0.10233119687E+04  0.11139463995E+04  0.85340628630E+02 0.  0.
         13    1    3    3    0    0  0.34176213308E+03 -0.59202428215E+03 -0.64614097613E+03  0.94063397095E+03  0.00000000000E+00 0.  1.
        -13    1    3    3    0    0  0.17108834997E+02 -0.55549365845E+02 -0.90450670141E+02  0.10751636159E+03  0.00000000000E+00 0. -1.
          2    1    6    6  502    0 -0.34856378413E+02 -0.12727567947E+02  0.48641212288E+02  0.61179454351E+02  0.00000000000E+00 0. -1.
          3    1    5    5  503    0  0.33309839324E+02  0.35647525857E+03  0.32928996397E+03  0.48643194358E+03  0.00000000000E+00 0. -1.
         -4    1    5    5    0  503  0.38970231250E+02  0.26796930348E+03  0.16370093531E+03  0.31642411848E+03  0.00000000000E+00 0.  1.
         -1    1    6    6    0  502 -0.39629466024E+03  0.35856653886E+02  0.97467075642E+03  0.10527669451E+04  0.00000000000E+00 0.  1.
<mgrwt>
<rscale>  0 0.28605936E+04</rscale>
<asrwt>0</asrwt>
<pdfrwt beam="1">  1        2 0.28805108E+00 0.28605936E+04</pdfrwt>
<pdfrwt beam="2">  1       -2 0.16809551E+00 0.28605936E+04</pdfrwt>
<totfact> 0.14981554E+00</totfact>
</mgrwt>
</event>
<event>
12    1  0.1201209E-007  0.2231486E+04  0.7818608E-02  0.8505436E-01
         -2   -1    0    0    0  501 -0.00000000000E+00  0.00000000000E+00  0.10848164470E+04  0.10848164470E+04  0.00000000000E+00 0.  1.
          2   -1    0    0  501    0  0.00000000000E+00 -0.00000000000E+00 -0.11475514118E+04  0.11475514118E+04  0.00000000000E+00 0. -1.
         23    2    1    2    0    0  0.61506953463E+03  0.68187689452E+03  0.15021351617E+03  0.93500811989E+03  0.91703064815E+02 0.  0.
        254    2    1    2    0    0 -0.61506953463E+03 -0.68187689452E+03 -0.21294848102E+03  0.12973597389E+04  0.89136334057E+03 0.  0.
        -24    2    4    4    0    0 -0.56681900294E+03 -0.77898605181E+02 -0.34267876208E+03  0.67188037054E+03  0.81501678205E+02 0.  0.
         24    2    4    4    0    0 -0.48250531689E+02 -0.60397828934E+03  0.12973028106E+03  0.62547936839E+03  0.85303028369E+02 0.  0.
         11    1    3    3    0    0  0.77219071933E+02  0.13686423794E+03  0.25009787953E+02  0.15912289022E+03  0.00000000000E+00 0. -1.
        -11    1    3    3    0    0  0.53785046270E+03  0.54501265658E+03  0.12520372822E+03  0.77588522967E+03  0.00000000000E+00 0.  1.
          4    1    6    6  502    0 -0.11995605996E+01 -0.59190785993E+02  0.39751208756E+02  0.71310214483E+02  0.00000000000E+00 0. -1.
          3    1    5    5  503    0 -0.93632482041E+02  0.14319587041E+02 -0.41253735923E+02  0.10331487305E+03  0.00000000000E+00 0. -1.
         -4    1    5    5    0  503 -0.47318652090E+03 -0.92218192222E+02 -0.30142502616E+03  0.56856549749E+03  0.00000000000E+00 0.  1.
         -3    1    6    6    0  502 -0.47050971089E+02 -0.54478750335E+03  0.89979072305E+02  0.55416915390E+03  0.00000000000E+00 0.  1.
<mgrwt>
<rscale>  0 0.22314862E+04</rscale>
<asrwt>0</asrwt>
<pdfrwt beam="1">  1        2 0.17654637E+00 0.22314862E+04</pdfrwt>
<pdfrwt beam="2">  1       -2 0.16689484E+00 0.22314862E+04</pdfrwt>
<totfact> 0.41664548E+00</totfact>
</mgrwt>
</event>
<event>
12    1  0.1201209E-007  0.2292218E+04  0.7818608E-02  0.8480996E-01
          2   -1    0    0  501    0  0.00000000000E+00  0.00000000000E+00  0.32705999341E+04  0.32705999341E+04  0.00000000000E+00 0. -1.
         -2   -1    0    0    0  501 -0.00000000000E+00 -0.00000000000E+00 -0.40162834697E+03  0.40162834697E+03  0.00000000000E+00 0.  1.
         23    2    1    2    0    0  0.45984446407E+03 -0.24927856452E+03 -0.10324056865E+03  0.54094091038E+03  0.91442438933E+02 0.  0.
        254    2    1    2    0    0 -0.45984446407E+03  0.24927856452E+03  0.29722121558E+04  0.31312873707E+04  0.83505614483E+03 0.  0.
        -24    2    4    4    0    0 -0.13593883929E+03  0.47178443797E+03  0.97851433759E+03  0.10976750078E+04  0.79625309458E+02 0.  0.
         24    2    4    4    0    0 -0.32390562478E+03 -0.22250587346E+03  0.19936978182E+04  0.20336123630E+04  0.79526943954E+02 0.  0.
         11    1    3    3    0    0  0.23457548780E+03 -0.17481821497E+03 -0.38993573121E+02  0.29513991006E+03  0.00000000000E+00 0.  1.
        -11    1    3    3    0    0  0.22526897627E+03 -0.74460349549E+02 -0.64246995534E+02  0.24580100032E+03  0.00000000000E+00 0. -1.
          2    1    6    6  502    0 -0.13906023905E+03 -0.84441985552E+02  0.10241727525E+04  0.10370139950E+04  0.00000000000E+00 0. -1.
          1    1    5    5  503    0 -0.15092422463E+02  0.16095763072E+03  0.36979543077E+03  0.40358865287E+03  0.00000000000E+00 0. -1.
         -2    1    5    5    0  503 -0.12084641682E+03  0.31082680725E+03  0.60871890682E+03  0.69408635492E+03  0.00000000000E+00 0.  1.
         -1    1    6    6    0  502 -0.18484538574E+03 -0.13806388791E+03  0.96952506577E+03  0.99659836792E+03  0.00000000000E+00 0.  1.
<mgrwt>
<rscale>  0 0.22922178E+04</rscale>
<asrwt>0</asrwt>
<pdfrwt beam="1">  1        2 0.50316920E+00 0.22922178E+04</pdfrwt>
<pdfrwt beam="2">  1       -2 0.61788978E-01 0.22922178E+04</pdfrwt>
<totfact> 0.25765449E+00</totfact>
</mgrwt>
</event>
<event>
12    1  0.1201209E-007  0.1771229E+04  0.7818608E-02  0.8721751E-01
          1   -1    0    0  501    0  0.00000000000E+00  0.00000000000E+00  0.51653370107E+03  0.51653370107E+03  0.00000000000E+00 0. -1.
         -1   -1    0    0    0  501 -0.00000000000E+00 -0.00000000000E+00 -0.15184165433E+04  0.15184165433E+04  0.00000000000E+00 0.  1.
         23    2    1    2    0    0 -0.81850412457E+02 -0.65364714833E+03 -0.35325755684E+03  0.75460439655E+03  0.10335767651E+03 0.  0.
        254    2    1    2    0    0  0.81850412457E+02  0.65364714833E+03 -0.64862528544E+03  0.12803458479E+04  0.88578589101E+03 0.  0.
        -24    2    4    4    0    0  0.55282890737E+02 -0.17072935610E+03 -0.34639838389E+03  0.39830632551E+03  0.80320467762E+02 0.  0.
         24    2    4    4    0    0  0.26567521720E+02  0.82437650442E+03 -0.30222690155E+03  0.88203952236E+03  0.79687920813E+02 0.  0.
         11    1    3    3    0    0 -0.26916326786E+01 -0.12111315117E+03 -0.23935285882E+02  0.12348497149E+03  0.00000000000E+00 0. -1.
        -11    1    3    3    0    0 -0.79158779778E+02 -0.53253399716E+03 -0.32932227096E+03  0.63111942506E+03  0.00000000000E+00 0.  1.
          2    1    6    6  502    0  0.11994507060E+02  0.42776745371E+03 -0.11441254774E+03  0.44296624446E+03  0.00000000000E+00 0. -1.
          1    1    5    5  503    0  0.72508082233E+02 -0.16090418880E+03 -0.31757804351E+03  0.36332271286E+03  0.00000000000E+00 0. -1.
         -2    1    5    5    0  503 -0.17225191497E+02 -0.98251672987E+01 -0.28820340380E+02  0.34983612652E+02  0.00000000000E+00 0.  1.
         -1    1    6    6    0  502  0.14573014660E+02  0.39660905072E+03 -0.18781435381E+03  0.43907327790E+03  0.00000000000E+00 0.  1.
<mgrwt>
<rscale>  0 0.17712293E+04</rscale>
<asrwt>0</asrwt>
<pdfrwt beam="1">  1        1 0.79466724E-01 0.17712293E+04</pdfrwt>
<pdfrwt beam="2">  1       -1 0.23360254E+00 0.17712293E+04</pdfrwt>
<totfact> 0.35801737E+00</totfact>
</mgrwt>
</event>
<event>
12    1  0.1201209E-007  0.2208331E+04  0.7818608E-02  0.8514969E-01
          2   -1    0    0  501    0  0.00000000000E+00  0.00000000000E+00  0.28463336152E+04  0.28463336152E+04  0.00000000000E+00 0. -1.
         -2   -1    0    0    0  501 -0.00000000000E+00 -0.00000000000E+00 -0.42833382352E+03  0.42833382352E+03  0.00000000000E+00 0.  1.
         23    2    1    2    0    0 -0.41545176093E+03  0.15655311030E+03  0.22029618995E+04  0.22492086735E+04  0.93752251243E+02 0.  0.
        254    2    1    2    0    0  0.41545176093E+03 -0.15655311030E+03  0.21503789218E+03  0.10254587651E+04  0.89900797656E+03 0.  0.
        -24    2    4    4    0    0  0.52211774188E+03  0.11839226734E+03 -0.13778285739E+03  0.55748093715E+03  0.71952860547E+02 0.  0.
         24    2    4    4    0    0 -0.10666598095E+03 -0.27494537764E+03  0.35282074956E+03  0.46797782799E+03  0.86880227859E+02 0.  0.
         11    1    3    3    0    0 -0.31160487227E+03  0.15714453662E+03  0.16349416692E+04  0.16717733888E+04  0.00000000000E+00 0. -1.
        -11    1    3    3    0    0 -0.10384688866E+03 -0.59142631680E+00  0.56802023025E+03  0.57743528472E+03  0.00000000000E+00 0.  1.
          2    1    6    6  502    0  0.14067440300E+02 -0.36879790938E+02  0.59275924674E+02  0.71215497627E+02  0.00000000000E+00 0. -1.
          1    1    5    5  503    0  0.14248021626E+03  0.44381531134E+02 -0.69871738682E+02  0.16477982946E+03  0.00000000000E+00 0. -1.
         -2    1    5    5    0  503  0.37963752562E+03  0.74010736206E+02 -0.67911118704E+02  0.39270110768E+03  0.00000000000E+00 0.  1.
         -1    1    6    6    0  502 -0.12073342125E+03 -0.23806558670E+03  0.29354482489E+03  0.39676233037E+03  0.00000000000E+00 0.  1.
<mgrwt>
<rscale>  0 0.22083306E+04</rscale>
<asrwt>0</asrwt>
<pdfrwt beam="1">  1        2 0.43789747E+00 0.22083306E+04</pdfrwt>
<pdfrwt beam="2">  1       -2 0.65897513E-01 0.22083306E+04</pdfrwt>
<totfact> 0.41988741E+00</totfact>
</mgrwt>
</event>
<event>
12    1  0.1201209E-007  0.3275295E+04  0.7818608E-02  0.8169210E-01
          2   -1    0    0  501    0  0.00000000000E+00  0.00000000000E+00  0.11245936701E+04  0.11245936701E+04  0.00000000000E+00 0. -1.
         -2   -1    0    0    0  501 -0.00000000000E+00 -0.00000000000E+00 -0.23847631914E+04  0.23847631914E+04  0.00000000000E+00 0.  1.
         23    2    1    2    0    0  0.22450751093E+03 -0.14946031270E+04 -0.59986143019E+03  0.16289810476E+04  0.97485323246E+02 0.  0.
        254    2    1    2    0    0 -0.22450751093E+03  0.14946031270E+04 -0.66030809107E+03  0.18803758139E+04  0.90308598509E+03 0.  0.
        -24    2    4    4    0    0 -0.18013612347E+03  0.86598112410E+03 -0.83752472011E+03  0.12207705815E+04  0.80379261600E+02 0.  0.
         24    2    4    4    0    0 -0.44371387456E+02  0.62862200295E+03  0.17721662903E+03  0.65960523234E+03  0.80863380509E+02 0.  0.
         11    1    3    3    0    0  0.18304594380E+02 -0.34778580920E+02 -0.24858944061E+02  0.46503494127E+02  0.00000000000E+00 0. -1.
        -11    1    3    3    0    0  0.20620291655E+03 -0.14598245461E+04 -0.57500248613E+03  0.15824775535E+04  0.00000000000E+00 0.  1.
          4    1    6    6  502    0  0.70756785437E+01  0.22889729740E+03  0.32061234383E+02  0.23124005002E+03  0.00000000000E+00 0. -1.
          3    1    5    5  503    0 -0.13220372657E+03  0.70723741549E+03 -0.71719460735E+03  0.10158891140E+04  0.00000000000E+00 0. -1.
         -4    1    5    5    0  503 -0.47932396898E+02  0.15874370860E+03 -0.12033011276E+03  0.20488146751E+03  0.00000000000E+00 0.  1.
         -1    1    6    6    0  502 -0.51447065999E+02  0.39972470555E+03  0.14515539465E+03  0.42836518232E+03  0.00000000000E+00 0.  1.
<mgrwt>
<rscale>  0 0.32752952E+04</rscale>
<asrwt>0</asrwt>
<pdfrwt beam="1">  1        2 0.17301441E+00 0.32752952E+04</pdfrwt>
<pdfrwt beam="2">  1       -2 0.36688664E+00 0.32752952E+04</pdfrwt>
<totfact> 0.21390141E-01</totfact>
</mgrwt>
</event>
<event>
12    1  0.1201209E-007  0.3421688E+04  0.7818608E-02  0.8132604E-01
          2   -1    0    0  501    0  0.00000000000E+00  0.00000000000E+00  0.21187820428E+04  0.21187820428E+04  0.00000000000E+00 0. -1.
         -2   -1    0    0    0  501 -0.00000000000E+00 -0.00000000000E+00 -0.13814482704E+04  0.13814482704E+04  0.00000000000E+00 0.  1.
         23    2    1    2    0    0  0.19507962458E+03  0.13053538847E+04 -0.56465440260E+03  0.14384537485E+04  0.91157929731E+02 0.  0.
        254    2    1    2    0    0 -0.19507962458E+03 -0.13053538847E+04  0.13019881751E+04  0.20617765647E+04  0.90207791824E+03 0.  0.
        -24    2    4    4    0    0 -0.54427264169E+02 -0.14054996205E+04  0.11358338021E+04  0.18094549151E+04  0.74947672098E+02 0.  0.
         24    2    4    4    0    0 -0.14065236041E+03  0.10014573585E+03  0.16615437299E+03  0.25232164958E+03  0.79035968304E+02 0.  0.
         11    1    3    3    0    0  0.10272587589E+03  0.95939187182E+03 -0.40672060860E+03  0.10470945625E+04  0.00000000000E+00 0. -1.
        -11    1    3    3    0    0  0.92353748688E+02  0.34596201285E+03 -0.15793379400E+03  0.39135918607E+03  0.00000000000E+00 0.  1.
          2    1    6    6  502    0 -0.31573339023E+02 -0.98072509338E+01  0.16494463500E+02  0.36947601196E+02  0.00000000000E+00 0. -1.
          3    1    5    5  503    0 -0.10433224314E+02 -0.27576707760E+03  0.26209136356E+03  0.38058930110E+03  0.00000000000E+00 0. -1.
         -4    1    5    5    0  503 -0.43994039856E+02 -0.11297325429E+04  0.87374243851E+03  0.14288656140E+04  0.00000000000E+00 0.  1.
         -1    1    6    6    0  502 -0.10907902138E+03  0.10995298678E+03  0.14965990949E+03  0.21537404838E+03  0.00000000000E+00 0.  1.
<mgrwt>
<rscale>  0 0.34216883E+04</rscale>
<asrwt>0</asrwt>
<pdfrwt beam="1">  1        2 0.32596647E+00 0.34216883E+04</pdfrwt>
<pdfrwt beam="2">  1       -2 0.21253050E+00 0.34216883E+04</pdfrwt>
<totfact> 0.52316359E-01</totfact>
</mgrwt>
</event>
<event>
12    1  0.1201209E-007  0.1509806E+04  0.7818608E-02  0.8877958E-01
         -2   -1    0    0    0  501 -0.00000000000E+00  0.00000000000E+00  0.69980814867E+03  0.69980814867E+03  0.00000000000E+00 0.  1.
          2   -1    0    0  501    0  0.00000000000E+00 -0.00000000000E+00 -0.81433548406E+03  0.81433548406E+03  0.00000000000E+00 0. -1.
         23    2    1    2    0    0 -0.29508518796E+03  0.33915342653E+03 -0.20592073490E+03  0.50276185350E+03  0.90916540837E+02 0.  0.
        254    2    1    2    0    0  0.29508518796E+03 -0.33915342653E+03  0.91393399514E+02  0.10113817792E+04  0.90135455565E+03 0.  0.
        -24    2    4    4    0    0 -0.27359558154E+03 -0.69502916603E+02 -0.15460884416E+03  0.33088033366E+03  0.76763942421E+02 0.  0.
         24    2    4    4    0    0  0.56868076950E+03 -0.26965050993E+03  0.24600224367E+03  0.68050144556E+03  0.80348605574E+02 0.  0.
         13    1    3    3    0    0 -0.17192420481E+03  0.19025653949E+03 -0.16593891009E+03  0.30543608971E+03  0.00000000000E+00 0.  1.
        -13    1    3    3    0    0 -0.12316098315E+03  0.14889688704E+03 -0.39981824813E+02  0.19732576379E+03  0.00000000000E+00 0. -1.
          4    1    6    6  502    0  0.68922460270E+02 -0.82919174964E+01  0.39760267785E+02  0.79999626998E+02  0.00000000000E+00 0. -1.
          1    1    5    5  503    0 -0.11887727733E+02  0.10667265202E+02 -0.20762083574E+02  0.26194898967E+02  0.00000000000E+00 0. -1.
         -2    1    5    5    0  503 -0.26170785381E+03 -0.80170181804E+02 -0.13384676059E+03  0.30468543469E+03  0.00000000000E+00 0.  1.
         -3    1    6    6    0  502  0.49975830923E+03 -0.26135859243E+03  0.20624197589E+03  0.60050181856E+03  0.00000000000E+00 0.  1.
<mgrwt>
<rscale>  0 0.15098061E+04</rscale>
<asrwt>0</asrwt>
<pdfrwt beam="1">  1        2 0.12528238E+00 0.15098061E+04</pdfrwt>
<pdfrwt beam="2">  1       -2 0.10766279E+00 0.15098061E+04</pdfrwt>
<totfact> 0.22478178E+01</totfact>
</mgrwt>
</event>
<event>
12    1  0.1201209E-007  0.1984993E+04  0.7818608E-02  0.8613669E-01
         -4   -1    0    0    0  501 -0.00000000000E+00  0.00000000000E+00  0.54697142494E+03  0.54697142494E+03  0.00000000000E+00 0.  1.
          4   -1    0    0  501    0  0.00000000000E+00 -0.00000000000E+00 -0.18009150551E+04  0.18009150551E+04  0.00000000000E+00 0. -1.
         23    2    1    2    0    0  0.27662031620E+03 -0.28977236457E+03  0.29946349367E+03  0.50902033024E+03  0.94533009852E+02 0.  0.
        254    2    1    2    0    0 -0.27662031620E+03  0.28977236457E+03 -0.15534071238E+04  0.18388661498E+04  0.89881488745E+03 0.  0.
        -24    2    4    4    0    0  0.28650629688E+03 -0.23537970878E+02 -0.28221238276E+03  0.41148615921E+03  0.83887639215E+02 0.  0.
         24    2    4    4    0    0 -0.56312661308E+03  0.31331033545E+03 -0.12711947411E+04  0.14273799906E+04  0.78756708525E+02 0.  0.
         11    1    3    3    0    0  0.25317360886E+03 -0.25729880842E+03  0.29938318858E+03  0.46896678629E+03  0.00000000000E+00 0.  1.
        -11    1    3    3    0    0  0.23446707344E+02 -0.32473556145E+02  0.80305090394E-01  0.40053543949E+02  0.00000000000E+00 0. -1.
          4    1    6    6  502    0 -0.51136809189E+03  0.27690389309E+03 -0.11895286427E+04  0.13240662684E+04  0.00000000000E+00 0. -1.
          1    1    5    5  503    0  0.25766104429E+03 -0.45785980918E+02 -0.23399169796E+03  0.35105225325E+03  0.00000000000E+00 0. -1.
         -2    1    5    5    0  503  0.28845252591E+02  0.22248010040E+02 -0.48220684802E+02  0.60433905968E+02  0.00000000000E+00 0.  1.
         -3    1    6    6    0  502 -0.51758521198E+02  0.36406442359E+02 -0.81666098391E+02  0.10331372217E+03  0.00000000000E+00 0.  1.
<mgrwt>
<rscale>  0 0.19849928E+04</rscale>
<asrwt>0</asrwt>
<pdfrwt beam="1">  1        4 0.27706385E+00 0.19849928E+04</pdfrwt>
<pdfrwt beam="2">  1       -4 0.84149450E-01 0.19849928E+04</pdfrwt>
<totfact> 0.98783707E-02</totfact>
</mgrwt>
</event>
<event>
12    1  0.1201209E-007  0.1863530E+04  0.7818608E-02  0.8673226E-01
         -2   -1    0    0    0  501 -0.00000000000E+00  0.00000000000E+00  0.43202613296E+03  0.43202613296E+03  0.00000000000E+00 0. -1.
          2   -1    0    0  501    0  0.00000000000E+00 -0.00000000000E+00 -0.20095673186E+04  0.20095673186E+04  0.00000000000E+00 0.  1.
         23    2    1    2    0    0 -0.12821775292E+03 -0.68256417009E+03 -0.41658258369E+03  0.81584349274E+03  0.98620064657E+02 0.  0.
        254    2    1    2    0    0  0.12821775292E+03  0.68256417009E+03 -0.11609586019E+04  0.16257499588E+04  0.90161211986E+03 0.  0.
        -24    2    4    4    0    0 -0.34388102677E+03  0.44819105770E+03 -0.79713923007E+03  0.98041935828E+03  0.81619735358E+02 0.  0.
         24    2    4    4    0    0  0.47209877970E+03  0.23437311239E+03 -0.36381937187E+03  0.64533060052E+03  0.79240362312E+02 0.  0.
         13    1    3    3    0    0 -0.51690775647E+02 -0.42752008873E+03 -0.30191216541E+03  0.52592425137E+03  0.00000000000E+00 0. -1.
        -13    1    3    3    0    0 -0.76526977276E+02 -0.25504408136E+03 -0.11467041828E+03  0.28991924137E+03  0.00000000000E+00 0.  1.
          4    1    6    6  502    0  0.15559860937E+03  0.60812761290E+02 -0.75386727148E+02  0.18328196257E+03  0.00000000000E+00 0. -1.
          1    1    5    5  503    0 -0.39668804938E+02  0.44605692787E+02 -0.13357866381E+03  0.14630974451E+03  0.00000000000E+00 0. -1.
         -2    1    5    5    0  503 -0.30421222183E+03  0.40358536492E+03 -0.66356056626E+03  0.83410961377E+03  0.00000000000E+00 0.  1.
         -3    1    6    6    0  502  0.31650017032E+03  0.17356035110E+03 -0.28843264472E+03  0.46204863795E+03  0.00000000000E+00 0.  1.
<mgrwt>
<rscale>  0 0.18635296E+04</rscale>
<asrwt>0</asrwt>
<pdfrwt beam="1">  1        2 0.30916420E+00 0.18635296E+04</pdfrwt>
<pdfrwt beam="2">  1       -2 0.66465559E-01 0.18635296E+04</pdfrwt>
<totfact> 0.12897455E+01</totfact>
</mgrwt>
</event>
<event>
12    1  0.1201209E-007  0.1484000E+04  0.7818608E-02  0.8895163E-01
          2   -1    0    0  501    0  0.00000000000E+00  0.00000000000E+00  0.23283862569E+04  0.23283862569E+04  0.00000000000E+00 0. -1.
         -2   -1    0    0    0  501 -0.00000000000E+00 -0.00000000000E+00 -0.23645742473E+03  0.23645742473E+03  0.00000000000E+00 0.  1.
         23    2    1    2    0    0  0.11948281530E+03  0.41877759240E+03  0.92299650664E+03  0.10246539057E+04  0.91335973929E+02 0.  0.
        254    2    1    2    0    0 -0.11948281530E+03 -0.41877759240E+03  0.11689323255E+04  0.15401897760E+04  0.90339966195E+03 0.  0.
        -24    2    4    4    0    0  0.32633141028E+03 -0.10218687934E+03  0.15516097921E+03  0.38526413461E+03  0.86134640558E+02 0.  0.
         24    2    4    4    0    0 -0.44581422558E+03 -0.31659071307E+03  0.10137713463E+04  0.11549256413E+04  0.84503793183E+02 0.  0.
         11    1    3    3    0    0 -0.13461865790E+02  0.19078646007E+02  0.58740283562E+02  0.63211055022E+02  0.00000000000E+00 0.  1.
        -11    1    3    3    0    0  0.13294468109E+03  0.39969894640E+03  0.86425622308E+03  0.96144285067E+03  0.00000000000E+00 0. -1.
          2    1    6    6  502    0 -0.31497343533E+03 -0.17973135365E+03  0.70280230543E+03  0.79084935668E+03  0.00000000000E+00 0. -1.
          1    1    5    5  503    0  0.25060598172E+03 -0.99176799183E+02  0.86654962923E+02  0.28310506561E+03  0.00000000000E+00 0. -1.
         -2    1    5    5    0  503  0.75725428555E+02 -0.30100801550E+01  0.68506016290E+02  0.10215906901E+03  0.00000000000E+00 0.  1.
         -1    1    6    6    0  502 -0.13084079025E+03 -0.13685935942E+03  0.31096904090E+03  0.36407628466E+03  0.00000000000E+00 0.  1.
<mgrwt>
<rscale>  0 0.14840003E+04</rscale>
<asrwt>0</asrwt>
<pdfrwt beam="1">  1        2 0.35821325E+00 0.14840003E+04</pdfrwt>
<pdfrwt beam="2">  1       -2 0.36378067E-01 0.14840003E+04</pdfrwt>
<totfact> 0.30110406E+01</totfact>
</mgrwt>
</event>
<event>
12    1  0.1201209E-007  0.1335396E+04  0.7818608E-02  0.9001957E-01
          1   -1    0    0  501    0  0.00000000000E+00  0.00000000000E+00  0.17644238953E+04  0.17644238953E+04  0.00000000000E+00 0. -1.
         -1   -1    0    0    0  501 -0.00000000000E+00 -0.00000000000E+00 -0.25267208765E+03  0.25267208765E+03  0.00000000000E+00 0.  1.
         23    2    1    2    0    0 -0.56995178996E+02 -0.32654210675E+03  0.21472822540E+03  0.40500148728E+03  0.89664909563E+02 0.  0.
        254    2    1    2    0    0  0.56995178996E+02  0.32654210675E+03  0.12970235823E+04  0.16120944957E+04  0.89816495821E+03 0.  0.
        -24    2    4    4    0    0 -0.39675305828E+03  0.25687984903E+03  0.78466738703E+03  0.91975798135E+03  0.82774331163E+02 0.  0.
         24    2    4    4    0    0  0.45374823727E+03  0.69662257714E+02  0.51235619526E+03  0.69233651435E+03  0.77978749100E+02 0.  0.
         13    1    3    3    0    0 -0.34619155323E+02 -0.40587741457E+02  0.14770571890E+02  0.55353594877E+02  0.00000000000E+00 0. -1.
        -13    1    3    3    0    0 -0.22376023674E+02 -0.28595436529E+03  0.19995765351E+03  0.34964789240E+03  0.00000000000E+00 0.  1.
          2    1    6    6  502    0  0.42529430696E+03  0.51768601525E+02  0.44895911139E+03  0.62057998625E+03  0.00000000000E+00 0. -1.
          1    1    5    5  503    0 -0.34025698713E+03  0.21887891068E+03  0.71984714159E+03  0.82574978176E+03  0.00000000000E+00 0. -1.
         -2    1    5    5    0  503 -0.56496071142E+02  0.38000938353E+02  0.64820245446E+02  0.94008199588E+02  0.00000000000E+00 0.  1.
         -3    1    6    6    0  502  0.28453930307E+02  0.17893656189E+02  0.63397083872E+02  0.71756528101E+02  0.00000000000E+00 0.  1.
<mgrwt>
<rscale>  0 0.13353961E+04</rscale>
<asrwt>0</asrwt>
<pdfrwt beam="1">  1        1 0.27144982E+00 0.13353961E+04</pdfrwt>
<pdfrwt beam="2">  1       -1 0.38872630E-01 0.13353961E+04</pdfrwt>
<totfact> 0.27098858E+01</totfact>
</mgrwt>
</event>
<event>
12    1  0.1201209E-007  0.1749810E+04  0.7818608E-02  0.8733455E-01
          1   -1    0    0  501    0  0.00000000000E+00  0.00000000000E+00  0.18867783997E+04  0.18867783997E+04  0.00000000000E+00 0. -1.
         -1   -1    0    0    0  501 -0.00000000000E+00 -0.00000000000E+00 -0.40569601886E+03  0.40569601886E+03  0.00000000000E+00 0.  1.
         23    2    1    2    0    0  0.71363421981E+02 -0.46072458594E+03  0.11320768999E+04  0.12285418732E+04  0.10177005927E+03 0.  0.
        254    2    1    2    0    0 -0.71363421981E+02  0.46072458594E+03  0.34900548096E+03  0.10639325453E+04  0.89038629437E+03 0.  0.
        -24    2    4    4    0    0  0.18888934132E+03 -0.17074499160E+03  0.25610046205E+03  0.37002472512E+03  0.80609026272E+02 0.  0.
         24    2    4    4    0    0 -0.26025276330E+03  0.63146957753E+03  0.92905018908E+02  0.69390782022E+03  0.79946183552E+02 0.  0.
         13    1    3    3    0    0  0.35399536229E+02 -0.10533342099E+03  0.38055642964E+03  0.39644855011E+03  0.00000000000E+00 0.  1.
        -13    1    3    3    0    0  0.35963885752E+02 -0.35539116494E+03  0.75152047025E+03  0.83209332314E+03  0.00000000000E+00 0. -1.
          4    1    6    6  502    0 -0.22825091784E+03  0.52781031508E+03  0.10565228918E+03  0.58467479543E+03  0.00000000000E+00 0. -1.
          1    1    5    5  503    0  0.60063308209E+02 -0.71198512214E+02  0.45035652056E+02  0.10346515882E+03  0.00000000000E+00 0. -1.
         -2    1    5    5    0  503  0.12882603311E+03 -0.99546479385E+02  0.21106480999E+03  0.26655956629E+03  0.00000000000E+00 0.  1.
         -3    1    6    6    0  502 -0.32001845458E+02  0.10365926245E+03 -0.12747270272E+02  0.10923302478E+03  0.00000000000E+00 0.  1.
<mgrwt>
<rscale>  0 0.17498097E+04</rscale>
<asrwt>0</asrwt>
<pdfrwt beam="1">  1        1 0.29027359E+00 0.17498097E+04</pdfrwt>
<pdfrwt beam="2">  1       -1 0.62414773E-01 0.17498097E+04</pdfrwt>
<totfact> 0.87765073E+00</totfact>
</mgrwt>
</event>
<event>
12    1  0.1201209E-007  0.1274571E+04  0.7818608E-02  0.9049977E-01
         -2   -1    0    0    0  501 -0.00000000000E+00  0.00000000000E+00  0.55354534341E+03  0.55354534341E+03  0.00000000000E+00 0. -1.
          2   -1    0    0  501    0  0.00000000000E+00 -0.00000000000E+00 -0.73369357098E+03  0.73369357098E+03  0.00000000000E+00 0.  1.
         23    2    1    2    0    0  0.21815114663E+03 -0.29712392257E+02 -0.26642262678E+03  0.35766348372E+03  0.92029356707E+02 0.  0.
        254    2    1    2    0    0 -0.21815114663E+03  0.29712392257E+02  0.86274399209E+02  0.92957543066E+03  0.89899636279E+03 0.  0.
        -24    2    4    4    0    0  0.14592706837E+03 -0.58034806478E+02 -0.32368818614E+03  0.36860588602E+03  0.80209159773E+02 0.  0.
         24    2    4    4    0    0 -0.36407821500E+03  0.87747198736E+02  0.40996258535E+03  0.56096954465E+03  0.79780894401E+02 0.  0.
         13    1    3    3    0    0  0.95295457318E+01 -0.22146889131E+02 -0.57350560094E+02  0.62212407791E+02  0.00000000000E+00 0. -1.
        -13    1    3    3    0    0  0.20862160089E+03 -0.75655031262E+01 -0.20907206669E+03  0.29545107593E+03  0.00000000000E+00 0.  1.
          2    1    6    6  502    0 -0.32073811632E+03  0.57128701878E+02  0.37801082450E+03  0.49902786623E+03  0.00000000000E+00 0. -1.
          1    1    5    5  503    0  0.46134364302E+02 -0.49738825120E+02 -0.18874702583E+03  0.20056861682E+03  0.00000000000E+00 0. -1.
         -2    1    5    5    0  503  0.99792704069E+02 -0.82959813581E+01 -0.13494116031E+03  0.16803726919E+03  0.00000000000E+00 0.  1.
         -1    1    6    6    0  502 -0.43340098678E+02  0.30618496857E+02  0.31951760855E+02  0.61941678416E+02  0.00000000000E+00 0.  1.
<mgrwt>
<rscale>  0 0.12745708E+04</rscale>
<asrwt>0</asrwt>
<pdfrwt beam="1">  1        2 0.11287593E+00 0.12745708E+04</pdfrwt>
<pdfrwt beam="2">  1       -2 0.85160822E-01 0.12745708E+04</pdfrwt>
<totfact> 0.45468971E+01</totfact>
</mgrwt>
</event>
<event>
12    1  0.1201209E-007  0.1238341E+04  0.7818608E-02  0.9079943E-01
          1   -1    0    0  501    0  0.00000000000E+00  0.00000000000E+00  0.49800862646E+03  0.49800862646E+03  0.00000000000E+00 0. -1.
         -1   -1    0    0    0  501 -0.00000000000E+00 -0.00000000000E+00 -0.76981050759E+03  0.76981050759E+03  0.00000000000E+00 0.  1.
         23    2    1    2    0    0 -0.16665983435E+03 -0.31924351684E+02 -0.34600021630E+03  0.39703833253E+03  0.95543828718E+02 0.  0.
        254    2    1    2    0    0  0.16665983435E+03  0.31924351684E+02  0.74198335167E+02  0.87078080152E+03  0.85085788868E+03 0.  0.
        -24    2    4    4    0    0  0.54816336281E+02  0.14270746322E+03  0.43561200311E+03  0.46861255936E+03  0.80434213836E+02 0.  0.
         24    2    4    4    0    0  0.11184349807E+03 -0.11078311153E+03 -0.36141366794E+03  0.40216824216E+03  0.79608980406E+02 0.  0.
         11    1    3    3    0    0 -0.12952148800E+03 -0.41223143147E+02 -0.32735980064E+03  0.35445677093E+03  0.00000000000E+00 0.  1.
        -11    1    3    3    0    0 -0.37138346352E+02  0.92987914631E+01 -0.18640415656E+02  0.42581561599E+02  0.00000000000E+00 0. -1.
          2    1    6    6  502    0  0.10286840279E+03 -0.57631627484E+02 -0.20209895361E+03  0.23398140915E+03  0.00000000000E+00 0. -1.
          3    1    5    5  503    0 -0.20093302315E+02  0.20264922937E+02  0.88686122382E+02  0.93164565167E+02  0.00000000000E+00 0. -1.
         -4    1    5    5    0  503  0.74909638596E+02  0.12244254028E+03  0.34692588073E+03  0.37544799419E+03  0.00000000000E+00 0.  1.
         -1    1    6    6    0  502  0.89750952757E+01 -0.53151484049E+02 -0.15931471434E+03  0.16818683301E+03  0.00000000000E+00 0.  1.
<mgrwt>
<rscale>  0 0.12383413E+04</rscale>
<asrwt>0</asrwt>
<pdfrwt beam="1">  1        1 0.76616712E-01 0.12383413E+04</pdfrwt>
<pdfrwt beam="2">  1       -1 0.11843239E+00 0.12383413E+04</pdfrwt>
<totfact> 0.28134558E+01</totfact>
</mgrwt>
</event>
<event>
12    1  0.1201209E-007  0.1961133E+04  0.7818608E-02  0.8625011E-01
          2   -1    0    0  501    0  0.00000000000E+00  0.00000000000E+00  0.66814848790E+03  0.66814848790E+03  0.00000000000E+00 0. -1.
         -2   -1    0    0    0  501 -0.00000000000E+00 -0.00000000000E+00 -0.14390668064E+04  0.14390668064E+04  0.00000000000E+00 0.  1.
         23    2    1    2    0    0 -0.39864503113E+03 -0.23970966457E+03 -0.96069072668E+03  0.10714992240E+04  0.93836723250E+02 0.  0.
        254    2    1    2    0    0  0.39864503113E+03  0.23970966457E+03  0.18977240817E+03  0.10357160703E+04  0.90571277301E+03 0.  0.
        -24    2    4    4    0    0  0.32850032190E+03  0.36949073202E+03  0.48442159114E+03  0.69683170132E+03  0.80462907465E+02 0.  0.
         24    2    4    4    0    0  0.70144709234E+02 -0.12978106744E+03 -0.29464918297E+03  0.33888436896E+03  0.79126915782E+02 0.  0.
         13    1    3    3    0    0 -0.12951092515E+03 -0.83720931831E+02 -0.42400420232E+03  0.45117827712E+03  0.00000000000E+00 0. -1.
        -13    1    3    3    0    0 -0.26913410598E+03 -0.15598873274E+03 -0.53668652436E+03  0.62032094691E+03  0.00000000000E+00 0.  1.
          2    1    6    6  502    0  0.77204171951E+02 -0.88814972814E+02 -0.25757215994E+03  0.28318192234E+03  0.00000000000E+00 0. -1.
          3    1    5    5  503    0  0.42710393900E+02  0.16490810711E+02  0.57454484913E+02  0.73465246352E+02  0.00000000000E+00 0. -1.
         -4    1    5    5    0  503  0.28578992800E+03  0.35299992131E+03  0.42696710622E+03  0.62336645497E+03  0.00000000000E+00 0.  1.
         -1    1    6    6    0  502 -0.70594627165E+01 -0.40966094629E+02 -0.37077023026E+02  0.55702446620E+02  0.00000000000E+00 0.  1.
<mgrwt>
<rscale>  0 0.19611326E+04</rscale>
<asrwt>0</asrwt>
<pdfrwt beam="1">  1        2 0.10279207E+00 0.19611326E+04</pdfrwt>
<pdfrwt beam="2">  1       -2 0.22139489E+00 0.19611326E+04</pdfrwt>
<totfact> 0.39192710E+00</totfact>
</mgrwt>
</event>
<event>
12    1  0.1201209E-007  0.2034427E+04  0.7818608E-02  0.8590692E-01
         -2   -1    0    0    0  501 -0.00000000000E+00  0.00000000000E+00  0.94648338474E+03  0.94648338474E+03  0.00000000000E+00 0. -1.
          2   -1    0    0  501    0  0.00000000000E+00 -0.00000000000E+00 -0.10932291564E+04  0.10932291564E+04  0.00000000000E+00 0.  1.
         23    2    1    2    0    0 -0.21401030518E+03  0.43215041341E+03 -0.71470514744E+03  0.86700558650E+03  0.91328247081E+02 0.  0.
        254    2    1    2    0    0  0.21401030518E+03 -0.43215041341E+03  0.56795937579E+03  0.11727069546E+04  0.90559889485E+03 0.  0.
        -24    2    4    4    0    0  0.16476623366E+03  0.60487642686E+02  0.63792597429E+03  0.66636357069E+03  0.79272902005E+02 0.  0.
         24    2    4    4    0    0  0.49244071524E+02 -0.49263805610E+03 -0.69966598503E+02  0.50634338394E+03  0.79818949281E+02 0.  0.
         11    1    3    3    0    0 -0.21064615993E+03  0.38915684270E+03 -0.60857469093E+03  0.75244800973E+03  0.00000000000E+00 0.  1.
        -11    1    3    3    0    0 -0.33641452519E+01  0.42993570707E+02 -0.10613045651E+03  0.11455757677E+03  0.00000000000E+00 0. -1.
          2    1    6    6  502    0  0.56744380925E+02 -0.42912597331E+03 -0.37125601831E+02  0.43445061405E+03  0.00000000000E+00 0. -1.
          3    1    5    5  503    0  0.12724478535E+03  0.16964460224E+02  0.51360242557E+03  0.52940200213E+03  0.00000000000E+00 0. -1.
         -2    1    5    5    0  503  0.37521448301E+02  0.43523182462E+02  0.12432354872E+03  0.13696156856E+03  0.00000000000E+00 0.  1.
         -1    1    6    6    0  502 -0.75003094015E+01 -0.63512082785E+02 -0.32840996672E+02  0.71892769895E+02  0.00000000000E+00 0.  1.
<mgrwt>
<rscale>  0 0.20344269E+04</rscale>
<asrwt>0</asrwt>
<pdfrwt beam="1">  1        2 0.16818910E+00 0.20344269E+04</pdfrwt>
<pdfrwt beam="2">  1       -2 0.14561283E+00 0.20344269E+04</pdfrwt>
<totfact> 0.66044909E+00</totfact>
</mgrwt>
</event>
<event>
12    1  0.1201209E-007  0.1280356E+04  0.7818608E-02  0.9045290E-01
          2   -1    0    0  501    0  0.00000000000E+00  0.00000000000E+00  0.28221661053E+04  0.28221661053E+04  0.00000000000E+00 0. -1.
         -2   -1    0    0    0  501 -0.00000000000E+00 -0.00000000000E+00 -0.14521753017E+03  0.14521753017E+03  0.00000000000E+00 0.  1.
         23    2    1    2    0    0  0.19281963469E+02 -0.13116843181E+03  0.13866723893E+04  0.13961104829E+04  0.93205223293E+02 0.  0.
        254    2    1    2    0    0 -0.19281963469E+02  0.13116843181E+03  0.12902761858E+04  0.15712731525E+04  0.88685383946E+03 0.  0.
        -24    2    4    4    0    0 -0.43297287589E+03 -0.16109229140E+02  0.51564933750E+03  0.67733861392E+03  0.71891168592E+02 0.  0.
         24    2    4    4    0    0  0.41369091242E+03  0.14727766095E+03  0.77462684829E+03  0.89393453859E+03  0.79002055387E+02 0.  0.
         11    1    3    3    0    0  0.14105243919E+02 -0.16282437976E+02  0.66361882174E+03  0.66396838499E+03  0.00000000000E+00 0. -1.
        -11    1    3    3    0    0  0.51767195503E+01 -0.11488599383E+03  0.72305356754E+03  0.73214209791E+03  0.00000000000E+00 0.  1.
          4    1    6    6  502    0  0.29645880220E+03  0.12183192136E+03  0.49558857252E+03  0.59020239890E+03  0.00000000000E+00 0. -1.
          3    1    5    5  503    0 -0.37917563121E+03 -0.35296074760E+02  0.42994015015E+03  0.57434180146E+03  0.00000000000E+00 0. -1.
         -4    1    5    5    0  503 -0.53797244685E+02  0.19186845620E+02  0.85709187348E+02  0.10299681246E+03  0.00000000000E+00 0.  1.
         -3    1    6    6    0  502  0.11723211023E+03  0.25445739586E+02  0.27903827578E+03  0.30373213969E+03  0.00000000000E+00 0.  1.
<mgrwt>
<rscale>  0 0.12803562E+04</rscale>
<asrwt>0</asrwt>
<pdfrwt beam="1">  1        2 0.43417936E+00 0.12803562E+04</pdfrwt>
<pdfrwt beam="2">  1       -2 0.22341161E-01 0.12803562E+04</pdfrwt>
<totfact> 0.39009127E+01</totfact>
</mgrwt>
</event>
<event>
12    1  0.1201209E-007  0.1208045E+04  0.7818608E-02  0.9105843E-01
          1   -1    0    0  501    0  0.00000000000E+00  0.00000000000E+00  0.23228429677E+04  0.23228429677E+04  0.00000000000E+00 0. -1.
         -1   -1    0    0    0  501 -0.00000000000E+00 -0.00000000000E+00 -0.15706764471E+03  0.15706764471E+03  0.00000000000E+00 0.  1.
         23    2    1    2    0    0  0.83982601821E+02  0.20334037024E+03  0.77903667252E+03  0.81482328516E+03  0.92943344693E+02 0.  0.
        254    2    1    2    0    0 -0.83982601821E+02 -0.20334037024E+03  0.13867386505E+04  0.16650873273E+04  0.89502588742E+03 0.  0.
        -24    2    4    4    0    0  0.95193008318E+02 -0.47956489319E+03  0.45264174168E+03  0.67136176055E+03  0.82449206223E+02 0.  0.
         24    2    4    4    0    0 -0.17917561014E+03  0.27622452295E+03  0.93409690881E+03  0.99372556674E+03  0.80929479086E+02 0.  0.
         11    1    3    3    0    0  0.14816541814E+02  0.15424598284E+02  0.18218696181E+02  0.28095712023E+02  0.00000000000E+00 0.  1.
        -11    1    3    3    0    0  0.69166060007E+02  0.18791577195E+03  0.76081797634E+03  0.78672757313E+03  0.00000000000E+00 0. -1.
          2    1    6    6  502    0 -0.13266395920E+03  0.16563224759E+03  0.49583405470E+03  0.53933772102E+03  0.00000000000E+00 0. -1.
          1    1    5    5  503    0  0.13912326708E+02 -0.19236871170E+03  0.22252756904E+03  0.29447884994E+03  0.00000000000E+00 0. -1.
         -2    1    5    5    0  503  0.81280681610E+02 -0.28719618149E+03  0.23011417264E+03  0.37688291062E+03  0.00000000000E+00 0.  1.
         -1    1    6    6    0  502 -0.46511650938E+02  0.11059227537E+03  0.43826285411E+03  0.45438784572E+03  0.00000000000E+00 0.  1.
<mgrwt>
<rscale>  0 0.12080455E+04</rscale>
<asrwt>0</asrwt>
<pdfrwt beam="1">  1        1 0.35736043E+00 0.12080455E+04</pdfrwt>
<pdfrwt beam="2">  1       -1 0.24164255E-01 0.12080455E+04</pdfrwt>
<totfact> 0.26482333E+01</totfact>
</mgrwt>
</event>
<event>
12    1  0.1201209E-007  0.1884310E+04  0.7818608E-02  0.8662706E-01
          2   -1    0    0  501    0  0.00000000000E+00  0.00000000000E+00  0.53512925828E+03  0.53512925828E+03  0.00000000000E+00 0. -1.
         -2   -1    0    0    0  501 -0.00000000000E+00 -0.00000000000E+00 -0.16587696996E+04  0.16587696996E+04  0.00000000000E+00 0.  1.
         23    2    1    2    0    0 -0.49677192832E+03  0.98834276351E+02 -0.10330768258E+04  0.11541783740E+04  0.91265700085E+02 0.  0.
        254    2    1    2    0    0  0.49677192832E+03 -0.98834276351E+02 -0.90563615587E+02  0.10397205840E+04  0.90347471536E+03 0.  0.
        -24    2    4    4    0    0 -0.81750409345E+02 -0.11139363041E+03 -0.36156752840E+03  0.39561344527E+03  0.81775608606E+02 0.  0.
         24    2    4    4    0    0  0.57852233766E+03  0.12559354059E+02  0.27100391281E+03  0.64410713870E+03  0.81148338298E+02 0.  0.
         13    1    3    3    0    0 -0.41288387264E+03  0.57606243207E+02 -0.78043279163E+03  0.88479766828E+03  0.00000000000E+00 0.  1.
        -13    1    3    3    0    0 -0.83888055680E+02  0.41228033144E+02 -0.25264403415E+03  0.26938070568E+03  0.00000000000E+00 0. -1.
          4    1    6    6  502    0  0.40505885297E+02  0.19942200237E+02  0.10781372441E+02  0.46418273187E+02  0.00000000000E+00 0. -1.
          3    1    5    5  503    0 -0.11663317094E+02 -0.50569874023E+01 -0.13586509590E+03  0.13645852986E+03  0.00000000000E+00 0. -1.
         -4    1    5    5    0  503 -0.70087092250E+02 -0.10633664301E+03 -0.22570243249E+03  0.25915491541E+03  0.00000000000E+00 0.  1.
         -3    1    6    6    0  502  0.53801645237E+03 -0.73828461783E+01  0.26022254037E+03  0.59768886551E+03  0.00000000000E+00 0.  1.
<mgrwt>
<rscale>  0 0.18843102E+04</rscale>
<asrwt>0</asrwt>
<pdfrwt beam="1">  1        2 0.82327579E-01 0.18843102E+04</pdfrwt>
<pdfrwt beam="2">  1       -2 0.25519534E+00 0.18843102E+04</pdfrwt>
<totfact> 0.31839114E+00</totfact>
</mgrwt>
</event>
<event>
12    1  0.1201209E-007  0.1606646E+04  0.7818608E-02  0.8816475E-01
          1   -1    0    0  501    0  0.00000000000E+00  0.00000000000E+00  0.57497825480E+03  0.57497825480E+03  0.00000000000E+00 0. -1.
         -1   -1    0    0    0  501 -0.00000000000E+00 -0.00000000000E+00 -0.11223523992E+04  0.11223523992E+04  0.00000000000E+00 0.  1.
         23    2    1    2    0    0 -0.20643372570E+03  0.33116250411E+03 -0.63028717021E+03  0.74691912022E+03  0.91338754045E+02 0.  0.
        254    2    1    2    0    0  0.20643372570E+03 -0.33116250411E+03  0.82913025830E+02  0.95041153376E+03  0.86262623796E+03 0.  0.
        -24    2    4    4    0    0  0.20289804566E+03  0.22551902683E+02 -0.33318174819E+03  0.39858805910E+03  0.78652134602E+02 0.  0.
         24    2    4    4    0    0  0.35356800383E+01 -0.35371440679E+03  0.41609477402E+03  0.55182347466E+03  0.79043681676E+02 0.  0.
         13    1    3    3    0    0 -0.17530866519E+03  0.23454216046E+03 -0.52180313525E+03  0.59834911638E+03  0.00000000000E+00 0.  1.
        -13    1    3    3    0    0 -0.31125060505E+02  0.96620343653E+02 -0.10848403496E+03  0.14857000384E+03  0.00000000000E+00 0. -1.
          2    1    6    6  502    0 -0.24326857734E+02 -0.30513439784E+03  0.34268637870E+03  0.45949183986E+03  0.00000000000E+00 0. -1.
          1    1    5    5  503    0  0.19975673501E+03  0.35178151023E+02 -0.29302524955E+03  0.35637627919E+03  0.00000000000E+00 0. -1.
         -2    1    5    5    0  503  0.31413106426E+01 -0.12626248340E+02 -0.40156498645E+02  0.42211779910E+02  0.00000000000E+00 0.  1.
         -1    1    6    6    0  502  0.27862537773E+02 -0.48580008947E+02  0.73408395325E+02  0.92331634799E+02  0.00000000000E+00 0.  1.
<mgrwt>
<rscale>  0 0.16066465E+04</rscale>
<asrwt>0</asrwt>
<pdfrwt beam="1">  1        1 0.88458194E-01 0.16066465E+04</pdfrwt>
<pdfrwt beam="2">  1       -1 0.17266960E+00 0.16066465E+04</pdfrwt>
<totfact> 0.82135116E+00</totfact>
</mgrwt>
</event>
<event>
12    1  0.1201209E-007  0.1397972E+04  0.7818608E-02  0.8955288E-01
         -2   -1    0    0    0  501 -0.00000000000E+00  0.00000000000E+00  0.18765283330E+03  0.18765283330E+03  0.00000000000E+00 0.  1.
          2   -1    0    0  501    0  0.00000000000E+00 -0.00000000000E+00 -0.26036446354E+04  0.26036446354E+04  0.00000000000E+00 0. -1.
         23    2    1    2    0    0  0.15051346106E+03  0.31542270528E+03 -0.31678795461E+03  0.48058136481E+03  0.91967684840E+02 0.  0.
        254    2    1    2    0    0 -0.15051346106E+03 -0.31542270528E+03 -0.20992038475E+04  0.23107161039E+04  0.90033678946E+03 0.  0.
        -24    2    4    4    0    0  0.13109975312E+03 -0.25944128070E+03 -0.14547605785E+03  0.33443522066E+03  0.78655641926E+02 0.  0.
         24    2    4    4    0    0 -0.28161321418E+03 -0.55981424572E+02 -0.19537277897E+04  0.19762808833E+04  0.78701531619E+02 0.  0.
         13    1    3    3    0    0  0.14361565928E+03  0.29824387794E+03 -0.26020788060E+03  0.42104988950E+03  0.00000000000E+00 0.  1.
        -13    1    3    3    0    0  0.68978017771E+01  0.17178827335E+02 -0.56580074011E+02  0.59531475313E+02  0.00000000000E+00 0. -1.
          2    1    6    6  502    0 -0.89224720093E+02 -0.32480178707E+02 -0.88894389259E+03  0.89400070294E+03  0.00000000000E+00 0. -1.
          3    1    5    5  503    0  0.56021468492E+02 -0.18017758968E+03 -0.68012752205E+02  0.20056944736E+03  0.00000000000E+00 0. -1.
         -4    1    5    5    0  503  0.75078284625E+02 -0.79263691029E+02 -0.77463305643E+02  0.13386577329E+03  0.00000000000E+00 0.  1.
         -1    1    6    6    0  502 -0.19238849409E+03 -0.23501245865E+02 -0.10647838971E+04  0.10822801803E+04  0.00000000000E+00 0.  1.
<mgrwt>
<rscale>  0 0.13979718E+04</rscale>
<asrwt>0</asrwt>
<pdfrwt beam="1">  1        2 0.40056067E+00 0.13979718E+04</pdfrwt>
<pdfrwt beam="2">  1       -2 0.28869670E-01 0.13979718E+04</pdfrwt>
<totfact> 0.32621149E+01</totfact>
</mgrwt>
</event>
<event>
12    1  0.1201209E-007  0.1221778E+04  0.7818608E-02  0.9094005E-01
         -1   -1    0    0    0  501 -0.00000000000E+00  0.00000000000E+00  0.13971424618E+03  0.13971424618E+03  0.00000000000E+00 0.  1.
          1   -1    0    0  501    0  0.00000000000E+00 -0.00000000000E+00 -0.26710620754E+04  0.26710620754E+04  0.00000000000E+00 0. -1.
         23    2    1    2    0    0  0.63612978526E+02  0.13759031430E+03 -0.74865729276E+02  0.19077476805E+03  0.88387946465E+02 0.  0.
        254    2    1    2    0    0 -0.63612978526E+02 -0.13759031430E+03 -0.24564820999E+04  0.26200015535E+04  0.89840198548E+03 0.  0.
        -24    2    4    4    0    0 -0.22931502866E+03 -0.14642621389E+03 -0.24164095166E+04  0.24329994476E+04  0.80158227670E+02 0.  0.
         24    2    4    4    0    0  0.16570205014E+03  0.88358995916E+01 -0.40072583314E+02  0.18700210593E+03  0.76346140363E+02 0.  0.
         13    1    3    3    0    0 -0.18716910991E+02  0.11825736485E+02  0.14655992740E+01  0.22188257743E+02  0.00000000000E+00 0. -1.
        -13    1    3    3    0    0  0.82329889517E+02  0.12576457781E+03 -0.76331328550E+02  0.16858651031E+03  0.00000000000E+00 0.  1.
          2    1    6    6  502    0  0.59363927052E+02  0.17520718942E+02  0.19386294175E+02  0.64860464299E+02  0.00000000000E+00 0. -1.
          1    1    5    5  503    0 -0.70548541711E+02 -0.78097398684E+02 -0.11584472743E+04  0.11632181171E+04  0.00000000000E+00 0. -1.
         -2    1    5    5    0  503 -0.15876648695E+03 -0.68328815205E+02 -0.12579622423E+04  0.12697813305E+04  0.00000000000E+00 0.  1.
         -1    1    6    6    0  502  0.10633812308E+03 -0.86848193509E+01 -0.59458877489E+02  0.12214164163E+03  0.00000000000E+00 0.  1.
<mgrwt>
<rscale>  0 0.12217781E+04</rscale>
<asrwt>0</asrwt>
<pdfrwt beam="1">  1        1 0.41093261E+00 0.12217781E+04</pdfrwt>
<pdfrwt beam="2">  1       -1 0.21494500E-01 0.12217781E+04</pdfrwt>
<totfact> 0.18562212E+01</totfact>
</mgrwt>
</event>
<event>
12    1  0.1201209E-007  0.1553893E+04  0.7818608E-02  0.8849385E-01
         -2   -1    0    0    0  501 -0.00000000000E+00  0.00000000000E+00  0.25453860483E+03  0.25453860483E+03  0.00000000000E+00 0.  1.
          2   -1    0    0  501    0  0.00000000000E+00 -0.00000000000E+00 -0.23715302946E+04  0.23715302946E+04  0.00000000000E+00 0. -1.
         23    2    1    2    0    0  0.15295471268E+03  0.63933619011E+02 -0.15314137842E+04  0.15430927036E+04  0.91783777103E+02 0.  0.
        254    2    1    2    0    0 -0.15295471268E+03 -0.63933619011E+02 -0.58557790559E+03  0.10829761958E+04  0.89579758063E+03 0.  0.
        -24    2    4    4    0    0  0.31584809303E+03  0.48429498461E+02 -0.12068118378E+02  0.32947687675E+03  0.79397346535E+02 0.  0.
         24    2    4    4    0    0 -0.46880280572E+03 -0.11236311747E+03 -0.57350978721E+03  0.75349931909E+03  0.80288274527E+02 0.  0.
         13    1    3    3    0    0  0.16713489247E+02  0.33086038819E+02 -0.14514039984E+03  0.14979907327E+03  0.00000000000E+00 0.  1.
        -13    1    3    3    0    0  0.13624122344E+03  0.30847580191E+02 -0.13862733844E+04  0.13932936304E+04  0.00000000000E+00 0. -1.
          2    1    6    6  502    0 -0.23204384734E+02 -0.20530236884E+02 -0.19458436501E+02  0.36586402508E+02  0.00000000000E+00 0. -1.
          1    1    5    5  503    0  0.92281361548E+02  0.24619491567E+02 -0.38745155817E+02  0.10306869628E+03  0.00000000000E+00 0. -1.
         -2    1    5    5    0  503  0.22356673149E+03  0.23810006894E+02  0.26677037439E+02  0.22640818047E+03  0.00000000000E+00 0.  1.
         -3    1    6    6    0  502 -0.44559842098E+03 -0.91832880589E+02 -0.55405135071E+03  0.71691291658E+03  0.00000000000E+00 0.  1.
<mgrwt>
<rscale>  0 0.15538932E+04</rscale>
<asrwt>0</asrwt>
<pdfrwt beam="1">  1        2 0.36485083E+00 0.15538932E+04</pdfrwt>
<pdfrwt beam="2">  1       -2 0.39159784E-01 0.15538932E+04</pdfrwt>
<totfact> 0.24528547E+01</totfact>
</mgrwt>
</event>
<event>
12    1  0.1201209E-007  0.2356354E+04  0.7818608E-02  0.8456027E-01
         -1   -1    0    0    0  501 -0.00000000000E+00  0.00000000000E+00  0.82447644118E+03  0.82447644118E+03  0.00000000000E+00 0.  1.
          1   -1    0    0  501    0  0.00000000000E+00 -0.00000000000E+00 -0.16836158813E+04  0.16836158813E+04  0.00000000000E+00 0. -1.
         23    2    1    2    0    0  0.48112630489E+03 -0.12383068251E+03  0.56204403522E+03  0.75535596856E+03  0.88614798552E+02 0.  0.
        254    2    1    2    0    0 -0.48112630489E+03  0.12383068251E+03 -0.14211834754E+04  0.17527363540E+04  0.89749969171E+03 0.  0.
        -24    2    4    4    0    0 -0.48313822623E+03  0.43760273431E+03 -0.11752753958E+04  0.13463366735E+04  0.80196531080E+02 0.  0.
         24    2    4    4    0    0  0.20119213373E+01 -0.31377205180E+03 -0.24590807959E+03  0.40639968052E+03  0.78949150713E+02 0.  0.
         11    1    3    3    0    0  0.16648698637E+03 -0.88369699585E+00  0.17244355538E+03  0.23969872203E+03  0.00000000000E+00 0. -1.
        -11    1    3    3    0    0  0.31463931852E+03 -0.12294698551E+03  0.38960047983E+03  0.51565724652E+03  0.00000000000E+00 0.  1.
          2    1    6    6  502    0 -0.29532822469E+02 -0.20371862058E+03 -0.18478008160E+03  0.27661732146E+03  0.00000000000E+00 0. -1.
          3    1    5    5  503    0 -0.28555344582E+02  0.36221123641E+02 -0.49775959599E+02  0.67860324609E+02  0.00000000000E+00 0. -1.
         -4    1    5    5    0  503 -0.45458288165E+03  0.40138161067E+03 -0.11254994362E+04  0.12784763488E+04  0.00000000000E+00 0.  1.
         -1    1    6    6    0  502  0.31544743806E+02 -0.11005343122E+03 -0.61127997993E+02  0.12978235906E+03  0.00000000000E+00 0.  1.
<mgrwt>
<rscale>  0 0.23563545E+04</rscale>
<asrwt>0</asrwt>
<pdfrwt beam="1">  1        1 0.25901783E+00 0.23563545E+04</pdfrwt>
<pdfrwt beam="2">  1       -1 0.12684253E+00 0.23563545E+04</pdfrwt>
<totfact> 0.23732548E+00</totfact>
</mgrwt>
</event>
<event>
12    1  0.1201209E-007  0.1201793E+04  0.7818608E-02  0.9111289E-01
          2   -1    0    0  501    0  0.00000000000E+00  0.00000000000E+00  0.32582850240E+04  0.32582850240E+04  0.00000000000E+00 0. -1.
         -2   -1    0    0    0  501 -0.00000000000E+00 -0.00000000000E+00 -0.11081794973E+03  0.11081794973E+03  0.00000000000E+00 0.  1.
         23    2    1    2    0    0  0.22385589944E+03  0.10334443734E+03  0.82811949079E+03  0.86910231641E+03  0.93623762561E+02 0.  0.
        254    2    1    2    0    0 -0.22385589944E+03 -0.10334443734E+03  0.23193475835E+04  0.25000006574E+04  0.89991029398E+03 0.  0.
        -24    2    4    4    0    0 -0.51541745598E+03  0.98458603737E+02  0.10014314692E+04  0.11331808793E+04  0.76711583876E+02 0.  0.
         24    2    4    4    0    0  0.29156155654E+03 -0.20180304108E+03  0.13179161143E+04  0.13668197780E+04  0.74570857105E+02 0.  0.
         13    1    3    3    0    0  0.13694496288E+03  0.25438851806E+02  0.55252464301E+03  0.56981096793E+03  0.00000000000E+00 0. -1.
        -13    1    3    3    0    0  0.86910936564E+02  0.77905585534E+02  0.27559484778E+03  0.29929134848E+03  0.00000000000E+00 0.  1.
          2    1    6    6  502    0  0.14216828614E+03 -0.13727657695E+03  0.65098767051E+03  0.68032464847E+03  0.00000000000E+00 0. -1.
          1    1    5    5  503    0 -0.49489041753E+03  0.84261994816E+02  0.92055409520E+03  0.10485401525E+04  0.00000000000E+00 0. -1.
         -2    1    5    5    0  503 -0.20527038452E+02  0.14196608922E+02  0.80877374026E+02  0.84640726851E+02  0.00000000000E+00 0.  1.
         -1    1    6    6    0  502  0.14939327040E+03 -0.64526464124E+02  0.66692844377E+03  0.68649512957E+03  0.00000000000E+00 0.  1.
<mgrwt>
<rscale>  0 0.12017928E+04</rscale>
<asrwt>0</asrwt>
<pdfrwt beam="1">  1        2 0.50127455E+00 0.12017928E+04</pdfrwt>
<pdfrwt beam="2">  1       -2 0.17048918E-01 0.12017928E+04</pdfrwt>
<totfact> 0.33718230E+01</totfact>
</mgrwt>
</event>
<event>
12    1  0.1201209E-007  0.1200174E+04  0.7818608E-02  0.9112705E-01
         -1   -1    0    0    0  501 -0.00000000000E+00  0.00000000000E+00  0.26986022024E+03  0.26986022024E+03  0.00000000000E+00 0.  1.
          1   -1    0    0  501    0  0.00000000000E+00 -0.00000000000E+00 -0.13344100878E+04  0.13344100878E+04  0.00000000000E+00 0. -1.
         23    2    1    2    0    0  0.10945607683E+03 -0.15630823501E+03 -0.25432412489E+02  0.21348498129E+03  0.92282894126E+02 0.  0.
        254    2    1    2    0    0 -0.10945607683E+03  0.15630823501E+03 -0.10391174551E+04  0.13907853268E+04  0.90449203567E+03 0.  0.
        -24    2    4    4    0    0 -0.43147204438E+03 -0.13831932817E+03 -0.68042908191E+03  0.82133497460E+03  0.79416895991E+02 0.  0.
         24    2    4    4    0    0  0.32201596756E+03  0.29462756317E+03 -0.35868837317E+03  0.56945035215E+03  0.71530903632E+02 0.  0.
         13    1    3    3    0    0 -0.76893793917E+01 -0.58893634352E+02 -0.28334711469E+01  0.59461040029E+02  0.00000000000E+00 0. -1.
        -13    1    3    3    0    0  0.11714545622E+03 -0.97414600655E+02 -0.22598941342E+02  0.15402394127E+03  0.00000000000E+00 0.  1.
          4    1    6    6  502    0  0.12696946625E+03  0.12981934028E+03 -0.19330636874E+03  0.26522001935E+03  0.00000000000E+00 0. -1.
          3    1    5    5  503    0 -0.42860507853E+03 -0.13638635664E+03 -0.68244394287E+03  0.81733303297E+03  0.00000000000E+00 0. -1.
         -4    1    5    5    0  503 -0.28669658547E+01 -0.19329715287E+01  0.20148609634E+01  0.40019416344E+01  0.00000000000E+00 0.  1.
         -3    1    6    6    0  502  0.19504650130E+03  0.16480822290E+03 -0.16538200443E+03  0.30423033280E+03  0.00000000000E+00 0.  1.
<mgrwt>
<rscale>  0 0.12001737E+04</rscale>
<asrwt>0</asrwt>
<pdfrwt beam="1">  1        1 0.20529386E+00 0.12001737E+04</pdfrwt>
<pdfrwt beam="2">  1       -1 0.41516957E-01 0.12001737E+04</pdfrwt>
<totfact> 0.48103463E+01</totfact>
</mgrwt>
</event>
<event>
12    1  0.1201209E-007  0.1795895E+04  0.7818608E-02  0.8708486E-01
         -2   -1    0    0    0  501 -0.00000000000E+00  0.00000000000E+00  0.24356402489E+03  0.24356402489E+03  0.00000000000E+00 0.  1.
          2   -1    0    0  501    0  0.00000000000E+00 -0.00000000000E+00 -0.33104628756E+04  0.33104628756E+04  0.00000000000E+00 0. -1.
         23    2    1    2    0    0 -0.39856264423E+03 -0.41854589137E+03 -0.49100768753E+03  0.76477916313E+03  0.98821933703E+02 0.  0.
        254    2    1    2    0    0  0.39856264423E+03  0.41854589137E+03 -0.25758911632E+04  0.27892477374E+04  0.90036371054E+03 0.  0.
        -24    2    4    4    0    0  0.62063741183E+03  0.51935475180E+03 -0.19819226215E+04  0.21422996799E+04  0.80687581748E+02 0.  0.
         24    2    4    4    0    0 -0.22207476760E+03 -0.10080886043E+03 -0.59396854169E+03  0.64694805744E+03  0.79142477594E+02 0.  0.
         13    1    3    3    0    0 -0.27439851386E+03 -0.24852376813E+03 -0.26101303577E+03  0.45297506838E+03  0.00000000000E+00 0.  1.
        -13    1    3    3    0    0 -0.12416413037E+03 -0.17002212324E+03 -0.22999465176E+03  0.31180409474E+03  0.00000000000E+00 0. -1.
          2    1    6    6  502    0 -0.44863652872E+01 -0.34412229849E+00  0.17499210230E+01  0.48278480955E+01  0.00000000000E+00 0. -1.
          1    1    5    5  503    0  0.98229156763E+02  0.91550708404E+02 -0.25784652458E+03  0.29071520374E+03  0.00000000000E+00 0. -1.
         -2    1    5    5    0  503  0.52240825506E+03  0.42780404340E+03 -0.17240760969E+04  0.18515844762E+04  0.00000000000E+00 0.  1.
         -1    1    6    6    0  502 -0.21758840231E+03 -0.10046473813E+03 -0.59571846271E+03  0.64212020934E+03  0.00000000000E+00 0.  1.
<mgrwt>
<rscale>  0 0.17958949E+04</rscale>
<asrwt>0</asrwt>
<pdfrwt beam="1">  1        2 0.50930197E+00 0.17958949E+04</pdfrwt>
<pdfrwt beam="2">  1       -2 0.37471389E-01 0.17958949E+04</pdfrwt>
<totfact> 0.69976026E+00</totfact>
</mgrwt>
</event>
<event>
12    1  0.1201209E-007  0.1712084E+04  0.7818608E-02  0.8754502E-01
         -2   -1    0    0    0  501 -0.00000000000E+00  0.00000000000E+00  0.18992466061E+04  0.18992466061E+04  0.00000000000E+00 0.  1.
          2   -1    0    0  501    0  0.00000000000E+00 -0.00000000000E+00 -0.38584150875E+03  0.38584150875E+03  0.00000000000E+00 0. -1.
         23    2    1    2    0    0  0.14047138493E+03 -0.47881527913E+03  0.62366491262E+02  0.51120801016E+03  0.91911745216E+02 0.  0.
        254    2    1    2    0    0 -0.14047138493E+03  0.47881527913E+03  0.14510386060E+04  0.17738801047E+04  0.89002320641E+03 0.  0.
        -24    2    4    4    0    0 -0.47378648416E+03  0.68310590614E+02  0.66557133620E+03  0.82371869579E+03  0.79920691004E+02 0.  0.
         24    2    4    4    0    0  0.33331509924E+03  0.41050468851E+03  0.78546726984E+03  0.95016140886E+03  0.78960852530E+02 0.  0.
         13    1    3    3    0    0  0.95410668346E+02 -0.37482855105E+03  0.11410695965E+02  0.38694940535E+03  0.00000000000E+00 0.  1.
        -13    1    3    3    0    0  0.45060716583E+02 -0.10398672807E+03  0.50955795297E+02  0.12425860481E+03  0.00000000000E+00 0. -1.
          4    1    6    6  502    0  0.17319438989E+03  0.25059838538E+03  0.50528694597E+03  0.59000910604E+03  0.00000000000E+00 0. -1.
          3    1    5    5  503    0 -0.45812771532E+03  0.55992689337E+02  0.61172788398E+03  0.76630750279E+03  0.00000000000E+00 0. -1.
         -4    1    5    5    0  503 -0.15658768846E+02  0.12317901277E+02  0.53843452225E+02  0.57411192995E+02  0.00000000000E+00 0.  1.
         -3    1    6    6    0  502  0.16012070935E+03  0.15990630313E+03  0.28018032387E+03  0.36015230283E+03  0.00000000000E+00 0.  1.
<mgrwt>
<rscale>  0 0.17120843E+04</rscale>
<asrwt>0</asrwt>
<pdfrwt beam="1">  1        2 0.59360233E-01 0.17120843E+04</pdfrwt>
<pdfrwt beam="2">  1       -2 0.29219178E+00 0.17120843E+04</pdfrwt>
<totfact> 0.27983480E+00</totfact>
</mgrwt>
</event>
<event>
12    1  0.1201209E-007  0.1676031E+04  0.7818608E-02  0.8775154E-01
          1   -1    0    0  501    0  0.00000000000E+00  0.00000000000E+00  0.20622650806E+04  0.20622650806E+04  0.00000000000E+00 0. -1.
         -1   -1    0    0    0  501 -0.00000000000E+00 -0.00000000000E+00 -0.34053341301E+03  0.34053341301E+03  0.00000000000E+00 0.  1.
         23    2    1    2    0    0 -0.23280363606E+03  0.29244212834E+03 -0.45471549510E+02  0.38784233079E+03  0.92919752173E+02 0.  0.
        254    2    1    2    0    0  0.23280363606E+03 -0.29244212834E+03  0.17672032171E+04  0.20149561629E+04  0.89292843843E+03 0.  0.
        -24    2    4    4    0    0  0.24249310890E+02 -0.12977534444E+03 -0.61420963903E+02  0.16577960734E+03  0.79250705350E+02 0.  0.
         24    2    4    4    0    0  0.20855432517E+03 -0.16266678390E+03  0.18286241810E+04  0.18491765555E+04  0.75047643887E+02 0.  0.
         11    1    3    3    0    0 -0.56629451746E+02  0.58117736898E+02 -0.48743414977E+02  0.94659847088E+02  0.00000000000E+00 0. -1.
        -11    1    3    3    0    0 -0.17617418431E+03  0.23432439144E+03  0.32718654668E+01  0.29318248370E+03  0.00000000000E+00 0.  1.
          4    1    6    6  502    0  0.20648854879E+03 -0.16249331292E+03  0.18282921439E+04  0.18470770859E+04  0.00000000000E+00 0. -1.
          3    1    5    5  503    0  0.50306364326E+02 -0.59240813615E+02 -0.40960423986E+02  0.87851924410E+02  0.00000000000E+00 0. -1.
         -4    1    5    5    0  503 -0.26057053436E+02 -0.70534530824E+02 -0.20460539917E+02  0.77927682925E+02  0.00000000000E+00 0.  1.
         -3    1    6    6    0  502  0.20657763787E+01 -0.17347097800E+00  0.33203711119E+00  0.20994696640E+01  0.00000000000E+00 0.  1.
<mgrwt>
<rscale>  0 0.16760312E+04</rscale>
<asrwt>0</asrwt>
<pdfrwt beam="1">  1        1 0.31727154E+00 0.16760312E+04</pdfrwt>
<pdfrwt beam="2">  1       -1 0.52389757E-01 0.16760312E+04</pdfrwt>
<totfact> 0.94658826E+00</totfact>
</mgrwt>
</event>
<event>
12    1  0.1201209E-007  0.1137214E+04  0.7818608E-02  0.9169661E-01
          2   -1    0    0  501    0  0.00000000000E+00  0.00000000000E+00  0.24473224228E+04  0.24473224228E+04  0.00000000000E+00 0. -1.
         -2   -1    0    0    0  501 -0.00000000000E+00 -0.00000000000E+00 -0.13210929993E+03  0.13210929993E+03  0.00000000000E+00 0.  1.
         23    2    1    2    0    0 -0.10956893747E+03  0.78819710391E+02  0.79162787686E+03  0.80827277604E+03  0.91718516442E+02 0.  0.
        254    2    1    2    0    0  0.10956893747E+03 -0.78819710391E+02  0.15235852460E+04  0.17711589467E+04  0.89301406137E+03 0.  0.
        -24    2    4    4    0    0  0.62232817902E+02  0.25329034732E+03  0.76370785833E+02  0.28341704456E+03  0.80397764570E+02 0.  0.
         24    2    4    4    0    0  0.47336119568E+02 -0.33211005771E+03  0.14472144602E+04  0.14877419021E+04  0.80052951207E+02 0.  0.
         11    1    3    3    0    0 -0.68120802913E+02  0.62524526647E+02  0.70329850232E+03  0.70935079022E+03  0.00000000000E+00 0. -1.
        -11    1    3    3    0    0 -0.41448134557E+02  0.16295183743E+02  0.88329374547E+02  0.98921985823E+02  0.00000000000E+00 0.  1.
          2    1    6    6  502    0  0.28366287909E+02 -0.31653127618E+03  0.13817733333E+04  0.14178484544E+04  0.00000000000E+00 0. -1.
          3    1    5    5  503    0  0.55643536708E+02  0.87180799703E+02  0.50780624797E+02  0.11521877828E+03  0.00000000000E+00 0. -1.
         -4    1    5    5    0  503  0.65892811934E+01  0.16610954762E+03  0.25590161036E+02  0.16819826627E+03  0.00000000000E+00 0.  1.
         -1    1    6    6    0  502  0.18969831659E+02 -0.15578781533E+02  0.65441126860E+02  0.69893447704E+02  0.00000000000E+00 0.  1.
<mgrwt>
<rscale>  0 0.11372142E+04</rscale>
<asrwt>0</asrwt>
<pdfrwt beam="1">  1        2 0.37651111E+00 0.11372142E+04</pdfrwt>
<pdfrwt beam="2">  1       -2 0.20324509E-01 0.11372142E+04</pdfrwt>
<totfact> 0.77400509E+01</totfact>
</mgrwt>
</event>
<event>
12    1  0.1201209E-007  0.3581340E+04  0.7818608E-02  0.8094779E-01
          1   -1    0    0  501    0  0.00000000000E+00  0.00000000000E+00  0.15285875006E+04  0.15285875006E+04  0.00000000000E+00 0. -1.
         -1   -1    0    0    0  501 -0.00000000000E+00 -0.00000000000E+00 -0.20976871617E+04  0.20976871617E+04  0.00000000000E+00 0.  1.
         23    2    1    2    0    0 -0.57948657961E+03  0.92443477506E+03  0.10224517307E+04  0.14984495623E+04  0.97771161192E+02 0.  0.
        254    2    1    2    0    0  0.57948657961E+03 -0.92443477506E+03 -0.15915513917E+04  0.21278251000E+04  0.89678284675E+03 0.  0.
        -24    2    4    4    0    0 -0.16644629321E+02 -0.50848496348E+03 -0.19378865007E+03  0.55042130797E+03  0.81089910612E+02 0.  0.
         24    2    4    4    0    0  0.59613120894E+03 -0.41594981158E+03 -0.13977627416E+04  0.15774037920E+04  0.77944704749E+02 0.  0.
         13    1    3    3    0    0 -0.11768671211E+03  0.12621364158E+03  0.14249132781E+03  0.22379415548E+03  0.00000000000E+00 0.  1.
        -13    1    3    3    0    0 -0.46179986750E+03  0.79822113348E+03  0.87996040287E+03  0.12746554068E+04  0.00000000000E+00 0. -1.
          2    1    6    6  502    0  0.56634163941E+03 -0.37657844404E+03 -0.12743060341E+04  0.14444410842E+04  0.00000000000E+00 0. -1.
          3    1    5    5  503    0 -0.34164071245E+02 -0.47866150872E+03 -0.17325732291E+03  0.51019812195E+03  0.00000000000E+00 0. -1.
         -4    1    5    5    0  503  0.17519441924E+02 -0.29823454757E+02 -0.20531327160E+02  0.40223186024E+02  0.00000000000E+00 0.  1.
         -1    1    6    6    0  502  0.29789569522E+02 -0.39371367537E+02 -0.12345670754E+03  0.13296270782E+03  0.00000000000E+00 0.  1.
<mgrwt>
<rscale>  0 0.35813396E+04</rscale>
<asrwt>0</asrwt>
<pdfrwt beam="1">  1        1 0.23516731E+00 0.35813396E+04</pdfrwt>
<pdfrwt beam="2">  1       -1 0.32272110E+00 0.35813396E+04</pdfrwt>
<totfact> 0.11895253E-01</totfact>
</mgrwt>
</event>
<event>
12    1  0.2138936E-007  0.4142420E+04  0.7818608E-02  0.7976416E-01
          2   -1    0    0  501    0  0.00000000000E+00  0.00000000000E+00  0.25945890930E+04  0.25945890930E+04  0.00000000000E+00 0. -1.
         -2   -1    0    0    0  501 -0.00000000000E+00 -0.00000000000E+00 -0.16534064437E+04  0.16534064437E+04  0.00000000000E+00 0.  1.
         23    2    1    2    0    0  0.82317237970E+03 -0.16917545776E+04 -0.12774620006E+03  0.18879520355E+04  0.91637759749E+02 0.  0.
        254    2    1    2    0    0 -0.82317237970E+03  0.16917545776E+04  0.10689288494E+04  0.23600435012E+04  0.94209878714E+03 0.  0.
        -24    2    4    4    0    0 -0.96628658169E+03  0.16256044001E+04  0.10826647117E+04  0.21805570811E+04  0.79792746048E+02 0.  0.
         24    2    4    4    0    0  0.14311420199E+03  0.66150177495E+02 -0.13735862269E+02  0.17948642008E+03  0.84671012078E+02 0.  0.
         13    1    3    3    0    0  0.38482338239E+03 -0.80118688733E+03 -0.10598860292E+03  0.89511063451E+03  0.00000000000E+00 0. -1.
        -13    1    3    3    0    0  0.43834899731E+03 -0.89056769031E+03 -0.21757597147E+02  0.99284140098E+03  0.00000000000E+00 0.  1.
          2    1    6    6  502    0  0.11974938053E+03  0.36603931570E+02 -0.42345580332E+02  0.13218513576E+03  0.00000000000E+00 0. -1.
          3    1    5    5  503    0 -0.95764083670E+03  0.16161836916E+04  0.10674712693E+04  0.21606991017E+04  0.00000000000E+00 0. -1.
         -4    1    5    5    0  503 -0.86457449923E+01  0.94207084960E+01  0.15193442391E+02  0.19857979422E+02  0.00000000000E+00 0.  1.
         -1    1    6    6    0  502  0.23364821465E+02  0.29546245925E+02  0.28609718063E+02  0.47301284316E+02  0.00000000000E+00 0.  1.
<mgrwt>
<rscale>  0 0.41424197E+04</rscale>
<asrwt>0</asrwt>
<pdfrwt beam="1">  1        2 0.39916756E+00 0.41424197E+04</pdfrwt>
<pdfrwt beam="2">  1       -2 0.25437022E+00 0.41424197E+04</pdfrwt>
<totfact> 0.14441319E-01</totfact>
</mgrwt>
</event>
<event>
12    1  0.1201209E-007  0.2852895E+04  0.7818608E-02  0.8287032E-01
         -2   -1    0    0    0  501 -0.00000000000E+00  0.00000000000E+00  0.78610317307E+03  0.78610317307E+03  0.00000000000E+00 0.  1.
          2   -1    0    0  501    0  0.00000000000E+00 -0.00000000000E+00 -0.25884045627E+04  0.25884045627E+04  0.00000000000E+00 0. -1.
         23    2    1    2    0    0 -0.93166696643E+03  0.76191593354E+02  0.23559773700E+03  0.96830825189E+03  0.91137707672E+02 0.  0.
        254    2    1    2    0    0  0.93166696643E+03 -0.76191593354E+02 -0.20378991266E+04  0.24061994839E+04  0.87347273038E+03 0.  0.
        -24    2    4    4    0    0  0.10807318754E+04 -0.22663588474E+02 -0.18643836818E+04  0.21566055599E+04  0.80783683837E+02 0.  0.
         24    2    4    4    0    0 -0.14906490892E+03 -0.53528004880E+02 -0.17351544486E+03  0.24959392397E+03  0.84284772642E+02 0.  0.
         11    1    3    3    0    0 -0.58035512426E+03  0.63611449953E+02  0.18920110538E+03  0.61372269397E+03  0.00000000000E+00 0. -1.
        -11    1    3    3    0    0 -0.35131184217E+03  0.12580143401E+02  0.46396631626E+02  0.35458555792E+03  0.00000000000E+00 0.  1.
          2    1    6    6  502    0 -0.52873234445E+01  0.16988857914E+02 -0.28238059137E+02  0.33376115206E+02  0.00000000000E+00 0. -1.
          3    1    5    5  503    0  0.67695926273E+03 -0.43004349986E+02 -0.11150191282E+04  0.13051401740E+04  0.00000000000E+00 0. -1.
         -2    1    5    5    0  503  0.40377261262E+03  0.20340761512E+02 -0.74936455361E+03  0.85146538596E+03  0.00000000000E+00 0.  1.
         -1    1    6    6    0  502 -0.14377758548E+03 -0.70516862794E+02 -0.14527738572E+03  0.21621780876E+03  0.00000000000E+00 0.  1.
<mgrwt>
<rscale>  0 0.28528954E+04</rscale>
<asrwt>0</asrwt>
<pdfrwt beam="1">  1        2 0.39821609E+00 0.28528954E+04</pdfrwt>
<pdfrwt beam="2">  1       -2 0.12093895E+00 0.28528954E+04</pdfrwt>
<totfact> 0.13944651E+00</totfact>
</mgrwt>
</event>
<event>
12    1  0.1201209E-007  0.1410062E+04  0.7818608E-02  0.8946567E-01
          2   -1    0    0  501    0  0.00000000000E+00  0.00000000000E+00  0.22456282275E+04  0.22456282275E+04  0.00000000000E+00 0. -1.
         -2   -1    0    0    0  501 -0.00000000000E+00 -0.00000000000E+00 -0.22134951200E+03  0.22134951200E+03  0.00000000000E+00 0.  1.
         23    2    1    2    0    0  0.40166719041E+03 -0.21204977332E+02  0.64038526748E+03  0.76177085010E+03  0.91735240480E+02 0.  0.
        254    2    1    2    0    0 -0.40166719041E+03  0.21204977332E+02  0.13838934480E+04  0.17052068894E+04  0.91147313579E+03 0.  0.
        -24    2    4    4    0    0  0.26871248357E+03  0.13532622939E+03  0.41414246985E+03  0.51820009584E+03  0.80608726598E+02 0.  0.
         24    2    4    4    0    0 -0.67037967398E+03 -0.11412125205E+03  0.96975097818E+03  0.11870067936E+04  0.78330076238E+02 0.  0.
         13    1    3    3    0    0  0.47887654725E+02 -0.28296330326E+02  0.58354351493E+02  0.80617244577E+02  0.00000000000E+00 0. -1.
        -13    1    3    3    0    0  0.35377953568E+03  0.70913529944E+01  0.58203091599E+03  0.68115360553E+03  0.00000000000E+00 0.  1.
          2    1    6    6  502    0 -0.15619130199E+03  0.64575250159E+01  0.21501573183E+03  0.26583676831E+03  0.00000000000E+00 0. -1.
          1    1    5    5  503    0  0.46447775221E+02 -0.71049512804E+01  0.52486436122E+02  0.70446448686E+02  0.00000000000E+00 0. -1.
         -4    1    5    5    0  503  0.22226470835E+03  0.14243118067E+03  0.36165603373E+03  0.44775364715E+03  0.00000000000E+00 0.  1.
         -3    1    6    6    0  502 -0.51418837199E+03 -0.12057877707E+03  0.75473524635E+03  0.92117002527E+03  0.00000000000E+00 0.  1.
<mgrwt>
<rscale>  0 0.14100620E+04</rscale>
<asrwt>0</asrwt>
<pdfrwt beam="1">  1        2 0.34548125E+00 0.14100620E+04</pdfrwt>
<pdfrwt beam="2">  1       -2 0.34053773E-01 0.14100620E+04</pdfrwt>
<totfact> 0.38278924E+01</totfact>
</mgrwt>
</event>
<event>
12    1  0.1201209E-007  0.1194548E+04  0.7818608E-02  0.9117642E-01
         -2   -1    0    0    0  501 -0.00000000000E+00  0.00000000000E+00  0.59993836904E+03  0.59993836904E+03  0.00000000000E+00 0.  1.
          2   -1    0    0  501    0  0.00000000000E+00 -0.00000000000E+00 -0.59462107892E+03  0.59462107892E+03  0.00000000000E+00 0. -1.
         23    2    1    2    0    0  0.10025331335E+03  0.19511829243E+03 -0.10077542714E+03  0.25841286085E+03  0.92193519611E+02 0.  0.
        254    2    1    2    0    0 -0.10025331335E+03 -0.19511829243E+03  0.10609271725E+03  0.93614658711E+03  0.90387659170E+03 0.  0.
        -24    2    4    4    0    0 -0.64435296146E+02 -0.47263295681E+03  0.31573819166E+03  0.57778667055E+03  0.81320426335E+02 0.  0.
         24    2    4    4    0    0 -0.35818017206E+02  0.27751466437E+03 -0.20964547441E+03  0.35835991656E+03  0.78570258736E+02 0.  0.
         11    1    3    3    0    0  0.58965467599E+02  0.18630252790E+03 -0.77633420833E+02  0.21026770152E+03  0.00000000000E+00 0. -1.
        -11    1    3    3    0    0  0.41287845752E+02  0.88157645290E+01 -0.23142006304E+02  0.48145159329E+02  0.00000000000E+00 0.  1.
          2    1    6    6  502    0 -0.22506703809E+02  0.61020618229E+02 -0.14597420549E+02  0.66656974519E+02  0.00000000000E+00 0. -1.
          3    1    5    5  503    0 -0.10540775897E+02 -0.18681819518E+03  0.16844377097E+03  0.25176467184E+03  0.00000000000E+00 0. -1.
         -4    1    5    5    0  503 -0.53894520249E+02 -0.28581476162E+03  0.14729442069E+03  0.32602199871E+03  0.00000000000E+00 0.  1.
         -1    1    6    6    0  502 -0.13311313397E+02  0.21649404615E+03 -0.19504805386E+03  0.29170294204E+03  0.00000000000E+00 0.  1.
<mgrwt>
<rscale>  0 0.11945476E+04</rscale>
<asrwt>0</asrwt>
<pdfrwt beam="1">  1        2 0.91480166E-01 0.11945476E+04</pdfrwt>
<pdfrwt beam="2">  1       -2 0.92298211E-01 0.11945476E+04</pdfrwt>
<totfact> 0.49356553E+01</totfact>
</mgrwt>
</event>
<event>
12    1  0.1201209E-007  0.1738226E+04  0.7818608E-02  0.8739858E-01
         -1   -1    0    0    0  501 -0.00000000000E+00  0.00000000000E+00  0.86786542080E+03  0.86786542080E+03  0.00000000000E+00 0.  1.
          1   -1    0    0  501    0  0.00000000000E+00 -0.00000000000E+00 -0.87036262955E+03  0.87036262955E+03  0.00000000000E+00 0. -1.
         23    2    1    2    0    0 -0.35727859031E+03 -0.32428236512E+03  0.40909237376E+03  0.63911942055E+03  0.91159311266E+02 0.  0.
        254    2    1    2    0    0  0.35727859031E+03  0.32428236512E+03 -0.41158958251E+03  0.10991086298E+04  0.89767853502E+03 0.  0.
        -24    2    4    4    0    0 -0.23964316320E+03 -0.26123711131E+02  0.55776851575E+02  0.25990327974E+03  0.79544727646E+02 0.  0.
         24    2    4    4    0    0  0.59692175352E+03  0.35040607626E+03 -0.46736643409E+03  0.83920535005E+03  0.82062401571E+02 0.  0.
         11    1    3    3    0    0 -0.15766552541E+03 -0.20452106106E+03  0.21270207867E+03  0.33455859964E+03  0.00000000000E+00 0. -1.
        -11    1    3    3    0    0 -0.19961306490E+03 -0.11976130406E+03  0.19639029509E+03  0.30456082091E+03  0.00000000000E+00 0.  1.
          4    1    6    6  502    0  0.59956677875E+03  0.35023667962E+03 -0.46563553596E+03  0.83603977554E+03  0.00000000000E+00 0. -1.
          3    1    5    5  503    0 -0.20294873443E+03  0.59156451414E+01  0.57944737295E+02  0.21114160236E+03  0.00000000000E+00 0. -1.
         -4    1    5    5    0  503 -0.36694428772E+02 -0.32039356272E+02 -0.21678857196E+01  0.48761677389E+02  0.00000000000E+00 0.  1.
         -3    1    6    6    0  502 -0.26450252327E+01  0.16939663468E+00 -0.17308981233E+01  0.31655745157E+01  0.00000000000E+00 0.  1.
<mgrwt>
<rscale>  0 0.17382263E+04</rscale>
<asrwt>0</asrwt>
<pdfrwt beam="1">  1        1 0.13390194E+00 0.17382263E+04</pdfrwt>
<pdfrwt beam="2">  1       -1 0.13351776E+00 0.17382263E+04</pdfrwt>
<totfact> 0.86559164E+00</totfact>
</mgrwt>
</event>
<event>
12    1  0.1201209E-007  0.1147193E+04  0.7818608E-02  0.9160377E-01
          1   -1    0    0  501    0  0.00000000000E+00  0.00000000000E+00  0.29959284165E+04  0.29959284165E+04  0.00000000000E+00 0. -1.
         -1   -1    0    0    0  501 -0.00000000000E+00 -0.00000000000E+00 -0.10982003874E+03  0.10982003874E+03  0.00000000000E+00 0.  1.
         23    2    1    2    0    0  0.12227251710E+03  0.21660961899E+03  0.29816097262E+03  0.39878756917E+03  0.90891497152E+02 0.  0.
        254    2    1    2    0    0 -0.12227251710E+03 -0.21660961899E+03  0.25879474051E+04  0.27069608860E+04  0.75385354773E+03 0.  0.
        -24    2    4    4    0    0 -0.80130400713E+02 -0.10689041951E+03  0.25594802646E+04  0.25641951341E+04  0.79441917850E+02 0.  0.
         24    2    4    4    0    0 -0.42142116392E+02 -0.10971919948E+03  0.28467140529E+02  0.14276575189E+03  0.75877672032E+02 0.  0.
         11    1    3    3    0    0  0.30321242505E+02  0.44631457106E+02  0.16919478629E+02  0.56547444394E+02  0.00000000000E+00 0. -1.
        -11    1    3    3    0    0  0.91951274600E+02  0.17197816188E+03  0.28124149399E+03  0.34224012478E+03  0.00000000000E+00 0.  1.
          2    1    6    6  502    0 -0.42732872060E+02 -0.31356763851E+02  0.35949623990E+02  0.64044675491E+02  0.00000000000E+00 0. -1.
          1    1    5    5  503    0 -0.20640314114E+01  0.73856280940E+01  0.31153946113E+02  0.32083891385E+02  0.00000000000E+00 0. -1.
         -2    1    5    5    0  503 -0.78066369302E+02 -0.11427604760E+03  0.25283263185E+04  0.25321112428E+04  0.00000000000E+00 0.  1.
         -1    1    6    6    0  502  0.59075566802E+00 -0.78362435631E+02 -0.74824834613E+01  0.78721076396E+02  0.00000000000E+00 0.  1.
<mgrwt>
<rscale>  0 0.11471931E+04</rscale>
<asrwt>0</asrwt>
<pdfrwt beam="1">  1        1 0.46091200E+00 0.11471931E+04</pdfrwt>
<pdfrwt beam="2">  1       -1 0.16895393E-01 0.11471931E+04</pdfrwt>
<totfact> 0.16433143E+01</totfact>
</mgrwt>
</event>
<event>
12    1  0.1201209E-007  0.2356937E+04  0.7818608E-02  0.8455804E-01
          2   -1    0    0  501    0  0.00000000000E+00  0.00000000000E+00  0.22470746381E+04  0.22470746381E+04  0.00000000000E+00 0. -1.
         -2   -1    0    0    0  501 -0.00000000000E+00 -0.00000000000E+00 -0.61804275556E+03  0.61804275556E+03  0.00000000000E+00 0.  1.
         23    2    1    2    0    0  0.91905339467E+03 -0.13800640729E+03  0.11757727769E+04  0.15014715028E+04  0.90940311233E+02 0.  0.
        254    2    1    2    0    0 -0.91905339467E+03  0.13800640729E+03  0.45325910560E+03  0.13636458908E+04  0.88903396333E+03 0.  0.
        -24    2    4    4    0    0  0.49620114039E+02  0.23289048215E+03 -0.63191966779E+02  0.25895818674E+03  0.79787125661E+02 0.  0.
         24    2    4    4    0    0 -0.96867350871E+03 -0.94884074860E+02  0.51645107238E+03  0.11046877041E+04  0.79258180618E+02 0.  0.
         11    1    3    3    0    0  0.61487701707E+03 -0.10543987314E+03  0.85268879148E+03  0.10565365531E+04  0.00000000000E+00 0. -1.
        -11    1    3    3    0    0  0.30417637760E+03 -0.32566534150E+02  0.32308398541E+03  0.44493494970E+03  0.00000000000E+00 0.  1.
          4    1    6    6  502    0 -0.55049336015E+03 -0.19379849860E+02  0.26995481791E+03  0.61342817173E+03  0.00000000000E+00 0. -1.
          1    1    5    5  503    0 -0.13497727602E+02  0.51524807464E+01 -0.47799823996E+00  0.14455628335E+02  0.00000000000E+00 0. -1.
         -2    1    5    5    0  503  0.63117841641E+02  0.22773800140E+03 -0.62713968539E+02  0.24450255840E+03  0.00000000000E+00 0.  1.
         -3    1    6    6    0  502 -0.41818014856E+03 -0.75504225000E+02  0.24649625447E+03  0.49125953233E+03  0.00000000000E+00 0.  1.
<mgrwt>
<rscale>  0 0.23569372E+04</rscale>
<asrwt>0</asrwt>
<pdfrwt beam="1">  1        2 0.34570379E+00 0.23569372E+04</pdfrwt>
<pdfrwt beam="2">  1       -2 0.95083502E-01 0.23569372E+04</pdfrwt>
<totfact> 0.40765270E+00</totfact>
</mgrwt>
</event>
<event>
12    1  0.1201209E-007  0.1668735E+04  0.7818608E-02  0.8779399E-01
          1   -1    0    0  501    0  0.00000000000E+00  0.00000000000E+00  0.30513400462E+04  0.30513400462E+04  0.00000000000E+00 0. -1.
         -1   -1    0    0    0  501 -0.00000000000E+00 -0.00000000000E+00 -0.22815197951E+03  0.22815197951E+03  0.00000000000E+00 0.  1.
         23    2    1    2    0    0  0.39957059346E+03  0.19570138139E+03  0.32932963399E+03  0.56097263923E+03  0.90975844649E+02 0.  0.
        254    2    1    2    0    0 -0.39957059346E+03 -0.19570138139E+03  0.24938584327E+04  0.27185193865E+04  0.98643909212E+03 0.  0.
        -24    2    4    4    0    0  0.20400694044E+03 -0.34698272131E+03  0.62921881370E+03  0.75119030780E+03  0.79716512654E+02 0.  0.
         24    2    4    4    0    0 -0.60357753390E+03  0.15128133992E+03  0.18646396190E+04  0.19673290787E+04  0.79441247580E+02 0.  0.
         11    1    3    3    0    0  0.12007984882E+03  0.54367390176E+02  0.15149335561E+03  0.20081140406E+03  0.00000000000E+00 0. -1.
        -11    1    3    3    0    0  0.27949074464E+03  0.14133399121E+03  0.17783627838E+03  0.36016123517E+03  0.00000000000E+00 0.  1.
          2    1    6    6  502    0 -0.16900642300E+02 -0.73540994855E+01  0.78160002989E+02  0.80303801633E+02  0.00000000000E+00 0. -1.
          3    1    5    5  503    0  0.96699611476E+02 -0.91455115075E+02  0.21146764377E+03  0.24986679910E+03  0.00000000000E+00 0. -1.
         -4    1    5    5    0  503  0.10730732896E+03 -0.25552760623E+03  0.41775116993E+03  0.50132350870E+03  0.00000000000E+00 0.  1.
         -1    1    6    6    0  502 -0.58667689160E+03  0.15863543940E+03  0.17864796160E+04  0.18870252771E+04  0.00000000000E+00 0.  1.
<mgrwt>
<rscale>  0 0.16687352E+04</rscale>
<asrwt>0</asrwt>
<pdfrwt beam="1">  1        1 0.46943690E+00 0.16687352E+04</pdfrwt>
<pdfrwt beam="2">  1       -1 0.35100307E-01 0.16687352E+04</pdfrwt>
<totfact> 0.40562768E+00</totfact>
</mgrwt>
</event>
<event>
12    1  0.1201209E-007  0.1600240E+04  0.7818608E-02  0.8820400E-01
          2   -1    0    0  501    0  0.00000000000E+00  0.00000000000E+00  0.68250675526E+03  0.68250675526E+03  0.00000000000E+00 0.  1.
         -2   -1    0    0    0  501 -0.00000000000E+00 -0.00000000000E+00 -0.93800145691E+03  0.93800145691E+03  0.00000000000E+00 0. -1.
         23    2    1    2    0    0 -0.39177227139E+02 -0.29785596319E+03 -0.55015457675E+03  0.63342875237E+03  0.91153146248E+02 0.  0.
        254    2    1    2    0    0  0.39177227139E+02  0.29785596319E+03  0.29465987510E+03  0.98707945980E+03  0.89288766820E+03 0.  0.
        -24    2    4    4    0    0 -0.20187142556E+03  0.28443206998E+03  0.53113799554E+03  0.63993004405E+03  0.75823585288E+02 0.  0.
         24    2    4    4    0    0  0.24104865270E+03  0.13423893218E+02 -0.23647812045E+03  0.34714941574E+03  0.79411343791E+02 0.  0.
         11    1    3    3    0    0 -0.28312973520E+02 -0.21362819517E+03 -0.30092878918E+03  0.37013074231E+03  0.00000000000E+00 0. -1.
        -11    1    3    3    0    0 -0.10864253618E+02 -0.84227768018E+02 -0.24922578757E+03  0.26329801006E+03  0.00000000000E+00 0.  1.
          4    1    6    6  502    0  0.19309224673E+03 -0.86245818980E+00 -0.14013273016E+03  0.23858445390E+03  0.00000000000E+00 0. -1.
          3    1    5    5  503    0 -0.17372946911E+03  0.27793397985E+03  0.49480166936E+03  0.59351319917E+03  0.00000000000E+00 0. -1.
         -4    1    5    5    0  503 -0.28141956451E+02  0.64980901245E+01  0.36336326184E+02  0.46416844881E+02  0.00000000000E+00 0.  1.
         -3    1    6    6    0  502  0.47956405969E+02  0.14286351407E+02 -0.96345390285E+02  0.10856496184E+03  0.00000000000E+00 0.  1.
<mgrwt>
<rscale>  0 0.16002404E+04</rscale>
<asrwt>0</asrwt>
<pdfrwt beam="1">  1        2 0.10500104E+00 0.16002404E+04</pdfrwt>
<pdfrwt beam="2">  1       -2 0.14430792E+00 0.16002404E+04</pdfrwt>
<totfact> 0.13453625E+01</totfact>
</mgrwt>
</event>
<event>
12    1  0.1201209E-007  0.2585005E+04  0.7818608E-02  0.8373313E-01
          2   -1    0    0  501    0  0.00000000000E+00  0.00000000000E+00  0.14684143022E+04  0.14684143022E+04  0.00000000000E+00 0. -1.
         -2   -1    0    0    0  501 -0.00000000000E+00 -0.00000000000E+00 -0.11376641987E+04  0.11376641987E+04  0.00000000000E+00 0.  1.
         23    2    1    2    0    0 -0.89348017573E+03 -0.26897386359E+03  0.79390351440E+03  0.12285261481E+04  0.91323286698E+02 0.  0.
        254    2    1    2    0    0  0.89348017573E+03  0.26897386359E+03 -0.46315341085E+03  0.13775523528E+04  0.90137985277E+03 0.  0.
        -24    2    4    4    0    0 -0.21920949200E+01  0.30936316875E+03  0.75014228666E+02  0.32883383280E+03  0.82426813800E+02 0.  0.
         24    2    4    4    0    0  0.89567227065E+03 -0.40389305157E+02 -0.53816763951E+03  0.10487185200E+04  0.79536240649E+02 0.  0.
         11    1    3    3    0    0 -0.63860622407E+03 -0.15679472594E+03  0.58902062996E+03  0.88280677276E+03  0.00000000000E+00 0.  1.
        -11    1    3    3    0    0 -0.25487395166E+03 -0.11217913765E+03  0.20488288443E+03  0.34571937535E+03  0.00000000000E+00 0. -1.
          2    1    6    6  502    0  0.30827475382E+03  0.18814420580E+02 -0.16296821305E+03  0.34920759546E+03  0.00000000000E+00 0. -1.
          3    1    5    5  503    0 -0.12471736172E+02  0.35886195688E+01 -0.25079463148E+01  0.13217873818E+02  0.00000000000E+00 0. -1.
         -4    1    5    5    0  503  0.10279641252E+02  0.30577454918E+03  0.77522174981E+02  0.31561595898E+03  0.00000000000E+00 0.  1.
         -1    1    6    6    0  502  0.58739751683E+03 -0.59203725737E+02 -0.37519942647E+03  0.69951092453E+03  0.00000000000E+00 0.  1.
<mgrwt>
<rscale>  0 0.25850047E+04</rscale>
<asrwt>0</asrwt>
<pdfrwt beam="1">  1        2 0.22590989E+00 0.25850047E+04</pdfrwt>
<pdfrwt beam="2">  1       -2 0.17502526E+00 0.25850047E+04</pdfrwt>
<totfact> 0.23011480E+00</totfact>
</mgrwt>
</event>
<event>
12    1  0.1201209E-007  0.1565438E+04  0.7818608E-02  0.8842066E-01
         -2   -1    0    0    0  501 -0.00000000000E+00  0.00000000000E+00  0.16809195271E+03  0.16809195271E+03  0.00000000000E+00 0. -1.
          2   -1    0    0  501    0  0.00000000000E+00 -0.00000000000E+00 -0.36447270361E+04  0.36447270361E+04  0.00000000000E+00 0.  1.
         23    2    1    2    0    0 -0.13152855728E+03 -0.14439673102E+03 -0.23350046157E+04  0.23449311497E+04  0.91133771105E+02 0.  0.
        254    2    1    2    0    0  0.13152855728E+03  0.14439673102E+03 -0.11416304676E+04  0.14678878390E+04  0.90178955754E+03 0.  0.
        -24    2    4    4    0    0 -0.33580954232E+03  0.21723203821E+03 -0.32621606132E+03  0.52183866257E+03  0.77077000209E+02 0.  0.
         24    2    4    4    0    0  0.46733809960E+03 -0.72835307189E+02 -0.81541440632E+03  0.94604917648E+03  0.79990680555E+02 0.  0.
         11    1    3    3    0    0 -0.25518476305E+02 -0.85515777171E+02 -0.74909386200E+03  0.75439098276E+03  0.00000000000E+00 0. -1.
        -11    1    3    3    0    0 -0.10601008098E+03 -0.58880953846E+02 -0.15859107537E+04  0.15905401670E+04  0.00000000000E+00 0.  1.
          2    1    6    6  502    0  0.18478716347E+03 -0.41604425321E+02 -0.40127295659E+03  0.44373101050E+03  0.00000000000E+00 0. -1.
          3    1    5    5  503    0 -0.11521663265E+03  0.59399628228E+02 -0.63971317486E+02  0.14455281987E+03  0.00000000000E+00 0. -1.
         -4    1    5    5    0  503 -0.22059290967E+03  0.15783240998E+03 -0.26224474383E+03  0.37728584270E+03  0.00000000000E+00 0.  1.
         -1    1    6    6    0  502  0.28255093613E+03 -0.31230881868E+02 -0.41414144973E+03  0.50231816598E+03  0.00000000000E+00 0.  1.
<mgrwt>
<rscale>  0 0.15654383E+04</rscale>
<asrwt>0</asrwt>
<pdfrwt beam="1">  1        2 0.56072722E+00 0.15654383E+04</pdfrwt>
<pdfrwt beam="2">  1       -2 0.25860301E-01 0.15654383E+04</pdfrwt>
<totfact> 0.84355115E+00</totfact>
</mgrwt>
</event>
<event>
12    1  0.1201209E-007  0.1205380E+04  0.7818608E-02  0.9108160E-01
          2   -1    0    0  501    0  0.00000000000E+00  0.00000000000E+00  0.61125353220E+03  0.61125353220E+03  0.00000000000E+00 0. -1.
         -2   -1    0    0    0  501 -0.00000000000E+00 -0.00000000000E+00 -0.59424639924E+03  0.59424639924E+03  0.00000000000E+00 0.  1.
         23    2    1    2    0    0  0.20704614632E+03 -0.14577137703E+03  0.72245266205E+02  0.27858106925E+03  0.90943018360E+02 0.  0.
        254    2    1    2    0    0 -0.20704614632E+03  0.14577137703E+03 -0.55238133241E+02  0.92691886220E+03  0.88994939444E+03 0.  0.
        -24    2    4    4    0    0 -0.29321723242E+03  0.24610518810E+03 -0.39329513772E+03  0.55540086121E+03  0.85117226670E+02 0.  0.
         24    2    4    4    0    0  0.86171086101E+02 -0.10033381108E+03  0.33805700448E+03  0.37151800099E+03  0.79061729383E+02 0.  0.
         11    1    3    3    0    0  0.16736962393E+03 -0.71720306195E+02  0.68302941165E+02  0.19447798104E+03  0.00000000000E+00 0. -1.
        -11    1    3    3    0    0  0.39676522384E+02 -0.74051070831E+02  0.39423250395E+01  0.84103088209E+02  0.00000000000E+00 0.  1.
          4    1    6    6  502    0  0.92740900795E+02 -0.10816920197E+03  0.30008603558E+03  0.33219434024E+03  0.00000000000E+00 0. -1.
          1    1    5    5  503    0 -0.22749522142E+03  0.14021936132E+03 -0.25801634064E+03  0.37146732978E+03  0.00000000000E+00 0. -1.
         -2    1    5    5    0  503 -0.65722011002E+02  0.10588582678E+03 -0.13527879708E+03  0.18393353143E+03  0.00000000000E+00 0.  1.
         -3    1    6    6    0  502 -0.65698146938E+01  0.78353908910E+01  0.37970968898E+02  0.39323660747E+02  0.00000000000E+00 0.  1.
<mgrwt>
<rscale>  0 0.12053800E+04</rscale>
<asrwt>0</asrwt>
<pdfrwt beam="1">  1        2 0.94039005E-01 0.12053800E+04</pdfrwt>
<pdfrwt beam="2">  1       -2 0.91422523E-01 0.12053800E+04</pdfrwt>
<totfact> 0.48765373E+01</totfact>
</mgrwt>
</event>
<event>
12    1  0.1201209E-007  0.1394217E+04  0.7818608E-02  0.8958015E-01
         -1   -1    0    0    0  501 -0.00000000000E+00  0.00000000000E+00  0.47687520480E+03  0.47687520480E+03  0.00000000000E+00 0.  1.
          1   -1    0    0  501    0  0.00000000000E+00 -0.00000000000E+00 -0.10190515522E+04  0.10190515522E+04  0.00000000000E+00 0. -1.
         23    2    1    2    0    0  0.16916971450E+03  0.11501604426E+03 -0.53554031511E+03  0.58042714353E+03  0.90802847417E+02 0.  0.
        254    2    1    2    0    0 -0.16916971450E+03 -0.11501604426E+03 -0.66360322466E+01  0.91549961342E+03  0.89232753096E+03 0.  0.
        -24    2    4    4    0    0  0.26447677802E+03  0.18965637181E+03 -0.13908077840E+03  0.36299840725E+03  0.80665204801E+02 0.  0.
         24    2    4    4    0    0 -0.43364649252E+03 -0.30467241607E+03  0.13244474615E+03  0.55250120617E+03  0.82712819112E+02 0.  0.
         11    1    3    3    0    0  0.16490276076E+03  0.77237555310E+02 -0.47750579711E+03  0.51104828219E+03  0.00000000000E+00 0. -1.
        -11    1    3    3    0    0  0.42669537447E+01  0.37778488951E+02 -0.58034517998E+02  0.69378861341E+02  0.00000000000E+00 0.  1.
          2    1    6    6  502    0 -0.43662261282E+03 -0.30110713274E+03  0.12705720651E+03  0.54538825174E+03  0.00000000000E+00 0. -1.
          3    1    5    5  503    0  0.18031935768E+03  0.17202159045E+03 -0.10726439716E+03  0.27131558973E+03  0.00000000000E+00 0. -1.
         -4    1    5    5    0  503  0.84157420347E+02  0.17634781359E+02 -0.31816381239E+02  0.91682817519E+02  0.00000000000E+00 0.  1.
         -1    1    6    6    0  502  0.29761202975E+01 -0.35652833270E+01  0.53875396483E+01  0.71129544276E+01  0.00000000000E+00 0.  1.
<mgrwt>
<rscale>  0 0.13942172E+04</rscale>
<asrwt>0</asrwt>
<pdfrwt beam="1">  1        1 0.15677716E+00 0.13942172E+04</pdfrwt>
<pdfrwt beam="2">  1       -1 0.73365416E-01 0.13942172E+04</pdfrwt>
<totfact> 0.26708629E+01</totfact>
</mgrwt>
</event>
<event>
12    1  0.1201209E-007  0.1655952E+04  0.7818608E-02  0.8786893E-01
          2   -1    0    0  501    0  0.00000000000E+00  0.00000000000E+00  0.26458827176E+04  0.26458827176E+04  0.00000000000E+00 0.  1.
         -2   -1    0    0    0  501 -0.00000000000E+00 -0.00000000000E+00 -0.25909859099E+03  0.25909859099E+03  0.00000000000E+00 0. -1.
         23    2    1    2    0    0  0.36543639481E+03 -0.11038053704E+03  0.92354551436E+02  0.40316088857E+03  0.91003941088E+02 0.  0.
        254    2    1    2    0    0 -0.36543639481E+03  0.11038053704E+03  0.22944295752E+04  0.25018204200E+04  0.92139606956E+03 0.  0.
        -24    2    4    4    0    0  0.12542417709E+03  0.62578057576E+02  0.17700728562E+04  0.17772819734E+04  0.76980900766E+02 0.  0.
         24    2    4    4    0    0 -0.49086057189E+03  0.47802479459E+02  0.52435671899E+03  0.72453844668E+03  0.82321405982E+02 0.  0.
         11    1    3    3    0    0  0.27201866835E+03 -0.10756603090E+03  0.10061908621E+03  0.30933607524E+03  0.00000000000E+00 0. -1.
        -11    1    3    3    0    0  0.93417726458E+02 -0.28145061372E+01 -0.82645347732E+01  0.93824813330E+02  0.00000000000E+00 0.  1.
          4    1    6    6  502    0 -0.91623643540E+01  0.20867790212E+01 -0.19642457648E+01  0.96000952424E+01  0.00000000000E+00 0. -1.
          1    1    5    5  503    0  0.15409006990E+01  0.17911410161E+02  0.51613491911E+03  0.51644791385E+03  0.00000000000E+00 0. -1.
         -2    1    5    5    0  503  0.12388327639E+03  0.44666647416E+02  0.12539379371E+04  0.12608340595E+04  0.00000000000E+00 0.  1.
         -3    1    6    6    0  502 -0.48169820754E+03  0.45715700438E+02  0.52632096476E+03  0.71493835144E+03  0.00000000000E+00 0.  1.
<mgrwt>
<rscale>  0 0.16559523E+04</rscale>
<asrwt>0</asrwt>
<pdfrwt beam="1">  1        2 0.40705886E+00 0.16559523E+04</pdfrwt>
<pdfrwt beam="2">  1       -2 0.39861324E-01 0.16559523E+04</pdfrwt>
<totfact> 0.16301345E+01</totfact>
</mgrwt>
</event>
<event>
12    1  0.1201209E-007  0.2277910E+04  0.7818608E-02  0.8486682E-01
          1   -1    0    0  501    0  0.00000000000E+00  0.00000000000E+00  0.13524389832E+04  0.13524389832E+04  0.00000000000E+00 0. -1.
         -1   -1    0    0    0  501 -0.00000000000E+00 -0.00000000000E+00 -0.95916933473E+03  0.95916933473E+03  0.00000000000E+00 0.  1.
         23    2    1    2    0    0  0.96074851028E+02 -0.33370987700E+03 -0.75109871750E+03  0.83265639322E+03  0.92599820424E+02 0.  0.
        254    2    1    2    0    0 -0.96074851028E+02  0.33370987700E+03  0.11443683660E+04  0.14789519247E+04  0.87013055316E+03 0.  0.
        -24    2    4    4    0    0  0.33944929253E+03  0.32934243966E+03  0.46854264471E+03  0.67068001784E+03  0.81161639139E+02 0.  0.
         24    2    4    4    0    0 -0.43552414355E+03  0.43674373375E+01  0.67582572125E+03  0.80827190685E+03  0.82841509981E+02 0.  0.
         11    1    3    3    0    0  0.13737929357E+02 -0.36055221113E+02 -0.17284738702E+03  0.17710146491E+03  0.00000000000E+00 0. -1.
        -11    1    3    3    0    0  0.82336921671E+02 -0.29765465589E+03 -0.57825133048E+03  0.65555492832E+03  0.00000000000E+00 0.  1.
          4    1    6    6  502    0 -0.33735478075E+03  0.23879826860E+02  0.46593321294E+03  0.57573627048E+03  0.00000000000E+00 0. -1.
          3    1    5    5  503    0  0.30332851195E+03  0.26087385976E+03  0.36630688528E+03  0.54244270764E+03  0.00000000000E+00 0. -1.
         -4    1    5    5    0  503  0.36120780579E+02  0.68468579906E+02  0.10223575942E+03  0.12823731020E+03  0.00000000000E+00 0.  1.
         -3    1    6    6    0  502 -0.98169362802E+02 -0.19512389522E+02  0.20989250831E+03  0.23253563637E+03  0.00000000000E+00 0.  1.
<mgrwt>
<rscale>  0 0.22779096E+04</rscale>
<asrwt>0</asrwt>
<pdfrwt beam="1">  1        1 0.20806754E+00 0.22779096E+04</pdfrwt>
<pdfrwt beam="2">  1       -1 0.14756451E+00 0.22779096E+04</pdfrwt>
<totfact> 0.27408847E+00</totfact>
</mgrwt>
</event>
<event>
12    1  0.1201209E-007  0.1686316E+04  0.7818608E-02  0.8769208E-01
         -2   -1    0    0    0  501 -0.00000000000E+00  0.00000000000E+00  0.16253408991E+03  0.16253408991E+03  0.00000000000E+00 0.  1.
          2   -1    0    0  501    0  0.00000000000E+00 -0.00000000000E+00 -0.43739456359E+04  0.43739456359E+04  0.00000000000E+00 0. -1.
         23    2    1    2    0    0 -0.19282789672E+03 -0.39473759054E+03 -0.41827522051E+03  0.61312245546E+03  0.89244731786E+02 0.  0.
        254    2    1    2    0    0  0.19282789672E+03  0.39473759054E+03 -0.37931363255E+04  0.39233572704E+04  0.90102648354E+03 0.  0.
        -24    2    4    4    0    0 -0.21787123920E+03  0.28321490026E+03 -0.29766502424E+04  0.29991019993E+04  0.80545515771E+02 0.  0.
         24    2    4    4    0    0  0.41069913593E+03  0.11152269029E+03 -0.81648608309E+03  0.92425527105E+03  0.80543103296E+02 0.  0.
         11    1    3    3    0    0 -0.91767527845E+02 -0.10557731470E+03 -0.15934187104E+03  0.21203226267E+03  0.00000000000E+00 0. -1.
        -11    1    3    3    0    0 -0.10106036888E+03 -0.28916027584E+03 -0.25893334947E+03  0.40109019279E+03  0.00000000000E+00 0.  1.
          2    1    6    6  502    0  0.20469871174E+03  0.17885837221E+02 -0.35208500492E+03  0.40765833298E+03  0.00000000000E+00 0. -1.
          3    1    5    5  503    0 -0.13672777388E+03  0.21694469632E+03 -0.18694092130E+04  0.18869155495E+04  0.00000000000E+00 0. -1.
         -4    1    5    5    0  503 -0.81143465325E+02  0.66270203933E+02 -0.11072410294E+04  0.11121864498E+04  0.00000000000E+00 0.  1.
         -1    1    6    6    0  502  0.20600042419E+03  0.93636853065E+02 -0.46440107817E+03  0.51659693807E+03  0.00000000000E+00 0.  1.
<mgrwt>
<rscale>  0 0.16863158E+04</rscale>
<asrwt>0</asrwt>
<pdfrwt beam="1">  1        2 0.67291459E+00 0.16863158E+04</pdfrwt>
<pdfrwt beam="2">  1       -2 0.25005249E-01 0.16863158E+04</pdfrwt>
<totfact> 0.22721035E+00</totfact>
</mgrwt>
</event>
<event>
12    1  0.1201209E-007  0.1470961E+04  0.7818608E-02  0.8903997E-01
         -1   -1    0    0    0  501 -0.00000000000E+00  0.00000000000E+00  0.21112166734E+03  0.21112166734E+03  0.00000000000E+00 0.  1.
          1   -1    0    0  501    0  0.00000000000E+00 -0.00000000000E+00 -0.25621788220E+04  0.25621788220E+04  0.00000000000E+00 0. -1.
         23    2    1    2    0    0 -0.40045791242E+02  0.16868439247E+03  0.42978065229E+02  0.19485137489E+03  0.77857912560E+02 0.  0.
        254    2    1    2    0    0  0.40045791242E+02 -0.16868439247E+03 -0.23940352199E+04  0.25784491145E+04  0.94177338680E+03 0.  0.
        -24    2    4    4    0    0  0.92855064257E+02 -0.55041174006E+03 -0.13839317148E+04  0.14943947069E+04  0.79833590144E+02 0.  0.
         24    2    4    4    0    0 -0.52809273015E+02  0.38172734759E+03 -0.10101035051E+04  0.10840544076E+04  0.79751366123E+02 0.  0.
         11    1    3    3    0    0 -0.10598928495E+02  0.15144889817E+03  0.18681070772E+02  0.15296433717E+03  0.00000000000E+00 0.  1.
        -11    1    3    3    0    0 -0.29446862746E+02  0.17235494302E+02  0.24296994457E+02  0.41887037722E+02  0.00000000000E+00 0. -1.
          2    1    6    6  502    0 -0.67862653288E+02  0.35911841935E+03 -0.95689285616E+03  0.10243121189E+04  0.00000000000E+00 0. -1.
          1    1    5    5  503    0  0.88386400536E+02 -0.43294545546E+03 -0.10102570537E+04  0.11026664218E+04  0.00000000000E+00 0. -1.
         -2    1    5    5    0  503  0.44686637212E+01 -0.11746628460E+03 -0.37367466112E+03  0.39172828509E+03  0.00000000000E+00 0.  1.
         -1    1    6    6    0  502  0.15053380273E+02  0.22608928248E+02 -0.53210648944E+02  0.59742288667E+02  0.00000000000E+00 0.  1.
<mgrwt>
<rscale>  0 0.14709609E+04</rscale>
<asrwt>0</asrwt>
<pdfrwt beam="1">  1        1 0.39418135E+00 0.14709609E+04</pdfrwt>
<pdfrwt beam="2">  1       -1 0.32480257E-01 0.14709609E+04</pdfrwt>
<totfact> 0.10577694E+01</totfact>
</mgrwt>
</event>
<event>
12    1  0.1201209E-007  0.2975629E+04  0.7818608E-02  0.8250725E-01
         -1   -1    0    0    0  501 -0.00000000000E+00  0.00000000000E+00  0.23342142762E+04  0.23342142762E+04  0.00000000000E+00 0.  1.
          1   -1    0    0  501    0  0.00000000000E+00 -0.00000000000E+00 -0.94832400006E+03  0.94832400006E+03  0.00000000000E+00 0. -1.
         23    2    1    2    0    0  0.84251124388E+03 -0.74427539923E+03  0.14545330323E+04  0.18404964828E+04  0.89386213403E+02 0.  0.
        254    2    1    2    0    0 -0.84251124388E+03  0.74427539923E+03 -0.68642756122E+02  0.14420417935E+04  0.90055629488E+03 0.  0.
        -24    2    4    4    0    0 -0.16336058239E+03  0.45869301939E+03  0.33636169671E+03  0.59744238384E+03  0.81928292330E+02 0.  0.
         24    2    4    4    0    0 -0.67915066149E+03  0.28558237985E+03 -0.40500445283E+03  0.84459940965E+03  0.80725704008E+02 0.  0.
         11    1    3    3    0    0  0.57410612298E+03 -0.55549532027E+03  0.10007262782E+04  0.12804788070E+04  0.00000000000E+00 0.  1.
        -11    1    3    3    0    0  0.26840512090E+03 -0.18878007896E+03  0.45380675402E+03  0.56001767574E+03  0.00000000000E+00 0. -1.
          4    1    6    6  502    0 -0.65569584913E+02  0.12943798667E+02 -0.59545657360E+02  0.89513114682E+02  0.00000000000E+00 0. -1.
          3    1    5    5  503    0 -0.24878519013E+02  0.28624527153E+02  0.76089371226E+01  0.38680746982E+02  0.00000000000E+00 0. -1.
         -4    1    5    5    0  503 -0.13848206338E+03  0.43006849224E+03  0.32875275959E+03  0.55876163686E+03  0.00000000000E+00 0.  1.
         -3    1    6    6    0  502 -0.61358107658E+03  0.27263858118E+03 -0.34545879547E+03  0.75508629497E+03  0.00000000000E+00 0.  1.
<mgrwt>
<rscale>  0 0.29756286E+04</rscale>
<asrwt>0</asrwt>
<pdfrwt beam="1">  1        1 0.14589600E+00 0.29756286E+04</pdfrwt>
<pdfrwt beam="2">  1       -1 0.35910989E+00 0.29756286E+04</pdfrwt>
<totfact> 0.19156418E-01</totfact>
</mgrwt>
</event>
<event>
12    1  0.1201209E-007  0.2019631E+04  0.7818608E-02  0.8597497E-01
         -2   -1    0    0    0  501 -0.00000000000E+00  0.00000000000E+00  0.43703692765E+03  0.43703692765E+03  0.00000000000E+00 0.  1.
          2   -1    0    0  501    0  0.00000000000E+00 -0.00000000000E+00 -0.23332752204E+04  0.23332752204E+04  0.00000000000E+00 0. -1.
         23    2    1    2    0    0 -0.51028831709E+03  0.60373573095E+03 -0.97326737064E+03  0.12572264670E+04  0.92076137527E+02 0.  0.
        254    2    1    2    0    0  0.51028831709E+03 -0.60373573095E+03 -0.92297092209E+03  0.15130856811E+04  0.90147765132E+03 0.  0.
        -24    2    4    4    0    0  0.41903932313E+03 -0.57367925636E+03 -0.10900485390E+04  0.13035928281E+04  0.80290724009E+02 0.  0.
         24    2    4    4    0    0  0.91248993958E+02 -0.30056474584E+02  0.16707761695E+03  0.20949285301E+03  0.82113061149E+02 0.  0.
         13    1    3    3    0    0 -0.23294131352E+03  0.26550797802E+03 -0.50707544040E+03  0.61796573060E+03  0.00000000000E+00 0.  1.
        -13    1    3    3    0    0 -0.27734700357E+03  0.33822775292E+03 -0.46619193024E+03  0.63926073636E+03  0.00000000000E+00 0. -1.
          2    1    6    6  502    0  0.39458656303E+02  0.97107711720E+01  0.13848320293E+02  0.42930881763E+02  0.00000000000E+00 0. -1.
          3    1    5    5  503    0 -0.20782678371E+01 -0.65159085387E+00 -0.10681568069E+00  0.21806369329E+01  0.00000000000E+00 0. -1.
         -4    1    5    5    0  503  0.42111759097E+03 -0.57302766551E+03 -0.10899417234E+04  0.13014121911E+04  0.00000000000E+00 0.  1.
         -1    1    6    6    0  502  0.51790337655E+02 -0.39767245756E+02  0.15322929666E+03  0.16656197124E+03  0.00000000000E+00 0.  1.
<mgrwt>
<rscale>  0 0.20196311E+04</rscale>
<asrwt>0</asrwt>
<pdfrwt beam="1">  1        2 0.35896541E+00 0.20196311E+04</pdfrwt>
<pdfrwt beam="2">  1       -2 0.67236451E-01 0.20196311E+04</pdfrwt>
<totfact> 0.81714569E+00</totfact>
</mgrwt>
</event>
<event>
12    1  0.1201209E-007  0.1102337E+04  0.7818608E-02  0.9202917E-01
         -1   -1    0    0    0  501 -0.00000000000E+00  0.00000000000E+00  0.25965641942E+03  0.25965641942E+03  0.00000000000E+00 0.  1.
          1   -1    0    0  501    0  0.00000000000E+00 -0.00000000000E+00 -0.11699566662E+04  0.11699566662E+04  0.00000000000E+00 0. -1.
         23    2    1    2    0    0  0.15683074156E+01 -0.79415877532E+02 -0.32285298974E+03  0.34459045162E+03  0.90549352143E+02 0.  0.
        254    2    1    2    0    0 -0.15683074156E+01  0.79415877532E+02 -0.58744725703E+03  0.10850226340E+04  0.90877417176E+03 0.  0.
        -24    2    4    4    0    0 -0.20277303056E+03  0.40495670155E+01  0.18079391710E+03  0.28324948847E+03  0.80065793833E+02 0.  0.
         24    2    4    4    0    0  0.20120472314E+03  0.75366310517E+02 -0.76824117413E+03  0.80177314551E+03  0.80512445312E+02 0.  0.
         13    1    3    3    0    0 -0.10166016070E+02  0.16733174058E+02 -0.27486467047E+02  0.33746894191E+02  0.00000000000E+00 0.  1.
        -13    1    3    3    0    0  0.11734323486E+02 -0.96149051591E+02 -0.29536652269E+03  0.31084355743E+03  0.00000000000E+00 0. -1.
          4    1    6    6  502    0  0.10310267324E+03  0.80033420892E+02 -0.46930972046E+03  0.48712126150E+03  0.00000000000E+00 0. -1.
          3    1    5    5  503    0 -0.17697301168E+03  0.19614110854E+02  0.11801982873E+03  0.21361844532E+03  0.00000000000E+00 0. -1.
         -4    1    5    5    0  503 -0.25800018879E+02 -0.15564543838E+02  0.62774088374E+02  0.69631043150E+02  0.00000000000E+00 0.  1.
         -3    1    6    6    0  502  0.98102049899E+02 -0.46671103748E+01 -0.29893145367E+03  0.31465188400E+03  0.00000000000E+00 0.  1.
<mgrwt>
<rscale>  0 0.11023371E+04</rscale>
<asrwt>0</asrwt>
<pdfrwt beam="1">  1        1 0.17999333E+00 0.11023371E+04</pdfrwt>
<pdfrwt beam="2">  1       -1 0.39947142E-01 0.11023371E+04</pdfrwt>
<totfact> 0.68347757E+01</totfact>
</mgrwt>
</event>
<event>
12    1  0.1201209E-007  0.3237893E+04  0.7818608E-02  0.8178881E-01
         -2   -1    0    0    0  501 -0.00000000000E+00  0.00000000000E+00  0.11649211045E+04  0.11649211045E+04  0.00000000000E+00 0.  1.
          2   -1    0    0  501    0  0.00000000000E+00 -0.00000000000E+00 -0.22499275108E+04  0.22499275108E+04  0.00000000000E+00 0. -1.
         23    2    1    2    0    0  0.82492010688E+03 -0.76445373017E+03 -0.15275260184E+04  0.18990355648E+04  0.90098007326E+02 0.  0.
        254    2    1    2    0    0 -0.82492010688E+03  0.76445373017E+03  0.44251961211E+03  0.15158130506E+04  0.91486770017E+03 0.  0.
        -24    2    4    4    0    0 -0.40646879057E+03  0.13972656339E+03  0.60101051323E+03  0.74324287926E+03  0.80348928655E+02 0.  0.
         24    2    4    4    0    0 -0.41845131631E+03  0.62472716678E+03 -0.15849090112E+03  0.77257017129E+03  0.79748146059E+02 0.  0.
         11    1    3    3    0    0  0.70002447610E+03 -0.60391606507E+03 -0.12698915356E+04  0.15707875073E+04  0.00000000000E+00 0. -1.
        -11    1    3    3    0    0  0.12489563078E+03 -0.16053766511E+03 -0.25763448282E+03  0.32824805749E+03  0.00000000000E+00 0.  1.
          2    1    6    6  502    0 -0.18904804681E+03  0.25603533729E+03 -0.29751025216E+02  0.31965353345E+03  0.00000000000E+00 0. -1.
          1    1    5    5  503    0 -0.36049082638E+02  0.37408373242E+02  0.89104111630E+02  0.10314293702E+03  0.00000000000E+00 0. -1.
         -2    1    5    5    0  503 -0.37041970793E+03  0.10231819015E+03  0.51190640160E+03  0.64009994224E+03  0.00000000000E+00 0.  1.
         -1    1    6    6    0  502 -0.22940326950E+03  0.36869182949E+03 -0.12873987590E+03  0.45291663785E+03  0.00000000000E+00 0.  1.
<mgrwt>
<rscale>  0 0.32378932E+04</rscale>
<asrwt>0</asrwt>
<pdfrwt beam="1">  1        2 0.34614269E+00 0.32378932E+04</pdfrwt>
<pdfrwt beam="2">  1       -2 0.17921863E+00 0.32378932E+04</pdfrwt>
<totfact> 0.74586897E-01</totfact>
</mgrwt>
</event>
<event>
12    1  0.1201209E-007  0.2190204E+04  0.7818608E-02  0.8522516E-01
          2   -1    0    0  501    0  0.00000000000E+00  0.00000000000E+00  0.19250873426E+04  0.19250873426E+04  0.00000000000E+00 0. -1.
         -2   -1    0    0    0  501 -0.00000000000E+00 -0.00000000000E+00 -0.62295793534E+03  0.62295793534E+03  0.00000000000E+00 0.  1.
         23    2    1    2    0    0 -0.74487295769E+03 -0.42549590658E+03  0.29587097011E+03  0.91327456800E+03  0.10319067780E+03 0.  0.
        254    2    1    2    0    0  0.74487295769E+03  0.42549590658E+03  0.10062584371E+04  0.16347707099E+04  0.96126829872E+03 0.  0.
        -24    2    4    4    0    0  0.22029974199E+02  0.54265271913E+03  0.37935702551E+03  0.66723201844E+03  0.79558282303E+02 0.  0.
         24    2    4    4    0    0  0.72284298349E+03 -0.11715681255E+03  0.62690141164E+03  0.96753869150E+03  0.83054452823E+02 0.  0.
         13    1    3    3    0    0 -0.59508143142E+03 -0.32059864925E+03  0.19075849516E+03  0.70234906378E+03  0.00000000000E+00 0. -1.
        -13    1    3    3    0    0 -0.14979152627E+03 -0.10489725734E+03  0.10511247495E+03  0.21092550422E+03  0.00000000000E+00 0.  1.
          4    1    6    6  502    0  0.12435932568E+03 -0.47338810117E+02  0.91465712966E+02  0.16146882509E+03  0.00000000000E+00 0. -1.
          1    1    5    5  503    0  0.50527705602E+02  0.34686268354E+03  0.25632204986E+03  0.43424389865E+03  0.00000000000E+00 0. -1.
         -2    1    5    5    0  503 -0.28497731403E+02  0.19579003559E+03  0.12303497564E+03  0.23298811979E+03  0.00000000000E+00 0.  1.
         -3    1    6    6    0  502  0.59848365781E+03 -0.69818002428E+02  0.53543569867E+03  0.80606986641E+03  0.00000000000E+00 0.  1.
<mgrwt>
<rscale>  0 0.21902040E+04</rscale>
<asrwt>0</asrwt>
<pdfrwt beam="1">  1        2 0.29616728E+00 0.21902040E+04</pdfrwt>
<pdfrwt beam="2">  1       -2 0.95839683E-01 0.21902040E+04</pdfrwt>
<totfact> 0.61414150E+00</totfact>
</mgrwt>
</event>
<event>
12    1  0.1201209E-007  0.1193216E+04  0.7818608E-02  0.9118815E-01
         -1   -1    0    0    0  501 -0.00000000000E+00  0.00000000000E+00  0.18777673301E+03  0.18777673301E+03  0.00000000000E+00 0.  1.
          1   -1    0    0  501    0  0.00000000000E+00 -0.00000000000E+00 -0.18955546448E+04  0.18955546448E+04  0.00000000000E+00 0. -1.
         23    2    1    2    0    0  0.47330132314E+02 -0.18726319397E+03 -0.62609090306E+03  0.66143149361E+03  0.90521580860E+02 0.  0.
        254    2    1    2    0    0 -0.47330132314E+02  0.18726319397E+03 -0.10816870087E+04  0.14218998842E+04  0.90246598306E+03 0.  0.
        -24    2    4    4    0    0 -0.16115791176E+03 -0.28210068123E+02  0.10347141424E+03  0.20943633692E+03  0.79934755848E+02 0.  0.
         24    2    4    4    0    0  0.11382777945E+03  0.21547326209E+03 -0.11851584230E+04  0.12124635473E+04  0.77986382615E+02 0.  0.
         11    1    3    3    0    0  0.37817610236E+01  0.20968524914E+01 -0.10826965006E+03  0.10835596721E+03  0.00000000000E+00 0.  1.
        -11    1    3    3    0    0  0.43548371291E+02 -0.18936004646E+03 -0.51782125300E+03  0.55307552639E+03  0.00000000000E+00 0. -1.
          2    1    6    6  502    0  0.18577581533E+02 -0.16966226043E+01 -0.79278303575E+02  0.81443566238E+02  0.00000000000E+00 0. -1.
          1    1    5    5  503    0  0.85245008362E+01  0.19604485234E+01  0.10323739225E+02  0.13531077729E+02  0.00000000000E+00 0. -1.
         -2    1    5    5    0  503 -0.16968241260E+03 -0.30170516646E+02  0.93147675019E+02  0.19590525920E+03  0.00000000000E+00 0.  1.
         -1    1    6    6    0  502  0.95250197912E+02  0.21716988469E+03 -0.11058801194E+04  0.11310199810E+04  0.00000000000E+00 0.  1.
<mgrwt>
<rscale>  0 0.11932159E+04</rscale>
<asrwt>0</asrwt>
<pdfrwt beam="1">  1        1 0.29162380E+00 0.11932159E+04</pdfrwt>
<pdfrwt beam="2">  1       -1 0.28888728E-01 0.11932159E+04</pdfrwt>
<totfact> 0.37923375E+01</totfact>
</mgrwt>
</event>
<event>
12    1  0.1201209E-007  0.3212818E+04  0.7818608E-02  0.8185440E-01
          1   -1    0    0  501    0  0.00000000000E+00  0.00000000000E+00  0.12520953869E+04  0.12520953869E+04  0.00000000000E+00 0. -1.
         -1   -1    0    0    0  501 -0.00000000000E+00 -0.00000000000E+00 -0.20609851362E+04  0.20609851362E+04  0.00000000000E+00 0.  1.
         23    2    1    2    0    0  0.64429679099E+03 -0.13114857247E+04 -0.60924333391E+03  0.15858064580E+04  0.92149451279E+02 0.  0.
        254    2    1    2    0    0 -0.64429679099E+03  0.13114857247E+04 -0.19964641541E+03  0.17272740651E+04  0.89916841789E+03 0.  0.
        -24    2    4    4    0    0  0.15797988921E+03  0.22463585794E+03  0.15914638166E+03  0.32725373299E+03  0.79677605963E+02 0.  0.
         24    2    4    4    0    0 -0.80227668020E+03  0.10868498668E+04 -0.35879279707E+03  0.14000203321E+04  0.80213181911E+02 0.  0.
         13    1    3    3    0    0  0.33699660767E+03 -0.73701132901E+03 -0.38083948283E+03  0.89542790014E+03  0.00000000000E+00 0. -1.
        -13    1    3    3    0    0  0.30730018332E+03 -0.57447439568E+03 -0.22840385108E+03  0.69037855786E+03  0.00000000000E+00 0.  1.
          2    1    6    6  502    0 -0.37789489465E+03  0.44737378455E+03 -0.16610016773E+03  0.60871760302E+03  0.00000000000E+00 0. -1.
          3    1    5    5  503    0  0.14219552011E+03  0.18024808537E+03  0.16050006587E+03  0.28012356089E+03  0.00000000000E+00 0. -1.
         -4    1    5    5    0  503  0.15784369095E+02  0.44387772566E+02 -0.13536842076E+01  0.47130172098E+02  0.00000000000E+00 0.  1.
         -3    1    6    6    0  502 -0.42438178555E+03  0.63947608220E+03 -0.19269262934E+03  0.79130272906E+03  0.00000000000E+00 0.  1.
<mgrwt>
<rscale>  0 0.32128181E+04</rscale>
<asrwt>0</asrwt>
<pdfrwt beam="1">  1        1 0.19263006E+00 0.32128181E+04</pdfrwt>
<pdfrwt beam="2">  1       -1 0.31707464E+00 0.32128181E+04</pdfrwt>
<totfact> 0.20925761E-01</totfact>
</mgrwt>
</event>
<event>
12    1  0.1201209E-007  0.1763233E+04  0.7818608E-02  0.8726100E-01
         -2   -1    0    0    0  501 -0.00000000000E+00  0.00000000000E+00  0.45255815353E+03  0.45255815353E+03  0.00000000000E+00 0.  1.
          2   -1    0    0  501    0  0.00000000000E+00 -0.00000000000E+00 -0.17174532837E+04  0.17174532837E+04  0.00000000000E+00 0. -1.
         23    2    1    2    0    0  0.50365798721E+03 -0.37408736017E+03 -0.28712671807E+03  0.69622223058E+03  0.93117780284E+02 0.  0.
        254    2    1    2    0    0 -0.50365798721E+03  0.37408736017E+03 -0.97776841213E+03  0.14737892067E+04  0.90686869879E+03 0.  0.
        -24    2    4    4    0    0 -0.36353320898E+03  0.61194056540E+03 -0.94438983672E+03  0.11851405142E+04  0.77834601370E+02 0.  0.
         24    2    4    4    0    0 -0.14012477823E+03 -0.23785320524E+03 -0.33378575411E+02  0.28864869244E+03  0.77426336856E+02 0.  0.
         11    1    3    3    0    0  0.49428328619E+03 -0.35443461407E+03 -0.26007873532E+03  0.66149891249E+03  0.00000000000E+00 0.  1.
        -11    1    3    3    0    0  0.93747010170E+01 -0.19652746097E+02 -0.27047982745E+02  0.34723318086E+02  0.00000000000E+00 0. -1.
          2    1    6    6  502    0 -0.14751888284E+02 -0.49067856143E+02  0.21354417630E+02  0.55509313334E+02  0.00000000000E+00 0. -1.
          1    1    5    5  503    0 -0.22188938834E+02  0.32676449153E+02 -0.27413047287E+02  0.48078836273E+02  0.00000000000E+00 0. -1.
         -2    1    5    5    0  503 -0.34134427015E+03  0.57926411625E+03 -0.91697678943E+03  0.11370616780E+04  0.00000000000E+00 0.  1.
         -1    1    6    6    0  502 -0.12537288994E+03 -0.18878534909E+03 -0.54732993041E+02  0.23313937911E+03  0.00000000000E+00 0.  1.
<mgrwt>
<rscale>  0 0.17632328E+04</rscale>
<asrwt>0</asrwt>
<pdfrwt beam="1">  1        2 0.26422358E+00 0.17632328E+04</pdfrwt>
<pdfrwt beam="2">  1       -2 0.69624332E-01 0.17632328E+04</pdfrwt>
<totfact> 0.17077033E+01</totfact>
</mgrwt>
</event>
<event>
12    1  0.1201209E-007  0.2539323E+04  0.7818608E-02  0.8389109E-01
         -1   -1    0    0    0  501 -0.00000000000E+00  0.00000000000E+00  0.25550647502E+04  0.25550647502E+04  0.00000000000E+00 0.  1.
          1   -1    0    0  501    0  0.00000000000E+00 -0.00000000000E+00 -0.63091973262E+03  0.63091973262E+03  0.00000000000E+00 0. -1.
         23    2    1    2    0    0 -0.50629872512E+03  0.89012003192E+03  0.31195167466E+03  0.10745217987E+04  0.92904134983E+02 0.  0.
        254    2    1    2    0    0  0.50629872512E+03 -0.89012003192E+03  0.16121933429E+04  0.21114626841E+04  0.90025286512E+03 0.  0.
        -24    2    4    4    0    0  0.23322944145E+03 -0.39860251363E+00  0.91030703462E+03  0.94306966883E+03  0.79532205789E+02 0.  0.
         24    2    4    4    0    0  0.27306928367E+03 -0.88972142940E+03  0.70188630833E+03  0.11683930153E+04  0.79541138704E+02 0.  0.
         13    1    3    3    0    0 -0.46785946648E+03  0.85074792070E+03  0.27824013905E+03  0.10099911286E+04  0.00000000000E+00 0.  1.
        -13    1    3    3    0    0 -0.38439258642E+02  0.39372111215E+02  0.33711535604E+02  0.64530670067E+02  0.00000000000E+00 0. -1.
          4    1    6    6  502    0  0.11661379801E+03 -0.50979585332E+03  0.38007937180E+03  0.64649123646E+03  0.00000000000E+00 0. -1.
          1    1    5    5  503    0  0.23400893112E+03 -0.63355255933E+01  0.90583898117E+03  0.93559851354E+03  0.00000000000E+00 0. -1.
         -2    1    5    5    0  503 -0.77948967357E+00  0.59369230797E+01  0.44680534437E+01  0.74711552909E+01  0.00000000000E+00 0.  1.
         -3    1    6    6    0  502  0.15645548566E+03 -0.37992557609E+03  0.32180693653E+03  0.52190177884E+03  0.00000000000E+00 0.  1.
<mgrwt>
<rscale>  0 0.25393234E+04</rscale>
<asrwt>0</asrwt>
<pdfrwt beam="1">  1        1 0.97064576E-01 0.25393234E+04</pdfrwt>
<pdfrwt beam="2">  1       -1 0.39308688E+00 0.25393234E+04</pdfrwt>
<totfact> 0.22473222E-01</totfact>
</mgrwt>
</event>
<event>
12    1  0.1201209E-007  0.2220460E+04  0.7818608E-02  0.8509960E-01
         -2   -1    0    0    0  501 -0.00000000000E+00  0.00000000000E+00  0.86957600702E+03  0.86957600702E+03  0.00000000000E+00 0.  1.
          2   -1    0    0  501    0  0.00000000000E+00 -0.00000000000E+00 -0.14174840415E+04  0.14174840415E+04  0.00000000000E+00 0. -1.
         23    2    1    2    0    0  0.37505320480E+03  0.82811078317E+03 -0.42070196147E+03  0.10056077308E+04  0.88455594554E+02 0.  0.
        254    2    1    2    0    0 -0.37505320480E+03 -0.82811078317E+03 -0.12720607303E+03  0.12814523178E+04  0.89415115166E+03 0.  0.
        -24    2    4    4    0    0  0.15766106370E+03  0.71212482627E+02  0.88263240456E+02  0.21155592266E+03  0.83888498054E+02 0.  0.
         24    2    4    4    0    0 -0.53271426851E+03 -0.89932326580E+03 -0.21546931348E+03  0.10698963951E+04  0.75395244656E+02 0.  0.
         11    1    3    3    0    0  0.17501091849E+03  0.46146856359E+03 -0.19324905818E+03  0.53002571189E+03  0.00000000000E+00 0. -1.
        -11    1    3    3    0    0  0.20004228631E+03  0.36664221958E+03 -0.22745290329E+03  0.47558201890E+03  0.00000000000E+00 0.  1.
          2    1    6    6  502    0 -0.36640264615E+03 -0.68268725066E+03 -0.15414466957E+03  0.78998313936E+03  0.00000000000E+00 0. -1.
          1    1    5    5  503    0  0.11837503703E+03  0.81666768060E+02  0.41685871233E+02  0.14973250234E+03  0.00000000000E+00 0. -1.
         -2    1    5    5    0  503  0.39286026672E+02 -0.10454285433E+02  0.46577369223E+02  0.61823420315E+02  0.00000000000E+00 0.  1.
         -1    1    6    6    0  502 -0.16631162236E+03 -0.21663601513E+03 -0.61324643910E+02  0.27991325574E+03  0.00000000000E+00 0.  1.
<mgrwt>
<rscale>  0 0.22204595E+04</rscale>
<asrwt>0</asrwt>
<pdfrwt beam="1">  1        2 0.21807447E+00 0.22204595E+04</pdfrwt>
<pdfrwt beam="2">  1       -2 0.13378093E+00 0.22204595E+04</pdfrwt>
<totfact> 0.52110353E+00</totfact>
</mgrwt>
</event>
<event>
12    1  0.1201209E-007  0.1356055E+04  0.7818608E-02  0.8986257E-01
         -2   -1    0    0    0  501 -0.00000000000E+00  0.00000000000E+00  0.85950311270E+03  0.85950311270E+03  0.00000000000E+00 0.  1.
          2   -1    0    0  501    0  0.00000000000E+00 -0.00000000000E+00 -0.53486837079E+03  0.53486837079E+03  0.00000000000E+00 0. -1.
         23    2    1    2    0    0 -0.16449296537E+03 -0.14262947730E+03  0.40119662140E+03  0.46547147334E+03  0.91125517914E+02 0.  0.
        254    2    1    2    0    0  0.16449296537E+03  0.14262947730E+03 -0.76561879498E+02  0.92890001015E+03  0.89977352929E+03 0.  0.
        -24    2    4    4    0    0  0.36948293448E+03 -0.25241960023E+03 -0.13176051906E+03  0.47325090068E+03  0.79826606843E+02 0.  0.
         24    2    4    4    0    0 -0.20498996911E+03  0.39504907752E+03  0.55198639562E+02  0.45564910947E+03  0.80526766132E+02 0.  0.
         13    1    3    3    0    0 -0.41070687617E+02 -0.91443731667E+02  0.14139348136E+03  0.17332303371E+03  0.00000000000E+00 0. -1.
        -13    1    3    3    0    0 -0.12342227776E+03 -0.51185745628E+02  0.25980314004E+03  0.29214843963E+03  0.00000000000E+00 0.  1.
          4    1    6    6  502    0  0.70875912567E+01  0.22628696270E+02  0.22633288984E+01  0.23820463942E+02  0.00000000000E+00 0. -1.
          1    1    5    5  503    0  0.97631849034E+02 -0.29288138025E+02 -0.17235988865E+02  0.10337723292E+03  0.00000000000E+00 0. -1.
         -2    1    5    5    0  503  0.27185108545E+03 -0.22313146220E+03 -0.11452453019E+03  0.36987366776E+03  0.00000000000E+00 0.  1.
         -3    1    6    6    0  502 -0.21207756036E+03  0.37242038125E+03  0.52935310663E+02  0.43182864553E+03  0.00000000000E+00 0.  1.
<mgrwt>
<rscale>  0 0.13560546E+04</rscale>
<asrwt>0</asrwt>
<pdfrwt beam="1">  1        2 0.82287442E-01 0.13560546E+04</pdfrwt>
<pdfrwt beam="2">  1       -2 0.13223125E+00 0.13560546E+04</pdfrwt>
<totfact> 0.23094623E+01</totfact>
</mgrwt>
</event>
<event>
12    1  0.1201209E-007  0.2032721E+04  0.7818608E-02  0.8591474E-01
          1   -1    0    0  501    0  0.00000000000E+00  0.00000000000E+00  0.12880958695E+04  0.12880958695E+04  0.00000000000E+00 0. -1.
         -1   -1    0    0    0  501 -0.00000000000E+00 -0.00000000000E+00 -0.80194987026E+03  0.80194987026E+03  0.00000000000E+00 0.  1.
         23    2    1    2    0    0 -0.75981229176E+03 -0.28801704172E+03  0.13694116586E+03  0.82904932559E+03  0.91111834108E+02 0.  0.
        254    2    1    2    0    0  0.75981229176E+03  0.28801704172E+03  0.34920483335E+03  0.12609964141E+04  0.89883224565E+03 0.  0.
        -24    2    4    4    0    0  0.81879680642E+03  0.43132485630E+03  0.69962464899E+02  0.93158167164E+03  0.80500450847E+02 0.  0.
         24    2    4    4    0    0 -0.58984514659E+02 -0.14330781457E+03  0.27924236845E+03  0.32941474250E+03  0.80755616216E+02 0.  0.
         13    1    3    3    0    0 -0.55043585015E+03 -0.18520729095E+03  0.13283573358E+03  0.59575724744E+03  0.00000000000E+00 0.  1.
        -13    1    3    3    0    0 -0.20937644161E+03 -0.10280975077E+03  0.41054322799E+01  0.23329207815E+03  0.00000000000E+00 0. -1.
          2    1    6    6  502    0 -0.20959720346E+02 -0.10607731348E+03  0.24019037573E+03  0.26340676322E+03  0.00000000000E+00 0. -1.
          1    1    5    5  503    0  0.68775577648E+03  0.37543669560E+03  0.85812049394E+02  0.78824135156E+03  0.00000000000E+00 0. -1.
         -2    1    5    5    0  503  0.13104102994E+03  0.55888160692E+02 -0.15849584495E+02  0.14334032008E+03  0.00000000000E+00 0.  1.
         -1    1    6    6    0  502 -0.38024794313E+02 -0.37230501089E+02  0.39051992720E+02  0.66007979285E+02  0.00000000000E+00 0.  1.
<mgrwt>
<rscale>  0 0.20327207E+04</rscale>
<asrwt>0</asrwt>
<pdfrwt beam="1">  1        1 0.19816859E+00 0.20327207E+04</pdfrwt>
<pdfrwt beam="2">  1       -1 0.12337690E+00 0.20327207E+04</pdfrwt>
<totfact> 0.49336878E+00</totfact>
</mgrwt>
</event>
<event>
12    1  0.1201209E-007  0.1750654E+04  0.7818608E-02  0.8732990E-01
          1   -1    0    0  501    0  0.00000000000E+00  0.00000000000E+00  0.10667363366E+04  0.10667363366E+04  0.00000000000E+00 0. -1.
         -1   -1    0    0    0  501 -0.00000000000E+00 -0.00000000000E+00 -0.71826348643E+03  0.71826348643E+03  0.00000000000E+00 0.  1.
         23    2    1    2    0    0  0.34306917519E+03  0.27478457262E+02 -0.41990358147E+03  0.55063283109E+03  0.91793095417E+02 0.  0.
        254    2    1    2    0    0 -0.34306917519E+03 -0.27478457262E+02  0.76837643161E+03  0.12343669919E+04  0.90266716208E+03 0.  0.
        -24    2    4    4    0    0 -0.60932178271E+03 -0.17730036150E+03  0.59732686780E+03  0.87515821168E+03  0.79962837663E+02 0.  0.
         24    2    4    4    0    0  0.26625260752E+03  0.14982190424E+03  0.17104956381E+03  0.35920878023E+03  0.80224313760E+02 0.  0.
         13    1    3    3    0    0  0.22400491004E+03  0.27180826868E+01 -0.20477545301E+03  0.30351041802E+03  0.00000000000E+00 0. -1.
        -13    1    3    3    0    0  0.11906426515E+03  0.24760374575E+02 -0.21512812846E+03  0.24712241306E+03  0.00000000000E+00 0.  1.
          2    1    6    6  502    0  0.25355236316E+03  0.15891976211E+03  0.16837890420E+03  0.34335950115E+03  0.00000000000E+00 0. -1.
          1    1    5    5  503    0 -0.58412110643E+03 -0.18587777821E+03  0.57332934061E+03  0.83931790652E+03  0.00000000000E+00 0. -1.
         -2    1    5    5    0  503 -0.25200676278E+02  0.85774167155E+01  0.23997527191E+02  0.35840305156E+02  0.00000000000E+00 0.  1.
         -1    1    6    6    0  502  0.12700244362E+02 -0.90978578716E+01  0.26706596092E+01  0.15849279083E+02  0.00000000000E+00 0.  1.
<mgrwt>
<rscale>  0 0.17506545E+04</rscale>
<asrwt>0</asrwt>
<pdfrwt beam="1">  1        1 0.16411328E+00 0.17506545E+04</pdfrwt>
<pdfrwt beam="2">  1       -1 0.11050207E+00 0.17506545E+04</pdfrwt>
<totfact> 0.96145624E+00</totfact>
</mgrwt>
</event>
<event>
12    1  0.1368740E-007  0.2760638E+04  0.7818608E-02  0.8315594E-01
         -2   -1    0    0    0  501 -0.00000000000E+00  0.00000000000E+00  0.15635396940E+04  0.15635396940E+04  0.00000000000E+00 0.  1.
          2   -1    0    0  501    0  0.00000000000E+00 -0.00000000000E+00 -0.12185690203E+04  0.12185690203E+04  0.00000000000E+00 0. -1.
         23    2    1    2    0    0 -0.15103212732E+03 -0.12230016073E+04  0.10994871158E+03  0.12406667974E+04  0.92853368246E+02 0.  0.
        254    2    1    2    0    0  0.15103212732E+03  0.12230016073E+04  0.23502196205E+03  0.15414419169E+04  0.89569203719E+03 0.  0.
        -24    2    4    4    0    0 -0.17848126424E+03  0.93911621750E+03  0.43846248551E+03  0.10547695821E+04  0.80589629422E+02 0.  0.
         24    2    4    4    0    0  0.32951339156E+03  0.28388538984E+03 -0.20344052346E+03  0.48667233484E+03  0.79321656131E+02 0.  0.
         11    1    3    3    0    0 -0.12762889902E+03 -0.11767546980E+04  0.11078359630E+03  0.11888287347E+04  0.00000000000E+00 0. -1.
        -11    1    3    3    0    0 -0.23403228298E+02 -0.46246909324E+02 -0.83488471972E+00  0.51838062746E+02  0.00000000000E+00 0.  1.
          2    1    6    6  502    0  0.74950111979E+02  0.97695066664E+02 -0.29978882570E+02  0.12673033866E+03  0.00000000000E+00 0. -1.
          1    1    5    5  503    0 -0.30216259183E+02  0.80036712900E+02  0.20489636398E+02  0.87970011542E+02  0.00000000000E+00 0. -1.
         -2    1    5    5    0  503 -0.14826500506E+03  0.85907950460E+03  0.41797284912E+03  0.96679957052E+03  0.00000000000E+00 0.  1.
         -1    1    6    6    0  502  0.25456327958E+03  0.18619032317E+03 -0.17346164089E+03  0.35994199618E+03  0.00000000000E+00 0.  1.
<mgrwt>
<rscale>  0 0.27606384E+04</rscale>
<asrwt>0</asrwt>
<pdfrwt beam="1">  1        2 0.18747216E+00 0.27606384E+04</pdfrwt>
<pdfrwt beam="2">  1       -2 0.24054457E+00 0.27606384E+04</pdfrwt>
<totfact> 0.11846834E+00</totfact>
</mgrwt>
</event>
<event>
12    1  0.1201209E-007  0.1447277E+04  0.7818608E-02  0.8920290E-01
         -2   -1    0    0    0  501 -0.00000000000E+00  0.00000000000E+00  0.25709548281E+03  0.25709548281E+03  0.00000000000E+00 0.  1.
          2   -1    0    0  501    0  0.00000000000E+00 -0.00000000000E+00 -0.20368026792E+04  0.20368026792E+04  0.00000000000E+00 0. -1.
         23    2    1    2    0    0  0.11973070779E+03 -0.26822464757E+03 -0.10650297366E+04  0.11086065450E+04  0.91870713155E+02 0.  0.
        254    2    1    2    0    0 -0.11973070779E+03  0.26822464757E+03 -0.71467745976E+03  0.11852916169E+04  0.89881724600E+03 0.  0.
        -24    2    4    4    0    0 -0.38866551917E+02  0.49622439922E+03 -0.77395055163E+03  0.92365202949E+03  0.79902140013E+02 0.  0.
         24    2    4    4    0    0 -0.80864155871E+02 -0.22799975165E+03  0.59273091871E+02  0.26163958743E+03  0.80119135241E+02 0.  0.
         13    1    3    3    0    0  0.74657783251E+02 -0.10186806378E+03 -0.32278812991E+03  0.34661659485E+03  0.00000000000E+00 0.  1.
        -13    1    3    3    0    0  0.45072924537E+02 -0.16635658379E+03 -0.74224160669E+03  0.76198995020E+03  0.00000000000E+00 0. -1.
          2    1    6    6  502    0 -0.18155407767E+02 -0.15715345710E+03  0.21031563048E+02  0.15959058417E+03  0.00000000000E+00 0. -1.
          3    1    5    5  503    0 -0.10947616734E+02  0.44706235503E+03 -0.67524141537E+03  0.80989849279E+03  0.00000000000E+00 0. -1.
         -4    1    5    5    0  503 -0.27918935183E+02  0.49162044196E+02 -0.98709136263E+02  0.11375353671E+03  0.00000000000E+00 0.  1.
         -1    1    6    6    0  502 -0.62708748104E+02 -0.70846294552E+02  0.38241528823E+02  0.10204900326E+03  0.00000000000E+00 0.  1.
<mgrwt>
<rscale>  0 0.14472771E+04</rscale>
<asrwt>0</asrwt>
<pdfrwt beam="1">  1        2 0.31335427E+00 0.14472771E+04</pdfrwt>
<pdfrwt beam="2">  1       -2 0.39553150E-01 0.14472771E+04</pdfrwt>
<totfact> 0.37397367E+01</totfact>
</mgrwt>
</event>
<event>
12    1  0.1201209E-007  0.1133465E+04  0.7818608E-02  0.9173175E-01
         -2   -1    0    0    0  501 -0.00000000000E+00  0.00000000000E+00  0.90418529222E+02  0.90418529222E+02  0.00000000000E+00 0.  1.
          2   -1    0    0  501    0  0.00000000000E+00 -0.00000000000E+00 -0.35522113798E+04  0.35522113798E+04  0.00000000000E+00 0. -1.
         23    2    1    2    0    0 -0.75149965740E+02 -0.16645423165E+03 -0.44077364651E+03  0.48567895602E+03  0.90819118452E+02 0.  0.
        254    2    1    2    0    0  0.75149965740E+02  0.16645423165E+03 -0.30210192041E+04  0.31569509530E+04  0.89801322915E+03 0.  0.
        -24    2    4    4    0    0  0.32656992994E+03  0.39426033271E+03 -0.22676106592E+04  0.23262110231E+04  0.84323741006E+02 0.  0.
         24    2    4    4    0    0 -0.25141996420E+03 -0.22780610105E+03 -0.75340854487E+03  0.83073992988E+03  0.86004520458E+02 0.  0.
         11    1    3    3    0    0 -0.20404003271E+02  0.57617487697E+01 -0.28337020016E+02  0.35390786962E+02  0.00000000000E+00 0. -1.
        -11    1    3    3    0    0 -0.54745962469E+02 -0.17221598042E+03 -0.41243662649E+03  0.45028816906E+03  0.00000000000E+00 0.  1.
          2    1    6    6  502    0 -0.35942068290E+02 -0.19924577786E+02 -0.17110197052E+03  0.17596791011E+03  0.00000000000E+00 0. -1.
          3    1    5    5  503    0  0.11631938585E+03  0.18889923518E+03 -0.85150843335E+03  0.87993166362E+03  0.00000000000E+00 0. -1.
         -4    1    5    5    0  503  0.21025054409E+03  0.20536109753E+03 -0.14161022258E+04  0.14462793595E+04  0.00000000000E+00 0.  1.
         -1    1    6    6    0  502 -0.21547789591E+03 -0.20788152327E+03 -0.58230657435E+03  0.65477201977E+03  0.00000000000E+00 0.  1.
<mgrwt>
<rscale>  0 0.11334650E+04</rscale>
<asrwt>0</asrwt>
<pdfrwt beam="1">  1        2 0.54649398E+00 0.11334650E+04</pdfrwt>
<pdfrwt beam="2">  1       -2 0.13910545E-01 0.11334650E+04</pdfrwt>
<totfact> 0.30447253E+01</totfact>
</mgrwt>
</event>
<event>
12    1  0.1201209E-007  0.1629456E+04  0.7818608E-02  0.8802654E-01
          1   -1    0    0  501    0  0.00000000000E+00  0.00000000000E+00  0.81554926718E+03  0.81554926718E+03  0.00000000000E+00 0.  1.
         -1   -1    0    0    0  501 -0.00000000000E+00 -0.00000000000E+00 -0.81390719521E+03  0.81390719521E+03  0.00000000000E+00 0. -1.
         23    2    1    2    0    0 -0.20335721263E+01 -0.20226146973E+03  0.52372210019E+03  0.56902842059E+03  0.92707430445E+02 0.  0.
        254    2    1    2    0    0  0.20335721263E+01  0.20226146973E+03 -0.52208002822E+03  0.10604280418E+04  0.90056995198E+03 0.  0.
        -24    2    4    4    0    0  0.18312408478E+03  0.20296517385E+03 -0.72399724656E+03  0.77792902646E+03  0.79197632333E+02 0.  0.
         24    2    4    4    0    0 -0.18109051265E+03 -0.70370412305E+00  0.20191721834E+03  0.28249901534E+03  0.78999124267E+02 0.  0.
         11    1    3    3    0    0  0.17028035187E+02 -0.13266611220E+02  0.15805528775E+02  0.26753909909E+02  0.00000000000E+00 0. -1.
        -11    1    3    3    0    0 -0.19061607313E+02 -0.18899485851E+03  0.50791657142E+03  0.54227451068E+03  0.00000000000E+00 0.  1.
          2    1    6    6  502    0 -0.26896104499E+02  0.27596912813E+02  0.58330716788E+02  0.69910389464E+02  0.00000000000E+00 0. -1.
          1    1    5    5  503    0  0.48825893360E+02  0.72804022820E+02 -0.33543058026E+03  0.34669592985E+03  0.00000000000E+00 0. -1.
         -2    1    5    5    0  503  0.13429819142E+03  0.13016115103E+03 -0.38856666630E+03  0.43123309661E+03  0.00000000000E+00 0.  1.
         -1    1    6    6    0  502 -0.15419440815E+03 -0.28300616936E+02  0.14358650155E+03  0.21258862587E+03  0.00000000000E+00 0.  1.
<mgrwt>
<rscale>  0 0.16294556E+04</rscale>
<asrwt>0</asrwt>
<pdfrwt beam="1">  1        1 0.12546912E+00 0.16294556E+04</pdfrwt>
<pdfrwt beam="2">  1       -1 0.12521649E+00 0.16294556E+04</pdfrwt>
<totfact> 0.11434163E+01</totfact>
</mgrwt>
</event>
<event>
12    1  0.1201209E-007  0.2675076E+04  0.7818608E-02  0.8343137E-01
          2   -1    0    0  501    0  0.00000000000E+00  0.00000000000E+00  0.28752506357E+04  0.28752506357E+04  0.00000000000E+00 0. -1.
         -2   -1    0    0    0  501 -0.00000000000E+00 -0.00000000000E+00 -0.62220941965E+03  0.62220941965E+03  0.00000000000E+00 0.  1.
         23    2    1    2    0    0  0.62840827783E+03 -0.89741987252E+03  0.40048926072E+03  0.11700636004E+04  0.91639454953E+02 0.  0.
        254    2    1    2    0    0 -0.62840827783E+03  0.89741987252E+03  0.18525519553E+04  0.23273964550E+04  0.88575737095E+03 0.  0.
        -24    2    4    4    0    0 -0.77753608135E+03  0.71182320833E+03  0.10644275446E+04  0.15002426985E+04  0.80420887195E+02 0.  0.
         24    2    4    4    0    0  0.14912780352E+03  0.18559666420E+03  0.78812441078E+03  0.82715375648E+03  0.79737233701E+02 0.  0.
         11    1    3    3    0    0  0.58654610738E+00 -0.19903089355E+02  0.12159676034E+02  0.23330982050E+02  0.00000000000E+00 0. -1.
        -11    1    3    3    0    0  0.62782173173E+03 -0.87751678317E+03  0.38832958469E+03  0.11467326183E+04  0.00000000000E+00 0.  1.
          4    1    6    6  502    0  0.47504737795E+02  0.10305532031E+03  0.27283909689E+03  0.29549665302E+03  0.00000000000E+00 0. -1.
          1    1    5    5  503    0 -0.31691564329E+02  0.18233834305E+02  0.21156565859E+02  0.42242493322E+02  0.00000000000E+00 0. -1.
         -2    1    5    5    0  503 -0.74584451702E+03  0.69358937402E+03  0.10432709787E+04  0.14580002052E+04  0.00000000000E+00 0.  1.
         -1    1    6    6    0  502  0.10162306573E+03  0.82541343891E+02  0.51528531390E+03  0.53165710346E+03  0.00000000000E+00 0.  1.
<mgrwt>
<rscale>  0 0.26750761E+04</rscale>
<asrwt>0</asrwt>
<pdfrwt beam="1">  1        2 0.44234624E+00 0.26750761E+04</pdfrwt>
<pdfrwt beam="2">  1       -2 0.95724528E-01 0.26750761E+04</pdfrwt>
<totfact> 0.16742136E+00</totfact>
</mgrwt>
</event>
<event>
12    1  0.1201209E-007  0.1314905E+04  0.7818608E-02  0.9017828E-01
          1   -1    0    0  501    0  0.00000000000E+00  0.00000000000E+00  0.14768569331E+04  0.14768569331E+04  0.00000000000E+00 0. -1.
         -1   -1    0    0    0  501 -0.00000000000E+00 -0.00000000000E+00 -0.29267799299E+03  0.29267799299E+03  0.00000000000E+00 0.  1.
         23    2    1    2    0    0 -0.18849691825E+03  0.16153951855E+03 -0.40036966770E+02  0.26699264122E+03  0.89755264553E+02 0.  0.
        254    2    1    2    0    0  0.18849691825E+03 -0.16153951855E+03  0.12242159069E+04  0.15025422849E+04  0.83504648189E+03 0.  0.
        -24    2    4    4    0    0 -0.18011529595E+02 -0.34266896272E+03  0.11555368352E+04  0.12080978676E+04  0.80552136939E+02 0.  0.
         24    2    4    4    0    0  0.20650844784E+03  0.18112944418E+03  0.68679071646E+02  0.29444441732E+03  0.80790379585E+02 0.  0.
         11    1    3    3    0    0 -0.16553431330E+02 -0.21820522383E+01  0.15915024972E+02  0.23066544185E+02  0.00000000000E+00 0. -1.
        -11    1    3    3    0    0 -0.17194348692E+03  0.16372157078E+03 -0.55951991742E+02  0.24392609703E+03  0.00000000000E+00 0.  1.
          4    1    6    6  502    0  0.56329287275E+02  0.10209013294E+03  0.26493344673E+02  0.11957123885E+03  0.00000000000E+00 0. -1.
          3    1    5    5  503    0  0.30063395004E+01 -0.27808425728E+03  0.82364622659E+03  0.86932905093E+03  0.00000000000E+00 0. -1.
         -4    1    5    5    0  503 -0.21017869095E+02 -0.64584705437E+02  0.33189060866E+03  0.33876881662E+03  0.00000000000E+00 0.  1.
         -3    1    6    6    0  502  0.15017916057E+03  0.79039311240E+02  0.42185726973E+02  0.17487317848E+03  0.00000000000E+00 0.  1.
<mgrwt>
<rscale>  0 0.13149046E+04</rscale>
<asrwt>0</asrwt>
<pdfrwt beam="1">  1        1 0.22720875E+00 0.13149046E+04</pdfrwt>
<pdfrwt beam="2">  1       -1 0.45027385E-01 0.13149046E+04</pdfrwt>
<totfact> 0.32586485E+01</totfact>
</mgrwt>
</event>
<event>
12    1  0.1201209E-007  0.1975023E+04  0.7818608E-02  0.8618388E-01
          1   -1    0    0  501    0  0.00000000000E+00  0.00000000000E+00  0.59797338497E+03  0.59797338497E+03  0.00000000000E+00 0. -1.
         -1   -1    0    0    0  501 -0.00000000000E+00 -0.00000000000E+00 -0.16308059775E+04  0.16308059775E+04  0.00000000000E+00 0.  1.
         23    2    1    2    0    0 -0.71970087032E+03  0.24768463723E+03 -0.62207451443E+03  0.98729397904E+03  0.91954756738E+02 0.  0.
        254    2    1    2    0    0  0.71970087032E+03 -0.24768463723E+03 -0.41075807806E+03  0.12414853834E+04  0.89064400083E+03 0.  0.
        -24    2    4    4    0    0  0.48408931357E+03  0.29579139423E+03 -0.19775824875E+03  0.60708243954E+03  0.87210957081E+02 0.  0.
         24    2    4    4    0    0  0.23561155675E+03 -0.54347603146E+03 -0.21299982931E+03  0.63440294385E+03  0.78861685390E+02 0.  0.
         13    1    3    3    0    0 -0.63630123040E+03  0.18655246508E+03 -0.53086996394E+03  0.84941391362E+03  0.00000000000E+00 0.  1.
        -13    1    3    3    0    0 -0.83399639920E+02  0.61132172148E+02 -0.91204550490E+02  0.13788006542E+03  0.00000000000E+00 0. -1.
          2    1    6    6  502    0  0.21379817622E+03 -0.47475503567E+03 -0.21231830194E+03  0.56229980027E+03  0.00000000000E+00 0. -1.
          3    1    5    5  503    0  0.22622382348E+03  0.18652205286E+03 -0.11618059650E+03  0.31538171399E+03  0.00000000000E+00 0. -1.
         -4    1    5    5    0  503  0.25786549008E+03  0.10926934137E+03 -0.81577652246E+02  0.29170072555E+03  0.00000000000E+00 0.  1.
         -1    1    6    6    0  502  0.21813380531E+02 -0.68720995796E+02 -0.68152736616E+00  0.72103143572E+02  0.00000000000E+00 0.  1.
<mgrwt>
<rscale>  0 0.19750226E+04</rscale>
<asrwt>0</asrwt>
<pdfrwt beam="1">  1        1 0.91995907E-01 0.19750226E+04</pdfrwt>
<pdfrwt beam="2">  1       -1 0.25089322E+00 0.19750226E+04</pdfrwt>
<totfact> 0.22009132E+00</totfact>
</mgrwt>
</event>
<event>
12    1  0.1201209E-007  0.1551679E+04  0.7818608E-02  0.8850796E-01
          1   -1    0    0  501    0  0.00000000000E+00  0.00000000000E+00  0.17655561744E+04  0.17655561744E+04  0.00000000000E+00 0. -1.
         -1   -1    0    0    0  501 -0.00000000000E+00 -0.00000000000E+00 -0.34092755808E+03  0.34092755808E+03  0.00000000000E+00 0.  1.
         23    2    1    2    0    0  0.46393441749E+03  0.14601127809E+03  0.59035903628E+03  0.77280307110E+03  0.11021051640E+03 0.  0.
        254    2    1    2    0    0 -0.46393441749E+03 -0.14601127809E+03  0.83426958005E+03  0.13336806614E+04  0.91986082497E+03 0.  0.
        -24    2    4    4    0    0 -0.85723329214E+02  0.37423413810E+03  0.30205880461E+03  0.49513694761E+03  0.80755161760E+02 0.  0.
         24    2    4    4    0    0 -0.37821108828E+03 -0.52024541618E+03  0.53221077543E+03  0.83854371379E+03  0.78792957115E+02 0.  0.
         11    1    3    3    0    0  0.54160189287E+01 -0.52217726182E+01  0.39903305660E+02  0.40606329223E+02  0.00000000000E+00 0. -1.
        -11    1    3    3    0    0  0.45851839856E+03  0.15123305071E+03  0.55045573062E+03  0.73219674188E+03  0.00000000000E+00 0.  1.
          4    1    6    6  502    0 -0.31004012977E+03 -0.39457816895E+03  0.37796344168E+03  0.62823019406E+03  0.00000000000E+00 0. -1.
          3    1    5    5  503    0 -0.56746677106E+02  0.29545956485E+03  0.27316240411E+03  0.40636712323E+03  0.00000000000E+00 0. -1.
         -4    1    5    5    0  503 -0.28976652108E+02  0.78774573245E+02  0.28896400507E+02  0.88769824375E+02  0.00000000000E+00 0.  1.
         -3    1    6    6    0  502 -0.68170958503E+02 -0.12566724723E+03  0.15424733375E+03  0.21031351972E+03  0.00000000000E+00 0.  1.
<mgrwt>
<rscale>  0 0.15516788E+04</rscale>
<asrwt>0</asrwt>
<pdfrwt beam="1">  1        1 0.27162402E+00 0.15516788E+04</pdfrwt>
<pdfrwt beam="2">  1       -1 0.52450394E-01 0.15516788E+04</pdfrwt>
<totfact> 0.15171613E+01</totfact>
</mgrwt>
</event>
<event>
12    1  0.1685469E-007  0.1862267E+04  0.7818608E-02  0.8673870E-01
         -2   -1    0    0    0  501 -0.00000000000E+00  0.00000000000E+00  0.64691410884E+03  0.64691410884E+03  0.00000000000E+00 0. -1.
          2   -1    0    0  501    0  0.00000000000E+00 -0.00000000000E+00 -0.13402230265E+04  0.13402230265E+04  0.00000000000E+00 0.  1.
         23    2    1    2    0    0 -0.17990345752E+03  0.19356411828E+03  0.43476980909E+03  0.51711198205E+03  0.92453735261E+02 0.  0.
        254    2    1    2    0    0  0.17990345752E+03 -0.19356411828E+03 -0.11280787267E+04  0.14700251533E+04  0.90475411888E+03 0.  0.
        -24    2    4    4    0    0  0.42587342030E+03  0.24759596746E+02 -0.10307394292E+04  0.11183446513E+04  0.79308136004E+02 0.  0.
         24    2    4    4    0    0 -0.24596996278E+03 -0.21832371503E+03 -0.97339297520E+02  0.35168050196E+03  0.77703085406E+02 0.  0.
         13    1    3    3    0    0 -0.68466586995E+02  0.75780543503E+02  0.90039117524E+02  0.13615214649E+03  0.00000000000E+00 0.  1.
        -13    1    3    3    0    0 -0.11143687052E+03  0.11778357478E+03  0.34473069157E+03  0.38095983556E+03  0.00000000000E+00 0. -1.
          4    1    6    6  502    0 -0.21941285254E+03 -0.20766603600E+03 -0.65976924650E+02  0.30922505874E+03  0.00000000000E+00 0. -1.
          1    1    5    5  503    0  0.32516881169E+03  0.12358022623E+02 -0.86292647237E+03  0.92224160259E+03  0.00000000000E+00 0. -1.
         -2    1    5    5    0  503  0.10070460861E+03  0.12401574123E+02 -0.16781295683E+03  0.19610304871E+03  0.00000000000E+00 0.  1.
         -3    1    6    6    0  502 -0.26557110242E+02 -0.10657679027E+02 -0.31362372870E+02  0.42455443216E+02  0.00000000000E+00 0.  1.
<mgrwt>
<rscale>  0 0.18622666E+04</rscale>
<asrwt>0</asrwt>
<pdfrwt beam="1">  1        2 0.20618816E+00 0.18622666E+04</pdfrwt>
<pdfrwt beam="2">  1       -2 0.99525247E-01 0.18622666E+04</pdfrwt>
<totfact> 0.12294519E+01</totfact>
</mgrwt>
</event>
<event>
12    1  0.1201209E-007  0.2877707E+04  0.7818608E-02  0.8279541E-01
          2   -1    0    0  501    0  0.00000000000E+00  0.00000000000E+00  0.26296562340E+04  0.26296562340E+04  0.00000000000E+00 0. -1.
         -2   -1    0    0    0  501 -0.00000000000E+00 -0.00000000000E+00 -0.78728915979E+03  0.78728915979E+03  0.00000000000E+00 0.  1.
         23    2    1    2    0    0  0.11749248828E+04 -0.34451159461E+03  0.13285560286E+04  0.18090156123E+04  0.91321658617E+02 0.  0.
        254    2    1    2    0    0 -0.11749248828E+04  0.34451159461E+03  0.51381104562E+03  0.16079297815E+04  0.90680740668E+03 0.  0.
        -24    2    4    4    0    0 -0.79211690946E+03 -0.11683947807E+03  0.59061364751E+03  0.99817675902E+03  0.80197878609E+02 0.  0.
         24    2    4    4    0    0 -0.38280797331E+03  0.46135107268E+03 -0.76802601887E+02  0.60975302253E+03  0.80705341402E+02 0.  0.
         13    1    3    3    0    0  0.98176429391E+02 -0.38610816892E+02  0.81778241613E+02  0.13348066253E+03  0.00000000000E+00 0. -1.
        -13    1    3    3    0    0  0.10767484534E+04 -0.30590077772E+03  0.12467777870E+04  0.16755349498E+04  0.00000000000E+00 0.  1.
          2    1    6    6  502    0 -0.23635291168E+03  0.22204104785E+03 -0.44558534911E+02  0.32733833998E+03  0.00000000000E+00 0. -1.
          3    1    5    5  503    0 -0.16103950392E+03 -0.53807326424E+02  0.14183795769E+03  0.22123959058E+03  0.00000000000E+00 0. -1.
         -4    1    5    5    0  503 -0.63107740554E+03 -0.63032151650E+02  0.44877568982E+03  0.77693716844E+03  0.00000000000E+00 0.  1.
         -1    1    6    6    0  502 -0.14645506163E+03  0.23931002483E+03 -0.32244066976E+02  0.28241468254E+03  0.00000000000E+00 0.  1.
<mgrwt>
<rscale>  0 0.28777073E+04</rscale>
<asrwt>0</asrwt>
<pdfrwt beam="1">  1        2 0.40456249E+00 0.28777073E+04</pdfrwt>
<pdfrwt beam="2">  1       -2 0.12112141E+00 0.28777073E+04</pdfrwt>
<totfact> 0.13110150E+00</totfact>
</mgrwt>
</event>
<event>
12    1  0.1201209E-007  0.1528691E+04  0.7818608E-02  0.8865595E-01
          1   -1    0    0  501    0  0.00000000000E+00  0.00000000000E+00  0.16977778536E+04  0.16977778536E+04  0.00000000000E+00 0. -1.
         -1   -1    0    0    0  501 -0.00000000000E+00 -0.00000000000E+00 -0.34411118532E+03  0.34411118532E+03  0.00000000000E+00 0.  1.
         23    2    1    2    0    0  0.80513940421E+01 -0.47452137931E+03  0.62138706092E+03  0.78714476127E+03  0.90772415127E+02 0.  0.
        254    2    1    2    0    0 -0.80513940421E+01  0.47452137931E+03  0.73227960733E+03  0.12547442776E+04  0.90161766539E+03 0.  0.
        -24    2    4    4    0    0 -0.14363500739E+03  0.25674538158E+03 -0.14475843509E+03  0.33743183795E+03  0.79724741578E+02 0.  0.
         24    2    4    4    0    0  0.13558361335E+03  0.21777599773E+03  0.87703804242E+03  0.91731243967E+03  0.80355974961E+02 0.  0.
         13    1    3    3    0    0  0.36001956251E+02 -0.27519978010E+03  0.30710695877E+03  0.41393929984E+03  0.00000000000E+00 0. -1.
        -13    1    3    3    0    0 -0.27950562209E+02 -0.19932159921E+03  0.31428010214E+03  0.37320546143E+03  0.00000000000E+00 0.  1.
          4    1    6    6  502    0  0.27791729100E+02  0.92574473956E+02  0.42982882618E+03  0.44056240562E+03  0.00000000000E+00 0. -1.
          3    1    5    5  503    0 -0.20338618659E+02  0.57415626815E+02  0.19130509663E+01  0.60941557049E+02  0.00000000000E+00 0. -1.
         -4    1    5    5    0  503 -0.12329638873E+03  0.19932975477E+03 -0.14667148606E+03  0.27649028090E+03  0.00000000000E+00 0.  1.
         -3    1    6    6    0  502  0.10779188425E+03  0.12520152377E+03  0.44720921624E+03  0.47675003404E+03  0.00000000000E+00 0.  1.
<mgrwt>
<rscale>  0 0.15286914E+04</rscale>
<asrwt>0</asrwt>
<pdfrwt beam="1">  1        1 0.26119659E+00 0.15286914E+04</pdfrwt>
<pdfrwt beam="2">  1       -1 0.52940183E-01 0.15286914E+04</pdfrwt>
<totfact> 0.16605178E+01</totfact>
</mgrwt>
</event>
<event>
12    1  0.1201209E-007  0.1446342E+04  0.7818608E-02  0.8920941E-01
          2   -1    0    0  501    0  0.00000000000E+00  0.00000000000E+00  0.29606845945E+04  0.29606845945E+04  0.00000000000E+00 0. -1.
         -2   -1    0    0    0  501 -0.00000000000E+00 -0.00000000000E+00 -0.17664022468E+03  0.17664022468E+03  0.00000000000E+00 0.  1.
         23    2    1    2    0    0  0.29853836123E+02  0.12875192828E+03 -0.43075937738E+02  0.16599478899E+03  0.90721678744E+02 0.  0.
        254    2    1    2    0    0 -0.29853836123E+02 -0.12875192828E+03  0.28271203075E+04  0.29713300301E+04  0.90483402027E+03 0.  0.
        -24    2    4    4    0    0  0.40847630138E+03  0.45259863647E+02  0.10328429865E+04  0.11143417438E+04  0.78048338719E+02 0.  0.
         24    2    4    4    0    0 -0.43833013751E+03 -0.17401179193E+03  0.17942773210E+04  0.18569882864E+04  0.80999862165E+02 0.  0.
         11    1    3    3    0    0  0.28307625169E+02  0.11951078907E+03 -0.67281485385E+02  0.14003909677E+03  0.00000000000E+00 0.  1.
        -11    1    3    3    0    0  0.15462109541E+01  0.92411392089E+01  0.24205547647E+02  0.25955692229E+02  0.00000000000E+00 0. -1.
          2    1    6    6  502    0 -0.36682800225E+03 -0.15442004906E+03  0.13851069494E+04  0.14411556460E+04  0.00000000000E+00 0. -1.
          3    1    5    5  503    0  0.36530909221E+03  0.40469742231E+02  0.84379280553E+03  0.92036668321E+03  0.00000000000E+00 0. -1.
         -4    1    5    5    0  503  0.43167209171E+02  0.47901214163E+01  0.18905018095E+03  0.19397506058E+03  0.00000000000E+00 0.  1.
         -1    1    6    6    0  502 -0.71502135253E+02 -0.19591742872E+02  0.40917037164E+03  0.41583264032E+03  0.00000000000E+00 0.  1.
<mgrwt>
<rscale>  0 0.14463416E+04</rscale>
<asrwt>0</asrwt>
<pdfrwt beam="1">  1        2 0.45548990E+00 0.14463416E+04</pdfrwt>
<pdfrwt beam="2">  1       -2 0.27175421E-01 0.14463416E+04</pdfrwt>
<totfact> 0.22187432E+01</totfact>
</mgrwt>
</event>
<event>
12    1  0.1201209E-007  0.1285661E+04  0.7818608E-02  0.9041014E-01
          2   -1    0    0  501    0  0.00000000000E+00  0.00000000000E+00  0.26430786168E+03  0.26430786168E+03  0.00000000000E+00 0. -1.
         -2   -1    0    0    0  501 -0.00000000000E+00 -0.00000000000E+00 -0.15634456054E+04  0.15634456054E+04  0.00000000000E+00 0.  1.
         23    2    1    2    0    0  0.12630006398E+03 -0.28533287599E+03 -0.35868340399E+03  0.48461329839E+03  0.93966528022E+02 0.  0.
        254    2    1    2    0    0 -0.12630006398E+03  0.28533287599E+03 -0.94045433977E+03  0.13431401687E+04  0.90675497871E+03 0.  0.
        -24    2    4    4    0    0 -0.77126643142E+02  0.55933335330E+03 -0.87700144539E+03  0.10459475384E+04  0.77925597239E+02 0.  0.
         24    2    4    4    0    0 -0.49173420842E+02 -0.27400047731E+03 -0.63452894377E+02  0.29719263033E+03  0.82479711654E+02 0.  0.
         13    1    3    3    0    0  0.51227589346E+02 -0.15196155060E+03 -0.24957343572E+03  0.29665380258E+03  0.00000000000E+00 0. -1.
        -13    1    3    3    0    0  0.75072474638E+02 -0.13337132540E+03 -0.10910996827E+03  0.18795949580E+03  0.00000000000E+00 0.  1.
          2    1    6    6  502    0 -0.64609385198E+02 -0.24681649644E+03 -0.71404229207E+02  0.26493644430E+03  0.00000000000E+00 0. -1.
          1    1    5    5  503    0 -0.56115985788E+02  0.53454587958E+03 -0.82670964103E+03  0.98607156526E+03  0.00000000000E+00 0. -1.
         -2    1    5    5    0  503 -0.21010657354E+02  0.24787473720E+02 -0.50291804361E+02  0.59875973159E+02  0.00000000000E+00 0.  1.
         -1    1    6    6    0  502  0.15435964356E+02 -0.27183980871E+02  0.79513348296E+01  0.32256186030E+02  0.00000000000E+00 0.  1.
<mgrwt>
<rscale>  0 0.12856609E+04</rscale>
<asrwt>0</asrwt>
<pdfrwt beam="1">  1        2 0.40662748E-01 0.12856609E+04</pdfrwt>
<pdfrwt beam="2">  1       -2 0.24053009E+00 0.12856609E+04</pdfrwt>
<totfact> 0.91333801E+00</totfact>
</mgrwt>
</event>
<event>
12    1  0.1201209E-007  0.2242061E+04  0.7818608E-02  0.8501123E-01
         -2   -1    0    0    0  501 -0.00000000000E+00  0.00000000000E+00  0.85369318805E+03  0.85369318805E+03  0.00000000000E+00 0.  1.
          2   -1    0    0  501    0  0.00000000000E+00 -0.00000000000E+00 -0.14720855825E+04  0.14720855825E+04  0.00000000000E+00 0. -1.
         23    2    1    2    0    0  0.16505350274E+02  0.82362341007E+03 -0.72871325657E+03  0.11036500411E+04  0.91610341247E+02 0.  0.
        254    2    1    2    0    0 -0.16505350274E+02 -0.82362341007E+03  0.11032086208E+03  0.12221287295E+04  0.89599106622E+03 0.  0.
        -24    2    4    4    0    0  0.25272445086E+03 -0.41808552837E+02 -0.20040202868E+03  0.33515378473E+03  0.80928877215E+02 0.  0.
         24    2    4    4    0    0 -0.26922980113E+03 -0.78181485723E+03  0.31072289076E+03  0.88697494481E+03  0.80353475746E+02 0.  0.
         13    1    3    3    0    0 -0.19756460644E+02  0.58438317940E+03 -0.55101841702E+03  0.80343967664E+03  0.00000000000E+00 0. -1.
        -13    1    3    3    0    0  0.36261810918E+02  0.23924023067E+03 -0.17769483955E+03  0.30021036442E+03  0.00000000000E+00 0.  1.
          4    1    6    6  502    0 -0.86525887486E+02 -0.30402599271E+03  0.15638912363E+03  0.35266994688E+03  0.00000000000E+00 0. -1.
          1    1    5    5  503    0  0.42879081960E+02 -0.23108729800E+02 -0.76654872867E+02  0.90821795826E+02  0.00000000000E+00 0. -1.
         -2    1    5    5    0  503  0.20984536890E+03 -0.18699823037E+02 -0.12374715581E+03  0.24433198890E+03  0.00000000000E+00 0.  1.
         -3    1    6    6    0  502 -0.18270391365E+03 -0.47778886453E+03  0.15433376713E+03  0.53430499792E+03  0.00000000000E+00 0.  1.
<mgrwt>
<rscale>  0 0.22420610E+04</rscale>
<asrwt>0</asrwt>
<pdfrwt beam="1">  1        2 0.22647470E+00 0.22420610E+04</pdfrwt>
<pdfrwt beam="2">  1       -2 0.13133741E+00 0.22420610E+04</pdfrwt>
<totfact> 0.50752733E+00</totfact>
</mgrwt>
</event>
<event>
12    1  0.1201209E-007  0.2852270E+04  0.7818608E-02  0.8287222E-01
         -2   -1    0    0    0  501 -0.00000000000E+00  0.00000000000E+00  0.77379155250E+03  0.77379155250E+03  0.00000000000E+00 0.  1.
          2   -1    0    0  501    0  0.00000000000E+00 -0.00000000000E+00 -0.26284360066E+04  0.26284360066E+04  0.00000000000E+00 0. -1.
         23    2    1    2    0    0  0.82453093104E+03  0.73268194231E+03 -0.16038060915E+04  0.19486189474E+04  0.90817057647E+02 0.  0.
        254    2    1    2    0    0 -0.82453093104E+03 -0.73268194231E+03 -0.25083836255E+03  0.14536086117E+04  0.91289869488E+03 0.  0.
        -24    2    4    4    0    0 -0.90611126008E+03 -0.81842826438E+03 -0.73294378341E+02  0.12258023212E+04  0.79729700271E+02 0.  0.
         24    2    4    4    0    0  0.81580329044E+02  0.85746322062E+02 -0.17754398421E+03  0.22780629056E+03  0.79787579564E+02 0.  0.
         13    1    3    3    0    0  0.48287006343E+03  0.38104794633E+03 -0.94033622575E+03  0.11236517490E+04  0.00000000000E+00 0.  1.
        -13    1    3    3    0    0  0.34166086761E+03  0.35163399598E+03 -0.66346986578E+03  0.82496719837E+03  0.00000000000E+00 0. -1.
          2    1    6    6  502    0  0.59491770390E+02  0.89819784109E+02 -0.99707693584E+02  0.14679403435E+03  0.00000000000E+00 0. -1.
          1    1    5    5  503    0 -0.78211867648E+03 -0.67787457301E+03 -0.42589030014E+02  0.10358751789E+04  0.00000000000E+00 0. -1.
         -2    1    5    5    0  503 -0.12399258360E+03 -0.14055369136E+03 -0.30705348327E+02  0.18992714224E+03  0.00000000000E+00 0.  1.
         -1    1    6    6    0  502  0.22088558653E+02 -0.40734620465E+01 -0.77836290629E+02  0.81012256205E+02  0.00000000000E+00 0.  1.
<mgrwt>
<rscale>  0 0.28522704E+04</rscale>
<asrwt>0</asrwt>
<pdfrwt beam="1">  1        2 0.40437477E+00 0.28522704E+04</pdfrwt>
<pdfrwt beam="2">  1       -2 0.11904485E+00 0.28522704E+04</pdfrwt>
<totfact> 0.13737971E+00</totfact>
</mgrwt>
</event>
<event>
12    1  0.1201209E-007  0.1941227E+04  0.7818608E-02  0.8634603E-01
          2   -1    0    0  501    0  0.00000000000E+00  0.00000000000E+00  0.20858729512E+04  0.20858729512E+04  0.00000000000E+00 0. -1.
         -2   -1    0    0    0  501 -0.00000000000E+00 -0.00000000000E+00 -0.45165303788E+03  0.45165303788E+03  0.00000000000E+00 0.  1.
         23    2    1    2    0    0 -0.38697192015E+03 -0.52476136575E+03  0.11436455396E+04  0.13196449166E+04  0.91737820078E+02 0.  0.
        254    2    1    2    0    0  0.38697192015E+03  0.52476136575E+03  0.49057437366E+03  0.12178810724E+04  0.90412904641E+03 0.  0.
        -24    2    4    4    0    0  0.29794252621E+03  0.68908871128E+03  0.61883049933E+03  0.97603682446E+03  0.77998043885E+02 0.  0.
         24    2    4    4    0    0  0.89029393936E+02 -0.16432734553E+03 -0.12825612567E+03  0.24184424799E+03  0.84316647460E+02 0.  0.
         13    1    3    3    0    0 -0.79924140014E+02 -0.13660201846E+03  0.21031888006E+03  0.26321476196E+03  0.00000000000E+00 0.  1.
        -13    1    3    3    0    0 -0.30704778013E+03 -0.38815934729E+03  0.93332665957E+03  0.10564301546E+04  0.00000000000E+00 0. -1.
          2    1    6    6  502    0  0.45643768584E+02 -0.13391705602E+02 -0.23423185737E+02  0.53022042771E+02  0.00000000000E+00 0. -1.
          3    1    5    5  503    0  0.14088702601E+03  0.37138064577E+03  0.28228774159E+03  0.48729776031E+03  0.00000000000E+00 0. -1.
         -4    1    5    5    0  503  0.15705550020E+03  0.31770806552E+03  0.33654275775E+03  0.48873906415E+03  0.00000000000E+00 0.  1.
         -1    1    6    6    0  502  0.43385625351E+02 -0.15093563993E+03 -0.10483293994E+03  0.18882220522E+03  0.00000000000E+00 0.  1.
<mgrwt>
<rscale>  0 0.19412273E+04</rscale>
<asrwt>0</asrwt>
<pdfrwt beam="1">  1        2 0.32090353E+00 0.19412273E+04</pdfrwt>
<pdfrwt beam="2">  1       -2 0.69485084E-01 0.19412273E+04</pdfrwt>
<totfact> 0.10551779E+01</totfact>
</mgrwt>
</event>
<event>
12    1  0.1201209E-007  0.3519618E+04  0.7818608E-02  0.8109156E-01
         -2   -1    0    0    0  501 -0.00000000000E+00  0.00000000000E+00  0.15189706483E+04  0.15189706483E+04  0.00000000000E+00 0.  1.
          2   -1    0    0  501    0  0.00000000000E+00 -0.00000000000E+00 -0.20388329621E+04  0.20388329621E+04  0.00000000000E+00 0. -1.
         23    2    1    2    0    0  0.71195336175E+03  0.50716380811E+03 -0.16511358552E+04  0.18704442759E+04  0.90661232723E+02 0.  0.
        254    2    1    2    0    0 -0.71195336175E+03 -0.50716380811E+03  0.11312735414E+04  0.16873593345E+04  0.89627505867E+03 0.  0.
        -24    2    4    4    0    0  0.46742622380E+02  0.19207770547E+03  0.25379574359E+03  0.33054824344E+03  0.75968046489E+02 0.  0.
         24    2    4    4    0    0 -0.75869598413E+03 -0.69924151358E+03  0.87747779779E+03  0.13568110911E+04  0.80067225636E+02 0.  0.
         13    1    3    3    0    0  0.92415663553E+02  0.37992366351E+02 -0.15303780030E+03  0.18276937132E+03  0.00000000000E+00 0.  1.
        -13    1    3    3    0    0  0.61953769819E+03  0.46917144176E+03 -0.14980980549E+04  0.16876749045E+04  0.00000000000E+00 0. -1.
          2    1    6    6  502    0 -0.42428123242E+03 -0.43066030785E+03  0.47823094466E+03  0.77083571620E+03  0.00000000000E+00 0. -1.
          3    1    5    5  503    0 -0.58064348764E+01  0.93951341626E+02  0.76918377104E+02  0.12156070918E+03  0.00000000000E+00 0. -1.
         -4    1    5    5    0  503  0.52549057257E+02  0.98126363845E+02  0.17687736649E+03  0.20898753426E+03  0.00000000000E+00 0.  1.
         -1    1    6    6    0  502 -0.33441475171E+03 -0.26858120573E+03  0.39924685313E+03  0.58597537488E+03  0.00000000000E+00 0.  1.
<mgrwt>
<rscale>  0 0.35196178E+04</rscale>
<asrwt>0</asrwt>
<pdfrwt beam="1">  1        2 0.31366661E+00 0.35196178E+04</pdfrwt>
<pdfrwt beam="2">  1       -2 0.23368779E+00 0.35196178E+04</pdfrwt>
<totfact> 0.42285095E-01</totfact>
</mgrwt>
</event>
<event>
12    1  0.1201209E-007  0.1533477E+04  0.7818608E-02  0.8862491E-01
          1   -1    0    0  501    0  0.00000000000E+00  0.00000000000E+00  0.42170111391E+03  0.42170111391E+03  0.00000000000E+00 0. -1.
         -1   -1    0    0    0  501 -0.00000000000E+00 -0.00000000000E+00 -0.13940863385E+04  0.13940863385E+04  0.00000000000E+00 0.  1.
         23    2    1    2    0    0  0.47697312748E+03  0.11330012430E+02 -0.17734764378E+03  0.52193287771E+03  0.11545565624E+03 0.  0.
        254    2    1    2    0    0 -0.47697312748E+03 -0.11330012430E+02 -0.79503758080E+03  0.12938545747E+04  0.90240964758E+03 0.  0.
        -24    2    4    4    0    0 -0.30944642010E+03 -0.11986789451E+03  0.11332802543E+03  0.36024779622E+03  0.82521720057E+02 0.  0.
         24    2    4    4    0    0 -0.16752670738E+03  0.10853788208E+03 -0.90836560623E+03  0.93360677847E+03  0.81534487805E+02 0.  0.
         11    1    3    3    0    0  0.35032446124E+03  0.26686244685E+01 -0.73590563311E+02  0.35798033565E+03  0.00000000000E+00 0.  1.
        -11    1    3    3    0    0  0.12664866624E+03  0.86613879617E+01 -0.10375708047E+03  0.16395254206E+03  0.00000000000E+00 0. -1.
          4    1    6    6  502    0 -0.56609430388E+02  0.41361087189E+02 -0.16915780830E+03  0.18311125375E+03  0.00000000000E+00 0. -1.
          3    1    5    5  503    0 -0.13972159383E+03 -0.97072193030E+02  0.46025359897E+02  0.17624831402E+03  0.00000000000E+00 0. -1.
         -4    1    5    5    0  503 -0.16972482628E+03 -0.22795701483E+02  0.67302665533E+02  0.18399948220E+03  0.00000000000E+00 0.  1.
         -3    1    6    6    0  502 -0.11091727699E+03  0.67176794894E+02 -0.73920779793E+03  0.75049552472E+03  0.00000000000E+00 0.  1.
<mgrwt>
<rscale>  0 0.15334768E+04</rscale>
<asrwt>0</asrwt>
<pdfrwt beam="1">  1        1 0.64877095E-01 0.15334768E+04</pdfrwt>
<pdfrwt beam="2">  1       -1 0.21447482E+00 0.15334768E+04</pdfrwt>
<totfact> 0.64645963E+00</totfact>
</mgrwt>
</event>
<event>
12    1  0.1305417E-007  0.1956275E+04  0.7818608E-02  0.8627341E-01
         -2   -1    0    0    0  501 -0.00000000000E+00  0.00000000000E+00  0.38328514055E+03  0.38328514055E+03  0.00000000000E+00 0.  1.
          2   -1    0    0  501    0  0.00000000000E+00 -0.00000000000E+00 -0.24961901176E+04  0.24961901176E+04  0.00000000000E+00 0. -1.
         23    2    1    2    0    0  0.18717373110E+03 -0.66010758103E+03 -0.32442292575E+03  0.76414406454E+03  0.88825066732E+02 0.  0.
        254    2    1    2    0    0 -0.18717373110E+03  0.66010758103E+03 -0.17884820513E+04  0.21153311936E+04  0.89731933374E+03 0.  0.
        -24    2    4    4    0    0 -0.22964637777E+02 -0.21193185659E+03 -0.25332359405E+03  0.34040418238E+03  0.79118124681E+02 0.  0.
         24    2    4    4    0    0 -0.16420909333E+03  0.87203943762E+03 -0.15351584573E+04  0.17749270113E+04  0.78974674666E+02 0.  0.
         11    1    3    3    0    0  0.55195359831E+02 -0.15844199613E+03 -0.39730219012E+02  0.17242066056E+03  0.00000000000E+00 0. -1.
        -11    1    3    3    0    0  0.13197837127E+03 -0.50166558490E+03 -0.28469270674E+03  0.59172340399E+03  0.00000000000E+00 0.  1.
          4    1    6    6  502    0 -0.15887397793E+03  0.86948633135E+03 -0.15305213447E+04  0.17674113861E+04  0.00000000000E+00 0. -1.
          1    1    5    5  503    0 -0.37176535804E+02 -0.20698069837E+03 -0.24610143139E+03  0.32371132023E+03  0.00000000000E+00 0. -1.
         -2    1    5    5    0  503  0.14211898027E+02 -0.49511582170E+01 -0.72221626604E+01  0.16692862149E+02  0.00000000000E+00 0.  1.
         -1    1    6    6    0  502 -0.53351153931E+01  0.25531062666E+01 -0.46371125890E+01  0.75156251257E+01  0.00000000000E+00 0.  1.
<mgrwt>
<rscale>  0 0.19562746E+04</rscale>
<asrwt>0</asrwt>
<pdfrwt beam="1">  1        2 0.38402925E+00 0.19562746E+04</pdfrwt>
<pdfrwt beam="2">  1       -2 0.58966945E-01 0.19562746E+04</pdfrwt>
<totfact> 0.87704489E+00</totfact>
</mgrwt>
</event>
<event>
12    1  0.1201209E-007  0.1745091E+04  0.7818608E-02  0.8736057E-01
          2   -1    0    0  501    0  0.00000000000E+00  0.00000000000E+00  0.28373897256E+04  0.28373897256E+04  0.00000000000E+00 0.  1.
         -2   -1    0    0    0  501 -0.00000000000E+00 -0.00000000000E+00 -0.26832251089E+03  0.26832251089E+03  0.00000000000E+00 0. -1.
         23    2    1    2    0    0 -0.40425466614E+03 -0.15617843165E+03  0.17957932631E+04  0.18496907148E+04  0.93106172221E+02 0.  0.
        254    2    1    2    0    0  0.40425466614E+03  0.15617843165E+03  0.77327395163E+03  0.12560215216E+04  0.88984488588E+03 0.  0.
        -24    2    4    4    0    0  0.63959902222E+02 -0.24059992712E+03 -0.60759828607E+02  0.26850134692E+03  0.80137522463E+02 0.  0.
         24    2    4    4    0    0  0.34029476391E+03  0.39677835876E+03  0.83403378024E+03  0.98752017471E+03  0.79687869513E+02 0.  0.
         11    1    3    3    0    0 -0.20181469580E+02 -0.32293883434E+02  0.11553351485E+03  0.12164776889E+03  0.00000000000E+00 0. -1.
        -11    1    3    3    0    0 -0.38407319656E+03 -0.12388454821E+03  0.16802597482E+04  0.17280429460E+04  0.00000000000E+00 0.  1.
          4    1    6    6  502    0  0.31466918495E+03  0.33878560869E+03  0.76424592542E+03  0.89323245526E+03  0.00000000000E+00 0. -1.
          1    1    5    5  503    0  0.31427993798E+02 -0.17271090067E+03 -0.76666369596E+02  0.19155810145E+03  0.00000000000E+00 0. -1.
         -2    1    5    5    0  503  0.32531908424E+02 -0.67889026448E+02  0.15906540989E+02  0.76943245474E+02  0.00000000000E+00 0.  1.
         -3    1    6    6    0  502  0.25625578963E+02  0.57992750073E+02  0.69787854821E+02  0.94287719448E+02  0.00000000000E+00 0.  1.
<mgrwt>
<rscale>  0 0.17450909E+04</rscale>
<asrwt>0</asrwt>
<pdfrwt beam="1">  1        2 0.43652148E+00 0.17450909E+04</pdfrwt>
<pdfrwt beam="2">  1       -2 0.41280388E-01 0.17450909E+04</pdfrwt>
<totfact> 0.11605128E+01</totfact>
</mgrwt>
</event>
<event>
12    1  0.1201209E-007  0.3919553E+04  0.7818608E-02  0.8020975E-01
          1   -1    0    0  501    0  0.00000000000E+00  0.00000000000E+00  0.15547989543E+04  0.15547989543E+04  0.00000000000E+00 0. -1.
         -1   -1    0    0    0  501 -0.00000000000E+00 -0.00000000000E+00 -0.24702385010E+04  0.24702385010E+04  0.00000000000E+00 0.  1.
         23    2    1    2    0    0  0.18292332246E+03 -0.17817533188E+04  0.56521885226E+02  0.17943270812E+04  0.91154372485E+02 0.  0.
        254    2    1    2    0    0 -0.18292332246E+03  0.17817533188E+04 -0.97196143184E+03  0.22307103741E+04  0.90733341013E+03 0.  0.
        -24    2    4    4    0    0 -0.22194911932E+03  0.13597922983E+04 -0.11175649121E+04  0.17758237219E+04  0.79385468057E+02 0.  0.
         24    2    4    4    0    0  0.39025796856E+02  0.42196102054E+03  0.14560348027E+03  0.45488665219E+03  0.78405211542E+02 0.  0.
         11    1    3    3    0    0  0.18060424824E+03 -0.17207521957E+04  0.38328743845E+02  0.17306285292E+04  0.00000000000E+00 0. -1.
        -11    1    3    3    0    0  0.23190742202E+01 -0.61001123126E+02  0.18193141381E+02  0.63698551956E+02  0.00000000000E+00 0.  1.
          2    1    6    6  502    0  0.57614164960E+02  0.22159821291E+03  0.91002589510E+02  0.24638715726E+03  0.00000000000E+00 0. -1.
          3    1    5    5  503    0 -0.17411873940E+03  0.84034061751E+03 -0.71084723005E+03  0.11143578749E+04  0.00000000000E+00 0. -1.
         -4    1    5    5    0  503 -0.47830379918E+02  0.51945168080E+03 -0.40671768206E+03  0.66146584706E+03  0.00000000000E+00 0.  1.
         -1    1    6    6    0  502 -0.18588368104E+02  0.20036280763E+03  0.54600890757E+02  0.20849949492E+03  0.00000000000E+00 0.  1.
<mgrwt>
<rscale>  0 0.39195532E+04</rscale>
<asrwt>0</asrwt>
<pdfrwt beam="1">  1        1 0.23919984E+00 0.39195532E+04</pdfrwt>
<pdfrwt beam="2">  1       -1 0.38003669E+00 0.39195532E+04</pdfrwt>
<totfact> 0.46151527E-02</totfact>
</mgrwt>
</event>
<event>
12    1  0.1201209E-007  0.1768510E+04  0.7818608E-02  0.8723227E-01
          2   -1    0    0  501    0  0.00000000000E+00  0.00000000000E+00  0.22903246640E+04  0.22903246640E+04  0.00000000000E+00 0. -1.
         -2   -1    0    0    0  501 -0.00000000000E+00 -0.00000000000E+00 -0.34139568313E+03  0.34139568313E+03  0.00000000000E+00 0.  1.
         23    2    1    2    0    0 -0.33919360248E+02 -0.47403863265E+03  0.14595591161E+04  0.15374585721E+04  0.87194606992E+02 0.  0.
        254    2    1    2    0    0  0.33919360248E+02  0.47403863265E+03  0.48936986475E+03  0.10942617749E+04  0.85560669664E+03 0.  0.
        -24    2    4    4    0    0  0.43495692871E+03  0.25445228677E+03  0.31029091089E+03  0.59730340506E+03  0.80977850313E+02 0.  0.
         24    2    4    4    0    0 -0.40103756846E+03  0.21958634588E+03  0.17907895386E+03  0.49695836988E+03  0.76479115221E+02 0.  0.
         11    1    3    3    0    0  0.28504725725E+02 -0.14111560580E+03  0.46768535714E+03  0.48934213682E+03  0.00000000000E+00 0.  1.
        -11    1    3    3    0    0 -0.62424085974E+02 -0.33292302685E+03  0.99187375894E+03  0.10481164353E+04  0.00000000000E+00 0. -1.
          2    1    6    6  502    0 -0.34251682759E+03  0.15437965693E+03  0.13870093256E+03  0.40048571054E+03  0.00000000000E+00 0. -1.
          3    1    5    5  503    0  0.39758010182E+01 -0.16808130093E+01  0.14663941547E+02  0.15286049450E+02  0.00000000000E+00 0. -1.
         -2    1    5    5    0  503  0.43098112769E+03  0.25613309978E+03  0.29562696934E+03  0.58201735561E+03  0.00000000000E+00 0.  1.
         -1    1    6    6    0  502 -0.58520740871E+02  0.65206688944E+02  0.40378021301E+02  0.96472659336E+02  0.00000000000E+00 0.  1.
<mgrwt>
<rscale>  0 0.17685101E+04</rscale>
<asrwt>0</asrwt>
<pdfrwt beam="1">  1        2 0.35235763E+00 0.17685101E+04</pdfrwt>
<pdfrwt beam="2">  1       -2 0.52522414E-01 0.17685101E+04</pdfrwt>
<totfact> 0.14872342E+01</totfact>
</mgrwt>
</event>
<event>
12    1  0.1201209E-007  0.2249433E+04  0.7818608E-02  0.8498130E-01
         -2   -1    0    0    0  501 -0.00000000000E+00  0.00000000000E+00  0.62141713827E+03  0.62141713827E+03  0.00000000000E+00 0.  1.
          2   -1    0    0  501    0  0.00000000000E+00 -0.00000000000E+00 -0.20356489823E+04  0.20356489823E+04  0.00000000000E+00 0. -1.
         23    2    1    2    0    0 -0.26081473248E+03  0.18463309120E+03 -0.16421003299E+04  0.16753344218E+04  0.90212129815E+02 0.  0.
        254    2    1    2    0    0  0.26081473248E+03 -0.18463309120E+03  0.22786848595E+03  0.98173169869E+03  0.89986631133E+03 0.  0.
        -24    2    4    4    0    0 -0.25293102934E+02  0.10236881397E+03 -0.29031165510E+03  0.31895839388E+03  0.79589476741E+02 0.  0.
         24    2    4    4    0    0  0.28610783542E+03 -0.28700190517E+03  0.51818014105E+03  0.66277330481E+03  0.80808464503E+02 0.  0.
         11    1    3    3    0    0 -0.24509707891E+03  0.18435140683E+03 -0.14231616441E+04  0.14558320935E+04  0.00000000000E+00 0. -1.
        -11    1    3    3    0    0 -0.15717653571E+02  0.28168437682E+00 -0.21893868584E+03  0.21950232832E+03  0.00000000000E+00 0.  1.
          4    1    6    6  502    0  0.46548012835E+02 -0.78379004034E+02  0.15893420801E+03  0.18322136406E+03  0.00000000000E+00 0. -1.
          3    1    5    5  503    0 -0.94722721890E+01  0.56933204040E+01  0.14905608515E+01  0.11151663970E+02  0.00000000000E+00 0. -1.
         -4    1    5    5    0  503 -0.15820830745E+02  0.96675493561E+02 -0.29180221595E+03  0.30780672991E+03  0.00000000000E+00 0.  1.
         -3    1    6    6    0  502  0.23955982258E+03 -0.20862290113E+03  0.35924593304E+03  0.47955194075E+03  0.00000000000E+00 0.  1.
<mgrwt>
<rscale>  0 0.22494330E+04</rscale>
<asrwt>0</asrwt>
<pdfrwt beam="1">  1        2 0.31317676E+00 0.22494330E+04</pdfrwt>
<pdfrwt beam="2">  1       -2 0.95602639E-01 0.22494330E+04</pdfrwt>
<totfact> 0.53353333E+00</totfact>
</mgrwt>
</event>
<event>
12    1  0.1201209E-007  0.1243769E+04  0.7818608E-02  0.9075385E-01
          2   -1    0    0  501    0  0.00000000000E+00  0.00000000000E+00  0.61372321935E+03  0.61372321935E+03  0.00000000000E+00 0. -1.
         -2   -1    0    0    0  501 -0.00000000000E+00 -0.00000000000E+00 -0.63015418929E+03  0.63015418929E+03  0.00000000000E+00 0.  1.
         23    2    1    2    0    0 -0.34697702923E+02  0.27897081069E+03  0.52204094021E+02  0.30038616498E+03  0.92075712725E+02 0.  0.
        254    2    1    2    0    0  0.34697702923E+02 -0.27897081069E+03 -0.68635063965E+02  0.94349124365E+03  0.89801799038E+03 0.  0.
        -24    2    4    4    0    0 -0.12972646631E+03 -0.56901351735E+03  0.19084669891E+02  0.58945830368E+03  0.80570020317E+02 0.  0.
         24    2    4    4    0    0  0.16442416923E+03  0.29004270665E+03 -0.87719733855E+02  0.35403293997E+03  0.80526342059E+02 0.  0.
         13    1    3    3    0    0 -0.51092341779E+02  0.23278683047E+03  0.69762188737E+02  0.24832820783E+03  0.00000000000E+00 0.  1.
        -13    1    3    3    0    0  0.16394638856E+02  0.46183980227E+02 -0.17558094716E+02  0.52057957153E+02  0.00000000000E+00 0. -1.
          4    1    6    6  502    0  0.11255579822E+03  0.25758813960E+03 -0.80614501467E+02  0.29243658325E+03  0.00000000000E+00 0. -1.
          1    1    5    5  503    0 -0.95661579283E+02 -0.50734211719E+03  0.34154472824E+02  0.51741056197E+03  0.00000000000E+00 0. -1.
         -2    1    5    5    0  503 -0.34064887028E+02 -0.61671400153E+02 -0.15069802934E+02  0.72047741710E+02  0.00000000000E+00 0.  1.
         -3    1    6    6    0  502  0.51868371011E+02  0.32454567054E+02 -0.71052323887E+01  0.61596356721E+02  0.00000000000E+00 0.  1.
<mgrwt>
<rscale>  0 0.12437689E+04</rscale>
<asrwt>0</asrwt>
<pdfrwt beam="1">  1        2 0.94418957E-01 0.12437689E+04</pdfrwt>
<pdfrwt beam="2">  1       -2 0.96946798E-01 0.12437689E+04</pdfrwt>
<totfact> 0.42204463E+01</totfact>
</mgrwt>
</event>
<event>
12    1  0.1201209E-007  0.2019089E+04  0.7818608E-02  0.8597748E-01
          1   -1    0    0  501    0  0.00000000000E+00  0.00000000000E+00  0.23962796944E+04  0.23962796944E+04  0.00000000000E+00 0.  1.
         -1   -1    0    0    0  501 -0.00000000000E+00 -0.00000000000E+00 -0.42531765552E+03  0.42531765552E+03  0.00000000000E+00 0. -1.
         23    2    1    2    0    0 -0.21624454659E+02 -0.42353266029E+03  0.17812743953E+04  0.18332524747E+04  0.89602641660E+02 0.  0.
        254    2    1    2    0    0  0.21624454659E+02  0.42353266029E+03  0.18968764365E+03  0.98834487526E+03  0.87235122452E+03 0.  0.
        -24    2    4    4    0    0  0.24549717133E+02  0.51319573645E+03 -0.21769594583E+03  0.56339441786E+03  0.77776556387E+02 0.  0.
         24    2    4    4    0    0 -0.29252624740E+01 -0.89663076158E+02  0.40738358948E+03  0.42495045740E+03  0.81076987363E+02 0.  0.
         13    1    3    3    0    0 -0.98038867392E+01 -0.30135034952E+03  0.14211490418E+04  0.14527810394E+04  0.00000000000E+00 0. -1.
        -13    1    3    3    0    0 -0.11820567919E+02 -0.12218231077E+03  0.36012535344E+03  0.38047143530E+03  0.00000000000E+00 0.  1.
          4    1    6    6  502    0 -0.33231026365E+02 -0.83657121157E+02  0.30106312417E+03  0.31423211130E+03  0.00000000000E+00 0. -1.
          3    1    5    5  503    0  0.35075392505E+01  0.26986858390E+03 -0.73303151416E+02  0.27966892465E+03  0.00000000000E+00 0. -1.
         -4    1    5    5    0  503  0.21042177882E+02  0.24332715255E+03 -0.14439279441E+03  0.28372549321E+03  0.00000000000E+00 0.  1.
         -3    1    6    6    0  502  0.30305763891E+02 -0.60059550007E+01  0.10632046531E+03  0.11071834611E+03  0.00000000000E+00 0.  1.
<mgrwt>
<rscale>  0 0.20190890E+04</rscale>
<asrwt>0</asrwt>
<pdfrwt beam="1">  1        1 0.36865841E+00 0.20190890E+04</pdfrwt>
<pdfrwt beam="2">  1       -1 0.65433487E-01 0.20190890E+04</pdfrwt>
<totfact> 0.35051859E+00</totfact>
</mgrwt>
</event>
<event>
12    1  0.1201209E-007  0.2079546E+04  0.7818608E-02  0.8570307E-01
         -2   -1    0    0    0  501 -0.00000000000E+00  0.00000000000E+00  0.62764528023E+03  0.62764528023E+03  0.00000000000E+00 0.  1.
          2   -1    0    0  501    0  0.00000000000E+00 -0.00000000000E+00 -0.17225143664E+04  0.17225143664E+04  0.00000000000E+00 0. -1.
         23    2    1    2    0    0 -0.59993801482E+03 -0.59090265845E+03 -0.45315070888E+03  0.96074769861E+03  0.92730804142E+02 0.  0.
        254    2    1    2    0    0  0.59993801482E+03  0.59090265845E+03 -0.64171837725E+03  0.13894119480E+04  0.89976191968E+03 0.  0.
        -24    2    4    4    0    0  0.76505285467E+03  0.27940899920E+03 -0.61924667727E+03  0.10263433928E+04  0.80864414111E+02 0.  0.
         24    2    4    4    0    0 -0.16511483985E+03  0.31149365926E+03 -0.22471699986E+02  0.36306855514E+03  0.83800885035E+02 0.  0.
         13    1    3    3    0    0 -0.44128267462E+02 -0.42485299022E+02 -0.63021549746E+02  0.87886405971E+02  0.00000000000E+00 0.  1.
        -13    1    3    3    0    0 -0.55580974735E+03 -0.54841735943E+03 -0.39012915913E+03  0.87286129264E+03  0.00000000000E+00 0. -1.
          2    1    6    6  502    0 -0.12088681126E+03  0.28788862413E+03 -0.19330577414E+02  0.31283726163E+03  0.00000000000E+00 0. -1.
          3    1    5    5  503    0  0.60096037616E+03  0.23011899758E+03 -0.52691119784E+03  0.83171121020E+03  0.00000000000E+00 0. -1.
         -4    1    5    5    0  503  0.16409247850E+03  0.49290001619E+02 -0.92335479431E+02  0.19463218265E+03  0.00000000000E+00 0.  1.
         -3    1    6    6    0  502 -0.44228028590E+02  0.23605035123E+02 -0.31411225723E+01  0.50231293505E+02  0.00000000000E+00 0.  1.
<mgrwt>
<rscale>  0 0.20795461E+04</rscale>
<asrwt>0</asrwt>
<pdfrwt beam="1">  1        2 0.26500221E+00 0.20795461E+04</pdfrwt>
<pdfrwt beam="2">  1       -2 0.96560812E-01 0.20795461E+04</pdfrwt>
<totfact> 0.78901687E+00</totfact>
</mgrwt>
</event>
<event>
12    1  0.1201209E-007  0.1481586E+04  0.7818608E-02  0.8896791E-01
         -1   -1    0    0    0  501 -0.00000000000E+00  0.00000000000E+00  0.71510315932E+03  0.71510315932E+03  0.00000000000E+00 0.  1.
          1   -1    0    0  501    0  0.00000000000E+00 -0.00000000000E+00 -0.76740624338E+03  0.76740624338E+03  0.00000000000E+00 0. -1.
         23    2    1    2    0    0 -0.15834696464E+03  0.14108958930E+03 -0.44315094298E+03  0.49701906047E+03  0.75267222512E+02 0.  0.
        254    2    1    2    0    0  0.15834696464E+03 -0.14108958930E+03  0.39084785892E+03  0.98549034224E+03  0.87945956837E+03 0.  0.
        -24    2    4    4    0    0  0.90117368496E+02 -0.22169974715E+03 -0.23627366769E+03  0.34427333742E+03  0.73667949795E+02 0.  0.
         24    2    4    4    0    0  0.68229596148E+02  0.80610157846E+02  0.62712152660E+03  0.64121700481E+03  0.82003431593E+02 0.  0.
         13    1    3    3    0    0 -0.11531837081E+03  0.10981326814E+03 -0.24779202193E+03  0.29454739285E+03  0.00000000000E+00 0. -1.
        -13    1    3    3    0    0 -0.43028593831E+02  0.31276321167E+02 -0.19535892105E+03  0.20247166762E+03  0.00000000000E+00 0.  1.
          4    1    6    6  502    0  0.36524477545E+02  0.88669064437E+02  0.53336067196E+03  0.54191313589E+03  0.00000000000E+00 0. -1.
          1    1    5    5  503    0  0.94892745402E+02 -0.14544303990E+03 -0.15582162346E+03  0.23332100061E+03  0.00000000000E+00 0. -1.
         -2    1    5    5    0  503 -0.47753769064E+01 -0.76256707248E+02 -0.80452044225E+02  0.11095233682E+03  0.00000000000E+00 0.  1.
         -3    1    6    6    0  502  0.31705118603E+02 -0.80589065907E+01  0.93760854640E+02  0.99303868927E+02  0.00000000000E+00 0.  1.
<mgrwt>
<rscale>  0 0.14815865E+04</rscale>
<asrwt>0</asrwt>
<pdfrwt beam="1">  1        1 0.11806250E+00 0.14815865E+04</pdfrwt>
<pdfrwt beam="2">  1       -1 0.11001587E+00 0.14815865E+04</pdfrwt>
<totfact> 0.17468079E+01</totfact>
</mgrwt>
</event>
<event>
12    1  0.1201209E-007  0.1649559E+04  0.7818608E-02  0.8790667E-01
         -2   -1    0    0    0  501 -0.00000000000E+00  0.00000000000E+00  0.75125969529E+03  0.75125969529E+03  0.00000000000E+00 0.  1.
          2   -1    0    0  501    0  0.00000000000E+00 -0.00000000000E+00 -0.90549402775E+03  0.90549402775E+03  0.00000000000E+00 0. -1.
         23    2    1    2    0    0 -0.55783087970E+03 -0.95096100056E+02  0.68849288392E+02  0.57710177878E+03  0.89931529332E+02 0.  0.
        254    2    1    2    0    0  0.55783087970E+03  0.95096100056E+02 -0.22308362085E+03  0.10796519443E+04  0.89199969745E+03 0.  0.
        -24    2    4    4    0    0 -0.28522276774E+02  0.35513340238E+03  0.66488393653E+02  0.37139761102E+03  0.81130914114E+02 0.  0.
         24    2    4    4    0    0  0.58635315647E+03 -0.26003730232E+03 -0.28957201450E+03  0.70825433323E+03  0.79641862463E+02 0.  0.
         11    1    3    3    0    0 -0.30984703121E+03 -0.18999891751E+02  0.67590150398E+02  0.31770207280E+03  0.00000000000E+00 0. -1.
        -11    1    3    3    0    0 -0.24798384849E+03 -0.76096208305E+02  0.12591379944E+01  0.25939970598E+03  0.00000000000E+00 0.  1.
          4    1    6    6  502    0  0.55609571111E+03 -0.26425687964E+03 -0.27864753297E+03  0.67580957820E+03  0.00000000000E+00 0. -1.
          3    1    5    5  503    0 -0.33793361690E+01  0.21962344209E+03  0.30374883649E+01  0.21967044081E+03  0.00000000000E+00 0. -1.
         -4    1    5    5    0  503 -0.25142940605E+02  0.13550996028E+03  0.63450905288E+02  0.15172717021E+03  0.00000000000E+00 0.  1.
         -3    1    6    6    0  502  0.30257445363E+02  0.42195773184E+01 -0.10924481529E+02  0.32444755035E+02  0.00000000000E+00 0.  1.
<mgrwt>
<rscale>  0 0.16495589E+04</rscale>
<asrwt>0</asrwt>
<pdfrwt beam="1">  1        2 0.13930677E+00 0.16495589E+04</pdfrwt>
<pdfrwt beam="2">  1       -2 0.11557841E+00 0.16495589E+04</pdfrwt>
<totfact> 0.16176795E+01</totfact>
</mgrwt>
</event>
<event>
12    1  0.1201209E-007  0.1652085E+04  0.7818608E-02  0.8789174E-01
          2   -1    0    0  501    0  0.00000000000E+00  0.00000000000E+00  0.19877926505E+04  0.19877926505E+04  0.00000000000E+00 0.  1.
         -2   -1    0    0    0  501 -0.00000000000E+00 -0.00000000000E+00 -0.34326829899E+03  0.34326829899E+03  0.00000000000E+00 0. -1.
         23    2    1    2    0    0  0.52259159271E+03 -0.16032283471E+03  0.84679582527E+03  0.10122657922E+04  0.93880137752E+02 0.  0.
        254    2    1    2    0    0 -0.52259159271E+03  0.16032283471E+03  0.79772852621E+03  0.13187951573E+04  0.89668527432E+03 0.  0.
        -24    2    4    4    0    0 -0.47352815076E+03 -0.24661643872E+02  0.94784573413E+03  0.10627344737E+04  0.78459668448E+02 0.  0.
         24    2    4    4    0    0 -0.49063441956E+02  0.18498447858E+03 -0.15011720792E+03  0.25606068359E+03  0.80033861059E+02 0.  0.
         13    1    3    3    0    0  0.44504526018E+02 -0.34428341906E+02  0.12847084551E+03  0.14025235010E+03  0.00000000000E+00 0. -1.
        -13    1    3    3    0    0  0.47808706669E+03 -0.12589449280E+03  0.71832497976E+03  0.87201344210E+03  0.00000000000E+00 0.  1.
          2    1    6    6  502    0 -0.81421939273E+01  0.78205758162E+02 -0.10929823175E+03  0.13464226452E+03  0.00000000000E+00 0. -1.
          3    1    5    5  503    0 -0.36917754817E+03  0.11277822677E+02  0.70141828148E+03  0.79272117226E+03  0.00000000000E+00 0. -1.
         -4    1    5    5    0  503 -0.10435060259E+03 -0.35939466549E+02  0.24642745266E+03  0.27001330141E+03  0.00000000000E+00 0.  1.
         -1    1    6    6    0  502 -0.40921248028E+02  0.10677872042E+03 -0.40818976171E+02  0.12141841907E+03  0.00000000000E+00 0.  1.
<mgrwt>
<rscale>  0 0.16520850E+04</rscale>
<asrwt>0</asrwt>
<pdfrwt beam="1">  1        2 0.30581425E+00 0.16520850E+04</pdfrwt>
<pdfrwt beam="2">  1       -2 0.52810509E-01 0.16520850E+04</pdfrwt>
<totfact> 0.21925776E+01</totfact>
</mgrwt>
</event>
<event>
12    1  0.1201209E-007  0.1649482E+04  0.7818608E-02  0.8790713E-01
          1   -1    0    0  501    0  0.00000000000E+00  0.00000000000E+00  0.10391081233E+04  0.10391081233E+04  0.00000000000E+00 0. -1.
         -1   -1    0    0    0  501 -0.00000000000E+00 -0.00000000000E+00 -0.65459742167E+03  0.65459742167E+03  0.00000000000E+00 0.  1.
         23    2    1    2    0    0  0.92841362604E+01 -0.54405206688E+03  0.32157231933E+03  0.63848069365E+03  0.90388013297E+02 0.  0.
        254    2    1    2    0    0 -0.92841362604E+01  0.54405206688E+03  0.62938382295E+02  0.10552248513E+04  0.90191984133E+03 0.  0.
        -24    2    4    4    0    0  0.39493190099E+02  0.31882889278E+03 -0.40748565788E+03  0.52522872918E+03  0.81296258488E+02 0.  0.
         24    2    4    4    0    0 -0.48777326360E+02  0.22522317410E+03  0.47042404017E+03  0.52999612212E+03  0.80575468820E+02 0.  0.
         11    1    3    3    0    0  0.15459191952E+01 -0.28312943775E+03  0.11500751969E+03  0.30560006213E+03  0.00000000000E+00 0. -1.
        -11    1    3    3    0    0  0.77382170652E+01 -0.26092262913E+03  0.20656479964E+03  0.33288063153E+03  0.00000000000E+00 0.  1.
          4    1    6    6  502    0 -0.36409544669E+02  0.88038533616E+02  0.27399612012E+03  0.29008673218E+03  0.00000000000E+00 0. -1.
          3    1    5    5  503    0  0.49188579526E+02  0.30803394178E+03 -0.36394084396E+03  0.47933011959E+03  0.00000000000E+00 0. -1.
         -4    1    5    5    0  503 -0.96953894264E+01  0.10794951005E+02 -0.43544813922E+02  0.45898609596E+02  0.00000000000E+00 0.  1.
         -3    1    6    6    0  502 -0.12367781691E+02  0.13718464048E+03  0.19642792005E+03  0.23990938994E+03  0.00000000000E+00 0.  1.
<mgrwt>
<rscale>  0 0.16494817E+04</rscale>
<asrwt>0</asrwt>
<pdfrwt beam="1">  1        1 0.15986279E+00 0.16494817E+04</pdfrwt>
<pdfrwt beam="2">  1       -1 0.10070730E+00 0.16494817E+04</pdfrwt>
<totfact> 0.12646884E+01</totfact>
</mgrwt>
</event>
<event>
12    1  0.1201209E-007  0.1847329E+04  0.7818608E-02  0.8681528E-01
         -1   -1    0    0    0  501 -0.00000000000E+00  0.00000000000E+00  0.82618395462E+03  0.82618395462E+03  0.00000000000E+00 0. -1.
          1   -1    0    0  501    0  0.00000000000E+00 -0.00000000000E+00 -0.10326462613E+04  0.10326462613E+04  0.00000000000E+00 0.  1.
         23    2    1    2    0    0 -0.65093694292E+02  0.33921741054E+03 -0.69479669010E+03  0.78135929147E+03  0.92055750210E+02 0.  0.
        254    2    1    2    0    0  0.65093694292E+02 -0.33921741054E+03  0.48833438337E+03  0.10774709245E+04  0.89619611832E+03 0.  0.
        -24    2    4    4    0    0 -0.23654217360E+03  0.11634539176E+03  0.44492456198E+03  0.52352300936E+03  0.81424967907E+02 0.  0.
         24    2    4    4    0    0  0.30163586789E+03 -0.45556280231E+03  0.43409821387E+02  0.55394791514E+03  0.80325689844E+02 0.  0.
         11    1    3    3    0    0  0.18062962766E+02  0.20302605926E+02 -0.40966728869E+02  0.49160342813E+02  0.00000000000E+00 0. -1.
        -11    1    3    3    0    0 -0.83156657058E+02  0.31891480462E+03 -0.65382996123E+03  0.73219894866E+03  0.00000000000E+00 0.  1.
          4    1    6    6  502    0  0.25274113807E+03 -0.33492144567E+03  0.55393428861E+02  0.42322439627E+03  0.00000000000E+00 0. -1.
          3    1    5    5  503    0 -0.10088164839E+03  0.93033535518E+02  0.24456882907E+03  0.28043940141E+03  0.00000000000E+00 0. -1.
         -4    1    5    5    0  503 -0.13566052520E+03  0.23311856245E+02  0.20035573291E+03  0.24308360795E+03  0.00000000000E+00 0.  1.
         -3    1    6    6    0  502  0.48894729822E+02 -0.12064135664E+03 -0.11983607473E+02  0.13072351887E+03  0.00000000000E+00 0.  1.
<mgrwt>
<rscale>  0 0.18473286E+04</rscale>
<asrwt>0</asrwt>
<pdfrwt beam="1">  1        1 0.15886865E+00 0.18473286E+04</pdfrwt>
<pdfrwt beam="2">  1       -1 0.12710522E+00 0.18473286E+04</pdfrwt>
<totfact> 0.72001896E+00</totfact>
</mgrwt>
</event>
<event>
12    1  0.1201209E-007  0.1622636E+04  0.7818608E-02  0.8806761E-01
         -1   -1    0    0    0  501 -0.00000000000E+00  0.00000000000E+00  0.38596099583E+03  0.38596099583E+03  0.00000000000E+00 0.  1.
          1   -1    0    0  501    0  0.00000000000E+00 -0.00000000000E+00 -0.17054498737E+04  0.17054498737E+04  0.00000000000E+00 0. -1.
         23    2    1    2    0    0  0.29614677115E+03 -0.20576726050E+03 -0.97371227911E+03  0.10423362968E+04  0.91138782201E+02 0.  0.
        254    2    1    2    0    0 -0.29614677115E+03  0.20576726050E+03 -0.34577659877E+03  0.10490745727E+04  0.92247109836E+03 0.  0.
        -24    2    4    4    0    0  0.27641475122E+03 -0.11410112755E+03 -0.21095843841E+03  0.37468647971E+03  0.80388514959E+02 0.  0.
         24    2    4    4    0    0 -0.57256152237E+03  0.31986838805E+03 -0.13481816036E+03  0.67438809301E+03  0.80503919527E+02 0.  0.
         13    1    3    3    0    0  0.46481663540E+02 -0.66473260373E+02 -0.15165906468E+03  0.17198753237E+03  0.00000000000E+00 0.  1.
        -13    1    3    3    0    0  0.24966510762E+03 -0.13929400013E+03 -0.82205321442E+03  0.87034876445E+03  0.00000000000E+00 0. -1.
          2    1    6    6  502    0 -0.12523984919E+03  0.42234270779E+02 -0.49016412620E+02  0.14096581912E+03  0.00000000000E+00 0. -1.
          1    1    5    5  503    0  0.27750066219E+02 -0.16008315430E+02  0.31590136359E+01  0.32191795620E+02  0.00000000000E+00 0. -1.
         -2    1    5    5    0  503  0.24866468500E+03 -0.98092812123E+02 -0.21411745205E+03  0.34249468409E+03  0.00000000000E+00 0.  1.
         -1    1    6    6    0  502 -0.44732167318E+03  0.27763411727E+03 -0.85801747738E+02  0.53342227389E+03  0.00000000000E+00 0.  1.
<mgrwt>
<rscale>  0 0.16226363E+04</rscale>
<asrwt>0</asrwt>
<pdfrwt beam="1">  1        1 0.26237690E+00 0.16226363E+04</pdfrwt>
<pdfrwt beam="2">  1       -1 0.59378616E-01 0.16226363E+04</pdfrwt>
<totfact> 0.13012392E+01</totfact>
</mgrwt>
</event>
<event>
12    1  0.1201209E-007  0.2093550E+04  0.7818608E-02  0.8564090E-01
          2   -1    0    0  501    0  0.00000000000E+00  0.00000000000E+00  0.17658930203E+04  0.17658930203E+04  0.00000000000E+00 0. -1.
         -2   -1    0    0    0  501 -0.00000000000E+00 -0.00000000000E+00 -0.62050063148E+03  0.62050063148E+03  0.00000000000E+00 0.  1.
         23    2    1    2    0    0  0.79849956814E+03 -0.90581455101E+02  0.51805195785E+03  0.96039137935E+03  0.90372618516E+02 0.  0.
        254    2    1    2    0    0 -0.79849956814E+03  0.90581455101E+02  0.62734043098E+03  0.14260022724E+04  0.99705561748E+03 0.  0.
        -24    2    4    4    0    0 -0.53934173651E+03  0.45727539935E+03  0.65779994000E+03  0.96908574424E+03  0.80225426307E+02 0.  0.
         24    2    4    4    0    0 -0.25915783163E+03 -0.36669394425E+03 -0.30459509018E+02  0.45691652820E+03  0.78852403967E+02 0.  0.
         11    1    3    3    0    0  0.31980808649E+03 -0.64776008795E+02  0.16961312479E+03  0.36775230197E+03  0.00000000000E+00 0. -1.
        -11    1    3    3    0    0  0.47869148165E+03 -0.25805446306E+02  0.34843883306E+03  0.59263907738E+03  0.00000000000E+00 0.  1.
          4    1    6    6  502    0 -0.22566236286E+02 -0.13652952649E+02 -0.17652343366E+02  0.31737097575E+02  0.00000000000E+00 0. -1.
          3    1    5    5  503    0 -0.38064845155E+02  0.94049684804E+01  0.30967775210E+02  0.49963876653E+02  0.00000000000E+00 0. -1.
         -4    1    5    5    0  503 -0.50127689136E+03  0.44787043087E+03  0.62683216479E+03  0.91912186759E+03  0.00000000000E+00 0.  1.
         -3    1    6    6    0  502 -0.23659159534E+03 -0.35304099160E+03 -0.12807165652E+02  0.42517943063E+03  0.00000000000E+00 0.  1.
<mgrwt>
<rscale>  0 0.20935498E+04</rscale>
<asrwt>0</asrwt>
<pdfrwt beam="1">  1        2 0.27167585E+00 0.20935498E+04</pdfrwt>
<pdfrwt beam="2">  1       -2 0.95461636E-01 0.20935498E+04</pdfrwt>
<totfact> 0.76582716E+00</totfact>
</mgrwt>
</event>
<event>
12    1  0.1201209E-007  0.3036061E+04  0.7818608E-02  0.8233508E-01
          1   -1    0    0  501    0  0.00000000000E+00  0.00000000000E+00  0.27843950539E+04  0.27843950539E+04  0.00000000000E+00 0. -1.
         -1   -1    0    0    0  501 -0.00000000000E+00 -0.00000000000E+00 -0.82761818263E+03  0.82761818263E+03  0.00000000000E+00 0.  1.
         23    2    1    2    0    0  0.77790241262E+03 -0.11082480069E+04  0.56471399916E+03  0.14698676210E+04  0.90901671930E+02 0.  0.
        254    2    1    2    0    0 -0.77790241262E+03  0.11082480069E+04  0.13920628721E+04  0.21421456155E+04  0.90421401785E+03 0.  0.
        -24    2    4    4    0    0  0.12479735567E+03  0.47101388051E+03  0.26297344088E+03  0.56029341565E+03  0.85704290445E+02 0.  0.
         24    2    4    4    0    0 -0.90269976829E+03  0.63723412637E+03  0.11290894312E+04  0.15818521999E+04  0.80493696547E+02 0.  0.
         11    1    3    3    0    0  0.26814853967E+03 -0.42359626336E+03  0.16929982462E+03  0.52915013397E+03  0.00000000000E+00 0. -1.
        -11    1    3    3    0    0  0.50975387295E+03 -0.68465174352E+03  0.39541417454E+03  0.94071748699E+03  0.00000000000E+00 0.  1.
          4    1    6    6  502    0 -0.17180374173E+03  0.15780498333E+03  0.25757222535E+03  0.34750883400E+03  0.00000000000E+00 0. -1.
          1    1    5    5  503    0  0.12587208656E+02  0.19938171499E+03  0.88441124374E+02  0.21847960677E+03  0.00000000000E+00 0. -1.
         -2    1    5    5    0  503  0.11221014701E+03  0.27163216552E+03  0.17453231650E+03  0.34181380888E+03  0.00000000000E+00 0.  1.
         -3    1    6    6    0  502 -0.73089602656E+03  0.47942914304E+03  0.87151720584E+03  0.12343433659E+04  0.00000000000E+00 0.  1.
<mgrwt>
<rscale>  0 0.30360606E+04</rscale>
<asrwt>0</asrwt>
<pdfrwt beam="1">  1        1 0.42836847E+00 0.30360606E+04</pdfrwt>
<pdfrwt beam="2">  1       -1 0.12732588E+00 0.30360606E+04</pdfrwt>
<totfact> 0.38743748E-01</totfact>
</mgrwt>
</event>
<event>
12    1  0.1201209E-007  0.1724593E+04  0.7818608E-02  0.8747461E-01
         -1   -1    0    0    0  501 -0.00000000000E+00  0.00000000000E+00  0.78701002454E+03  0.78701002454E+03  0.00000000000E+00 0.  1.
          1   -1    0    0  501    0  0.00000000000E+00 -0.00000000000E+00 -0.94478547361E+03  0.94478547361E+03  0.00000000000E+00 0. -1.
         23    2    1    2    0    0 -0.36507294699E+03 -0.12917952779E+03 -0.54240345899E+03  0.67277572273E+03  0.91978550470E+02 0.  0.
        254    2    1    2    0    0  0.36507294699E+03  0.12917952779E+03  0.38462800992E+03  0.10590197754E+04  0.90753433636E+03 0.  0.
        -24    2    4    4    0    0 -0.27400514648E+03  0.11132789422E+03  0.25947527171E+03  0.40134437714E+03  0.79228606585E+02 0.  0.
         24    2    4    4    0    0  0.63907809347E+03  0.17851633568E+02  0.12515273821E+03  0.65767539827E+03  0.90189973022E+02 0.  0.
         11    1    3    3    0    0 -0.26540348373E+03 -0.89555450134E+02 -0.45549182108E+03  0.53472608586E+03  0.00000000000E+00 0. -1.
        -11    1    3    3    0    0 -0.99669463260E+02 -0.39624077657E+02 -0.86911637910E+02  0.13804963687E+03  0.00000000000E+00 0.  1.
          2    1    6    6  502    0 -0.19877509814E+01 -0.20479377213E+01  0.40708335510E+01  0.49716082583E+01  0.00000000000E+00 0. -1.
          1    1    5    5  503    0 -0.29769082061E+02  0.23428066702E+02  0.71301757226E+02  0.80740405867E+02  0.00000000000E+00 0. -1.
         -2    1    5    5    0  503 -0.24423606442E+03  0.87899827522E+02  0.18817351449E+03  0.32060397127E+03  0.00000000000E+00 0.  1.
         -1    1    6    6    0  502  0.64106584445E+03  0.19899571289E+02  0.12108190466E+03  0.65270379001E+03  0.00000000000E+00 0.  1.
<mgrwt>
<rscale>  0 0.17245934E+04</rscale>
<asrwt>0</asrwt>
<pdfrwt beam="1">  1        1 0.14535161E+00 0.17245934E+04</pdfrwt>
<pdfrwt beam="2">  1       -1 0.12107847E+00 0.17245934E+04</pdfrwt>
<totfact> 0.96266191E+00</totfact>
</mgrwt>
</event>
<event>
12    1  0.1201209E-007  0.2124973E+04  0.7818608E-02  0.8550322E-01
         -2   -1    0    0    0  501 -0.00000000000E+00  0.00000000000E+00  0.35957452451E+03  0.35957452451E+03  0.00000000000E+00 0.  1.
          2   -1    0    0  501    0  0.00000000000E+00 -0.00000000000E+00 -0.31394814161E+04  0.31394814161E+04  0.00000000000E+00 0. -1.
         23    2    1    2    0    0 -0.68312050636E+03  0.40099829703E+03 -0.57708352293E+03  0.98458914838E+03  0.94536438668E+02 0.  0.
        254    2    1    2    0    0  0.68312050636E+03 -0.40099829703E+03 -0.22028233687E+04  0.25144667923E+04  0.91796470267E+03 0.  0.
        -24    2    4    4    0    0 -0.71122867150E+02 -0.14059108462E+03 -0.12789610105E+04  0.12910897762E+04  0.79669496663E+02 0.  0.
         24    2    4    4    0    0  0.75424337351E+03 -0.26040721241E+03 -0.92386235823E+03  0.12233770160E+04  0.80216479971E+02 0.  0.
         11    1    3    3    0    0 -0.73625571280E+02  0.80589591439E+02 -0.79388550412E+02  0.13497388240E+03  0.00000000000E+00 0. -1.
        -11    1    3    3    0    0 -0.60949493508E+03  0.32040870559E+03 -0.49769497252E+03  0.84961526598E+03  0.00000000000E+00 0.  1.
          2    1    6    6  502    0  0.58317694987E+03 -0.22897717707E+03 -0.69121455369E+03  0.93290056368E+03  0.00000000000E+00 0. -1.
          3    1    5    5  503    0 -0.60093406966E+02 -0.13561341226E+03 -0.91641589540E+03  0.92834277532E+03  0.00000000000E+00 0. -1.
         -2    1    5    5    0  503 -0.11029460184E+02 -0.49776723509E+01 -0.36254511506E+03  0.36274700090E+03  0.00000000000E+00 0.  1.
         -1    1    6    6    0  502  0.17106642364E+03 -0.31430035337E+02 -0.23264780454E+03  0.29047645236E+03  0.00000000000E+00 0.  1.
<mgrwt>
<rscale>  0 0.21249730E+04</rscale>
<asrwt>0</asrwt>
<pdfrwt beam="1">  1        2 0.48299716E+00 0.21249730E+04</pdfrwt>
<pdfrwt beam="2">  1       -2 0.55319156E-01 0.21249730E+04</pdfrwt>
<totfact> 0.40190892E+00</totfact>
</mgrwt>
</event>
<event>
12    1  0.1201209E-007  0.2998594E+04  0.7818608E-02  0.8244133E-01
         -2   -1    0    0    0  501 -0.00000000000E+00  0.00000000000E+00  0.86465830883E+03  0.86465830883E+03  0.00000000000E+00 0.  1.
          2   -1    0    0  501    0  0.00000000000E+00 -0.00000000000E+00 -0.25997447683E+04  0.25997447683E+04  0.00000000000E+00 0. -1.
         23    2    1    2    0    0  0.12009630571E+04 -0.20016065513E+03 -0.81972656044E+02  0.12237624570E+04  0.92187214916E+02 0.  0.
        254    2    1    2    0    0 -0.12009630571E+04  0.20016065513E+03 -0.16531138034E+04  0.22406406201E+04  0.89738987575E+03 0.  0.
        -24    2    4    4    0    0 -0.10817372914E+04  0.14569287383E+03 -0.17461868972E+04  0.20608421240E+04  0.80744035759E+02 0.  0.
         24    2    4    4    0    0 -0.11922576569E+03  0.54467781297E+02  0.93073093763E+02  0.17979849606E+03  0.80519413788E+02 0.  0.
         11    1    3    3    0    0  0.17127985869E+01  0.31740312600E+01  0.26209955256E+01  0.44584493923E+01  0.00000000000E+00 0. -1.
        -11    1    3    3    0    0  0.11992502585E+04 -0.20333468639E+03 -0.84593651570E+02  0.12193040076E+04  0.00000000000E+00 0.  1.
          4    1    6    6  502    0 -0.65243630671E+02  0.53060729099E+01  0.53668305299E+01  0.65678677079E+02  0.00000000000E+00 0. -1.
          1    1    5    5  503    0 -0.28065187346E+03  0.52644287022E+02 -0.39764328122E+03  0.48954782619E+03  0.00000000000E+00 0. -1.
         -2    1    5    5    0  503 -0.80108541791E+03  0.93048586811E+02 -0.13485436160E+04  0.15712942979E+04  0.00000000000E+00 0.  1.
         -3    1    6    6    0  502 -0.53982135024E+02  0.49161708387E+02  0.87706263234E+02  0.11411981898E+03  0.00000000000E+00 0.  1.
<mgrwt>
<rscale>  0 0.29985936E+04</rscale>
<asrwt>0</asrwt>
<pdfrwt beam="1">  1        2 0.39996072E+00 0.29985936E+04</pdfrwt>
<pdfrwt beam="2">  1       -2 0.13302436E+00 0.29985936E+04</pdfrwt>
<totfact> 0.10673337E+00</totfact>
</mgrwt>
</event>
<event>
12    1  0.1201209E-007  0.1049143E+04  0.7818608E-02  0.9256229E-01
          1   -1    0    0  501    0  0.00000000000E+00  0.00000000000E+00  0.69996809082E+03  0.69996809082E+03  0.00000000000E+00 0. -1.
         -1   -1    0    0    0  501 -0.00000000000E+00 -0.00000000000E+00 -0.39312573793E+03  0.39312573793E+03  0.00000000000E+00 0.  1.
         23    2    1    2    0    0  0.69210046470E+02 -0.10808509532E+03  0.14891184006E+03  0.21473701773E+03  0.86399261066E+02 0.  0.
        254    2    1    2    0    0 -0.69210046470E+02  0.10808509532E+03  0.15793051283E+03  0.87835681101E+03  0.85445668246E+03 0.  0.
        -24    2    4    4    0    0 -0.38381782095E+03  0.10278781198E+03  0.31933984445E+03  0.51583869663E+03  0.78931430501E+02 0.  0.
         24    2    4    4    0    0  0.31460777448E+03  0.52972833345E+01 -0.16140933162E+03  0.36251811438E+03  0.79751476149E+02 0.  0.
         11    1    3    3    0    0  0.24520585846E+02  0.51652361671E+01  0.38470652244E+01  0.25352291923E+02  0.00000000000E+00 0.  1.
        -11    1    3    3    0    0  0.44689460623E+02 -0.11325033148E+03  0.14506477483E+03  0.18938472581E+03  0.00000000000E+00 0. -1.
          2    1    6    6  502    0  0.14437633422E+02  0.18596353652E+02 -0.62603280226E+01  0.24361061860E+02  0.00000000000E+00 0. -1.
          3    1    5    5  503    0 -0.31650146046E+01 -0.73261985016E+01  0.11769647430E+02  0.14220235671E+02  0.00000000000E+00 0. -1.
         -4    1    5    5    0  503 -0.38065280634E+03  0.11011401048E+03  0.30757019702E+03  0.50161846096E+03  0.00000000000E+00 0.  1.
         -1    1    6    6    0  502  0.30017014105E+03 -0.13299070318E+02 -0.15514900360E+03  0.33815705252E+03  0.00000000000E+00 0.  1.
<mgrwt>
<rscale>  0 0.10491434E+04</rscale>
<asrwt>0</asrwt>
<pdfrwt beam="1">  1        1 0.10768740E+00 0.10491434E+04</pdfrwt>
<pdfrwt beam="2">  1       -1 0.60480883E-01 0.10491434E+04</pdfrwt>
<totfact> 0.75520140E+01</totfact>
</mgrwt>
</event>
<event>
12    1  0.1201209E-007  0.1220536E+04  0.7818608E-02  0.9095069E-01
          1   -1    0    0  501    0  0.00000000000E+00  0.00000000000E+00  0.30400656746E+03  0.30400656746E+03  0.00000000000E+00 0. -1.
         -1   -1    0    0    0  501 -0.00000000000E+00 -0.00000000000E+00 -0.12250632114E+04  0.12250632114E+04  0.00000000000E+00 0.  1.
         23    2    1    2    0    0 -0.70659329867E+02  0.30068442150E+02  0.88257347547E+02  0.14824310791E+03  0.91048380188E+02 0.  0.
        254    2    1    2    0    0  0.70659329867E+02 -0.30068442150E+02 -0.10093139915E+04  0.13808266710E+04  0.93918619545E+03 0.  0.
        -24    2    4    4    0    0 -0.27099958252E+03 -0.31708331340E+03 -0.74199161697E+03  0.85496102173E+03  0.80151030260E+02 0.  0.
         24    2    4    4    0    0  0.34165891239E+03  0.28701487125E+03 -0.26732237454E+03  0.52586564926E+03  0.77233932969E+02 0.  0.
         11    1    3    3    0    0 -0.66418028713E+02  0.20060851980E+02  0.11027788674E+02  0.70252433719E+02  0.00000000000E+00 0. -1.
        -11    1    3    3    0    0 -0.42413011540E+01  0.10007590170E+02  0.77229558872E+02  0.77990674187E+02  0.00000000000E+00 0.  1.
          2    1    6    6  502    0  0.33124939324E+02  0.50996293234E+02 -0.60511036686E+02  0.85787348074E+02  0.00000000000E+00 0. -1.
          1    1    5    5  503    0 -0.96774054708E+00 -0.32014173155E+02 -0.52414266391E+02  0.61425557595E+02  0.00000000000E+00 0. -1.
         -2    1    5    5    0  503 -0.27003184197E+03 -0.28506914024E+03 -0.68957735058E+03  0.79353546413E+03  0.00000000000E+00 0.  1.
         -1    1    6    6    0  502  0.30853397307E+03  0.23601857802E+03 -0.20681133786E+03  0.44007830118E+03  0.00000000000E+00 0.  1.
<mgrwt>
<rscale>  0 0.12205364E+04</rscale>
<asrwt>0</asrwt>
<pdfrwt beam="1">  1        1 0.46770242E-01 0.12205364E+04</pdfrwt>
<pdfrwt beam="2">  1       -1 0.18847126E+00 0.12205364E+04</pdfrwt>
<totfact> 0.15425597E+01</totfact>
</mgrwt>
</event>
<event>
12    1  0.1503039E-007  0.3256783E+04  0.7818608E-02  0.8173980E-01
          2   -1    0    0  501    0  0.00000000000E+00  0.00000000000E+00  0.14486535557E+04  0.14486535557E+04  0.00000000000E+00 0. -1.
         -2   -1    0    0    0  501 -0.00000000000E+00 -0.00000000000E+00 -0.18304298782E+04  0.18304298782E+04  0.00000000000E+00 0.  1.
         23    2    1    2    0    0  0.20272482439E+03  0.14580391764E+04 -0.47349679442E+03  0.15493191906E+04  0.95995550317E+02 0.  0.
        254    2    1    2    0    0 -0.20272482439E+03 -0.14580391764E+04  0.91720471990E+02  0.17297642434E+04  0.90371239801E+03 0.  0.
        -24    2    4    4    0    0  0.31340546953E+03 -0.34248124985E+03  0.15646432347E+03  0.49629995836E+03  0.79474331243E+02 0.  0.
         24    2    4    4    0    0 -0.51613029392E+03 -0.11155579265E+04 -0.64743851481E+02  0.12334642850E+04  0.79889976081E+02 0.  0.
         13    1    3    3    0    0  0.11288228237E+03  0.88486375238E+03 -0.23857089443E+03  0.92338634472E+03  0.00000000000E+00 0.  1.
        -13    1    3    3    0    0  0.89842542020E+02  0.57317542400E+03 -0.23492589999E+03  0.62593284586E+03  0.00000000000E+00 0. -1.
          4    1    6    6  502    0 -0.13906379535E+03 -0.39020708748E+03 -0.24464923841E+02  0.41496848410E+03  0.00000000000E+00 0. -1.
          3    1    5    5  503    0  0.29786714609E+01 -0.78555574568E+01  0.17106416046E+02  0.19058114717E+02  0.00000000000E+00 0. -1.
         -4    1    5    5    0  503  0.31042679807E+03 -0.33462569239E+03  0.13935790742E+03  0.47724184365E+03  0.00000000000E+00 0.  1.
         -3    1    6    6    0  502 -0.37706649857E+03 -0.72535083906E+03 -0.40278927639E+02  0.81849580089E+03  0.00000000000E+00 0.  1.
<mgrwt>
<rscale>  0 0.32567829E+04</rscale>
<asrwt>0</asrwt>
<pdfrwt beam="1">  1        2 0.22286978E+00 0.32567829E+04</pdfrwt>
<pdfrwt beam="2">  1       -2 0.28160460E+00 0.32567829E+04</pdfrwt>
<totfact> 0.46841614E-01</totfact>
</mgrwt>
</event>
<event>
12    1  0.1201209E-007  0.1906640E+04  0.7818608E-02  0.8651558E-01
         -2   -1    0    0    0  501 -0.00000000000E+00  0.00000000000E+00  0.64451087373E+03  0.64451087373E+03  0.00000000000E+00 0. -1.
          2   -1    0    0  501    0  0.00000000000E+00 -0.00000000000E+00 -0.14100914061E+04  0.14100914061E+04  0.00000000000E+00 0.  1.
         23    2    1    2    0    0  0.15627060086E+03 -0.49352577388E+03 -0.84926440708E+03  0.99915477097E+03  0.95247220656E+02 0.  0.
        254    2    1    2    0    0 -0.15627060086E+03  0.49352577388E+03  0.83683874693E+02  0.10554475089E+04  0.91595756612E+03 0.  0.
        -24    2    4    4    0    0 -0.11795873156E+03  0.68789409531E+02  0.45677818402E+03  0.48317569350E+03  0.78525130866E+02 0.  0.
         24    2    4    4    0    0 -0.38311869302E+02  0.42473636435E+03 -0.37309430933E+03  0.57227181538E+03  0.80167876936E+02 0.  0.
         13    1    3    3    0    0  0.21015967590E+02 -0.59642987517E+02 -0.53851254734E+02  0.83059704371E+02  0.00000000000E+00 0. -1.
        -13    1    3    3    0    0  0.13525463327E+03 -0.43388278636E+03 -0.79541315235E+03  0.91609506660E+03  0.00000000000E+00 0.  1.
          2    1    6    6  502    0  0.11803985755E+02  0.27714702059E+03 -0.22349873749E+03  0.35623235502E+03  0.00000000000E+00 0. -1.
          1    1    5    5  503    0 -0.83607130355E+02  0.34888086257E+01  0.23636380068E+03  0.25073924763E+03  0.00000000000E+00 0. -1.
         -2    1    5    5    0  503 -0.34351601207E+02  0.65300600906E+02  0.22041438334E+03  0.23243644587E+03  0.00000000000E+00 0.  1.
         -1    1    6    6    0  502 -0.50115855057E+02  0.14758934376E+03 -0.14959557183E+03  0.21603946036E+03  0.00000000000E+00 0.  1.
<mgrwt>
<rscale>  0 0.19066402E+04</rscale>
<asrwt>0</asrwt>
<pdfrwt beam="1">  1        2 0.21693714E+00 0.19066402E+04</pdfrwt>
<pdfrwt beam="2">  1       -2 0.99155519E-01 0.19066402E+04</pdfrwt>
<totfact> 0.11266134E+01</totfact>
</mgrwt>
</event>
<event>
12    1  0.1201209E-007  0.1227676E+04  0.7818608E-02  0.9088971E-01
          1   -1    0    0  501    0  0.00000000000E+00  0.00000000000E+00  0.13417381897E+04  0.13417381897E+04  0.00000000000E+00 0. -1.
         -1   -1    0    0    0  501 -0.00000000000E+00 -0.00000000000E+00 -0.28082755345E+03  0.28082755345E+03  0.00000000000E+00 0.  1.
         23    2    1    2    0    0  0.19295047828E+03  0.73082565577E+02  0.47372089116E+03  0.52470872689E+03  0.91306171143E+02 0.  0.
        254    2    1    2    0    0 -0.19295047828E+03 -0.73082565577E+02  0.58718974512E+03  0.10978570163E+04  0.90439332317E+03 0.  0.
        -24    2    4    4    0    0 -0.38049011688E+03  0.20884727294E+02  0.73320311647E+03  0.83016428331E+03  0.79856285968E+02 0.  0.
         24    2    4    4    0    0  0.18753963860E+03 -0.93967292871E+02 -0.14601337134E+03  0.26769273299E+03  0.79614863614E+02 0.  0.
         13    1    3    3    0    0  0.16898780242E+03  0.59489837376E+02  0.46055911067E+03  0.49417670174E+03  0.00000000000E+00 0. -1.
        -13    1    3    3    0    0  0.23962675855E+02  0.13592728201E+02  0.13161780494E+02  0.30532025152E+02  0.00000000000E+00 0.  1.
          2    1    6    6  502    0  0.25202506694E+02  0.14000622630E+02 -0.12667823312E+02  0.31490594233E+02  0.00000000000E+00 0. -1.
          3    1    5    5  503    0 -0.18112108765E+03 -0.66102545236E+01  0.27071130237E+03  0.32578083597E+03  0.00000000000E+00 0. -1.
         -4    1    5    5    0  503 -0.19936902924E+03  0.27494981817E+02  0.46249181410E+03  0.50438344734E+03  0.00000000000E+00 0.  1.
         -1    1    6    6    0  502  0.16233713191E+03 -0.10796791550E+03 -0.13334554803E+03  0.23620213876E+03  0.00000000000E+00 0.  1.
<mgrwt>
<rscale>  0 0.12276759E+04</rscale>
<asrwt>0</asrwt>
<pdfrwt beam="1">  1        1 0.20642126E+00 0.12276759E+04</pdfrwt>
<pdfrwt beam="2">  1       -1 0.43204240E-01 0.12276759E+04</pdfrwt>
<totfact> 0.44067378E+01</totfact>
</mgrwt>
</event>
<event>
12    1  0.1201209E-007  0.2012234E+04  0.7818608E-02  0.8600922E-01
          2   -1    0    0  501    0  0.00000000000E+00  0.00000000000E+00  0.20587766531E+04  0.20587766531E+04  0.00000000000E+00 0. -1.
         -2   -1    0    0    0  501 -0.00000000000E+00 -0.00000000000E+00 -0.49168576317E+03  0.49168576317E+03  0.00000000000E+00 0.  1.
         23    2    1    2    0    0  0.10970543919E+03  0.77300274760E+03  0.41533828979E+03  0.88895463682E+03  0.90365481071E+02 0.  0.
        254    2    1    2    0    0 -0.10970543919E+03 -0.77300274760E+03  0.11517526001E+04  0.16615077794E+04  0.90802286209E+03 0.  0.
        -24    2    4    4    0    0  0.58798332716E+02  0.12283931711E+03  0.53513765108E+03  0.55790187585E+03  0.79595575962E+02 0.  0.
         24    2    4    4    0    0 -0.16850377191E+03 -0.89584206471E+03  0.61661494905E+03  0.11036059036E+04  0.82495266639E+02 0.  0.
         11    1    3    3    0    0  0.64961764877E+02  0.18268333427E+03  0.97810635993E+02  0.21716388289E+03  0.00000000000E+00 0. -1.
        -11    1    3    3    0    0  0.44743674314E+02  0.59031941332E+03  0.31752765380E+03  0.67179075393E+03  0.00000000000E+00 0.  1.
          4    1    6    6  502    0 -0.40674836651E+02 -0.10582869439E+03  0.98968890746E+02  0.15049583459E+03  0.00000000000E+00 0. -1.
          1    1    5    5  503    0  0.12898696182E+02 -0.78304187446E+00  0.96688720345E+01  0.16139287599E+02  0.00000000000E+00 0. -1.
         -2    1    5    5    0  503  0.45899636535E+02  0.12362235899E+03  0.52546877905E+03  0.54176258825E+03  0.00000000000E+00 0.  1.
         -3    1    6    6    0  502 -0.12782893526E+03 -0.79001337032E+03  0.51764605830E+03  0.95311006901E+03  0.00000000000E+00 0.  1.
<mgrwt>
<rscale>  0 0.20122338E+04</rscale>
<asrwt>0</asrwt>
<pdfrwt beam="1">  1        2 0.31673487E+00 0.20122338E+04</pdfrwt>
<pdfrwt beam="2">  1       -2 0.75643964E-01 0.20122338E+04</pdfrwt>
<totfact> 0.90092171E+00</totfact>
</mgrwt>
</event>
<event>
12    1  0.1201209E-007  0.2498761E+04  0.7818608E-02  0.8403427E-01
         -2   -1    0    0    0  501 -0.00000000000E+00  0.00000000000E+00  0.74383258910E+03  0.74383258910E+03  0.00000000000E+00 0.  1.
          2   -1    0    0  501    0  0.00000000000E+00 -0.00000000000E+00 -0.20985259434E+04  0.20985259434E+04  0.00000000000E+00 0. -1.
         23    2    1    2    0    0 -0.83468677428E+03  0.64450864574E+03 -0.88558809949E+03  0.13800395643E+04  0.90274645400E+02 0.  0.
        254    2    1    2    0    0  0.83468677428E+03 -0.64450864574E+03 -0.46910525483E+03  0.14623189682E+04  0.89789955953E+03 0.  0.
        -24    2    4    4    0    0  0.65067886175E+02  0.16984470179E+03 -0.24786721287E+03  0.31747201582E+03  0.79178741316E+02 0.  0.
         24    2    4    4    0    0  0.76961888810E+03 -0.81435334753E+03 -0.22123804196E+03  0.11448469524E+04  0.79016868841E+02 0.  0.
         11    1    3    3    0    0 -0.64916974973E+03  0.52336538342E+03 -0.74044684141E+03  0.11151655543E+04  0.00000000000E+00 0. -1.
        -11    1    3    3    0    0 -0.18551702455E+03  0.12114326232E+03 -0.14514125809E+03  0.26487401006E+03  0.00000000000E+00 0.  1.
          4    1    6    6  502    0  0.26576505672E+03 -0.24409565934E+03 -0.44063012422E+02  0.36353171161E+03  0.00000000000E+00 0. -1.
          3    1    5    5  503    0  0.11159617397E+02  0.58875358110E+02 -0.29797812001E+02  0.66923497018E+02  0.00000000000E+00 0. -1.
         -4    1    5    5    0  503  0.53908268778E+02  0.11096934368E+03 -0.21806940087E+03  0.25054851880E+03  0.00000000000E+00 0.  1.
         -3    1    6    6    0  502  0.50385383139E+03 -0.57025768819E+03 -0.17717502954E+03  0.78131524075E+03  0.00000000000E+00 0.  1.
<mgrwt>
<rscale>  0 0.24987613E+04</rscale>
<asrwt>0</asrwt>
<pdfrwt beam="1">  1        2 0.32285014E+00 0.24987613E+04</pdfrwt>
<pdfrwt beam="2">  1       -2 0.11443578E+00 0.24987613E+04</pdfrwt>
<totfact> 0.31335085E+00</totfact>
</mgrwt>
</event>
<event>
12    1  0.1201209E-007  0.1606773E+04  0.7818608E-02  0.8816398E-01
         -1   -1    0    0    0  501 -0.00000000000E+00  0.00000000000E+00  0.86572890370E+03  0.86572890370E+03  0.00000000000E+00 0.  1.
          1   -1    0    0  501    0  0.00000000000E+00 -0.00000000000E+00 -0.74553322097E+03  0.74553322097E+03  0.00000000000E+00 0. -1.
         23    2    1    2    0    0 -0.20538363955E+01  0.84861235102E+02 -0.47935163697E+03  0.49518372672E+03  0.90682323942E+02 0.  0.
        254    2    1    2    0    0  0.20538363955E+01 -0.84861235102E+02  0.59954731970E+03  0.11160783979E+04  0.93753312172E+03 0.  0.
        -24    2    4    4    0    0 -0.17583097777E+03  0.27846895837E+03 -0.54058437251E+02  0.34311247232E+03  0.79638938372E+02 0.  0.
         24    2    4    4    0    0  0.17788481417E+03 -0.36333019347E+03  0.65360575695E+03  0.77296592562E+03  0.81387960066E+02 0.  0.
         13    1    3    3    0    0  0.30614601513E+02  0.64683425241E+01 -0.64016061685E+02  0.71254118720E+02  0.00000000000E+00 0.  1.
        -13    1    3    3    0    0 -0.32668437909E+02  0.78392892578E+02 -0.41533557529E+03  0.42392960800E+03  0.00000000000E+00 0. -1.
          2    1    6    6  502    0  0.16724697708E+03 -0.26279190739E+03  0.49844228727E+03  0.58777193849E+03  0.00000000000E+00 0. -1.
          3    1    5    5  503    0 -0.74583559389E+02  0.68787156014E+02  0.90537448093E+01  0.10186437286E+03  0.00000000000E+00 0. -1.
         -4    1    5    5    0  503 -0.10124741838E+03  0.20968180236E+03 -0.63112182061E+02  0.24124809946E+03  0.00000000000E+00 0.  1.
         -1    1    6    6    0  502  0.10637837093E+02 -0.10053828608E+03  0.15516346968E+03  0.18519398713E+03  0.00000000000E+00 0.  1.
<mgrwt>
<rscale>  0 0.16067727E+04</rscale>
<asrwt>0</asrwt>
<pdfrwt beam="1">  1        1 0.11469742E+00 0.16067727E+04</pdfrwt>
<pdfrwt beam="2">  1       -1 0.13318906E+00 0.16067727E+04</pdfrwt>
<totfact> 0.11307611E+01</totfact>
</mgrwt>
</event>
<event>
12    1  0.1201209E-007  0.1872063E+04  0.7818608E-02  0.8668889E-01
          1   -1    0    0  501    0  0.00000000000E+00  0.00000000000E+00  0.81466379960E+03  0.81466379960E+03  0.00000000000E+00 0. -1.
         -1   -1    0    0    0  501 -0.00000000000E+00 -0.00000000000E+00 -0.10754805290E+04  0.10754805290E+04  0.00000000000E+00 0.  1.
         23    2    1    2    0    0 -0.65427761562E+02  0.48190239413E+03 -0.54952416033E+03  0.73954852770E+03  0.91894029164E+02 0.  0.
        254    2    1    2    0    0  0.65427761562E+02 -0.48190239413E+03  0.28870743091E+03  0.11505958009E+04  0.10020019995E+04 0.  0.
        -24    2    4    4    0    0  0.57173326921E+01 -0.56053583499E+03 -0.23369209768E+03  0.61251191311E+03  0.79534501804E+02 0.  0.
         24    2    4    4    0    0  0.59710428870E+02  0.78633440869E+02  0.52239952859E+03  0.53808388782E+03  0.82972582922E+02 0.  0.
         11    1    3    3    0    0  0.10278665252E+02  0.24948174009E+03 -0.25670768888E+03  0.35811398622E+03  0.00000000000E+00 0.  1.
        -11    1    3    3    0    0 -0.75706426815E+02  0.23242065403E+03 -0.29281647145E+03  0.38143454148E+03  0.00000000000E+00 0. -1.
          4    1    6    6  502    0  0.94810037363E+01  0.13081077390E+02  0.30654996242E+03  0.30697537927E+03  0.00000000000E+00 0. -1.
          3    1    5    5  503    0  0.12654503952E+02 -0.55791709643E+03 -0.23389585536E+03  0.60509412004E+03  0.00000000000E+00 0. -1.
         -4    1    5    5    0  503 -0.69371712604E+01 -0.26187385678E+01  0.20375768218E+00  0.74177930664E+01  0.00000000000E+00 0.  1.
         -3    1    6    6    0  502  0.50229425134E+02  0.65552363479E+02  0.21584956617E+03  0.23110850855E+03  0.00000000000E+00 0.  1.
<mgrwt>
<rscale>  0 0.18720631E+04</rscale>
<asrwt>0</asrwt>
<pdfrwt beam="1">  1        1 0.12533289E+00 0.18720631E+04</pdfrwt>
<pdfrwt beam="2">  1       -1 0.16545854E+00 0.18720631E+04</pdfrwt>
<totfact> 0.53537279E+00</totfact>
</mgrwt>
</event>
<event>
12    1  0.1201209E-007  0.1650394E+04  0.7818608E-02  0.8790173E-01
          1   -1    0    0  501    0  0.00000000000E+00  0.00000000000E+00  0.12389241953E+04  0.12389241953E+04  0.00000000000E+00 0. -1.
         -1   -1    0    0    0  501 -0.00000000000E+00 -0.00000000000E+00 -0.54963035175E+03  0.54963035175E+03  0.00000000000E+00 0.  1.
         23    2    1    2    0    0 -0.30171074006E+03  0.22320427157E+02  0.77407688036E+03  0.83608527516E+03  0.91192096719E+02 0.  0.
        254    2    1    2    0    0  0.30171074006E+03 -0.22320427157E+02 -0.84783036806E+02  0.95246927190E+03  0.89915625919E+03 0.  0.
        -24    2    4    4    0    0 -0.28202555022E+02  0.33110090201E+03  0.18970159483E+03  0.39084778580E+03  0.79700095130E+02 0.  0.
         24    2    4    4    0    0  0.32991329509E+03 -0.35342132916E+03 -0.27448463164E+03  0.56162148610E+03  0.79545348430E+02 0.  0.
         13    1    3    3    0    0 -0.27913105941E+03 -0.16276014158E+01  0.72607449543E+03  0.77788236278E+03  0.00000000000E+00 0. -1.
        -13    1    3    3    0    0 -0.22579680658E+02  0.23948028573E+02  0.48002384924E+02  0.58202912381E+02  0.00000000000E+00 0.  1.
          4    1    6    6  502    0  0.95846673462E+02 -0.15750728516E+03 -0.11387268929E+03  0.21670745040E+03  0.00000000000E+00 0. -1.
          1    1    5    5  503    0  0.17240964505E+02  0.22388943884E+03  0.13687871522E+03  0.26298196585E+03  0.00000000000E+00 0. -1.
         -2    1    5    5    0  503 -0.45443519527E+02  0.10721146316E+03  0.52822879609E+02  0.12786581995E+03  0.00000000000E+00 0.  1.
         -3    1    6    6    0  502  0.23406662162E+03 -0.19591404400E+03 -0.16061194235E+03  0.34491403570E+03  0.00000000000E+00 0.  1.
<mgrwt>
<rscale>  0 0.16503943E+04</rscale>
<asrwt>0</asrwt>
<pdfrwt beam="1">  1        1 0.19060372E+00 0.16503943E+04</pdfrwt>
<pdfrwt beam="2">  1       -1 0.84558516E-01 0.16503943E+04</pdfrwt>
<totfact> 0.13245395E+01</totfact>
</mgrwt>
</event>
<event>
12    1  0.1201209E-007  0.2442116E+04  0.7818608E-02  0.8423902E-01
          2   -1    0    0  501    0  0.00000000000E+00  0.00000000000E+00  0.73992618192E+03  0.73992618192E+03  0.00000000000E+00 0. -1.
         -2   -1    0    0    0  501 -0.00000000000E+00 -0.00000000000E+00 -0.20150427202E+04  0.20150427202E+04  0.00000000000E+00 0.  1.
         23    2    1    2    0    0 -0.16213955875E+03  0.10339432077E+04 -0.71488597402E+03  0.12706901455E+04  0.90904876434E+02 0.  0.
        254    2    1    2    0    0  0.16213955875E+03 -0.10339432077E+04 -0.56023056426E+03  0.14842787567E+04  0.89100917449E+03 0.  0.
        -24    2    4    4    0    0 -0.13477692341E+03 -0.97291348450E+03 -0.19985054961E+03  0.10056408206E+04  0.81533738273E+02 0.  0.
         24    2    4    4    0    0  0.29691648216E+03 -0.61029723237E+02 -0.36038001465E+03  0.47863793606E+03  0.85653338458E+02 0.  0.
         13    1    3    3    0    0 -0.66893182479E+02  0.68011166459E+03 -0.44312116347E+03  0.81448323475E+03  0.00000000000E+00 0.  1.
        -13    1    3    3    0    0 -0.95246376270E+02  0.35383154315E+03 -0.27176481055E+03  0.45620691070E+03  0.00000000000E+00 0. -1.
          2    1    6    6  502    0  0.17622474801E+03 -0.27430567395E+02 -0.27224449384E+03  0.32546069235E+03  0.00000000000E+00 0. -1.
          3    1    5    5  503    0 -0.14291118788E+03 -0.81710631555E+03 -0.17203415605E+03  0.84716119445E+03  0.00000000000E+00 0. -1.
         -4    1    5    5    0  503  0.81342644737E+01 -0.15580716895E+03 -0.27816393557E+02  0.15847962615E+03  0.00000000000E+00 0.  1.
         -1    1    6    6    0  502  0.12069173414E+03 -0.33599155842E+02 -0.88135520809E+02  0.15317724371E+03  0.00000000000E+00 0.  1.
<mgrwt>
<rscale>  0 0.24421162E+04</rscale>
<asrwt>0</asrwt>
<pdfrwt beam="1">  1        2 0.11383480E+00 0.24421162E+04</pdfrwt>
<pdfrwt beam="2">  1       -2 0.31000658E+00 0.24421162E+04</pdfrwt>
<totfact> 0.94395701E-01</totfact>
</mgrwt>
</event>
<event>
12    1  0.1201209E-007  0.1953658E+04  0.7818608E-02  0.8628599E-01
         -2   -1    0    0    0  501 -0.00000000000E+00  0.00000000000E+00  0.74377448868E+03  0.74377448868E+03  0.00000000000E+00 0.  1.
          2   -1    0    0  501    0  0.00000000000E+00 -0.00000000000E+00 -0.12829090316E+04  0.12829090316E+04  0.00000000000E+00 0. -1.
         23    2    1    2    0    0  0.11237165932E+02 -0.24929373529E+03 -0.10016938028E+04  0.10364503594E+04  0.92548541231E+02 0.  0.
        254    2    1    2    0    0 -0.11237165932E+02  0.24929373529E+03  0.46255925991E+03  0.99023316089E+03  0.83924192200E+03 0.  0.
        -24    2    4    4    0    0  0.72210182540E+02 -0.25627953736E+03  0.37066374258E+03  0.46372449523E+03  0.82190544960E+02 0.  0.
         24    2    4    4    0    0 -0.83447348471E+02  0.50557327265E+03  0.91895517334E+02  0.52650866566E+03  0.78732426141E+02 0.  0.
         11    1    3    3    0    0  0.51526285316E+01 -0.38872328582E+02 -0.61193399980E+02  0.72679018371E+02  0.00000000000E+00 0.  1.
        -11    1    3    3    0    0  0.60845374003E+01 -0.21042140671E+03 -0.94050040284E+03  0.96377134100E+03  0.00000000000E+00 0. -1.
          4    1    6    6  502    0 -0.57752353808E+01 -0.77775275834E+00 -0.90505088017E+00  0.58972332625E+01  0.00000000000E+00 0. -1.
          1    1    5    5  503    0  0.50169005686E+02 -0.71478931036E+02  0.16261828939E+03  0.18458297527E+03  0.00000000000E+00 0. -1.
         -2    1    5    5    0  503  0.22041176853E+02 -0.18480060633E+03  0.20804545319E+03  0.27914151996E+03  0.00000000000E+00 0.  1.
         -3    1    6    6    0  502 -0.77672113091E+02  0.50635102541E+03  0.92800568214E+02  0.52061143240E+03  0.00000000000E+00 0.  1.
<mgrwt>
<rscale>  0 0.19536581E+04</rscale>
<asrwt>0</asrwt>
<pdfrwt beam="1">  1        2 0.19737062E+00 0.19536581E+04</pdfrwt>
<pdfrwt beam="2">  1       -2 0.11442684E+00 0.19536581E+04</pdfrwt>
<totfact> 0.94177551E+00</totfact>
</mgrwt>
</event>
<event>
12    1  0.1518207E-007  0.3113618E+04  0.7818608E-02  0.8212010E-01
          1   -1    0    0  501    0  0.00000000000E+00  0.00000000000E+00  0.17355663164E+04  0.17355663164E+04  0.00000000000E+00 0. -1.
         -1   -1    0    0    0  501 -0.00000000000E+00 -0.00000000000E+00 -0.13964631486E+04  0.13964631486E+04  0.00000000000E+00 0.  1.
         23    2    1    2    0    0  0.92079555830E+03 -0.39951855334E+03  0.11729059761E+04  0.15462693647E+04  0.88096451608E+02 0.  0.
        254    2    1    2    0    0 -0.92079555830E+03  0.39951855334E+03 -0.83380280831E+03  0.15857601003E+04  0.90107071748E+03 0.  0.
        -24    2    4    4    0    0 -0.85634950413E+03  0.30816619556E+02 -0.84056418616E+03  0.12029616210E+04  0.79274039876E+02 0.  0.
         24    2    4    4    0    0 -0.64446054174E+02  0.36870193378E+03  0.67613778522E+01  0.38279847925E+03  0.79965927804E+02 0.  0.
         11    1    3    3    0    0  0.91928154972E+03 -0.39563280433E+03  0.11568236423E+04  0.15296551320E+04  0.00000000000E+00 0. -1.
        -11    1    3    3    0    0  0.15140085786E+01 -0.38857490157E+01  0.16082333774E+02  0.16614232663E+02  0.00000000000E+00 0.  1.
          2    1    6    6  502    0 -0.43288848905E+02  0.79665474262E+02 -0.16111838942E+02  0.92087477884E+02  0.00000000000E+00 0. -1.
          3    1    5    5  503    0 -0.42393753765E+02 -0.15555000831E+02 -0.48892543453E+02  0.66555760190E+02  0.00000000000E+00 0. -1.
         -4    1    5    5    0  503 -0.81395575036E+03  0.46371620387E+02 -0.79167164270E+03  0.11364058609E+04  0.00000000000E+00 0.  1.
         -1    1    6    6    0  502 -0.21157205269E+02  0.28903645952E+03  0.22873216794E+02  0.29071100137E+03  0.00000000000E+00 0.  1.
<mgrwt>
<rscale>  0 0.31136181E+04</rscale>
<asrwt>0</asrwt>
<pdfrwt beam="1">  1        1 0.26701020E+00 0.31136181E+04</pdfrwt>
<pdfrwt beam="2">  1       -1 0.21484049E+00 0.31136181E+04</pdfrwt>
<totfact> 0.45286736E-01</totfact>
</mgrwt>
</event>
<event>
12    1  0.1201209E-007  0.1559724E+04  0.7818608E-02  0.8845681E-01
         -2   -1    0    0    0  501 -0.00000000000E+00  0.00000000000E+00  0.11974159558E+04  0.11974159558E+04  0.00000000000E+00 0.  1.
          2   -1    0    0  501    0  0.00000000000E+00 -0.00000000000E+00 -0.50791405243E+03  0.50791405243E+03  0.00000000000E+00 0. -1.
         23    2    1    2    0    0  0.47383558338E+03 -0.91430966217E+02  0.37235378607E+02  0.49235311937E+03  0.90251532240E+02 0.  0.
        254    2    1    2    0    0 -0.47383558338E+03  0.91430966217E+02  0.65226652477E+03  0.12129768889E+04  0.90165488514E+03 0.  0.
        -24    2    4    4    0    0  0.19567923524E+03 -0.19535302202E+03  0.14774697022E+03  0.32348870289E+03  0.79765953709E+02 0.  0.
         24    2    4    4    0    0 -0.66951481863E+03  0.28678398824E+03  0.50451955455E+03  0.88948818596E+03  0.78448096037E+02 0.  0.
         13    1    3    3    0    0  0.34947545973E+03 -0.10709516817E+03  0.23761620613E+02  0.36628825618E+03  0.00000000000E+00 0. -1.
        -13    1    3    3    0    0  0.12436012365E+03  0.15664201953E+02  0.13473757993E+02  0.12606486319E+03  0.00000000000E+00 0.  1.
          2    1    6    6  502    0  0.13292002004E+01 -0.12721392134E+01  0.37460184175E+01  0.41734596362E+01  0.00000000000E+00 0. -1.
          1    1    5    5  503    0  0.39492496178E+02 -0.28093768526E+02  0.62933901962E+02  0.79432947198E+02  0.00000000000E+00 0. -1.
         -2    1    5    5    0  503  0.15618673906E+03 -0.16725925350E+03  0.84813068254E+02  0.24405575569E+03  0.00000000000E+00 0.  1.
         -1    1    6    6    0  502 -0.67084401883E+03  0.28805612745E+03  0.50077353614E+03  0.88531472633E+03  0.00000000000E+00 0.  1.
<mgrwt>
<rscale>  0 0.15597236E+04</rscale>
<asrwt>0</asrwt>
<pdfrwt beam="1">  1        2 0.78140624E-01 0.15597236E+04</pdfrwt>
<pdfrwt beam="2">  1       -2 0.18421784E+00 0.15597236E+04</pdfrwt>
<totfact> 0.98541097E+00</totfact>
</mgrwt>
</event>
<event>
12    1  0.1201209E-007  0.2231745E+04  0.7818608E-02  0.8505330E-01
         -2   -1    0    0    0  501 -0.00000000000E+00  0.00000000000E+00  0.53242034854E+03  0.53242034854E+03  0.00000000000E+00 0.  1.
          2   -1    0    0  501    0  0.00000000000E+00 -0.00000000000E+00 -0.23387006989E+04  0.23387006989E+04  0.00000000000E+00 0. -1.
         23    2    1    2    0    0  0.24649350190E+03 -0.33557262254E+03  0.30536859744E+03  0.52602247760E+03  0.10040734619E+03 0.  0.
        254    2    1    2    0    0 -0.24649350190E+03  0.33557262254E+03 -0.21116489478E+04  0.23450985698E+04  0.93115948797E+03 0.  0.
        -24    2    4    4    0    0  0.35669025322E+02 -0.30186261930E+03 -0.75553946830E+03  0.81821665358E+03  0.79027107590E+02 0.  0.
         24    2    4    4    0    0 -0.28216252722E+03  0.63743524184E+03 -0.13561094795E+04  0.15268819162E+04  0.79975536882E+02 0.  0.
         11    1    3    3    0    0  0.84386183001E+01 -0.43926842833E+02  0.66584628583E+02  0.80214029718E+02  0.00000000000E+00 0. -1.
        -11    1    3    3    0    0  0.23805488360E+03 -0.29164577971E+03  0.23878396885E+03  0.44580844789E+03  0.00000000000E+00 0.  1.
          2    1    6    6  502    0 -0.15660646794E+03  0.26017806309E+03 -0.56212494976E+03  0.63890740288E+03  0.00000000000E+00 0. -1.
          1    1    5    5  503    0  0.35409965622E+02 -0.77541682940E+02 -0.27477088024E+03  0.28769013693E+03  0.00000000000E+00 0. -1.
         -2    1    5    5    0  503  0.25905970075E+00 -0.22432093636E+03 -0.48076858806E+03  0.53052651665E+03  0.00000000000E+00 0.  1.
         -1    1    6    6    0  502 -0.12555605928E+03  0.37725717875E+03 -0.79398452972E+03  0.88797451336E+03  0.00000000000E+00 0.  1.
<mgrwt>
<rscale>  0 0.22317454E+04</rscale>
<asrwt>0</asrwt>
<pdfrwt beam="1">  1        2 0.35980011E+00 0.22317454E+04</pdfrwt>
<pdfrwt beam="2">  1       -2 0.81910821E-01 0.22317454E+04</pdfrwt>
<totfact> 0.51486733E+00</totfact>
</mgrwt>
</event>
<event>
12    1  0.1201209E-007  0.1608988E+04  0.7818608E-02  0.8815045E-01
          2   -1    0    0  501    0  0.00000000000E+00  0.00000000000E+00  0.10312422036E+04  0.10312422036E+04  0.00000000000E+00 0. -1.
         -2   -1    0    0    0  501 -0.00000000000E+00 -0.00000000000E+00 -0.62760269206E+03  0.62760269206E+03  0.00000000000E+00 0.  1.
         23    2    1    2    0    0 -0.31798503056E+03  0.16317690964E+03 -0.28980764351E+03  0.46948583807E+03  0.93205678005E+02 0.  0.
        254    2    1    2    0    0  0.31798503056E+03 -0.16317690964E+03  0.69344715507E+03  0.11893590576E+04  0.89775543861E+03 0.  0.
        -24    2    4    4    0    0  0.59663086815E+03 -0.10342069603E+03  0.25852006506E+03  0.66319936217E+03  0.79602366428E+02 0.  0.
         24    2    4    4    0    0 -0.27864583760E+03 -0.59756213617E+02  0.43492709001E+03  0.52615969545E+03  0.80424769889E+02 0.  0.
         13    1    3    3    0    0 -0.24530442691E+03  0.11940574541E+03 -0.26676331564E+03  0.38156868382E+03  0.00000000000E+00 0.  1.
        -13    1    3    3    0    0 -0.72680603647E+02  0.43771164235E+02 -0.23044327869E+02  0.87917154253E+02  0.00000000000E+00 0. -1.
          4    1    6    6  502    0 -0.24749312734E+03 -0.38740250541E+02  0.32731970238E+03  0.41217938165E+03  0.00000000000E+00 0. -1.
          3    1    5    5  503    0  0.47685188787E+03 -0.59176968701E+02  0.17896752128E+03  0.51275628739E+03  0.00000000000E+00 0. -1.
         -4    1    5    5    0  503  0.11977898028E+03 -0.44243727325E+02  0.79552543778E+02  0.15044307477E+03  0.00000000000E+00 0.  1.
         -3    1    6    6    0  502 -0.31152710261E+02 -0.21015963076E+02  0.10760738764E+03  0.11398031380E+03  0.00000000000E+00 0.  1.
<mgrwt>
<rscale>  0 0.16089877E+04</rscale>
<asrwt>0</asrwt>
<pdfrwt beam="1">  1        2 0.15865265E+00 0.16089877E+04</pdfrwt>
<pdfrwt beam="2">  1       -2 0.96554260E-01 0.16089877E+04</pdfrwt>
<totfact> 0.20687652E+01</totfact>
</mgrwt>
</event>
<event>
12    1  0.1201209E-007  0.1358298E+04  0.7818608E-02  0.8984570E-01
         -1   -1    0    0    0  501 -0.00000000000E+00  0.00000000000E+00  0.77955340682E+03  0.77955340682E+03  0.00000000000E+00 0.  1.
          1   -1    0    0  501    0  0.00000000000E+00 -0.00000000000E+00 -0.59167652672E+03  0.59167652672E+03  0.00000000000E+00 0. -1.
         23    2    1    2    0    0  0.29802130303E+03 -0.13784282347E+03  0.21073426570E+03  0.40075565892E+03  0.91535929436E+02 0.  0.
        254    2    1    2    0    0 -0.29802130303E+03  0.13784282347E+03 -0.22857385603E+02  0.97047427461E+03  0.91295154119E+03 0.  0.
        -24    2    4    4    0    0  0.12690909709E+03  0.42332198849E+03  0.27599613334E+02  0.44988852269E+03  0.79564560783E+02 0.  0.
         24    2    4    4    0    0 -0.42493040012E+03 -0.28547916502E+03 -0.50456998938E+02  0.52058575192E+03  0.79996360886E+02 0.  0.
         13    1    3    3    0    0  0.19802986259E+02 -0.37444439332E+02  0.44613606738E+02  0.61519250709E+02  0.00000000000E+00 0. -1.
        -13    1    3    3    0    0  0.27821831677E+03 -0.10039838414E+03  0.16612065896E+03  0.33923640821E+03  0.00000000000E+00 0.  1.
          2    1    6    6  502    0 -0.81815639144E+02 -0.25898769255E+02 -0.25906758911E+02  0.89642095105E+02  0.00000000000E+00 0. -1.
          3    1    5    5  503    0  0.21585633128E+02  0.13426928757E+02  0.60443551860E+01  0.26129603958E+02  0.00000000000E+00 0. -1.
         -4    1    5    5    0  503  0.10532346396E+03  0.40989505973E+03  0.21555258148E+02  0.42375891874E+03  0.00000000000E+00 0.  1.
         -1    1    6    6    0  502 -0.34311476097E+03 -0.25958039577E+03 -0.24550240027E+02  0.43094365681E+03  0.00000000000E+00 0.  1.
<mgrwt>
<rscale>  0 0.13582981E+04</rscale>
<asrwt>0</asrwt>
<pdfrwt beam="1">  1        1 0.91027158E-01 0.13582981E+04</pdfrwt>
<pdfrwt beam="2">  1       -1 0.11993129E+00 0.13582981E+04</pdfrwt>
<totfact> 0.21201237E+01</totfact>
</mgrwt>
</event>
<event>
12    1  0.1201209E-007  0.2118713E+04  0.7818608E-02  0.8553045E-01
          2   -1    0    0  501    0  0.00000000000E+00  0.00000000000E+00  0.11882983751E+04  0.11882983751E+04  0.00000000000E+00 0. -1.
         -2   -1    0    0    0  501 -0.00000000000E+00 -0.00000000000E+00 -0.94440606058E+03  0.94440606058E+03  0.00000000000E+00 0.  1.
         23    2    1    2    0    0 -0.28354121565E+03  0.68638455984E+03 -0.34621769589E+03  0.82522097416E+03  0.97997848374E+02 0.  0.
        254    2    1    2    0    0  0.28354121565E+03 -0.68638455984E+03  0.59011001037E+03  0.13074834615E+04  0.89986876418E+03 0.  0.
        -24    2    4    4    0    0 -0.27775079919E+03 -0.42221134614E+03  0.41254329597E+03  0.65724144896E+03  0.79789873541E+02 0.  0.
         24    2    4    4    0    0  0.56129201484E+03 -0.26417321370E+03  0.17756671441E+03  0.65024201253E+03  0.80302702530E+02 0.  0.
         13    1    3    3    0    0 -0.14960538048E+03  0.23979759798E+03 -0.14002104910E+03  0.31542122956E+03  0.00000000000E+00 0. -1.
        -13    1    3    3    0    0 -0.13393583516E+03  0.44658696186E+03 -0.20619664679E+03  0.50979974460E+03  0.00000000000E+00 0.  1.
          2    1    6    6  502    0  0.27629346461E+03 -0.15157046306E+03  0.53520085880E+02  0.31964993892E+03  0.00000000000E+00 0. -1.
          1    1    5    5  503    0 -0.52073884914E+02 -0.80792909217E+02  0.12208060572E+03  0.15537972185E+03  0.00000000000E+00 0. -1.
         -2    1    5    5    0  503 -0.22567691428E+03 -0.34141843692E+03  0.29046269025E+03  0.50186172711E+03  0.00000000000E+00 0.  1.
         -1    1    6    6    0  502  0.28499855022E+03 -0.11260275064E+03  0.12404662853E+03  0.33059207360E+03  0.00000000000E+00 0.  1.
<mgrwt>
<rscale>  0 0.21187130E+04</rscale>
<asrwt>0</asrwt>
<pdfrwt beam="1">  1        2 0.18281513E+00 0.21187130E+04</pdfrwt>
<pdfrwt beam="2">  1       -2 0.14529324E+00 0.21187130E+04</pdfrwt>
<totfact> 0.57736292E+00</totfact>
</mgrwt>
</event>
<event>
12    1  0.1201209E-007  0.2257981E+04  0.7818608E-02  0.8494675E-01
          2   -1    0    0  501    0  0.00000000000E+00  0.00000000000E+00  0.80834407690E+03  0.80834407690E+03  0.00000000000E+00 0. -1.
         -2   -1    0    0    0  501 -0.00000000000E+00 -0.00000000000E+00 -0.15768285429E+04  0.15768285429E+04  0.00000000000E+00 0.  1.
         23    2    1    2    0    0  0.28795870425E+03  0.80997628042E+03 -0.73303390220E+03  0.11333899437E+04  0.90842019145E+02 0.  0.
        254    2    1    2    0    0 -0.28795870425E+03 -0.80997628042E+03 -0.35450563793E+02  0.12517826761E+04  0.90924217653E+03 0.  0.
        -24    2    4    4    0    0  0.36072322751E+02  0.49867099103E+01 -0.31539382480E+03  0.32729645351E+03  0.79521217364E+02 0.  0.
         24    2    4    4    0    0 -0.32403102700E+03 -0.81496299033E+03  0.27994326101E+03  0.92448622262E+03  0.84532623050E+02 0.  0.
         11    1    3    3    0    0  0.22706835785E+03  0.70038068406E+03 -0.65684663259E+03  0.98668163076E+03  0.00000000000E+00 0.  1.
        -11    1    3    3    0    0  0.60890346392E+02  0.10959559636E+03 -0.76187269619E+02  0.14670831291E+03  0.00000000000E+00 0. -1.
          2    1    6    6  502    0 -0.67100303255E+02 -0.27510772461E+03  0.86250122674E+02  0.29601654430E+03  0.00000000000E+00 0. -1.
          3    1    5    5  503    0 -0.13426038123E+02  0.28250702476E+02 -0.14519092796E+03  0.14852193862E+03  0.00000000000E+00 0. -1.
         -4    1    5    5    0  503  0.49498360874E+02 -0.23263992566E+02 -0.17020289684E+03  0.17877451488E+03  0.00000000000E+00 0.  1.
         -1    1    6    6    0  502 -0.25693072374E+03 -0.53985526573E+03  0.19369313834E+03  0.62846967832E+03  0.00000000000E+00 0.  1.
<mgrwt>
<rscale>  0 0.22579814E+04</rscale>
<asrwt>0</asrwt>
<pdfrwt beam="1">  1        2 0.12436063E+00 0.22579814E+04</pdfrwt>
<pdfrwt beam="2">  1       -2 0.24258901E+00 0.22579814E+04</pdfrwt>
<totfact> 0.22058539E+00</totfact>
</mgrwt>
</event>
<event>
12    1  0.1201209E-007  0.2075836E+04  0.7818608E-02  0.8571963E-01
         -2   -1    0    0    0  501 -0.00000000000E+00  0.00000000000E+00  0.43920111616E+03  0.43920111616E+03  0.00000000000E+00 0.  1.
          2   -1    0    0  501    0  0.00000000000E+00 -0.00000000000E+00 -0.24528027172E+04  0.24528027172E+04  0.00000000000E+00 0. -1.
         23    2    1    2    0    0  0.57535268866E+03 -0.15459634257E+03 -0.16448245732E+04  0.17520962960E+04  0.97276967294E+02 0.  0.
        254    2    1    2    0    0 -0.57535268866E+03  0.15459634257E+03 -0.36877702779E+03  0.11399075373E+04  0.89914512282E+03 0.  0.
        -24    2    4    4    0    0 -0.11640824708E+03 -0.35867725326E+03 -0.16073051081E+03  0.41620685475E+03  0.72066613927E+02 0.  0.
         24    2    4    4    0    0 -0.45894444159E+03  0.51327359583E+03 -0.20804651697E+03  0.72370068255E+03  0.79872023032E+02 0.  0.
         11    1    3    3    0    0  0.16336859823E+03 -0.89606461385E+02 -0.48523424483E+03  0.51977965443E+03  0.00000000000E+00 0.  1.
        -11    1    3    3    0    0  0.41198409043E+03 -0.64989881182E+02 -0.11595903284E+04  0.12323166416E+04  0.00000000000E+00 0. -1.
          2    1    6    6  502    0 -0.18250260148E+03  0.15086586235E+03 -0.57393973057E+02  0.24364272226E+03  0.00000000000E+00 0. -1.
          1    1    5    5  503    0 -0.21392978775E+02 -0.12969876946E+03 -0.86743712878E+02  0.15749254606E+03  0.00000000000E+00 0. -1.
         -2    1    5    5    0  503 -0.95015268303E+02 -0.22897848380E+03 -0.73986797934E+02  0.25871430869E+03  0.00000000000E+00 0.  1.
         -1    1    6    6    0  502 -0.27644184011E+03  0.36240773348E+03 -0.15065254392E+03  0.48005796029E+03  0.00000000000E+00 0.  1.
<mgrwt>
<rscale>  0 0.20758359E+04</rscale>
<asrwt>0</asrwt>
<pdfrwt beam="1">  1        2 0.37735425E+00 0.20758359E+04</pdfrwt>
<pdfrwt beam="2">  1       -2 0.67569405E-01 0.20758359E+04</pdfrwt>
<totfact> 0.68739570E+00</totfact>
</mgrwt>
</event>
<event>
12    1  0.1201209E-007  0.2011865E+04  0.7818608E-02  0.8601093E-01
         -1   -1    0    0    0  501 -0.00000000000E+00  0.00000000000E+00  0.15471369708E+04  0.15471369708E+04  0.00000000000E+00 0.  1.
          1   -1    0    0  501    0  0.00000000000E+00 -0.00000000000E+00 -0.65404682675E+03  0.65404682675E+03  0.00000000000E+00 0. -1.
         23    2    1    2    0    0  0.11725697706E+03 -0.76957523330E+03  0.37481839831E+03  0.86918596871E+03  0.94869268589E+02 0.  0.
        254    2    1    2    0    0 -0.11725697706E+03  0.76957523330E+03  0.51827174577E+03  0.13319978289E+04  0.94848161566E+03 0.  0.
        -24    2    4    4    0    0  0.75012054541E+02  0.73285051231E+03 -0.32985691052E+02  0.74155157495E+03  0.78192076233E+02 0.  0.
         24    2    4    4    0    0 -0.19226903160E+03  0.36724720989E+02  0.55125743682E+03  0.59044625390E+03  0.80161907734E+02 0.  0.
         13    1    3    3    0    0  0.13581906907E+02 -0.37149321639E+03  0.20108217486E+03  0.42264135986E+03  0.00000000000E+00 0. -1.
        -13    1    3    3    0    0  0.10367507015E+03 -0.39808201691E+03  0.17373622345E+03  0.44654460885E+03  0.00000000000E+00 0.  1.
          2    1    6    6  502    0 -0.48249144960E+02  0.40100989341E+02  0.11474381878E+03  0.13077543073E+03  0.00000000000E+00 0. -1.
          3    1    5    5  503    0  0.87155750968E+02  0.55411774301E+03 -0.39207785803E+02  0.56229871822E+03  0.00000000000E+00 0. -1.
         -4    1    5    5    0  503 -0.12143696427E+02  0.17873276930E+03  0.62220947504E+01  0.17925285673E+03  0.00000000000E+00 0.  1.
         -1    1    6    6    0  502 -0.14401988664E+03 -0.33762683519E+01  0.43651361804E+03  0.45967082317E+03  0.00000000000E+00 0.  1.
<mgrwt>
<rscale>  0 0.20118648E+04</rscale>
<asrwt>0</asrwt>
<pdfrwt beam="1">  1        1 0.10062259E+00 0.20118648E+04</pdfrwt>
<pdfrwt beam="2">  1       -1 0.23802107E+00 0.20118648E+04</pdfrwt>
<totfact> 0.23360474E+00</totfact>
</mgrwt>
</event>
<event>
12    1  0.1201209E-007  0.1642336E+04  0.7818608E-02  0.8794953E-01
         -2   -1    0    0    0  501 -0.00000000000E+00  0.00000000000E+00  0.53272140853E+03  0.53272140853E+03  0.00000000000E+00 0. -1.
          2   -1    0    0  501    0  0.00000000000E+00 -0.00000000000E+00 -0.12657962424E+04  0.12657962424E+04  0.00000000000E+00 0.  1.
         23    2    1    2    0    0 -0.39061075547E+03  0.13018466379E+03  0.17446833331E+03  0.45572266880E+03  0.87858651004E+02 0.  0.
        254    2    1    2    0    0  0.39061075547E+03 -0.13018466379E+03 -0.90754316718E+03  0.13427949821E+04  0.89996608534E+03 0.  0.
        -24    2    4    4    0    0  0.59185181381E+03  0.14361549757E+03 -0.42301552655E+03  0.74582348928E+03  0.79978502153E+02 0.  0.
         24    2    4    4    0    0 -0.20124105834E+03 -0.27380016136E+03 -0.48452764063E+03  0.59697149285E+03  0.78380079262E+02 0.  0.
         11    1    3    3    0    0  0.33336762477E+01  0.73474298302E+01  0.11456883891E+01  0.81492775336E+01  0.00000000000E+00 0.  1.
        -11    1    3    3    0    0 -0.39394443172E+03  0.12283723396E+03  0.17332264492E+03  0.44757339127E+03  0.00000000000E+00 0. -1.
          2    1    6    6  502    0 -0.14206986403E+02 -0.12148572513E+02 -0.46181908988E+01  0.19254972447E+02  0.00000000000E+00 0. -1.
          3    1    5    5  503    0  0.25267923808E+03  0.96111324419E+02 -0.21199829753E+03  0.34355125119E+03  0.00000000000E+00 0. -1.
         -4    1    5    5    0  503  0.33917257573E+03  0.47504173149E+02 -0.21101722901E+03  0.40227223809E+03  0.00000000000E+00 0.  1.
         -1    1    6    6    0  502 -0.18703407193E+03 -0.26165158885E+03 -0.47990944973E+03  0.57771652040E+03  0.00000000000E+00 0.  1.
<mgrwt>
<rscale>  0 0.16423358E+04</rscale>
<asrwt>0</asrwt>
<pdfrwt beam="1">  1        2 0.19473788E+00 0.16423358E+04</pdfrwt>
<pdfrwt beam="2">  1       -2 0.81957141E-01 0.16423358E+04</pdfrwt>
<totfact> 0.21661531E+01</totfact>
</mgrwt>
</event>
<event>
12    1  0.1201209E-007  0.1560809E+04  0.7818608E-02  0.8844993E-01
          1   -1    0    0  501    0  0.00000000000E+00  0.00000000000E+00  0.23020149105E+04  0.23020149105E+04  0.00000000000E+00 0. -1.
         -1   -1    0    0    0  501 -0.00000000000E+00 -0.00000000000E+00 -0.26456426528E+03  0.26456426528E+03  0.00000000000E+00 0.  1.
         23    2    1    2    0    0 -0.34678732268E+03  0.20279656050E+03  0.11584862800E+04  0.12295652518E+04  0.91391221587E+02 0.  0.
        254    2    1    2    0    0  0.34678732268E+03 -0.20279656050E+03  0.87896436517E+03  0.13370139239E+04  0.92392639609E+03 0.  0.
        -24    2    4    4    0    0 -0.28851068880E+03 -0.64998043722E+02  0.48151344758E+03  0.57079986882E+03  0.80586145208E+02 0.  0.
         24    2    4    4    0    0  0.63529801148E+03 -0.13779851678E+03  0.39745091759E+03  0.76621405510E+03  0.80775935286E+02 0.  0.
         11    1    3    3    0    0 -0.20406648872E+03  0.15564683953E+03  0.81952984509E+03  0.85877717568E+03  0.00000000000E+00 0. -1.
        -11    1    3    3    0    0 -0.14272083396E+03  0.47149720972E+02  0.33895643495E+03  0.37078807617E+03  0.00000000000E+00 0.  1.
          2    1    6    6  502    0  0.15835760771E+02  0.19039475879E+01  0.26089070106E+02  0.30578356964E+02  0.00000000000E+00 0. -1.
          3    1    5    5  503    0 -0.23852962893E+02 -0.13636169387E+02  0.99582406960E+02  0.10330326583E+03  0.00000000000E+00 0. -1.
         -4    1    5    5    0  503 -0.26465772591E+03 -0.51361874335E+02  0.38193104062E+03  0.46749660299E+03  0.00000000000E+00 0.  1.
         -1    1    6    6    0  502  0.61946225071E+03 -0.13970246437E+03  0.37136184748E+03  0.73563569814E+03  0.00000000000E+00 0.  1.
<mgrwt>
<rscale>  0 0.15608086E+04</rscale>
<asrwt>0</asrwt>
<pdfrwt beam="1">  1        1 0.35415613E+00 0.15608086E+04</pdfrwt>
<pdfrwt beam="2">  1       -1 0.40702196E-01 0.15608086E+04</pdfrwt>
<totfact> 0.10550199E+01</totfact>
</mgrwt>
</event>
<event>
12    1  0.1201209E-007  0.3071523E+04  0.7818608E-02  0.8223597E-01
         -2   -1    0    0    0  501 -0.00000000000E+00  0.00000000000E+00  0.24810957236E+04  0.24810957236E+04  0.00000000000E+00 0.  1.
          2   -1    0    0  501    0  0.00000000000E+00 -0.00000000000E+00 -0.95061374696E+03  0.95061374696E+03  0.00000000000E+00 0. -1.
         23    2    1    2    0    0 -0.69827289079E+03  0.96410347413E+03  0.15396936754E+04  0.19483658222E+04  0.91609083600E+02 0.  0.
        254    2    1    2    0    0  0.69827289079E+03 -0.96410347413E+03 -0.92116987983E+01  0.14833436483E+04  0.88495366251E+03 0.  0.
        -24    2    4    4    0    0 -0.11536687714E+03 -0.53500372839E+03 -0.72871546889E+02  0.55785623795E+03  0.79717088133E+02 0.  0.
         24    2    4    4    0    0  0.81363976793E+03 -0.42909974574E+03  0.63659848091E+02  0.92548741037E+03  0.79612227373E+02 0.  0.
         13    1    3    3    0    0 -0.45481761771E+03  0.69774514779E+03  0.10898952661E+04  0.13717066187E+04  0.00000000000E+00 0. -1.
        -13    1    3    3    0    0 -0.24345527308E+03  0.26635832634E+03  0.44979840931E+03  0.57665920353E+03  0.00000000000E+00 0.  1.
          2    1    6    6  502    0  0.79735472755E+03 -0.43154346226E+03  0.60063514423E+02  0.90863190959E+03  0.00000000000E+00 0. -1.
          1    1    5    5  503    0 -0.11620532082E+03 -0.53244689449E+03 -0.64166339000E+02  0.54874465018E+03  0.00000000000E+00 0. -1.
         -2    1    5    5    0  503  0.83844368147E+00 -0.25568339083E+01 -0.87052078894E+01  0.91115877782E+01  0.00000000000E+00 0.  1.
         -1    1    6    6    0  502  0.16285040384E+02  0.24437165225E+01  0.35963336681E+01  0.16855500782E+02  0.00000000000E+00 0.  1.
<mgrwt>
<rscale>  0 0.30715232E+04</rscale>
<asrwt>0</asrwt>
<pdfrwt beam="1">  1        2 0.14624827E+00 0.30715232E+04</pdfrwt>
<pdfrwt beam="2">  1       -2 0.38170703E+00 0.30715232E+04</pdfrwt>
<totfact> 0.22518898E-01</totfact>
</mgrwt>
</event>
<event>
12    1  0.1201209E-007  0.2175796E+04  0.7818608E-02  0.8528571E-01
         -2   -1    0    0    0  501 -0.00000000000E+00  0.00000000000E+00  0.71390231163E+03  0.71390231163E+03  0.00000000000E+00 0.  1.
          2   -1    0    0  501    0  0.00000000000E+00 -0.00000000000E+00 -0.16578202956E+04  0.16578202956E+04  0.00000000000E+00 0. -1.
         23    2    1    2    0    0  0.52031559485E+03  0.70839101322E+03 -0.26079640733E+03  0.92208102345E+03  0.98348878390E+02 0.  0.
        254    2    1    2    0    0 -0.52031559485E+03 -0.70839101322E+03 -0.68312157663E+03  0.14496415838E+04  0.92857928421E+03 0.  0.
        -24    2    4    4    0    0 -0.39116562918E+03 -0.70517986187E+03 -0.65487781811E+02  0.81303737679E+03  0.80323965614E+02 0.  0.
         24    2    4    4    0    0 -0.12914996566E+03 -0.32111513493E+01 -0.61763379482E+03  0.63660420697E+03  0.84281591748E+02 0.  0.
         13    1    3    3    0    0  0.60167299792E+02  0.68848729307E+02 -0.58842797456E+02  0.10873236089E+03  0.00000000000E+00 0.  1.
        -13    1    3    3    0    0  0.46014829505E+03  0.63954228391E+03 -0.20195360987E+03  0.81334866256E+03  0.00000000000E+00 0. -1.
          2    1    6    6  502    0 -0.79309103286E+02  0.24266438245E+02 -0.48841752101E+03  0.49540939507E+03  0.00000000000E+00 0. -1.
          3    1    5    5  503    0 -0.38839551644E+03 -0.70264341348E+03 -0.71421525481E+02  0.80601481252E+03  0.00000000000E+00 0. -1.
         -4    1    5    5    0  503 -0.27701127478E+01 -0.25364483911E+01  0.59337436693E+01  0.70225642759E+01  0.00000000000E+00 0.  1.
         -1    1    6    6    0  502 -0.49840862374E+02 -0.27477589594E+02 -0.12921627381E+03  0.14119481191E+03  0.00000000000E+00 0.  1.
<mgrwt>
<rscale>  0 0.21757957E+04</rscale>
<asrwt>0</asrwt>
<pdfrwt beam="1">  1        2 0.25504927E+00 0.21757957E+04</pdfrwt>
<pdfrwt beam="2">  1       -2 0.10983113E+00 0.21757957E+04</pdfrwt>
<totfact> 0.62531764E+00</totfact>
</mgrwt>
</event>
<event>
12    1  0.1201209E-007  0.1620643E+04  0.7818608E-02  0.8807965E-01
          2   -1    0    0  501    0  0.00000000000E+00  0.00000000000E+00  0.44825699581E+03  0.44825699581E+03  0.00000000000E+00 0. -1.
         -2   -1    0    0    0  501 -0.00000000000E+00 -0.00000000000E+00 -0.14648322861E+04  0.14648322861E+04  0.00000000000E+00 0.  1.
         23    2    1    2    0    0  0.45615928335E+03  0.11858769889E+03 -0.70530594291E+03  0.85303890907E+03  0.89858628846E+02 0.  0.
        254    2    1    2    0    0 -0.45615928335E+03 -0.11858769889E+03 -0.31126934741E+03  0.10600503729E+04  0.89703614880E+03 0.  0.
        -24    2    4    4    0    0 -0.11396338405E+03  0.18734932710E+03  0.24276663048E+03  0.33600385067E+03  0.76651989658E+02 0.  0.
         24    2    4    4    0    0 -0.34219589930E+03 -0.30593702600E+03 -0.55403597789E+03  0.72404652220E+03  0.81191157954E+02 0.  0.
         13    1    3    3    0    0  0.39740925969E+03  0.11499061574E+03 -0.65921092687E+03  0.77827759026E+03  0.00000000000E+00 0. -1.
        -13    1    3    3    0    0  0.58750023660E+02  0.35970831563E+01 -0.46095016034E+02  0.74761318812E+02  0.00000000000E+00 0.  1.
          2    1    6    6  502    0 -0.27258074401E+03 -0.25189895988E+03 -0.49191502147E+03  0.61622539410E+03  0.00000000000E+00 0. -1.
          1    1    5    5  503    0 -0.73718618266E+02  0.90573677669E+02  0.17770090786E+03  0.21263969154E+03  0.00000000000E+00 0. -1.
         -2    1    5    5    0  503 -0.40244765784E+02  0.96775649435E+02  0.65065722624E+02  0.12336415913E+03  0.00000000000E+00 0.  1.
         -1    1    6    6    0  502 -0.69615155291E+02 -0.54038066117E+02 -0.62120956428E+02  0.10782112809E+03  0.00000000000E+00 0.  1.
<mgrwt>
<rscale>  0 0.16206435E+04</rscale>
<asrwt>0</asrwt>
<pdfrwt beam="1">  1        2 0.68962615E-01 0.16206435E+04</pdfrwt>
<pdfrwt beam="2">  1       -2 0.22535881E+00 0.16206435E+04</pdfrwt>
<totfact> 0.61115118E+00</totfact>
</mgrwt>
</event>
<event>
12    1  0.1201209E-007  0.1302801E+04  0.7818608E-02  0.9027347E-01
          1   -1    0    0  501    0  0.00000000000E+00  0.00000000000E+00  0.64802897608E+03  0.64802897608E+03  0.00000000000E+00 0. -1.
         -1   -1    0    0    0  501 -0.00000000000E+00 -0.00000000000E+00 -0.65478908164E+03  0.65478908164E+03  0.00000000000E+00 0.  1.
         23    2    1    2    0    0 -0.11432275307E+03  0.26544030782E+03 -0.17726991246E+03  0.34792451328E+03  0.78093509300E+02 0.  0.
        254    2    1    2    0    0  0.11432275307E+03 -0.26544030782E+03  0.17050980690E+03  0.95489354443E+03  0.89399096084E+03 0.  0.
        -24    2    4    4    0    0  0.15726472799E+02  0.23243662076E+03  0.33453740555E+03  0.41553928207E+03  0.80520274569E+02 0.  0.
         24    2    4    4    0    0  0.98596280268E+02 -0.49787692858E+03 -0.16402759865E+03  0.53935426236E+03  0.79970649092E+02 0.  0.
         13    1    3    3    0    0 -0.26432355886E+02  0.10666213399E+03 -0.29198254687E+02  0.11370144389E+03  0.00000000000E+00 0. -1.
        -13    1    3    3    0    0 -0.87890397181E+02  0.15877817382E+03 -0.14807165777E+03  0.23422306939E+03  0.00000000000E+00 0.  1.
          4    1    6    6  502    0  0.80078407165E+02 -0.24292360867E+03 -0.56001676890E+02  0.26184082714E+03  0.00000000000E+00 0. -1.
          3    1    5    5  503    0  0.14348016592E+02  0.23012661777E+03  0.33920537004E+03  0.41015169005E+03  0.00000000000E+00 0. -1.
         -4    1    5    5    0  503  0.13784562064E+01  0.23100029924E+01 -0.46679644906E+01  0.53875920246E+01  0.00000000000E+00 0.  1.
         -3    1    6    6    0  502  0.18517873104E+02 -0.25495331991E+03 -0.10802592176E+03  0.27751343523E+03  0.00000000000E+00 0.  1.
<mgrwt>
<rscale>  0 0.13028005E+04</rscale>
<asrwt>0</asrwt>
<pdfrwt beam="1">  1        1 0.99696766E-01 0.13028005E+04</pdfrwt>
<pdfrwt beam="2">  1       -1 0.10073678E+00 0.13028005E+04</pdfrwt>
<totfact> 0.28179670E+01</totfact>
</mgrwt>
</event>
<event>
12    1  0.1201209E-007  0.1168271E+04  0.7818608E-02  0.9141091E-01
         -1   -1    0    0    0  501 -0.00000000000E+00  0.00000000000E+00  0.22183229497E+03  0.22183229497E+03  0.00000000000E+00 0.  1.
          1   -1    0    0  501    0  0.00000000000E+00 -0.00000000000E+00 -0.15381640206E+04  0.15381640206E+04  0.00000000000E+00 0. -1.
         23    2    1    2    0    0 -0.27845187199E+02  0.11333238189E+03 -0.28353776898E+03  0.31917584019E+03  0.88656456551E+02 0.  0.
        254    2    1    2    0    0  0.27845187199E+02 -0.11333238189E+03 -0.10327939567E+04  0.14408204754E+04  0.99783801400E+03 0.  0.
        -24    2    4    4    0    0  0.15033807624E+03  0.10022018260E+03  0.13871519121E+03  0.24113252140E+03  0.79103517226E+02 0.  0.
         24    2    4    4    0    0 -0.12249288904E+03 -0.21355256449E+03 -0.11715091479E+04  0.11996879540E+04  0.78792751778E+02 0.  0.
         13    1    3    3    0    0 -0.13438239176E+02  0.75117942987E+01 -0.13693647266E+03  0.13779916862E+03  0.00000000000E+00 0. -1.
        -13    1    3    3    0    0 -0.14406948023E+02  0.10582058759E+03 -0.14660129631E+03  0.18137667157E+03  0.00000000000E+00 0.  1.
          4    1    6    6  502    0 -0.12744763345E+03 -0.21474403911E+03 -0.10995953713E+04  0.11275938463E+04  0.00000000000E+00 0. -1.
          1    1    5    5  503    0  0.12240209005E+02  0.46164164088E+02  0.45535963705E+02  0.65988459241E+02  0.00000000000E+00 0. -1.
         -2    1    5    5    0  503  0.13809786723E+03  0.54056018510E+02  0.93179227505E+02  0.17514406216E+03  0.00000000000E+00 0.  1.
         -3    1    6    6    0  502  0.49547444181E+01  0.11914746173E+01 -0.71913776600E+02  0.72094107727E+02  0.00000000000E+00 0.  1.
<mgrwt>
<rscale>  0 0.11682713E+04</rscale>
<asrwt>0</asrwt>
<pdfrwt beam="1">  1        1 0.23664061E+00 0.11682713E+04</pdfrwt>
<pdfrwt beam="2">  1       -1 0.34128046E-01 0.11682713E+04</pdfrwt>
<totfact> 0.49563185E+01</totfact>
</mgrwt>
</event>
<event>
12    1  0.1201209E-007  0.3390634E+04  0.7818608E-02  0.8140209E-01
          2   -1    0    0  501    0  0.00000000000E+00  0.00000000000E+00  0.20126835457E+04  0.20126835457E+04  0.00000000000E+00 0. -1.
         -2   -1    0    0    0  501 -0.00000000000E+00 -0.00000000000E+00 -0.14279942386E+04  0.14279942386E+04  0.00000000000E+00 0.  1.
         23    2    1    2    0    0  0.13194267556E+04 -0.11784131878E+03  0.11455131635E+04  0.17532622902E+04  0.83394907545E+02 0.  0.
        254    2    1    2    0    0 -0.13194267556E+04  0.11784131878E+03 -0.56082385639E+03  0.16874154941E+04  0.88208509344E+03 0.  0.
        -24    2    4    4    0    0 -0.80126350476E+03  0.48995804089E+03 -0.40473815143E+03  0.10259081085E+04  0.81193534564E+02 0.  0.
         24    2    4    4    0    0 -0.51816325083E+03 -0.37211672211E+03 -0.15608570496E+03  0.66150738556E+03  0.79153423638E+02 0.  0.
         11    1    3    3    0    0  0.13199810394E+04 -0.11653207108E+03  0.11458191640E+04  0.17518079874E+04  0.00000000000E+00 0. -1.
        -11    1    3    3    0    0 -0.55428385909E+00 -0.13092477051E+01 -0.30600054854E+00  0.14543027489E+01  0.00000000000E+00 0.  1.
          2    1    6    6  502    0 -0.59428079079E+02 -0.14856727396E+02 -0.10965503111E+02  0.62230709384E+02  0.00000000000E+00 0. -1.
          1    1    5    5  503    0 -0.74003152711E+02  0.35289364200E+02 -0.59691991839E+02  0.10141469187E+03  0.00000000000E+00 0. -1.
         -2    1    5    5    0  503 -0.72726035205E+03  0.45466867669E+03 -0.34504615959E+03  0.92449341668E+03  0.00000000000E+00 0.  1.
         -1    1    6    6    0  502 -0.45873517175E+03 -0.35725999472E+03 -0.14512020185E+03  0.59927667617E+03  0.00000000000E+00 0.  1.
<mgrwt>
<rscale>  0 0.33906345E+04</rscale>
<asrwt>0</asrwt>
<pdfrwt beam="1">  1        2 0.30964362E+00 0.33906345E+04</pdfrwt>
<pdfrwt beam="2">  1       -2 0.21969142E+00 0.33906345E+04</pdfrwt>
<totfact> 0.54110639E-01</totfact>
</mgrwt>
</event>
<event>
12    1  0.1201209E-007  0.1671682E+04  0.7818608E-02  0.8777682E-01
          2   -1    0    0  501    0  0.00000000000E+00  0.00000000000E+00  0.16547974272E+04  0.16547974272E+04  0.00000000000E+00 0.  1.
         -2   -1    0    0    0  501 -0.00000000000E+00 -0.00000000000E+00 -0.42218495839E+03  0.42218495839E+03  0.00000000000E+00 0. -1.
         23    2    1    2    0    0  0.26276983743E+02 -0.41316043120E+03  0.92787485490E+03  0.10210580808E+04  0.10107341950E+03 0.  0.
        254    2    1    2    0    0 -0.26276983743E+02  0.41316043120E+03  0.30473761392E+03  0.10559243049E+04  0.92234435136E+03 0.  0.
        -24    2    4    4    0    0 -0.60329384431E+02  0.57165465041E+03 -0.12149432604E+03  0.59299728256E+03  0.80350680769E+02 0.  0.
         24    2    4    4    0    0  0.34052400689E+02 -0.15849421922E+03  0.42623193996E+03  0.46292702230E+03  0.79672942799E+02 0.  0.
         13    1    3    3    0    0 -0.20578728419E+02 -0.33027970561E+03  0.72522767198E+03  0.79715954752E+03  0.00000000000E+00 0.  1.
        -13    1    3    3    0    0  0.46855712162E+02 -0.82880725583E+02  0.20264718292E+03  0.22389853323E+03  0.00000000000E+00 0. -1.
          4    1    6    6  502    0  0.11796561216E+02 -0.15756688632E+03  0.36346656176E+03  0.39632615866E+03  0.00000000000E+00 0. -1.
          3    1    5    5  503    0 -0.50672961319E+02  0.56762244391E+03 -0.11803011501E+03  0.58197430861E+03  0.00000000000E+00 0. -1.
         -4    1    5    5    0  503 -0.96564231128E+01  0.40322065079E+01 -0.34642110256E+01  0.11022973949E+02  0.00000000000E+00 0.  1.
         -3    1    6    6    0  502  0.22255839473E+02 -0.92733290182E+00  0.62765378203E+02  0.66600863642E+02  0.00000000000E+00 0.  1.
<mgrwt>
<rscale>  0 0.16716825E+04</rscale>
<asrwt>0</asrwt>
<pdfrwt beam="1">  1        2 0.25458422E+00 0.16716825E+04</pdfrwt>
<pdfrwt beam="2">  1       -2 0.64951533E-01 0.16716825E+04</pdfrwt>
<totfact> 0.21669324E+01</totfact>
</mgrwt>
</event>
<event>
12    1  0.1201209E-007  0.1576915E+04  0.7818608E-02  0.8834857E-01
          1   -1    0    0  501    0  0.00000000000E+00  0.00000000000E+00  0.71253065801E+03  0.71253065801E+03  0.00000000000E+00 0. -1.
         -1   -1    0    0    0  501 -0.00000000000E+00 -0.00000000000E+00 -0.87247453545E+03  0.87247453545E+03  0.00000000000E+00 0.  1.
         23    2    1    2    0    0  0.47598901488E+03  0.42978757600E+02  0.84487677599E+02  0.49420562517E+03  0.93211138745E+02 0.  0.
        254    2    1    2    0    0 -0.47598901488E+03 -0.42978757600E+02 -0.24443155504E+03  0.10907995683E+04  0.94957053304E+03 0.  0.
        -24    2    4    4    0    0 -0.40017404281E+03 -0.30832512263E+03 -0.49262377663E+03  0.71015392238E+03  0.80229435937E+02 0.  0.
         24    2    4    4    0    0 -0.75814972076E+02  0.26534636503E+03  0.24819222159E+03  0.38064564592E+03  0.84469671925E+02 0.  0.
         13    1    3    3    0    0  0.32955820620E+03  0.35107242410E+02  0.14556605693E+02  0.33174240686E+03  0.00000000000E+00 0. -1.
        -13    1    3    3    0    0  0.14643080868E+03  0.78715151899E+01  0.69931071906E+02  0.16246321830E+03  0.00000000000E+00 0.  1.
          2    1    6    6  502    0 -0.10310791874E+02 -0.35409017041E+01  0.16165718434E+02  0.19498227264E+02  0.00000000000E+00 0. -1.
          1    1    5    5  503    0 -0.25040127327E+03 -0.18305401925E+03 -0.24782333096E+03  0.39702137850E+03  0.00000000000E+00 0. -1.
         -2    1    5    5    0  503 -0.14977276953E+03 -0.12527110339E+03 -0.24480044567E+03  0.31313254388E+03  0.00000000000E+00 0.  1.
         -1    1    6    6    0  502 -0.65504180203E+02  0.26888726674E+03  0.23202650315E+03  0.36114741866E+03  0.00000000000E+00 0.  1.
<mgrwt>
<rscale>  0 0.15769145E+04</rscale>
<asrwt>0</asrwt>
<pdfrwt beam="1">  1        1 0.10962010E+00 0.15769145E+04</pdfrwt>
<pdfrwt beam="2">  1       -1 0.13422685E+00 0.15769145E+04</pdfrwt>
<totfact> 0.11918447E+01</totfact>
</mgrwt>
</event>
<event>
12    1  0.1201209E-007  0.2397579E+04  0.7818608E-02  0.8440411E-01
         -1   -1    0    0    0  501 -0.00000000000E+00  0.00000000000E+00  0.61170526628E+03  0.61170526628E+03  0.00000000000E+00 0.  1.
          1   -1    0    0  501    0  0.00000000000E+00 -0.00000000000E+00 -0.23493278780E+04  0.23493278780E+04  0.00000000000E+00 0. -1.
         23    2    1    2    0    0 -0.15582601586E+01  0.87399625197E+03 -0.14149299385E+04  0.16655657978E+04  0.90613570666E+02 0.  0.
        254    2    1    2    0    0  0.15582601586E+01 -0.87399625197E+03 -0.32269267324E+03  0.12954673465E+04  0.90012955065E+03 0.  0.
        -24    2    4    4    0    0  0.25522483335E+03  0.53525597763E+02  0.13823278411E+02  0.27327904110E+03  0.80533509199E+02 0.  0.
         24    2    4    4    0    0 -0.25366657319E+03 -0.92752184973E+03 -0.33651595165E+03  0.10221883054E+04  0.83560959584E+02 0.  0.
         11    1    3    3    0    0  0.19189169786E+02  0.49102544504E+03 -0.87021605804E+03  0.99937490442E+03  0.00000000000E+00 0.  1.
        -11    1    3    3    0    0 -0.20747429945E+02  0.38297080693E+03 -0.54471388045E+03  0.66619089333E+03  0.00000000000E+00 0. -1.
          4    1    6    6  502    0 -0.85184438296E+02 -0.45501123025E+03 -0.14289436457E+03  0.48446920192E+03  0.00000000000E+00 0. -1.
          1    1    5    5  503    0  0.57794942407E+02  0.10301904178E+02  0.37698141618E+02  0.69767718029E+02  0.00000000000E+00 0. -1.
         -2    1    5    5    0  503  0.19742989094E+03  0.43223693585E+02 -0.23874863206E+02  0.20351132307E+03  0.00000000000E+00 0.  1.
         -3    1    6    6    0  502 -0.16848213490E+03 -0.47251061948E+03 -0.19362158708E+03  0.53771910352E+03  0.00000000000E+00 0.  1.
<mgrwt>
<rscale>  0 0.23975790E+04</rscale>
<asrwt>0</asrwt>
<pdfrwt beam="1">  1        1 0.36143506E+00 0.23975790E+04</pdfrwt>
<pdfrwt beam="2">  1       -1 0.94108502E-01 0.23975790E+04</pdfrwt>
<totfact> 0.16871738E+00</totfact>
</mgrwt>
</event>
<event>
12    1  0.1201209E-007  0.2053130E+04  0.7818608E-02  0.8582176E-01
          1   -1    0    0  501    0  0.00000000000E+00  0.00000000000E+00  0.32013321264E+04  0.32013321264E+04  0.00000000000E+00 0. -1.
         -1   -1    0    0    0  501 -0.00000000000E+00 -0.00000000000E+00 -0.32918675307E+03  0.32918675307E+03  0.00000000000E+00 0.  1.
         23    2    1    2    0    0  0.18011169756E+02 -0.45954218788E+03  0.23428760628E+04  0.23893515000E+04  0.91809151278E+02 0.  0.
        254    2    1    2    0    0 -0.18011169756E+02  0.45954218788E+03  0.52926931055E+03  0.11411673795E+04  0.90035190911E+03 0.  0.
        -24    2    4    4    0    0  0.32915766986E+02 -0.17994565892E+03  0.44745170438E+03  0.48995493368E+03  0.79868150141E+02 0.  0.
         24    2    4    4    0    0 -0.50926936742E+02  0.63948784680E+03  0.81817606169E+02  0.65121244580E+03  0.76454364156E+02 0.  0.
         11    1    3    3    0    0 -0.24222805419E+02 -0.70355275114E+02  0.28379175975E+03  0.29338434168E+03  0.00000000000E+00 0. -1.
        -11    1    3    3    0    0  0.42233975175E+02 -0.38918691276E+03  0.20590843030E+04  0.20959671583E+04  0.00000000000E+00 0.  1.
          4    1    6    6  502    0 -0.37837523950E+02  0.11287555184E+03  0.21820445022E+02  0.12103181500E+03  0.00000000000E+00 0. -1.
          1    1    5    5  503    0  0.46555798574E+02 -0.81672654448E+02  0.15664938739E+03  0.18269344661E+03  0.00000000000E+00 0. -1.
         -2    1    5    5    0  503 -0.13640031589E+02 -0.98273004474E+02  0.29080231699E+03  0.30726148707E+03  0.00000000000E+00 0.  1.
         -3    1    6    6    0  502 -0.13089412792E+02  0.52661229496E+03  0.59997161147E+02  0.53018063080E+03  0.00000000000E+00 0.  1.
<mgrwt>
<rscale>  0 0.20531304E+04</rscale>
<asrwt>0</asrwt>
<pdfrwt beam="1">  1        1 0.49251261E+00 0.20531304E+04</pdfrwt>
<pdfrwt beam="2">  1       -1 0.50644118E-01 0.20531304E+04</pdfrwt>
<totfact> 0.15376718E+00</totfact>
</mgrwt>
</event>
<event>
12    1  0.1201209E-007  0.2034115E+04  0.7818608E-02  0.8590835E-01
         -2   -1    0    0    0  501 -0.00000000000E+00  0.00000000000E+00  0.27732264545E+03  0.27732264545E+03  0.00000000000E+00 0.  1.
          2   -1    0    0  501    0  0.00000000000E+00 -0.00000000000E+00 -0.37299715002E+04  0.37299715002E+04  0.00000000000E+00 0. -1.
         23    2    1    2    0    0 -0.45642264086E+03  0.42531304436E+03 -0.35814196890E+03  0.72427444525E+03  0.84231759797E+02 0.  0.
        254    2    1    2    0    0  0.45642264086E+03 -0.42531304436E+03 -0.30945068858E+04  0.32830197004E+04  0.90168324471E+03 0.  0.
        -24    2    4    4    0    0  0.34451687581E+02 -0.51184941041E+03 -0.24436043631E+04  0.24981097198E+04  0.78569402978E+02 0.  0.
         24    2    4    4    0    0  0.42197095328E+03  0.86536366043E+02 -0.65090252270E+03  0.78490998055E+03  0.82834506345E+02 0.  0.
         11    1    3    3    0    0 -0.16401856666E+03  0.16941125214E+03 -0.91085870039E+02  0.25278231402E+03  0.00000000000E+00 0. -1.
        -11    1    3    3    0    0 -0.29240407420E+03  0.25590179222E+03 -0.26705609886E+03  0.47149213123E+03  0.00000000000E+00 0.  1.
          4    1    6    6  502    0  0.29430978886E+03  0.95375280429E+02 -0.48714377416E+03  0.57708210217E+03  0.00000000000E+00 0. -1.
          3    1    5    5  503    0  0.31966951362E+02 -0.40990745587E+03 -0.17910507643E+04  0.18376367565E+04  0.00000000000E+00 0. -1.
         -4    1    5    5    0  503  0.24847362194E+01 -0.10194195454E+03 -0.65255359881E+03  0.66047296336E+03  0.00000000000E+00 0.  1.
         -3    1    6    6    0  502  0.12766116442E+03 -0.88389143857E+01 -0.16375874854E+03  0.20782787838E+03  0.00000000000E+00 0.  1.
<mgrwt>
<rscale>  0 0.20341146E+04</rscale>
<asrwt>0</asrwt>
<pdfrwt beam="1">  1        2 0.57384179E+00 0.20341146E+04</pdfrwt>
<pdfrwt beam="2">  1       -2 0.42665021E-01 0.20341146E+04</pdfrwt>
<totfact> 0.26950917E+00</totfact>
</mgrwt>
</event>
<event>
12    1  0.1201209E-007  0.1014919E+04  0.7818608E-02  0.9292332E-01
         -2   -1    0    0    0  501 -0.00000000000E+00  0.00000000000E+00  0.17801968183E+04  0.17801968183E+04  0.00000000000E+00 0.  1.
          2   -1    0    0  501    0  0.00000000000E+00 -0.00000000000E+00 -0.14465535174E+03  0.14465535174E+03  0.00000000000E+00 0. -1.
         23    2    1    2    0    0  0.53582636629E+00  0.25387503951E+02  0.33031660807E+03  0.34379112014E+03  0.91861092160E+02 0.  0.
        254    2    1    2    0    0 -0.53582636629E+00 -0.25387503951E+02  0.13052248585E+04  0.15810610499E+04  0.89190655331E+03 0.  0.
        -24    2    4    4    0    0 -0.35687085216E+03 -0.25176155471E+03  0.50410802251E+03  0.67194873229E+03  0.81544557876E+02 0.  0.
         24    2    4    4    0    0  0.35633502580E+03  0.22637405076E+03  0.80111683599E+03  0.90911231762E+03  0.80480803150E+02 0.  0.
         13    1    3    3    0    0  0.16496803565E+02  0.49472654989E+01  0.31094386045E+03  0.31142046226E+03  0.00000000000E+00 0.  1.
        -13    1    3    3    0    0 -0.15960977199E+02  0.20440238452E+02  0.19372747623E+02  0.32370657880E+02  0.00000000000E+00 0. -1.
          4    1    6    6  502    0  0.98774353063E+02  0.10118970872E+03  0.22497627313E+03  0.26572552276E+03  0.00000000000E+00 0. -1.
          3    1    5    5  503    0 -0.66334175329E+01 -0.27240316713E+02  0.26834019120E+02  0.38808525673E+02  0.00000000000E+00 0. -1.
         -4    1    5    5    0  503 -0.35023743463E+03 -0.22452123800E+03  0.47727400339E+03  0.63314020662E+03  0.00000000000E+00 0.  1.
         -3    1    6    6    0  502  0.25756067273E+03  0.12518434204E+03  0.57614056286E+03  0.64338679486E+03  0.00000000000E+00 0.  1.
<mgrwt>
<rscale>  0 0.10149187E+04</rscale>
<asrwt>0</asrwt>
<pdfrwt beam="1">  1        2 0.22254671E-01 0.10149187E+04</pdfrwt>
<pdfrwt beam="2">  1       -2 0.27387642E+00 0.10149187E+04</pdfrwt>
<totfact> 0.11610892E+01</totfact>
</mgrwt>
</event>
<event>
12    1  0.1201209E-007  0.3085821E+04  0.7818608E-02  0.8219640E-01
          1   -1    0    0  501    0  0.00000000000E+00  0.00000000000E+00  0.18675046084E+04  0.18675046084E+04  0.00000000000E+00 0. -1.
         -1   -1    0    0    0  501 -0.00000000000E+00 -0.00000000000E+00 -0.12747349955E+04  0.12747349955E+04  0.00000000000E+00 0.  1.
         23    2    1    2    0    0  0.13527297254E+04 -0.27661464481E+03  0.56309086489E+03  0.14938347023E+04  0.89874489170E+02 0.  0.
        254    2    1    2    0    0 -0.13527297254E+04  0.27661464481E+03  0.29678748058E+02  0.16484049016E+04  0.89998028855E+03 0.  0.
        -24    2    4    4    0    0  0.43990960825E+01  0.19890988307E+03  0.17763636209E+03  0.27875877124E+03  0.81038767138E+02 0.  0.
         24    2    4    4    0    0 -0.13571288215E+04  0.77704761746E+02 -0.14795761403E+03  0.13696461304E+04  0.78755309095E+02 0.  0.
         11    1    3    3    0    0  0.52612900499E+03 -0.72515741013E+02  0.18724269447E+03  0.56314304507E+03  0.00000000000E+00 0. -1.
        -11    1    3    3    0    0  0.82660072044E+03 -0.20409890380E+03  0.37584817042E+03  0.93069165720E+03  0.00000000000E+00 0.  1.
          4    1    6    6  502    0 -0.12075668268E+04  0.44470046277E+02 -0.13443359448E+03  0.12158402927E+04  0.00000000000E+00 0. -1.
          1    1    5    5  503    0  0.40953156265E+02  0.92172765533E+02  0.69547033154E+02  0.12251436461E+03  0.00000000000E+00 0. -1.
         -2    1    5    5    0  503 -0.36554060182E+02  0.10673711753E+03  0.10808932893E+03  0.15624440663E+03  0.00000000000E+00 0.  1.
         -3    1    6    6    0  502 -0.14956199476E+03  0.33234715469E+02 -0.13524019547E+02  0.15380583764E+03  0.00000000000E+00 0.  1.
<mgrwt>
<rscale>  0 0.30858214E+04</rscale>
<asrwt>0</asrwt>
<pdfrwt beam="1">  1        1 0.28730840E+00 0.30858214E+04</pdfrwt>
<pdfrwt beam="2">  1       -1 0.19611308E+00 0.30858214E+04</pdfrwt>
<totfact> 0.49594827E-01</totfact>
</mgrwt>
</event>
<event>
12    1  0.1201209E-007  0.1694213E+04  0.7818608E-02  0.8764672E-01
         -3   -1    0    0    0  501 -0.00000000000E+00  0.00000000000E+00  0.29141008686E+03  0.29141008686E+03  0.00000000000E+00 0.  1.
          3   -1    0    0  501    0  0.00000000000E+00 -0.00000000000E+00 -0.24624715082E+04  0.24624715082E+04  0.00000000000E+00 0. -1.
         23    2    1    2    0    0  0.33968302405E+03 -0.43705181916E+03 -0.38368590450E+03  0.67904826110E+03  0.86561065840E+02 0.  0.
        254    2    1    2    0    0 -0.33968302405E+03  0.43705181916E+03 -0.17873755169E+04  0.20748333340E+04  0.89656191984E+03 0.  0.
        -24    2    4    4    0    0  0.21464384115E+03  0.37402660216E+03 -0.11090322139E+04  0.11925896894E+04  0.79685871030E+02 0.  0.
         24    2    4    4    0    0 -0.55432686520E+03  0.63025217000E+02 -0.67834330297E+03  0.88224364463E+03  0.83389210013E+02 0.  0.
         13    1    3    3    0    0  0.27783495698E+03 -0.32573375206E+03 -0.25659799185E+03  0.49913652438E+03  0.00000000000E+00 0.  1.
        -13    1    3    3    0    0  0.61848067071E+02 -0.11131806710E+03 -0.12708791266E+03  0.17991173672E+03  0.00000000000E+00 0. -1.
          2    1    6    6  502    0 -0.35555611498E+03  0.18702810029E+01 -0.40870506642E+03  0.54172269674E+03  0.00000000000E+00 0. -1.
          1    1    5    5  503    0  0.65881562380E+02  0.19369015199E+03 -0.50077213633E+03  0.54095192741E+03  0.00000000000E+00 0. -1.
         -2    1    5    5    0  503  0.14876227877E+03  0.18033645018E+03 -0.60826007757E+03  0.65163776196E+03  0.00000000000E+00 0.  1.
         -1    1    6    6    0  502 -0.19877075023E+03  0.61154935997E+02 -0.26963823655E+03  0.34052094789E+03  0.00000000000E+00 0.  1.
<mgrwt>
<rscale>  0 0.16942125E+04</rscale>
<asrwt>0</asrwt>
<pdfrwt beam="1">  1        3 0.37884176E+00 0.16942125E+04</pdfrwt>
<pdfrwt beam="2">  1       -3 0.44832323E-01 0.16942125E+04</pdfrwt>
<totfact> 0.17902699E-01</totfact>
</mgrwt>
</event>
<event>
12    1  0.1201209E-007  0.2394834E+04  0.7818608E-02  0.8441440E-01
          2   -1    0    0  501    0  0.00000000000E+00  0.00000000000E+00  0.58146690421E+03  0.58146690421E+03  0.00000000000E+00 0. -1.
         -2   -1    0    0    0  501 -0.00000000000E+00 -0.00000000000E+00 -0.24658461479E+04  0.24658461479E+04  0.00000000000E+00 0.  1.
         23    2    1    2    0    0  0.47860859232E+03 -0.91023443376E+03 -0.75911586302E+03  0.12812899483E+04  0.88623524620E+02 0.  0.
        254    2    1    2    0    0 -0.47860859232E+03  0.91023443376E+03 -0.11252633807E+04  0.17660231038E+04  0.89164287596E+03 0.  0.
        -24    2    4    4    0    0  0.19957641544E+03  0.41683718845E+03 -0.18632265340E+03  0.50445529001E+03  0.78581303007E+02 0.  0.
         24    2    4    4    0    0 -0.67818500776E+03  0.49339724531E+03 -0.93894072726E+03  0.12615678138E+04  0.81042661817E+02 0.  0.
         13    1    3    3    0    0  0.35095968962E+03 -0.72706124993E+03 -0.62344772467E+03  0.10200381514E+04  0.00000000000E+00 0. -1.
        -13    1    3    3    0    0  0.12764890269E+03 -0.18317318383E+03 -0.13566813835E+03  0.26125179693E+03  0.00000000000E+00 0.  1.
          2    1    6    6  502    0 -0.30481686820E+03  0.18001404535E+03 -0.36307070676E+03  0.50708847134E+03  0.00000000000E+00 0. -1.
          3    1    5    5  503    0  0.11901975505E+03  0.18325180220E+03 -0.11683171860E+03  0.24778332384E+03  0.00000000000E+00 0. -1.
         -4    1    5    5    0  503  0.80556660387E+02  0.23358538624E+03 -0.69490934798E+02  0.25667196617E+03  0.00000000000E+00 0.  1.
         -1    1    6    6    0  502 -0.37336813956E+03  0.31338319997E+03 -0.57587002051E+03  0.75447934245E+03  0.00000000000E+00 0.  1.
<mgrwt>
<rscale>  0 0.23948344E+04</rscale>
<asrwt>0</asrwt>
<pdfrwt beam="1">  1        2 0.89456447E-01 0.23948344E+04</pdfrwt>
<pdfrwt beam="2">  1       -2 0.37936094E+00 0.23948344E+04</pdfrwt>
<totfact> 0.46878885E-01</totfact>
</mgrwt>
</event>
<event>
12    1  0.1201209E-007  0.1992145E+04  0.7818608E-02  0.8610302E-01
          2   -1    0    0  501    0  0.00000000000E+00  0.00000000000E+00  0.51579338295E+03  0.51579338295E+03  0.00000000000E+00 0. -1.
         -2   -1    0    0    0  501 -0.00000000000E+00 -0.00000000000E+00 -0.19235625616E+04  0.19235625616E+04  0.00000000000E+00 0.  1.
         23    2    1    2    0    0  0.64017837255E+03 -0.27643153351E+02 -0.11306278260E+04  0.13028908145E+04  0.92804638062E+02 0.  0.
        254    2    1    2    0    0 -0.64017837255E+03  0.27643153351E+02 -0.27714135260E+03  0.11364651301E+04  0.89674587812E+03 0.  0.
        -24    2    4    4    0    0 -0.69837381542E+03  0.46839833694E+01  0.13156280492E+03  0.71513105038E+03  0.79722780959E+02 0.  0.
         24    2    4    4    0    0  0.58195442874E+02  0.22959169981E+02 -0.40870415753E+03  0.42133407969E+03  0.81052361291E+02 0.  0.
         13    1    3    3    0    0  0.38797692603E+03 -0.23464553757E+02 -0.77352330758E+03  0.86568758093E+03  0.00000000000E+00 0.  1.
        -13    1    3    3    0    0  0.25220144652E+03 -0.41785995939E+01 -0.35710451843E+03  0.43720323352E+03  0.00000000000E+00 0. -1.
          4    1    6    6  502    0  0.88523972032E+01  0.20543764260E+02 -0.31144514961E+03  0.31224748582E+03  0.00000000000E+00 0. -1.
          1    1    5    5  503    0 -0.53164397609E+03 -0.11743962591E+02  0.13066421425E+03  0.54759143060E+03  0.00000000000E+00 0. -1.
         -2    1    5    5    0  503 -0.16672983933E+03  0.16427945961E+02  0.89859066844E+00  0.16753961978E+03  0.00000000000E+00 0.  1.
         -3    1    6    6    0  502  0.49343045671E+02  0.24154057211E+01 -0.97259007920E+02  0.10908659387E+03  0.00000000000E+00 0.  1.
<mgrwt>
<rscale>  0 0.19921454E+04</rscale>
<asrwt>0</asrwt>
<pdfrwt beam="1">  1        2 0.79352826E-01 0.19921454E+04</pdfrwt>
<pdfrwt beam="2">  1       -2 0.29593271E+00 0.19921454E+04</pdfrwt>
<totfact> 0.18598558E+00</totfact>
</mgrwt>
</event>
<event>
12    1  0.1201209E-007  0.3272238E+04  0.7818608E-02  0.8169996E-01
         -2   -1    0    0    0  501 -0.00000000000E+00  0.00000000000E+00  0.20285646305E+04  0.20285646305E+04  0.00000000000E+00 0.  1.
          2   -1    0    0  501    0  0.00000000000E+00 -0.00000000000E+00 -0.13195957438E+04  0.13195957438E+04  0.00000000000E+00 0. -1.
         23    2    1    2    0    0 -0.41745836703E+03  0.10580742944E+04  0.13451937441E+04  0.17639249870E+04  0.89958045220E+02 0.  0.
        254    2    1    2    0    0  0.41745836703E+03 -0.10580742944E+04 -0.63622485740E+03  0.15842353873E+04  0.90068140448E+03 0.  0.
        -24    2    4    4    0    0 -0.10577411904E+03 -0.83810587860E+03 -0.53105657067E+03  0.10015542266E+04  0.86487915773E+02 0.  0.
         24    2    4    4    0    0  0.52323248607E+03 -0.21996841583E+03 -0.10516828673E+03  0.58268116067E+03  0.79363896252E+02 0.  0.
         13    1    3    3    0    0 -0.34326082878E+03  0.84410929477E+03  0.10214503500E+04  0.13688350213E+04  0.00000000000E+00 0.  1.
        -13    1    3    3    0    0 -0.74197538251E+02  0.21396499966E+03  0.32374339411E+03  0.39508996569E+03  0.00000000000E+00 0. -1.
          2    1    6    6  502    0  0.20966174888E+03 -0.58361524462E+02 -0.12726566637E+02  0.21800477513E+03  0.00000000000E+00 0. -1.
          1    1    5    5  503    0  0.14675131162E+02 -0.65401360311E+02 -0.37701240572E+02  0.76903062005E+02  0.00000000000E+00 0. -1.
         -2    1    5    5    0  503 -0.12044925020E+03 -0.77270451829E+03 -0.49335533010E+03  0.92465116460E+03  0.00000000000E+00 0.  1.
         -1    1    6    6    0  502  0.31357073718E+03 -0.16160689137E+03 -0.92441720090E+02  0.36467638554E+03  0.00000000000E+00 0.  1.
<mgrwt>
<rscale>  0 0.32722379E+04</rscale>
<asrwt>0</asrwt>
<pdfrwt beam="1">  1        2 0.20301473E+00 0.32722379E+04</pdfrwt>
<pdfrwt beam="2">  1       -2 0.31208687E+00 0.32722379E+04</pdfrwt>
<totfact> 0.36106631E-01</totfact>
</mgrwt>
</event>
<event>
12    1  0.1201209E-007  0.3152687E+04  0.7818608E-02  0.8201425E-01
         -1   -1    0    0    0  501 -0.00000000000E+00  0.00000000000E+00  0.19204521702E+04  0.19204521702E+04  0.00000000000E+00 0.  1.
          1   -1    0    0  501    0  0.00000000000E+00 -0.00000000000E+00 -0.12938927790E+04  0.12938927790E+04  0.00000000000E+00 0. -1.
         23    2    1    2    0    0 -0.10988709638E+04  0.89422325401E+03 -0.13398070323E+02  0.14196294633E+04  0.89530339080E+02 0.  0.
        254    2    1    2    0    0  0.10988709638E+04 -0.89422325401E+03  0.63995746157E+03  0.17947154859E+04  0.89683080883E+03 0.  0.
        -24    2    4    4    0    0  0.88834431302E+03 -0.32654384893E+03  0.70166503357E+03  0.11808237777E+04  0.78895316234E+02 0.  0.
         24    2    4    4    0    0  0.21052665077E+03 -0.56767940509E+03 -0.61707572001E+02  0.61389170820E+03  0.80460097607E+02 0.  0.
         13    1    3    3    0    0 -0.77874805095E+03  0.59703774927E+03  0.20721058832E+02  0.98149475963E+03  0.00000000000E+00 0. -1.
        -13    1    3    3    0    0 -0.32012291284E+03  0.29718550474E+03 -0.34119129155E+02  0.43813470363E+03  0.00000000000E+00 0.  1.
          4    1    6    6  502    0  0.14250664985E+03 -0.30718937600E+03 -0.45422173769E+01  0.33866515870E+03  0.00000000000E+00 0. -1.
          1    1    5    5  503    0  0.37219021306E+03 -0.12653810101E+03  0.33858962713E+03  0.51882596437E+03  0.00000000000E+00 0. -1.
         -2    1    5    5    0  503  0.51615409996E+03 -0.20000574792E+03  0.36307540644E+03  0.66199781334E+03  0.00000000000E+00 0.  1.
         -3    1    6    6    0  502  0.68020000919E+02 -0.26049002909E+03 -0.57165354624E+02  0.27522654950E+03  0.00000000000E+00 0.  1.
<mgrwt>
<rscale>  0 0.31526872E+04</rscale>
<asrwt>0</asrwt>
<pdfrwt beam="1">  1        1 0.19906043E+00 0.31526872E+04</pdfrwt>
<pdfrwt beam="2">  1       -1 0.29545418E+00 0.31526872E+04</pdfrwt>
<totfact> 0.27124891E-01</totfact>
</mgrwt>
</event>
<event>
12    1  0.1201209E-007  0.1532427E+04  0.7818608E-02  0.8863171E-01
          1   -1    0    0  501    0  0.00000000000E+00  0.00000000000E+00  0.26577160056E+04  0.26577160056E+04  0.00000000000E+00 0. -1.
         -1   -1    0    0    0  501 -0.00000000000E+00 -0.00000000000E+00 -0.22089747291E+03  0.22089747291E+03  0.00000000000E+00 0.  1.
         23    2    1    2    0    0 -0.48415734444E+03  0.11258956437E+03  0.86139412827E+03  0.10006711770E+04  0.11071682872E+03 0.  0.
        254    2    1    2    0    0  0.48415734444E+03 -0.11258956437E+03  0.15754244044E+04  0.18779423015E+04  0.89309601356E+03 0.  0.
        -24    2    4    4    0    0  0.76824933801E+02 -0.77798099175E+02  0.14307586142E+04  0.14371893645E+04  0.80550871278E+02 0.  0.
         24    2    4    4    0    0  0.40733241064E+03 -0.34791465190E+02  0.14466579027E+03  0.44075293694E+03  0.78770690889E+02 0.  0.
         11    1    3    3    0    0 -0.13545552687E+03  0.25210126810E+01  0.15975841902E+03  0.20946910921E+03  0.00000000000E+00 0.  1.
        -11    1    3    3    0    0 -0.34870181756E+03  0.11006855168E+03  0.70163570926E+03  0.79120206784E+03  0.00000000000E+00 0. -1.
          2    1    6    6  502    0  0.36765801186E+02  0.15419688471E+02  0.29069890105E+02  0.49341153616E+02  0.00000000000E+00 0. -1.
          3    1    5    5  503    0  0.46636868661E+02  0.40676319139E+01  0.39571091530E+03  0.39847041501E+03  0.00000000000E+00 0. -1.
         -2    1    5    5    0  503  0.30188065140E+02 -0.81865731089E+02  0.10350476989E+04  0.10387189495E+04  0.00000000000E+00 0.  1.
         -1    1    6    6    0  502  0.37056660945E+03 -0.50211153661E+02  0.11559590017E+03  0.39141178333E+03  0.00000000000E+00 0.  1.
<mgrwt>
<rscale>  0 0.15324265E+04</rscale>
<asrwt>0</asrwt>
<pdfrwt beam="1">  1        1 0.40887936E+00 0.15324265E+04</pdfrwt>
<pdfrwt beam="2">  1       -1 0.33984228E-01 0.15324265E+04</pdfrwt>
<totfact> 0.83231170E+00</totfact>
</mgrwt>
</event>
<event>
12    1  0.1201209E-007  0.3175156E+04  0.7818608E-02  0.8195409E-01
         -2   -1    0    0    0  501 -0.00000000000E+00  0.00000000000E+00  0.12557195365E+04  0.12557195365E+04  0.00000000000E+00 0.  1.
          2   -1    0    0  501    0  0.00000000000E+00 -0.00000000000E+00 -0.20071395585E+04  0.20071395585E+04  0.00000000000E+00 0. -1.
         23    2    1    2    0    0  0.11103100552E+04 -0.56570964280E+03  0.43174809917E+03  0.13225501417E+04  0.99582315466E+02 0.  0.
        254    2    1    2    0    0 -0.11103100552E+04  0.56570964280E+03 -0.11831681212E+04  0.19403089533E+04  0.90116381016E+03 0.  0.
        -24    2    4    4    0    0 -0.69770955276E+03  0.36781471599E+03 -0.14915624823E+03  0.80670716307E+03  0.80265654243E+02 0.  0.
         24    2    4    4    0    0 -0.41260050239E+03  0.19789492681E+03 -0.10340118730E+04  0.11336017902E+04  0.80441834597E+02 0.  0.
         13    1    3    3    0    0  0.10537693003E+04 -0.51350824804E+03  0.39271102073E+03  0.12362614630E+04  0.00000000000E+00 0.  1.
        -13    1    3    3    0    0  0.56540754825E+02 -0.52201394766E+02  0.39037078439E+02  0.86288678660E+02  0.00000000000E+00 0. -1.
          2    1    6    6  502    0 -0.24578366286E+03  0.85470522994E+02 -0.64849780267E+03  0.69875905668E+03  0.00000000000E+00 0. -1.
          3    1    5    5  503    0 -0.76843577926E+02  0.18205015025E+02 -0.12195136852E+01  0.78980030730E+02  0.00000000000E+00 0. -1.
         -4    1    5    5    0  503 -0.62086597484E+03  0.34960970097E+03 -0.14793673454E+03  0.72772713234E+03  0.00000000000E+00 0.  1.
         -1    1    6    6    0  502 -0.16681683954E+03  0.11242440381E+03 -0.38551407032E+03  0.43484273357E+03  0.00000000000E+00 0.  1.
<mgrwt>
<rscale>  0 0.31751563E+04</rscale>
<asrwt>0</asrwt>
<pdfrwt beam="1">  1        2 0.30879070E+00 0.31751563E+04</pdfrwt>
<pdfrwt beam="2">  1       -2 0.19318762E+00 0.31751563E+04</pdfrwt>
<totfact> 0.82439282E-01</totfact>
</mgrwt>
</event>
<event>
12    1  0.1201209E-007  0.1392435E+04  0.7818608E-02  0.8959313E-01
          2   -1    0    0  501    0  0.00000000000E+00  0.00000000000E+00  0.50907692187E+03  0.50907692187E+03  0.00000000000E+00 0. -1.
         -2   -1    0    0    0  501 -0.00000000000E+00 -0.00000000000E+00 -0.95215195468E+03  0.95215195468E+03  0.00000000000E+00 0.  1.
         23    2    1    2    0    0 -0.29992681729E+03 -0.20781203603E+02 -0.40204944504E+03  0.50978305954E+03  0.88583618042E+02 0.  0.
        254    2    1    2    0    0  0.29992681729E+03  0.20781203603E+02 -0.41025587771E+02  0.95144581702E+03  0.90176387692E+03 0.  0.
        -24    2    4    4    0    0  0.71204265756E+02  0.79304575408E+02 -0.45128062751E+03  0.47085288806E+03  0.81786149695E+02 0.  0.
         24    2    4    4    0    0  0.22872255153E+03 -0.58523371804E+02  0.41025503974E+03  0.48059292896E+03  0.83194802139E+02 0.  0.
         13    1    3    3    0    0 -0.46774342960E+02 -0.44697169407E+01 -0.19738106465E+02  0.50964795454E+02  0.00000000000E+00 0. -1.
        -13    1    3    3    0    0 -0.25315247432E+03 -0.16311486663E+02 -0.38231133858E+03  0.45881826408E+03  0.00000000000E+00 0.  1.
          4    1    6    6  502    0  0.13394929986E+03 -0.18106287551E+01  0.27563344471E+03  0.30646286749E+03  0.00000000000E+00 0. -1.
          3    1    5    5  503    0  0.50537451123E+02  0.13619526564E+01 -0.12689345222E+03  0.13659369348E+03  0.00000000000E+00 0. -1.
         -4    1    5    5    0  503  0.20666814633E+02  0.77942622751E+02 -0.32438717529E+03  0.33425919458E+03  0.00000000000E+00 0.  1.
         -3    1    6    6    0  502  0.94773251665E+02 -0.56712743049E+02  0.13462159503E+03  0.17413006146E+03  0.00000000000E+00 0.  1.
<mgrwt>
<rscale>  0 0.13924347E+04</rscale>
<asrwt>0</asrwt>
<pdfrwt beam="1">  1        2 0.78319527E-01 0.13924347E+04</pdfrwt>
<pdfrwt beam="2">  1       -2 0.14648491E+00 0.13924347E+04</pdfrwt>
<totfact> 0.18717567E+01</totfact>
</mgrwt>
</event>
<event>
12    1  0.1201209E-007  0.1957657E+04  0.7818608E-02  0.8626677E-01
         -2   -1    0    0    0  501 -0.00000000000E+00  0.00000000000E+00  0.64087380636E+03  0.64087380636E+03  0.00000000000E+00 0.  1.
          2   -1    0    0  501    0  0.00000000000E+00 -0.00000000000E+00 -0.14949982689E+04  0.14949982689E+04  0.00000000000E+00 0. -1.
         23    2    1    2    0    0  0.15333218895E+03  0.32621045382E+03 -0.10742442244E+04  0.11366762163E+04  0.90045248156E+02 0.  0.
        254    2    1    2    0    0 -0.15333218895E+03 -0.32621045382E+03  0.22011976180E+03  0.99919585901E+03  0.90554714663E+03 0.  0.
        -24    2    4    4    0    0 -0.15447490961E+03  0.22245715116E+03  0.32953401716E+03  0.43410349965E+03  0.80644269124E+02 0.  0.
         24    2    4    4    0    0  0.11427206604E+01 -0.54866760498E+03 -0.10941425536E+03  0.56509235936E+03  0.79501250141E+02 0.  0.
         11    1    3    3    0    0 -0.92663571077E+01  0.43322863611E+02 -0.10422443755E+03  0.11324958838E+03  0.00000000000E+00 0.  1.
        -11    1    3    3    0    0  0.16259854606E+03  0.28288759021E+03 -0.97001978681E+03  0.10234266279E+04  0.00000000000E+00 0. -1.
          4    1    6    6  502    0 -0.93644776283E+00 -0.48369647988E+03 -0.12208032787E+03  0.49886548091E+03  0.00000000000E+00 0. -1.
          1    1    5    5  503    0 -0.16405216325E+03  0.21456664565E+03  0.31288594346E+03  0.41333953514E+03  0.00000000000E+00 0. -1.
         -2    1    5    5    0  503  0.95772536375E+01  0.78905055036E+01  0.16648073694E+02  0.20763964507E+02  0.00000000000E+00 0.  1.
         -3    1    6    6    0  502  0.20791684232E+01 -0.64971125093E+02  0.12666072516E+02  0.66226878457E+02  0.00000000000E+00 0.  1.
<mgrwt>
<rscale>  0 0.19576570E+04</rscale>
<asrwt>0</asrwt>
<pdfrwt beam="1">  1        2 0.22999973E+00 0.19576570E+04</pdfrwt>
<pdfrwt beam="2">  1       -2 0.98595973E-01 0.19576570E+04</pdfrwt>
<totfact> 0.10174195E+01</totfact>
</mgrwt>
</event>
<event>
12    1  0.1201209E-007  0.1284855E+04  0.7818608E-02  0.9041662E-01
         -2   -1    0    0    0  501 -0.00000000000E+00  0.00000000000E+00  0.16144076680E+03  0.16144076680E+03  0.00000000000E+00 0. -1.
          2   -1    0    0  501    0  0.00000000000E+00 -0.00000000000E+00 -0.25564378846E+04  0.25564378846E+04  0.00000000000E+00 0.  1.
         23    2    1    2    0    0  0.20848322111E+03  0.22100965080E+03 -0.85010181513E+03  0.90749613485E+03  0.92550631821E+02 0.  0.
        254    2    1    2    0    0 -0.20848322111E+03 -0.22100965080E+03 -0.15448953027E+04  0.18103825166E+04  0.89357307525E+03 0.  0.
        -24    2    4    4    0    0  0.25383192595E+03 -0.30732472746E+03 -0.40103322697E+03  0.57097040404E+03  0.79375175108E+02 0.  0.
         24    2    4    4    0    0 -0.46231514707E+03  0.86315076660E+02 -0.11438620757E+04  0.12394121125E+04  0.80847688572E+02 0.  0.
         11    1    3    3    0    0  0.14590133853E+02  0.26446421741E+02 -0.19215118395E+03  0.19451057227E+03  0.00000000000E+00 0. -1.
        -11    1    3    3    0    0  0.19389308726E+03  0.19456322905E+03 -0.65795063117E+03  0.71298556258E+03  0.00000000000E+00 0.  1.
          4    1    6    6  502    0 -0.65340961826E+02  0.35778085656E+02 -0.23023636121E+03  0.24198821197E+03  0.00000000000E+00 0. -1.
          3    1    5    5  503    0  0.53430294640E+02 -0.95538323441E+02 -0.70445166293E+02  0.13017253583E+03  0.00000000000E+00 0. -1.
         -4    1    5    5    0  503  0.20040163131E+03 -0.21178640401E+03 -0.33058806067E+03  0.44079786821E+03  0.00000000000E+00 0.  1.
         -1    1    6    6    0  502 -0.39697418524E+03  0.50536991004E+02 -0.91362571449E+03  0.99742390055E+03  0.00000000000E+00 0.  1.
<mgrwt>
<rscale>  0 0.12848553E+04</rscale>
<asrwt>0</asrwt>
<pdfrwt beam="1">  1        2 0.39329813E+00 0.12848553E+04</pdfrwt>
<pdfrwt beam="2">  1       -2 0.24837041E-01 0.12848553E+04</pdfrwt>
<totfact> 0.46231738E+01</totfact>
</mgrwt>
</event>
<event>
12    1  0.1201209E-007  0.1238326E+04  0.7818608E-02  0.9079955E-01
          1   -1    0    0  501    0  0.00000000000E+00  0.00000000000E+00  0.87605923266E+03  0.87605923266E+03  0.00000000000E+00 0. -1.
         -1   -1    0    0    0  501 -0.00000000000E+00 -0.00000000000E+00 -0.43759955353E+03  0.43759955353E+03  0.00000000000E+00 0.  1.
         23    2    1    2    0    0  0.12592019240E+03 -0.71554041297E+02  0.36084003429E+03  0.39902741930E+03  0.89674273479E+02 0.  0.
        254    2    1    2    0    0 -0.12592019240E+03  0.71554041297E+02  0.77619644840E+02  0.91463136690E+03  0.89974988323E+03 0.  0.
        -24    2    4    4    0    0  0.38208314397E+02 -0.30767988758E+03  0.29985156083E+03  0.43876069823E+03  0.80456219570E+02 0.  0.
         24    2    4    4    0    0 -0.16412850680E+03  0.37923392888E+03 -0.22223191599E+03  0.47587066867E+03  0.79431286384E+02 0.  0.
         13    1    3    3    0    0  0.77055473970E+02  0.29496760424E+01  0.21161309116E+03  0.22522510297E+03  0.00000000000E+00 0. -1.
        -13    1    3    3    0    0  0.48864718434E+02 -0.74503717340E+02  0.14922694313E+03  0.17380231633E+03  0.00000000000E+00 0.  1.
          2    1    6    6  502    0 -0.11554004925E+03  0.17478924178E+03 -0.12836176749E+03  0.24571838632E+03  0.00000000000E+00 0. -1.
          3    1    5    5  503    0  0.48013297195E+02 -0.11653159335E+03  0.90883954499E+02  0.15538591358E+03  0.00000000000E+00 0. -1.
         -4    1    5    5    0  503 -0.98049827979E+01 -0.19114829424E+03  0.20896760633E+03  0.28337478464E+03  0.00000000000E+00 0.  1.
         -1    1    6    6    0  502 -0.48588457547E+02  0.20444468710E+03 -0.93870148500E+02  0.23015228235E+03  0.00000000000E+00 0.  1.
<mgrwt>
<rscale>  0 0.12383265E+04</rscale>
<asrwt>0</asrwt>
<pdfrwt beam="1">  1        1 0.13477834E+00 0.12383265E+04</pdfrwt>
<pdfrwt beam="2">  1       -1 0.67323008E-01 0.12383265E+04</pdfrwt>
<totfact> 0.42015501E+01</totfact>
</mgrwt>
</event>
<event>
12    1  0.1574511E-007  0.2491164E+04  0.7818608E-02  0.8406140E-01
          1   -1    0    0  501    0  0.00000000000E+00  0.00000000000E+00  0.17282429829E+04  0.17282429829E+04  0.00000000000E+00 0. -1.
         -1   -1    0    0    0  501 -0.00000000000E+00 -0.00000000000E+00 -0.89771772986E+03  0.89771772986E+03  0.00000000000E+00 0.  1.
         23    2    1    2    0    0  0.64670556769E+03 -0.15188421761E+03 -0.49645421694E+03  0.83438950080E+03  0.91881133472E+02 0.  0.
        254    2    1    2    0    0 -0.64670556769E+03  0.15188421761E+03  0.13269794700E+04  0.17915712120E+04  0.10037708837E+04 0.  0.
        -24    2    4    4    0    0 -0.63045721028E+03 -0.21438261812E+03  0.12328764174E+04  0.14035314660E+04  0.80499158738E+02 0.  0.
         24    2    4    4    0    0 -0.16248357403E+02  0.36626683572E+03  0.94103052611E+02  0.38803974598E+03  0.85463769397E+02 0.  0.
         11    1    3    3    0    0  0.54136722811E+01 -0.38122697829E+01  0.38489301107E+01  0.76586886255E+01  0.00000000000E+00 0. -1.
        -11    1    3    3    0    0  0.64129189541E+03 -0.14807194783E+03 -0.50030314705E+03  0.82673081217E+03  0.00000000000E+00 0.  1.
          2    1    6    6  502    0  0.20498576695E+02  0.26473654198E+02 -0.24109632644E+00  0.33482893253E+02  0.00000000000E+00 0. -1.
          3    1    5    5  503    0 -0.28883402588E+02 -0.18859956568E+02  0.10324015604E+03  0.10885071762E+03  0.00000000000E+00 0. -1.
         -4    1    5    5    0  503 -0.60157380770E+03 -0.19552266155E+03  0.11296362614E+04  0.12946807484E+04  0.00000000000E+00 0.  1.
         -1    1    6    6    0  502 -0.36746934098E+02  0.33979318153E+03  0.94344148937E+02  0.35455685273E+03  0.00000000000E+00 0.  1.
<mgrwt>
<rscale>  0 0.24911639E+04</rscale>
<asrwt>0</asrwt>
<pdfrwt beam="1">  1        1 0.26588354E+00 0.24911639E+04</pdfrwt>
<pdfrwt beam="2">  1       -1 0.13811042E+00 0.24911639E+04</pdfrwt>
<totfact> 0.17603600E+00</totfact>
</mgrwt>
</event>
<event>
12    1  0.1201209E-007  0.2258442E+04  0.7818608E-02  0.8494490E-01
          2   -1    0    0  501    0  0.00000000000E+00  0.00000000000E+00  0.33027398372E+04  0.33027398372E+04  0.00000000000E+00 0. -1.
         -2   -1    0    0    0  501 -0.00000000000E+00 -0.00000000000E+00 -0.38608544131E+03  0.38608544131E+03  0.00000000000E+00 0.  1.
         23    2    1    2    0    0  0.26998195044E+03  0.46503736351E+03  0.25029457296E+04  0.25616835755E+04  0.91298481073E+02 0.  0.
        254    2    1    2    0    0 -0.26998195044E+03 -0.46503736351E+03  0.41370866629E+03  0.11271417030E+04  0.90007974929E+03 0.  0.
        -24    2    4    4    0    0  0.21971204324E+03 -0.36448797750E+03 -0.56520503331E+02  0.43675473461E+03  0.80220092371E+02 0.  0.
         24    2    4    4    0    0 -0.48969399368E+03 -0.10054938601E+03  0.47022916963E+03  0.69038696841E+03  0.74888635343E+02 0.  0.
         13    1    3    3    0    0  0.26031731439E+03  0.43061895486E+03  0.22097853669E+04  0.22663515077E+04  0.00000000000E+00 0. -1.
        -13    1    3    3    0    0  0.96646360479E+01  0.34418408649E+02  0.29316036265E+03  0.29533206781E+03  0.00000000000E+00 0.  1.
          4    1    6    6  502    0 -0.36531650813E+03 -0.96670687925E+02  0.38560747126E+03  0.53990230126E+03  0.00000000000E+00 0. -1.
          1    1    5    5  503    0  0.21760337674E+03 -0.33522330237E+03 -0.67711112903E+02  0.40535254635E+03  0.00000000000E+00 0. -1.
         -2    1    5    5    0  503  0.21086664976E+01 -0.29264675136E+02  0.11190609572E+02  0.31402188265E+02  0.00000000000E+00 0.  1.
         -3    1    6    6    0  502 -0.12437748556E+03 -0.38786980846E+01  0.84621698362E+02  0.15048466715E+03  0.00000000000E+00 0.  1.
<mgrwt>
<rscale>  0 0.22584417E+04</rscale>
<asrwt>0</asrwt>
<pdfrwt beam="1">  1        2 0.50811380E+00 0.22584417E+04</pdfrwt>
<pdfrwt beam="2">  1       -2 0.59397762E-01 0.22584417E+04</pdfrwt>
<totfact> 0.26751270E+00</totfact>
</mgrwt>
</event>
<event>
12    1  0.1201209E-007  0.1949512E+04  0.7818608E-02  0.8630596E-01
          1   -1    0    0  501    0  0.00000000000E+00  0.00000000000E+00  0.14497966186E+04  0.14497966186E+04  0.00000000000E+00 0. -1.
         -1   -1    0    0    0  501 -0.00000000000E+00 -0.00000000000E+00 -0.65536697764E+03  0.65536697764E+03  0.00000000000E+00 0.  1.
         23    2    1    2    0    0 -0.72750758719E+03  0.91505429662E+01  0.49401764878E+02  0.73478541119E+03  0.90100190182E+02 0.  0.
        254    2    1    2    0    0  0.72750758719E+03 -0.91505429662E+01  0.74502787611E+03  0.13703781851E+04  0.89079672886E+03 0.  0.
        -24    2    4    4    0    0  0.15110721620E+03  0.29399851117E+03 -0.45269658073E+02  0.34330370783E+03  0.80867660455E+02 0.  0.
         24    2    4    4    0    0  0.57640037099E+03 -0.30314905414E+03  0.79029753419E+03  0.10270744773E+04  0.78581502986E+02 0.  0.
         13    1    3    3    0    0 -0.94580566627E+02 -0.99500466193E+01 -0.21831599267E+02  0.97576153531E+02  0.00000000000E+00 0. -1.
        -13    1    3    3    0    0 -0.63292702056E+03  0.19100589585E+02  0.71233364146E+02  0.63720925766E+03  0.00000000000E+00 0.  1.
          2    1    6    6  502    0  0.14318103486E+02 -0.62478389505E+01  0.44295231395E+02  0.46969257002E+02  0.00000000000E+00 0. -1.
          1    1    5    5  503    0  0.72372686269E+02  0.12747865655E+03 -0.60274506391E+02  0.15849804325E+03  0.00000000000E+00 0. -1.
         -2    1    5    5    0  503  0.78734529928E+02  0.16651985463E+03  0.15004848318E+02  0.18480566458E+03  0.00000000000E+00 0.  1.
         -3    1    6    6    0  502  0.56208226750E+03 -0.29690121519E+03  0.74600230279E+03  0.98010522027E+03  0.00000000000E+00 0.  1.
<mgrwt>
<rscale>  0 0.19495116E+04</rscale>
<asrwt>0</asrwt>
<pdfrwt beam="1">  1        1 0.22304563E+00 0.19495116E+04</pdfrwt>
<pdfrwt beam="2">  1       -1 0.10082569E+00 0.19495116E+04</pdfrwt>
<totfact> 0.61777744E+00</totfact>
</mgrwt>
</event>
<event>
12    1  0.1201209E-007  0.1820488E+04  0.7818608E-02  0.8695480E-01
          1   -1    0    0  501    0  0.00000000000E+00  0.00000000000E+00  0.14337130447E+04  0.14337130447E+04  0.00000000000E+00 0. -1.
         -1   -1    0    0    0  501 -0.00000000000E+00 -0.00000000000E+00 -0.57790068404E+03  0.57790068404E+03  0.00000000000E+00 0.  1.
         23    2    1    2    0    0  0.18715111661E+03 -0.14509992948E+02 -0.40733396568E+03  0.45784083559E+03  0.91984731311E+02 0.  0.
        254    2    1    2    0    0 -0.18715111661E+03  0.14509992948E+02  0.12631463264E+04  0.15537728932E+04  0.88511890805E+03 0.  0.
        -24    2    4    4    0    0  0.41633151798E+02  0.38592030576E+03  0.89014428230E+03  0.97441054846E+03  0.80319810222E+02 0.  0.
         24    2    4    4    0    0 -0.22878426841E+03 -0.37141031281E+03  0.37300204407E+03  0.57936234471E+03  0.79008478407E+02 0.  0.
         13    1    3    3    0    0  0.92457176551E+01 -0.27508934230E+02 -0.79298665448E+02  0.84442306335E+02  0.00000000000E+00 0. -1.
        -13    1    3    3    0    0  0.17790539896E+03  0.12998941281E+02 -0.32803530023E+03  0.37339852926E+03  0.00000000000E+00 0.  1.
          2    1    6    6  502    0 -0.18298551146E+03 -0.31949072520E+03  0.27580344045E+03  0.46002778031E+03  0.00000000000E+00 0. -1.
          1    1    5    5  503    0 -0.45226870571E+01  0.27813762980E+03  0.65627226887E+03  0.71279329871E+03  0.00000000000E+00 0. -1.
         -2    1    5    5    0  503  0.46155838855E+02  0.10778267596E+03  0.23387201343E+03  0.26161724974E+03  0.00000000000E+00 0.  1.
         -1    1    6    6    0  502 -0.45798756948E+02 -0.51919587608E+02  0.97198603625E+02  0.11933456441E+03  0.00000000000E+00 0.  1.
<mgrwt>
<rscale>  0 0.18204876E+04</rscale>
<asrwt>0</asrwt>
<pdfrwt beam="1">  1        1 0.22057124E+00 0.18204876E+04</pdfrwt>
<pdfrwt beam="2">  1       -1 0.88907798E-01 0.18204876E+04</pdfrwt>
<totfact> 0.85044234E+00</totfact>
</mgrwt>
</event>
<event>
12    1  0.1201209E-007  0.1467508E+04  0.7818608E-02  0.8906352E-01
         -1   -1    0    0    0  501 -0.00000000000E+00  0.00000000000E+00  0.48227020088E+03  0.48227020088E+03  0.00000000000E+00 0.  1.
          1   -1    0    0  501    0  0.00000000000E+00 -0.00000000000E+00 -0.11163764901E+04  0.11163764901E+04  0.00000000000E+00 0. -1.
         23    2    1    2    0    0 -0.43886155410E+03  0.86658644525E+02 -0.12523245110E+03  0.47322280111E+03  0.90263327815E+02 0.  0.
        254    2    1    2    0    0  0.43886155410E+03 -0.86658644525E+02 -0.50887383811E+03  0.11254238899E+04  0.89861958827E+03 0.  0.
        -24    2    4    4    0    0  0.58696482480E+03  0.22850099592E+03 -0.24262738237E+03  0.67970418433E+03  0.79933227322E+02 0.  0.
         24    2    4    4    0    0 -0.14810327070E+03 -0.31515964044E+03 -0.26624645574E+03  0.44571970554E+03  0.80738484950E+02 0.  0.
         11    1    3    3    0    0 -0.59027517382E+01 -0.87419500546E+01 -0.11330060373E+02  0.15480130390E+02  0.00000000000E+00 0.  1.
        -11    1    3    3    0    0 -0.43295880236E+03  0.95400594579E+02 -0.11390239073E+03  0.45774267072E+03  0.00000000000E+00 0. -1.
          4    1    6    6  502    0  0.14043788195E+01 -0.36511470124E+02 -0.52765433439E+02  0.64181389020E+02  0.00000000000E+00 0. -1.
          1    1    5    5  503    0  0.71421191160E+01  0.79834245566E+01 -0.16017270076E+02  0.19269091152E+02  0.00000000000E+00 0. -1.
         -2    1    5    5    0  503  0.57982270569E+03  0.22051757136E+03 -0.22661011229E+03  0.66043509318E+03  0.00000000000E+00 0.  1.
         -3    1    6    6    0  502 -0.14950764952E+03 -0.27864817032E+03 -0.21348102231E+03  0.38153831652E+03  0.00000000000E+00 0.  1.
<mgrwt>
<rscale>  0 0.14675082E+04</rscale>
<asrwt>0</asrwt>
<pdfrwt beam="1">  1        1 0.17175023E+00 0.14675082E+04</pdfrwt>
<pdfrwt beam="2">  1       -1 0.74195416E-01 0.14675082E+04</pdfrwt>
<totfact> 0.21861162E+01</totfact>
</mgrwt>
</event>
<event>
12    1  0.1201209E-007  0.2233244E+04  0.7818608E-02  0.8504717E-01
         -1   -1    0    0    0  501 -0.00000000000E+00  0.00000000000E+00  0.59846873479E+03  0.59846873479E+03  0.00000000000E+00 0.  1.
          1   -1    0    0  501    0  0.00000000000E+00 -0.00000000000E+00 -0.20833912246E+04  0.20833912246E+04  0.00000000000E+00 0. -1.
         23    2    1    2    0    0 -0.87674686664E+03 -0.17072739910E+03 -0.94723089039E+03  0.13053264257E+04  0.93796615381E+02 0.  0.
        254    2    1    2    0    0  0.87674686664E+03  0.17072739910E+03 -0.53769159940E+03  0.13765335336E+04  0.89883224251E+03 0.  0.
        -24    2    4    4    0    0  0.55661275361E+03 -0.15930933890E+03 -0.67235698218E+03  0.89082220050E+03  0.79391803610E+02 0.  0.
         24    2    4    4    0    0  0.32013411303E+03  0.33003673800E+03  0.13466538278E+03  0.48571133313E+03  0.79816258109E+02 0.  0.
         13    1    3    3    0    0 -0.66248319981E+03 -0.13284367447E+03 -0.65549937495E+03  0.94138773225E+03  0.00000000000E+00 0. -1.
        -13    1    3    3    0    0 -0.21426366683E+03 -0.37883724637E+02 -0.29173151544E+03  0.36393869349E+03  0.00000000000E+00 0.  1.
          2    1    6    6  502    0  0.15210848031E+01  0.90480128340E+01  0.15489945903E+02  0.18003295790E+02  0.00000000000E+00 0. -1.
          1    1    5    5  503    0  0.23425584451E+03 -0.41855617663E+02 -0.32273218088E+03  0.40097849567E+03  0.00000000000E+00 0. -1.
         -2    1    5    5    0  503  0.32235690910E+03 -0.11745372123E+03 -0.34962480130E+03  0.48984370483E+03  0.00000000000E+00 0.  1.
         -1    1    6    6    0  502  0.31861302823E+03  0.32098872517E+03  0.11917543687E+03  0.46770803734E+03  0.00000000000E+00 0.  1.
<mgrwt>
<rscale>  0 0.22332438E+04</rscale>
<asrwt>0</asrwt>
<pdfrwt beam="1">  1        1 0.32052173E+00 0.22332438E+04</pdfrwt>
<pdfrwt beam="2">  1       -1 0.92072113E-01 0.22332438E+04</pdfrwt>
<totfact> 0.27303181E+00</totfact>
</mgrwt>
</event>
<event>
12    1  0.1201209E-007  0.1189847E+04  0.7818608E-02  0.9121790E-01
          1   -1    0    0  501    0  0.00000000000E+00  0.00000000000E+00  0.10656233879E+04  0.10656233879E+04  0.00000000000E+00 0. -1.
         -1   -1    0    0    0  501 -0.00000000000E+00 -0.00000000000E+00 -0.33213775713E+03  0.33213775713E+03  0.00000000000E+00 0.  1.
         23    2    1    2    0    0  0.55956749212E+02 -0.11232465355E+03 -0.79197607683E+02  0.17467853697E+03  0.92153918197E+02 0.  0.
        254    2    1    2    0    0 -0.55956749212E+02  0.11232465355E+03  0.81268323842E+03  0.12230826080E+04  0.90538888576E+03 0.  0.
        -24    2    4    4    0    0 -0.87363534915E+01  0.69024846332E+02  0.10024277729E+04  0.10080890103E+04  0.80878053354E+02 0.  0.
         24    2    4    4    0    0 -0.47220395720E+02  0.43299807215E+02 -0.18974453444E+03  0.21499359777E+03  0.78196033504E+02 0.  0.
         13    1    3    3    0    0  0.67250562453E+02 -0.34498678292E+02 -0.50794884829E+02  0.91065456013E+02  0.00000000000E+00 0. -1.
        -13    1    3    3    0    0 -0.11293813241E+02 -0.77825975254E+02 -0.28402722854E+02  0.83613080958E+02  0.00000000000E+00 0.  1.
          4    1    6    6  502    0 -0.21771640672E+01  0.54584684813E+02 -0.10503144198E+03  0.11838847775E+03  0.00000000000E+00 0. -1.
          3    1    5    5  503    0 -0.16566290934E+02 -0.14809208728E+02  0.18175993125E+03  0.18311315427E+03  0.00000000000E+00 0. -1.
         -4    1    5    5    0  503  0.78299374425E+01  0.83834055060E+02  0.82066784160E+03  0.82497585598E+03  0.00000000000E+00 0.  1.
         -3    1    6    6    0  502 -0.45043231653E+02 -0.11284877598E+02 -0.84713092458E+02  0.96605120020E+02  0.00000000000E+00 0.  1.
<mgrwt>
<rscale>  0 0.11898466E+04</rscale>
<asrwt>0</asrwt>
<pdfrwt beam="1">  1        1 0.16394206E+00 0.11898466E+04</pdfrwt>
<pdfrwt beam="2">  1       -1 0.51098117E-01 0.11898466E+04</pdfrwt>
<totfact> 0.51333247E+01</totfact>
</mgrwt>
</event>
<event>
12    1  0.1201209E-007  0.2819315E+04  0.7818608E-02  0.8297297E-01
          2   -1    0    0  501    0  0.00000000000E+00  0.00000000000E+00  0.78738044708E+03  0.78738044708E+03  0.00000000000E+00 0. -1.
         -2   -1    0    0    0  501 -0.00000000000E+00 -0.00000000000E+00 -0.25237290098E+04  0.25237290098E+04  0.00000000000E+00 0.  1.
         23    2    1    2    0    0  0.36472973474E+02  0.50078521158E+03 -0.21397119864E+04  0.21993607726E+04  0.81879896130E+02 0.  0.
        254    2    1    2    0    0 -0.36472973474E+02 -0.50078521158E+03  0.40336342363E+03  0.11117486843E+04  0.90618264144E+03 0.  0.
        -24    2    4    4    0    0 -0.22236850667E+03 -0.69985993318E+03  0.37080708596E+03  0.82641311411E+03  0.78797597288E+02 0.  0.
         24    2    4    4    0    0  0.18589553320E+03  0.19907472160E+03  0.32556337671E+02  0.28533557022E+03  0.78540298355E+02 0.  0.
         11    1    3    3    0    0  0.18093076561E+02  0.79527997805E+02 -0.48263277893E+03  0.48947570026E+03  0.00000000000E+00 0. -1.
        -11    1    3    3    0    0  0.18379896913E+02  0.42125721378E+03 -0.16570792075E+04  0.17098850723E+04  0.00000000000E+00 0.  1.
          4    1    6    6  502    0  0.10218074166E+03  0.12360718494E+03 -0.18809822321E+02  0.16147275172E+03  0.00000000000E+00 0. -1.
          3    1    5    5  503    0 -0.11353312707E+03 -0.26836832771E+03  0.17778462006E+03  0.34134835783E+03  0.00000000000E+00 0. -1.
         -4    1    5    5    0  503 -0.10883537960E+03 -0.43149160547E+03  0.19302246590E+03  0.48506475628E+03  0.00000000000E+00 0.  1.
         -1    1    6    6    0  502  0.83714791542E+02  0.75467536664E+02  0.51366159993E+02  0.12386281849E+03  0.00000000000E+00 0.  1.
<mgrwt>
<rscale>  0 0.28193154E+04</rscale>
<asrwt>0</asrwt>
<pdfrwt beam="1">  1        2 0.12113545E+00 0.28193154E+04</pdfrwt>
<pdfrwt beam="2">  1       -2 0.38826600E+00 0.28193154E+04</pdfrwt>
<totfact> 0.27046282E-01</totfact>
</mgrwt>
</event>
<event>
12    1  0.1201209E-007  0.1279457E+04  0.7818608E-02  0.9046017E-01
          2   -1    0    0  501    0  0.00000000000E+00  0.00000000000E+00  0.25916363902E+04  0.25916363902E+04  0.00000000000E+00 0. -1.
         -2   -1    0    0    0  501 -0.00000000000E+00 -0.00000000000E+00 -0.15791270241E+03  0.15791270241E+03  0.00000000000E+00 0.  1.
         23    2    1    2    0    0 -0.27378297677E+03  0.47914929930E+02  0.35621510758E+03  0.46081365308E+03  0.90592831487E+02 0.  0.
        254    2    1    2    0    0  0.27378297677E+03 -0.47914929930E+02  0.20775085802E+04  0.22887354395E+04  0.91924700294E+03 0.  0.
        -24    2    4    4    0    0  0.26676368737E+02  0.17229869439E+03  0.81185070389E+01  0.19148994920E+03  0.78765612726E+02 0.  0.
         24    2    4    4    0    0  0.24710660803E+03 -0.22021362432E+03  0.20693900731E+04  0.20972454903E+04  0.80670042152E+02 0.  0.
         11    1    3    3    0    0 -0.71762680250E+02  0.43822726921E+02  0.15089814141E+03  0.17274421192E+03  0.00000000000E+00 0. -1.
        -11    1    3    3    0    0 -0.20202029652E+03  0.40922030092E+01  0.20531696617E+03  0.28806944116E+03  0.00000000000E+00 0.  1.
          2    1    6    6  502    0  0.17014084804E+03 -0.14800485729E+03  0.11569579252E+04  0.11787302434E+04  0.00000000000E+00 0. -1.
          3    1    5    5  503    0  0.24391226303E+02  0.16343710024E+03  0.29839637056E+02  0.16791968793E+03  0.00000000000E+00 0. -1.
         -4    1    5    5    0  503  0.22851424334E+01  0.88615941529E+01 -0.21721130017E+02  0.23570261264E+02  0.00000000000E+00 0.  1.
         -1    1    6    6    0  502  0.76965759998E+02 -0.72208767036E+02  0.91243214794E+03  0.91851524693E+03  0.00000000000E+00 0.  1.
<mgrwt>
<rscale>  0 0.12794566E+04</rscale>
<asrwt>0</asrwt>
<pdfrwt beam="1">  1        2 0.39871326E+00 0.12794566E+04</pdfrwt>
<pdfrwt beam="2">  1       -2 0.24294264E-01 0.12794566E+04</pdfrwt>
<totfact> 0.45928395E+01</totfact>
</mgrwt>
</event>
<event>
12    1  0.1201209E-007  0.2821716E+04  0.7818608E-02  0.8296558E-01
         -1   -1    0    0    0  501 -0.00000000000E+00  0.00000000000E+00  0.54414301609E+03  0.54414301609E+03  0.00000000000E+00 0. -1.
          1   -1    0    0  501    0  0.00000000000E+00 -0.00000000000E+00 -0.36580824868E+04  0.36580824868E+04  0.00000000000E+00 0.  1.
         23    2    1    2    0    0 -0.10018780245E+03 -0.11636328356E+04 -0.68661604562E+03  0.13578529348E+04  0.90796621915E+02 0.  0.
        254    2    1    2    0    0  0.10018780245E+03  0.11636328356E+04 -0.24273234251E+04  0.28443725681E+04  0.91349730381E+03 0.  0.
        -24    2    4    4    0    0 -0.32418748116E+03  0.93338141917E+03 -0.16950155105E+04  0.19635928139E+04  0.79503216276E+02 0.  0.
         24    2    4    4    0    0  0.42437528361E+03  0.23025141648E+03 -0.73230791459E+03  0.88077975417E+03  0.79924948867E+02 0.  0.
         13    1    3    3    0    0 -0.46146191961E+02 -0.92367216744E+03 -0.56080774683E+03  0.10815752738E+04  0.00000000000E+00 0. -1.
        -13    1    3    3    0    0 -0.54041610485E+02 -0.23996066820E+03 -0.12580829878E+03  0.27627766104E+03  0.00000000000E+00 0.  1.
          2    1    6    6  502    0  0.88915312501E+01  0.11706276072E+02 -0.58217481888E+01  0.15811039796E+02  0.00000000000E+00 0. -1.
          3    1    5    5  503    0 -0.20386076625E+03  0.65748013058E+03 -0.12341724662E+04  0.14131599380E+04  0.00000000000E+00 0. -1.
         -4    1    5    5    0  503 -0.12032671491E+03  0.27590128859E+03 -0.46084304428E+03  0.55043287586E+03  0.00000000000E+00 0.  1.
         -1    1    6    6    0  502  0.41548375236E+03  0.21854514040E+03 -0.72648616640E+03  0.86496871437E+03  0.00000000000E+00 0.  1.
<mgrwt>
<rscale>  0 0.28217158E+04</rscale>
<asrwt>0</asrwt>
<pdfrwt beam="1">  1        1 0.56278194E+00 0.28217158E+04</pdfrwt>
<pdfrwt beam="2">  1       -1 0.83714308E-01 0.28217158E+04</pdfrwt>
<totfact> 0.22822767E-01</totfact>
</mgrwt>
</event>
<event>
12    1  0.1201209E-007  0.2222708E+04  0.7818608E-02  0.8509036E-01
         -2   -1    0    0    0  501 -0.00000000000E+00  0.00000000000E+00  0.13499848362E+04  0.13499848362E+04  0.00000000000E+00 0. -1.
          2   -1    0    0  501    0  0.00000000000E+00 -0.00000000000E+00 -0.91490491089E+03  0.91490491089E+03  0.00000000000E+00 0.  1.
         23    2    1    2    0    0 -0.82033602236E+03  0.33521840101E+02  0.64687616531E+03  0.10492577062E+04  0.91749972201E+02 0.  0.
        254    2    1    2    0    0  0.82033602236E+03 -0.33521840101E+02 -0.21179624001E+03  0.12156320409E+04  0.87110774778E+03 0.  0.
        -24    2    4    4    0    0  0.85389744668E+03  0.25591759408E+03 -0.15737328834E+03  0.90880500329E+03  0.80780676676E+02 0.  0.
         24    2    4    4    0    0 -0.33561424319E+02 -0.28943943418E+03 -0.54422951669E+02  0.30682703761E+03  0.79242779347E+02 0.  0.
         11    1    3    3    0    0 -0.26296613874E+03  0.40953964010E+02  0.24849116815E+03  0.36411025520E+03  0.00000000000E+00 0.  1.
        -11    1    3    3    0    0 -0.55736988362E+03 -0.74321239092E+01  0.39838499716E+03  0.68514745099E+03  0.00000000000E+00 0. -1.
          4    1    6    6  502    0  0.81392020019E+01 -0.22194790003E+03 -0.48058004993E+02  0.22723707616E+03  0.00000000000E+00 0. -1.
          3    1    5    5  503    0  0.47127767742E+02  0.12705057956E+02 -0.28079287128E+02  0.56310668222E+02  0.00000000000E+00 0. -1.
         -4    1    5    5    0  503  0.80676967894E+03  0.24321253612E+03 -0.12929400121E+03  0.85249433507E+03  0.00000000000E+00 0.  1.
         -3    1    6    6    0  502 -0.41700626321E+02 -0.67491534146E+02 -0.63649466763E+01  0.79589961447E+02  0.00000000000E+00 0.  1.
<mgrwt>
<rscale>  0 0.22227080E+04</rscale>
<asrwt>0</asrwt>
<pdfrwt beam="1">  1        2 0.14075460E+00 0.22227080E+04</pdfrwt>
<pdfrwt beam="2">  1       -2 0.20768998E+00 0.22227080E+04</pdfrwt>
<totfact> 0.30965886E+00</totfact>
</mgrwt>
</event>
<event>
12    1  0.1201209E-007  0.1422781E+04  0.7818608E-02  0.8937492E-01
          1   -1    0    0  501    0  0.00000000000E+00  0.00000000000E+00  0.68973368730E+03  0.68973368730E+03  0.00000000000E+00 0. -1.
         -1   -1    0    0    0  501 -0.00000000000E+00 -0.00000000000E+00 -0.73372685393E+03  0.73372685393E+03  0.00000000000E+00 0.  1.
         23    2    1    2    0    0 -0.35497175254E+03  0.16893068802E+03 -0.16613654142E+03  0.43635149605E+03  0.90877693927E+02 0.  0.
        254    2    1    2    0    0  0.35497175254E+03 -0.16893068802E+03  0.12214337479E+03  0.98710904519E+03  0.89717486625E+03 0.  0.
        -24    2    4    4    0    0  0.45044030184E+03 -0.12533852893E+03  0.43762533595E+03  0.64524449796E+03  0.78856294098E+02 0.  0.
         24    2    4    4    0    0 -0.95468549307E+02 -0.43592159091E+02 -0.31548196116E+03  0.34186454723E+03  0.79548605223E+02 0.  0.
         13    1    3    3    0    0 -0.14096364066E+03  0.58739637938E+02 -0.11266120668E+03  0.18977260219E+03  0.00000000000E+00 0.  1.
        -13    1    3    3    0    0 -0.21400811188E+03  0.11019105009E+03 -0.53475334737E+02  0.24657889385E+03  0.00000000000E+00 0. -1.
          4    1    6    6  502    0  0.69459536519E+01 -0.44684100276E+01 -0.41660082334E+00  0.82696140511E+01  0.00000000000E+00 0. -1.
          3    1    5    5  503    0  0.15124526400E+03 -0.45698514962E+01  0.14835504507E+03  0.21190854825E+03  0.00000000000E+00 0. -1.
         -4    1    5    5    0  503  0.29919503784E+03 -0.12076867744E+03  0.28927029089E+03  0.43333594971E+03  0.00000000000E+00 0.  1.
         -3    1    6    6    0  502 -0.10241450296E+03 -0.39123749064E+02 -0.31506536034E+03  0.33359493318E+03  0.00000000000E+00 0.  1.
<mgrwt>
<rscale>  0 0.14227806E+04</rscale>
<asrwt>0</asrwt>
<pdfrwt beam="1">  1        1 0.10611288E+00 0.14227806E+04</pdfrwt>
<pdfrwt beam="2">  1       -1 0.11288105E+00 0.14227806E+04</pdfrwt>
<totfact> 0.19470513E+01</totfact>
</mgrwt>
</event>
<event>
12    1  0.1201209E-007  0.1149473E+04  0.7818608E-02  0.9158270E-01
          2   -1    0    0  501    0  0.00000000000E+00  0.00000000000E+00  0.14507131303E+03  0.14507131303E+03  0.00000000000E+00 0.  1.
         -2   -1    0    0    0  501 -0.00000000000E+00 -0.00000000000E+00 -0.22769638395E+04  0.22769638395E+04  0.00000000000E+00 0. -1.
         23    2    1    2    0    0  0.54600156044E+02 -0.10866026916E+03 -0.77663634030E+03  0.79020160438E+03  0.80413552112E+02 0.  0.
        254    2    1    2    0    0 -0.54600156044E+02  0.10866026916E+03 -0.13552561862E+04  0.16318335482E+04  0.90076254784E+03 0.  0.
        -24    2    4    4    0    0  0.28872126490E+03 -0.23494914308E+03 -0.37359546914E+03  0.53348296239E+03  0.80432754267E+02 0.  0.
         24    2    4    4    0    0 -0.34332142095E+03  0.34360941225E+03 -0.98166071703E+03  0.10983505858E+04  0.82336016508E+02 0.  0.
         11    1    3    3    0    0  0.36151184229E+02 -0.18067798675E+02 -0.11008503458E+03  0.11726921296E+03  0.00000000000E+00 0.  1.
        -11    1    3    3    0    0  0.18448971815E+02 -0.90592470487E+02 -0.66655130572E+03  0.67293239142E+03  0.00000000000E+00 0. -1.
          2    1    6    6  502    0 -0.30637057505E+03  0.33328133517E+03 -0.92616364673E+03  0.10308823784E+04  0.00000000000E+00 0. -1.
          3    1    5    5  503    0  0.25611914834E+03 -0.23590446184E+03 -0.34242096056E+03  0.48836466651E+03  0.00000000000E+00 0. -1.
         -4    1    5    5    0  503  0.32602116561E+02  0.95531875894E+00 -0.31174508579E+02  0.45118295882E+02  0.00000000000E+00 0.  1.
         -1    1    6    6    0  502 -0.36950845900E+02  0.10328077076E+02 -0.55497070299E+02  0.67468207332E+02  0.00000000000E+00 0.  1.
<mgrwt>
<rscale>  0 0.11494732E+04</rscale>
<asrwt>0</asrwt>
<pdfrwt beam="1">  1        2 0.22318662E-01 0.11494732E+04</pdfrwt>
<pdfrwt beam="2">  1       -2 0.35030215E+00 0.11494732E+04</pdfrwt>
<totfact> 0.39006021E+00</totfact>
</mgrwt>
</event>
<event>
12    1  0.1201209E-007  0.1587380E+04  0.7818608E-02  0.8828339E-01
         -1   -1    0    0    0  501 -0.00000000000E+00  0.00000000000E+00  0.24259687603E+03  0.24259687603E+03  0.00000000000E+00 0.  1.
          1   -1    0    0  501    0  0.00000000000E+00 -0.00000000000E+00 -0.25966686055E+04  0.25966686055E+04  0.00000000000E+00 0. -1.
         23    2    1    2    0    0  0.42766881547E+03  0.53350058628E+01 -0.23475409552E+03  0.49630520610E+03  0.90996122014E+02 0.  0.
        254    2    1    2    0    0 -0.42766881547E+03 -0.53350058628E+01 -0.21193176339E+04  0.23429602754E+04  0.90278820365E+03 0.  0.
        -24    2    4    4    0    0  0.86516782301E+02  0.27163315859E+03 -0.13022912815E+04  0.13355941762E+04  0.81114087493E+02 0.  0.
         24    2    4    4    0    0 -0.51418559777E+03 -0.27696816445E+03 -0.81702635239E+03  0.10073660992E+04  0.78461482042E+02 0.  0.
         11    1    3    3    0    0  0.18543447530E+03  0.22460330305E+02 -0.56772674885E+02  0.19522691331E+03  0.00000000000E+00 0. -1.
        -11    1    3    3    0    0  0.24223434017E+03 -0.17125324442E+02 -0.17798142064E+03  0.30107829279E+03  0.00000000000E+00 0.  1.
          4    1    6    6  502    0 -0.12157706553E+03 -0.50514892257E+02 -0.23868619430E+03  0.27258730079E+03  0.00000000000E+00 0. -1.
          1    1    5    5  503    0  0.24314253448E+02  0.18295316810E+02 -0.23121991653E+03  0.23321353163E+03  0.00000000000E+00 0. -1.
         -2    1    5    5    0  503  0.62202528853E+02  0.25333784178E+03 -0.10710713650E+04  0.11023806446E+04  0.00000000000E+00 0.  1.
         -3    1    6    6    0  502 -0.39260853224E+03 -0.22645327220E+03 -0.57834015809E+03  0.73477879837E+03  0.00000000000E+00 0.  1.
<mgrwt>
<rscale>  0 0.15873798E+04</rscale>
<asrwt>0</asrwt>
<pdfrwt beam="1">  1        1 0.39948746E+00 0.15873798E+04</pdfrwt>
<pdfrwt beam="2">  1       -1 0.37322598E-01 0.15873798E+04</pdfrwt>
<totfact> 0.77200178E+00</totfact>
</mgrwt>
</event>
<event>
12    1  0.1201209E-007  0.1338008E+04  0.7818608E-02  0.8999956E-01
          2   -1    0    0  501    0  0.00000000000E+00  0.00000000000E+00  0.88739848885E+03  0.88739848885E+03  0.00000000000E+00 0.  1.
         -2   -1    0    0    0  501 -0.00000000000E+00 -0.00000000000E+00 -0.50435799182E+03  0.50435799182E+03  0.00000000000E+00 0. -1.
         23    2    1    2    0    0 -0.19473805741E+03 -0.12651136360E+03 -0.17877434104E+03  0.30641761116E+03  0.89462010316E+02 0.  0.
        254    2    1    2    0    0  0.19473805741E+03  0.12651136360E+03  0.56181483806E+03  0.10853388695E+04  0.89910873274E+03 0.  0.
        -24    2    4    4    0    0  0.17314421232E+03  0.28715230730E+03 -0.13201859081E+03  0.36848330229E+03  0.76913392184E+02 0.  0.
         24    2    4    4    0    0  0.21593845085E+02 -0.16064094370E+03  0.69383342888E+03  0.71685556722E+03  0.78773538054E+02 0.  0.
         13    1    3    3    0    0 -0.31786508619E+02 -0.68867952034E+02 -0.59691770402E+02  0.96520901370E+02  0.00000000000E+00 0.  1.
        -13    1    3    3    0    0 -0.16295154879E+03 -0.57643411568E+02 -0.11908257064E+03  0.20989670979E+03  0.00000000000E+00 0. -1.
          4    1    6    6  502    0  0.44105843938E+02 -0.11668563911E+03  0.57098305722E+03  0.58445060995E+03  0.00000000000E+00 0. -1.
          1    1    5    5  503    0  0.34732078718E+02  0.12508887086E+03 -0.35953533123E+02  0.13470782995E+03  0.00000000000E+00 0. -1.
         -2    1    5    5    0  503  0.13841213361E+03  0.16206343644E+03 -0.96065057689E+02  0.23377547235E+03  0.00000000000E+00 0.  1.
         -3    1    6    6    0  502 -0.22511998853E+02 -0.43955304587E+02  0.12285037166E+03  0.13240495727E+03  0.00000000000E+00 0.  1.
<mgrwt>
<rscale>  0 0.13380083E+04</rscale>
<asrwt>0</asrwt>
<pdfrwt beam="1">  1        2 0.13652284E+00 0.13380083E+04</pdfrwt>
<pdfrwt beam="2">  1       -2 0.77593537E-01 0.13380083E+04</pdfrwt>
<totfact> 0.43294583E+01</totfact>
</mgrwt>
</event>
<event>
12    1  0.1201209E-007  0.1703897E+04  0.7818608E-02  0.8759145E-01
         -2   -1    0    0    0  501 -0.00000000000E+00  0.00000000000E+00  0.26839557200E+03  0.26839557200E+03  0.00000000000E+00 0.  1.
          2   -1    0    0  501    0  0.00000000000E+00 -0.00000000000E+00 -0.27042782100E+04  0.27042782100E+04  0.00000000000E+00 0. -1.
         23    2    1    2    0    0 -0.31301346167E+03 -0.27418772379E+03 -0.77626365584E+02  0.43212563539E+03  0.86892905694E+02 0.  0.
        254    2    1    2    0    0  0.31301346167E+03  0.27418772379E+03 -0.23582562724E+04  0.25405481466E+04  0.84844322366E+03 0.  0.
        -24    2    4    4    0    0  0.84651948279E+02  0.41947562986E+03 -0.50851456621E+03  0.66937906952E+03  0.79721504386E+02 0.  0.
         24    2    4    4    0    0  0.22836151339E+03 -0.14528790607E+03 -0.18497417062E+04  0.18711690771E+04  0.80447367492E+02 0.  0.
         13    1    3    3    0    0 -0.58413900638E+02 -0.94112868478E+02 -0.16908530329E-01  0.11076739632E+03  0.00000000000E+00 0. -1.
        -13    1    3    3    0    0 -0.25459956103E+03 -0.18007485531E+03 -0.77609457054E+02  0.32135823907E+03  0.00000000000E+00 0.  1.
          2    1    6    6  502    0  0.14828284711E+03 -0.53852449561E+02 -0.90596343327E+03  0.91959645035E+03  0.00000000000E+00 0. -1.
          1    1    5    5  503    0 -0.85585607538E+01  0.25091891312E+02 -0.55811119536E+02  0.61787806529E+02  0.00000000000E+00 0. -1.
         -2    1    5    5    0  503  0.93210509033E+02  0.39438373855E+03 -0.45270344668E+03  0.60759126299E+03  0.00000000000E+00 0.  1.
         -1    1    6    6    0  502  0.80078666281E+02 -0.91435456507E+02 -0.94377827296E+03  0.95157262676E+03  0.00000000000E+00 0.  1.
<mgrwt>
<rscale>  0 0.17038971E+04</rscale>
<asrwt>0</asrwt>
<pdfrwt beam="1">  1        2 0.41604281E+00 0.17038971E+04</pdfrwt>
<pdfrwt beam="2">  1       -2 0.41291625E-01 0.17038971E+04</pdfrwt>
<totfact> 0.13990605E+01</totfact>
</mgrwt>
</event>
<event>
12    1  0.1201209E-007  0.2283155E+04  0.7818608E-02  0.8484593E-01
          1   -1    0    0  501    0  0.00000000000E+00  0.00000000000E+00  0.35272919490E+04  0.35272919490E+04  0.00000000000E+00 0. -1.
         -1   -1    0    0    0  501 -0.00000000000E+00 -0.00000000000E+00 -0.36946155145E+03  0.36946155145E+03  0.00000000000E+00 0.  1.
         23    2    1    2    0    0 -0.18573405484E+02  0.53950353437E+03 -0.14956686719E+02  0.54740157182E+03  0.89530683932E+02 0.  0.
        254    2    1    2    0    0  0.18573405484E+02 -0.53950353437E+03  0.31727870842E+04  0.33493519286E+04  0.92745427097E+03 0.  0.
        -24    2    4    4    0    0  0.14185852033E+03 -0.47436364015E+03  0.31465031654E+04  0.31862737576E+04  0.81936473224E+02 0.  0.
         24    2    4    4    0    0 -0.12328511484E+03 -0.65139894219E+02  0.26283918799E+02  0.16307817096E+03  0.80381714931E+02 0.  0.
         11    1    3    3    0    0 -0.25772997029E+02  0.97002403652E+02  0.23790433628E+02  0.10314891382E+03  0.00000000000E+00 0.  1.
        -11    1    3    3    0    0  0.71995915455E+01  0.44250113071E+03 -0.38747120347E+02  0.44425265800E+03  0.00000000000E+00 0. -1.
          2    1    6    6  502    0 -0.96548188684E+02 -0.79591854487E+02  0.37590872642E+02  0.13065025735E+03  0.00000000000E+00 0. -1.
          1    1    5    5  503    0  0.73183258063E+02 -0.20743394292E+03  0.16503947100E+04  0.16649886872E+04  0.00000000000E+00 0. -1.
         -2    1    5    5    0  503  0.68675262266E+02 -0.26692969723E+03  0.14961084555E+04  0.15212850704E+04  0.00000000000E+00 0.  1.
         -1    1    6    6    0  502 -0.26736926160E+02  0.14451960268E+02 -0.11306953843E+02  0.32427913613E+02  0.00000000000E+00 0.  1.
<mgrwt>
<rscale>  0 0.22831546E+04</rscale>
<asrwt>0</asrwt>
<pdfrwt beam="1">  1        1 0.54266028E+00 0.22831546E+04</pdfrwt>
<pdfrwt beam="2">  1       -1 0.56840241E-01 0.22831546E+04</pdfrwt>
<totfact> 0.67594010E-01</totfact>
</mgrwt>
</event>
<event>
12    1  0.1201209E-007  0.1994481E+04  0.7818608E-02  0.8609205E-01
         -1   -1    0    0    0  501 -0.00000000000E+00  0.00000000000E+00  0.40426234515E+03  0.40426234515E+03  0.00000000000E+00 0.  1.
          1   -1    0    0  501    0  0.00000000000E+00 -0.00000000000E+00 -0.24600091425E+04  0.24600091425E+04  0.00000000000E+00 0. -1.
         23    2    1    2    0    0 -0.33808655004E+03 -0.35897485525E+03  0.67399784070E+02  0.50626864046E+03  0.92734801417E+02 0.  0.
        254    2    1    2    0    0  0.33808655004E+03  0.35897485525E+03 -0.21231465814E+04  0.23580028472E+04  0.89958910573E+03 0.  0.
        -24    2    4    4    0    0  0.56813372431E+03 -0.47423740654E+01 -0.13960682836E+04  0.15094343542E+04  0.81160326070E+02 0.  0.
         24    2    4    4    0    0 -0.23004717427E+03  0.36371722932E+03 -0.72707829782E+03  0.84856849294E+03  0.78827093996E+02 0.  0.
         11    1    3    3    0    0 -0.62330575035E+02 -0.10855047437E+03 -0.10847884077E+02  0.12564228054E+03  0.00000000000E+00 0. -1.
        -11    1    3    3    0    0 -0.27575597501E+03 -0.25042438088E+03  0.78247668147E+02  0.38062635992E+03  0.00000000000E+00 0.  1.
          4    1    6    6  502    0 -0.15471889191E+03  0.27341662130E+03 -0.46334984116E+03  0.55981037827E+03  0.00000000000E+00 0. -1.
          1    1    5    5  503    0  0.26134231444E+02  0.47629022449E+01 -0.12165749176E+03  0.12452400810E+03  0.00000000000E+00 0. -1.
         -2    1    5    5    0  503  0.54199949287E+03 -0.95052763104E+01 -0.12744107918E+04  0.13849103461E+04  0.00000000000E+00 0.  1.
         -3    1    6    6    0  502 -0.75328282358E+02  0.90300608019E+02 -0.26372845666E+03  0.28875811467E+03  0.00000000000E+00 0.  1.
<mgrwt>
<rscale>  0 0.19944815E+04</rscale>
<asrwt>0</asrwt>
<pdfrwt beam="1">  1        1 0.37846295E+00 0.19944815E+04</pdfrwt>
<pdfrwt beam="2">  1       -1 0.62194207E-01 0.19944815E+04</pdfrwt>
<totfact> 0.35157408E+00</totfact>
</mgrwt>
</event>
<event>
12    1  0.1201209E-007  0.1705559E+04  0.7818608E-02  0.8758200E-01
          1   -1    0    0  501    0  0.00000000000E+00  0.00000000000E+00  0.77061088122E+03  0.77061088122E+03  0.00000000000E+00 0. -1.
         -1   -1    0    0    0  501 -0.00000000000E+00 -0.00000000000E+00 -0.94370984441E+03  0.94370984441E+03  0.00000000000E+00 0.  1.
         23    2    1    2    0    0  0.81329208230E+02  0.21052587864E+03 -0.63537992237E+03  0.68084974098E+03  0.94409418807E+02 0.  0.
        254    2    1    2    0    0 -0.81329208230E+02 -0.21052587864E+03  0.46228095918E+03  0.10334709846E+04  0.89633866657E+03 0.  0.
        -24    2    4    4    0    0 -0.16033399329E+03 -0.53799743187E+03  0.36282580503E+03  0.67326586910E+03  0.80598632705E+02 0.  0.
         24    2    4    4    0    0  0.79004785057E+02  0.32747155323E+03  0.99455154145E+02  0.36020511554E+03  0.79856266744E+02 0.  0.
         13    1    3    3    0    0  0.87816271919E+02  0.21339880790E+03 -0.56783727252E+03  0.61293549162E+03  0.00000000000E+00 0.  1.
        -13    1    3    3    0    0 -0.64870636891E+01 -0.28729292574E+01 -0.67542649854E+02  0.67914249367E+02  0.00000000000E+00 0. -1.
          2    1    6    6  502    0  0.40709161738E+02  0.11418111305E+03 -0.12953821144E+01  0.12122805138E+03  0.00000000000E+00 0. -1.
          1    1    5    5  503    0 -0.16021674149E+02 -0.48403038315E+02  0.63924078675E+02  0.81766961514E+02  0.00000000000E+00 0. -1.
         -4    1    5    5    0  503 -0.14431231914E+03 -0.48959439355E+03  0.29890172636E+03  0.59149890759E+03  0.00000000000E+00 0.  1.
         -1    1    6    6    0  502  0.38295623319E+02  0.21329044018E+03  0.10075053626E+03  0.23897706416E+03  0.00000000000E+00 0.  1.
<mgrwt>
<rscale>  0 0.17055592E+04</rscale>
<asrwt>0</asrwt>
<pdfrwt beam="1">  1        1 0.11855552E+00 0.17055592E+04</pdfrwt>
<pdfrwt beam="2">  1       -1 0.14518613E+00 0.17055592E+04</pdfrwt>
<totfact> 0.85015411E+00</totfact>
</mgrwt>
</event>
<event>
12    1  0.1201209E-007  0.2514749E+04  0.7818608E-02  0.8397750E-01
          1   -1    0    0  501    0  0.00000000000E+00  0.00000000000E+00  0.89097149280E+03  0.89097149280E+03  0.00000000000E+00 0. -1.
         -1   -1    0    0    0  501 -0.00000000000E+00 -0.00000000000E+00 -0.17744577242E+04  0.17744577242E+04  0.00000000000E+00 0.  1.
         23    2    1    2    0    0  0.16805298013E+03  0.92658777601E+03  0.20733514362E+03  0.96892415873E+03  0.94970799728E+02 0.  0.
        254    2    1    2    0    0 -0.16805298013E+03 -0.92658777601E+03 -0.10908213750E+04  0.16965050583E+04  0.89522702691E+03 0.  0.
        -24    2    4    4    0    0  0.30633126738E+03 -0.47432727962E+03 -0.77753585436E+03  0.96473580847E+03  0.85603514952E+02 0.  0.
         24    2    4    4    0    0 -0.47438424751E+03 -0.45226049640E+03 -0.31328552067E+03  0.73176924979E+03  0.88082044694E+02 0.  0.
         11    1    3    3    0    0  0.15593361574E+03  0.85927136703E+03  0.21695812983E+03  0.89985187937E+03  0.00000000000E+00 0.  1.
        -11    1    3    3    0    0  0.12119364389E+02  0.67316408985E+02 -0.96229862084E+01  0.69072279355E+02  0.00000000000E+00 0. -1.
          2    1    6    6  502    0 -0.27551770437E+02 -0.34942541561E+01 -0.17380725424E+02  0.32762775869E+02  0.00000000000E+00 0. -1.
          1    1    5    5  503    0  0.69659419430E+02 -0.17672295800E+03 -0.23388072373E+03  0.30130322190E+03  0.00000000000E+00 0. -1.
         -2    1    5    5    0  503  0.23667184795E+03 -0.29760432162E+03 -0.54365513063E+03  0.66343258657E+03  0.00000000000E+00 0.  1.
         -1    1    6    6    0  502 -0.44683247707E+03 -0.44876624224E+03 -0.29590479524E+03  0.69900647392E+03  0.00000000000E+00 0.  1.
<mgrwt>
<rscale>  0 0.25147495E+04</rscale>
<asrwt>0</asrwt>
<pdfrwt beam="1">  1        1 0.13707254E+00 0.25147495E+04</pdfrwt>
<pdfrwt beam="2">  1       -1 0.27299349E+00 0.25147495E+04</pdfrwt>
<totfact> 0.81150606E-01</totfact>
</mgrwt>
</event>
<event>
12    1  0.1201209E-007  0.2595886E+04  0.7818608E-02  0.8369600E-01
          2   -1    0    0  501    0  0.00000000000E+00  0.00000000000E+00  0.10884505449E+04  0.10884505449E+04  0.00000000000E+00 0. -1.
         -2   -1    0    0    0  501 -0.00000000000E+00 -0.00000000000E+00 -0.15477561241E+04  0.15477561241E+04  0.00000000000E+00 0.  1.
         23    2    1    2    0    0  0.69086131230E+03  0.59288152256E+03  0.49606025924E+03  0.10408625498E+04  0.92310423179E+02 0.  0.
        254    2    1    2    0    0 -0.69086131230E+03 -0.59288152256E+03 -0.95536583840E+03  0.15953441192E+04  0.89643801840E+03 0.  0.
        -24    2    4    4    0    0 -0.18499078314E+03 -0.65165942977E+03 -0.81126819580E+03  0.10599640791E+04  0.80536707558E+02 0.  0.
         24    2    4    4    0    0 -0.50587052916E+03  0.58777907211E+02 -0.14409764260E+03  0.53538004007E+03  0.80671073200E+02 0.  0.
         11    1    3    3    0    0  0.62337156053E+03  0.55385195878E+03  0.47677081187E+03  0.96054906266E+03  0.00000000000E+00 0.  1.
        -11    1    3    3    0    0  0.67489751768E+02  0.39029563778E+02  0.19289447370E+02  0.80313487175E+02  0.00000000000E+00 0. -1.
          2    1    6    6  502    0 -0.24230945369E+03  0.24995047285E+02 -0.27280105828E+02  0.24511798773E+03  0.00000000000E+00 0. -1.
          3    1    5    5  503    0 -0.14321499181E+03 -0.41671532126E+03 -0.57195406252E+03  0.72200667760E+03  0.00000000000E+00 0. -1.
         -4    1    5    5    0  503 -0.41775791329E+02 -0.23494410850E+03 -0.23931413327E+03  0.33795740153E+03  0.00000000000E+00 0.  1.
         -1    1    6    6    0  502 -0.26356107547E+03  0.33782859926E+02 -0.11681753678E+03  0.29026205233E+03  0.00000000000E+00 0.  1.
<mgrwt>
<rscale>  0 0.25958860E+04</rscale>
<asrwt>0</asrwt>
<pdfrwt beam="1">  1        2 0.16745393E+00 0.25958860E+04</pdfrwt>
<pdfrwt beam="2">  1       -2 0.23811633E+00 0.25958860E+04</pdfrwt>
<totfact> 0.14911701E+00</totfact>
</mgrwt>
</event>
<event>
12    1  0.1201209E-007  0.1277367E+04  0.7818608E-02  0.9047708E-01
         -2   -1    0    0    0  501 -0.00000000000E+00  0.00000000000E+00  0.15759141954E+03  0.15759141954E+03  0.00000000000E+00 0.  1.
          2   -1    0    0  501    0  0.00000000000E+00 -0.00000000000E+00 -0.25884461109E+04  0.25884461109E+04  0.00000000000E+00 0. -1.
         23    2    1    2    0    0 -0.18318073970E+03  0.14578357734E+03 -0.10129933422E+04  0.10436678476E+04  0.90989174431E+02 0.  0.
        254    2    1    2    0    0  0.18318073970E+03 -0.14578357734E+03 -0.14178613492E+04  0.17023696829E+04  0.91264653450E+03 0.  0.
        -24    2    4    4    0    0 -0.32592226232E+03  0.56600690100E+01 -0.25543277611E+03  0.42184615654E+03  0.80317614614E+02 0.  0.
         24    2    4    4    0    0  0.50910300202E+03 -0.15144364635E+03 -0.11624285731E+04  0.12805235264E+04  0.79870328603E+02 0.  0.
         11    1    3    3    0    0 -0.19188794976E+03  0.13025190838E+03 -0.96501257295E+03  0.99248970315E+03  0.00000000000E+00 0. -1.
        -11    1    3    3    0    0  0.87072100570E+01  0.15531668959E+02 -0.47980769275E+02  0.51178144436E+02  0.00000000000E+00 0.  1.
          2    1    6    6  502    0  0.22979822583E+03 -0.65275316501E+02 -0.42959081002E+03  0.49154486631E+03  0.00000000000E+00 0. -1.
          3    1    5    5  503    0 -0.14817932780E+02 -0.16166231638E+02 -0.29408313814E+02  0.36684698426E+02  0.00000000000E+00 0. -1.
         -4    1    5    5    0  503 -0.31110432954E+03  0.21826300648E+02 -0.22602446229E+03  0.38516145811E+03  0.00000000000E+00 0.  1.
         -1    1    6    6    0  502  0.27930477620E+03 -0.86168329849E+02 -0.73283776304E+03  0.78897866004E+03  0.00000000000E+00 0.  1.
<mgrwt>
<rscale>  0 0.12773674E+04</rscale>
<asrwt>0</asrwt>
<pdfrwt beam="1">  1        2 0.39822244E+00 0.12773674E+04</pdfrwt>
<pdfrwt beam="2">  1       -2 0.24244836E-01 0.12773674E+04</pdfrwt>
<totfact> 0.46303288E+01</totfact>
</mgrwt>
</event>
<event>
12    1  0.1201209E-007  0.1991165E+04  0.7818608E-02  0.8610763E-01
          1   -1    0    0  501    0  0.00000000000E+00  0.00000000000E+00  0.16976244873E+04  0.16976244873E+04  0.00000000000E+00 0. -1.
         -1   -1    0    0    0  501 -0.00000000000E+00 -0.00000000000E+00 -0.58386541872E+03  0.58386541872E+03  0.00000000000E+00 0.  1.
         23    2    1    2    0    0 -0.53342291674E+03 -0.58682870321E+03  0.45487021115E+03  0.91902322576E+03  0.93748842500E+02 0.  0.
        254    2    1    2    0    0  0.53342291674E+03  0.58682870321E+03  0.65888885743E+03  0.13624666803E+04  0.89065874124E+03 0.  0.
        -24    2    4    4    0    0  0.27488560900E+03  0.54902137974E+03  0.83351468111E+03  0.10383228454E+04  0.79881376124E+02 0.  0.
         24    2    4    4    0    0  0.25853730774E+03  0.37807323473E+02 -0.17462582368E+03  0.32414383484E+03  0.79398451912E+02 0.  0.
         13    1    3    3    0    0 -0.10579875665E+03 -0.17220967330E+03  0.97363432610E+02  0.22434167356E+03  0.00000000000E+00 0. -1.
        -13    1    3    3    0    0 -0.42762416009E+03 -0.41461902991E+03  0.35750677854E+03  0.69468155220E+03  0.00000000000E+00 0.  1.
          2    1    6    6  502    0  0.57552904619E+02  0.30361255017E+02 -0.13539824836E+02  0.66464046619E+02  0.00000000000E+00 0. -1.
          1    1    5    5  503    0  0.11560815898E+02  0.63702047416E+02  0.11727354377E+03  0.13395778207E+03  0.00000000000E+00 0. -1.
         -2    1    5    5    0  503  0.26332479310E+03  0.48531933232E+03  0.71624113734E+03  0.90436506335E+03  0.00000000000E+00 0.  1.
         -1    1    6    6    0  502  0.20098440312E+03  0.74460684555E+01 -0.16108599884E+03  0.25767978822E+03  0.00000000000E+00 0.  1.
<mgrwt>
<rscale>  0 0.19911647E+04</rscale>
<asrwt>0</asrwt>
<pdfrwt beam="1">  1        1 0.26117300E+00 0.19911647E+04</pdfrwt>
<pdfrwt beam="2">  1       -1 0.89825450E-01 0.19911647E+04</pdfrwt>
<totfact> 0.53871009E+00</totfact>
</mgrwt>
</event>
<event>
12    1  0.1201209E-007  0.3203974E+04  0.7818608E-02  0.8187768E-01
          1   -1    0    0  501    0  0.00000000000E+00  0.00000000000E+00  0.15845355658E+04  0.15845355658E+04  0.00000000000E+00 0. -1.
         -1   -1    0    0    0  501 -0.00000000000E+00 -0.00000000000E+00 -0.16196305635E+04  0.16196305635E+04  0.00000000000E+00 0.  1.
         23    2    1    2    0    0  0.13490292287E+04 -0.30632961137E+03  0.38309617181E+03  0.14381477559E+04  0.88253047124E+02 0.  0.
        254    2    1    2    0    0 -0.13490292287E+04  0.30632961137E+03 -0.41819116947E+03  0.17660183734E+04  0.10149972169E+04 0.  0.
        -24    2    4    4    0    0 -0.86153753943E+03  0.14611685134E+02 -0.71274443906E+03  0.11211467737E+04  0.80653701118E+02 0.  0.
         24    2    4    4    0    0 -0.48749168924E+03  0.29171792624E+03  0.29455326959E+03  0.64487159972E+03  0.79688493074E+02 0.  0.
         11    1    3    3    0    0  0.18667425632E+03 -0.57408856940E+02  0.82553645881E+02  0.21203339189E+03  0.00000000000E+00 0.  1.
        -11    1    3    3    0    0  0.11623549724E+04 -0.24892075443E+03  0.30054252593E+03  0.12261143640E+04  0.00000000000E+00 0. -1.
          4    1    6    6  502    0 -0.35492516422E+03  0.16998609494E+03  0.19502821590E+03  0.43920741076E+03  0.00000000000E+00 0. -1.
          3    1    5    5  503    0 -0.66794621619E+03  0.38639645958E+02 -0.57684476828E+03  0.88339971511E+03  0.00000000000E+00 0. -1.
         -4    1    5    5    0  503 -0.19359132323E+03 -0.24027960825E+02 -0.13589967078E+03  0.23774705855E+03  0.00000000000E+00 0.  1.
         -3    1    6    6    0  502 -0.13256652502E+03  0.12173183130E+03  0.99525053688E+02  0.20566418896E+03  0.00000000000E+00 0.  1.
<mgrwt>
<rscale>  0 0.32039739E+04</rscale>
<asrwt>0</asrwt>
<pdfrwt beam="1">  1        1 0.24377470E+00 0.32039739E+04</pdfrwt>
<pdfrwt beam="2">  1       -1 0.24917393E+00 0.32039739E+04</pdfrwt>
<totfact> 0.33762591E-01</totfact>
</mgrwt>
</event>
<event>
12    1  0.1201209E-007  0.1658909E+04  0.7818608E-02  0.8785154E-01
          2   -1    0    0  501    0  0.00000000000E+00  0.00000000000E+00  0.19555279971E+04  0.19555279971E+04  0.00000000000E+00 0. -1.
         -2   -1    0    0    0  501 -0.00000000000E+00 -0.00000000000E+00 -0.35182030711E+03  0.35182030711E+03  0.00000000000E+00 0.  1.
         23    2    1    2    0    0 -0.37215845328E+03 -0.16848804037E+03  0.11364613888E+04  0.12110320140E+04  0.90354394202E+02 0.  0.
        254    2    1    2    0    0  0.37215845328E+03  0.16848804037E+03  0.46724630113E+03  0.10963162902E+04  0.90371464971E+03 0.  0.
        -24    2    4    4    0    0  0.47421712442E+03  0.11459350967E+03  0.68044507802E+03  0.84117545959E+03  0.80975897997E+02 0.  0.
         24    2    4    4    0    0 -0.10205867115E+03  0.53894530696E+02 -0.21319877689E+03  0.25514083059E+03  0.79514351975E+02 0.  0.
         11    1    3    3    0    0 -0.99276743788E+02 -0.47197020483E+02  0.43454285801E+03  0.44823088475E+03  0.00000000000E+00 0.  1.
        -11    1    3    3    0    0 -0.27288170949E+03 -0.12129101989E+03  0.70191853080E+03  0.76280112924E+03  0.00000000000E+00 0. -1.
          4    1    6    6  502    0 -0.86682971162E+02  0.54885986758E+01 -0.15675791685E+03  0.17921246246E+03  0.00000000000E+00 0. -1.
          3    1    5    5  503    0  0.41874031608E+03  0.10754692610E+03  0.55252055700E+03  0.70156165768E+03  0.00000000000E+00 0. -1.
         -4    1    5    5    0  503  0.55476808344E+02  0.70465835749E+01  0.12792452102E+03  0.13961380191E+03  0.00000000000E+00 0.  1.
         -3    1    6    6    0  502 -0.15375699985E+02  0.48405932020E+02 -0.56440860038E+02  0.75928368128E+02  0.00000000000E+00 0.  1.
<mgrwt>
<rscale>  0 0.16589086E+04</rscale>
<asrwt>0</asrwt>
<pdfrwt beam="1">  1        2 0.30085046E+00 0.16589086E+04</pdfrwt>
<pdfrwt beam="2">  1       -2 0.54126202E-01 0.16589086E+04</pdfrwt>
<totfact> 0.21703034E+01</totfact>
</mgrwt>
</event>
<event>
12    1  0.1201209E-007  0.2539026E+04  0.7818608E-02  0.8389213E-01
          2   -1    0    0  501    0  0.00000000000E+00  0.00000000000E+00  0.11231463569E+04  0.11231463569E+04  0.00000000000E+00 0. -1.
         -2   -1    0    0    0  501 -0.00000000000E+00 -0.00000000000E+00 -0.14349538708E+04  0.14349538708E+04  0.00000000000E+00 0.  1.
         23    2    1    2    0    0  0.32620445489E+03  0.27688102222E+03 -0.11637687171E+04  0.12435081167E+04  0.94246287284E+02 0.  0.
        254    2    1    2    0    0 -0.32620445489E+03 -0.27688102222E+03  0.85196120316E+03  0.13145921110E+04  0.90511992561E+03 0.  0.
        -24    2    4    4    0    0 -0.27954294718E+03 -0.33985773912E+03 -0.78329877043E+01  0.44739576123E+03  0.80337222425E+02 0.  0.
         24    2    4    4    0    0 -0.46661507707E+02  0.62976716899E+02  0.85979419087E+03  0.86719634977E+03  0.81486779472E+02 0.  0.
         11    1    3    3    0    0  0.31332495905E+03  0.27039062936E+03 -0.11543100687E+04  0.12262607215E+04  0.00000000000E+00 0.  1.
        -11    1    3    3    0    0  0.12879495842E+02  0.64903928639E+01 -0.94586483641E+01  0.17247395210E+02  0.00000000000E+00 0. -1.
          2    1    6    6  502    0 -0.20472293906E+02  0.59944583275E+02  0.79085831723E+03  0.79339104218E+03  0.00000000000E+00 0. -1.
          1    1    5    5  503    0 -0.26910054347E+03 -0.30283982448E+03  0.94324320681E+01  0.40523577404E+03  0.00000000000E+00 0. -1.
         -2    1    5    5    0  503 -0.10442403715E+02 -0.37017914647E+02 -0.17265419772E+02  0.42159987192E+02  0.00000000000E+00 0.  1.
         -1    1    6    6    0  502 -0.26189213801E+02  0.30321336235E+01  0.68935873640E+02  0.73805307590E+02  0.00000000000E+00 0.  1.
<mgrwt>
<rscale>  0 0.25390260E+04</rscale>
<asrwt>0</asrwt>
<pdfrwt beam="1">  1        2 0.17279175E+00 0.25390260E+04</pdfrwt>
<pdfrwt beam="2">  1       -2 0.22076213E+00 0.25390260E+04</pdfrwt>
<totfact> 0.18318511E+00</totfact>
</mgrwt>
</event>
<event>
12    1  0.1201209E-007  0.1281924E+04  0.7818608E-02  0.9044024E-01
          2   -1    0    0  501    0  0.00000000000E+00  0.00000000000E+00  0.42385671726E+03  0.42385671726E+03  0.00000000000E+00 0. -1.
         -2   -1    0    0    0  501 -0.00000000000E+00 -0.00000000000E+00 -0.96927186540E+03  0.96927186540E+03  0.00000000000E+00 0.  1.
         23    2    1    2    0    0 -0.17571912370E+03 -0.20050187909E+02  0.12921806202E+03  0.23590036134E+03  0.87592536574E+02 0.  0.
        254    2    1    2    0    0  0.17571912370E+03  0.20050187909E+02 -0.67463321015E+03  0.11572282213E+04  0.92345436676E+03 0.  0.
        -24    2    4    4    0    0  0.49236424004E+03 -0.17826173128E+03 -0.24724703019E+03  0.58420682222E+03  0.77244595125E+02 0.  0.
         24    2    4    4    0    0 -0.31664511635E+03  0.19831191919E+03 -0.42738617996E+03  0.57302139910E+03  0.78120611886E+02 0.  0.
         11    1    3    3    0    0 -0.94824654912E+01 -0.14083921471E+02 -0.93674498817E+01  0.19391315403E+02  0.00000000000E+00 0.  1.
        -11    1    3    3    0    0 -0.16623665820E+03 -0.59662664385E+01  0.13858551190E+03  0.21650904594E+03  0.00000000000E+00 0. -1.
          2    1    6    6  502    0 -0.14934380524E+03  0.61851940320E+02 -0.22539976832E+03  0.27737031248E+03  0.00000000000E+00 0. -1.
          1    1    5    5  503    0  0.47677195885E+03 -0.15521291683E+03 -0.23195141401E+03  0.55245272084E+03  0.00000000000E+00 0. -1.
         -2    1    5    5    0  503  0.15592281191E+02 -0.23048814446E+02 -0.15295616185E+02  0.31754101382E+02  0.00000000000E+00 0.  1.
         -1    1    6    6    0  502 -0.16730131111E+03  0.13645997887E+03 -0.20198641164E+03  0.29565108662E+03  0.00000000000E+00 0.  1.
<mgrwt>
<rscale>  0 0.12819242E+04</rscale>
<asrwt>0</asrwt>
<pdfrwt beam="1">  1        2 0.65208726E-01 0.12819242E+04</pdfrwt>
<pdfrwt beam="2">  1       -2 0.14911875E+00 0.12819242E+04</pdfrwt>
<totfact> 0.22218410E+01</totfact>
</mgrwt>
</event>
<event>
12    1  0.1201209E-007  0.1182936E+04  0.7818608E-02  0.9127925E-01
         -1   -1    0    0    0  501 -0.00000000000E+00  0.00000000000E+00  0.59674980787E+03  0.59674980787E+03  0.00000000000E+00 0.  1.
          1   -1    0    0  501    0  0.00000000000E+00 -0.00000000000E+00 -0.58623256848E+03  0.58623256848E+03  0.00000000000E+00 0. -1.
         23    2    1    2    0    0  0.59041308764E+02  0.21340406105E+03 -0.10511262480E+03  0.25971044995E+03  0.85870160763E+02 0.  0.
        254    2    1    2    0    0 -0.59041308764E+02 -0.21340406105E+03  0.11562986419E+03  0.92327192640E+03  0.88883835155E+03 0.  0.
        -24    2    4    4    0    0 -0.44411842027E+03 -0.21813146145E+03  0.16086380345E+03  0.52754900116E+03  0.87225453037E+02 0.  0.
         24    2    4    4    0    0  0.38507711151E+03  0.47274004048E+01 -0.45233939268E+02  0.39572292525E+03  0.79017682711E+02 0.  0.
         13    1    3    3    0    0  0.74744359770E+02  0.14327217031E+03 -0.94113287069E+02  0.18700520021E+03  0.00000000000E+00 0. -1.
        -13    1    3    3    0    0 -0.15703051006E+02  0.70131890735E+02 -0.10999337726E+02  0.72705249737E+02  0.00000000000E+00 0.  1.
          2    1    6    6  502    0  0.37799264335E+03  0.72211836914E+01 -0.56421047625E+02  0.38224850364E+03  0.00000000000E+00 0. -1.
          1    1    5    5  503    0 -0.33885789853E+03 -0.20549969784E+03  0.13135167139E+03  0.41750217099E+03  0.00000000000E+00 0. -1.
         -2    1    5    5    0  503 -0.10526052175E+03 -0.12631763615E+02  0.29512132067E+02  0.11004683017E+03  0.00000000000E+00 0.  1.
         -1    1    6    6    0  502  0.70844681566E+01 -0.24937832866E+01  0.11187108357E+02  0.13474421603E+02  0.00000000000E+00 0.  1.
<mgrwt>
<rscale>  0 0.11829356E+04</rscale>
<asrwt>0</asrwt>
<pdfrwt beam="1">  1        1 0.90189626E-01 0.11829356E+04</pdfrwt>
<pdfrwt beam="2">  1       -1 0.91807663E-01 0.11829356E+04</pdfrwt>
<totfact> 0.40585888E+01</totfact>
</mgrwt>
</event>
<event>
12    1  0.1201209E-007  0.1087515E+04  0.7818608E-02  0.9217446E-01
         -2   -1    0    0    0  501 -0.00000000000E+00  0.00000000000E+00  0.27903761457E+03  0.27903761457E+03  0.00000000000E+00 0.  1.
          2   -1    0    0  501    0  0.00000000000E+00 -0.00000000000E+00 -0.10596146459E+04  0.10596146459E+04  0.00000000000E+00 0. -1.
         23    2    1    2    0    0 -0.29207508980E+02  0.15128931151E+03 -0.14566377195E+03  0.23102867105E+03  0.91732099258E+02 0.  0.
        254    2    1    2    0    0  0.29207508980E+02 -0.15128931151E+03 -0.63491325940E+03  0.11076235894E+04  0.89441245214E+03 0.  0.
        -24    2    4    4    0    0 -0.38941834823E+03  0.98643954824E+02 -0.33931128822E+03  0.53180349133E+03  0.79407325351E+02 0.  0.
         24    2    4    4    0    0  0.41862585721E+03 -0.24993326633E+03 -0.29560197118E+03  0.57582009810E+03  0.80461258128E+02 0.  0.
         13    1    3    3    0    0 -0.39396606521E+02  0.15162003074E+03 -0.10375654805E+03  0.18789930173E+03  0.00000000000E+00 0. -1.
        -13    1    3    3    0    0  0.10189097541E+02 -0.33071923096E+00 -0.41907223895E+02  0.43129369326E+02  0.00000000000E+00 0.  1.
          4    1    6    6  502    0  0.85719770349E+00  0.13953422001E+01 -0.11346198722E+02  0.11463768717E+02  0.00000000000E+00 0. -1.
          3    1    5    5  503    0 -0.10535638287E+01 -0.16428382031E+01 -0.17366134290E+02  0.17475455195E+02  0.00000000000E+00 0. -1.
         -4    1    5    5    0  503 -0.38836478440E+03  0.10028679303E+03 -0.32194515393E+03  0.51432803614E+03  0.00000000000E+00 0.  1.
         -3    1    6    6    0  502  0.41776865951E+03 -0.25132860853E+03 -0.28425577246E+03  0.56435632938E+03  0.00000000000E+00 0.  1.
<mgrwt>
<rscale>  0 0.10875152E+04</rscale>
<asrwt>0</asrwt>
<pdfrwt beam="1">  1        2 0.16301764E+00 0.10875152E+04</pdfrwt>
<pdfrwt beam="2">  1       -2 0.42928863E-01 0.10875152E+04</pdfrwt>
<totfact> 0.11792760E+02</totfact>
</mgrwt>
</event>
<event>
12    1  0.1201209E-007  0.1231035E+04  0.7818608E-02  0.9086117E-01
          2   -1    0    0  501    0  0.00000000000E+00  0.00000000000E+00  0.18596520523E+04  0.18596520523E+04  0.00000000000E+00 0.  1.
         -2   -1    0    0    0  501 -0.00000000000E+00 -0.00000000000E+00 -0.20372715767E+03  0.20372715767E+03  0.00000000000E+00 0. -1.
         23    2    1    2    0    0  0.17581165697E+03 -0.23451389677E+03  0.68802545094E+03  0.75359704548E+03  0.92859998476E+02 0.  0.
        254    2    1    2    0    0 -0.17581165697E+03  0.23451389677E+03  0.96789944366E+03  0.13097821645E+04  0.83234216450E+03 0.  0.
        -24    2    4    4    0    0 -0.47621421315E+03  0.21692086962E+01  0.42913529882E+03  0.64594034775E+03  0.79354558092E+02 0.  0.
         24    2    4    4    0    0  0.30040255618E+03  0.23234468807E+03  0.53876414484E+03  0.66384181671E+03  0.78698183030E+02 0.  0.
         11    1    3    3    0    0  0.15794277409E+02 -0.58635160182E+02  0.77880811859E+02  0.98757086147E+02  0.00000000000E+00 0.  1.
        -11    1    3    3    0    0  0.16001737956E+03 -0.17587873658E+03  0.61014463908E+03  0.65483995934E+03  0.00000000000E+00 0. -1.
          4    1    6    6  502    0  0.20706287439E+03  0.12363746490E+03  0.29439591151E+03  0.38056564400E+03  0.00000000000E+00 0. -1.
          1    1    5    5  503    0  0.19458173656E+01  0.41612646783E+01  0.47788120829E+01  0.66286781387E+01  0.00000000000E+00 0. -1.
         -2    1    5    5    0  503 -0.47816003052E+03 -0.19920559821E+01  0.42435648674E+03  0.63931166961E+03  0.00000000000E+00 0.  1.
         -3    1    6    6    0  502  0.93339681799E+02  0.10870722317E+03  0.24436823333E+03  0.28327617271E+03  0.00000000000E+00 0.  1.
<mgrwt>
<rscale>  0 0.12310347E+04</rscale>
<asrwt>0</asrwt>
<pdfrwt beam="1">  1        2 0.28610030E+00 0.12310347E+04</pdfrwt>
<pdfrwt beam="2">  1       -2 0.31342641E-01 0.12310347E+04</pdfrwt>
<totfact> 0.74406495E+01</totfact>
</mgrwt>
</event>
<event>
12    1  0.1201209E-007  0.1495596E+04  0.7818608E-02  0.8887387E-01
          2   -1    0    0  501    0  0.00000000000E+00  0.00000000000E+00  0.10883509380E+04  0.10883509380E+04  0.00000000000E+00 0. -1.
         -2   -1    0    0    0  501 -0.00000000000E+00 -0.00000000000E+00 -0.51380666910E+03  0.51380666910E+03  0.00000000000E+00 0.  1.
         23    2    1    2    0    0  0.10599372006E+03 -0.28882615432E+03 -0.19775618274E+03  0.37687222806E+03  0.90939278419E+02 0.  0.
        254    2    1    2    0    0 -0.10599372006E+03  0.28882615432E+03  0.77230045166E+03  0.12252853791E+04  0.90012280075E+03 0.  0.
        -24    2    4    4    0    0 -0.13384582504E+03  0.60359073399E+03  0.54984671041E+03  0.83120886920E+03  0.79626002376E+02 0.  0.
         24    2    4    4    0    0  0.27852104979E+02 -0.31476457967E+03  0.22245374125E+03  0.39407650987E+03  0.77189042378E+02 0.  0.
         13    1    3    3    0    0 -0.20626005380E+01 -0.89451672015E+02 -0.85809272408E+02  0.12397212259E+03  0.00000000000E+00 0.  1.
        -13    1    3    3    0    0  0.10805632060E+03 -0.19937448230E+03 -0.11194691033E+03  0.25290010547E+03  0.00000000000E+00 0. -1.
          4    1    6    6  502    0 -0.85806972609E+01 -0.20024930147E+01  0.13690270694E+02  0.16280720359E+02  0.00000000000E+00 0. -1.
          3    1    5    5  503    0  0.22580045869E+01  0.63254505366E+02  0.33864446099E+02  0.71784620522E+02  0.00000000000E+00 0. -1.
         -4    1    5    5    0  503 -0.13610382963E+03  0.54033622863E+03  0.51598226431E+03  0.75942424868E+03  0.00000000000E+00 0.  1.
         -3    1    6    6    0  502  0.36432802240E+02 -0.31276208666E+03  0.20876347055E+03  0.37779578951E+03  0.00000000000E+00 0.  1.
<mgrwt>
<rscale>  0 0.14955962E+04</rscale>
<asrwt>0</asrwt>
<pdfrwt beam="1">  1        2 0.16743860E+00 0.14955962E+04</pdfrwt>
<pdfrwt beam="2">  1       -2 0.79047180E-01 0.14955962E+04</pdfrwt>
<totfact> 0.30407958E+01</totfact>
</mgrwt>
</event>
<event>
12    1  0.1201209E-007  0.1898088E+04  0.7818608E-02  0.8655809E-01
         -1   -1    0    0    0  501 -0.00000000000E+00  0.00000000000E+00  0.59107087834E+03  0.59107087834E+03  0.00000000000E+00 0.  1.
          1   -1    0    0  501    0  0.00000000000E+00 -0.00000000000E+00 -0.15238174464E+04  0.15238174464E+04  0.00000000000E+00 0. -1.
         23    2    1    2    0    0  0.41333836789E+03  0.37771925044E+03  0.15948867048E+03  0.59418033368E+03  0.11871476068E+03 0.  0.
        254    2    1    2    0    0 -0.41333836789E+03 -0.37771925044E+03 -0.10922352385E+04  0.15207079910E+04  0.89780540163E+03 0.  0.
        -24    2    4    4    0    0  0.15217464428E+03  0.15608071805E+03 -0.46155118811E+03  0.51642684438E+03  0.78414752720E+02 0.  0.
         24    2    4    4    0    0 -0.56551301217E+03 -0.53379996848E+03 -0.63068405040E+03  0.10042811466E+04  0.77915831419E+02 0.  0.
         11    1    3    3    0    0  0.12079810384E+03  0.57897405979E+02  0.71722895571E+02  0.15194889029E+03  0.00000000000E+00 0. -1.
        -11    1    3    3    0    0  0.29254026405E+03  0.31982184446E+03  0.87765774913E+02  0.44223144340E+03  0.00000000000E+00 0.  1.
          4    1    6    6  502    0 -0.47119742449E+03 -0.45245225348E+03 -0.49148637798E+03  0.81749551330E+03  0.00000000000E+00 0. -1.
          1    1    5    5  503    0  0.92047650673E+02  0.72753752603E+02 -0.32501894219E+03  0.34554766863E+03  0.00000000000E+00 0. -1.
         -2    1    5    5    0  503  0.60126993607E+02  0.83326965442E+02 -0.13653224592E+03  0.17087917575E+03  0.00000000000E+00 0.  1.
         -3    1    6    6    0  502 -0.94315587678E+02 -0.81347715000E+02 -0.13919767242E+03  0.18678563334E+03  0.00000000000E+00 0.  1.
<mgrwt>
<rscale>  0 0.18980876E+04</rscale>
<asrwt>0</asrwt>
<pdfrwt beam="1">  1        1 0.23443345E+00 0.18980876E+04</pdfrwt>
<pdfrwt beam="2">  1       -1 0.90933982E-01 0.18980876E+04</pdfrwt>
<totfact> 0.69574068E+00</totfact>
</mgrwt>
</event>
<event>
12    1  0.1201209E-007  0.2080344E+04  0.7818608E-02  0.8569952E-01
         -2   -1    0    0    0  501 -0.00000000000E+00  0.00000000000E+00  0.40507627388E+03  0.40507627388E+03  0.00000000000E+00 0.  1.
          2   -1    0    0  501    0  0.00000000000E+00 -0.00000000000E+00 -0.26709989116E+04  0.26709989116E+04  0.00000000000E+00 0. -1.
         23    2    1    2    0    0  0.55150959228E+03 -0.64853202919E+03 -0.95965908782E+03  0.12865055536E+04  0.96924461892E+02 0.  0.
        254    2    1    2    0    0 -0.55150959228E+03  0.64853202919E+03 -0.13062635499E+04  0.17895696319E+04  0.87833842129E+03 0.  0.
        -24    2    4    4    0    0 -0.34818939747E+03  0.61032759458E+03 -0.31558928712E+03  0.77444275647E+03  0.80183263155E+02 0.  0.
         24    2    4    4    0    0 -0.20332019481E+03  0.38204434617E+02 -0.99067426277E+03  0.10151268754E+04  0.79046807844E+02 0.  0.
         11    1    3    3    0    0  0.10824736489E+03 -0.12512971124E+03 -0.13248846134E+03  0.21196256516E+03  0.00000000000E+00 0. -1.
        -11    1    3    3    0    0  0.44326222739E+03 -0.52340231795E+03 -0.82717062649E+03  0.10745429884E+04  0.00000000000E+00 0.  1.
          4    1    6    6  502    0 -0.29167181086E+01 -0.12460159555E+02 -0.32917795779E+02  0.35317758983E+02  0.00000000000E+00 0. -1.
          1    1    5    5  503    0 -0.52378323992E+02  0.13634350237E+03 -0.39900586330E+02  0.15141035715E+03  0.00000000000E+00 0. -1.
         -2    1    5    5    0  503 -0.29581107348E+03  0.47398409220E+03 -0.27568870079E+03  0.62303239932E+03  0.00000000000E+00 0.  1.
         -3    1    6    6    0  502 -0.20040347670E+03  0.50664594172E+02 -0.95775646699E+03  0.97980911643E+03  0.00000000000E+00 0.  1.
<mgrwt>
<rscale>  0 0.20803445E+04</rscale>
<asrwt>0</asrwt>
<pdfrwt beam="1">  1        2 0.41092289E+00 0.20803445E+04</pdfrwt>
<pdfrwt beam="2">  1       -2 0.62319429E-01 0.20803445E+04</pdfrwt>
<totfact> 0.60984650E+00</totfact>
</mgrwt>
</event>
<event>
12    1  0.1201209E-007  0.2389974E+04  0.7818608E-02  0.8443267E-01
          1   -1    0    0  501    0  0.00000000000E+00  0.00000000000E+00  0.23253284518E+04  0.23253284518E+04  0.00000000000E+00 0. -1.
         -1   -1    0    0    0  501 -0.00000000000E+00 -0.00000000000E+00 -0.61410420501E+03  0.61410420501E+03  0.00000000000E+00 0.  1.
         23    2    1    2    0    0 -0.91892239982E+03 -0.10917676904E+03  0.19252392800E+03  0.94859799575E+03  0.80216899081E+02 0.  0.
        254    2    1    2    0    0  0.91892239982E+03  0.10917676904E+03  0.15187003187E+04  0.19908346610E+04  0.89478156303E+03 0.  0.
        -24    2    4    4    0    0  0.48820843865E+03 -0.25607319587E+03  0.12320099098E+04  0.13524641668E+04  0.85964779090E+02 0.  0.
         24    2    4    4    0    0  0.43071396117E+03  0.36524996490E+03  0.28669040892E+03  0.63837049425E+03  0.80021523084E+02 0.  0.
         11    1    3    3    0    0 -0.35561323343E+03 -0.64814300823E+02  0.10797924808E+03  0.37725479904E+03  0.00000000000E+00 0.  1.
        -11    1    3    3    0    0 -0.56330916638E+03 -0.44362468213E+02  0.84544679923E+02  0.57134319670E+03  0.00000000000E+00 0. -1.
          4    1    6    6  502    0  0.27204438593E+03  0.27588648245E+03  0.17897700925E+03  0.42679534786E+03  0.00000000000E+00 0. -1.
          3    1    5    5  503    0  0.28827980625E+03 -0.19284669188E+03  0.72015796382E+03  0.79932633268E+03  0.00000000000E+00 0. -1.
         -4    1    5    5    0  503  0.19992863240E+03 -0.63226503991E+02  0.51185194601E+03  0.55313783409E+03  0.00000000000E+00 0.  1.
         -3    1    6    6    0  502  0.15866957524E+03  0.89363482458E+02  0.10771339967E+03  0.21157514639E+03  0.00000000000E+00 0.  1.
<mgrwt>
<rscale>  0 0.23899740E+04</rscale>
<asrwt>0</asrwt>
<pdfrwt beam="1">  1        1 0.35774284E+00 0.23899740E+04</pdfrwt>
<pdfrwt beam="2">  1       -1 0.94477571E-01 0.23899740E+04</pdfrwt>
<totfact> 0.17382703E+00</totfact>
</mgrwt>
</event>
<event>
12    1  0.1201209E-007  0.1803886E+04  0.7818608E-02  0.8704236E-01
         -1   -1    0    0    0  501 -0.00000000000E+00  0.00000000000E+00  0.24789287653E+03  0.24789287653E+03  0.00000000000E+00 0.  1.
          1   -1    0    0  501    0  0.00000000000E+00 -0.00000000000E+00 -0.32816633121E+04  0.32816633121E+04  0.00000000000E+00 0. -1.
         23    2    1    2    0    0  0.35643391588E+03 -0.12826527116E+03 -0.21996550410E+04  0.22337346665E+04  0.87127175960E+02 0.  0.
        254    2    1    2    0    0 -0.35643391588E+03  0.12826527116E+03 -0.83411539462E+03  0.12958215222E+04  0.91646484363E+03 0.  0.
        -24    2    4    4    0    0 -0.30168052647E+03 -0.33160135427E+03 -0.64454444057E+03  0.78899231052E+03  0.78107182635E+02 0.  0.
         24    2    4    4    0    0 -0.54753389404E+02  0.45986662543E+03 -0.18957095405E+03  0.50682921165E+03  0.80395623843E+02 0.  0.
         13    1    3    3    0    0  0.10091489146E+02 -0.12490859098E+02 -0.35201188647E+02  0.38690869677E+02  0.00000000000E+00 0.  1.
        -13    1    3    3    0    0  0.34634242673E+03 -0.11577441206E+03 -0.21644538523E+04  0.21950437968E+04  0.00000000000E+00 0. -1.
          2    1    6    6  502    0 -0.53816659471E+02  0.45870555146E+03 -0.19490290875E+03  0.50129248909E+03  0.00000000000E+00 0. -1.
          1    1    5    5  503    0 -0.16462213621E+03 -0.22028200699E+03 -0.34389489625E+03  0.44032750312E+03  0.00000000000E+00 0. -1.
         -2    1    5    5    0  503 -0.13705839026E+03 -0.11131934728E+03 -0.30064954432E+03  0.34866480740E+03  0.00000000000E+00 0.  1.
         -1    1    6    6    0  502 -0.93672993256E+00  0.11610739603E+01  0.53319547046E+01  0.55367225576E+01  0.00000000000E+00 0.  1.
<mgrwt>
<rscale>  0 0.18038858E+04</rscale>
<asrwt>0</asrwt>
<pdfrwt beam="1">  1        1 0.50487127E+00 0.18038858E+04</pdfrwt>
<pdfrwt beam="2">  1       -1 0.38137367E-01 0.18038858E+04</pdfrwt>
<totfact> 0.23228834E+00</totfact>
</mgrwt>
</event>
<event>
12    1  0.1201209E-007  0.3205713E+04  0.7818608E-02  0.8187310E-01
          2   -1    0    0  501    0  0.00000000000E+00  0.00000000000E+00  0.12454734862E+04  0.12454734862E+04  0.00000000000E+00 0.  1.
         -2   -1    0    0    0  501 -0.00000000000E+00 -0.00000000000E+00 -0.20627894864E+04  0.20627894864E+04  0.00000000000E+00 0. -1.
         23    2    1    2    0    0 -0.61289186917E+03  0.54717352168E+03  0.88479918415E+03  0.12108883200E+04  0.91354370723E+02 0.  0.
        254    2    1    2    0    0  0.61289186917E+03 -0.54717352168E+03 -0.17021151844E+04  0.20973746527E+04  0.90925740398E+03 0.  0.
        -24    2    4    4    0    0  0.48178697331E+03 -0.19620951222E+03 -0.22595261046E+03  0.57228673465E+03  0.76424237905E+02 0.  0.
         24    2    4    4    0    0  0.13110489586E+03 -0.35096400946E+03 -0.14761625739E+04  0.15250879180E+04  0.80454853505E+02 0.  0.
         11    1    3    3    0    0 -0.18024695842E+03  0.11023558888E+03  0.20835339227E+03  0.29673555086E+03  0.00000000000E+00 0. -1.
        -11    1    3    3    0    0 -0.43264491074E+03  0.43693793280E+03  0.67644579188E+03  0.91415276911E+03  0.00000000000E+00 0.  1.
          4    1    6    6  502    0  0.76459135750E+02 -0.21477873207E+03 -0.10469336549E+04  0.10714690761E+04  0.00000000000E+00 0. -1.
          1    1    5    5  503    0  0.31363813321E+03 -0.14341008291E+03 -0.18496214687E+03  0.39133914481E+03  0.00000000000E+00 0. -1.
         -2    1    5    5    0  503  0.16814884010E+03 -0.52799429307E+02 -0.40990463591E+02  0.18094758984E+03  0.00000000000E+00 0.  1.
         -3    1    6    6    0  502  0.54645760105E+02 -0.13618527739E+03 -0.42922891900E+03  0.45361884196E+03  0.00000000000E+00 0.  1.
<mgrwt>
<rscale>  0 0.32057134E+04</rscale>
<asrwt>0</asrwt>
<pdfrwt beam="1">  1        2 0.19161131E+00 0.32057134E+04</pdfrwt>
<pdfrwt beam="2">  1       -2 0.31735223E+00 0.32057134E+04</pdfrwt>
<totfact> 0.37235046E-01</totfact>
</mgrwt>
</event>
<event>
12    1  0.1201209E-007  0.1347608E+04  0.7818608E-02  0.8992641E-01
         -2   -1    0    0    0  501 -0.00000000000E+00  0.00000000000E+00  0.35990971183E+03  0.35990971183E+03  0.00000000000E+00 0.  1.
          2   -1    0    0  501    0  0.00000000000E+00 -0.00000000000E+00 -0.12614594421E+04  0.12614594421E+04  0.00000000000E+00 0. -1.
         23    2    1    2    0    0 -0.11887981273E+03  0.30973551220E+03 -0.66202272118E+02  0.34895108033E+03  0.85531387430E+02 0.  0.
        254    2    1    2    0    0  0.11887981273E+03 -0.30973551220E+03 -0.83534745811E+03  0.12724180736E+04  0.90065191985E+03 0.  0.
        -24    2    4    4    0    0  0.11013064223E+03 -0.67137095891E+02 -0.97203598324E+03  0.98379245889E+03  0.79733941590E+02 0.  0.
         24    2    4    4    0    0  0.87491705041E+01 -0.24259841631E+03  0.13668852513E+03  0.28862561467E+03  0.75435091022E+02 0.  0.
         13    1    3    3    0    0 -0.11492681734E+03  0.30789569310E+03 -0.76792688302E+02  0.33749821947E+03  0.00000000000E+00 0.  1.
        -13    1    3    3    0    0 -0.39529953916E+01  0.18398191083E+01  0.10590416183E+02  0.11452860859E+02  0.00000000000E+00 0. -1.
          2    1    6    6  502    0 -0.20410892995E+02 -0.17040127351E+03  0.67343524156E+02  0.18435929272E+03  0.00000000000E+00 0. -1.
          3    1    5    5  503    0  0.79468240335E+02 -0.45171852815E+02 -0.39138846744E+03  0.40192117380E+03  0.00000000000E+00 0. -1.
         -4    1    5    5    0  503  0.30662401891E+02 -0.21965243076E+02 -0.58064751581E+03  0.58187128509E+03  0.00000000000E+00 0.  1.
         -1    1    6    6    0  502  0.29160063499E+02 -0.72197142804E+02  0.69345000974E+02  0.10426632195E+03  0.00000000000E+00 0.  1.
<mgrwt>
<rscale>  0 0.13476075E+04</rscale>
<asrwt>0</asrwt>
<pdfrwt beam="1">  1        2 0.19407068E+00 0.13476075E+04</pdfrwt>
<pdfrwt beam="2">  1       -2 0.55370725E-01 0.13476075E+04</pdfrwt>
<totfact> 0.52151306E+01</totfact>
</mgrwt>
</event>
<event>
12    1  0.1201209E-007  0.1620578E+04  0.7818608E-02  0.8808005E-01
         -2   -1    0    0    0  501 -0.00000000000E+00  0.00000000000E+00  0.10869216699E+04  0.10869216699E+04  0.00000000000E+00 0. -1.
          2   -1    0    0  501    0  0.00000000000E+00 -0.00000000000E+00 -0.60406242238E+03  0.60406242238E+03  0.00000000000E+00 0.  1.
         23    2    1    2    0    0 -0.30347143625E+03  0.36657742377E+03  0.40354249020E+03  0.63037980552E+03  0.89767686669E+02 0.  0.
        254    2    1    2    0    0  0.30347143625E+03 -0.36657742377E+03  0.79316757263E+02  0.10606042867E+04  0.94451912885E+03 0.  0.
        -24    2    4    4    0    0  0.19950693093E+03 -0.45561336882E+03 -0.34332074086E+03  0.60908518563E+03  0.75690652761E+02 0.  0.
         24    2    4    4    0    0  0.10396450532E+03  0.89035945046E+02  0.42263749813E+03  0.45151910108E+03  0.80690928476E+02 0.  0.
         11    1    3    3    0    0 -0.18612761383E+03  0.20632697080E+03  0.28981025492E+03  0.40150254216E+03  0.00000000000E+00 0.  1.
        -11    1    3    3    0    0 -0.11734382242E+03  0.16025045298E+03  0.11373223529E+03  0.22887726336E+03  0.00000000000E+00 0. -1.
          4    1    6    6  502    0  0.67415482725E+02  0.11720772009E+02  0.24486905017E+03  0.25425002564E+03  0.00000000000E+00 0. -1.
          1    1    5    5  503    0  0.84541380037E+02 -0.27922053509E+03 -0.21643812126E+03  0.36325860278E+03  0.00000000000E+00 0. -1.
         -2    1    5    5    0  503  0.11496555089E+03 -0.17639283373E+03 -0.12688261960E+03  0.24582658286E+03  0.00000000000E+00 0.  1.
         -3    1    6    6    0  502  0.36549022595E+02  0.77315173037E+02  0.17776844795E+03  0.19726907543E+03  0.00000000000E+00 0.  1.
<mgrwt>
<rscale>  0 0.16205783E+04</rscale>
<asrwt>0</asrwt>
<pdfrwt beam="1">  1        2 0.92932681E-01 0.16205783E+04</pdfrwt>
<pdfrwt beam="2">  1       -2 0.16721872E+00 0.16205783E+04</pdfrwt>
<totfact> 0.10499673E+01</totfact>
</mgrwt>
</event>
<event>
12    1  0.1201209E-007  0.1476021E+04  0.7818608E-02  0.8900557E-01
         -1   -1    0    0    0  501 -0.00000000000E+00  0.00000000000E+00  0.98188628620E+03  0.98188628620E+03  0.00000000000E+00 0.  1.
          1   -1    0    0  501    0  0.00000000000E+00 -0.00000000000E+00 -0.55470733108E+03  0.55470733108E+03  0.00000000000E+00 0. -1.
         23    2    1    2    0    0 -0.35894886870E+03  0.10836662960E+01  0.39950723064E+03  0.54491763531E+03  0.92107205263E+02 0.  0.
        254    2    1    2    0    0  0.35894886870E+03 -0.10836662960E+01  0.27671724480E+02  0.99167598198E+03  0.92401843283E+03 0.  0.
        -24    2    4    4    0    0 -0.19019146509E+03  0.45167217196E+02  0.30375267403E+03  0.36996262959E+03  0.79961174425E+02 0.  0.
         24    2    4    4    0    0  0.54914033379E+03 -0.46250883492E+02 -0.27608094955E+03  0.62171335238E+03  0.81317595924E+02 0.  0.
         11    1    3    3    0    0 -0.13178394987E+03 -0.26878588051E+02  0.20156262334E+03  0.24231582505E+03  0.00000000000E+00 0. -1.
        -11    1    3    3    0    0 -0.22716491883E+03  0.27962254347E+02  0.19794460729E+03  0.30260181026E+03  0.00000000000E+00 0.  1.
          4    1    6    6  502    0  0.20727603274E+03  0.14741981217E+02 -0.12901811486E+03  0.24459426347E+03  0.00000000000E+00 0. -1.
          3    1    5    5  503    0 -0.30223559555E+01  0.15574369166E+02  0.58705908783E+01  0.16916248038E+02  0.00000000000E+00 0. -1.
         -4    1    5    5    0  503 -0.18716910913E+03  0.29592848031E+02  0.29788208315E+03  0.35304638156E+03  0.00000000000E+00 0.  1.
         -3    1    6    6    0  502  0.34186430105E+03 -0.60992864709E+02 -0.14706283469E+03  0.37711908891E+03  0.00000000000E+00 0.  1.
<mgrwt>
<rscale>  0 0.14760210E+04</rscale>
<asrwt>0</asrwt>
<pdfrwt beam="1">  1        1 0.85339590E-01 0.14760210E+04</pdfrwt>
<pdfrwt beam="2">  1       -1 0.15105943E+00 0.14760210E+04</pdfrwt>
<totfact> 0.12716601E+01</totfact>
</mgrwt>
</event>
<event>
12    1  0.1201209E-007  0.2080069E+04  0.7818608E-02  0.8570074E-01
          2   -1    0    0  501    0  0.00000000000E+00  0.00000000000E+00  0.10020532396E+04  0.10020532396E+04  0.00000000000E+00 0. -1.
         -2   -1    0    0    0  501 -0.00000000000E+00 -0.00000000000E+00 -0.10794558190E+04  0.10794558190E+04  0.00000000000E+00 0.  1.
         23    2    1    2    0    0 -0.53334911703E+03  0.42217258611E+03 -0.52466724346E+03  0.86389514324E+03  0.91368096564E+02 0.  0.
        254    2    1    2    0    0  0.53334911703E+03 -0.42217258611E+03  0.44726466406E+03  0.12176139154E+04  0.90545402656E+03 0.  0.
        -24    2    4    4    0    0  0.75305307146E+03 -0.24040112024E+03  0.17213653993E+03  0.81321715404E+03  0.82519841207E+02 0.  0.
         24    2    4    4    0    0 -0.21970395443E+03 -0.18177146586E+03  0.27512812413E+03  0.40439676138E+03  0.80811895975E+02 0.  0.
         13    1    3    3    0    0 -0.79585331308E+02  0.40696448300E+02 -0.10320284350E+03  0.13653150834E+03  0.00000000000E+00 0. -1.
        -13    1    3    3    0    0 -0.45376378572E+03  0.38147613781E+03 -0.42146439996E+03  0.72736363490E+03  0.00000000000E+00 0.  1.
          4    1    6    6  502    0 -0.99698286139E+02 -0.10727950186E+03  0.18848134475E+03  0.23869197117E+03  0.00000000000E+00 0. -1.
          3    1    5    5  503    0  0.74755604415E+03 -0.23036716163E+03  0.17464393596E+03  0.80150456809E+03  0.00000000000E+00 0. -1.
         -4    1    5    5    0  503  0.54970273157E+01 -0.10033958613E+02 -0.25073960389E+01  0.11712585950E+02  0.00000000000E+00 0.  1.
         -3    1    6    6    0  502 -0.12000566829E+03 -0.74491964004E+02  0.86646779379E+02  0.16570479022E+03  0.00000000000E+00 0.  1.
<mgrwt>
<rscale>  0 0.20800694E+04</rscale>
<asrwt>0</asrwt>
<pdfrwt beam="1">  1        2 0.15416204E+00 0.20800694E+04</pdfrwt>
<pdfrwt beam="2">  1       -2 0.16607013E+00 0.20800694E+04</pdfrwt>
<totfact> 0.52706906E+00</totfact>
</mgrwt>
</event>
<event>
12    1  0.1301739E-007  0.1329215E+04  0.7818608E-02  0.9006713E-01
         -1   -1    0    0    0  501 -0.00000000000E+00  0.00000000000E+00  0.48521434543E+03  0.48521434543E+03  0.00000000000E+00 0.  1.
          1   -1    0    0  501    0  0.00000000000E+00 -0.00000000000E+00 -0.91032627510E+03  0.91032627510E+03  0.00000000000E+00 0. -1.
         23    2    1    2    0    0 -0.30560095785E+03 -0.64488832536E+02  0.71664061303E+02  0.33355663375E+03  0.92593386788E+02 0.  0.
        254    2    1    2    0    0  0.30560095785E+03  0.64488832536E+02 -0.49677599097E+03  0.10619839868E+04  0.88514001605E+03 0.  0.
        -24    2    4    4    0    0  0.50161259597E+03 -0.28510714638E+02 -0.61853422089E+03  0.80058922624E+03  0.77009541455E+02 0.  0.
         24    2    4    4    0    0 -0.19601163812E+03  0.92999547174E+02  0.12175822992E+03  0.26139476055E+03  0.80203966464E+02 0.  0.
         13    1    3    3    0    0 -0.30781562936E+03 -0.56866992034E+02  0.78901348102E+02  0.32281533296E+03  0.00000000000E+00 0.  1.
        -13    1    3    3    0    0  0.22146715091E+01 -0.76218405015E+01 -0.72372867990E+01  0.10741300793E+02  0.00000000000E+00 0. -1.
          4    1    6    6  502    0 -0.18928357555E+03  0.72102413744E+02  0.12667046499E+03  0.23889838162E+03  0.00000000000E+00 0. -1.
          1    1    5    5  503    0  0.48962029877E+03 -0.29967699622E+02 -0.61726407328E+03  0.78844215777E+03  0.00000000000E+00 0. -1.
         -2    1    5    5    0  503  0.11992297200E+02  0.14569849838E+01 -0.12701476058E+01  0.12147068466E+02  0.00000000000E+00 0.  1.
         -3    1    6    6    0  502 -0.67280625689E+01  0.20897133430E+02 -0.49122350684E+01  0.22496378928E+02  0.00000000000E+00 0.  1.
<mgrwt>
<rscale>  0 0.13292154E+04</rscale>
<asrwt>0</asrwt>
<pdfrwt beam="1">  1        1 0.14005020E+00 0.13292154E+04</pdfrwt>
<pdfrwt beam="2">  1       -1 0.74648361E-01 0.13292154E+04</pdfrwt>
<totfact> 0.31598118E+01</totfact>
</mgrwt>
</event>
<event>
12    1  0.1201209E-007  0.1718011E+04  0.7818608E-02  0.8751158E-01
          2   -1    0    0  501    0  0.00000000000E+00  0.00000000000E+00  0.11619539225E+04  0.11619539225E+04  0.00000000000E+00 0. -1.
         -2   -1    0    0    0  501 -0.00000000000E+00 -0.00000000000E+00 -0.63504305498E+03  0.63504305498E+03  0.00000000000E+00 0.  1.
         23    2    1    2    0    0  0.36851435258E+03  0.28844889466E+03 -0.22128714081E+03  0.52572739131E+03  0.91737115678E+02 0.  0.
        254    2    1    2    0    0 -0.36851435258E+03 -0.28844889466E+03  0.74819800838E+03  0.12712695862E+04  0.91505218878E+03 0.  0.
        -24    2    4    4    0    0  0.11322749019E+03 -0.17102258059E+03 -0.13279491659E+03  0.25720942013E+03  0.80330618821E+02 0.  0.
         24    2    4    4    0    0 -0.48174184277E+03 -0.11742631406E+03  0.88099292497E+03  0.10140601661E+04  0.79406197959E+02 0.  0.
         11    1    3    3    0    0  0.15552817482E+03  0.93748070755E+02 -0.43318069393E+02  0.18669271295E+03  0.00000000000E+00 0.  1.
        -11    1    3    3    0    0  0.21298617777E+03  0.19470082390E+03 -0.17796907142E+03  0.33903467836E+03  0.00000000000E+00 0. -1.
          4    1    6    6  502    0 -0.68593937682E+02 -0.33945769073E+02  0.93209278515E+02  0.12060436612E+03  0.00000000000E+00 0. -1.
          3    1    5    5  503    0  0.29571051129E+02 -0.20727646051E+00 -0.24047276684E+02  0.38115109135E+02  0.00000000000E+00 0. -1.
         -4    1    5    5    0  503  0.83656439063E+02 -0.17081530413E+03 -0.10874763991E+03  0.21909431099E+03  0.00000000000E+00 0.  1.
         -3    1    6    6    0  502 -0.41314790509E+03 -0.83480544989E+02  0.78778364645E+03  0.89345579997E+03  0.00000000000E+00 0.  1.
<mgrwt>
<rscale>  0 0.17180114E+04</rscale>
<asrwt>0</asrwt>
<pdfrwt beam="1">  1        2 0.17876214E+00 0.17180114E+04</pdfrwt>
<pdfrwt beam="2">  1       -2 0.97698932E-01 0.17180114E+04</pdfrwt>
<totfact> 0.16559980E+01</totfact>
</mgrwt>
</event>
<event>
12    1  0.1201209E-007  0.2046777E+04  0.7818608E-02  0.8585058E-01
         -2   -1    0    0    0  501 -0.00000000000E+00  0.00000000000E+00  0.32935682482E+03  0.32935682482E+03  0.00000000000E+00 0.  1.
          2   -1    0    0  501    0  0.00000000000E+00 -0.00000000000E+00 -0.31799055435E+04  0.31799055435E+04  0.00000000000E+00 0. -1.
         23    2    1    2    0    0 -0.75219474740E+03  0.18913475201E+03 -0.15656431237E+04  0.17496129021E+04  0.91312780390E+02 0.  0.
        254    2    1    2    0    0  0.75219474740E+03 -0.18913475201E+03 -0.12849055950E+04  0.17596494663E+04  0.91859401462E+03 0.  0.
        -24    2    4    4    0    0  0.65843061576E+03  0.27776371193E+03 -0.76022747911E+03  0.10465255473E+04  0.81156304718E+02 0.  0.
         24    2    4    4    0    0  0.93764131639E+02 -0.46689846395E+03 -0.52467811592E+03  0.71312391897E+03  0.80453156973E+02 0.  0.
         11    1    3    3    0    0 -0.52733251974E+03  0.12620310739E+03 -0.99728171304E+03  0.11351553312E+04  0.00000000000E+00 0. -1.
        -11    1    3    3    0    0 -0.22486222765E+03  0.62931644624E+02 -0.56836141066E+03  0.61445757091E+03  0.00000000000E+00 0.  1.
          2    1    6    6  502    0  0.96719871298E+01 -0.10126504888E+02 -0.37506144022E+02  0.40035038100E+02  0.00000000000E+00 0. -1.
          3    1    5    5  503    0  0.23205014833E+03  0.13492595409E+03 -0.25623174067E+03  0.37108892378E+03  0.00000000000E+00 0. -1.
         -4    1    5    5    0  503  0.42638046742E+03  0.14283775784E+03 -0.50399573845E+03  0.67543662355E+03  0.00000000000E+00 0.  1.
         -1    1    6    6    0  502  0.84092144509E+02 -0.45677195906E+03 -0.48717197189E+03  0.67308888087E+03  0.00000000000E+00 0.  1.
<mgrwt>
<rscale>  0 0.20467766E+04</rscale>
<asrwt>0</asrwt>
<pdfrwt beam="1">  1        2 0.48921626E+00 0.20467766E+04</pdfrwt>
<pdfrwt beam="2">  1       -2 0.50670278E-01 0.20467766E+04</pdfrwt>
<totfact> 0.45689541E+00</totfact>
</mgrwt>
</event>
<event>
12    1  0.1201209E-007  0.1558964E+04  0.7818608E-02  0.8846162E-01
          2   -1    0    0  501    0  0.00000000000E+00  0.00000000000E+00  0.34269217837E+04  0.34269217837E+04  0.00000000000E+00 0. -1.
         -2   -1    0    0    0  501 -0.00000000000E+00 -0.00000000000E+00 -0.17729975628E+03  0.17729975628E+03  0.00000000000E+00 0.  1.
         23    2    1    2    0    0  0.18419979323E+03  0.16177417587E+03  0.21599437452E+04  0.21757485327E+04  0.91783699954E+02 0.  0.
        254    2    1    2    0    0 -0.18419979323E+03 -0.16177417587E+03  0.10896782822E+04  0.14284730072E+04  0.89052564578E+03 0.  0.
        -24    2    4    4    0    0  0.92838719337E+02 -0.43791120572E+03  0.84687247209E+03  0.96133670839E+03  0.81179005959E+02 0.  0.
         24    2    4    4    0    0 -0.27703851257E+03  0.27613702985E+03  0.24280581015E+03  0.46713629884E+03  0.79118035579E+02 0.  0.
         13    1    3    3    0    0  0.17910802881E+03  0.11458055439E+03  0.16614313547E+04  0.16749813539E+04  0.00000000000E+00 0. -1.
        -13    1    3    3    0    0  0.50917644188E+01  0.47193621475E+02  0.49851239043E+03  0.50076717882E+03  0.00000000000E+00 0.  1.
          4    1    6    6  502    0 -0.18867208415E+03  0.22441587248E+03  0.20603651086E+03  0.35834436366E+03  0.00000000000E+00 0. -1.
          1    1    5    5  503    0  0.62121140589E+01 -0.13765624926E+03  0.19921686299E+03  0.24222962622E+03  0.00000000000E+00 0. -1.
         -2    1    5    5    0  503  0.86626605278E+02 -0.30025495646E+03  0.64765560910E+03  0.71910708216E+03  0.00000000000E+00 0.  1.
         -3    1    6    6    0  502 -0.88366428418E+02  0.51721157367E+02  0.36769299295E+02  0.10879193518E+03  0.00000000000E+00 0.  1.
<mgrwt>
<rscale>  0 0.15589643E+04</rscale>
<asrwt>0</asrwt>
<pdfrwt beam="1">  1        2 0.52721869E+00 0.15589643E+04</pdfrwt>
<pdfrwt beam="2">  1       -2 0.27276888E-01 0.15589643E+04</pdfrwt>
<totfact> 0.10878865E+01</totfact>
</mgrwt>
</event>
<event>
12    1  0.1201209E-007  0.2947319E+04  0.7818608E-02  0.8258936E-01
          2   -1    0    0  501    0  0.00000000000E+00  0.00000000000E+00  0.10627929467E+04  0.10627929467E+04  0.00000000000E+00 0.  1.
         -2   -1    0    0    0  501 -0.00000000000E+00 -0.00000000000E+00 -0.20433637133E+04  0.20433637133E+04  0.00000000000E+00 0. -1.
         23    2    1    2    0    0 -0.12626583884E+04 -0.39112450170E+03 -0.23273324198E+03  0.13453497473E+04  0.92285421190E+02 0.  0.
        254    2    1    2    0    0  0.12626583884E+04  0.39112450170E+03 -0.74783752469E+03  0.17608069127E+04  0.89100810247E+03 0.  0.
        -24    2    4    4    0    0  0.12861837711E+04  0.46222537360E+03 -0.44613531407E+03  0.14400538736E+04  0.82446657662E+02 0.  0.
         24    2    4    4    0    0 -0.23525382663E+02 -0.71100871894E+02 -0.30170221063E+03  0.32075303908E+03  0.79053846019E+02 0.  0.
         11    1    3    3    0    0 -0.77240040694E+03 -0.23692979816E+03 -0.96496465118E+02  0.81366435689E+03  0.00000000000E+00 0. -1.
        -11    1    3    3    0    0 -0.49025798150E+03 -0.15419470354E+03 -0.13623677686E+03  0.53168539043E+03  0.00000000000E+00 0.  1.
          4    1    6    6  502    0  0.18932757423E+01  0.10895453834E+02 -0.54792332988E+01  0.12341693758E+02  0.00000000000E+00 0. -1.
          1    1    5    5  503    0  0.35166744423E+03  0.12036848070E+03 -0.15982728335E+03  0.40460267298E+03  0.00000000000E+00 0. -1.
         -2    1    5    5    0  503  0.93451632687E+03  0.34185689289E+03 -0.28630803072E+03  0.10354512006E+04  0.00000000000E+00 0.  1.
         -3    1    6    6    0  502 -0.25418658406E+02 -0.81996325728E+02 -0.29622297733E+03  0.30841134532E+03  0.00000000000E+00 0.  1.
<mgrwt>
<rscale>  0 0.29473191E+04</rscale>
<asrwt>0</asrwt>
<pdfrwt beam="1">  1        2 0.16350661E+00 0.29473191E+04</pdfrwt>
<pdfrwt beam="2">  1       -2 0.31436365E+00 0.29473191E+04</pdfrwt>
<totfact> 0.51242356E-01</totfact>
</mgrwt>
</event>
<event>
12    1  0.1201209E-007  0.4395097E+04  0.7818608E-02  0.7929264E-01
          2   -1    0    0  501    0  0.00000000000E+00  0.00000000000E+00  0.23333361942E+04  0.23333361942E+04  0.00000000000E+00 0. -1.
         -2   -1    0    0    0  501 -0.00000000000E+00 -0.00000000000E+00 -0.20696625102E+04  0.20696625102E+04  0.00000000000E+00 0.  1.
         23    2    1    2    0    0  0.91974390636E+03 -0.79308219906E+03 -0.15952777454E+04  0.20069970092E+04  0.90651432689E+02 0.  0.
        254    2    1    2    0    0 -0.91974390636E+03  0.79308219906E+03  0.18589514293E+04  0.23960016952E+04  0.90011970269E+03 0.  0.
        -24    2    4    4    0    0 -0.94766096599E+03  0.76115447617E+03  0.19274626245E+04  0.22801294855E+04  0.80379467624E+02 0.  0.
         24    2    4    4    0    0  0.27917059627E+02  0.31927722894E+02 -0.68511195190E+02  0.11587220970E+03  0.83269702811E+02 0.  0.
         11    1    3    3    0    0  0.46698438671E+03 -0.36864021571E+03 -0.84229776750E+03  0.10312301175E+04  0.00000000000E+00 0. -1.
        -11    1    3    3    0    0  0.45275951965E+03 -0.42444198335E+03 -0.75297997785E+03  0.97576689169E+03  0.00000000000E+00 0.  1.
          4    1    6    6  502    0  0.53645332840E+02  0.19882300132E+01 -0.43959676647E+02  0.69384637817E+02  0.00000000000E+00 0. -1.
          1    1    5    5  503    0 -0.29082930872E+03  0.23200592847E+03  0.52224803051E+03  0.64121091930E+03  0.00000000000E+00 0. -1.
         -2    1    5    5    0  503 -0.65683165726E+03  0.52914854770E+03  0.14052145940E+04  0.16389185662E+04  0.00000000000E+00 0.  1.
         -1    1    6    6    0  502 -0.25728273213E+02  0.29939492881E+02 -0.24551518543E+02  0.46487571879E+02  0.00000000000E+00 0.  1.
<mgrwt>
<rscale>  0 0.43950966E+04</rscale>
<asrwt>0</asrwt>
<pdfrwt beam="1">  1        2 0.35897480E+00 0.43950966E+04</pdfrwt>
<pdfrwt beam="2">  1       -2 0.31840962E+00 0.43950966E+04</pdfrwt>
<totfact> 0.81225553E-02</totfact>
</mgrwt>
</event>
<event>
12    1  0.1201209E-007  0.1438315E+04  0.7818608E-02  0.8926542E-01
          2   -1    0    0  501    0  0.00000000000E+00  0.00000000000E+00  0.15696914373E+04  0.15696914373E+04  0.00000000000E+00 0. -1.
         -2   -1    0    0    0  501 -0.00000000000E+00 -0.00000000000E+00 -0.32948359350E+03  0.32948359350E+03  0.00000000000E+00 0.  1.
         23    2    1    2    0    0  0.35032628811E+03  0.14097087814E+03  0.10193397672E+03  0.40073260066E+03  0.87148063670E+02 0.  0.
        254    2    1    2    0    0 -0.35032628811E+03 -0.14097087814E+03  0.11382738671E+04  0.14984424301E+04  0.89836575142E+03 0.  0.
        -24    2    4    4    0    0 -0.44324964212E+03 -0.44059954476E+03  0.59988830889E+03  0.87007872091E+03  0.81072765813E+02 0.  0.
         24    2    4    4    0    0  0.92923354012E+02  0.29962866662E+03  0.53838555816E+03  0.62836370920E+03  0.81054637262E+02 0.  0.
         13    1    3    3    0    0  0.29771774973E+02  0.40715901673E+02  0.24408495518E+02  0.56034970221E+02  0.00000000000E+00 0. -1.
        -13    1    3    3    0    0  0.32055451314E+03  0.10025497647E+03  0.77525481199E+02  0.34469763044E+03  0.00000000000E+00 0.  1.
          4    1    6    6  502    0  0.64711395425E+02  0.10542527423E+03  0.25803808533E+03  0.28615678679E+03  0.00000000000E+00 0. -1.
          1    1    5    5  503    0 -0.63760968029E+01 -0.57214171709E+01 -0.17188941137E+01  0.87374951707E+01  0.00000000000E+00 0. -1.
         -2    1    5    5    0  503 -0.43687354532E+03 -0.43487812759E+03  0.60160720301E+03  0.86134122574E+03  0.00000000000E+00 0.  1.
         -3    1    6    6    0  502  0.28211958587E+02  0.19420339239E+03  0.28034747283E+03  0.34220692241E+03  0.00000000000E+00 0.  1.
<mgrwt>
<rscale>  0 0.14383151E+04</rscale>
<asrwt>0</asrwt>
<pdfrwt beam="1">  1        2 0.24149099E+00 0.14383151E+04</pdfrwt>
<pdfrwt beam="2">  1       -2 0.50689785E-01 0.14383151E+04</pdfrwt>
<totfact> 0.41410137E+01</totfact>
</mgrwt>
</event>
<event>
12    1  0.1201209E-007  0.2287191E+04  0.7818608E-02  0.8482989E-01
          2   -1    0    0  501    0  0.00000000000E+00  0.00000000000E+00  0.13173527587E+04  0.13173527587E+04  0.00000000000E+00 0. -1.
         -2   -1    0    0    0  501 -0.00000000000E+00 -0.00000000000E+00 -0.99275624057E+03  0.99275624057E+03  0.00000000000E+00 0.  1.
         23    2    1    2    0    0  0.45267777987E+03 -0.56658349386E+03 -0.49925998618E+03  0.88528763450E+03  0.92410140642E+02 0.  0.
        254    2    1    2    0    0 -0.45267777987E+03  0.56658349386E+03  0.82385650433E+03  0.14248213648E+04  0.90853858144E+03 0.  0.
        -24    2    4    4    0    0 -0.63085448643E+03  0.99407822310E+02  0.56667163796E+03  0.85702683010E+03  0.74289595903E+02 0.  0.
         24    2    4    4    0    0  0.17817670656E+03  0.46717567155E+03  0.25718486636E+03  0.56779453470E+03  0.79035000471E+02 0.  0.
         13    1    3    3    0    0  0.90609247761E+02 -0.17913957002E+03 -0.13314233804E+03  0.24088981611E+03  0.00000000000E+00 0. -1.
        -13    1    3    3    0    0  0.36206853211E+03 -0.38744392384E+03 -0.36611764814E+03  0.64439781838E+03  0.00000000000E+00 0.  1.
          2    1    6    6  502    0  0.40715598587E+02  0.48000879262E+02  0.15644173962E+02  0.64858188050E+02  0.00000000000E+00 0. -1.
          3    1    5    5  503    0 -0.63614762557E+02  0.57245739522E+01  0.30083713613E+02  0.70601972968E+02  0.00000000000E+00 0. -1.
         -4    1    5    5    0  503 -0.56723972387E+03  0.93683248358E+02  0.53658792435E+03  0.78642485713E+03  0.00000000000E+00 0.  1.
         -1    1    6    6    0  502  0.13746110797E+03  0.41917479229E+03  0.24154069240E+03  0.50293634665E+03  0.00000000000E+00 0.  1.
<mgrwt>
<rscale>  0 0.22871906E+04</rscale>
<asrwt>0</asrwt>
<pdfrwt beam="1">  1        2 0.20266965E+00 0.22871906E+04</pdfrwt>
<pdfrwt beam="2">  1       -2 0.15273173E+00 0.22871906E+04</pdfrwt>
<totfact> 0.41863795E+00</totfact>
</mgrwt>
</event>
<event>
12    1  0.1201209E-007  0.1738027E+04  0.7818608E-02  0.8739968E-01
          2   -1    0    0  501    0  0.00000000000E+00  0.00000000000E+00  0.27481281831E+04  0.27481281831E+04  0.00000000000E+00 0. -1.
         -2   -1    0    0    0  501 -0.00000000000E+00 -0.00000000000E+00 -0.27479961153E+03  0.27479961153E+03  0.00000000000E+00 0.  1.
         23    2    1    2    0    0 -0.16877811579E+03 -0.78176886571E+01 -0.15044770097E+03  0.24384765147E+03  0.90994493092E+02 0.  0.
        254    2    1    2    0    0  0.16877811579E+03  0.78176886571E+01  0.26237762725E+04  0.27790801432E+04  0.90029847562E+03 0.  0.
        -24    2    4    4    0    0 -0.15109181750E+03 -0.37308202601E+03  0.12636404013E+04  0.13286275200E+04  0.80281302903E+02 0.  0.
         24    2    4    4    0    0  0.31986993330E+03  0.38089971467E+03  0.13601358712E+04  0.14504526232E+04  0.80261180155E+02 0.  0.
         11    1    3    3    0    0 -0.81433840778E+01  0.17842050962E+02 -0.47365723683E+02  0.51265634364E+02  0.00000000000E+00 0. -1.
        -11    1    3    3    0    0 -0.16063473172E+03 -0.25659739619E+02 -0.10308197728E+03  0.19258201710E+03  0.00000000000E+00 0.  1.
          4    1    6    6  502    0  0.31157507437E+03  0.38424210008E+03  0.13408078213E+04  0.14291559160E+04  0.00000000000E+00 0. -1.
          3    1    5    5  503    0 -0.13871695170E+03 -0.35235038013E+03  0.12316560234E+04  0.12885533528E+04  0.00000000000E+00 0. -1.
         -4    1    5    5    0  503 -0.12374865802E+02 -0.20731645879E+02  0.31984377914E+02  0.40074167178E+02  0.00000000000E+00 0.  1.
         -3    1    6    6    0  502  0.82948589291E+01 -0.33423854117E+01  0.19328049900E+02  0.21296707206E+02  0.00000000000E+00 0.  1.
<mgrwt>
<rscale>  0 0.17380271E+04</rscale>
<asrwt>0</asrwt>
<pdfrwt beam="1">  1        2 0.42278893E+00 0.17380271E+04</pdfrwt>
<pdfrwt beam="2">  1       -2 0.42276865E-01 0.17380271E+04</pdfrwt>
<totfact> 0.12537240E+01</totfact>
</mgrwt>
</event>
<event>
12    1  0.1201209E-007  0.1278421E+04  0.7818608E-02  0.9046854E-01
         -1   -1    0    0    0  501 -0.00000000000E+00  0.00000000000E+00  0.13300771454E+03  0.13300771454E+03  0.00000000000E+00 0.  1.
          1   -1    0    0  501    0  0.00000000000E+00 -0.00000000000E+00 -0.30719289261E+04  0.30719289261E+04  0.00000000000E+00 0. -1.
         23    2    1    2    0    0 -0.85700544813E+01 -0.15512201258E+03 -0.13710589834E+04  0.13857690526E+04  0.12812824166E+03 0.  0.
        254    2    1    2    0    0  0.85700544813E+01  0.15512201258E+03 -0.15678622282E+04  0.18191675881E+04  0.90941874985E+03 0.  0.
        -24    2    4    4    0    0  0.19587566757E+03  0.46504425744E+03 -0.63068218754E+03  0.81136980192E+03  0.76990228425E+02 0.  0.
         24    2    4    4    0    0 -0.18730561309E+03 -0.30992224486E+03 -0.93718004063E+03  0.10077977862E+04  0.78833741413E+02 0.  0.
         11    1    3    3    0    0 -0.24970761626E+02 -0.82682569960E+02 -0.11354549639E+04  0.11387352289E+04  0.00000000000E+00 0. -1.
        -11    1    3    3    0    0  0.16400707145E+02 -0.72439442620E+02 -0.23560401951E+03  0.24703382369E+03  0.00000000000E+00 0.  1.
          2    1    6    6  502    0 -0.97746265783E+02 -0.99953119600E+02 -0.41460609914E+03  0.43754219915E+03  0.00000000000E+00 0. -1.
          1    1    5    5  503    0  0.13641398595E+01  0.63064162627E+02 -0.63775679972E+02  0.89701097213E+02  0.00000000000E+00 0. -1.
         -2    1    5    5    0  503  0.19451152771E+03  0.40198009481E+03 -0.56690650757E+03  0.72166870471E+03  0.00000000000E+00 0.  1.
         -3    1    6    6    0  502 -0.89559347308E+02 -0.20996912526E+03 -0.52257394149E+03  0.57025558706E+03  0.00000000000E+00 0.  1.
<mgrwt>
<rscale>  0 0.12784213E+04</rscale>
<asrwt>0</asrwt>
<pdfrwt beam="1">  1        1 0.47260440E+00 0.12784213E+04</pdfrwt>
<pdfrwt beam="2">  1       -1 0.20462727E-01 0.12784213E+04</pdfrwt>
<totfact> 0.10374317E+01</totfact>
</mgrwt>
</event>
<event>
12    1  0.1201209E-007  0.2883186E+04  0.7818608E-02  0.8277898E-01
         -2   -1    0    0    0  501 -0.00000000000E+00  0.00000000000E+00  0.80780781407E+03  0.80780781407E+03  0.00000000000E+00 0.  1.
          2   -1    0    0  501    0  0.00000000000E+00 -0.00000000000E+00 -0.25726290335E+04  0.25726290335E+04  0.00000000000E+00 0. -1.
         23    2    1    2    0    0 -0.12422597767E+03  0.82203632140E+03  0.37024798425E+03  0.91466488424E+03  0.91391867138E+02 0.  0.
        254    2    1    2    0    0  0.12422597767E+03 -0.82203632140E+03 -0.21350692037E+04  0.24657719634E+04  0.91122722933E+03 0.  0.
        -24    2    4    4    0    0 -0.24298748832E+03 -0.80900356672E+03 -0.13352222452E+04  0.15820805525E+04  0.81429355698E+02 0.  0.
         24    2    4    4    0    0  0.36721346599E+03 -0.13032754683E+02 -0.79984695851E+03  0.88369141090E+03  0.78356686795E+02 0.  0.
         11    1    3    3    0    0 -0.92142683737E+01  0.65105927208E+01 -0.87123915231E+00  0.11315901064E+02  0.00000000000E+00 0. -1.
        -11    1    3    3    0    0 -0.11501170929E+03  0.81552572868E+03  0.37111922340E+03  0.90334898317E+03  0.00000000000E+00 0.  1.
          4    1    6    6  502    0  0.36949141823E+03 -0.17668516440E+02 -0.78141319632E+03  0.86454766670E+03  0.00000000000E+00 0. -1.
          3    1    5    5  503    0 -0.24918287327E+03 -0.77601609430E+03 -0.12804530098E+04  0.15178448515E+04  0.00000000000E+00 0. -1.
         -4    1    5    5    0  503  0.61953849478E+01 -0.32987472418E+02 -0.54769235419E+02  0.64235700973E+02  0.00000000000E+00 0.  1.
         -3    1    6    6    0  502 -0.22779522404E+01  0.46357617567E+01 -0.18433762190E+02  0.19143744199E+02  0.00000000000E+00 0.  1.
<mgrwt>
<rscale>  0 0.28831856E+04</rscale>
<asrwt>0</asrwt>
<pdfrwt beam="1">  1        2 0.39578908E+00 0.28831856E+04</pdfrwt>
<pdfrwt beam="2">  1       -2 0.12427812E+00 0.28831856E+04</pdfrwt>
<totfact> 0.13273938E+00</totfact>
</mgrwt>
</event>
<event>
12    1  0.1201209E-007  0.1324092E+04  0.7818608E-02  0.9010676E-01
         -2   -1    0    0    0  501 -0.00000000000E+00  0.00000000000E+00  0.40126813319E+03  0.40126813319E+03  0.00000000000E+00 0. -1.
          2   -1    0    0  501    0  0.00000000000E+00 -0.00000000000E+00 -0.10922984915E+04  0.10922984915E+04  0.00000000000E+00 0.  1.
         23    2    1    2    0    0 -0.15971613081E+03 -0.79463353156E+02 -0.52764573295E+03  0.56416326956E+03  0.89702331570E+02 0.  0.
        254    2    1    2    0    0  0.15971613081E+03  0.79463353156E+02 -0.16338462537E+03  0.92940335514E+03  0.89736970854E+03 0.  0.
        -24    2    4    4    0    0 -0.14277766539E+03 -0.99399467075E+02 -0.43645050930E+03  0.47655204134E+03  0.79668596393E+02 0.  0.
         24    2    4    4    0    0  0.30249379621E+03  0.17886282023E+03  0.27306588392E+03  0.45285131380E+03  0.83755180400E+02 0.  0.
         13    1    3    3    0    0  0.83240192849E+01  0.68126396626E+01 -0.26490550537E+02  0.28591093438E+02  0.00000000000E+00 0. -1.
        -13    1    3    3    0    0 -0.16804015010E+03 -0.86275992819E+02 -0.50115518241E+03  0.53557217612E+03  0.00000000000E+00 0.  1.
          4    1    6    6  502    0  0.30188819198E+03  0.18564344104E+03  0.26893104328E+03  0.44488636043E+03  0.00000000000E+00 0. -1.
          1    1    5    5  503    0 -0.13911132619E+03 -0.88101764845E+02 -0.43431765989E+03  0.46448435037E+03  0.00000000000E+00 0. -1.
         -2    1    5    5    0  503 -0.36663392000E+01 -0.11297702230E+02 -0.21328494044E+01  0.12067690972E+02  0.00000000000E+00 0.  1.
         -3    1    6    6    0  502  0.60560422463E+00 -0.67806208081E+01  0.41348406451E+01  0.79649533697E+01  0.00000000000E+00 0.  1.
<mgrwt>
<rscale>  0 0.13240915E+04</rscale>
<asrwt>0</asrwt>
<pdfrwt beam="1">  1        2 0.16804592E+00 0.13240915E+04</pdfrwt>
<pdfrwt beam="2">  1       -2 0.61733559E-01 0.13240915E+04</pdfrwt>
<totfact> 0.52551766E+01</totfact>
</mgrwt>
</event>
<event>
12    1  0.1201209E-007  0.1824953E+04  0.7818608E-02  0.8693141E-01
          2   -1    0    0  501    0  0.00000000000E+00  0.00000000000E+00  0.37062038446E+04  0.37062038446E+04  0.00000000000E+00 0. -1.
         -2   -1    0    0    0  501 -0.00000000000E+00 -0.00000000000E+00 -0.22465385378E+03  0.22465385378E+03  0.00000000000E+00 0.  1.
         23    2    1    2    0    0 -0.32090270172E+03  0.58032895786E+03  0.10070595489E+04  0.12084600834E+04  0.80290689609E+02 0.  0.
        254    2    1    2    0    0  0.32090270172E+03 -0.58032895786E+03  0.24744904419E+04  0.27223976150E+04  0.92118705138E+03 0.  0.
        -24    2    4    4    0    0 -0.21109748533E+03 -0.20476524198E+03  0.22374730230E+03  0.37789512105E+03  0.79062725673E+02 0.  0.
         24    2    4    4    0    0  0.53200018705E+03 -0.37556371588E+03  0.22507431396E+04  0.23445024939E+04  0.82310144104E+02 0.  0.
         11    1    3    3    0    0 -0.30324132177E+03  0.54859577189E+03  0.97938015573E+03  0.11627975359E+04  0.00000000000E+00 0.  1.
        -11    1    3    3    0    0 -0.17661379945E+02  0.31733185967E+02  0.27679393157E+02  0.45662547440E+02  0.00000000000E+00 0. -1.
          2    1    6    6  502    0  0.20119546504E+03 -0.19180729162E+03  0.95296874819E+03  0.99268277274E+03  0.00000000000E+00 0. -1.
          3    1    5    5  503    0 -0.96096397931E+02 -0.10796318999E+03  0.15706950930E+03  0.21345116266E+03  0.00000000000E+00 0. -1.
         -4    1    5    5    0  503 -0.11500108740E+03 -0.96802051986E+02  0.66677792999E+02  0.16444395839E+03  0.00000000000E+00 0.  1.
         -1    1    6    6    0  502  0.33080472201E+03 -0.18375642426E+03  0.12977743914E+04  0.13518197212E+04  0.00000000000E+00 0.  1.
<mgrwt>
<rscale>  0 0.18249526E+04</rscale>
<asrwt>0</asrwt>
<pdfrwt beam="1">  1        2 0.57018516E+00 0.18249526E+04</pdfrwt>
<pdfrwt beam="2">  1       -2 0.34562134E-01 0.18249526E+04</pdfrwt>
<totfact> 0.43140643E+00</totfact>
</mgrwt>
</event>
<event>
12    1  0.1201209E-007  0.2021393E+04  0.7818608E-02  0.8596684E-01
          1   -1    0    0  501    0  0.00000000000E+00  0.00000000000E+00  0.26477955194E+04  0.26477955194E+04  0.00000000000E+00 0. -1.
         -1   -1    0    0    0  501 -0.00000000000E+00 -0.00000000000E+00 -0.38579536522E+03  0.38579536522E+03  0.00000000000E+00 0.  1.
         23    2    1    2    0    0  0.20845808522E+03  0.30531715755E+03  0.19901189522E+04  0.20262841384E+04  0.92631667810E+02 0.  0.
        254    2    1    2    0    0 -0.20845808522E+03 -0.30531715755E+03  0.27188120200E+03  0.10073067462E+04  0.89670181939E+03 0.  0.
        -24    2    4    4    0    0 -0.36824015927E+03 -0.48730319397E+03  0.38533046885E+03  0.72672296303E+03  0.81126302868E+02 0.  0.
         24    2    4    4    0    0  0.15978207405E+03  0.18198603642E+03 -0.11344926686E+03  0.28058378314E+03  0.84895786543E+02 0.  0.
         11    1    3    3    0    0  0.15629055487E+03  0.22027071853E+03  0.16453189738E+04  0.16673393333E+04  0.00000000000E+00 0. -1.
        -11    1    3    3    0    0  0.52167530348E+02  0.85046439022E+02  0.34479997843E+03  0.35894480514E+03  0.00000000000E+00 0.  1.
          4    1    6    6  502    0  0.14663389009E+03  0.13012885453E+03 -0.11457542548E+03  0.22707387482E+03  0.00000000000E+00 0. -1.
          3    1    5    5  503    0 -0.21210481649E+03 -0.26461146159E+03  0.16732829049E+03  0.37816191715E+03  0.00000000000E+00 0. -1.
         -4    1    5    5    0  503 -0.15613534278E+03 -0.22269173238E+03  0.21800217836E+03  0.34856104588E+03  0.00000000000E+00 0.  1.
         -3    1    6    6    0  502  0.13148183959E+02  0.51857181890E+02  0.11261586217E+01  0.53509908318E+02  0.00000000000E+00 0.  1.
<mgrwt>
<rscale>  0 0.20213928E+04</rscale>
<asrwt>0</asrwt>
<pdfrwt beam="1">  1        1 0.40735315E+00 0.20213928E+04</pdfrwt>
<pdfrwt beam="2">  1       -1 0.59353135E-01 0.20213928E+04</pdfrwt>
<totfact> 0.28481389E+00</totfact>
</mgrwt>
</event>
<event>
12    1  0.1201209E-007  0.1514441E+04  0.7818608E-02  0.8874906E-01
          1   -1    0    0  501    0  0.00000000000E+00  0.00000000000E+00  0.36902072868E+04  0.36902072868E+04  0.00000000000E+00 0. -1.
         -1   -1    0    0    0  501 -0.00000000000E+00 -0.00000000000E+00 -0.15537955429E+03  0.15537955429E+03  0.00000000000E+00 0.  1.
         23    2    1    2    0    0  0.34030305133E+03  0.88457063866E+02  0.29718346159E+03  0.46909330494E+03  0.89998333331E+02 0.  0.
        254    2    1    2    0    0 -0.34030305133E+03 -0.88457063866E+02  0.32376442710E+04  0.33764935362E+04  0.89148042924E+03 0.  0.
        -24    2    4    4    0    0  0.11958617541E+03  0.18823596089E+03  0.26687736834E+03  0.35656638936E+03  0.78628429770E+02 0.  0.
         24    2    4    4    0    0 -0.45988922675E+03 -0.27669302475E+03  0.29707669026E+04  0.30199271468E+04  0.80292288523E+02 0.  0.
         11    1    3    3    0    0  0.26659861569E+03  0.10029523049E+03  0.26015566577E+03  0.38576537634E+03  0.00000000000E+00 0.  1.
        -11    1    3    3    0    0  0.73704435639E+02 -0.11838166624E+02  0.37027795824E+02  0.83327928604E+02  0.00000000000E+00 0. -1.
          4    1    6    6  502    0 -0.21911221628E+03 -0.17848146455E+03  0.15288005288E+04  0.15547015319E+04  0.00000000000E+00 0. -1.
          1    1    5    5  503    0  0.62078854098E+02  0.10772614143E+03  0.20534888225E+03  0.24005597079E+03  0.00000000000E+00 0. -1.
         -2    1    5    5    0  503  0.57507321316E+02  0.80509819456E+02  0.61528486096E+02  0.11651041857E+03  0.00000000000E+00 0.  1.
         -3    1    6    6    0  502 -0.24077701047E+03 -0.98211560200E+02  0.14419663739E+04  0.14652256150E+04  0.00000000000E+00 0.  1.
<mgrwt>
<rscale>  0 0.15144408E+04</rscale>
<asrwt>0</asrwt>
<pdfrwt beam="1">  1        1 0.56772413E+00 0.15144408E+04</pdfrwt>
<pdfrwt beam="2">  1       -1 0.23904550E-01 0.15144408E+04</pdfrwt>
<totfact> 0.26046114E+00</totfact>
</mgrwt>
</event>
<event>
12    1  0.1201209E-007  0.1897392E+04  0.7818608E-02  0.8656156E-01
         -1   -1    0    0    0  501 -0.00000000000E+00  0.00000000000E+00  0.76658673979E+03  0.76658673979E+03  0.00000000000E+00 0.  1.
          1   -1    0    0  501    0  0.00000000000E+00 -0.00000000000E+00 -0.11740665203E+04  0.11740665203E+04  0.00000000000E+00 0. -1.
         23    2    1    2    0    0  0.24788382951E+03  0.66890470125E+03 -0.22279019049E+01  0.71911344671E+03  0.90770553677E+02 0.  0.
        254    2    1    2    0    0 -0.24788382951E+03 -0.66890470125E+03 -0.40525187863E+03  0.12215398134E+04  0.90501410945E+03 0.  0.
        -24    2    4    4    0    0 -0.15275799033E+03 -0.52824827122E+03 -0.68644179675E+03  0.88301799146E+03  0.78340240402E+02 0.  0.
         24    2    4    4    0    0 -0.95125839183E+02 -0.14065643003E+03  0.28118991812E+03  0.33852182193E+03  0.81829684601E+02 0.  0.
         13    1    3    3    0    0  0.21719294822E+03  0.59994754779E+03  0.25866747595E+02  0.63857570067E+03  0.00000000000E+00 0. -1.
        -13    1    3    3    0    0  0.30690881291E+02  0.68957153458E+02 -0.28094649499E+02  0.80537746044E+02  0.00000000000E+00 0.  1.
          2    1    6    6  502    0 -0.37999969528E+02 -0.10180123788E+03  0.22349995503E+03  0.24851502895E+03  0.00000000000E+00 0. -1.
          1    1    5    5  503    0 -0.18573737186E+02 -0.21649520177E+02 -0.18405212549E+02  0.33947566716E+02  0.00000000000E+00 0. -1.
         -2    1    5    5    0  503 -0.13418425314E+03 -0.50659875104E+03 -0.66803658420E+03  0.84907042475E+03  0.00000000000E+00 0.  1.
         -1    1    6    6    0  502 -0.57125869655E+02 -0.38855192144E+02  0.57689963098E+02  0.90006792980E+02  0.00000000000E+00 0.  1.
<mgrwt>
<rscale>  0 0.18973917E+04</rscale>
<asrwt>0</asrwt>
<pdfrwt beam="1">  1        1 0.18062562E+00 0.18973917E+04</pdfrwt>
<pdfrwt beam="2">  1       -1 0.11793642E+00 0.18973917E+04</pdfrwt>
<totfact> 0.67492320E+00</totfact>
</mgrwt>
</event>
<event>
12    1  0.1201209E-007  0.1346725E+04  0.7818608E-02  0.8993311E-01
         -1   -1    0    0    0  501 -0.00000000000E+00  0.00000000000E+00  0.48224625131E+03  0.48224625131E+03  0.00000000000E+00 0.  1.
          1   -1    0    0  501    0  0.00000000000E+00 -0.00000000000E+00 -0.94021910740E+03  0.94021910740E+03  0.00000000000E+00 0. -1.
         23    2    1    2    0    0  0.25815015626E+03 -0.15702237406E+03 -0.33877192159E+03  0.46224901554E+03  0.87236508285E+02 0.  0.
        254    2    1    2    0    0 -0.25815015626E+03  0.15702237406E+03 -0.11920093450E+03  0.96021634317E+03  0.90360889425E+03 0.  0.
        -24    2    4    4    0    0  0.23827035583E+03  0.20828999340E+02 -0.31527577793E+03  0.40351908965E+03  0.78881112295E+02 0.  0.
         24    2    4    4    0    0 -0.49642051209E+03  0.13619337472E+03  0.19607484343E+03  0.55669725352E+03  0.80526565231E+02 0.  0.
         11    1    3    3    0    0  0.40650343434E+02 -0.51462293605E+01 -0.14895582930E+02  0.43598308325E+02  0.00000000000E+00 0.  1.
        -11    1    3    3    0    0  0.21749981282E+03 -0.15187614470E+03 -0.32387633866E+03  0.41865070722E+03  0.00000000000E+00 0. -1.
          2    1    6    6  502    0 -0.43821832369E+03  0.98663767995E+02  0.18811727686E+03  0.48698865303E+03  0.00000000000E+00 0. -1.
          3    1    5    5  503    0  0.19105292636E+03  0.16313952081E+02 -0.29520802223E+03  0.35201582648E+03  0.00000000000E+00 0. -1.
         -4    1    5    5    0  503  0.47217429476E+02  0.45150472595E+01 -0.20067755699E+02  0.51503263167E+02  0.00000000000E+00 0.  1.
         -1    1    6    6    0  502 -0.58202188407E+02  0.37529606730E+02  0.79575665724E+01  0.69708600491E+02  0.00000000000E+00 0.  1.
<mgrwt>
<rscale>  0 0.13467251E+04</rscale>
<asrwt>0</asrwt>
<pdfrwt beam="1">  1        1 0.14464909E+00 0.13467251E+04</pdfrwt>
<pdfrwt beam="2">  1       -1 0.74191731E-01 0.13467251E+04</pdfrwt>
<totfact> 0.30228058E+01</totfact>
</mgrwt>
</event>
<event>
12    1  0.1201209E-007  0.2067053E+04  0.7818608E-02  0.8575897E-01
          2   -1    0    0  501    0  0.00000000000E+00  0.00000000000E+00  0.18442606408E+04  0.18442606408E+04  0.00000000000E+00 0. -1.
         -2   -1    0    0    0  501 -0.00000000000E+00 -0.00000000000E+00 -0.57918968347E+03  0.57918968347E+03  0.00000000000E+00 0.  1.
         23    2    1    2    0    0 -0.77749484837E+03  0.44834769411E+02  0.86164947286E+03  0.11646896385E+04  0.86912278269E+02 0.  0.
        254    2    1    2    0    0  0.77749484837E+03 -0.44834769411E+02  0.40342148452E+03  0.12587606858E+04  0.90289599305E+03 0.  0.
        -24    2    4    4    0    0  0.25036583486E+03 -0.21115693485E+03  0.58178272168E+03  0.67235533788E+03  0.79500080011E+02 0.  0.
         24    2    4    4    0    0  0.52712901351E+03  0.16632216544E+03 -0.17836123716E+03  0.58640534797E+03  0.80811147769E+02 0.  0.
         11    1    3    3    0    0 -0.27822531113E+02  0.18643599156E+02  0.36889558724E+02  0.49824858955E+02  0.00000000000E+00 0.  1.
        -11    1    3    3    0    0 -0.74967231726E+03  0.26191170254E+02  0.82475991413E+03  0.11148647795E+04  0.00000000000E+00 0. -1.
          4    1    6    6  502    0  0.26257721384E+03  0.86589196148E+02 -0.13145867675E+03  0.30614680435E+03  0.00000000000E+00 0. -1.
          1    1    5    5  503    0  0.16107215451E+03 -0.89808507841E+02  0.35581689205E+03  0.40076859621E+03  0.00000000000E+00 0. -1.
         -2    1    5    5    0  503  0.89293680354E+02 -0.12134842701E+03  0.22596582963E+03  0.27158674167E+03  0.00000000000E+00 0.  1.
         -3    1    6    6    0  502  0.26455179967E+03  0.79732969291E+02 -0.46902560410E+02  0.28025854362E+03  0.00000000000E+00 0.  1.
<mgrwt>
<rscale>  0 0.20670527E+04</rscale>
<asrwt>0</asrwt>
<pdfrwt beam="1">  1        2 0.28373240E+00 0.20670527E+04</pdfrwt>
<pdfrwt beam="2">  1       -2 0.89106106E-01 0.20670527E+04</pdfrwt>
<totfact> 0.81477761E+00</totfact>
</mgrwt>
</event>
<event>
12    1  0.1201209E-007  0.1414618E+04  0.7818608E-02  0.8943305E-01
         -1   -1    0    0    0  501 -0.00000000000E+00  0.00000000000E+00  0.65554123795E+03  0.65554123795E+03  0.00000000000E+00 0.  1.
          1   -1    0    0  501    0  0.00000000000E+00 -0.00000000000E+00 -0.76316478882E+03  0.76316478882E+03  0.00000000000E+00 0. -1.
         23    2    1    2    0    0  0.25491221167E+03 -0.29093234356E+03  0.11420097848E+03  0.41389332587E+03  0.92972885928E+02 0.  0.
        254    2    1    2    0    0 -0.25491221167E+03  0.29093234356E+03 -0.22182452935E+03  0.10048127009E+04  0.90045576120E+03 0.  0.
        -24    2    4    4    0    0 -0.85556828892E+00  0.30050554183E+03 -0.51924704473E+03  0.60544087328E+03  0.81466833196E+02 0.  0.
         24    2    4    4    0    0 -0.25405664339E+03 -0.95731982620E+01  0.29742251538E+03  0.39937182762E+03  0.80007998779E+02 0.  0.
         13    1    3    3    0    0  0.24326244873E+03 -0.29259140348E+03  0.96357289437E+02  0.39251888563E+03  0.00000000000E+00 0. -1.
        -13    1    3    3    0    0  0.11649762948E+02  0.16590599171E+01  0.17843689043E+02  0.21374440232E+02  0.00000000000E+00 0.  1.
          2    1    6    6  502    0 -0.13600984936E+02  0.19706392460E+02  0.21183138025E+02  0.31969579785E+02  0.00000000000E+00 0. -1.
          1    1    5    5  503    0 -0.40876854847E+02  0.16689465643E+03 -0.29199293650E+03  0.33879878773E+03  0.00000000000E+00 0. -1.
         -2    1    5    5    0  503  0.40021286558E+02  0.13361088540E+03 -0.22725410823E+03  0.26664208555E+03  0.00000000000E+00 0.  1.
         -1    1    6    6    0  502 -0.24045565845E+03 -0.29279590722E+02  0.27623937735E+03  0.36740224783E+03  0.00000000000E+00 0.  1.
<mgrwt>
<rscale>  0 0.14146180E+04</rscale>
<asrwt>0</asrwt>
<pdfrwt beam="1">  1        1 0.11740997E+00 0.14146180E+04</pdfrwt>
<pdfrwt beam="2">  1       -1 0.10085250E+00 0.14146180E+04</pdfrwt>
<totfact> 0.21705433E+01</totfact>
</mgrwt>
</event>
<event>
12    1  0.1201209E-007  0.2070368E+04  0.7818608E-02  0.8574410E-01
          2   -1    0    0  501    0  0.00000000000E+00  0.00000000000E+00  0.99054399102E+03  0.99054399102E+03  0.00000000000E+00 0. -1.
         -2   -1    0    0    0  501 -0.00000000000E+00 -0.00000000000E+00 -0.10818360779E+04  0.10818360779E+04  0.00000000000E+00 0.  1.
         23    2    1    2    0    0 -0.54906172764E+03  0.17477212553E+03 -0.64435167346E+03  0.86914771953E+03  0.90634445147E+02 0.  0.
        254    2    1    2    0    0  0.54906172764E+03 -0.17477212553E+03  0.55305958656E+03  0.12032323494E+04  0.89993283292E+03 0.  0.
        -24    2    4    4    0    0  0.55500916980E+03 -0.78008472769E+02 -0.67552182442E+02  0.57014585380E+03  0.79890530538E+02 0.  0.
         24    2    4    4    0    0 -0.59474421558E+01 -0.96763652762E+02  0.62061176900E+03  0.63308649562E+03  0.78999788258E+02 0.  0.
         13    1    3    3    0    0 -0.20163070610E+03  0.40208085880E+02 -0.17575546220E+03  0.27048403706E+03  0.00000000000E+00 0. -1.
        -13    1    3    3    0    0 -0.34743102154E+03  0.13456403965E+03 -0.46859621126E+03  0.59866368247E+03  0.00000000000E+00 0.  1.
          4    1    6    6  502    0 -0.23543685759E+02 -0.12820194337E+02  0.57038182737E+02  0.63023938403E+02  0.00000000000E+00 0. -1.
          3    1    5    5  503    0  0.86708943459E+02 -0.65796683377E+01 -0.39754548391E+02  0.95614627694E+02  0.00000000000E+00 0. -1.
         -4    1    5    5    0  503  0.46830022634E+03 -0.71428804432E+02 -0.27797634051E+02  0.47453122611E+03  0.00000000000E+00 0.  1.
         -3    1    6    6    0  502  0.17596243603E+02 -0.83943458425E+02  0.56357358627E+03  0.57006255721E+03  0.00000000000E+00 0.  1.
<mgrwt>
<rscale>  0 0.20703683E+04</rscale>
<asrwt>0</asrwt>
<pdfrwt beam="1">  1        2 0.15239138E+00 0.20703683E+04</pdfrwt>
<pdfrwt beam="2">  1       -2 0.16643632E+00 0.20703683E+04</pdfrwt>
<totfact> 0.53330970E+00</totfact>
</mgrwt>
</event>
<event>
12    1  0.1201209E-007  0.1415253E+04  0.7818608E-02  0.8942851E-01
         -1   -1    0    0    0  501 -0.00000000000E+00  0.00000000000E+00  0.37886867717E+03  0.37886867717E+03  0.00000000000E+00 0.  1.
          1   -1    0    0  501    0  0.00000000000E+00 -0.00000000000E+00 -0.13216596711E+04  0.13216596711E+04  0.00000000000E+00 0. -1.
         23    2    1    2    0    0  0.72780434263E+02 -0.26639686867E+03 -0.64943965465E+03  0.71154062208E+03  0.90851024155E+02 0.  0.
        254    2    1    2    0    0 -0.72780434263E+02  0.26639686867E+03 -0.29335133924E+03  0.98898772614E+03  0.90320398083E+03 0.  0.
        -24    2    4    4    0    0 -0.45033371382E+03  0.19271657182E+03  0.42976066405E+01  0.49609867235E+03  0.78455671720E+02 0.  0.
         24    2    4    4    0    0  0.37755327956E+03  0.73680296857E+02 -0.29764894588E+03  0.49288905380E+03  0.79808892494E+02 0.  0.
         13    1    3    3    0    0  0.66929945762E+02 -0.80350179450E+02 -0.23120800738E+03  0.25375758443E+03  0.00000000000E+00 0.  1.
        -13    1    3    3    0    0  0.58504885018E+01 -0.18604668922E+03 -0.41823164727E+03  0.45778303765E+03  0.00000000000E+00 0. -1.
          2    1    6    6  502    0  0.17256046688E+02  0.10770164362E+02 -0.41953229589E+02  0.46624468475E+02  0.00000000000E+00 0. -1.
          1    1    5    5  503    0 -0.23344504068E+02  0.14339767151E+02 -0.18050548181E+02  0.32808795799E+02  0.00000000000E+00 0. -1.
         -2    1    5    5    0  503 -0.42698920975E+03  0.17837680467E+03  0.22348154822E+02  0.46328987655E+03  0.00000000000E+00 0.  1.
         -1    1    6    6    0  502  0.36029723287E+03  0.62910132495E+02 -0.25569571629E+03  0.44626458532E+03  0.00000000000E+00 0.  1.
<mgrwt>
<rscale>  0 0.14152533E+04</rscale>
<asrwt>0</asrwt>
<pdfrwt beam="1">  1        1 0.20333225E+00 0.14152533E+04</pdfrwt>
<pdfrwt beam="2">  1       -1 0.58287490E-01 0.14152533E+04</pdfrwt>
<totfact> 0.25352326E+01</totfact>
</mgrwt>
</event>
<event>
12    1  0.1201209E-007  0.1661277E+04  0.7818608E-02  0.8783763E-01
         -2   -1    0    0    0  501 -0.00000000000E+00  0.00000000000E+00  0.35475025250E+03  0.35475025250E+03  0.00000000000E+00 0.  1.
          2   -1    0    0  501    0  0.00000000000E+00 -0.00000000000E+00 -0.19449182927E+04  0.19449182927E+04  0.00000000000E+00 0. -1.
         23    2    1    2    0    0 -0.63899341938E+02  0.11580124328E+02 -0.13988819904E+04  0.14033789573E+04  0.91566639914E+02 0.  0.
        254    2    1    2    0    0  0.63899341938E+02 -0.11580124328E+02 -0.19128604979E+03  0.89628958788E+03  0.87322817598E+03 0.  0.
        -24    2    4    4    0    0  0.16476882723E+03 -0.37586866757E+03 -0.27448299605E+03  0.50089726333E+03  0.84446027762E+02 0.  0.
         24    2    4    4    0    0 -0.10086948529E+03  0.36428854324E+03  0.83196946267E+02  0.39539232455E+03  0.80824270147E+02 0.  0.
         13    1    3    3    0    0 -0.74686734789E+02 -0.68674196958E+01 -0.67019612861E+03  0.67437980442E+03  0.00000000000E+00 0.  1.
        -13    1    3    3    0    0  0.10787392851E+02  0.18447544024E+02 -0.72868586176E+03  0.72899915285E+03  0.00000000000E+00 0. -1.
          4    1    6    6  502    0 -0.92137187832E+02  0.33540054618E+03  0.51485211213E+02  0.35161557806E+03  0.00000000000E+00 0. -1.
          1    1    5    5  503    0  0.84441893457E+02 -0.28340706521E+03 -0.17983628507E+03  0.34610849081E+03  0.00000000000E+00 0. -1.
         -2    1    5    5    0  503  0.80326933768E+02 -0.92461602362E+02 -0.94646710983E+02  0.15478877253E+03  0.00000000000E+00 0.  1.
         -3    1    6    6    0  502 -0.87322974550E+01  0.28887997058E+02  0.31711735054E+02  0.43776746487E+02  0.00000000000E+00 0.  1.
<mgrwt>
<rscale>  0 0.16612769E+04</rscale>
<asrwt>0</asrwt>
<pdfrwt beam="1">  1        2 0.29921820E+00 0.16612769E+04</pdfrwt>
<pdfrwt beam="2">  1       -2 0.54576963E-01 0.16612769E+04</pdfrwt>
<totfact> 0.21619725E+01</totfact>
</mgrwt>
</event>
<event>
12    1  0.1201209E-007  0.1275637E+04  0.7818608E-02  0.9049111E-01
          2   -1    0    0  501    0  0.00000000000E+00  0.00000000000E+00  0.57017707208E+03  0.57017707208E+03  0.00000000000E+00 0. -1.
         -2   -1    0    0    0  501 -0.00000000000E+00 -0.00000000000E+00 -0.71348453334E+03  0.71348453334E+03  0.00000000000E+00 0.  1.
         23    2    1    2    0    0  0.19894310485E+03  0.27691114715E+02 -0.26190380477E+03  0.34184551990E+03  0.88992132926E+02 0.  0.
        254    2    1    2    0    0 -0.19894310485E+03 -0.27691114715E+02  0.11859634351E+03  0.94181608552E+03  0.91247317190E+03 0.  0.
        -24    2    4    4    0    0 -0.18956381481E+03  0.13089136383E+03 -0.35803174104E+03  0.43308082116E+03  0.79405799865E+02 0.  0.
         24    2    4    4    0    0 -0.93792900462E+01 -0.15858247855E+03  0.47662808455E+03  0.50873526436E+03  0.80005403805E+02 0.  0.
         13    1    3    3    0    0  0.23761661977E+02  0.21676479043E+02 -0.77092726476E+01  0.33074449479E+02  0.00000000000E+00 0. -1.
        -13    1    3    3    0    0  0.17518144288E+03  0.60146356716E+01 -0.25419453212E+03  0.30877107042E+03  0.00000000000E+00 0.  1.
          4    1    6    6  502    0  0.21185311448E+02 -0.14104654304E+03  0.38121658349E+03  0.40702460399E+03  0.00000000000E+00 0. -1.
          1    1    5    5  503    0 -0.15796294418E+03  0.10154610616E+03 -0.22410190175E+03  0.29237914731E+03  0.00000000000E+00 0. -1.
         -2    1    5    5    0  503 -0.31600870624E+02  0.29345257666E+02 -0.13392983929E+03  0.14070167385E+03  0.00000000000E+00 0.  1.
         -3    1    6    6    0  502 -0.30564601494E+02 -0.17535935507E+02  0.95411501057E+02  0.10171066037E+03  0.00000000000E+00 0.  1.
<mgrwt>
<rscale>  0 0.12756371E+04</rscale>
<asrwt>0</asrwt>
<pdfrwt beam="1">  1        2 0.87719550E-01 0.12756371E+04</pdfrwt>
<pdfrwt beam="2">  1       -2 0.10976685E+00 0.12756371E+04</pdfrwt>
<totfact> 0.34195094E+01</totfact>
</mgrwt>
</event>
<event>
12    1  0.1201209E-007  0.2162790E+04  0.7818608E-02  0.8534077E-01
         -2   -1    0    0    0  501 -0.00000000000E+00  0.00000000000E+00  0.73301546864E+03  0.73301546864E+03  0.00000000000E+00 0.  1.
          2   -1    0    0  501    0  0.00000000000E+00 -0.00000000000E+00 -0.15953485224E+04  0.15953485224E+04  0.00000000000E+00 0. -1.
         23    2    1    2    0    0  0.61955731188E+03  0.19799762760E+03  0.30476718527E+03  0.72440651626E+03  0.93954458872E+02 0.  0.
        254    2    1    2    0    0 -0.61955731188E+03 -0.19799762760E+03 -0.11671002390E+04  0.16039574747E+04  0.88741325755E+03 0.  0.
        -24    2    4    4    0    0  0.17586487656E+03 -0.87189428395E+02 -0.54437694258E+03  0.58456033487E+03  0.82668484083E+02 0.  0.
         24    2    4    4    0    0 -0.79542218844E+03 -0.11080819921E+03 -0.62272329641E+03  0.10193971399E+04  0.80070656285E+02 0.  0.
         13    1    3    3    0    0  0.15816589676E+03  0.38078571083E+02  0.34567795259E+02  0.16631704947E+03  0.00000000000E+00 0. -1.
        -13    1    3    3    0    0  0.46139141512E+03  0.15991905652E+03  0.27019939002E+03  0.55808946679E+03  0.00000000000E+00 0.  1.
          2    1    6    6  502    0 -0.64720957186E+03 -0.11596105952E+03 -0.48535195177E+03  0.81724764565E+03  0.00000000000E+00 0. -1.
          3    1    5    5  503    0  0.15836816220E+03 -0.10231294217E+03 -0.50273530678E+03  0.53692755714E+03  0.00000000000E+00 0. -1.
         -2    1    5    5    0  503  0.17496714366E+02  0.15123513772E+02 -0.41641635799E+02  0.47632777731E+02  0.00000000000E+00 0.  1.
         -1    1    6    6    0  502 -0.14821261658E+03  0.51528603188E+01 -0.13737134464E+03  0.20214949421E+03  0.00000000000E+00 0.  1.
<mgrwt>
<rscale>  0 0.21627900E+04</rscale>
<asrwt>0</asrwt>
<pdfrwt beam="1">  1        2 0.24543824E+00 0.21627900E+04</pdfrwt>
<pdfrwt beam="2">  1       -2 0.11277161E+00 0.21627900E+04</pdfrwt>
<totfact> 0.63624198E+00</totfact>
</mgrwt>
</event>
<event>
12    1  0.1201209E-007  0.1454134E+04  0.7818608E-02  0.8915540E-01
         -1   -1    0    0    0  501 -0.00000000000E+00  0.00000000000E+00  0.41267114051E+03  0.41267114051E+03  0.00000000000E+00 0.  1.
          1   -1    0    0  501    0  0.00000000000E+00 -0.00000000000E+00 -0.12809863310E+04  0.12809863310E+04  0.00000000000E+00 0. -1.
         23    2    1    2    0    0  0.67303942085E+02  0.28666965137E+02 -0.78753625089E+03  0.79611512843E+03  0.90743240680E+02 0.  0.
        254    2    1    2    0    0 -0.67303942085E+02 -0.28666965137E+02 -0.80778939562E+02  0.89754234305E+03  0.89090145638E+03 0.  0.
        -24    2    4    4    0    0  0.20765666037E+03  0.19834735315E+03 -0.33806183890E+03  0.45065625820E+03  0.79638527362E+02 0.  0.
         24    2    4    4    0    0 -0.27496060246E+03 -0.22701431828E+03  0.25728289934E+03  0.44688608484E+03  0.79836388471E+02 0.  0.
         13    1    3    3    0    0  0.75252031183E+02 -0.10049319757E+02 -0.46336818455E+03  0.46954651684E+03  0.00000000000E+00 0. -1.
        -13    1    3    3    0    0 -0.79480890972E+01  0.38716284894E+02 -0.32416806634E+03  0.32656861159E+03  0.00000000000E+00 0.  1.
          4    1    6    6  502    0 -0.25375525672E+03 -0.18535894250E+03  0.24525194954E+03  0.39862035401E+03  0.00000000000E+00 0. -1.
          1    1    5    5  503    0  0.19978507802E+03  0.15393987620E+03 -0.29724793166E+03  0.38983059880E+03  0.00000000000E+00 0. -1.
         -2    1    5    5    0  503  0.78715823485E+01  0.44407476950E+02 -0.40813907239E+02  0.60825659403E+02  0.00000000000E+00 0.  1.
         -3    1    6    6    0  502 -0.21205345739E+02 -0.41655375787E+02  0.12030949795E+02  0.48265730833E+02  0.00000000000E+00 0.  1.
<mgrwt>
<rscale>  0 0.14541335E+04</rscale>
<asrwt>0</asrwt>
<pdfrwt beam="1">  1        1 0.19707481E+00 0.14541335E+04</pdfrwt>
<pdfrwt beam="2">  1       -1 0.63487870E-01 0.14541335E+04</pdfrwt>
<totfact> 0.22802859E+01</totfact>
</mgrwt>
</event>
<event>
12    1  0.1201209E-007  0.2892846E+04  0.7818608E-02  0.8275009E-01
         -2   -1    0    0    0  501 -0.00000000000E+00  0.00000000000E+00  0.14366032591E+04  0.14366032591E+04  0.00000000000E+00 0. -1.
          2   -1    0    0  501    0  0.00000000000E+00 -0.00000000000E+00 -0.14563099736E+04  0.14563099736E+04  0.00000000000E+00 0.  1.
         23    2    1    2    0    0  0.62963913490E+03 -0.87085223809E+03  0.73581149823E+03  0.13059702493E+04  0.96491814870E+02 0.  0.
        254    2    1    2    0    0 -0.62963913490E+03  0.87085223809E+03 -0.75551821275E+03  0.15869429834E+04  0.89036576861E+03 0.  0.
        -24    2    4    4    0    0 -0.70147824264E+03  0.38953787839E+03 -0.73883759987E+03  0.10935920384E+04  0.79063670274E+02 0.  0.
         24    2    4    4    0    0  0.71839107738E+02  0.48131435971E+03 -0.16680612880E+02  0.49335094495E+03  0.79325543008E+02 0.  0.
         13    1    3    3    0    0  0.44716675835E+03 -0.68850023206E+03  0.55704863814E+03  0.99211585240E+03  0.00000000000E+00 0. -1.
        -13    1    3    3    0    0  0.18247237655E+03 -0.18235200603E+03  0.17876286009E+03  0.31385439691E+03  0.00000000000E+00 0.  1.
          2    1    6    6  502    0  0.88870122546E+02  0.42653046875E+03 -0.15659568284E+02  0.43597174396E+03  0.00000000000E+00 0. -1.
          3    1    5    5  503    0 -0.61124174267E+03  0.36744437715E+03 -0.64621131236E+03  0.96240370869E+03  0.00000000000E+00 0. -1.
         -4    1    5    5    0  503 -0.90236499967E+02  0.22093501237E+02 -0.92626287507E+02  0.13118832974E+03  0.00000000000E+00 0.  1.
         -1    1    6    6    0  502 -0.17031014808E+02  0.54783890959E+02 -0.10210445957E+01  0.57379200989E+02  0.00000000000E+00 0.  1.
<mgrwt>
<rscale>  0 0.28928461E+04</rscale>
<asrwt>0</asrwt>
<pdfrwt beam="1">  1        2 0.22404769E+00 0.28928461E+04</pdfrwt>
<pdfrwt beam="2">  1       -2 0.22101589E+00 0.28928461E+04</pdfrwt>
<totfact> 0.11302010E+00</totfact>
</mgrwt>
</event>
<event>
12    1  0.1201209E-007  0.1408854E+04  0.7818608E-02  0.8947434E-01
         -2   -1    0    0    0  501 -0.00000000000E+00  0.00000000000E+00  0.63328892950E+03  0.63328892950E+03  0.00000000000E+00 0.  1.
          2   -1    0    0  501    0  0.00000000000E+00 -0.00000000000E+00 -0.78355634193E+03  0.78355634193E+03  0.00000000000E+00 0. -1.
         23    2    1    2    0    0  0.16088851503E+03 -0.24724137781E+03 -0.33351474747E+03  0.45464236613E+03  0.91946621083E+02 0.  0.
        254    2    1    2    0    0 -0.16088851503E+03  0.24724137781E+03  0.18324733504E+03  0.96220290529E+03  0.89735245694E+03 0.  0.
        -24    2    4    4    0    0 -0.30941951992E+03  0.13791427223E+03 -0.28695948512E+03  0.45104503309E+03  0.79593278507E+02 0.  0.
         24    2    4    4    0    0  0.14853100489E+03  0.10932710558E+03  0.47020682016E+03  0.51115787220E+03  0.78575067021E+02 0.  0.
         11    1    3    3    0    0  0.15125041767E+03 -0.19873648528E+03 -0.31463832243E+03  0.40170904068E+03  0.00000000000E+00 0. -1.
        -11    1    3    3    0    0  0.96380973575E+01 -0.48504892536E+02 -0.18876425046E+02  0.52933325449E+02  0.00000000000E+00 0.  1.
          4    1    6    6  502    0  0.10881777978E+03  0.11415303611E+03  0.40542434310E+03  0.43501853159E+03  0.00000000000E+00 0. -1.
          1    1    5    5  503    0 -0.27391897242E+03  0.11773964116E+03 -0.28114432605E+03  0.40980038875E+03  0.00000000000E+00 0. -1.
         -4    1    5    5    0  503 -0.35500547496E+02  0.20174631075E+02 -0.58151590721E+01  0.41244644338E+02  0.00000000000E+00 0.  1.
         -3    1    6    6    0  502  0.39713225108E+02 -0.48259305349E+01  0.64782477068E+02  0.76139340613E+02  0.00000000000E+00 0.  1.
<mgrwt>
<rscale>  0 0.14088542E+04</rscale>
<asrwt>0</asrwt>
<pdfrwt beam="1">  1        2 0.12054713E+00 0.14088542E+04</pdfrwt>
<pdfrwt beam="2">  1       -2 0.97429067E-01 0.14088542E+04</pdfrwt>
<totfact> 0.30261726E+01</totfact>
</mgrwt>
</event>
<event>
12    1  0.1201209E-007  0.1272320E+04  0.7818608E-02  0.9051808E-01
          2   -1    0    0  501    0  0.00000000000E+00  0.00000000000E+00  0.30205591505E+04  0.30205591505E+04  0.00000000000E+00 0. -1.
         -2   -1    0    0    0  501 -0.00000000000E+00 -0.00000000000E+00 -0.13398173540E+03  0.13398173540E+03  0.00000000000E+00 0.  1.
         23    2    1    2    0    0 -0.13027653334E+03  0.25894753088E+03  0.44975913639E+03  0.54275204635E+03  0.90943411902E+02 0.  0.
        254    2    1    2    0    0  0.13027653334E+03 -0.25894753088E+03  0.24368182787E+04  0.26117888396E+04  0.89405358904E+03 0.  0.
        -24    2    4    4    0    0 -0.29849800761E+03 -0.37759757594E+03  0.12577161399E+04  0.13490528489E+04  0.80079402262E+02 0.  0.
         24    2    4    4    0    0  0.42877454094E+03  0.11865004506E+03  0.11791021388E+04  0.12627359907E+04  0.79340331419E+02 0.  0.
         11    1    3    3    0    0 -0.15264308094E+02  0.28399687300E+01  0.41399929879E+01  0.16068729444E+02  0.00000000000E+00 0. -1.
        -11    1    3    3    0    0 -0.11501222524E+03  0.25610756215E+03  0.44561914340E+03  0.52668331691E+03  0.00000000000E+00 0.  1.
          4    1    6    6  502    0  0.14657065314E+02  0.18257636685E+02  0.96341631714E+02  0.99145755644E+02  0.00000000000E+00 0. -1.
          1    1    5    5  503    0 -0.51885982728E+02 -0.26395857791E+02  0.12975784376E+03  0.14221812307E+03  0.00000000000E+00 0. -1.
         -2    1    5    5    0  503 -0.24661202488E+03 -0.35120171815E+03  0.11279582961E+04  0.12068347258E+04  0.00000000000E+00 0.  1.
         -3    1    6    6    0  502  0.41411747563E+03  0.10039240837E+03  0.10827605071E+04  0.11635902350E+04  0.00000000000E+00 0.  1.
<mgrwt>
<rscale>  0 0.12723203E+04</rscale>
<asrwt>0</asrwt>
<pdfrwt beam="1">  1        2 0.46470136E+00 0.12723203E+04</pdfrwt>
<pdfrwt beam="2">  1       -2 0.20612577E-01 0.12723203E+04</pdfrwt>
<totfact> 0.34062650E+01</totfact>
</mgrwt>
</event>
<event>
12    1  0.1201209E-007  0.2068367E+04  0.7818608E-02  0.8575307E-01
         -2   -1    0    0    0  501 -0.00000000000E+00  0.00000000000E+00  0.69424149698E+03  0.69424149698E+03  0.00000000000E+00 0. -1.
          2   -1    0    0  501    0  0.00000000000E+00 -0.00000000000E+00 -0.15405810938E+04  0.15405810938E+04  0.00000000000E+00 0.  1.
         23    2    1    2    0    0 -0.59848338456E+03 -0.51093739974E+03 -0.65180787448E+03  0.10270921572E+04  0.10404521189E+03 0.  0.
        254    2    1    2    0    0  0.59848338456E+03  0.51093739974E+03 -0.19453172230E+03  0.12077304335E+04  0.89528253699E+03 0.  0.
        -24    2    4    4    0    0 -0.15501603525E+03  0.19097219731E+03 -0.27925884059E+03  0.38050810741E+03  0.79376120030E+02 0.  0.
         24    2    4    4    0    0  0.75349941980E+03  0.31996520243E+03  0.84727118286E+02  0.82722232611E+03  0.83540324632E+02 0.  0.
         11    1    3    3    0    0 -0.26669992898E+03 -0.27119030475E+03 -0.36595386373E+03  0.52782124236E+03  0.00000000000E+00 0. -1.
        -11    1    3    3    0    0 -0.33178345557E+03 -0.23974709499E+03 -0.28585401075E+03  0.49927091484E+03  0.00000000000E+00 0.  1.
          4    1    6    6  502    0  0.66387377045E+03  0.25291539265E+03  0.63038846691E+02  0.71320997969E+03  0.00000000000E+00 0. -1.
          3    1    5    5  503    0 -0.11173560223E+03  0.16932100529E+03 -0.25650749511E+03  0.32703293823E+03  0.00000000000E+00 0. -1.
         -4    1    5    5    0  503 -0.43280433018E+02  0.21651192019E+02 -0.22751345472E+02  0.53475169180E+02  0.00000000000E+00 0.  1.
         -1    1    6    6    0  502  0.89625649351E+02  0.67049809779E+02  0.21688271595E+02  0.11401234643E+03  0.00000000000E+00 0.  1.
<mgrwt>
<rscale>  0 0.20683668E+04</rscale>
<asrwt>0</asrwt>
<pdfrwt beam="1">  1        2 0.23701248E+00 0.20683668E+04</pdfrwt>
<pdfrwt beam="2">  1       -2 0.10680638E+00 0.20683668E+04</pdfrwt>
<totfact> 0.78505817E+00</totfact>
</mgrwt>
</event>
<event>
12    1  0.1201209E-007  0.1911819E+04  0.7818608E-02  0.8648996E-01
         -2   -1    0    0    0  501 -0.00000000000E+00  0.00000000000E+00  0.46289928358E+03  0.46289928358E+03  0.00000000000E+00 0.  1.
          2   -1    0    0  501    0  0.00000000000E+00 -0.00000000000E+00 -0.19739991381E+04  0.19739991381E+04  0.00000000000E+00 0. -1.
         23    2    1    2    0    0 -0.95384491601E+02  0.50831322400E+03 -0.12737469862E+04  0.13776600231E+04  0.89639386392E+02 0.  0.
        254    2    1    2    0    0  0.95384491601E+02 -0.50831322400E+03 -0.23735286828E+03  0.10592383985E+04  0.89340308140E+03 0.  0.
        -24    2    4    4    0    0  0.46215800375E+03 -0.11106191304E+03 -0.68198925843E+02  0.48695997640E+03  0.80957743075E+02 0.  0.
         24    2    4    4    0    0 -0.36677351215E+03 -0.39725131095E+03 -0.16915394244E+03  0.57227842211E+03  0.80982238132E+02 0.  0.
         11    1    3    3    0    0  0.57874100710E+01  0.68072269454E+02 -0.11210904345E+03  0.13128505477E+03  0.00000000000E+00 0.  1.
        -11    1    3    3    0    0 -0.10117190167E+03  0.44024095454E+03 -0.11616379428E+04  0.12463749684E+04  0.00000000000E+00 0. -1.
          4    1    6    6  502    0 -0.86974711258E+02 -0.49467751596E+02 -0.38187589461E+02  0.10709785635E+03  0.00000000000E+00 0. -1.
          1    1    5    5  503    0  0.18379749302E+01  0.51118383327E+01 -0.60905962113E+01  0.81611521977E+01  0.00000000000E+00 0. -1.
         -2    1    5    5    0  503  0.46032002882E+03 -0.11617375138E+03 -0.62108329632E+02  0.47879882420E+03  0.00000000000E+00 0.  1.
         -1    1    6    6    0  502 -0.27979880089E+03 -0.34778355936E+03 -0.13096635298E+03  0.46518056575E+03  0.00000000000E+00 0.  1.
<mgrwt>
<rscale>  0 0.19118188E+04</rscale>
<asrwt>0</asrwt>
<pdfrwt beam="1">  1        2 0.30369217E+00 0.19118188E+04</pdfrwt>
<pdfrwt beam="2">  1       -2 0.71215275E-01 0.19118188E+04</pdfrwt>
<totfact> 0.11569124E+01</totfact>
</mgrwt>
</event>
<event>
12    1  0.1201209E-007  0.3247065E+04  0.7818608E-02  0.8176497E-01
          2   -1    0    0  501    0  0.00000000000E+00  0.00000000000E+00  0.27951240765E+04  0.27951240765E+04  0.00000000000E+00 0. -1.
         -2   -1    0    0    0  501 -0.00000000000E+00 -0.00000000000E+00 -0.94301991423E+03  0.94301991423E+03  0.00000000000E+00 0.  1.
         23    2    1    2    0    0 -0.91297597433E+03  0.11761507592E+04  0.67635366394E+03  0.16378768716E+04  0.91272282968E+02 0.  0.
        254    2    1    2    0    0  0.91297597433E+03 -0.11761507592E+04  0.11757504983E+04  0.21002671192E+04  0.90104217415E+03 0.  0.
        -24    2    4    4    0    0 -0.12909636117E+01 -0.65320183636E+03  0.27889317600E+03  0.71465587847E+03  0.79229510908E+02 0.  0.
         24    2    4    4    0    0  0.91426693794E+03 -0.52294892281E+03  0.89685732232E+03  0.13856112407E+04  0.78777180021E+02 0.  0.
         13    1    3    3    0    0 -0.89024433571E+03  0.11433008675E+04  0.64077211969E+03  0.15843802449E+04  0.00000000000E+00 0. -1.
        -13    1    3    3    0    0 -0.22731638617E+02  0.32849891643E+02  0.35581544254E+02  0.53496626685E+02  0.00000000000E+00 0.  1.
          4    1    6    6  502    0  0.88529328385E+03 -0.48827537794E+03  0.85854030118E+03  0.13263666506E+04  0.00000000000E+00 0. -1.
          3    1    5    5  503    0 -0.28113463520E+02 -0.22585818514E+03  0.12491650808E+03  0.25962746507E+03  0.00000000000E+00 0. -1.
         -4    1    5    5    0  503  0.26822499908E+02 -0.42734365122E+03  0.15397666792E+03  0.45502841340E+03  0.00000000000E+00 0.  1.
         -3    1    6    6    0  502  0.28973654092E+02 -0.34673544868E+02  0.38317021136E+02  0.59244590081E+02  0.00000000000E+00 0.  1.
<mgrwt>
<rscale>  0 0.32470649E+04</rscale>
<asrwt>0</asrwt>
<pdfrwt beam="1">  1        2 0.43001909E+00 0.32470649E+04</pdfrwt>
<pdfrwt beam="2">  1       -2 0.14507999E+00 0.32470649E+04</pdfrwt>
<totfact> 0.63868854E-01</totfact>
</mgrwt>
</event>
<event>
12    1  0.1201209E-007  0.2034255E+04  0.7818608E-02  0.8590771E-01
         -2   -1    0    0    0  501 -0.00000000000E+00  0.00000000000E+00  0.10583152913E+04  0.10583152913E+04  0.00000000000E+00 0. -1.
          2   -1    0    0  501    0  0.00000000000E+00 -0.00000000000E+00 -0.97754307459E+03  0.97754307459E+03  0.00000000000E+00 0.  1.
         23    2    1    2    0    0  0.46384573989E+03 -0.13554641833E+03 -0.63531364399E+03  0.80396521420E+03  0.95973629063E+02 0.  0.
        254    2    1    2    0    0 -0.46384573989E+03  0.13554641833E+03  0.71608586072E+03  0.12318931517E+04  0.87821186247E+03 0.  0.
        -24    2    4    4    0    0  0.11299051628E+03 -0.24740392261E+03  0.10014954499E+03  0.30155565360E+03  0.83248562506E+02 0.  0.
         24    2    4    4    0    0 -0.57683625617E+03  0.38295034095E+03  0.61593631572E+03  0.93033749812E+03  0.82214872845E+02 0.  0.
         11    1    3    3    0    0  0.35459665316E+03 -0.14411827057E+03 -0.48136350496E+03  0.61499567987E+03  0.00000000000E+00 0.  1.
        -11    1    3    3    0    0  0.10924908673E+03  0.85718522344E+01 -0.15395013903E+03  0.18896953434E+03  0.00000000000E+00 0. -1.
          4    1    6    6  502    0 -0.32777033297E+03  0.17706265091E+03  0.29870983775E+03  0.47750616822E+03  0.00000000000E+00 0. -1.
          3    1    5    5  503    0 -0.13503088928E+01  0.37297795050E+01  0.10810492064E+02  0.11515264996E+02  0.00000000000E+00 0. -1.
         -4    1    5    5    0  503  0.11434082517E+03 -0.25113370212E+03  0.89339052931E+02  0.29004038860E+03  0.00000000000E+00 0.  1.
         -3    1    6    6    0  502 -0.24906592320E+03  0.20588769003E+03  0.31722647797E+03  0.45283132989E+03  0.00000000000E+00 0.  1.
<mgrwt>
<rscale>  0 0.20342554E+04</rscale>
<asrwt>0</asrwt>
<pdfrwt beam="1">  1        2 0.15039124E+00 0.20342554E+04</pdfrwt>
<pdfrwt beam="2">  1       -2 0.16281774E+00 0.20342554E+04</pdfrwt>
<totfact> 0.57938989E+00</totfact>
</mgrwt>
</event>
<event>
12    1  0.1201209E-007  0.1885704E+04  0.7818608E-02  0.8662005E-01
         -1   -1    0    0    0  501 -0.00000000000E+00  0.00000000000E+00  0.65435001287E+03  0.65435001287E+03  0.00000000000E+00 0.  1.
          1   -1    0    0  501    0  0.00000000000E+00 -0.00000000000E+00 -0.13585547524E+04  0.13585547524E+04  0.00000000000E+00 0. -1.
         23    2    1    2    0    0  0.48302348704E+03  0.14371394454E+03  0.28632008153E+03  0.58676742046E+03  0.91386157237E+02 0.  0.
        254    2    1    2    0    0 -0.48302348704E+03 -0.14371394454E+03 -0.99052482105E+03  0.14261373448E+04  0.89373537372E+03 0.  0.
        -24    2    4    4    0    0 -0.43867630544E+03 -0.37277325647E+03 -0.22441904625E+03  0.62223948815E+03  0.73629278185E+02 0.  0.
         24    2    4    4    0    0 -0.44347181601E+02  0.22905931193E+03 -0.76610577480E+03  0.80389785665E+03  0.69991891307E+02 0.  0.
         13    1    3    3    0    0  0.47988795827E+03  0.15191194927E+03  0.28226232054E+03  0.57709766107E+03  0.00000000000E+00 0.  1.
        -13    1    3    3    0    0  0.31355287688E+01 -0.81980047294E+01  0.40577609936E+01  0.96697593809E+01  0.00000000000E+00 0. -1.
          2    1    6    6  502    0 -0.49749080663E+02  0.78918921687E+02 -0.28508165687E+03  0.29995786089E+03  0.00000000000E+00 0. -1.
          3    1    5    5  503    0 -0.66410470304E+02 -0.53277404917E+02 -0.63268367260E+01  0.85374828278E+02  0.00000000000E+00 0. -1.
         -2    1    5    5    0  503 -0.37226583513E+03 -0.31949585155E+03 -0.21809220952E+03  0.53686465987E+03  0.00000000000E+00 0.  1.
         -1    1    6    6    0  502  0.54018990614E+01  0.15014039024E+03 -0.48102411793E+03  0.50393999576E+03  0.00000000000E+00 0.  1.
<mgrwt>
<rscale>  0 0.18857045E+04</rscale>
<asrwt>0</asrwt>
<pdfrwt beam="1">  1        1 0.20900842E+00 0.18857045E+04</pdfrwt>
<pdfrwt beam="2">  1       -1 0.10066923E+00 0.18857045E+04</pdfrwt>
<totfact> 0.72259544E+00</totfact>
</mgrwt>
</event>
<event>
12    1  0.1201209E-007  0.1374304E+04  0.7818608E-02  0.8972632E-01
          1   -1    0    0  501    0  0.00000000000E+00  0.00000000000E+00  0.18345868787E+04  0.18345868787E+04  0.00000000000E+00 0. -1.
         -1   -1    0    0    0  501 -0.00000000000E+00 -0.00000000000E+00 -0.25737559027E+03  0.25737559027E+03  0.00000000000E+00 0.  1.
         23    2    1    2    0    0  0.57028338334E+02  0.33999225901E+03  0.20988252576E+03  0.41343783894E+03  0.89628145640E+02 0.  0.
        254    2    1    2    0    0 -0.57028338334E+02 -0.33999225901E+03  0.13673287627E+04  0.16785246301E+04  0.91049987415E+03 0.  0.
        -24    2    4    4    0    0  0.11093720994E+03 -0.57015367390E+03  0.52749198216E+03  0.78863600790E+03  0.79477577315E+02 0.  0.
         24    2    4    4    0    0 -0.16796554828E+03  0.23016141489E+03  0.83983678054E+03  0.88988862215E+03  0.73411440412E+02 0.  0.
         13    1    3    3    0    0  0.81560195138E+02  0.26446280530E+03  0.16065704299E+03  0.32000519727E+03  0.00000000000E+00 0.  1.
        -13    1    3    3    0    0 -0.24531856804E+02  0.75529453709E+02  0.49225482764E+02  0.93432641668E+02  0.00000000000E+00 0. -1.
          2    1    6    6  502    0 -0.15980872982E+02  0.49573024560E+02  0.92400397063E+02  0.10606934733E+03  0.00000000000E+00 0. -1.
          1    1    5    5  503    0 -0.67875648306E+01 -0.80804416271E+01  0.31873745975E+01  0.11023789278E+02  0.00000000000E+00 0. -1.
         -2    1    5    5    0  503  0.11772477478E+03 -0.56207323228E+03  0.52430460756E+03  0.77761221862E+03  0.00000000000E+00 0.  1.
         -1    1    6    6    0  502 -0.15198467530E+03  0.18058839033E+03  0.74743638347E+03  0.78381927482E+03  0.00000000000E+00 0.  1.
<mgrwt>
<rscale>  0 0.13743040E+04</rscale>
<asrwt>0</asrwt>
<pdfrwt beam="1">  1        1 0.28224413E+00 0.13743040E+04</pdfrwt>
<pdfrwt beam="2">  1       -1 0.39596246E-01 0.13743040E+04</pdfrwt>
<totfact> 0.23408033E+01</totfact>
</mgrwt>
</event>
<event>
12    1  0.1201209E-007  0.1223686E+04  0.7818608E-02  0.9092373E-01
          2   -1    0    0  501    0  0.00000000000E+00  0.00000000000E+00  0.66660554958E+03  0.66660554958E+03  0.00000000000E+00 0. -1.
         -2   -1    0    0    0  501 -0.00000000000E+00 -0.00000000000E+00 -0.56157912762E+03  0.56157912762E+03  0.00000000000E+00 0.  1.
         23    2    1    2    0    0  0.25056784032E+03  0.88033504699E+02  0.63452013154E+02  0.28825932519E+03  0.92374996817E+02 0.  0.
        254    2    1    2    0    0 -0.25056784032E+03 -0.88033504699E+02  0.41574408802E+02  0.93992535201E+03  0.90066480742E+03 0.  0.
        -24    2    4    4    0    0 -0.15361304951E+03  0.10894680525E+03  0.43592293681E+03  0.48148068150E+03  0.79551646526E+02 0.  0.
         24    2    4    4    0    0 -0.96954790803E+02 -0.19698030995E+03 -0.39434852801E+03  0.45844467050E+03  0.80369648513E+02 0.  0.
         13    1    3    3    0    0  0.31783102369E+02 -0.17089543815E+02 -0.40651829367E+01  0.36314512475E+02  0.00000000000E+00 0.  1.
        -13    1    3    3    0    0  0.21878473795E+03  0.10512304851E+03  0.67517196091E+02  0.25194481272E+03  0.00000000000E+00 0. -1.
          4    1    6    6  502    0 -0.84661602407E+02 -0.20275888926E+03 -0.37764896127E+03  0.43691817546E+03  0.00000000000E+00 0. -1.
          3    1    5    5  503    0 -0.10845348016E+03  0.30021340999E+02  0.21754038227E+03  0.24492295971E+03  0.00000000000E+00 0. -1.
         -4    1    5    5    0  503 -0.45159569355E+02  0.78925464254E+02  0.21838255454E+03  0.23655772179E+03  0.00000000000E+00 0.  1.
         -3    1    6    6    0  502 -0.12293188395E+02  0.57785793078E+01 -0.16699566738E+02  0.21526495046E+02  0.00000000000E+00 0.  1.
<mgrwt>
<rscale>  0 0.12236858E+04</rscale>
<asrwt>0</asrwt>
<pdfrwt beam="1">  1        2 0.10255470E+00 0.12236858E+04</pdfrwt>
<pdfrwt beam="2">  1       -2 0.86396788E-01 0.12236858E+04</pdfrwt>
<totfact> 0.49858677E+01</totfact>
</mgrwt>
</event>
<event>
12    1  0.1201209E-007  0.3862013E+04  0.7818608E-02  0.8032976E-01
         -2   -1    0    0    0  501 -0.00000000000E+00  0.00000000000E+00  0.17489457220E+04  0.17489457220E+04  0.00000000000E+00 0.  1.
          2   -1    0    0  501    0  0.00000000000E+00 -0.00000000000E+00 -0.21320197106E+04  0.21320197106E+04  0.00000000000E+00 0. -1.
         23    2    1    2    0    0 -0.38947879553E+03  0.17756839162E+04 -0.38474278069E+03  0.18603472783E+04  0.90099312182E+02 0.  0.
        254    2    1    2    0    0  0.38947879553E+03 -0.17756839162E+04  0.16687920488E+01  0.20206181544E+04  0.88212688342E+03 0.  0.
        -24    2    4    4    0    0  0.52032779745E+03 -0.55308844014E+03 -0.15302982128E+03  0.77870317055E+03  0.79452263750E+02 0.  0.
         24    2    4    4    0    0 -0.13084900192E+03 -0.12225954761E+04  0.15469861333E+03  0.12419149838E+04  0.80993867914E+02 0.  0.
         11    1    3    3    0    0 -0.29809062216E+03  0.13816292732E+04 -0.33687826421E+03  0.14530121929E+04  0.00000000000E+00 0.  1.
        -11    1    3    3    0    0 -0.91388173373E+02  0.39405464298E+03 -0.47864516475E+02  0.40733508543E+03  0.00000000000E+00 0. -1.
          4    1    6    6  502    0 -0.10795241179E+03 -0.76605074854E+03  0.67549817898E+02  0.77656323017E+03  0.00000000000E+00 0. -1.
          1    1    5    5  503    0  0.22052685047E+03 -0.18727069759E+03 -0.36678677594E+02  0.29162944183E+03  0.00000000000E+00 0. -1.
         -4    1    5    5    0  503  0.29980094699E+03 -0.36581774254E+03 -0.11635114368E+03  0.48707372872E+03  0.00000000000E+00 0.  1.
         -3    1    6    6    0  502 -0.22896590134E+02 -0.45654472754E+03  0.87148795429E+02  0.46535175365E+03  0.00000000000E+00 0.  1.
<mgrwt>
<rscale>  0 0.38620133E+04</rscale>
<asrwt>0</asrwt>
<pdfrwt beam="1">  1        2 0.32800303E+00 0.38620133E+04</pdfrwt>
<pdfrwt beam="2">  1       -2 0.26906857E+00 0.38620133E+04</pdfrwt>
<totfact> 0.22089452E-01</totfact>
</mgrwt>
</event>
<event>
12    1  0.1201209E-007  0.2359080E+04  0.7818608E-02  0.8454984E-01
          2   -1    0    0  501    0  0.00000000000E+00  0.00000000000E+00  0.42135698729E+04  0.42135698729E+04  0.00000000000E+00 0. -1.
         -2   -1    0    0    0  501 -0.00000000000E+00 -0.00000000000E+00 -0.33019848260E+03  0.33019848260E+03  0.00000000000E+00 0.  1.
         23    2    1    2    0    0  0.72524488014E+03 -0.39749321963E+03  0.27539313400E+04  0.28768924428E+04  0.91604072814E+02 0.  0.
        254    2    1    2    0    0 -0.72524488014E+03  0.39749321963E+03  0.11294400503E+04  0.16668759127E+04  0.90490855081E+03 0.  0.
        -24    2    4    4    0    0 -0.49277068464E+03  0.60601514601E+03  0.42588474991E+03  0.89307565303E+03  0.78287910914E+02 0.  0.
         24    2    4    4    0    0 -0.23247419550E+03 -0.20852192637E+03  0.70355530039E+03  0.77380025968E+03  0.79064124790E+02 0.  0.
         13    1    3    3    0    0  0.23227737254E+03 -0.81471187632E+02  0.85484508418E+03  0.88957880491E+03  0.00000000000E+00 0.  1.
        -13    1    3    3    0    0  0.49296750760E+03 -0.31602203200E+03  0.18990862558E+04  0.19873136379E+04  0.00000000000E+00 0. -1.
          4    1    6    6  502    0 -0.20570644466E+03 -0.14740773165E+03  0.59187546628E+03  0.64370858959E+03  0.00000000000E+00 0. -1.
          3    1    5    5  503    0 -0.36619573807E+03  0.47255815768E+03  0.29045617034E+03  0.66466180713E+03  0.00000000000E+00 0. -1.
         -4    1    5    5    0  503 -0.12657494657E+03  0.13345698833E+03  0.13542857958E+03  0.22841384590E+03  0.00000000000E+00 0.  1.
         -3    1    6    6    0  502 -0.26767750839E+02 -0.61114194721E+02  0.11167983411E+03  0.13009167009E+03  0.00000000000E+00 0.  1.
<mgrwt>
<rscale>  0 0.23590798E+04</rscale>
<asrwt>0</asrwt>
<pdfrwt beam="1">  1        2 0.64824148E+00 0.23590798E+04</pdfrwt>
<pdfrwt beam="2">  1       -2 0.50799769E-01 0.23590798E+04</pdfrwt>
<totfact> 0.75279632E-01</totfact>
</mgrwt>
</event>
<event>
12    1  0.1201209E-007  0.1806822E+04  0.7818608E-02  0.8702680E-01
          2   -1    0    0  501    0  0.00000000000E+00  0.00000000000E+00  0.10331180671E+04  0.10331180671E+04  0.00000000000E+00 0. -1.
         -2   -1    0    0    0  501 -0.00000000000E+00 -0.00000000000E+00 -0.78998878242E+03  0.78998878242E+03  0.00000000000E+00 0.  1.
         23    2    1    2    0    0 -0.45590764871E+03  0.42421114054E+03 -0.18117712156E+03  0.65333358007E+03  0.78820946213E+02 0.  0.
        254    2    1    2    0    0  0.45590764871E+03 -0.42421114054E+03  0.42430640621E+03  0.11697732694E+04  0.89472157656E+03 0.  0.
        -24    2    4    4    0    0 -0.16215550996E+03  0.69483844501E+02  0.31110303592E+03  0.36669173933E+03  0.80964922547E+02 0.  0.
         24    2    4    4    0    0  0.61806315867E+03 -0.49369498504E+03  0.11320337029E+03  0.80308153007E+03  0.79925806485E+02 0.  0.
         11    1    3    3    0    0 -0.33705361323E+03  0.31066100392E+03 -0.96512711606E+02  0.46843366772E+03  0.00000000000E+00 0.  1.
        -11    1    3    3    0    0 -0.11885403548E+03  0.11355013662E+03 -0.84664409956E+02  0.18489991236E+03  0.00000000000E+00 0. -1.
          4    1    6    6  502    0  0.38901706143E+03 -0.34089996414E+03  0.10395850461E+03  0.52759305370E+03  0.00000000000E+00 0. -1.
          3    1    5    5  503    0 -0.11526334794E+03  0.54977082912E+02  0.14371530033E+03  0.19225557618E+03  0.00000000000E+00 0. -1.
         -4    1    5    5    0  503 -0.46892162017E+02  0.14506761589E+02  0.16738773559E+03  0.17443616315E+03  0.00000000000E+00 0.  1.
         -3    1    6    6    0  502  0.22904609724E+03 -0.15279502091E+03  0.92448656819E+01  0.27548847637E+03  0.00000000000E+00 0.  1.
<mgrwt>
<rscale>  0 0.18068223E+04</rscale>
<asrwt>0</asrwt>
<pdfrwt beam="1">  1        2 0.15894124E+00 0.18068223E+04</pdfrwt>
<pdfrwt beam="2">  1       -2 0.12153674E+00 0.18068223E+04</pdfrwt>
<totfact> 0.11645793E+01</totfact>
</mgrwt>
</event>
<event>
12    1  0.1201209E-007  0.3050702E+04  0.7818608E-02  0.8229399E-01
         -2   -1    0    0    0  501 -0.00000000000E+00  0.00000000000E+00  0.52300252246E+03  0.52300252246E+03  0.00000000000E+00 0.  1.
          2   -1    0    0  501    0  0.00000000000E+00 -0.00000000000E+00 -0.44487266747E+04  0.44487266747E+04  0.00000000000E+00 0. -1.
         23    2    1    2    0    0  0.10406252293E+04 -0.19570023478E+03 -0.32724292201E+04  0.34407300745E+04  0.92903149159E+02 0.  0.
        254    2    1    2    0    0 -0.10406252293E+04  0.19570023478E+03 -0.65329493217E+03  0.15309991227E+04  0.89216847931E+03 0.  0.
        -24    2    4    4    0    0 -0.85497753265E+03  0.51230460929E+03 -0.55093832685E+03  0.11417813811E+04  0.81786846608E+02 0.  0.
         24    2    4    4    0    0 -0.18564769669E+03 -0.31660437451E+03 -0.10235660532E+03  0.38921774156E+03  0.79436631641E+02 0.  0.
         11    1    3    3    0    0  0.37045523647E+03 -0.96995960888E+02 -0.10686768784E+04  0.11352160892E+04  0.00000000000E+00 0.  1.
        -11    1    3    3    0    0  0.67016999287E+03 -0.98704273894E+02 -0.22037523416E+04  0.23055139853E+04  0.00000000000E+00 0. -1.
          2    1    6    6  502    0 -0.54857105504E+01 -0.28780288906E+01 -0.16170362531E+02  0.17316370721E+02  0.00000000000E+00 0. -1.
          1    1    5    5  503    0 -0.74053012252E+03  0.43475911593E+03 -0.44215289332E+03  0.96586724363E+03  0.00000000000E+00 0. -1.
         -2    1    5    5    0  503 -0.11444741013E+03  0.77545493364E+02 -0.10878543353E+03  0.17591413751E+03  0.00000000000E+00 0.  1.
         -1    1    6    6    0  502 -0.18016198614E+03 -0.31372634562E+03 -0.86186242787E+02  0.37190137084E+03  0.00000000000E+00 0.  1.
<mgrwt>
<rscale>  0 0.30507017E+04</rscale>
<asrwt>0</asrwt>
<pdfrwt beam="1">  1        2 0.68441950E+00 0.30507017E+04</pdfrwt>
<pdfrwt beam="2">  1       -2 0.80461925E-01 0.30507017E+04</pdfrwt>
<totfact> 0.16030350E-01</totfact>
</mgrwt>
</event>
<event>
12    1  0.1201209E-007  0.1322362E+04  0.7818608E-02  0.9012018E-01
         -1   -1    0    0    0  501 -0.00000000000E+00  0.00000000000E+00  0.15294753582E+03  0.15294753582E+03  0.00000000000E+00 0.  1.
          1   -1    0    0  501    0  0.00000000000E+00 -0.00000000000E+00 -0.28582364981E+04  0.28582364981E+04  0.00000000000E+00 0. -1.
         23    2    1    2    0    0 -0.30005914692E+03  0.91102454595E+02 -0.11146597585E+04  0.11615046688E+04  0.91058055912E+02 0.  0.
        254    2    1    2    0    0  0.30005914692E+03 -0.91102454595E+02 -0.15906292037E+04  0.18496793650E+04  0.89043660130E+03 0.  0.
        -24    2    4    4    0    0  0.58748281135E+03 -0.13611561935E+03 -0.12758120853E+04  0.14132468577E+04  0.76854982568E+02 0.  0.
         24    2    4    4    0    0 -0.28742366443E+03  0.45013164753E+02 -0.31481711834E+03  0.43643250729E+03  0.82005899449E+02 0.  0.
         11    1    3    3    0    0 -0.26130066438E+03  0.57883228336E+02 -0.82334659847E+03  0.86575292465E+03  0.00000000000E+00 0. -1.
        -11    1    3    3    0    0 -0.38758482543E+02  0.33219226259E+02 -0.29131316007E+03  0.29575174420E+03  0.00000000000E+00 0.  1.
          2    1    6    6  502    0 -0.15948595600E+03  0.63440759980E+02 -0.19989325295E+03  0.26347260344E+03  0.00000000000E+00 0. -1.
          1    1    5    5  503    0  0.17354880656E+03 -0.54485724479E+02 -0.31234889728E+03  0.36145499867E+03  0.00000000000E+00 0. -1.
         -2    1    5    5    0  503  0.41393400479E+03 -0.81629894869E+02 -0.96346318807E+03  0.10517918591E+04  0.00000000000E+00 0.  1.
         -1    1    6    6    0  502 -0.12793770843E+03 -0.18427595227E+02 -0.11492386539E+03  0.17295990385E+03  0.00000000000E+00 0.  1.
<mgrwt>
<rscale>  0 0.13223619E+04</rscale>
<asrwt>0</asrwt>
<pdfrwt beam="1">  1        1 0.43972867E+00 0.13223619E+04</pdfrwt>
<pdfrwt beam="2">  1       -1 0.23530391E-01 0.13223619E+04</pdfrwt>
<totfact> 0.11630499E+01</totfact>
</mgrwt>
</event>
<event>
12    1  0.1201209E-007  0.1799386E+04  0.7818608E-02  0.8706626E-01
         -2   -1    0    0    0  501 -0.00000000000E+00  0.00000000000E+00  0.51833540890E+03  0.51833540890E+03  0.00000000000E+00 0.  1.
          2   -1    0    0  501    0  0.00000000000E+00 -0.00000000000E+00 -0.15616279709E+04  0.15616279709E+04  0.00000000000E+00 0. -1.
         23    2    1    2    0    0 -0.94368387614E+02  0.23995651923E+03 -0.11000995834E+04  0.11333400058E+04  0.88067880479E+02 0.  0.
        254    2    1    2    0    0  0.94368387614E+02 -0.23995651923E+03  0.56807021371E+02  0.94662337407E+03  0.90905679193E+03 0.  0.
        -24    2    4    4    0    0 -0.16198879144E+03 -0.24033259652E+03 -0.34855758509E+03  0.46029932854E+03  0.79893405394E+02 0.  0.
         24    2    4    4    0    0  0.25635717906E+03  0.37607729397E+00  0.40536460646E+03  0.48632404553E+03  0.80445437422E+02 0.  0.
         13    1    3    3    0    0 -0.10217834434E+03  0.14706449961E+03 -0.70399872108E+03  0.72641763496E+03  0.00000000000E+00 0.  1.
        -13    1    3    3    0    0  0.78099567218E+01  0.92892019620E+02 -0.39610086234E+03  0.40692237082E+03  0.00000000000E+00 0. -1.
          2    1    6    6  502    0  0.28038131798E+02  0.14897111557E+02  0.98978094109E+02  0.10394577375E+03  0.00000000000E+00 0. -1.
          1    1    5    5  503    0 -0.30045772206E+02 -0.10815658072E+03 -0.15447151619E+03  0.19095036971E+03  0.00000000000E+00 0. -1.
         -2    1    5    5    0  503 -0.13194301924E+03 -0.13217601581E+03 -0.19408606890E+03  0.26934895883E+03  0.00000000000E+00 0.  1.
         -1    1    6    6    0  502  0.22831904726E+03 -0.14521034263E+02  0.30638651235E+03  0.38237827178E+03  0.00000000000E+00 0.  1.
<mgrwt>
<rscale>  0 0.17993855E+04</rscale>
<asrwt>0</asrwt>
<pdfrwt beam="1">  1        2 0.24025046E+00 0.17993855E+04</pdfrwt>
<pdfrwt beam="2">  1       -2 0.79743909E-01 0.17993855E+04</pdfrwt>
<totfact> 0.15403335E+01</totfact>
</mgrwt>
</event>
<event>
12    1  0.1201209E-007  0.1372502E+04  0.7818608E-02  0.8973967E-01
          2   -1    0    0  501    0  0.00000000000E+00  0.00000000000E+00  0.16511718730E+04  0.16511718730E+04  0.00000000000E+00 0. -1.
         -2   -1    0    0    0  501 -0.00000000000E+00 -0.00000000000E+00 -0.28521589464E+03  0.28521589464E+03  0.00000000000E+00 0.  1.
         23    2    1    2    0    0 -0.97515495559E+02 -0.23352365081E+03  0.78934788826E+03  0.83366445735E+03  0.88790604151E+02 0.  0.
        254    2    1    2    0    0  0.97515495559E+02  0.23352365081E+03  0.57660809009E+03  0.11027233103E+04  0.90525092770E+03 0.  0.
        -24    2    4    4    0    0  0.38896825646E+02 -0.59122158903E+02  0.74395695157E+03  0.75165572262E+03  0.80659697696E+02 0.  0.
         24    2    4    4    0    0  0.58618669913E+02  0.29264580971E+03 -0.16734886148E+03  0.35106758766E+03  0.78518095109E+02 0.  0.
         13    1    3    3    0    0 -0.81273421475E+02 -0.89289552565E+02  0.41338124048E+03  0.43065304274E+03  0.00000000000E+00 0.  1.
        -13    1    3    3    0    0 -0.16242074084E+02 -0.14423409824E+03  0.37596664778E+03  0.40301141461E+03  0.00000000000E+00 0. -1.
          2    1    6    6  502    0  0.77497821017E+02  0.21039009261E+03 -0.12029844475E+03  0.25444374455E+03  0.00000000000E+00 0. -1.
          3    1    5    5  503    0 -0.16296309629E+02 -0.31175261858E+01  0.39768626779E+02  0.43090977628E+02  0.00000000000E+00 0. -1.
         -4    1    5    5    0  503  0.55193135275E+02 -0.56004632717E+02  0.70418832479E+03  0.70856474499E+03  0.00000000000E+00 0.  1.
         -1    1    6    6    0  502 -0.18879151103E+02  0.82255717101E+02 -0.47050416729E+02  0.96623843106E+02  0.00000000000E+00 0.  1.
<mgrwt>
<rscale>  0 0.13725020E+04</rscale>
<asrwt>0</asrwt>
<pdfrwt beam="1">  1        2 0.25402644E+00 0.13725020E+04</pdfrwt>
<pdfrwt beam="2">  1       -2 0.43879369E-01 0.13725020E+04</pdfrwt>
<totfact> 0.50141054E+01</totfact>
</mgrwt>
</event>
<event>
12    1  0.1201209E-007  0.1112166E+04  0.7818608E-02  0.9193414E-01
          1   -1    0    0  501    0  0.00000000000E+00  0.00000000000E+00  0.63114743593E+03  0.63114743593E+03  0.00000000000E+00 0.  1.
         -1   -1    0    0    0  501 -0.00000000000E+00 -0.00000000000E+00 -0.48994638015E+03  0.48994638015E+03  0.00000000000E+00 0. -1.
         23    2    1    2    0    0  0.64344837578E+02 -0.14194948397E+03  0.99472939017E+02  0.20567176873E+03  0.90089381918E+02 0.  0.
        254    2    1    2    0    0 -0.64344837578E+02  0.14194948397E+03  0.41728116767E+02  0.91542204735E+03  0.90109176832E+03 0.  0.
        -24    2    4    4    0    0  0.29561454378E+03  0.28368986451E+03 -0.18878485246E+03  0.45809651008E+03  0.79654217173E+02 0.  0.
         24    2    4    4    0    0 -0.35995938136E+03 -0.14174038054E+03  0.23051296922E+03  0.45732553727E+03  0.79682660323E+02 0.  0.
         13    1    3    3    0    0  0.44496381292E+02 -0.14733504157E+02  0.75643268808E+01  0.47478659775E+02  0.00000000000E+00 0. -1.
        -13    1    3    3    0    0  0.19848456285E+02 -0.12721597981E+03  0.91908612136E+02  0.15819310896E+03  0.00000000000E+00 0.  1.
          4    1    6    6  502    0 -0.79271426080E+02 -0.10868672347E+02  0.18841147671E+02  0.82201434762E+02  0.00000000000E+00 0. -1.
          1    1    5    5  503    0  0.70413389064E+02  0.25816668260E+02 -0.35873044666E+02  0.83134956866E+02  0.00000000000E+00 0. -1.
         -2    1    5    5    0  503  0.22520115472E+03  0.25787319625E+03 -0.15291180779E+03  0.37496155322E+03  0.00000000000E+00 0.  1.
         -3    1    6    6    0  502 -0.28068795528E+03 -0.13087170819E+03  0.21167182155E+03  0.37512410251E+03  0.00000000000E+00 0.  1.
<mgrwt>
<rscale>  0 0.11121662E+04</rscale>
<asrwt>0</asrwt>
<pdfrwt beam="1">  1        1 0.97099606E-01 0.11121662E+04</pdfrwt>
<pdfrwt beam="2">  1       -1 0.75376366E-01 0.11121662E+04</pdfrwt>
<totfact> 0.56064538E+01</totfact>
</mgrwt>
</event>
<event>
12    1  0.1201209E-007  0.1497934E+04  0.7818608E-02  0.8885828E-01
          1   -1    0    0  501    0  0.00000000000E+00  0.00000000000E+00  0.34631964168E+03  0.34631964168E+03  0.00000000000E+00 0. -1.
         -1   -1    0    0    0  501 -0.00000000000E+00 -0.00000000000E+00 -0.16197511212E+04  0.16197511212E+04  0.00000000000E+00 0.  1.
         23    2    1    2    0    0 -0.36821008286E+03  0.23082363833E+03 -0.18437115148E+03  0.48070767430E+03  0.90713447165E+02 0.  0.
        254    2    1    2    0    0  0.36821008286E+03 -0.23082363833E+03 -0.10890603280E+04  0.14853630886E+04  0.91180748497E+03 0.  0.
        -24    2    4    4    0    0  0.36027905283E+02  0.31136349523E+03 -0.17128063225E+03  0.36597445971E+03  0.79718342036E+02 0.  0.
         24    2    4    4    0    0  0.33218217758E+03 -0.54218713357E+03 -0.91777969578E+03  0.11193886289E+04  0.79996534330E+02 0.  0.
         13    1    3    3    0    0 -0.53115392570E+02  0.26579043395E+01 -0.88424519296E+01  0.53911949876E+02  0.00000000000E+00 0.  1.
        -13    1    3    3    0    0 -0.31509469029E+03  0.22816573399E+03 -0.17552869955E+03  0.42679572442E+03  0.00000000000E+00 0. -1.
          4    1    6    6  502    0  0.11757124759E+03 -0.15590240180E+03 -0.22784743964E+03  0.30007167960E+03  0.00000000000E+00 0. -1.
          1    1    5    5  503    0  0.55320484129E+01 -0.28414010513E+01 -0.92288216903E+01  0.11128713734E+02  0.00000000000E+00 0. -1.
         -2    1    5    5    0  503  0.30495856870E+02  0.31420489629E+03 -0.16205181056E+03  0.35484574598E+03  0.00000000000E+00 0.  1.
         -3    1    6    6    0  502  0.21461092999E+03 -0.38628473177E+03 -0.68993225615E+03  0.81931694926E+03  0.00000000000E+00 0.  1.
<mgrwt>
<rscale>  0 0.14979341E+04</rscale>
<asrwt>0</asrwt>
<pdfrwt beam="1">  1        1 0.53279945E-01 0.14979341E+04</pdfrwt>
<pdfrwt beam="2">  1       -1 0.24919248E+00 0.14979341E+04</pdfrwt>
<totfact> 0.49617854E+00</totfact>
</mgrwt>
</event>
<event>
12    1  0.1201209E-007  0.2007938E+04  0.7818608E-02  0.8602918E-01
         -1   -1    0    0    0  501 -0.00000000000E+00  0.00000000000E+00  0.39335629981E+03  0.39335629981E+03  0.00000000000E+00 0.  1.
          1   -1    0    0  501    0  0.00000000000E+00 -0.00000000000E+00 -0.25624456431E+04  0.25624456431E+04  0.00000000000E+00 0. -1.
         23    2    1    2    0    0  0.36325465484E+02 -0.24049738895E+03 -0.19873097996E+04  0.20042245046E+04  0.91417131131E+02 0.  0.
        254    2    1    2    0    0 -0.36325465484E+02  0.24049738895E+03 -0.18177954368E+03  0.95157743826E+03  0.90182996456E+03 0.  0.
        -24    2    4    4    0    0  0.32650639484E+01 -0.19935490853E+03 -0.39909037871E+03  0.45291016462E+03  0.78111757386E+02 0.  0.
         24    2    4    4    0    0 -0.39590529432E+02  0.43985229748E+03  0.21731083502E+03  0.49866727364E+03  0.80047468172E+02 0.  0.
         11    1    3    3    0    0  0.66945887934E+02 -0.14906063664E+03 -0.12430983562E+04  0.12537919878E+04  0.00000000000E+00 0.  1.
        -11    1    3    3    0    0 -0.30620422451E+02 -0.91436752313E+02 -0.74421144336E+03  0.75043251686E+03  0.00000000000E+00 0. -1.
          2    1    6    6  502    0 -0.12492302932E+02  0.24027981368E+03  0.74871957693E+02  0.25198463553E+03  0.00000000000E+00 0. -1.
          3    1    5    5  503    0  0.12568484598E+02 -0.20353477274E+03 -0.38119318214E+03  0.43231078246E+03  0.00000000000E+00 0. -1.
         -4    1    5    5    0  503 -0.93034206496E+01  0.41798642060E+01 -0.17897196561E+02  0.20599382159E+02  0.00000000000E+00 0.  1.
         -1    1    6    6    0  502 -0.27098226501E+02  0.19957248381E+03  0.14243887733E+03  0.24668263812E+03  0.00000000000E+00 0.  1.
<mgrwt>
<rscale>  0 0.20079384E+04</rscale>
<asrwt>0</asrwt>
<pdfrwt beam="1">  1        1 0.39422240E+00 0.20079384E+04</pdfrwt>
<pdfrwt beam="2">  1       -1 0.60516354E-01 0.20079384E+04</pdfrwt>
<totfact> 0.31482057E+00</totfact>
</mgrwt>
</event>
<event>
12    1  0.1201209E-007  0.1666672E+04  0.7818608E-02  0.8780604E-01
         -1   -1    0    0    0  501 -0.00000000000E+00  0.00000000000E+00  0.49163349351E+03  0.49163349351E+03  0.00000000000E+00 0.  1.
          1   -1    0    0  501    0  0.00000000000E+00 -0.00000000000E+00 -0.14125337911E+04  0.14125337911E+04  0.00000000000E+00 0. -1.
         23    2    1    2    0    0 -0.55238105986E+02 -0.14369937470E+03  0.33285466146E+03  0.37810088810E+03  0.92017918270E+02 0.  0.
        254    2    1    2    0    0  0.55238105986E+02  0.14369937470E+03 -0.12537549590E+04  0.15260663965E+04  0.85631559053E+03 0.  0.
        -24    2    4    4    0    0 -0.22660244329E+03  0.13688762646E+03 -0.11960984550E+04  0.12277039981E+04  0.80738487366E+02 0.  0.
         24    2    4    4    0    0  0.28184054927E+03  0.68117482409E+01 -0.57656504032E+02  0.29836239839E+03  0.78837511280E+02 0.  0.
         13    1    3    3    0    0  0.93403907758E+01  0.51108946609E+01  0.57808826872E+02  0.58781158617E+02  0.00000000000E+00 0. -1.
        -13    1    3    3    0    0 -0.64578496762E+02 -0.14881026936E+03  0.27504583459E+03  0.31931972948E+03  0.00000000000E+00 0.  1.
          4    1    6    6  502    0  0.23906329169E+03  0.11258758678E+02 -0.76712260696E+02  0.25132208026E+03  0.00000000000E+00 0. -1.
          1    1    5    5  503    0 -0.20655661383E+03  0.89318742587E+02 -0.98646382812E+03  0.10118074702E+04  0.00000000000E+00 0. -1.
         -2    1    5    5    0  503 -0.20045829459E+02  0.47568883875E+02 -0.20963462689E+03  0.21589652795E+03  0.00000000000E+00 0.  1.
         -3    1    6    6    0  502  0.42777257580E+02 -0.44470104370E+01  0.19055756665E+02  0.47040318132E+02  0.00000000000E+00 0.  1.
<mgrwt>
<rscale>  0 0.16666720E+04</rscale>
<asrwt>0</asrwt>
<pdfrwt beam="1">  1        1 0.21731289E+00 0.16666720E+04</pdfrwt>
<pdfrwt beam="2">  1       -1 0.75635923E-01 0.16666720E+04</pdfrwt>
<totfact> 0.12619183E+01</totfact>
</mgrwt>
</event>
<event>
12    1  0.1201209E-007  0.1267098E+04  0.7818608E-02  0.9056071E-01
         -1   -1    0    0    0  501 -0.00000000000E+00  0.00000000000E+00  0.49729774029E+03  0.49729774029E+03  0.00000000000E+00 0.  1.
          1   -1    0    0  501    0  0.00000000000E+00 -0.00000000000E+00 -0.80713124426E+03  0.80713124426E+03  0.00000000000E+00 0. -1.
         23    2    1    2    0    0 -0.29412265741E+03  0.15910295909E+01  0.57721395458E+01  0.30812692154E+03  0.91641765611E+02 0.  0.
        254    2    1    2    0    0  0.29412265741E+03 -0.15910295909E+01 -0.31560564352E+03  0.99630206301E+03  0.89805356720E+03 0.  0.
        -24    2    4    4    0    0  0.20876993177E+03 -0.41355066187E+03 -0.97908902634E+01  0.46998280235E+03  0.78606225130E+02 0.  0.
         24    2    4    4    0    0  0.85352725640E+02  0.41195963228E+03 -0.30581475326E+03  0.52631926065E+03  0.80582097403E+02 0.  0.
         13    1    3    3    0    0 -0.14637210354E+03  0.21006215633E+02  0.44003618413E+02  0.15428017443E+03  0.00000000000E+00 0. -1.
        -13    1    3    3    0    0 -0.14775055387E+03 -0.19415186042E+02 -0.38231478868E+02  0.15384674710E+03  0.00000000000E+00 0.  1.
          4    1    6    6  502    0  0.88420900608E+02  0.23900792126E+03 -0.19503802172E+03  0.32090944519E+03  0.00000000000E+00 0. -1.
          3    1    5    5  503    0  0.12218178992E+02 -0.55087217460E+02  0.20533685240E+02  0.60045962853E+02  0.00000000000E+00 0. -1.
         -4    1    5    5    0  503  0.19655175278E+03 -0.35846344441E+03 -0.30324575504E+02  0.40993683950E+03  0.00000000000E+00 0.  1.
         -3    1    6    6    0  502 -0.30681749687E+01  0.17295171102E+03 -0.11077673153E+03  0.20540981547E+03  0.00000000000E+00 0.  1.
<mgrwt>
<rscale>  0 0.12670983E+04</rscale>
<asrwt>0</asrwt>
<pdfrwt beam="1">  1        1 0.12417404E+00 0.12670983E+04</pdfrwt>
<pdfrwt beam="2">  1       -1 0.76507345E-01 0.12670983E+04</pdfrwt>
<totfact> 0.36823024E+01</totfact>
</mgrwt>
</event>
<event>
12    1  0.1201209E-007  0.2698581E+04  0.7818608E-02  0.8335466E-01
          1   -1    0    0  501    0  0.00000000000E+00  0.00000000000E+00  0.16798214387E+04  0.16798214387E+04  0.00000000000E+00 0. -1.
         -1   -1    0    0    0  501 -0.00000000000E+00 -0.00000000000E+00 -0.10837964070E+04  0.10837964070E+04  0.00000000000E+00 0.  1.
         23    2    1    2    0    0 -0.37951440467E+03 -0.80064707630E+03 -0.56441743020E+03  0.10546029764E+04  0.92485015710E+02 0.  0.
        254    2    1    2    0    0  0.37951440467E+03  0.80064707630E+03  0.11604424620E+04  0.17090148693E+04  0.88827821762E+03 0.  0.
        -24    2    4    4    0    0  0.37647893996E+03  0.64340024058E+03  0.12887765048E+04  0.14908781034E+04  0.77925463709E+02 0.  0.
         24    2    4    4    0    0  0.30354647047E+01  0.15724683571E+03 -0.12833404285E+03  0.21813676596E+03  0.79863888709E+02 0.  0.
         13    1    3    3    0    0 -0.30549582903E+03 -0.62497170614E+03 -0.39737425633E+03  0.80113896087E+03  0.00000000000E+00 0.  1.
        -13    1    3    3    0    0 -0.74018575637E+02 -0.17567537016E+03 -0.16704317387E+03  0.25346401550E+03  0.00000000000E+00 0. -1.
          2    1    6    6  502    0 -0.14461271338E+02  0.31064232843E+02  0.39436198655E+01  0.34491550682E+02  0.00000000000E+00 0. -1.
          3    1    5    5  503    0  0.17527934565E+03  0.26520895913E+03  0.61826217702E+03  0.69520267588E+03  0.00000000000E+00 0. -1.
         -4    1    5    5    0  503  0.20119959432E+03  0.37819128145E+03  0.67051432781E+03  0.79567542749E+03  0.00000000000E+00 0.  1.
         -1    1    6    6    0  502  0.17496736043E+02  0.12618260287E+03 -0.13227766272E+03  0.18364521528E+03  0.00000000000E+00 0.  1.
<mgrwt>
<rscale>  0 0.26985807E+04</rscale>
<asrwt>0</asrwt>
<pdfrwt beam="1">  1        1 0.25843407E+00 0.26985807E+04</pdfrwt>
<pdfrwt beam="2">  1       -1 0.16673791E+00 0.26985807E+04</pdfrwt>
<totfact> 0.11175362E+00</totfact>
</mgrwt>
</event>
<event>
12    1  0.1384541E-007  0.2666853E+04  0.7818608E-02  0.8345841E-01
          1   -1    0    0  501    0  0.00000000000E+00  0.00000000000E+00  0.12263812802E+04  0.12263812802E+04  0.00000000000E+00 0. -1.
         -1   -1    0    0    0  501 -0.00000000000E+00 -0.00000000000E+00 -0.14498150521E+04  0.14498150521E+04  0.00000000000E+00 0.  1.
         23    2    1    2    0    0 -0.61530307694E+03 -0.77382346646E+03 -0.72840237088E+03  0.12320548393E+04  0.99942379977E+02 0.  0.
        254    2    1    2    0    0  0.61530307694E+03  0.77382346646E+03  0.50496859895E+03  0.14441414931E+04  0.92366158974E+03 0.  0.
        -24    2    4    4    0    0  0.72310209472E+03  0.19200585679E+03  0.22962780702E+03  0.78684348573E+03  0.81552761141E+02 0.  0.
         24    2    4    4    0    0 -0.10779901778E+03  0.58181760967E+03  0.27534079193E+03  0.65729800734E+03  0.78075345704E+02 0.  0.
         11    1    3    3    0    0 -0.72221930546E+01 -0.22643913167E+02 -0.36114192784E+02  0.43233572562E+02  0.00000000000E+00 0. -1.
        -11    1    3    3    0    0 -0.60808088389E+03 -0.75117955329E+03 -0.69228817810E+03  0.11888212667E+04  0.00000000000E+00 0.  1.
          2    1    6    6  502    0 -0.51758519200E+02  0.35764307907E+03  0.12860237661E+03  0.38357018599E+03  0.00000000000E+00 0. -1.
          3    1    5    5  503    0  0.39728357319E+03  0.78885490676E+02  0.15686655414E+03  0.43435500915E+03  0.00000000000E+00 0. -1.
         -4    1    5    5    0  503  0.32581852153E+03  0.11312036611E+03  0.72761252881E+02  0.35248847658E+03  0.00000000000E+00 0.  1.
         -1    1    6    6    0  502 -0.56040498577E+02  0.22417453060E+03  0.14673841532E+03  0.27372782135E+03  0.00000000000E+00 0.  1.
<mgrwt>
<rscale>  0 0.26668529E+04</rscale>
<asrwt>0</asrwt>
<pdfrwt beam="1">  1        1 0.18867404E+00 0.26668529E+04</pdfrwt>
<pdfrwt beam="2">  1       -1 0.22304847E+00 0.26668529E+04</pdfrwt>
<totfact> 0.93987416E-01</totfact>
</mgrwt>
</event>
<event>
12    1  0.1201209E-007  0.1730657E+04  0.7818608E-02  0.8744070E-01
         -1   -1    0    0    0  501 -0.00000000000E+00  0.00000000000E+00  0.71589462536E+03  0.71589462536E+03  0.00000000000E+00 0.  1.
          1   -1    0    0  501    0  0.00000000000E+00 -0.00000000000E+00 -0.10459548152E+04  0.10459548152E+04  0.00000000000E+00 0. -1.
         23    2    1    2    0    0  0.16125698774E+03  0.55685570554E+03 -0.36525220782E+03  0.69110102305E+03  0.90107468395E+02 0.  0.
        254    2    1    2    0    0 -0.16125698774E+03 -0.55685570554E+03  0.35192018015E+02  0.10707484175E+04  0.89953966144E+03 0.  0.
        -24    2    4    4    0    0 -0.16430463101E+03 -0.19026193148E+03  0.44342750357E+03  0.51602212691E+03  0.80344696108E+02 0.  0.
         24    2    4    4    0    0  0.30476432684E+01 -0.36659377406E+03 -0.40823548556E+03  0.55472629057E+03  0.81637996507E+02 0.  0.
         13    1    3    3    0    0 -0.38447444516E+01 -0.61531376000E+00 -0.74850750925E+01  0.84372400737E+01  0.00000000000E+00 0.  1.
        -13    1    3    3    0    0  0.16510173219E+03  0.55747101930E+03 -0.35776713272E+03  0.68266378298E+03  0.00000000000E+00 0. -1.
          4    1    6    6  502    0 -0.26265333173E+02 -0.31597687690E+03 -0.34707091334E+03  0.47009517478E+03  0.00000000000E+00 0. -1.
          3    1    5    5  503    0 -0.12599710365E+03 -0.12802635948E+03  0.37547892450E+03  0.41623363823E+03  0.00000000000E+00 0. -1.
         -4    1    5    5    0  503 -0.38307527365E+02 -0.62235572002E+02  0.67948579071E+02  0.99788488680E+02  0.00000000000E+00 0.  1.
         -3    1    6    6    0  502  0.29312976441E+02 -0.50616897156E+02 -0.61164572221E+02  0.84631115794E+02  0.00000000000E+00 0.  1.
<mgrwt>
<rscale>  0 0.17306570E+04</rscale>
<asrwt>0</asrwt>
<pdfrwt beam="1">  1        1 0.16091613E+00 0.17306570E+04</pdfrwt>
<pdfrwt beam="2">  1       -1 0.11013763E+00 0.17306570E+04</pdfrwt>
<totfact> 0.10068907E+01</totfact>
</mgrwt>
</event>
<event>
12    1  0.1201209E-007  0.2646747E+04  0.7818608E-02  0.8352494E-01
         -2   -1    0    0    0  501 -0.00000000000E+00  0.00000000000E+00  0.70271450197E+03  0.70271450197E+03  0.00000000000E+00 0. -1.
          2   -1    0    0  501    0  0.00000000000E+00 -0.00000000000E+00 -0.24922169535E+04  0.24922169535E+04  0.00000000000E+00 0.  1.
         23    2    1    2    0    0 -0.25720744103E+03 -0.23624581114E+03  0.55319968653E+03  0.66053563420E+03  0.91157445496E+02 0.  0.
        254    2    1    2    0    0  0.25720744103E+03  0.23624581114E+03 -0.23427021381E+04  0.25343958213E+04  0.90163247511E+03 0.  0.
        -24    2    4    4    0    0  0.42610680104E+03  0.45470740431E+03 -0.19354280938E+04  0.20348524478E+04  0.80104611143E+02 0.  0.
         24    2    4    4    0    0 -0.16889936001E+03 -0.21846159316E+03 -0.40727404427E+03  0.49954337345E+03  0.86133462278E+02 0.  0.
         13    1    3    3    0    0 -0.94681595505E+02 -0.51085694864E+02  0.23198502121E+03  0.25571742767E+03  0.00000000000E+00 0.  1.
        -13    1    3    3    0    0 -0.16252584553E+03 -0.18516011628E+03  0.32121466531E+03  0.40481820653E+03  0.00000000000E+00 0. -1.
          4    1    6    6  502    0  0.44990920741E+01 -0.27050994921E+02 -0.19568478926E+02  0.33688626021E+02  0.00000000000E+00 0. -1.
          3    1    5    5  503    0  0.15463414304E+03  0.12793389637E+03 -0.71304340037E+03  0.74074941164E+03  0.00000000000E+00 0. -1.
         -4    1    5    5    0  503  0.27147265801E+03  0.32677350794E+03 -0.12223846934E+04  0.12941030362E+04  0.00000000000E+00 0.  1.
         -3    1    6    6    0  502 -0.17339845208E+03 -0.19141059824E+03 -0.38770556535E+03  0.46585474743E+03  0.00000000000E+00 0.  1.
<mgrwt>
<rscale>  0 0.26467467E+04</rscale>
<asrwt>0</asrwt>
<pdfrwt beam="1">  1        2 0.38341799E+00 0.26467467E+04</pdfrwt>
<pdfrwt beam="2">  1       -2 0.10810993E+00 0.26467467E+04</pdfrwt>
<totfact> 0.21231254E+00</totfact>
</mgrwt>
</event>
<event>
12    1  0.1201209E-007  0.1711998E+04  0.7818608E-02  0.8754551E-01
          1   -1    0    0  501    0  0.00000000000E+00  0.00000000000E+00  0.54679693732E+03  0.54679693732E+03  0.00000000000E+00 0. -1.
         -1   -1    0    0    0  501 -0.00000000000E+00 -0.00000000000E+00 -0.13400480775E+04  0.13400480775E+04  0.00000000000E+00 0.  1.
         23    2    1    2    0    0 -0.53114603858E+03 -0.83068111753E+02  0.41366638599E+02  0.54692369549E+03  0.91640080798E+02 0.  0.
        254    2    1    2    0    0  0.53114603858E+03  0.83068111753E+02 -0.83461777878E+03  0.13399213193E+04  0.89988103650E+03 0.  0.
        -24    2    4    4    0    0  0.39718103295E+03  0.43816518644E+03 -0.27197226854E+03  0.65603965896E+03  0.81716679574E+02 0.  0.
         24    2    4    4    0    0  0.13396500563E+03 -0.35509707469E+03 -0.56264551024E+03  0.68388166037E+03  0.84164125481E+02 0.  0.
         11    1    3    3    0    0 -0.47120028332E+02 -0.35486520559E+02  0.54987466469E+01  0.59243788080E+02  0.00000000000E+00 0.  1.
        -11    1    3    3    0    0 -0.48402601025E+03 -0.47581591195E+02  0.35867891952E+02  0.48767990741E+03  0.00000000000E+00 0. -1.
          4    1    6    6  502    0  0.91706326782E+02 -0.32210917827E+03 -0.49284770888E+03  0.59587182954E+03  0.00000000000E+00 0. -1.
          1    1    5    5  503    0  0.39945313721E+03  0.42483191331E+03 -0.26901478917E+03  0.64219461239E+03  0.00000000000E+00 0. -1.
         -2    1    5    5    0  503 -0.22721042545E+01  0.13333273133E+02 -0.29574793709E+01  0.13845046566E+02  0.00000000000E+00 0.  1.
         -3    1    6    6    0  502  0.42258678847E+02 -0.32987896423E+02 -0.69797801356E+02  0.88009830828E+02  0.00000000000E+00 0.  1.
<mgrwt>
<rscale>  0 0.17119979E+04</rscale>
<asrwt>0</asrwt>
<pdfrwt beam="1">  1        1 0.84122607E-01 0.17119979E+04</pdfrwt>
<pdfrwt beam="2">  1       -1 0.20616124E+00 0.17119979E+04</pdfrwt>
<totfact> 0.50757862E+00</totfact>
</mgrwt>
</event>
<event>
12    1  0.1201209E-007  0.1783033E+04  0.7818608E-02  0.8715375E-01
          2   -1    0    0  501    0  0.00000000000E+00  0.00000000000E+00  0.26199741015E+04  0.26199741015E+04  0.00000000000E+00 0. -1.
         -2   -1    0    0    0  501 -0.00000000000E+00 -0.00000000000E+00 -0.30336244554E+03  0.30336244554E+03  0.00000000000E+00 0.  1.
         23    2    1    2    0    0  0.30889288875E+03 -0.34224614403E+03  0.98252156040E+02  0.48054978441E+03  0.93420390223E+02 0.  0.
        254    2    1    2    0    0 -0.30889288875E+03  0.34224614403E+03  0.22183594999E+04  0.24427867626E+04  0.91298469701E+03 0.  0.
        -24    2    4    4    0    0 -0.35663496259E+03  0.29915514000E+03  0.22770360500E+04  0.23254751824E+04  0.79116096053E+02 0.  0.
         24    2    4    4    0    0  0.47742073839E+02  0.43091004024E+02 -0.58676550060E+02  0.11731158024E+03  0.78631603635E+02 0.  0.
         11    1    3    3    0    0  0.70649089517E+02 -0.50226838995E+02 -0.12868608514E+02  0.87633499817E+02  0.00000000000E+00 0. -1.
        -11    1    3    3    0    0  0.23824379923E+03 -0.29201930503E+03  0.11112076455E+03  0.39291628459E+03  0.00000000000E+00 0.  1.
          4    1    6    6  502    0  0.21722500705E+02  0.80852589646E+01 -0.68745429057E+02  0.72547725434E+02  0.00000000000E+00 0. -1.
          3    1    5    5  503    0 -0.17142731203E+03  0.19315738629E+03  0.11925708641E+04  0.12202140653E+04  0.00000000000E+00 0. -1.
         -4    1    5    5    0  503 -0.18520765056E+03  0.10599775371E+03  0.10844651858E+04  0.11052611171E+04  0.00000000000E+00 0.  1.
         -3    1    6    6    0  502  0.26019573133E+02  0.35005745059E+02  0.10068878997E+02  0.44763854810E+02  0.00000000000E+00 0.  1.
<mgrwt>
<rscale>  0 0.17830331E+04</rscale>
<asrwt>0</asrwt>
<pdfrwt beam="1">  1        2 0.40307292E+00 0.17830331E+04</pdfrwt>
<pdfrwt beam="2">  1       -2 0.46671147E-01 0.17830331E+04</pdfrwt>
<totfact> 0.12208309E+01</totfact>
</mgrwt>
</event>
<event>
12    1  0.1201209E-007  0.1244222E+04  0.7818608E-02  0.9075006E-01
          2   -1    0    0  501    0  0.00000000000E+00  0.00000000000E+00  0.25149314787E+04  0.25149314787E+04  0.00000000000E+00 0.  1.
         -2   -1    0    0    0  501 -0.00000000000E+00 -0.00000000000E+00 -0.15388970415E+03  0.15388970415E+03  0.00000000000E+00 0. -1.
         23    2    1    2    0    0  0.10803705269E+03  0.16726536111E+03  0.12298142351E+03  0.25180593035E+03  0.92909042880E+02 0.  0.
        254    2    1    2    0    0 -0.10803705269E+03 -0.16726536111E+03  0.22380603511E+04  0.24170152525E+04  0.89072941464E+03 0.  0.
        -24    2    4    4    0    0 -0.17262378905E+03  0.32019157729E+03  0.13319583686E+04  0.13830349579E+04  0.79693037080E+02 0.  0.
         24    2    4    4    0    0  0.64586736363E+02 -0.48745693840E+03  0.90610198245E+03  0.10339802947E+04  0.79427538548E+02 0.  0.
         13    1    3    3    0    0  0.11420484047E+03  0.12844144608E+03  0.12487907343E+03  0.21244936723E+03  0.00000000000E+00 0. -1.
        -13    1    3    3    0    0 -0.61677877881E+01  0.38823915037E+02 -0.18976499188E+01  0.39356563115E+02  0.00000000000E+00 0.  1.
          2    1    6    6  502    0  0.63549413296E+02 -0.35869667220E+03  0.60043881531E+03  0.70230235761E+03  0.00000000000E+00 0. -1.
          1    1    5    5  503    0 -0.15956796747E+03  0.22862346325E+03  0.10440035630E+04  0.10805896834E+04  0.00000000000E+00 0. -1.
         -2    1    5    5    0  503 -0.13055821575E+02  0.91568114040E+02  0.28795480563E+03  0.30244527451E+03  0.00000000000E+00 0.  1.
         -1    1    6    6    0  502  0.10373230674E+01 -0.12876026620E+03  0.30566316715E+03  0.33167793707E+03  0.00000000000E+00 0.  1.
<mgrwt>
<rscale>  0 0.12442219E+04</rscale>
<asrwt>0</asrwt>
<pdfrwt beam="1">  1        2 0.38691250E+00 0.12442219E+04</pdfrwt>
<pdfrwt beam="2">  1       -2 0.23675341E-01 0.12442219E+04</pdfrwt>
<totfact> 0.53455738E+01</totfact>
</mgrwt>
</event>
<event>
12    1  0.1201209E-007  0.1623901E+04  0.7818608E-02  0.8805998E-01
         -2   -1    0    0    0  501 -0.00000000000E+00  0.00000000000E+00  0.47788910008E+03  0.47788910008E+03  0.00000000000E+00 0.  1.
          2   -1    0    0  501    0  0.00000000000E+00 -0.00000000000E+00 -0.13795327201E+04  0.13795327201E+04  0.00000000000E+00 0. -1.
         23    2    1    2    0    0 -0.19251026929E+03  0.23114077238E+03 -0.82821509577E+03  0.88597887322E+03  0.92369142533E+02 0.  0.
        254    2    1    2    0    0  0.19251026929E+03 -0.23114077238E+03 -0.73428524223E+02  0.97144294694E+03  0.92077325686E+03 0.  0.
        -24    2    4    4    0    0  0.13796748879E+03 -0.50386497511E+03 -0.29789075328E+03  0.60666790774E+03  0.79950661566E+02 0.  0.
         24    2    4    4    0    0  0.54542780492E+02  0.27272420273E+03  0.22446222906E+03  0.36477503920E+03  0.72966645063E+02 0.  0.
         11    1    3    3    0    0 -0.18632671773E+03  0.21634860552E+03 -0.68864059486E+03  0.74548657516E+03  0.00000000000E+00 0. -1.
        -11    1    3    3    0    0 -0.61835515523E+01  0.14792166861E+02 -0.13957450091E+03  0.14049229806E+03  0.00000000000E+00 0.  1.
          2    1    6    6  502    0  0.50903546233E+02  0.23207767848E+03  0.21985110593E+03  0.32370623819E+03  0.00000000000E+00 0. -1.
          1    1    5    5  503    0  0.14825520846E+03 -0.46671688247E+03 -0.28089802396E+03  0.56454225270E+03  0.00000000000E+00 0. -1.
         -2    1    5    5    0  503 -0.10287719671E+02 -0.37148092637E+02 -0.16992729327E+02  0.42125655040E+02  0.00000000000E+00 0.  1.
         -1    1    6    6    0  502  0.36392342592E+01  0.40646524250E+02  0.46111231296E+01  0.41068801007E+02  0.00000000000E+00 0.  1.
<mgrwt>
<rscale>  0 0.16239010E+04</rscale>
<asrwt>0</asrwt>
<pdfrwt beam="1">  1        2 0.21223580E+00 0.16239010E+04</pdfrwt>
<pdfrwt beam="2">  1       -2 0.73521400E-01 0.16239010E+04</pdfrwt>
<totfact> 0.23748436E+01</totfact>
</mgrwt>
</event>
<event>
12    1  0.1201209E-007  0.1966194E+04  0.7818608E-02  0.8622591E-01
          2   -1    0    0  501    0  0.00000000000E+00  0.00000000000E+00  0.18703043715E+04  0.18703043715E+04  0.00000000000E+00 0. -1.
         -2   -1    0    0    0  501 -0.00000000000E+00 -0.00000000000E+00 -0.51675001466E+03  0.51675001466E+03  0.00000000000E+00 0.  1.
         23    2    1    2    0    0  0.18573837785E+03  0.53191215120E+03 -0.10575922742E+03  0.58022127906E+03  0.89679634693E+02 0.  0.
        254    2    1    2    0    0 -0.18573837785E+03 -0.53191215120E+03  0.14593135843E+04  0.18068331071E+04  0.90422367702E+03 0.  0.
        -24    2    4    4    0    0  0.94599321224E+02 -0.69837816505E+02 -0.87225320227E+02  0.16665422266E+03  0.79617970652E+02 0.  0.
         24    2    4    4    0    0 -0.28033769908E+03 -0.46207433470E+03  0.15465389045E+04  0.16401788844E+04  0.79386860002E+02 0.  0.
         13    1    3    3    0    0  0.60804246947E+02  0.79065883502E+02 -0.56084425168E+01  0.99900075116E+02  0.00000000000E+00 0. -1.
        -13    1    3    3    0    0  0.12493413090E+03  0.45284626770E+03 -0.10015078491E+03  0.48032120394E+03  0.00000000000E+00 0.  1.
          4    1    6    6  502    0  0.26359211276E+01 -0.19955776007E+02  0.81167108405E+02  0.83625836696E+02  0.00000000000E+00 0. -1.
          3    1    5    5  503    0  0.58028908145E+02 -0.62657647139E+02 -0.16890018738E+02  0.87055198917E+02  0.00000000000E+00 0. -1.
         -4    1    5    5    0  503  0.36570413080E+02 -0.71801693655E+01 -0.70335301489E+02  0.79599023741E+02  0.00000000000E+00 0.  1.
         -3    1    6    6    0  502 -0.28297362020E+03 -0.44211855869E+03  0.14653717961E+04  0.15565530477E+04  0.00000000000E+00 0.  1.
<mgrwt>
<rscale>  0 0.19661941E+04</rscale>
<asrwt>0</asrwt>
<pdfrwt beam="1">  1        2 0.28773913E+00 0.19661941E+04</pdfrwt>
<pdfrwt beam="2">  1       -2 0.79500003E-01 0.19661941E+04</pdfrwt>
<totfact> 0.10300152E+01</totfact>
</mgrwt>
</event>
<event>
12    1  0.1201209E-007  0.1536113E+04  0.7818608E-02  0.8860787E-01
         -2   -1    0    0    0  501 -0.00000000000E+00  0.00000000000E+00  0.34131045990E+03  0.34131045990E+03  0.00000000000E+00 0.  1.
          2   -1    0    0  501    0  0.00000000000E+00 -0.00000000000E+00 -0.17283696097E+04  0.17283696097E+04  0.00000000000E+00 0. -1.
         23    2    1    2    0    0  0.19741302807E+03  0.22496507789E+03  0.80994317329E+02  0.32307737496E+03  0.90761890942E+02 0.  0.
        254    2    1    2    0    0 -0.19741302807E+03 -0.22496507789E+03 -0.14680534671E+04  0.17466026947E+04  0.89769638558E+03 0.  0.
        -24    2    4    4    0    0  0.14666162852E+03 -0.36307794690E+03 -0.12422317939E+04  0.13049928247E+04  0.80815926256E+02 0.  0.
         24    2    4    4    0    0 -0.34407465659E+03  0.13811286900E+03 -0.22582167322E+03  0.44160986994E+03  0.81001945935E+02 0.  0.
         11    1    3    3    0    0  0.12392143951E+03  0.11330073500E+03  0.87304081879E+02  0.18925005266E+03  0.00000000000E+00 0.  1.
        -11    1    3    3    0    0  0.73491588562E+02  0.11166434290E+03 -0.63097645506E+01  0.13382732230E+03  0.00000000000E+00 0. -1.
          2    1    6    6  502    0 -0.87092448576E+02  0.22828874277E+02 -0.95549185455E+02  0.13128556258E+03  0.00000000000E+00 0. -1.
          1    1    5    5  503    0  0.17770531535E+02 -0.14215019497E+03 -0.40710461593E+03  0.43157460309E+03  0.00000000000E+00 0. -1.
         -2    1    5    5    0  503  0.12889109698E+03 -0.22092775192E+03 -0.83512717799E+03  0.87341822163E+03  0.00000000000E+00 0.  1.
         -1    1    6    6    0  502 -0.25698220801E+03  0.11528399472E+03 -0.13027248776E+03  0.31032430737E+03  0.00000000000E+00 0.  1.
<mgrwt>
<rscale>  0 0.15361128E+04</rscale>
<asrwt>0</asrwt>
<pdfrwt beam="1">  1        2 0.26590301E+00 0.15361128E+04</pdfrwt>
<pdfrwt beam="2">  1       -2 0.52509303E-01 0.15361128E+04</pdfrwt>
<totfact> 0.31182364E+01</totfact>
</mgrwt>
</event>
<event>
12    1  0.1201209E-007  0.1696347E+04  0.7818608E-02  0.8763451E-01
         -1   -1    0    0    0  501 -0.00000000000E+00  0.00000000000E+00  0.23183032475E+03  0.23183032475E+03  0.00000000000E+00 0.  1.
          1   -1    0    0  501    0  0.00000000000E+00 -0.00000000000E+00 -0.31031244137E+04  0.31031244137E+04  0.00000000000E+00 0. -1.
         23    2    1    2    0    0 -0.12372114514E+03  0.17679607073E+02  0.12965411330E+03  0.19974852907E+03  0.86427978740E+02 0.  0.
        254    2    1    2    0    0  0.12372114514E+03 -0.17679607073E+02 -0.30009482022E+04  0.31352062093E+04  0.89900410038E+03 0.  0.
        -24    2    4    4    0    0 -0.20037259706E+03  0.92949678484E+02 -0.18885149757E+03  0.30121238288E+03  0.79216103676E+02 0.  0.
         24    2    4    4    0    0  0.32409374221E+03 -0.11062928556E+03 -0.28120967046E+04  0.28339938265E+04  0.79734181170E+02 0.  0.
         13    1    3    3    0    0  0.10083922739E+02  0.52288879060E+01 -0.21004972692E+01  0.11551573716E+02  0.00000000000E+00 0. -1.
        -13    1    3    3    0    0 -0.13380506788E+03  0.12450719167E+02  0.13175461057E+03  0.18819695536E+03  0.00000000000E+00 0.  1.
          4    1    6    6  502    0  0.31579555748E+03 -0.11209145040E+03 -0.27940958319E+04  0.28141184846E+04  0.00000000000E+00 0. -1.
          1    1    5    5  503    0 -0.18830787626E+03  0.10531118177E+03 -0.18318968822E+03  0.28303491505E+03  0.00000000000E+00 0. -1.
         -2    1    5    5    0  503 -0.12064720805E+02 -0.12361503287E+02 -0.56618093517E+01  0.18177467831E+02  0.00000000000E+00 0.  1.
         -3    1    6    6    0  502  0.82981847300E+01  0.14621648427E+01 -0.18000872691E+02  0.19875341846E+02  0.00000000000E+00 0.  1.
<mgrwt>
<rscale>  0 0.16963471E+04</rscale>
<asrwt>0</asrwt>
<pdfrwt beam="1">  1        1 0.47740368E+00 0.16963471E+04</pdfrwt>
<pdfrwt beam="2">  1       -1 0.35666210E-01 0.16963471E+04</pdfrwt>
<totfact> 0.36013505E+00</totfact>
</mgrwt>
</event>
<event>
12    1  0.1201209E-007  0.2385908E+04  0.7818608E-02  0.8444798E-01
          2   -1    0    0  501    0  0.00000000000E+00  0.00000000000E+00  0.18531955084E+04  0.18531955084E+04  0.00000000000E+00 0. -1.
         -2   -1    0    0    0  501 -0.00000000000E+00 -0.00000000000E+00 -0.76793787838E+03  0.76793787838E+03  0.00000000000E+00 0.  1.
         23    2    1    2    0    0  0.63616564235E+03 -0.77138890293E+03  0.24057723875E+03  0.10327297165E+04  0.94369992442E+02 0.  0.
        254    2    1    2    0    0 -0.63616564235E+03  0.77138890293E+03  0.84468039124E+03  0.15884036703E+04  0.89988537728E+03 0.  0.
        -24    2    4    4    0    0  0.12342286546E+03  0.38433872326E+03  0.40095073611E+02  0.41346294412E+03  0.79965825950E+02 0.  0.
         24    2    4    4    0    0 -0.75958850781E+03  0.38705017968E+03  0.80458531763E+03  0.11749407261E+04  0.79659486462E+02 0.  0.
         13    1    3    3    0    0  0.42215936256E+03 -0.49248037167E+03  0.20030017993E+03  0.67887819670E+03  0.00000000000E+00 0.  1.
        -13    1    3    3    0    0  0.21400627979E+03 -0.27890853126E+03  0.40277058829E+02  0.35385151980E+03  0.00000000000E+00 0. -1.
          4    1    6    6  502    0 -0.53384029614E+03  0.30355369690E+03  0.54695888522E+03  0.82237116365E+03  0.00000000000E+00 0. -1.
          1    1    5    5  503    0  0.96703826777E+02  0.29297455459E+03 -0.40165194062E+01  0.30854797387E+03  0.00000000000E+00 0. -1.
         -2    1    5    5    0  503  0.26719038687E+02  0.91364168663E+02  0.44111593017E+02  0.10491497025E+03  0.00000000000E+00 0.  1.
         -3    1    6    6    0  502 -0.22574821168E+03  0.83496482774E+02  0.25762643241E+03  0.35256956248E+03  0.00000000000E+00 0.  1.
<mgrwt>
<rscale>  0 0.23859078E+04</rscale>
<asrwt>0</asrwt>
<pdfrwt beam="1">  1        2 0.28510700E+00 0.23859078E+04</pdfrwt>
<pdfrwt beam="2">  1       -2 0.11814429E+00 0.23859078E+04</pdfrwt>
<totfact> 0.40059387E+00</totfact>
</mgrwt>
</event>
<event>
12    1  0.1201209E-007  0.1846814E+04  0.7818608E-02  0.8681793E-01
          2   -1    0    0  501    0  0.00000000000E+00  0.00000000000E+00  0.22854517790E+04  0.22854517790E+04  0.00000000000E+00 0. -1.
         -2   -1    0    0    0  501 -0.00000000000E+00 -0.00000000000E+00 -0.37309072282E+03  0.37309072282E+03  0.00000000000E+00 0.  1.
         23    2    1    2    0    0  0.55267328669E+03  0.32777221383E+03  0.32872352139E+03  0.72753062746E+03  0.91429067557E+02 0.  0.
        254    2    1    2    0    0 -0.55267328669E+03 -0.32777221383E+03  0.15836375348E+04  0.19310118744E+04  0.89889745322E+03 0.  0.
        -24    2    4    4    0    0 -0.40585470143E+03  0.19788668908E+03  0.34122171965E+03  0.57148070498E+03  0.79251207039E+02 0.  0.
         24    2    4    4    0    0 -0.14681858526E+03 -0.52565890291E+03  0.12424158152E+04  0.13595311694E+04  0.82794707874E+02 0.  0.
         13    1    3    3    0    0  0.45464964643E+03  0.30660379684E+03  0.28672410441E+03  0.61880764482E+03  0.00000000000E+00 0.  1.
        -13    1    3    3    0    0  0.98023640253E+02  0.21168416990E+02  0.41999416982E+02  0.10872298264E+03  0.00000000000E+00 0. -1.
          4    1    6    6  502    0 -0.15340982473E+03 -0.50928026341E+03  0.12207000234E+04  0.13315440317E+04  0.00000000000E+00 0. -1.
          3    1    5    5  503    0 -0.20929576707E+03  0.10233585050E+03  0.12652546551E+03  0.26511514071E+03  0.00000000000E+00 0. -1.
         -4    1    5    5    0  503 -0.19655893435E+03  0.95550838586E+02  0.21469625413E+03  0.30636556427E+03  0.00000000000E+00 0.  1.
         -3    1    6    6    0  502  0.65912394665E+01 -0.16378639498E+02  0.21715791733E+02  0.27987137761E+02  0.00000000000E+00 0.  1.
<mgrwt>
<rscale>  0 0.18468144E+04</rscale>
<asrwt>0</asrwt>
<pdfrwt beam="1">  1        2 0.35160796E+00 0.18468144E+04</pdfrwt>
<pdfrwt beam="2">  1       -2 0.57398574E-01 0.18468144E+04</pdfrwt>
<totfact> 0.12362437E+01</totfact>
</mgrwt>
</event>
<event>
12    1  0.1201209E-007  0.1440466E+04  0.7818608E-02  0.8925037E-01
          1   -1    0    0  501    0  0.00000000000E+00  0.00000000000E+00  0.99952159693E+03  0.99952159693E+03  0.00000000000E+00 0. -1.
         -1   -1    0    0    0  501 -0.00000000000E+00 -0.00000000000E+00 -0.51898387215E+03  0.51898387215E+03  0.00000000000E+00 0.  1.
         23    2    1    2    0    0  0.43550203850E+03  0.23734652315E+02  0.12678864588E+03  0.46315562384E+03  0.90622358802E+02 0.  0.
        254    2    1    2    0    0 -0.43550203850E+03 -0.23734652315E+02  0.35374907890E+03  0.10553498452E+04  0.89353205079E+03 0.  0.
        -24    2    4    4    0    0 -0.53773861371E+03 -0.30045182303E+03  0.41056924322E+03  0.74432598660E+03  0.77588376743E+02 0.  0.
         24    2    4    4    0    0  0.10223657522E+03  0.27671717072E+03 -0.56820164320E+02  0.31102385865E+03  0.80514593065E+02 0.  0.
         13    1    3    3    0    0  0.99204717037E+02  0.61012172973E+01  0.70179356102E+02  0.12167145416E+03  0.00000000000E+00 0. -1.
        -13    1    3    3    0    0  0.33629732146E+03  0.17633435018E+02  0.56609289777E+02  0.34148416968E+03  0.00000000000E+00 0.  1.
          2    1    6    6  502    0 -0.27156423599E+01  0.83375610793E+02  0.15023197581E+01  0.83433351564E+02  0.00000000000E+00 0. -1.
          3    1    5    5  503    0 -0.12989690736E+03 -0.10959871382E+03  0.12733642761E+03  0.21236678273E+03  0.00000000000E+00 0. -1.
         -4    1    5    5    0  503 -0.40784170635E+03 -0.19085310921E+03  0.28323281562E+03  0.53195920387E+03  0.00000000000E+00 0.  1.
         -1    1    6    6    0  502  0.10495221758E+03  0.19334155992E+03 -0.58322484078E+02  0.22759050709E+03  0.00000000000E+00 0.  1.
<mgrwt>
<rscale>  0 0.14404660E+04</rscale>
<asrwt>0</asrwt>
<pdfrwt beam="1">  1        1 0.15377255E+00 0.14404660E+04</pdfrwt>
<pdfrwt beam="2">  1       -1 0.79843673E-01 0.14404660E+04</pdfrwt>
<totfact> 0.23062301E+01</totfact>
</mgrwt>
</event>
<event>
12    1  0.1201209E-007  0.1573196E+04  0.7818608E-02  0.8837186E-01
         -1   -1    0    0    0  501 -0.00000000000E+00  0.00000000000E+00  0.20857332568E+03  0.20857332568E+03  0.00000000000E+00 0. -1.
          1   -1    0    0  501    0  0.00000000000E+00 -0.00000000000E+00 -0.29665192176E+04  0.29665192176E+04  0.00000000000E+00 0.  1.
         23    2    1    2    0    0 -0.47837884807E+03 -0.17738031952E+03 -0.11992043204E+04  0.13062680512E+04  0.89079287199E+02 0.  0.
        254    2    1    2    0    0  0.47837884807E+03  0.17738031952E+03 -0.15587415715E+04  0.18688244921E+04  0.89583458042E+03 0.  0.
        -24    2    4    4    0    0  0.23850088244E+03  0.50990842074E+03 -0.61890686924E+03  0.84040794625E+03  0.79690243235E+02 0.  0.
         24    2    4    4    0    0  0.23987796562E+03 -0.33252810122E+03 -0.93983470227E+03  0.10284165458E+04  0.78961684894E+02 0.  0.
         11    1    3    3    0    0 -0.32370137805E+03 -0.10027130872E+03 -0.88508542015E+03  0.94774106087E+03  0.00000000000E+00 0. -1.
        -11    1    3    3    0    0 -0.15467747002E+03 -0.77109010796E+02 -0.31411890030E+03  0.35852699034E+03  0.00000000000E+00 0.  1.
          2    1    6    6  502    0  0.74203696376E+02 -0.15900165561E+03 -0.44954076998E+03  0.48257084341E+03  0.00000000000E+00 0. -1.
          3    1    5    5  503    0  0.75492598965E+02  0.87048686626E+02 -0.13267451393E+03  0.17572459415E+03  0.00000000000E+00 0. -1.
         -4    1    5    5    0  503  0.16300828348E+03  0.42285973411E+03 -0.48623235531E+03  0.66468335210E+03  0.00000000000E+00 0.  1.
         -1    1    6    6    0  502  0.16567426925E+03 -0.17352644561E+03 -0.49029393230E+03  0.54584570243E+03  0.00000000000E+00 0.  1.
<mgrwt>
<rscale>  0 0.15731965E+04</rscale>
<asrwt>0</asrwt>
<pdfrwt beam="1">  1        1 0.45638756E+00 0.15731965E+04</pdfrwt>
<pdfrwt beam="2">  1       -1 0.32088205E-01 0.15731965E+04</pdfrwt>
<totfact> 0.55369943E+00</totfact>
</mgrwt>
</event>
<event>
12    1  0.1201209E-007  0.1585359E+04  0.7818608E-02  0.8829594E-01
          2   -1    0    0  501    0  0.00000000000E+00  0.00000000000E+00  0.19158495622E+04  0.19158495622E+04  0.00000000000E+00 0. -1.
         -2   -1    0    0    0  501 -0.00000000000E+00 -0.00000000000E+00 -0.32796960487E+03  0.32796960487E+03  0.00000000000E+00 0.  1.
         23    2    1    2    0    0  0.75651698708E+02  0.27783891344E+03 -0.86482805701E+02  0.31426559286E+03  0.91465544540E+02 0.  0.
        254    2    1    2    0    0 -0.75651698708E+02 -0.27783891344E+03  0.16743627630E+04  0.19295535742E+04  0.91475061748E+03 0.  0.
        -24    2    4    4    0    0 -0.10406992498E+03 -0.50820170527E+03  0.15785192993E+04  0.16635184161E+04  0.80441407059E+02 0.  0.
         24    2    4    4    0    0  0.28418226269E+02  0.23036279183E+03  0.95843463695E+02  0.26603515806E+03  0.87830087939E+02 0.  0.
         11    1    3    3    0    0  0.92751949258E+02  0.20681864748E+03 -0.82132032612E+02  0.24108618339E+03  0.00000000000E+00 0.  1.
        -11    1    3    3    0    0 -0.17100250550E+02  0.71020265952E+02 -0.43507730886E+01  0.73179409476E+02  0.00000000000E+00 0. -1.
          2    1    6    6  502    0 -0.50859670944E+01  0.12163749879E+03  0.91298169641E+02  0.15217392665E+03  0.00000000000E+00 0. -1.
          1    1    5    5  503    0 -0.75630462943E+02 -0.41246835140E+03  0.11670565606E+04  0.12401093191E+04  0.00000000000E+00 0. -1.
         -2    1    5    5    0  503 -0.28439462034E+02 -0.95733353869E+02  0.41146273874E+03  0.42340909699E+03  0.00000000000E+00 0.  1.
         -1    1    6    6    0  502  0.33504193364E+02  0.10872529304E+03  0.45452940537E+01  0.11386123141E+03  0.00000000000E+00 0.  1.
<mgrwt>
<rscale>  0 0.15853585E+04</rscale>
<asrwt>0</asrwt>
<pdfrwt beam="1">  1        2 0.29474608E+00 0.15853585E+04</pdfrwt>
<pdfrwt beam="2">  1       -2 0.50456863E-01 0.15853585E+04</pdfrwt>
<totfact> 0.26536893E+01</totfact>
</mgrwt>
</event>
<event>
12    1  0.1201209E-007  0.1409169E+04  0.7818608E-02  0.8947208E-01
          1   -1    0    0  501    0  0.00000000000E+00  0.00000000000E+00  0.11081136314E+04  0.11081136314E+04  0.00000000000E+00 0. -1.
         -1   -1    0    0    0  501 -0.00000000000E+00 -0.00000000000E+00 -0.44800390839E+03  0.44800390839E+03  0.00000000000E+00 0.  1.
         23    2    1    2    0    0  0.86952975674E+01  0.15575091424E+03  0.60764202096E+03  0.63368056067E+03  0.89377132700E+02 0.  0.
        254    2    1    2    0    0 -0.86952975674E+01 -0.15575091424E+03  0.52467702038E+02  0.92243697910E+03  0.90763603122E+03 0.  0.
        -24    2    4    4    0    0  0.12200975522E+03 -0.20627079795E+03 -0.38205402918E+03  0.45869164910E+03  0.83658384434E+02 0.  0.
         24    2    4    4    0    0 -0.13070505278E+03  0.50519883710E+02  0.43452173121E+03  0.46374533000E+03  0.81329740751E+02 0.  0.
         13    1    3    3    0    0  0.45650909315E+02  0.50737744361E+02  0.24583021151E+03  0.25512902053E+03  0.00000000000E+00 0.  1.
        -13    1    3    3    0    0 -0.36955611748E+02  0.10501316988E+03  0.36181180945E+03  0.37855154015E+03  0.00000000000E+00 0. -1.
          4    1    6    6  502    0 -0.11626425763E+03  0.70325177040E+02  0.34126182502E+03  0.36731817454E+03  0.00000000000E+00 0. -1.
          1    1    5    5  503    0  0.62527086873E+02 -0.11881020816E+03 -0.13716532727E+03  0.19193704479E+03  0.00000000000E+00 0. -1.
         -2    1    5    5    0  503  0.59482668344E+02 -0.87460589789E+02 -0.24488870190E+03  0.26675460431E+03  0.00000000000E+00 0.  1.
         -3    1    6    6    0  502 -0.14440795153E+02 -0.19805293330E+02  0.93259906189E+02  0.96427155465E+02  0.00000000000E+00 0.  1.
<mgrwt>
<rscale>  0 0.14091689E+04</rscale>
<asrwt>0</asrwt>
<pdfrwt beam="1">  1        1 0.17047902E+00 0.14091689E+04</pdfrwt>
<pdfrwt beam="2">  1       -1 0.68923679E-01 0.14091689E+04</pdfrwt>
<totfact> 0.25947300E+01</totfact>
</mgrwt>
</event>
<event>
12    1  0.1201209E-007  0.1221777E+04  0.7818608E-02  0.9094006E-01
         -1   -1    0    0    0  501 -0.00000000000E+00  0.00000000000E+00  0.85752113740E+03  0.85752113740E+03  0.00000000000E+00 0.  1.
          1   -1    0    0  501    0  0.00000000000E+00 -0.00000000000E+00 -0.43518995407E+03  0.43518995407E+03  0.00000000000E+00 0. -1.
         23    2    1    2    0    0 -0.82514655850E+02  0.14267110142E+03 -0.12251947993E+03  0.22482967702E+03  0.91507645005E+02 0.  0.
        254    2    1    2    0    0  0.82514655850E+02 -0.14267110142E+03  0.54485066326E+03  0.10678814144E+04  0.90351799011E+03 0.  0.
        -24    2    4    4    0    0 -0.42403196233E+02 -0.35325682917E+03  0.68381958976E+03  0.77495225690E+03  0.79707908872E+02 0.  0.
         24    2    4    4    0    0  0.12491785208E+03  0.21058572775E+03 -0.13896892650E+03  0.29292915755E+03  0.80896911609E+02 0.  0.
         13    1    3    3    0    0  0.11931165234E+02 -0.26830147309E+01  0.54929672832E+00  0.12241445944E+02  0.00000000000E+00 0.  1.
        -13    1    3    3    0    0 -0.94445821084E+02  0.14535411615E+03 -0.12306877666E+03  0.21258823107E+03  0.00000000000E+00 0. -1.
          4    1    6    6  502    0  0.43800675246E+02  0.12996901648E+03 -0.10765454265E+03  0.17435579987E+03  0.00000000000E+00 0. -1.
          3    1    5    5  503    0  0.46650430478E+01  0.27228776864E+01  0.78377308430E+01  0.95187559218E+01  0.00000000000E+00 0. -1.
         -4    1    5    5    0  503 -0.47068239281E+02 -0.35597970686E+03  0.67598185891E+03  0.76543350098E+03  0.00000000000E+00 0.  1.
         -3    1    6    6    0  502  0.81117176838E+02  0.80616711267E+02 -0.31314383851E+02  0.11857335767E+03  0.00000000000E+00 0.  1.
<mgrwt>
<rscale>  0 0.12217767E+04</rscale>
<asrwt>0</asrwt>
<pdfrwt beam="1">  1        1 0.66952301E-01 0.12217767E+04</pdfrwt>
<pdfrwt beam="2">  1       -1 0.13192633E+00 0.12217767E+04</pdfrwt>
<totfact> 0.25873237E+01</totfact>
</mgrwt>
</event>
<event>
12    1  0.2215457E-007  0.1612625E+04  0.7818608E-02  0.8812829E-01
         -2   -1    0    0    0  501 -0.00000000000E+00  0.00000000000E+00  0.36842320235E+03  0.36842320235E+03  0.00000000000E+00 0. -1.
          2   -1    0    0  501    0  0.00000000000E+00 -0.00000000000E+00 -0.17646554052E+04  0.17646554052E+04  0.00000000000E+00 0.  1.
         23    2    1    2    0    0  0.42452961161E+03 -0.30424482072E+03 -0.69662630809E+03  0.87553743068E+03  0.92126420330E+02 0.  0.
        254    2    1    2    0    0 -0.42452961161E+03  0.30424482072E+03 -0.69960589473E+03  0.12575411768E+04  0.90508071542E+03 0.  0.
        -24    2    4    4    0    0 -0.59438303689E+03 -0.70585352148E+02 -0.28748670568E+03  0.66860294710E+03  0.78152469215E+02 0.  0.
         24    2    4    4    0    0  0.16985342528E+03  0.37483017287E+03 -0.41211918905E+03  0.58893822973E+03  0.87510958679E+02 0.  0.
         11    1    3    3    0    0  0.36615211855E+03 -0.25856833348E+03 -0.53667574519E+03  0.69924660348E+03  0.00000000000E+00 0.  1.
        -11    1    3    3    0    0  0.58377493059E+02 -0.45676487240E+02 -0.15995056290E+03  0.17629082720E+03  0.00000000000E+00 0. -1.
          2    1    6    6  502    0 -0.94005089088E+01  0.11270092308E+02 -0.21315478684E+02  0.25879222939E+02  0.00000000000E+00 0. -1.
          3    1    5    5  503    0 -0.81130237203E+02 -0.28072836637E+01 -0.11695412219E+02  0.82016942745E+02  0.00000000000E+00 0. -1.
         -4    1    5    5    0  503 -0.51325279969E+03 -0.67778068484E+02 -0.27579129346E+03  0.58658600436E+03  0.00000000000E+00 0.  1.
         -1    1    6    6    0  502  0.17925393419E+03  0.36356008056E+03 -0.39080371036E+03  0.56305900680E+03  0.00000000000E+00 0.  1.
<mgrwt>
<rscale>  0 0.16126252E+04</rscale>
<asrwt>0</asrwt>
<pdfrwt beam="1">  1        2 0.27148545E+00 0.16126252E+04</pdfrwt>
<pdfrwt beam="2">  1       -2 0.56680493E-01 0.16126252E+04</pdfrwt>
<totfact> 0.25248546E+01</totfact>
</mgrwt>
</event>
<event>
12    1  0.1201209E-007  0.1611695E+04  0.7818608E-02  0.8813395E-01
         -2   -1    0    0    0  501 -0.00000000000E+00  0.00000000000E+00  0.21359619776E+03  0.21359619776E+03  0.00000000000E+00 0.  1.
          2   -1    0    0  501    0  0.00000000000E+00 -0.00000000000E+00 -0.30402701366E+04  0.30402701366E+04  0.00000000000E+00 0. -1.
         23    2    1    2    0    0 -0.74705214022E+02  0.18752205914E+03  0.46824644020E+02  0.23628076032E+03  0.11353703688E+03 0.  0.
        254    2    1    2    0    0  0.74705214022E+02 -0.18752205914E+03 -0.28734985829E+04  0.30175855741E+04  0.89893448001E+03 0.  0.
        -24    2    4    4    0    0 -0.27584618287E+03 -0.23907956009E+03 -0.23549832831E+04  0.23844191443E+04  0.79109034628E+02 0.  0.
         24    2    4    4    0    0  0.35055139689E+03  0.51557500955E+02 -0.51851529979E+03  0.63316642978E+03  0.80604924883E+02 0.  0.
         11    1    3    3    0    0 -0.77484746488E+02  0.18707791323E+03  0.13609350254E+02  0.20294641157E+03  0.00000000000E+00 0.  1.
        -11    1    3    3    0    0  0.27795324657E+01  0.44414590868E+00  0.33215293766E+02  0.33334348745E+02  0.00000000000E+00 0. -1.
          4    1    6    6  502    0  0.32222667933E+03  0.48688526330E+02 -0.50646411045E+03  0.60225119398E+03  0.00000000000E+00 0. -1.
          1    1    5    5  503    0 -0.13077077768E+03 -0.10576288362E+03 -0.83949942542E+03  0.85618109599E+03  0.00000000000E+00 0. -1.
         -2    1    5    5    0  503 -0.14507540519E+03 -0.13331667647E+03 -0.15154838577E+04  0.15282380483E+04  0.00000000000E+00 0.  1.
         -3    1    6    6    0  502  0.28324717558E+02  0.28689746256E+01 -0.12051189334E+02  0.30915235799E+02  0.00000000000E+00 0.  1.
<mgrwt>
<rscale>  0 0.16116949E+04</rscale>
<asrwt>0</asrwt>
<pdfrwt beam="1">  1        2 0.46773384E+00 0.16116949E+04</pdfrwt>
<pdfrwt beam="2">  1       -2 0.32860955E-01 0.16116949E+04</pdfrwt>
<totfact> 0.13678717E+01</totfact>
</mgrwt>
</event>
<event>
12    1  0.1201209E-007  0.1345185E+04  0.7818608E-02  0.8994481E-01
         -2   -1    0    0    0  501 -0.00000000000E+00  0.00000000000E+00  0.28021370836E+03  0.28021370836E+03  0.00000000000E+00 0.  1.
          2   -1    0    0  501    0  0.00000000000E+00 -0.00000000000E+00 -0.16144124870E+04  0.16144124870E+04  0.00000000000E+00 0. -1.
         23    2    1    2    0    0  0.27914929650E+03 -0.16926841110E+03 -0.51102587703E+03  0.61307542485E+03  0.90210336580E+02 0.  0.
        254    2    1    2    0    0 -0.27914929650E+03  0.16926841110E+03 -0.82317290161E+03  0.12815507705E+04  0.92638146934E+03 0.  0.
        -24    2    4    4    0    0  0.23299768684E+03  0.98222898715E+02 -0.69405062528E+03  0.74235601600E+03  0.73827665033E+02 0.  0.
         24    2    4    4    0    0 -0.51214698333E+03  0.71045512388E+02 -0.12912227632E+03  0.53919475452E+03  0.81953789983E+02 0.  0.
         11    1    3    3    0    0  0.21514764226E+03 -0.16830784385E+03 -0.43545070816E+03  0.51403633870E+03  0.00000000000E+00 0. -1.
        -11    1    3    3    0    0  0.64001654234E+02 -0.96056725185E+00 -0.75575168876E+02  0.99039086147E+02  0.00000000000E+00 0.  1.
          4    1    6    6  502    0 -0.22030985045E+03  0.24593328502E+02 -0.96902439403E+02  0.24193252112E+03  0.00000000000E+00 0. -1.
          1    1    5    5  503    0  0.15387358759E+02  0.24073903146E+02 -0.13293576743E+03  0.13597147452E+03  0.00000000000E+00 0. -1.
         -2    1    5    5    0  503  0.21761032808E+03  0.74148995569E+02 -0.56111485786E+03  0.60638454147E+03  0.00000000000E+00 0.  1.
         -3    1    6    6    0  502 -0.29183713288E+03  0.46452183887E+02 -0.32219836922E+02  0.29726223340E+03  0.00000000000E+00 0.  1.
<mgrwt>
<rscale>  0 0.13451848E+04</rscale>
<asrwt>0</asrwt>
<pdfrwt beam="1">  1        2 0.24837115E+00 0.13451848E+04</pdfrwt>
<pdfrwt beam="2">  1       -2 0.43109802E-01 0.13451848E+04</pdfrwt>
<totfact> 0.54555505E+01</totfact>
</mgrwt>
</event>
<event>
12    1  0.1201209E-007  0.1423623E+04  0.7818608E-02  0.8936894E-01
          1   -1    0    0  501    0  0.00000000000E+00  0.00000000000E+00  0.34673663955E+04  0.34673663955E+04  0.00000000000E+00 0. -1.
         -1   -1    0    0    0  501 -0.00000000000E+00 -0.00000000000E+00 -0.14612696781E+03  0.14612696781E+03  0.00000000000E+00 0.  1.
         23    2    1    2    0    0 -0.29192069526E+03  0.11327736084E+02  0.23428457862E+03  0.38506081946E+03  0.89646868187E+02 0.  0.
        254    2    1    2    0    0  0.29192069526E+03 -0.11327736084E+02  0.30869548491E+04  0.32284325439E+04  0.89896631757E+03 0.  0.
        -24    2    4    4    0    0  0.42503860270E+03  0.24345868977E+03  0.95949149179E+03  0.10801174658E+04  0.78101663211E+02 0.  0.
         24    2    4    4    0    0 -0.13311790743E+03 -0.25478642585E+03  0.21274633573E+04  0.21483150780E+04  0.80751704572E+02 0.  0.
         11    1    3    3    0    0 -0.71103040251E+02  0.10780774489E+02  0.14218087057E+02  0.73307717404E+02  0.00000000000E+00 0. -1.
        -11    1    3    3    0    0 -0.22081765501E+03  0.54696159580E+00  0.22006649156E+03  0.31175310206E+03  0.00000000000E+00 0.  1.
          2    1    6    6  502    0 -0.19207882807E+02 -0.76623650730E+01  0.29902656231E+03  0.29974078729E+03  0.00000000000E+00 0. -1.
          3    1    5    5  503    0  0.10967623576E+03  0.98378462111E+02  0.32610794618E+03  0.35784576435E+03  0.00000000000E+00 0. -1.
         -4    1    5    5    0  503  0.31536236693E+03  0.14508022766E+03  0.63338354561E+03  0.72227170150E+03  0.00000000000E+00 0.  1.
         -1    1    6    6    0  502 -0.11391002462E+03 -0.24712406078E+03  0.18284367950E+04  0.18485742908E+04  0.00000000000E+00 0.  1.
<mgrwt>
<rscale>  0 0.14236232E+04</rscale>
<asrwt>0</asrwt>
<pdfrwt beam="1">  1        1 0.53344092E+00 0.14236232E+04</pdfrwt>
<pdfrwt beam="2">  1       -1 0.22481075E-01 0.14236232E+04</pdfrwt>
<totfact> 0.43908538E+00</totfact>
</mgrwt>
</event>
<event>
12    1  0.1201209E-007  0.1461901E+04  0.7818608E-02  0.8910191E-01
         -1   -1    0    0    0  501 -0.00000000000E+00  0.00000000000E+00  0.16383407035E+03  0.16383407035E+03  0.00000000000E+00 0.  1.
          1   -1    0    0  501    0  0.00000000000E+00 -0.00000000000E+00 -0.32611575865E+04  0.32611575865E+04  0.00000000000E+00 0. -1.
         23    2    1    2    0    0 -0.14802261379E+03  0.25494801050E+03 -0.17741071733E+04  0.18007823042E+04  0.91931836908E+02 0.  0.
        254    2    1    2    0    0  0.14802261379E+03 -0.25494801050E+03 -0.13232163429E+04  0.16242093526E+04  0.89456433468E+03 0.  0.
        -24    2    4    4    0    0  0.31155052378E+03 -0.12503186992E+03 -0.71700253744E+02  0.35277916098E+03  0.81335801899E+02 0.  0.
         24    2    4    4    0    0 -0.16352790999E+03 -0.12991614058E+03 -0.12515160891E+04  0.12714301917E+04  0.81379542661E+02 0.  0.
         11    1    3    3    0    0 -0.52043307115E+01 -0.34178354967E+01 -0.14564781260E+03  0.14578083541E+03  0.00000000000E+00 0.  1.
        -11    1    3    3    0    0 -0.14281828308E+03  0.25836584600E+03 -0.16284593607E+04  0.16550014688E+04  0.00000000000E+00 0. -1.
          2    1    6    6  502    0 -0.58374747433E+02 -0.80184502090E+02 -0.40542235720E+03  0.41737806990E+03  0.00000000000E+00 0. -1.
          3    1    5    5  503    0  0.50797280749E+02 -0.37199017760E+02 -0.42768263881E+02  0.76113435406E+02  0.00000000000E+00 0. -1.
         -4    1    5    5    0  503  0.26075324303E+03 -0.87832852164E+02 -0.28931989863E+02  0.27666572558E+03  0.00000000000E+00 0.  1.
         -1    1    6    6    0  502 -0.10515316256E+03 -0.49731638488E+02 -0.84609373194E+03  0.85405212176E+03  0.00000000000E+00 0.  1.
<mgrwt>
<rscale>  0 0.14619011E+04</rscale>
<asrwt>0</asrwt>
<pdfrwt beam="1">  1        1 0.50171652E+00 0.14619011E+04</pdfrwt>
<pdfrwt beam="2">  1       -1 0.25205243E-01 0.14619011E+04</pdfrwt>
<totfact> 0.51723426E+00</totfact>
</mgrwt>
</event>
<event>
12    1  0.1201209E-007  0.1761476E+04  0.7818608E-02  0.8727059E-01
         -2   -1    0    0    0  501 -0.00000000000E+00  0.00000000000E+00  0.28613241570E+03  0.28613241570E+03  0.00000000000E+00 0.  1.
          2   -1    0    0  501    0  0.00000000000E+00 -0.00000000000E+00 -0.27109814182E+04  0.27109814182E+04  0.00000000000E+00 0. -1.
         23    2    1    2    0    0 -0.53233211934E+03  0.20668897526E+03 -0.38732314267E+03  0.69600034316E+03  0.91101279050E+02 0.  0.
        254    2    1    2    0    0  0.53233211934E+03 -0.20668897526E+03 -0.20375258598E+04  0.23011134907E+04  0.90416472504E+03 0.  0.
        -24    2    4    4    0    0 -0.20444412981E+03  0.41370956803E+02 -0.85571350723E+03  0.88435811134E+03  0.79590856072E+02 0.  0.
         24    2    4    4    0    0  0.73677624915E+03 -0.24805993206E+03 -0.11818123526E+04  0.14167553794E+04  0.78373446196E+02 0.  0.
         11    1    3    3    0    0 -0.30674396290E+02  0.28896206060E+02 -0.92282837866E+01  0.43140126728E+02  0.00000000000E+00 0. -1.
        -11    1    3    3    0    0 -0.50165772305E+03  0.17779276920E+03 -0.37809485889E+03  0.65286021643E+03  0.00000000000E+00 0.  1.
          2    1    6    6  502    0  0.28078974284E+03 -0.13437364972E+03 -0.45860261532E+03  0.55427025556E+03  0.00000000000E+00 0. -1.
          1    1    5    5  503    0 -0.15683690717E+03  0.50338443913E+02 -0.75283671792E+03  0.77064576703E+03  0.00000000000E+00 0. -1.
         -2    1    5    5    0  503 -0.47607222637E+02 -0.89674871098E+01 -0.10287678931E+03  0.11371234432E+03  0.00000000000E+00 0.  1.
         -1    1    6    6    0  502  0.45598650631E+03 -0.11368628235E+03 -0.72320973723E+03  0.86248512379E+03  0.00000000000E+00 0.  1.
<mgrwt>
<rscale>  0 0.17614763E+04</rscale>
<asrwt>0</asrwt>
<pdfrwt beam="1">  1        2 0.41707408E+00 0.17614763E+04</pdfrwt>
<pdfrwt beam="2">  1       -2 0.44020370E-01 0.17614763E+04</pdfrwt>
<totfact> 0.12150718E+01</totfact>
</mgrwt>
</event>
<event>
12    1  0.1201209E-007  0.2640624E+04  0.7818608E-02  0.8354532E-01
         -2   -1    0    0    0  501 -0.00000000000E+00  0.00000000000E+00  0.51076931636E+03  0.51076931636E+03  0.00000000000E+00 0. -1.
          2   -1    0    0  501    0  0.00000000000E+00 -0.00000000000E+00 -0.34129371580E+04  0.34129371580E+04  0.00000000000E+00 0.  1.
         23    2    1    2    0    0 -0.13039996415E+03 -0.18955935409E+03 -0.29743147353E+04  0.29846029000E+04  0.91484569759E+02 0.  0.
        254    2    1    2    0    0  0.13039996415E+03  0.18955935409E+03  0.72146893648E+02  0.93910357441E+03  0.90761966144E+03 0.  0.
        -24    2    4    4    0    0 -0.21994724261E+03 -0.26722422199E+03  0.36932389142E+02  0.35691804578E+03  0.78999466358E+02 0.  0.
         24    2    4    4    0    0  0.35034720676E+03  0.45678357609E+03  0.35214504506E+02  0.58218552862E+03  0.79407353195E+02 0.  0.
         11    1    3    3    0    0 -0.30452620654E+02 -0.86943190921E+02 -0.74198608456E+03  0.74768297442E+03  0.00000000000E+00 0.  1.
        -11    1    3    3    0    0 -0.99947343492E+02 -0.10261616317E+03 -0.22323286507E+04  0.22369199255E+04  0.00000000000E+00 0. -1.
          4    1    6    6  502    0  0.87861119612E+02  0.11181703968E+03  0.43243386450E+02  0.14863585427E+03  0.00000000000E+00 0. -1.
          1    1    5    5  503    0  0.42788711650E+01 -0.21515568614E+02  0.65418921086E+01  0.22891587616E+02  0.00000000000E+00 0. -1.
         -2    1    5    5    0  503 -0.22422611378E+03 -0.24570865338E+03  0.30390497033E+02  0.33402645817E+03  0.00000000000E+00 0.  1.
         -3    1    6    6    0  502  0.26248608715E+03  0.34496653641E+03 -0.80288819439E+01  0.43354967436E+03  0.00000000000E+00 0.  1.
<mgrwt>
<rscale>  0 0.26406238E+04</rscale>
<asrwt>0</asrwt>
<pdfrwt beam="1">  1        2 0.52506725E+00 0.26406238E+04</pdfrwt>
<pdfrwt beam="2">  1       -2 0.78579895E-01 0.26406238E+04</pdfrwt>
<totfact> 0.11855210E+00</totfact>
</mgrwt>
</event>
<event>
12    1  0.1201209E-007  0.2664254E+04  0.7818608E-02  0.8346697E-01
          2   -1    0    0  501    0  0.00000000000E+00  0.00000000000E+00  0.40113142868E+04  0.40113142868E+04  0.00000000000E+00 0. -1.
         -2   -1    0    0    0  501 -0.00000000000E+00 -0.00000000000E+00 -0.44238913053E+03  0.44238913053E+03  0.00000000000E+00 0.  1.
         23    2    1    2    0    0 -0.53912127174E+03  0.37936145747E+03 -0.48369635870E+02  0.66724021299E+03  0.91120903742E+02 0.  0.
        254    2    1    2    0    0  0.53912127174E+03 -0.37936145747E+03  0.36172947922E+04  0.37864632044E+04  0.90438660071E+03 0.  0.
        -24    2    4    4    0    0 -0.21410953824E+03  0.33938170840E+02  0.47663607870E+03  0.52949048052E+03  0.78635384114E+02 0.  0.
         24    2    4    4    0    0  0.75323080997E+03 -0.41329962831E+03  0.31406587135E+04  0.32569727238E+04  0.77207082541E+02 0.  0.
         11    1    3    3    0    0 -0.76751778148E+02  0.34024702578E+02 -0.32188865664E+02  0.89914620096E+02  0.00000000000E+00 0. -1.
        -11    1    3    3    0    0 -0.46236949359E+03  0.34533675489E+03 -0.16180770207E+02  0.57732559289E+03  0.00000000000E+00 0.  1.
          4    1    6    6  502    0  0.49203971560E+03 -0.28712090968E+03  0.22033007611E+04  0.22757582786E+04  0.00000000000E+00 0. -1.
          3    1    5    5  503    0 -0.54402381773E+02  0.13230067088E+02  0.56478840026E+02  0.79526807986E+02  0.00000000000E+00 0. -1.
         -4    1    5    5    0  503 -0.15970715646E+03  0.20708103752E+02  0.42015723867E+03  0.44996367253E+03  0.00000000000E+00 0.  1.
         -1    1    6    6    0  502  0.26119109438E+03 -0.12617871863E+03  0.93735795235E+03  0.98121444529E+03  0.00000000000E+00 0.  1.
<mgrwt>
<rscale>  0 0.26642536E+04</rscale>
<asrwt>0</asrwt>
<pdfrwt beam="1">  1        2 0.61712525E+00 0.26642536E+04</pdfrwt>
<pdfrwt beam="2">  1       -2 0.68059869E-01 0.26642536E+04</pdfrwt>
<totfact> 0.58354684E-01</totfact>
</mgrwt>
</event>
<event>
12    1  0.1201209E-007  0.3529044E+04  0.7818608E-02  0.8106941E-01
         -2   -1    0    0    0  501 -0.00000000000E+00  0.00000000000E+00  0.10468587562E+04  0.10468587562E+04  0.00000000000E+00 0.  1.
          2   -1    0    0  501    0  0.00000000000E+00 -0.00000000000E+00 -0.29741722919E+04  0.29741722919E+04  0.00000000000E+00 0. -1.
         23    2    1    2    0    0  0.22580915710E+02  0.23245441447E+03  0.95669300186E+03  0.98903450884E+03  0.91557672092E+02 0.  0.
        254    2    1    2    0    0 -0.22580915710E+02 -0.23245441447E+03 -0.28840065376E+04  0.30319965392E+04  0.90607083187E+03 0.  0.
        -24    2    4    4    0    0 -0.38464467320E+03 -0.36905309304E+03 -0.15709788280E+04  0.16608426356E+04  0.79196412939E+02 0.  0.
         24    2    4    4    0    0  0.36206375749E+03  0.13659867857E+03 -0.13130277096E+04  0.13711539037E+04  0.79195315448E+02 0.  0.
         13    1    3    3    0    0 -0.54619068488E+01  0.53041715127E+02  0.10021777513E+03  0.11352029960E+03  0.00000000000E+00 0. -1.
        -13    1    3    3    0    0  0.28042822559E+02  0.17941269934E+03  0.85647522673E+03  0.87551420924E+03  0.00000000000E+00 0.  1.
          4    1    6    6  502    0  0.36278997743E+03  0.12696880041E+03 -0.12625772240E+04  0.13197874414E+04  0.00000000000E+00 0. -1.
          1    1    5    5  503    0 -0.35959370971E+03 -0.33677240126E+03 -0.15012499496E+04  0.15800236383E+04  0.00000000000E+00 0. -1.
         -2    1    5    5    0  503 -0.25050963492E+02 -0.32280691781E+02 -0.69728878426E+02  0.80818997274E+02  0.00000000000E+00 0.  1.
         -3    1    6    6    0  502 -0.72621994193E+00  0.96298781659E+01 -0.50450485596E+02  0.51366462267E+02  0.00000000000E+00 0.  1.
<mgrwt>
<rscale>  0 0.35290442E+04</rscale>
<asrwt>0</asrwt>
<pdfrwt beam="1">  1        2 0.45756496E+00 0.35290442E+04</pdfrwt>
<pdfrwt beam="2">  1       -2 0.16105520E+00 0.35290442E+04</pdfrwt>
<totfact> 0.36628947E-01</totfact>
</mgrwt>
</event>
<event>
12    1  0.1201209E-007  0.1615351E+04  0.7818608E-02  0.8811173E-01
         -2   -1    0    0    0  501 -0.00000000000E+00  0.00000000000E+00  0.37488252884E+03  0.37488252884E+03  0.00000000000E+00 0.  1.
          2   -1    0    0  501    0  0.00000000000E+00 -0.00000000000E+00 -0.17401170354E+04  0.17401170354E+04  0.00000000000E+00 0. -1.
         23    2    1    2    0    0 -0.88550301636E+02 -0.53887590677E+03 -0.55175871927E+03  0.78142794028E+03  0.89238684109E+02 0.  0.
        254    2    1    2    0    0  0.88550301636E+02  0.53887590677E+03 -0.81347578727E+03  0.13335716239E+04  0.90467785474E+03 0.  0.
        -24    2    4    4    0    0 -0.38178243394E+03  0.94679389627E+02 -0.36448756287E+03  0.54260468940E+03  0.82744497037E+02 0.  0.
         24    2    4    4    0    0  0.47033273557E+03  0.44419651715E+03 -0.44898822440E+03  0.79096693453E+03  0.74261954451E+02 0.  0.
         13    1    3    3    0    0 -0.41910459812E+02 -0.29621083116E+03 -0.36351903790E+03  0.47079022298E+03  0.00000000000E+00 0.  1.
        -13    1    3    3    0    0 -0.46639841824E+02 -0.24266507561E+03 -0.18823968137E+03  0.31063771730E+03  0.00000000000E+00 0. -1.
          4    1    6    6  502    0  0.20962378484E+03  0.23617268878E+03 -0.18848000758E+03  0.36775587467E+03  0.00000000000E+00 0. -1.
          1    1    5    5  503    0 -0.87365900805E+02 -0.93352304656E+01 -0.10250367605E+03  0.13500722483E+03  0.00000000000E+00 0. -1.
         -2    1    5    5    0  503 -0.29441653313E+03  0.10401462009E+03 -0.26198388681E+03  0.40759746457E+03  0.00000000000E+00 0.  1.
         -3    1    6    6    0  502  0.26070895073E+03  0.20802382837E+03 -0.26050821682E+03  0.42321105986E+03  0.00000000000E+00 0.  1.
<mgrwt>
<rscale>  0 0.16153507E+04</rscale>
<asrwt>0</asrwt>
<pdfrwt beam="1">  1        2 0.26771031E+00 0.16153507E+04</pdfrwt>
<pdfrwt beam="2">  1       -2 0.57674235E-01 0.16153507E+04</pdfrwt>
<totfact> 0.25115683E+01</totfact>
</mgrwt>
</event>
<event>
12    1  0.1201209E-007  0.1859517E+04  0.7818608E-02  0.8675274E-01
          2   -1    0    0  501    0  0.00000000000E+00  0.00000000000E+00  0.20973314371E+04  0.20973314371E+04  0.00000000000E+00 0. -1.
         -2   -1    0    0    0  501 -0.00000000000E+00 -0.00000000000E+00 -0.41216684167E+03  0.41216684167E+03  0.00000000000E+00 0.  1.
         23    2    1    2    0    0  0.45622070273E+03  0.43351712247E+03  0.22527746383E+03  0.67464298514E+03  0.91207437292E+02 0.  0.
        254    2    1    2    0    0 -0.45622070273E+03 -0.43351712247E+03  0.14598871316E+04  0.18348552936E+04  0.91615996773E+03 0.  0.
        -24    2    4    4    0    0 -0.57611996517E+03  0.43478794084E+02  0.10005848024E+04  0.11582312007E+04  0.80777147874E+02 0.  0.
         24    2    4    4    0    0  0.11989926244E+03 -0.47699591655E+03  0.45930232924E+03  0.67662409299E+03  0.70431498826E+02 0.  0.
         13    1    3    3    0    0 -0.18052377420E+01 -0.25524304376E+01  0.29245171186E+01  0.42809560639E+01  0.00000000000E+00 0. -1.
        -13    1    3    3    0    0  0.45802594047E+03  0.43606955290E+03  0.22235294671E+03  0.67036202908E+03  0.00000000000E+00 0.  1.
          2    1    6    6  502    0  0.12684137144E+03 -0.41837699902E+03  0.41535722395E+03  0.60303372236E+03  0.00000000000E+00 0. -1.
          3    1    5    5  503    0 -0.50867897199E+03  0.30857583394E+02  0.82487499593E+03  0.96960055998E+03  0.00000000000E+00 0. -1.
         -4    1    5    5    0  503 -0.67440993181E+02  0.12621210690E+02  0.17570980646E+03  0.18863064069E+03  0.00000000000E+00 0.  1.
         -3    1    6    6    0  502 -0.69421090037E+01 -0.58618917528E+02  0.43945105286E+02  0.73590370621E+02  0.00000000000E+00 0.  1.
<mgrwt>
<rscale>  0 0.18595166E+04</rscale>
<asrwt>0</asrwt>
<pdfrwt beam="1">  1        2 0.32266637E+00 0.18595166E+04</pdfrwt>
<pdfrwt beam="2">  1       -2 0.63410285E-01 0.18595166E+04</pdfrwt>
<totfact> 0.12755378E+01</totfact>
</mgrwt>
</event>
<event>
12    1  0.1201209E-007  0.1575712E+04  0.7818608E-02  0.8835610E-01
          2   -1    0    0  501    0  0.00000000000E+00  0.00000000000E+00  0.55166730809E+03  0.55166730809E+03  0.00000000000E+00 0.  1.
         -2   -1    0    0    0  501 -0.00000000000E+00 -0.00000000000E+00 -0.11251653413E+04  0.11251653413E+04  0.00000000000E+00 0. -1.
         23    2    1    2    0    0  0.34498933603E+03  0.10402524179E+03 -0.53215141894E+03  0.64912812823E+03  0.91341673286E+02 0.  0.
        254    2    1    2    0    0 -0.34498933603E+03 -0.10402524179E+03 -0.41346614318E+02  0.10277045212E+04  0.96157586674E+03 0.  0.
        -24    2    4    4    0    0 -0.47666818626E+03  0.18461293081E+03  0.26243854499E+03  0.58122920691E+03  0.87515181878E+02 0.  0.
         24    2    4    4    0    0  0.13167885023E+03 -0.28863817260E+03 -0.30378515931E+03  0.44647531429E+03  0.80021678180E+02 0.  0.
         11    1    3    3    0    0  0.27653393238E+03  0.50058908369E+02 -0.36543863766E+03  0.46100141861E+03  0.00000000000E+00 0. -1.
        -11    1    3    3    0    0  0.68455403652E+02  0.53966333421E+02 -0.16671278128E+03  0.18812670962E+03  0.00000000000E+00 0.  1.
          2    1    6    6  502    0  0.12015964869E+03 -0.28998680307E+03 -0.28280889065E+03  0.42250627896E+03  0.00000000000E+00 0. -1.
          3    1    5    5  503    0 -0.46775496751E+03  0.16489959043E+03  0.25830532137E+03  0.55920320422E+03  0.00000000000E+00 0. -1.
         -4    1    5    5    0  503 -0.89132187428E+01  0.19713340378E+02  0.41332236208E+01  0.22026002695E+02  0.00000000000E+00 0.  1.
         -1    1    6    6    0  502  0.11519201535E+02  0.13486304686E+01 -0.20976268656E+02  0.23969035335E+02  0.00000000000E+00 0.  1.
<mgrwt>
<rscale>  0 0.15757118E+04</rscale>
<asrwt>0</asrwt>
<pdfrwt beam="1">  1        2 0.84871895E-01 0.15757118E+04</pdfrwt>
<pdfrwt beam="2">  1       -2 0.17310236E+00 0.15757118E+04</pdfrwt>
<totfact> 0.10667144E+01</totfact>
</mgrwt>
</event>
<event>
12    1  0.1201209E-007  0.1656955E+04  0.7818608E-02  0.8786303E-01
         -2   -1    0    0    0  501 -0.00000000000E+00  0.00000000000E+00  0.16251032514E+04  0.16251032514E+04  0.00000000000E+00 0. -1.
          2   -1    0    0  501    0  0.00000000000E+00 -0.00000000000E+00 -0.42235756403E+03  0.42235756403E+03  0.00000000000E+00 0.  1.
         23    2    1    2    0    0  0.74152608884E+02 -0.24856958315E+03 -0.21466336888E+03  0.34897068303E+03  0.91731829818E+02 0.  0.
        254    2    1    2    0    0 -0.74152608884E+02  0.24856958315E+03  0.14174090562E+04  0.16984901324E+04  0.89918565938E+03 0.  0.
        -24    2    4    4    0    0 -0.43427533285E+03  0.59528779540E+02  0.10631124997E+04  0.11526674787E+04  0.79343488267E+02 0.  0.
         24    2    4    4    0    0  0.36012272396E+03  0.18904080362E+03  0.35429655654E+03  0.54582265369E+03  0.83495613991E+02 0.  0.
         11    1    3    3    0    0  0.62602066248E+02 -0.23237533279E+03 -0.22234250325E+03  0.32764844382E+03  0.00000000000E+00 0.  1.
        -11    1    3    3    0    0  0.11550542636E+02 -0.16194250363E+02  0.76791343726E+01  0.21322239205E+02  0.00000000000E+00 0. -1.
          4    1    6    6  502    0  0.33455260752E+03  0.14577999803E+03  0.30969271683E+03  0.47863016399E+03  0.00000000000E+00 0. -1.
          1    1    5    5  503    0 -0.17519069401E+03  0.15538845813E+02  0.33111839651E+03  0.37493016350E+03  0.00000000000E+00 0. -1.
         -2    1    5    5    0  503 -0.25908463883E+03  0.43989933726E+02  0.73199410318E+03  0.77773731519E+03  0.00000000000E+00 0.  1.
         -3    1    6    6    0  502  0.25570116443E+02  0.43260805584E+02  0.44603839715E+02  0.67192489699E+02  0.00000000000E+00 0.  1.
<mgrwt>
<rscale>  0 0.16569546E+04</rscale>
<asrwt>0</asrwt>
<pdfrwt beam="1">  1        2 0.64978088E-01 0.16569546E+04</pdfrwt>
<pdfrwt beam="2">  1       -2 0.25001588E+00 0.16569546E+04</pdfrwt>
<totfact> 0.45868054E+00</totfact>
</mgrwt>
</event>
<event>
12    1  0.1201209E-007  0.1277768E+04  0.7818608E-02  0.9047383E-01
          2   -1    0    0  501    0  0.00000000000E+00  0.00000000000E+00  0.69638679464E+03  0.69638679464E+03  0.00000000000E+00 0.  1.
         -2   -1    0    0    0  501 -0.00000000000E+00 -0.00000000000E+00 -0.58612983282E+03  0.58612983282E+03  0.00000000000E+00 0. -1.
         23    2    1    2    0    0 -0.23834188317E+03 -0.20288304442E+03  0.78200254444E+02  0.33495836813E+03  0.90074666788E+02 0.  0.
        254    2    1    2    0    0  0.23834188317E+03  0.20288304442E+03  0.32056707376E+02  0.94755825933E+03  0.89379563623E+03 0.  0.
        -24    2    4    4    0    0 -0.89395111422E+02 -0.11905442922E+03  0.34608833100E+03  0.38540127731E+03  0.81188476015E+02 0.  0.
         24    2    4    4    0    0  0.32773699460E+03  0.32193747365E+03 -0.31403162362E+03  0.56215698202E+03  0.79682728559E+02 0.  0.
         13    1    3    3    0    0 -0.24326956567E+02 -0.69224343585E+02  0.18338689232E+02  0.75631462258E+02  0.00000000000E+00 0. -1.
        -13    1    3    3    0    0 -0.21401492661E+03 -0.13365870084E+03  0.59861565212E+02  0.25932690587E+03  0.00000000000E+00 0.  1.
          4    1    6    6  502    0  0.86842681850E+02  0.52297511016E+02 -0.97795464481E+02  0.14085678515E+03  0.00000000000E+00 0. -1.
          3    1    5    5  503    0 -0.29970474646E+02 -0.50541650244E+01  0.24401454305E+02  0.38976979190E+02  0.00000000000E+00 0. -1.
         -4    1    5    5    0  503 -0.59424636777E+02 -0.11400026420E+03  0.32168687669E+03  0.34642429812E+03  0.00000000000E+00 0.  1.
         -3    1    6    6    0  502  0.24089431275E+03  0.26963996263E+03 -0.21623615914E+03  0.42130019687E+03  0.00000000000E+00 0.  1.
<mgrwt>
<rscale>  0 0.12777685E+04</rscale>
<asrwt>0</asrwt>
<pdfrwt beam="1">  1        2 0.10713643E+00 0.12777685E+04</pdfrwt>
<pdfrwt beam="2">  1       -2 0.90173820E-01 0.12777685E+04</pdfrwt>
<totfact> 0.42612934E+01</totfact>
</mgrwt>
</event>
<event>
12    1  0.1201209E-007  0.1751600E+04  0.7818608E-02  0.8732470E-01
         -2   -1    0    0    0  501 -0.00000000000E+00  0.00000000000E+00  0.60798740564E+03  0.60798740564E+03  0.00000000000E+00 0.  1.
          2   -1    0    0  501    0  0.00000000000E+00 -0.00000000000E+00 -0.12615810785E+04  0.12615810785E+04  0.00000000000E+00 0. -1.
         23    2    1    2    0    0  0.61978225222E+03  0.90461896175E+02 -0.31024342252E+03  0.70486634892E+03  0.90951601327E+02 0.  0.
        254    2    1    2    0    0 -0.61978225222E+03 -0.90461896175E+02 -0.34335025037E+03  0.11647021353E+04  0.91996101799E+03 0.  0.
        -24    2    4    4    0    0 -0.47266166504E+03 -0.48661585104E+03 -0.21013316429E+03  0.71450929241E+03  0.78508255116E+02 0.  0.
         24    2    4    4    0    0 -0.14712058719E+03  0.39615395487E+03 -0.13321708608E+03  0.45019284285E+03  0.79651620214E+02 0.  0.
         11    1    3    3    0    0  0.54314849840E+03  0.48151158084E+02 -0.26293285727E+03  0.60536147282E+03  0.00000000000E+00 0. -1.
        -11    1    3    3    0    0  0.76633753824E+02  0.42310738091E+02 -0.47310565249E+02  0.99504876098E+02  0.00000000000E+00 0.  1.
          2    1    6    6  502    0 -0.11486458325E+03  0.27640758269E+03 -0.12946065444E+03  0.32612127391E+03  0.00000000000E+00 0. -1.
          1    1    5    5  503    0 -0.33877560300E+03 -0.36712131550E+03 -0.12031608069E+03  0.51383161517E+03  0.00000000000E+00 0. -1.
         -2    1    5    5    0  503 -0.13388606204E+03 -0.11949453554E+03 -0.89817083605E+02  0.20067767724E+03  0.00000000000E+00 0.  1.
         -1    1    6    6    0  502 -0.32256003934E+02  0.11974637218E+03 -0.37564316395E+01  0.12407156894E+03  0.00000000000E+00 0.  1.
<mgrwt>
<rscale>  0 0.17515997E+04</rscale>
<asrwt>0</asrwt>
<pdfrwt beam="1">  1        2 0.19408940E+00 0.17515997E+04</pdfrwt>
<pdfrwt beam="2">  1       -2 0.93536524E-01 0.17515997E+04</pdfrwt>
<totfact> 0.15949151E+01</totfact>
</mgrwt>
</event>
<event>
12    1  0.1201209E-007  0.3570251E+04  0.7818608E-02  0.8097340E-01
          1   -1    0    0  501    0  0.00000000000E+00  0.00000000000E+00  0.12278173804E+04  0.12278173804E+04  0.00000000000E+00 0. -1.
         -1   -1    0    0    0  501 -0.00000000000E+00 -0.00000000000E+00 -0.25953971197E+04  0.25953971197E+04  0.00000000000E+00 0.  1.
         23    2    1    2    0    0 -0.15598433785E+04  0.49830466836E+03 -0.31587422647E+03  0.16701960218E+04  0.91429295609E+02 0.  0.
        254    2    1    2    0    0  0.15598433785E+04 -0.49830466836E+03 -0.10517055128E+04  0.21530184784E+04  0.92086110493E+03 0.  0.
        -24    2    4    4    0    0  0.16021390681E+04 -0.54611908162E+03 -0.78492185674E+03  0.18675468731E+04  0.80829184805E+02 0.  0.
         24    2    4    4    0    0 -0.42295689553E+02  0.47814413266E+02 -0.26678365608E+03  0.28547160533E+03  0.79027683917E+02 0.  0.
         11    1    3    3    0    0 -0.13993363984E+04  0.41719686818E+03 -0.27904530959E+03  0.14866276828E+04  0.00000000000E+00 0.  1.
        -11    1    3    3    0    0 -0.16050698018E+03  0.81107800179E+02 -0.36828916883E+02  0.18356833892E+03  0.00000000000E+00 0. -1.
          2    1    6    6  502    0  0.14651410232E+02 -0.71544602366E+01 -0.94244822070E+02  0.95644846228E+02  0.00000000000E+00 0. -1.
          3    1    5    5  503    0  0.75295331850E+03 -0.21446308555E+03 -0.36855658644E+03  0.86531327987E+03  0.00000000000E+00 0. -1.
         -4    1    5    5    0  503  0.84918574960E+03 -0.33165599607E+03 -0.41636527030E+03  0.10022335932E+04  0.00000000000E+00 0.  1.
         -1    1    6    6    0  502 -0.56947099785E+02  0.54968873503E+02 -0.17253883401E+03  0.18982675910E+03  0.00000000000E+00 0.  1.
<mgrwt>
<rscale>  0 0.35702514E+04</rscale>
<asrwt>0</asrwt>
<pdfrwt beam="1">  1        1 0.18889498E+00 0.35702514E+04</pdfrwt>
<pdfrwt beam="2">  1       -1 0.39929186E+00 0.35702514E+04</pdfrwt>
<totfact> 0.59780662E-02</totfact>
</mgrwt>
</event>
<event>
12    1  0.1201209E-007  0.1920553E+04  0.7818608E-02  0.8644693E-01
         -2   -1    0    0    0  501 -0.00000000000E+00  0.00000000000E+00  0.13429043642E+04  0.13429043642E+04  0.00000000000E+00 0.  1.
          2   -1    0    0  501    0  0.00000000000E+00 -0.00000000000E+00 -0.68666908997E+03  0.68666908997E+03  0.00000000000E+00 0. -1.
         23    2    1    2    0    0  0.41049157051E+03 -0.57993512620E+03  0.58004603556E+01  0.71628358509E+03  0.90556329851E+02 0.  0.
        254    2    1    2    0    0 -0.41049157051E+03  0.57993512620E+03  0.65043481392E+03  0.13132898691E+04  0.89265713078E+03 0.  0.
        -24    2    4    4    0    0  0.13617301244E+03  0.80690665677E+02  0.53073099765E+03  0.55903242341E+03  0.76077498016E+02 0.  0.
         24    2    4    4    0    0 -0.54666458295E+03  0.49924446052E+03  0.11970381627E+03  0.75425744572E+03  0.80548700724E+02 0.  0.
         13    1    3    3    0    0  0.69032650893E+02 -0.99837909711E+02  0.35285614434E+02  0.12640486419E+03  0.00000000000E+00 0. -1.
        -13    1    3    3    0    0  0.34145891962E+03 -0.48009721649E+03 -0.29485154078E+02  0.58987872090E+03  0.00000000000E+00 0.  1.
          4    1    6    6  502    0 -0.23170236234E+03  0.23226138835E+03  0.90533741875E+02  0.34033468183E+03  0.00000000000E+00 0. -1.
          3    1    5    5  503    0  0.72776549114E+02  0.87113098122E+01  0.15825353575E+03  0.17440325282E+03  0.00000000000E+00 0. -1.
         -4    1    5    5    0  503  0.63396463323E+02  0.71979355865E+02  0.37247746191E+03  0.38462917058E+03  0.00000000000E+00 0.  1.
         -3    1    6    6    0  502 -0.31496222060E+03  0.26698307217E+03  0.29170074394E+02  0.41392276390E+03  0.00000000000E+00 0.  1.
<mgrwt>
<rscale>  0 0.19205530E+04</rscale>
<asrwt>0</asrwt>
<pdfrwt beam="1">  1        2 0.10564140E+00 0.19205530E+04</pdfrwt>
<pdfrwt beam="2">  1       -2 0.20660067E+00 0.19205530E+04</pdfrwt>
<totfact> 0.47247656E+00</totfact>
</mgrwt>
</event>
<event>
12    1  0.1201209E-007  0.2663322E+04  0.7818608E-02  0.8347005E-01
          1   -1    0    0  501    0  0.00000000000E+00  0.00000000000E+00  0.17439000888E+04  0.17439000888E+04  0.00000000000E+00 0. -1.
         -1   -1    0    0    0  501 -0.00000000000E+00 -0.00000000000E+00 -0.10168704447E+04  0.10168704447E+04  0.00000000000E+00 0.  1.
         23    2    1    2    0    0 -0.85719284727E+03 -0.35115399679E+03  0.10746250826E+04  0.14217341113E+04  0.91761147828E+02 0.  0.
        254    2    1    2    0    0  0.85719284727E+03  0.35115399679E+03 -0.34759543846E+03  0.13390364222E+04  0.90227891710E+03 0.  0.
        -24    2    4    4    0    0  0.57232206892E+03 -0.46556018423E+02  0.18776373211E+03  0.60952907449E+03  0.80934912925E+02 0.  0.
         24    2    4    4    0    0  0.28487077835E+03  0.39771001521E+03 -0.53535917057E+03  0.72950734770E+03  0.79037410651E+02 0.  0.
         11    1    3    3    0    0 -0.83843102889E+03 -0.34167992140E+03  0.10670432641E+04  0.13993902552E+04  0.00000000000E+00 0. -1.
        -11    1    3    3    0    0 -0.18761818387E+02 -0.94740753877E+01  0.75818184604E+01  0.22343856087E+02  0.00000000000E+00 0.  1.
          4    1    6    6  502    0  0.24506649065E+03  0.37894268428E+03 -0.48078501985E+03  0.65940077201E+03  0.00000000000E+00 0. -1.
          3    1    5    5  503    0  0.44794813066E+03 -0.43864633535E+02  0.18043371419E+03  0.48491025876E+03  0.00000000000E+00 0. -1.
         -4    1    5    5    0  503  0.12437393827E+03 -0.26913848885E+01  0.73300179214E+01  0.12461881574E+03  0.00000000000E+00 0.  1.
         -3    1    6    6    0  502  0.39804287695E+02  0.18767330934E+02 -0.54574150712E+02  0.70106575692E+02  0.00000000000E+00 0.  1.
<mgrwt>
<rscale>  0 0.26633216E+04</rscale>
<asrwt>0</asrwt>
<pdfrwt beam="1">  1        1 0.26829232E+00 0.26633216E+04</pdfrwt>
<pdfrwt beam="2">  1       -1 0.15644161E+00 0.26633216E+04</pdfrwt>
<totfact> 0.12121398E+00</totfact>
</mgrwt>
</event>
<event>
12    1  0.1201209E-007  0.2759338E+04  0.7818608E-02  0.8316005E-01
          2   -1    0    0  501    0  0.00000000000E+00  0.00000000000E+00  0.14519861453E+04  0.14519861453E+04  0.00000000000E+00 0.  1.
         -2   -1    0    0    0  501 -0.00000000000E+00 -0.00000000000E+00 -0.13109533093E+04  0.13109533093E+04  0.00000000000E+00 0. -1.
         23    2    1    2    0    0 -0.34671007121E+03  0.11628595408E+04 -0.14482672228E+03  0.12253352397E+04  0.89562743337E+02 0.  0.
        254    2    1    2    0    0  0.34671007121E+03 -0.11628595408E+04  0.28585955833E+03  0.15376042148E+04  0.90003380447E+03 0.  0.
        -24    2    4    4    0    0  0.25677772220E+03 -0.13003317345E+04  0.24155464929E+03  0.13496491177E+04  0.80041702523E+02 0.  0.
         24    2    4    4    0    0  0.89932349017E+02  0.13747219363E+03  0.44304909045E+02  0.18795509709E+03  0.79860892405E+02 0.  0.
         11    1    3    3    0    0 -0.39666392415E+02  0.72844239672E+02 -0.24716525768E+02  0.86548325152E+02  0.00000000000E+00 0.  1.
        -11    1    3    3    0    0 -0.30704367880E+03  0.10900153012E+04 -0.12011019652E+03  0.11387869146E+04  0.00000000000E+00 0. -1.
          4    1    6    6  502    0  0.51803916095E+02  0.12994532225E+03  0.50243002603E+02  0.14863980560E+03  0.00000000000E+00 0. -1.
          1    1    5    5  503    0  0.18058692641E+03 -0.10299561466E+04  0.16602131516E+03  0.10587654976E+04  0.00000000000E+00 0. -1.
         -2    1    5    5    0  503  0.76190795788E+02 -0.27037558789E+03  0.75533334123E+02  0.29088362011E+03  0.00000000000E+00 0.  1.
         -3    1    6    6    0  502  0.38128432922E+02  0.75268713757E+01 -0.59380935585E+01  0.39315291490E+02  0.00000000000E+00 0.  1.
<mgrwt>
<rscale>  0 0.27593376E+04</rscale>
<asrwt>0</asrwt>
<pdfrwt beam="1">  1        2 0.22338248E+00 0.27593376E+04</pdfrwt>
<pdfrwt beam="2">  1       -2 0.20168512E+00 0.27593376E+04</pdfrwt>
<totfact> 0.15300045E+00</totfact>
</mgrwt>
</event>
<event>
12    1  0.1201209E-007  0.2526443E+04  0.7818608E-02  0.8393625E-01
         -2   -1    0    0    0  501 -0.00000000000E+00  0.00000000000E+00  0.42585701157E+03  0.42585701157E+03  0.00000000000E+00 0. -1.
          2   -1    0    0  501    0  0.00000000000E+00 -0.00000000000E+00 -0.37471007223E+04  0.37471007223E+04  0.00000000000E+00 0.  1.
         23    2    1    2    0    0 -0.69092818259E+03  0.85106369435E+03 -0.15922075119E+04  0.19353093264E+04  0.92769943840E+02 0.  0.
        254    2    1    2    0    0  0.69092818259E+03 -0.85106369435E+03 -0.17290361988E+04  0.22376484075E+04  0.90322370060E+03 0.  0.
        -24    2    4    4    0    0  0.47425901537E+03 -0.10968039336E+03 -0.21929489249E+03  0.53991223278E+03  0.80396311349E+02 0.  0.
         24    2    4    4    0    0  0.21666916722E+03 -0.74138330099E+03 -0.15097413064E+04  0.16977361747E+04  0.79966116889E+02 0.  0.
         11    1    3    3    0    0 -0.36675483709E+03  0.52035367873E+03 -0.94820645720E+03  0.11420913041E+04  0.00000000000E+00 0. -1.
        -11    1    3    3    0    0 -0.32417334550E+03  0.33071001563E+03 -0.64400105472E+03  0.79321802227E+03  0.00000000000E+00 0.  1.
          4    1    6    6  502    0  0.73856237506E+02 -0.35712275758E+03 -0.77026923037E+03  0.85223593861E+03  0.00000000000E+00 0. -1.
          1    1    5    5  503    0  0.39951672100E+03 -0.11971697210E+03 -0.19713179596E+03  0.46130977525E+03  0.00000000000E+00 0. -1.
         -2    1    5    5    0  503  0.74742294370E+02  0.10036578735E+02 -0.22163096536E+02  0.78602457522E+02  0.00000000000E+00 0.  1.
         -3    1    6    6    0  502  0.14281292971E+03 -0.38426054341E+03 -0.73947207598E+03  0.84550023611E+03  0.00000000000E+00 0.  1.
<mgrwt>
<rscale>  0 0.25264434E+04</rscale>
<asrwt>0</asrwt>
<pdfrwt beam="1">  1        2 0.57647705E+00 0.25264434E+04</pdfrwt>
<pdfrwt beam="2">  1       -2 0.65516462E-01 0.25264434E+04</pdfrwt>
<totfact> 0.10305102E+00</totfact>
</mgrwt>
</event>
<event>
12    1  0.1201209E-007  0.2074604E+04  0.7818608E-02  0.8572514E-01
         -1   -1    0    0    0  501 -0.00000000000E+00  0.00000000000E+00  0.53423868814E+03  0.53423868814E+03  0.00000000000E+00 0.  1.
          1   -1    0    0  501    0  0.00000000000E+00 -0.00000000000E+00 -0.20140723440E+04  0.20140723440E+04  0.00000000000E+00 0. -1.
         23    2    1    2    0    0 -0.77495589635E+03  0.31013057100E+03 -0.50110509909E+03  0.97812245596E+03  0.94231662224E+02 0.  0.
        254    2    1    2    0    0  0.77495589635E+03 -0.31013057100E+03 -0.97872855679E+03  0.15701885762E+04  0.90046930242E+03 0.  0.
        -24    2    4    4    0    0  0.74408323415E+03 -0.51662323153E+03 -0.48925358246E+03  0.10322067574E+04  0.74312174547E+02 0.  0.
         24    2    4    4    0    0  0.30872662195E+02  0.20649266053E+03 -0.48947497432E+03  0.53798181884E+03  0.79033833175E+02 0.  0.
         11    1    3    3    0    0 -0.38250591225E+03  0.12564650036E+03 -0.28745085949E+03  0.49469769818E+03  0.00000000000E+00 0.  1.
        -11    1    3    3    0    0 -0.39244998410E+03  0.18448407065E+03 -0.21365423960E+03  0.48342475778E+03  0.00000000000E+00 0. -1.
          4    1    6    6  502    0  0.77597562269E+00  0.18321896235E+03 -0.42962935358E+03  0.46706656031E+03  0.00000000000E+00 0. -1.
          3    1    5    5  503    0  0.43269014728E+03 -0.34251170391E+03 -0.28461573369E+03  0.62091959764E+03  0.00000000000E+00 0. -1.
         -4    1    5    5    0  503  0.31139308687E+03 -0.17411152762E+03 -0.20463784877E+03  0.41128715972E+03  0.00000000000E+00 0.  1.
         -3    1    6    6    0  502  0.30096686572E+02  0.23273698174E+02 -0.59845620741E+02  0.70915258522E+02  0.00000000000E+00 0.  1.
<mgrwt>
<rscale>  0 0.20746039E+04</rscale>
<asrwt>0</asrwt>
<pdfrwt beam="1">  1        1 0.30985729E+00 0.20746039E+04</pdfrwt>
<pdfrwt beam="2">  1       -1 0.82190566E-01 0.20746039E+04</pdfrwt>
<totfact> 0.39552842E+00</totfact>
</mgrwt>
</event>
<event>
12    1  0.1201209E-007  0.1343623E+04  0.7818608E-02  0.8995669E-01
          1   -1    0    0  501    0  0.00000000000E+00  0.00000000000E+00  0.10966517095E+04  0.10966517095E+04  0.00000000000E+00 0. -1.
         -1   -1    0    0    0  501 -0.00000000000E+00 -0.00000000000E+00 -0.41155354345E+03  0.41155354345E+03  0.00000000000E+00 0.  1.
         23    2    1    2    0    0 -0.27440951010E+03 -0.10451747650E+03 -0.50160128826E+02  0.31169341535E+03  0.91718397947E+02 0.  0.
        254    2    1    2    0    0  0.27440951010E+03  0.10451747650E+03  0.73525829491E+03  0.11965118376E+04  0.89711277733E+03 0.  0.
        -24    2    4    4    0    0  0.59458493545E+03  0.12674269624E+03  0.50198465260E+03  0.79172723089E+03  0.72446257087E+02 0.  0.
         24    2    4    4    0    0 -0.32017542535E+03 -0.22225219746E+02  0.23327364231E+03  0.40478460675E+03  0.80173077030E+02 0.  0.
         11    1    3    3    0    0 -0.14886983856E+03 -0.10471965869E+03 -0.26214693492E+02  0.18389030943E+03  0.00000000000E+00 0.  1.
        -11    1    3    3    0    0 -0.12553967154E+03  0.20218219474E+00 -0.23945435334E+02  0.12780310592E+03  0.00000000000E+00 0. -1.
          4    1    6    6  502    0 -0.73068784576E+02 -0.31159573721E+02  0.85586057140E+02  0.11676874364E+03  0.00000000000E+00 0. -1.
          3    1    5    5  503    0  0.59601957751E+02 -0.60213591722E+01  0.35614647319E+02  0.69692562284E+02  0.00000000000E+00 0. -1.
         -4    1    5    5    0  503  0.53498297769E+03  0.13276405541E+03  0.46637000529E+03  0.72203466860E+03  0.00000000000E+00 0.  1.
         -3    1    6    6    0  502 -0.24710664077E+03  0.89343539750E+01  0.14768758517E+03  0.28801586312E+03  0.00000000000E+00 0.  1.
<mgrwt>
<rscale>  0 0.13436233E+04</rscale>
<asrwt>0</asrwt>
<pdfrwt beam="1">  1        1 0.16871565E+00 0.13436233E+04</pdfrwt>
<pdfrwt beam="2">  1       -1 0.63315931E-01 0.13436233E+04</pdfrwt>
<totfact> 0.31596923E+01</totfact>
</mgrwt>
</event>
<event>
12    1  0.1201209E-007  0.1358129E+04  0.7818608E-02  0.8984697E-01
         -1   -1    0    0    0  501 -0.00000000000E+00  0.00000000000E+00  0.63899938873E+03  0.63899938873E+03  0.00000000000E+00 0.  1.
          1   -1    0    0  501    0  0.00000000000E+00 -0.00000000000E+00 -0.72164203231E+03  0.72164203231E+03  0.00000000000E+00 0. -1.
         23    2    1    2    0    0 -0.21379086140E+03  0.70122433648E+02 -0.32434860272E+03  0.40553941426E+03  0.92932837645E+02 0.  0.
        254    2    1    2    0    0  0.21379086140E+03 -0.70122433648E+02  0.24170595914E+03  0.95510200678E+03  0.89619996906E+03 0.  0.
        -24    2    4    4    0    0 -0.10513745192E+03  0.16294810802E+03 -0.24508592803E+03  0.32307169061E+03  0.81867181778E+02 0.  0.
         24    2    4    4    0    0  0.31892831332E+03 -0.23307054167E+03  0.48679188717E+03  0.63203031617E+03  0.80366863309E+02 0.  0.
         13    1    3    3    0    0 -0.58615646400E+02 -0.33709019369E+01 -0.14888673458E+03  0.16004504590E+03  0.00000000000E+00 0.  1.
        -13    1    3    3    0    0 -0.15517521500E+03  0.73493335585E+02 -0.17546186814E+03  0.24549436836E+03  0.00000000000E+00 0. -1.
          2    1    6    6  502    0  0.10365215617E+03 -0.11948836878E+03  0.16529727198E+03  0.22878904667E+03  0.00000000000E+00 0. -1.
          1    1    5    5  503    0 -0.96492687632E+02  0.17104824460E+03 -0.24017954348E+03  0.31024918027E+03  0.00000000000E+00 0. -1.
         -2    1    5    5    0  503 -0.86447642850E+01 -0.81001365815E+01 -0.49063845441E+01  0.12822510342E+02  0.00000000000E+00 0.  1.
         -1    1    6    6    0  502  0.21527615714E+03 -0.11358217289E+03  0.32149461519E+03  0.40324126950E+03  0.00000000000E+00 0.  1.
<mgrwt>
<rscale>  0 0.13581293E+04</rscale>
<asrwt>0</asrwt>
<pdfrwt beam="1">  1        1 0.11102185E+00 0.13581293E+04</pdfrwt>
<pdfrwt beam="2">  1       -1 0.98307599E-01 0.13581293E+04</pdfrwt>
<totfact> 0.25218551E+01</totfact>
</mgrwt>
</event>
<event>
12    1  0.1201209E-007  0.1845255E+04  0.7818608E-02  0.8682597E-01
          2   -1    0    0  501    0  0.00000000000E+00  0.00000000000E+00  0.21693208173E+04  0.21693208173E+04  0.00000000000E+00 0. -1.
         -2   -1    0    0    0  501 -0.00000000000E+00 -0.00000000000E+00 -0.39239997263E+03  0.39239997263E+03  0.00000000000E+00 0.  1.
         23    2    1    2    0    0  0.58142127646E+03 -0.36256623224E+01  0.17099335658E+03  0.61421036494E+03  0.99758700121E+02 0.  0.
        254    2    1    2    0    0 -0.58142127646E+03  0.36256623224E+01  0.16059274881E+04  0.19475104250E+04  0.93580441992E+03 0.  0.
        -24    2    4    4    0    0 -0.62547036803E+03 -0.33436443684E+03  0.81723570571E+03  0.10849736091E+04  0.79251346665E+02 0.  0.
         24    2    4    4    0    0  0.44049091561E+02  0.33799009916E+03  0.78869178239E+03  0.86253681586E+03  0.75877542901E+02 0.  0.
         11    1    3    3    0    0  0.57007619301E+03 -0.13994442218E+02  0.15274223378E+03  0.59034981175E+03  0.00000000000E+00 0.  1.
        -11    1    3    3    0    0  0.11345083456E+02  0.10368779895E+02  0.18251122802E+02  0.23860553193E+02  0.00000000000E+00 0. -1.
          4    1    6    6  502    0 -0.18505509378E+02  0.12173870936E+03  0.24928230426E+03  0.27803675018E+03  0.00000000000E+00 0. -1.
          3    1    5    5  503    0 -0.66943008580E+02 -0.15551795170E+02  0.10348206559E+03  0.12422464582E+03  0.00000000000E+00 0. -1.
         -4    1    5    5    0  503 -0.55852735945E+03 -0.31881264167E+03  0.71375364011E+03  0.96074896332E+03  0.00000000000E+00 0.  1.
         -3    1    6    6    0  502  0.62554600939E+02  0.21625138980E+03  0.53940947813E+03  0.58450006568E+03  0.00000000000E+00 0.  1.
<mgrwt>
<rscale>  0 0.18452549E+04</rscale>
<asrwt>0</asrwt>
<pdfrwt beam="1">  1        2 0.33374166E+00 0.18452549E+04</pdfrwt>
<pdfrwt beam="2">  1       -2 0.60369228E-01 0.18452549E+04</pdfrwt>
<totfact> 0.12923150E+01</totfact>
</mgrwt>
</event>
<event>
12    1  0.1201209E-007  0.1548051E+04  0.7818608E-02  0.8853114E-01
          2   -1    0    0  501    0  0.00000000000E+00  0.00000000000E+00  0.23043595156E+04  0.23043595156E+04  0.00000000000E+00 0. -1.
         -2   -1    0    0    0  501 -0.00000000000E+00 -0.00000000000E+00 -0.25999202715E+03  0.25999202715E+03  0.00000000000E+00 0.  1.
         23    2    1    2    0    0  0.33269640320E+03  0.29938168450E+03  0.29958289395E+03  0.54610445218E+03  0.90354151138E+02 0.  0.
        254    2    1    2    0    0 -0.33269640320E+03 -0.29938168450E+03  0.17447845945E+04  0.20182470906E+04  0.91034704794E+03 0.  0.
        -24    2    4    4    0    0 -0.11054460938E+03  0.10536340297E+03 -0.35404955307E+02  0.17745714499E+03  0.83162311763E+02 0.  0.
         24    2    4    4    0    0 -0.22215179382E+03 -0.40474508748E+03  0.17801895498E+04  0.18407899456E+04  0.79137760735E+02 0.  0.
         13    1    3    3    0    0  0.19704757653E+02  0.58161192933E+02  0.42378914280E+02  0.74612158615E+02  0.00000000000E+00 0. -1.
        -13    1    3    3    0    0  0.31299164555E+03  0.24122049157E+03  0.25720397967E+03  0.47149229357E+03  0.00000000000E+00 0.  1.
          2    1    6    6  502    0 -0.14059785637E+03 -0.25228566373E+03  0.95671653917E+03  0.99936097065E+03  0.00000000000E+00 0. -1.
          3    1    5    5  503    0 -0.86580929153E+02  0.11551031378E+03 -0.16510587453E+02  0.14529793316E+03  0.00000000000E+00 0. -1.
         -4    1    5    5    0  503 -0.23963680231E+02 -0.10146910803E+02 -0.18894367855E+02  0.32159211832E+02  0.00000000000E+00 0.  1.
         -1    1    6    6    0  502 -0.81553937450E+02 -0.15245942375E+03  0.82347301067E+03  0.84142897497E+03  0.00000000000E+00 0.  1.
<mgrwt>
<rscale>  0 0.15480505E+04</rscale>
<asrwt>0</asrwt>
<pdfrwt beam="1">  1        2 0.35451684E+00 0.15480505E+04</pdfrwt>
<pdfrwt beam="2">  1       -2 0.39998775E-01 0.15480505E+04</pdfrwt>
<totfact> 0.25703214E+01</totfact>
</mgrwt>
</event>
<event>
12    1  0.1201209E-007  0.2161440E+04  0.7818608E-02  0.8534651E-01
         -1   -1    0    0    0  501 -0.00000000000E+00  0.00000000000E+00  0.69080738065E+03  0.69080738065E+03  0.00000000000E+00 0.  1.
          1   -1    0    0  501    0  0.00000000000E+00 -0.00000000000E+00 -0.16907107773E+04  0.16907107773E+04  0.00000000000E+00 0. -1.
         23    2    1    2    0    0 -0.73283086318E+03  0.34034183807E+03 -0.82779871928E+03  0.11605029098E+04  0.92965818134E+02 0.  0.
        254    2    1    2    0    0  0.73283086318E+03 -0.34034183807E+03 -0.17210467740E+03  0.12210152481E+04  0.89910209399E+03 0.  0.
        -24    2    4    4    0    0  0.73708784249E+03 -0.48812910665E+03  0.10802820964E+03  0.89416210269E+03  0.79292241168E+02 0.  0.
         24    2    4    4    0    0 -0.42569793123E+01  0.14778726858E+03 -0.28013288703E+03  0.32685314543E+03  0.80618519312E+02 0.  0.
         13    1    3    3    0    0 -0.86107513255E+02  0.28213431689E+02 -0.57097589805E+02  0.10710105662E+03  0.00000000000E+00 0.  1.
        -13    1    3    3    0    0 -0.64672334992E+03  0.31212840638E+03 -0.77070112947E+03  0.10534018532E+04  0.00000000000E+00 0. -1.
          2    1    6    6  502    0  0.31519403179E+02  0.24860862916E+02 -0.59797630285E+02  0.72022856576E+02  0.00000000000E+00 0. -1.
          1    1    5    5  503    0  0.32246142785E+03 -0.21885648077E+03  0.87077922063E+02  0.39932705410E+03  0.00000000000E+00 0. -1.
         -2    1    5    5    0  503  0.41462641464E+03 -0.26927262588E+03  0.20950287573E+02  0.49483504859E+03  0.00000000000E+00 0.  1.
         -1    1    6    6    0  502 -0.35776382491E+02  0.12292640567E+03 -0.22033525675E+03  0.25483028886E+03  0.00000000000E+00 0.  1.
<mgrwt>
<rscale>  0 0.21614398E+04</rscale>
<asrwt>0</asrwt>
<pdfrwt beam="1">  1        1 0.26010935E+00 0.21614398E+04</pdfrwt>
<pdfrwt beam="2">  1       -1 0.10627806E+00 0.21614398E+04</pdfrwt>
<totfact> 0.36610740E+00</totfact>
</mgrwt>
</event>
<event>
12    1  0.1201209E-007  0.1998814E+04  0.7818608E-02  0.8607176E-01
         -2   -1    0    0    0  501 -0.00000000000E+00  0.00000000000E+00  0.57805435628E+03  0.57805435628E+03  0.00000000000E+00 0.  1.
          2   -1    0    0  501    0  0.00000000000E+00 -0.00000000000E+00 -0.17278892432E+04  0.17278892432E+04  0.00000000000E+00 0. -1.
         23    2    1    2    0    0  0.34207968848E+03  0.33302779802E+03 -0.11927490037E+04  0.12880803691E+04  0.92600344783E+02 0.  0.
        254    2    1    2    0    0 -0.34207968848E+03 -0.33302779802E+03  0.42914116736E+02  0.10178632304E+04  0.89792978955E+03 0.  0.
        -24    2    4    4    0    0  0.21346352530E+03 -0.18952148288E+03  0.26494314077E+03  0.39738560205E+03  0.78964420911E+02 0.  0.
         24    2    4    4    0    0 -0.55554321378E+03 -0.14350631513E+03 -0.22202902403E+03  0.62047762839E+03  0.80456665139E+02 0.  0.
         13    1    3    3    0    0  0.23151634485E+03  0.16466709365E+03 -0.73378306626E+03  0.78686254072E+03  0.00000000000E+00 0. -1.
        -13    1    3    3    0    0  0.11056334363E+03  0.16836070437E+03 -0.45896593744E+03  0.50121782835E+03  0.00000000000E+00 0.  1.
          4    1    6    6  502    0 -0.56662486854E+02  0.16570337653E+01 -0.42185762093E+02  0.70661316862E+02  0.00000000000E+00 0. -1.
          3    1    5    5  503    0  0.51741695231E+02 -0.95457197951E+02  0.86182702818E+02  0.13862444925E+03  0.00000000000E+00 0. -1.
         -2    1    5    5    0  503  0.16172183007E+03 -0.94064284933E+02  0.17876043795E+03  0.25876115280E+03  0.00000000000E+00 0.  1.
         -3    1    6    6    0  502 -0.49888072692E+03 -0.14516334890E+03 -0.17984326194E+03  0.54981631153E+03  0.00000000000E+00 0.  1.
<mgrwt>
<rscale>  0 0.19988136E+04</rscale>
<asrwt>0</asrwt>
<pdfrwt beam="1">  1        2 0.26582911E+00 0.19988136E+04</pdfrwt>
<pdfrwt beam="2">  1       -2 0.88931440E-01 0.19988136E+04</pdfrwt>
<totfact> 0.95510575E+00</totfact>
</mgrwt>
</event>
<event>
12    1  0.1201209E-007  0.1631850E+04  0.7818608E-02  0.8801217E-01
          1   -1    0    0  501    0  0.00000000000E+00  0.00000000000E+00  0.71155116533E+03  0.71155116533E+03  0.00000000000E+00 0. -1.
         -1   -1    0    0    0  501 -0.00000000000E+00 -0.00000000000E+00 -0.93560889549E+03  0.93560889549E+03  0.00000000000E+00 0.  1.
         23    2    1    2    0    0 -0.80341572818E+02  0.43467206122E+03  0.27618950864E+03  0.52912453107E+03  0.91090919230E+02 0.  0.
        254    2    1    2    0    0  0.80341572818E+02 -0.43467206122E+03 -0.50024723881E+03  0.11180355297E+04  0.89686207229E+03 0.  0.
        -24    2    4    4    0    0 -0.87553783597E+02 -0.31925500238E+03 -0.72734621949E+03  0.80259299318E+03  0.74387956838E+02 0.  0.
         24    2    4    4    0    0  0.16789535641E+03 -0.11541705884E+03  0.22709898069E+03  0.31544253657E+03  0.80125518208E+02 0.  0.
         11    1    3    3    0    0  0.11438431621E+02  0.60758602784E+01  0.93740791251E+01  0.15988344365E+02  0.00000000000E+00 0.  1.
        -11    1    3    3    0    0 -0.91780004439E+02  0.42859620095E+03  0.26681542951E+03  0.51313618671E+03  0.00000000000E+00 0. -1.
          4    1    6    6  502    0  0.17691332246E+03 -0.10843663224E+03  0.21420797056E+03  0.29823125511E+03  0.00000000000E+00 0. -1.
          3    1    5    5  503    0 -0.43299274894E+02 -0.19147718542E+03 -0.51159951805E+03  0.54797117315E+03  0.00000000000E+00 0. -1.
         -4    1    5    5    0  503 -0.44254508703E+02 -0.12777781696E+03 -0.21574670145E+03  0.25462182002E+03  0.00000000000E+00 0.  1.
         -3    1    6    6    0  502 -0.90179660438E+01 -0.69804266036E+01  0.12891010132E+02  0.17211281456E+02  0.00000000000E+00 0.  1.
<mgrwt>
<rscale>  0 0.16318500E+04</rscale>
<asrwt>0</asrwt>
<pdfrwt beam="1">  1        1 0.10946941E+00 0.16318500E+04</pdfrwt>
<pdfrwt beam="2">  1       -1 0.14393983E+00 0.16318500E+04</pdfrwt>
<totfact> 0.99083895E+00</totfact>
</mgrwt>
</event>
<event>
12    1  0.1201209E-007  0.1482835E+04  0.7818608E-02  0.8895948E-01
          2   -1    0    0  501    0  0.00000000000E+00  0.00000000000E+00  0.12821797163E+04  0.12821797163E+04  0.00000000000E+00 0. -1.
         -2   -1    0    0    0  501 -0.00000000000E+00 -0.00000000000E+00 -0.42872298402E+03  0.42872298402E+03  0.00000000000E+00 0.  1.
         23    2    1    2    0    0  0.61180586566E+02  0.41677792870E+03  0.45543341207E+03  0.62703290169E+03  0.91124974332E+02 0.  0.
        254    2    1    2    0    0 -0.61180586566E+02 -0.41677792870E+03  0.39802332024E+03  0.10838697987E+04  0.91591717474E+03 0.  0.
        -24    2    4    4    0    0 -0.35092807304E+03 -0.21229708212E+03  0.54923340808E+03  0.69030505968E+03  0.81505676726E+02 0.  0.
         24    2    4    4    0    0  0.28974748648E+03 -0.20448084657E+03 -0.15121008784E+03  0.39356473899E+03  0.79137163026E+02 0.  0.
         11    1    3    3    0    0  0.15639454373E+02  0.12781231575E+03  0.81985020144E+02  0.15265033284E+03  0.00000000000E+00 0. -1.
        -11    1    3    3    0    0  0.45541132192E+02  0.28896561295E+03  0.37344839193E+03  0.47438256884E+03  0.00000000000E+00 0.  1.
          4    1    6    6  502    0  0.79988398249E+02 -0.44855273546E+02 -0.43165054969E+01  0.91808341882E+02  0.00000000000E+00 0. -1.
          3    1    5    5  503    0 -0.67081211703E+02 -0.23250938882E+02  0.54911399315E+02  0.89753868425E+02  0.00000000000E+00 0. -1.
         -4    1    5    5    0  503 -0.28384686134E+03 -0.18904614324E+03  0.49432200876E+03  0.60055119125E+03  0.00000000000E+00 0.  1.
         -3    1    6    6    0  502  0.20975908823E+03 -0.15962557303E+03 -0.14689358234E+03  0.30175639710E+03  0.00000000000E+00 0.  1.
<mgrwt>
<rscale>  0 0.14828350E+04</rscale>
<asrwt>0</asrwt>
<pdfrwt beam="1">  1        2 0.19725842E+00 0.14828350E+04</pdfrwt>
<pdfrwt beam="2">  1       -2 0.65957383E-01 0.14828350E+04</pdfrwt>
<totfact> 0.34653834E+01</totfact>
</mgrwt>
</event>
<event>
12    1  0.1201209E-007  0.1308085E+04  0.7818608E-02  0.9023178E-01
         -2   -1    0    0    0  501 -0.00000000000E+00  0.00000000000E+00  0.17865613580E+03  0.17865613580E+03  0.00000000000E+00 0.  1.
          2   -1    0    0  501    0  0.00000000000E+00 -0.00000000000E+00 -0.23943849111E+04  0.23943849111E+04  0.00000000000E+00 0. -1.
         23    2    1    2    0    0  0.32914801234E+03 -0.30808590967E+02 -0.77621597851E+03  0.84868061757E+03  0.91978051944E+02 0.  0.
        254    2    1    2    0    0 -0.32914801234E+03  0.30808590967E+02 -0.14395127968E+04  0.17243604294E+04  0.88990685741E+03 0.  0.
        -24    2    4    4    0    0 -0.45102745852E+03 -0.32720004551E+03 -0.85497284023E+03  0.10235780342E+04  0.79043004353E+02 0.  0.
         24    2    4    4    0    0  0.12187944618E+03  0.35800863647E+03 -0.58453995659E+03  0.70078239512E+03  0.79901322113E+02 0.  0.
         11    1    3    3    0    0  0.19495122703E+03 -0.30359022726E+01 -0.55716023546E+03  0.59029037397E+03  0.00000000000E+00 0. -1.
        -11    1    3    3    0    0  0.13419678531E+03 -0.27772688694E+02 -0.21905574306E+03  0.25839024361E+03  0.00000000000E+00 0.  1.
          2    1    6    6  502    0  0.72482840338E+02  0.30163563063E+03 -0.44624190640E+03  0.54347921289E+03  0.00000000000E+00 0. -1.
          1    1    5    5  503    0 -0.26606967202E+03 -0.22922257057E+03 -0.57947839344E+03  0.67759225622E+03  0.00000000000E+00 0. -1.
         -2    1    5    5    0  503 -0.18495778650E+03 -0.97977474933E+02 -0.27549444680E+03  0.34598577803E+03  0.00000000000E+00 0.  1.
         -1    1    6    6    0  502  0.49396605846E+02  0.56373005843E+02 -0.13829805019E+03  0.15730318224E+03  0.00000000000E+00 0.  1.
<mgrwt>
<rscale>  0 0.13080849E+04</rscale>
<asrwt>0</asrwt>
<pdfrwt beam="1">  1        2 0.36836689E+00 0.13080849E+04</pdfrwt>
<pdfrwt beam="2">  1       -2 0.27485561E-01 0.13080849E+04</pdfrwt>
<totfact> 0.47501513E+01</totfact>
</mgrwt>
</event>
<event>
12    1  0.1201209E-007  0.1620314E+04  0.7818608E-02  0.8808164E-01
          2   -1    0    0  501    0  0.00000000000E+00  0.00000000000E+00  0.18817467960E+04  0.18817467960E+04  0.00000000000E+00 0. -1.
         -2   -1    0    0    0  501 -0.00000000000E+00 -0.00000000000E+00 -0.34880077738E+03  0.34880077738E+03  0.00000000000E+00 0.  1.
         23    2    1    2    0    0 -0.30330627278E+03  0.16908913442E+03  0.11415124129E+04  0.11964183107E+04  0.88206320452E+02 0.  0.
        254    2    1    2    0    0  0.30330627278E+03 -0.16908913442E+03  0.39143360567E+03  0.10341292626E+04  0.89197378527E+03 0.  0.
        -24    2    4    4    0    0 -0.96481906733E+02 -0.11690595708E+03  0.56306170459E+03  0.58845508976E+03  0.79152690177E+02 0.  0.
         24    2    4    4    0    0  0.39978817951E+03 -0.52183177340E+02 -0.17162809892E+03  0.44567417283E+03  0.81336286599E+02 0.  0.
         11    1    3    3    0    0 -0.10699038693E+02  0.34544801815E+02  0.12203984693E+03  0.12728525837E+03  0.00000000000E+00 0.  1.
        -11    1    3    3    0    0 -0.29260723409E+03  0.13454433260E+03  0.10194725660E+04  0.10691330524E+04  0.00000000000E+00 0. -1.
          2    1    6    6  502    0  0.11116784659E+03  0.15175996432E+02 -0.24737708704E+02  0.11489366917E+03  0.00000000000E+00 0. -1.
          3    1    5    5  503    0 -0.35804871926E+02 -0.10084349873E+03  0.31994428260E+03  0.33736589048E+03  0.00000000000E+00 0. -1.
         -4    1    5    5    0  503 -0.60677034807E+02 -0.16062458347E+02  0.24311742199E+03  0.25108919928E+03  0.00000000000E+00 0.  1.
         -1    1    6    6    0  502  0.28862033292E+03 -0.67359173772E+02 -0.14689039021E+03  0.33078050366E+03  0.00000000000E+00 0.  1.
<mgrwt>
<rscale>  0 0.16203145E+04</rscale>
<asrwt>0</asrwt>
<pdfrwt beam="1">  1        2 0.28949950E+00 0.16203145E+04</pdfrwt>
<pdfrwt beam="2">  1       -2 0.53661659E-01 0.16203145E+04</pdfrwt>
<totfact> 0.24351527E+01</totfact>
</mgrwt>
</event>
<event>
12    1  0.1201209E-007  0.2747293E+04  0.7818608E-02  0.8319821E-01
          2   -1    0    0  501    0  0.00000000000E+00  0.00000000000E+00  0.14684810154E+04  0.14684810154E+04  0.00000000000E+00 0. -1.
         -2   -1    0    0    0  501 -0.00000000000E+00 -0.00000000000E+00 -0.12849361367E+04  0.12849361367E+04  0.00000000000E+00 0.  1.
         23    2    1    2    0    0  0.10388931005E+04 -0.38032284938E+03  0.61517888047E+03  0.12691388927E+04  0.91236670582E+02 0.  0.
        254    2    1    2    0    0 -0.10388931005E+04  0.38032284938E+03 -0.43163400182E+03  0.14842782594E+04  0.89040984712E+03 0.  0.
        -24    2    4    4    0    0 -0.34320991411E+03  0.28390859962E+03 -0.60595720341E+03  0.75615063782E+03  0.78628980851E+02 0.  0.
         24    2    4    4    0    0 -0.69568318634E+03  0.96414249767E+02  0.17432320159E+03  0.72812762158E+03  0.80687368116E+02 0.  0.
         13    1    3    3    0    0  0.84649860107E+03 -0.33021397268E+03  0.53741304074E+03  0.10556580534E+04  0.00000000000E+00 0. -1.
        -13    1    3    3    0    0  0.19239449938E+03 -0.50108876705E+02  0.77765839735E+02  0.21348083929E+03  0.00000000000E+00 0.  1.
          4    1    6    6  502    0 -0.48467993297E+02 -0.68457534908E+01 -0.33725121862E+01  0.49065105253E+02  0.00000000000E+00 0. -1.
          3    1    5    5  503    0 -0.10440518375E+03  0.60525873253E+02 -0.11819104873E+03  0.16891698472E+03  0.00000000000E+00 0. -1.
         -4    1    5    5    0  503 -0.23880473036E+03  0.22338272636E+03 -0.48776615469E+03  0.58723365310E+03  0.00000000000E+00 0.  1.
         -3    1    6    6    0  502 -0.64721519305E+03  0.10326000326E+03  0.17769571377E+03  0.67906251632E+03  0.00000000000E+00 0.  1.
<mgrwt>
<rscale>  0 0.27472927E+04</rscale>
<asrwt>0</asrwt>
<pdfrwt beam="1">  1        2 0.22592016E+00 0.27472927E+04</pdfrwt>
<pdfrwt beam="2">  1       -2 0.19768248E+00 0.27472927E+04</pdfrwt>
<totfact> 0.15925060E+00</totfact>
</mgrwt>
</event>
<event>
12    1  0.1201209E-007  0.2231186E+04  0.7818608E-02  0.8505559E-01
         -2   -1    0    0    0  501 -0.00000000000E+00  0.00000000000E+00  0.17382686913E+04  0.17382686913E+04  0.00000000000E+00 0.  1.
          2   -1    0    0  501    0  0.00000000000E+00 -0.00000000000E+00 -0.71596939850E+03  0.71596939850E+03  0.00000000000E+00 0. -1.
         23    2    1    2    0    0 -0.20031166670E+03  0.81122061032E+03 -0.31247524330E+02  0.84101451987E+03  0.90140847752E+02 0.  0.
        254    2    1    2    0    0  0.20031166670E+03 -0.81122061032E+03  0.10535468171E+04  0.16132235699E+04  0.89124954321E+03 0.  0.
        -24    2    4    4    0    0  0.41080958584E+03 -0.70717420983E+03  0.10881252224E+04  0.13635250342E+04  0.79524463924E+02 0.  0.
         24    2    4    4    0    0 -0.21049791915E+03 -0.10404640049E+03 -0.34578405320E+02  0.24969853570E+03  0.77580056706E+02 0.  0.
         11    1    3    3    0    0 -0.75414051213E+02  0.43006094898E+03  0.17427703371E+02  0.43697073564E+03  0.00000000000E+00 0. -1.
        -11    1    3    3    0    0 -0.12489761548E+03  0.38115966134E+03 -0.48675227701E+02  0.40404378424E+03  0.00000000000E+00 0.  1.
          2    1    6    6  502    0 -0.30101672602E+01 -0.18688075159E+01  0.13084947515E+02  0.13556157271E+02  0.00000000000E+00 0. -1.
          3    1    5    5  503    0  0.96688886887E+02 -0.13923229034E+03  0.27630896914E+03  0.32416202422E+03  0.00000000000E+00 0. -1.
         -4    1    5    5    0  503  0.31412069896E+03 -0.56794191949E+03  0.81181625330E+03  0.10393630100E+04  0.00000000000E+00 0.  1.
         -1    1    6    6    0  502 -0.20748775189E+03 -0.10217759297E+03 -0.47663352835E+02  0.23614237843E+03  0.00000000000E+00 0.  1.
<mgrwt>
<rscale>  0 0.22311855E+04</rscale>
<asrwt>0</asrwt>
<pdfrwt beam="1">  1        2 0.11014914E+00 0.22311855E+04</pdfrwt>
<pdfrwt beam="2">  1       -2 0.26742595E+00 0.22311855E+04</pdfrwt>
<totfact> 0.18241037E+00</totfact>
</mgrwt>
</event>
<event>
12    1  0.1201209E-007  0.2013160E+04  0.7818608E-02  0.8600492E-01
          2   -1    0    0  501    0  0.00000000000E+00  0.00000000000E+00  0.15561921991E+04  0.15561921991E+04  0.00000000000E+00 0. -1.
         -2   -1    0    0    0  501 -0.00000000000E+00 -0.00000000000E+00 -0.65107873270E+03  0.65107873270E+03  0.00000000000E+00 0.  1.
         23    2    1    2    0    0  0.75327275421E+03 -0.10149471239E+03  0.61810303721E+03  0.98393319504E+03  0.91390091402E+02 0.  0.
        254    2    1    2    0    0 -0.75327275421E+03  0.10149471239E+03  0.28701042921E+03  0.12233377368E+04  0.91458144137E+03 0.  0.
        -24    2    4    4    0    0 -0.81067530370E+03  0.11955453418E+03 -0.94346887808E+02  0.82896035788E+03  0.82378425665E+02 0.  0.
         24    2    4    4    0    0  0.57402549491E+02 -0.18059821793E+02  0.38135731702E+03  0.39437737892E+03  0.80491638747E+02 0.  0.
         11    1    3    3    0    0  0.67631487839E+03 -0.75030619426E+02  0.51961338549E+03  0.85617140747E+03  0.00000000000E+00 0. -1.
        -11    1    3    3    0    0  0.76957875823E+02 -0.26464092965E+02  0.98489651716E+02  0.12776178757E+03  0.00000000000E+00 0.  1.
          4    1    6    6  502    0  0.52273087821E+02 -0.30859006413E+02  0.13959221335E+03  0.15221938121E+03  0.00000000000E+00 0. -1.
          3    1    5    5  503    0 -0.19572460314E+02 -0.98710926242E+01 -0.37111345715E+01  0.22232682972E+02  0.00000000000E+00 0. -1.
         -4    1    5    5    0  503 -0.79110284339E+03  0.12942562681E+03 -0.90635753236E+02  0.80672767490E+03  0.00000000000E+00 0.  1.
         -3    1    6    6    0  502  0.51294616698E+01  0.12799184619E+02  0.24176510367E+03  0.24215799771E+03  0.00000000000E+00 0.  1.
<mgrwt>
<rscale>  0 0.20131603E+04</rscale>
<asrwt>0</asrwt>
<pdfrwt beam="1">  1        2 0.23941418E+00 0.20131603E+04</pdfrwt>
<pdfrwt beam="2">  1       -2 0.10016596E+00 0.20131603E+04</pdfrwt>
<totfact> 0.90120301E+00</totfact>
</mgrwt>
</event>
<event>
12    1  0.1201209E-007  0.1338867E+04  0.7818608E-02  0.8999299E-01
          1   -1    0    0  501    0  0.00000000000E+00  0.00000000000E+00  0.12156969374E+04  0.12156969374E+04  0.00000000000E+00 0. -1.
         -1   -1    0    0    0  501 -0.00000000000E+00 -0.00000000000E+00 -0.36862899253E+03  0.36862899253E+03  0.00000000000E+00 0.  1.
         23    2    1    2    0    0 -0.25729060784E+02 -0.33859395420E+03  0.95684544333E+02  0.36305026151E+03  0.85686113061E+02 0.  0.
        254    2    1    2    0    0  0.25729060784E+02  0.33859395420E+03  0.75138340055E+03  0.12212756684E+04  0.90090476372E+03 0.  0.
        -24    2    4    4    0    0  0.32572378655E+03 -0.79071277742E+02  0.50799036068E+02  0.34829836750E+03  0.79893420543E+02 0.  0.
         24    2    4    4    0    0 -0.29999472577E+03  0.41766523194E+03  0.70058436448E+03  0.87297730093E+03  0.82642814115E+02 0.  0.
         13    1    3    3    0    0  0.18155388476E+02 -0.16242140684E+02  0.16920818988E+01  0.24419017299E+02  0.00000000000E+00 0. -1.
        -13    1    3    3    0    0 -0.43884449260E+02 -0.32235181351E+03  0.93992462435E+02  0.33863124421E+03  0.00000000000E+00 0.  1.
          4    1    6    6  502    0 -0.27639520092E+03  0.41214229731E+03  0.67436530843E+03  0.83727184924E+03  0.00000000000E+00 0. -1.
          1    1    5    5  503    0  0.31198250346E+03 -0.79076840832E+02  0.29829415109E+02  0.32322751001E+03  0.00000000000E+00 0. -1.
         -2    1    5    5    0  503  0.13741283091E+02  0.55630902565E-02  0.20969620959E+02  0.25070857486E+02  0.00000000000E+00 0.  1.
         -3    1    6    6    0  502 -0.23599524850E+02  0.55229346337E+01  0.26219056056E+02  0.35705451693E+02  0.00000000000E+00 0.  1.
<mgrwt>
<rscale>  0 0.13388669E+04</rscale>
<asrwt>0</asrwt>
<pdfrwt beam="1">  1        1 0.18703030E+00 0.13388669E+04</pdfrwt>
<pdfrwt beam="2">  1       -1 0.56712153E-01 0.13388669E+04</pdfrwt>
<totfact> 0.32084124E+01</totfact>
</mgrwt>
</event>
<event>
12    1  0.1201209E-007  0.1812240E+04  0.7818608E-02  0.8699817E-01
          2   -1    0    0  501    0  0.00000000000E+00  0.00000000000E+00  0.12210764350E+04  0.12210764350E+04  0.00000000000E+00 0. -1.
         -2   -1    0    0    0  501 -0.00000000000E+00 -0.00000000000E+00 -0.67240130209E+03  0.67240130209E+03  0.00000000000E+00 0.  1.
         23    2    1    2    0    0 -0.61670005686E+03 -0.41516231848E+01 -0.10140056467E+03  0.63156953233E+03  0.90894463792E+02 0.  0.
        254    2    1    2    0    0  0.61670005686E+03  0.41516231848E+01  0.65007569753E+03  0.12619082047E+04  0.88852558124E+03 0.  0.
        -24    2    4    4    0    0  0.77090550210E+03  0.20694607686E+03  0.39964271987E+03  0.89610330561E+03  0.78516615314E+02 0.  0.
         24    2    4    4    0    0 -0.15420544524E+03 -0.20279445367E+03  0.25043297766E+03  0.36580489911E+03  0.78686962907E+02 0.  0.
         11    1    3    3    0    0 -0.26728966354E+03 -0.10430766489E+02  0.69707325658E+00  0.26749402056E+03  0.00000000000E+00 0.  1.
        -11    1    3    3    0    0 -0.34941039331E+03  0.62791433046E+01 -0.10209763793E+03  0.36407551176E+03  0.00000000000E+00 0. -1.
          4    1    6    6  502    0 -0.12285810610E+03 -0.18727085797E+03  0.18066015731E+03  0.28775437602E+03  0.00000000000E+00 0. -1.
          1    1    5    5  503    0  0.62613155411E+03  0.13559908404E+03  0.32054195003E+03  0.71636232200E+03  0.00000000000E+00 0. -1.
         -2    1    5    5    0  503  0.14477394799E+03  0.71346992817E+02  0.79100769836E+02  0.17974098361E+03  0.00000000000E+00 0.  1.
         -3    1    6    6    0  502 -0.31347339140E+02 -0.15523595700E+02  0.69772820356E+02  0.78050523093E+02  0.00000000000E+00 0.  1.
<mgrwt>
<rscale>  0 0.18122399E+04</rscale>
<asrwt>0</asrwt>
<pdfrwt beam="1">  1        2 0.18785791E+00 0.18122399E+04</pdfrwt>
<pdfrwt beam="2">  1       -2 0.10344635E+00 0.18122399E+04</pdfrwt>
<totfact> 0.13223446E+01</totfact>
</mgrwt>
</event>
<event>
12    1  0.1201209E-007  0.1695804E+04  0.7818608E-02  0.8763761E-01
          2   -1    0    0  501    0  0.00000000000E+00  0.00000000000E+00  0.13194513198E+04  0.13194513198E+04  0.00000000000E+00 0. -1.
         -2   -1    0    0    0  501 -0.00000000000E+00 -0.00000000000E+00 -0.54487662663E+03  0.54487662663E+03  0.00000000000E+00 0.  1.
         23    2    1    2    0    0  0.22820146254E+03 -0.50784613558E+03  0.53785504623E+03  0.77936687183E+03  0.90227851668E+02 0.  0.
        254    2    1    2    0    0 -0.22820146254E+03  0.50784613558E+03  0.23671964693E+03  0.10849610746E+04  0.90062241657E+03 0.  0.
        -24    2    4    4    0    0 -0.43723199445E+03  0.65339463546E+03  0.20785614374E+03  0.81711761678E+03  0.79879011913E+02 0.  0.
         24    2    4    4    0    0  0.20903053191E+03 -0.14554849988E+03  0.28863503192E+02  0.26784345782E+03  0.77645907778E+02 0.  0.
         11    1    3    3    0    0  0.13550261434E+03 -0.30623862143E+03  0.26108697730E+03  0.42462861593E+03  0.00000000000E+00 0.  1.
        -11    1    3    3    0    0  0.92698848191E+02 -0.20160751415E+03  0.27676806893E+03  0.35473825590E+03  0.00000000000E+00 0. -1.
          2    1    6    6  502    0  0.17763261840E+03 -0.15229275429E+03  0.28663886307E+02  0.23572876046E+03  0.00000000000E+00 0. -1.
          1    1    5    5  503    0 -0.39156668894E+03  0.59928827382E+03  0.21077775583E+03  0.74625610173E+03  0.00000000000E+00 0. -1.
         -2    1    5    5    0  503 -0.45665305505E+02  0.54106361644E+02 -0.29216120919E+01  0.70861515044E+02  0.00000000000E+00 0.  1.
         -1    1    6    6    0  502  0.31397913510E+02  0.67442544037E+01  0.19961688563E+00  0.32114697370E+02  0.00000000000E+00 0.  1.
<mgrwt>
<rscale>  0 0.16958045E+04</rscale>
<asrwt>0</asrwt>
<pdfrwt beam="1">  1        2 0.20299251E+00 0.16958045E+04</pdfrwt>
<pdfrwt beam="2">  1       -2 0.83827174E-01 0.16958045E+04</pdfrwt>
<totfact> 0.19066667E+01</totfact>
</mgrwt>
</event>
<event>
12    1  0.1201209E-007  0.1190280E+04  0.7818608E-02  0.9121407E-01
         -2   -1    0    0    0  501 -0.00000000000E+00  0.00000000000E+00  0.29931264991E+03  0.29931264991E+03  0.00000000000E+00 0.  1.
          2   -1    0    0  501    0  0.00000000000E+00 -0.00000000000E+00 -0.11833495525E+04  0.11833495525E+04  0.00000000000E+00 0. -1.
         23    2    1    2    0    0 -0.18281815313E+03 -0.14820107456E+03 -0.26887174856E+03  0.36846705431E+03  0.89943967685E+02 0.  0.
        254    2    1    2    0    0  0.18281815313E+03  0.14820107456E+03 -0.61516515401E+03  0.11141951481E+04  0.89867492770E+03 0.  0.
        -24    2    4    4    0    0  0.42957180676E+03  0.13215290215E+03 -0.10997967450E+02  0.45654719246E+03  0.79486206012E+02 0.  0.
         24    2    4    4    0    0 -0.24675365363E+03  0.16048172411E+02 -0.60416718656E+03  0.65764795562E+03  0.79611147449E+02 0.  0.
         11    1    3    3    0    0 -0.11745736235E+03 -0.14481453942E+03 -0.19628640051E+03  0.27073203324E+03  0.00000000000E+00 0. -1.
        -11    1    3    3    0    0 -0.65360790781E+02 -0.33865351412E+01 -0.72585348048E+02  0.97735021067E+02  0.00000000000E+00 0.  1.
          2    1    6    6  502    0 -0.18515867473E+03 -0.26625596045E+01 -0.35617426259E+03  0.40143608380E+03  0.00000000000E+00 0. -1.
          1    1    5    5  503    0  0.12935454983E+02 -0.98110707862E+01 -0.11998891336E+01  0.16279522091E+02  0.00000000000E+00 0. -1.
         -2    1    5    5    0  503  0.41663635178E+03  0.14196397294E+03 -0.97980783169E+01  0.44026767037E+03  0.00000000000E+00 0.  1.
         -1    1    6    6    0  502 -0.61594978899E+02  0.18710732015E+02 -0.24799292398E+03  0.25621187182E+03  0.00000000000E+00 0.  1.
<mgrwt>
<rscale>  0 0.11902798E+04</rscale>
<asrwt>0</asrwt>
<pdfrwt beam="1">  1        2 0.18205378E+00 0.11902798E+04</pdfrwt>
<pdfrwt beam="2">  1       -2 0.46048100E-01 0.11902798E+04</pdfrwt>
<totfact> 0.85536249E+01</totfact>
</mgrwt>
</event>
<event>
12    1  0.1201209E-007  0.1946263E+04  0.7818608E-02  0.8632165E-01
         -1   -1    0    0    0  501 -0.00000000000E+00  0.00000000000E+00  0.44621312542E+03  0.44621312542E+03  0.00000000000E+00 0.  1.
          1   -1    0    0  501    0  0.00000000000E+00 -0.00000000000E+00 -0.21222709965E+04  0.21222709965E+04  0.00000000000E+00 0. -1.
         23    2    1    2    0    0  0.47950160852E+03  0.68075278564E+02 -0.14466530080E+04  0.15272724586E+04  0.72112418384E+02 0.  0.
        254    2    1    2    0    0 -0.47950160852E+03 -0.68075278564E+02 -0.22940486302E+03  0.10412116633E+04  0.89271445635E+03 0.  0.
        -24    2    4    4    0    0 -0.38975935517E+03  0.30188354929E+03 -0.37638547401E+03  0.62540780473E+03  0.80142778221E+02 0.  0.
         24    2    4    4    0    0 -0.89742253356E+02 -0.36995882785E+03  0.14698061099E+03  0.41580385861E+03  0.79789363268E+02 0.  0.
         13    1    3    3    0    0  0.41601269607E+03  0.33936629114E+02 -0.12190213337E+04  0.12884996198E+04  0.00000000000E+00 0. -1.
        -13    1    3    3    0    0  0.63488912459E+02  0.34138649450E+02 -0.22763167433E+03  0.23877283880E+03  0.00000000000E+00 0.  1.
          2    1    6    6  502    0  0.26776481288E+01 -0.11000492597E+03  0.18977413752E+02  0.11166197101E+03  0.00000000000E+00 0. -1.
          1    1    5    5  503    0 -0.60868865514E+02  0.55206393065E+02 -0.28897350364E+02  0.87108102276E+02  0.00000000000E+00 0. -1.
         -2    1    5    5    0  503 -0.32889048965E+03  0.24667715622E+03 -0.34748812364E+03  0.53829970245E+03  0.00000000000E+00 0.  1.
         -1    1    6    6    0  502 -0.92419901485E+02 -0.25995390188E+03  0.12800319723E+03  0.30414188761E+03  0.00000000000E+00 0.  1.
<mgrwt>
<rscale>  0 0.19462633E+04</rscale>
<asrwt>0</asrwt>
<pdfrwt beam="1">  1        1 0.32650323E+00 0.19462633E+04</pdfrwt>
<pdfrwt beam="2">  1       -1 0.68648172E-01 0.19462633E+04</pdfrwt>
<totfact> 0.49256707E+00</totfact>
</mgrwt>
</event>
<event>
12    1  0.1201209E-007  0.3768343E+04  0.7818608E-02  0.8052983E-01
          3   -1    0    0  501    0  0.00000000000E+00  0.00000000000E+00  0.15808407790E+04  0.15808407790E+04  0.00000000000E+00 0. -1.
         -3   -1    0    0    0  501 -0.00000000000E+00 -0.00000000000E+00 -0.22457050758E+04  0.22457050758E+04  0.00000000000E+00 0.  1.
         23    2    1    2    0    0  0.14101867940E+03  0.17177841942E+04 -0.75289277939E+03  0.18830165460E+04  0.90746732597E+02 0.  0.
        254    2    1    2    0    0 -0.14101867940E+03 -0.17177841942E+04  0.88028482593E+02  0.19435293088E+04  0.89380554622E+03 0.  0.
        -24    2    4    4    0    0 -0.38492858492E+03 -0.13726181675E+04 -0.17655464361E+03  0.14387322448E+04  0.80797777796E+02 0.  0.
         24    2    4    4    0    0  0.24390990553E+03 -0.34516602673E+03  0.26458312620E+03  0.50479706395E+03  0.78639793207E+02 0.  0.
         11    1    3    3    0    0  0.27950640962E+02  0.12298991937E+03 -0.38500288284E+02  0.13187126600E+03  0.00000000000E+00 0. -1.
        -11    1    3    3    0    0  0.11306803843E+03  0.15947942749E+04 -0.71439249111E+03  0.17511452800E+04  0.00000000000E+00 0.  1.
          4    1    6    6  502    0  0.19431409364E+03 -0.31908778093E+03  0.22391572187E+03  0.43556082173E+03  0.00000000000E+00 0. -1.
          1    1    5    5  503    0 -0.36997342000E+03 -0.13007431878E+04 -0.14985601136E+03  0.13606138307E+04  0.00000000000E+00 0. -1.
         -2    1    5    5    0  503 -0.14955164927E+02 -0.71874979719E+02 -0.26698632249E+02  0.78118414165E+02  0.00000000000E+00 0.  1.
         -3    1    6    6    0  502  0.49595811891E+02 -0.26078245796E+02  0.40667404336E+02  0.69236242217E+02  0.00000000000E+00 0.  1.
<mgrwt>
<rscale>  0 0.37683430E+04</rscale>
<asrwt>0</asrwt>
<pdfrwt beam="1">  1        3 0.24320627E+00 0.37683430E+04</pdfrwt>
<pdfrwt beam="2">  1       -3 0.34549309E+00 0.37683430E+04</pdfrwt>
<totfact> 0.35515647E-03</totfact>
</mgrwt>
</event>
<event>
12    1  0.1201209E-007  0.1284922E+04  0.7818608E-02  0.9041608E-01
         -2   -1    0    0    0  501 -0.00000000000E+00  0.00000000000E+00  0.10451989398E+03  0.10451989398E+03  0.00000000000E+00 0.  1.
          2   -1    0    0  501    0  0.00000000000E+00 -0.00000000000E+00 -0.39490703850E+04  0.39490703850E+04  0.00000000000E+00 0. -1.
         23    2    1    2    0    0  0.87178518323E+02  0.14679768087E+02 -0.28842176278E+02  0.13145750105E+03  0.92917241679E+02 0.  0.
        254    2    1    2    0    0 -0.87178518323E+02 -0.14679768087E+02 -0.38157083148E+04  0.39221327779E+04  0.90315004005E+03 0.  0.
        -24    2    4    4    0    0 -0.21205913054E+03  0.29637434905E+03 -0.75542016966E+03  0.84250316372E+03  0.79656252325E+02 0.  0.
         24    2    4    4    0    0  0.12488061222E+03 -0.31105411713E+03 -0.30602881451E+04  0.30796296142E+04  0.80032485001E+02 0.  0.
         11    1    3    3    0    0 -0.99034400184E+01  0.12904596717E+02  0.17478221120E+02  0.23876661286E+02  0.00000000000E+00 0. -1.
        -11    1    3    3    0    0  0.97081958341E+02  0.17751713697E+01 -0.46320397399E+02  0.10758083976E+03  0.00000000000E+00 0.  1.
          2    1    6    6  502    0  0.83974704067E+02 -0.13436754144E+03 -0.11743301860E+04  0.11849716338E+04  0.00000000000E+00 0. -1.
          3    1    5    5  503    0 -0.57790565247E+02  0.14230825515E+03 -0.27667221863E+03  0.31644731864E+03  0.00000000000E+00 0. -1.
         -4    1    5    5    0  503 -0.15426856529E+03  0.15406609390E+03 -0.47874795103E+03  0.52605584508E+03  0.00000000000E+00 0.  1.
         -1    1    6    6    0  502  0.40905908149E+02 -0.17668657569E+03 -0.18859579591E+04  0.18946579804E+04  0.00000000000E+00 0.  1.
<mgrwt>
<rscale>  0 0.12849224E+04</rscale>
<asrwt>0</asrwt>
<pdfrwt beam="1">  1        2 0.60754916E+00 0.12849224E+04</pdfrwt>
<pdfrwt beam="2">  1       -2 0.16079987E-01 0.12849224E+04</pdfrwt>
<totfact> 0.11893074E+01</totfact>
</mgrwt>
</event>
<event>
12    1  0.1201209E-007  0.3638366E+04  0.7818608E-02  0.8081760E-01
          2   -1    0    0  501    0  0.00000000000E+00  0.00000000000E+00  0.28696894338E+04  0.28696894338E+04  0.00000000000E+00 0. -1.
         -2   -1    0    0    0  501 -0.00000000000E+00 -0.00000000000E+00 -0.11532351406E+04  0.11532351406E+04  0.00000000000E+00 0.  1.
         23    2    1    2    0    0  0.51923981752E+03  0.13080613564E+04 -0.26450665823E+03  0.14346680845E+04  0.87602740888E+02 0.  0.
        254    2    1    2    0    0 -0.51923981752E+03 -0.13080613564E+04  0.19809609515E+04  0.25882564900E+04  0.89119631191E+03 0.  0.
        -24    2    4    4    0    0 -0.76512754699E+03 -0.92976501799E+03  0.14742498432E+04  0.19050788591E+04  0.77651190421E+02 0.  0.
         24    2    4    4    0    0  0.24588772947E+03 -0.37829633839E+03  0.50671110822E+03  0.68317763082E+03  0.80041444927E+02 0.  0.
         13    1    3    3    0    0  0.19310603555E+03  0.60354756689E+03 -0.12471774860E+03  0.64584372977E+03  0.00000000000E+00 0. -1.
        -13    1    3    3    0    0  0.32613378197E+03  0.70451378949E+03 -0.13978890964E+03  0.78882435471E+03  0.00000000000E+00 0.  1.
          2    1    6    6  502    0  0.16253442991E+03 -0.30899386924E+03  0.37023547391E+03  0.50888992746E+03  0.00000000000E+00 0. -1.
          1    1    5    5  503    0 -0.51163012148E+03 -0.57331568410E+03  0.90580472553E+03  0.11878293041E+04  0.00000000000E+00 0. -1.
         -4    1    5    5    0  503 -0.25349742550E+03 -0.35644933389E+03  0.56844511771E+03  0.71724955505E+03  0.00000000000E+00 0.  1.
         -1    1    6    6    0  502  0.83353299563E+02 -0.69302469154E+02  0.13647563431E+03  0.17428770335E+03  0.00000000000E+00 0.  1.
<mgrwt>
<rscale>  0 0.36383660E+04</rscale>
<asrwt>0</asrwt>
<pdfrwt beam="1">  1        2 0.44149068E+00 0.36383660E+04</pdfrwt>
<pdfrwt beam="2">  1       -2 0.17742079E+00 0.36383660E+04</pdfrwt>
<totfact> 0.32180564E-01</totfact>
</mgrwt>
</event>
<event>
12    1  0.1201209E-007  0.2507960E+04  0.7818608E-02  0.8400155E-01
          2   -1    0    0  501    0  0.00000000000E+00  0.00000000000E+00  0.21949514425E+04  0.21949514425E+04  0.00000000000E+00 0. -1.
         -2   -1    0    0    0  501 -0.00000000000E+00 -0.00000000000E+00 -0.71640118647E+03  0.71640118647E+03  0.00000000000E+00 0.  1.
         23    2    1    2    0    0 -0.98232336930E+03 -0.47479396134E+03  0.58798081929E+03  0.12429675731E+04  0.94119266434E+02 0.  0.
        254    2    1    2    0    0  0.98232336930E+03  0.47479396134E+03  0.89056943675E+03  0.16683850559E+04  0.89443069347E+03 0.  0.
        -24    2    4    4    0    0  0.88123788399E+03  0.57314399633E+03  0.10149366496E+04  0.14632514613E+04  0.77033677372E+02 0.  0.
         24    2    4    4    0    0  0.10108548530E+03 -0.98350034991E+02 -0.12436721289E+03  0.20513359460E+03  0.81985262533E+02 0.  0.
         13    1    3    3    0    0 -0.91649705504E+03 -0.43932791394E+03  0.51883766272E+03  0.11411259300E+04  0.00000000000E+00 0.  1.
        -13    1    3    3    0    0 -0.65826314256E+02 -0.35466047392E+02  0.69143156573E+02  0.10184164309E+03  0.00000000000E+00 0. -1.
          4    1    6    6  502    0 -0.70682162931E+01  0.80188643668E+01 -0.13617018389E+02  0.17311414070E+02  0.00000000000E+00 0. -1.
          3    1    5    5  503    0  0.20853678519E+03  0.14838945803E+03  0.20482449865E+03  0.32781106949E+03  0.00000000000E+00 0. -1.
         -4    1    5    5    0  503  0.67270109881E+03  0.42475453830E+03  0.81011215098E+03  0.11354403918E+04  0.00000000000E+00 0.  1.
         -3    1    6    6    0  502  0.10815370160E+03 -0.10636889936E+03 -0.11075019450E+03  0.18782218053E+03  0.00000000000E+00 0.  1.
<mgrwt>
<rscale>  0 0.25079600E+04</rscale>
<asrwt>0</asrwt>
<pdfrwt beam="1">  1        2 0.33768483E+00 0.25079600E+04</pdfrwt>
<pdfrwt beam="2">  1       -2 0.11021557E+00 0.25079600E+04</pdfrwt>
<totfact> 0.30290046E+00</totfact>
</mgrwt>
</event>
<event>
12    1  0.1201209E-007  0.2015071E+04  0.7818608E-02  0.8599607E-01
          1   -1    0    0  501    0  0.00000000000E+00  0.00000000000E+00  0.21379181055E+04  0.21379181055E+04  0.00000000000E+00 0. -1.
         -1   -1    0    0    0  501 -0.00000000000E+00 -0.00000000000E+00 -0.47482060838E+03  0.47482060838E+03  0.00000000000E+00 0.  1.
         23    2    1    2    0    0  0.28684918436E+03  0.58095756234E+03  0.12858074835E+04  0.14427294119E+04  0.91504795858E+02 0.  0.
        254    2    1    2    0    0 -0.28684918436E+03 -0.58095756234E+03  0.37729001367E+03  0.11700093020E+04  0.89820925651E+03 0.  0.
        -24    2    4    4    0    0 -0.64946320774E+01 -0.27826104137E+03  0.62023001778E+03  0.68453714948E+03  0.80215002806E+02 0.  0.
         24    2    4    4    0    0 -0.28035455228E+03 -0.30269652098E+03 -0.24294000411E+03  0.48547215250E+03  0.80246535503E+02 0.  0.
         13    1    3    3    0    0  0.60178338177E+02  0.11292554854E+03  0.18114280402E+03  0.22177990744E+03  0.00000000000E+00 0.  1.
        -13    1    3    3    0    0  0.22667084618E+03  0.46803201381E+03  0.11046646795E+04  0.12209495045E+04  0.00000000000E+00 0. -1.
          4    1    6    6  502    0 -0.71092374015E+02 -0.12633714870E+03 -0.10506940975E+03  0.17903849210E+03  0.00000000000E+00 0. -1.
          3    1    5    5  503    0  0.18053189045E+02 -0.15237512812E+02  0.75915200992E+02  0.79506082617E+02  0.00000000000E+00 0. -1.
         -4    1    5    5    0  503 -0.24547821123E+02 -0.26302352855E+03  0.54431481679E+03  0.60503106686E+03  0.00000000000E+00 0.  1.
         -3    1    6    6    0  502 -0.20926217826E+03 -0.17635937227E+03 -0.13787059435E+03  0.30643366040E+03  0.00000000000E+00 0.  1.
<mgrwt>
<rscale>  0 0.20150708E+04</rscale>
<asrwt>0</asrwt>
<pdfrwt beam="1">  1        1 0.32891047E+00 0.20150708E+04</pdfrwt>
<pdfrwt beam="2">  1       -1 0.73049326E-01 0.20150708E+04</pdfrwt>
<totfact> 0.42027435E+00</totfact>
</mgrwt>
</event>
<event>
12    1  0.1201209E-007  0.1223984E+04  0.7818608E-02  0.9092119E-01
          1   -1    0    0  501    0  0.00000000000E+00  0.00000000000E+00  0.14190881713E+04  0.14190881713E+04  0.00000000000E+00 0. -1.
         -1   -1    0    0    0  501 -0.00000000000E+00 -0.00000000000E+00 -0.26392574608E+03  0.26392574608E+03  0.00000000000E+00 0.  1.
         23    2    1    2    0    0  0.54410536857E+02 -0.51106432373E+02 -0.83976993203E+02  0.14446431250E+03  0.90804340474E+02 0.  0.
        254    2    1    2    0    0 -0.54410536857E+02  0.51106432373E+02  0.12391394184E+04  0.15385496049E+04  0.90889824208E+03 0.  0.
        -24    2    4    4    0    0  0.11464234982E+03  0.14431157080E+03 -0.70475898126E+02  0.21252454095E+03  0.78937509792E+02 0.  0.
         24    2    4    4    0    0 -0.16905288668E+03 -0.93205138425E+02  0.13096153166E+04  0.13260250639E+04  0.77357071466E+02 0.  0.
         13    1    3    3    0    0  0.34144584523E+02 -0.46535535800E+01 -0.87117990843E+02  0.93685924992E+02  0.00000000000E+00 0.  1.
        -13    1    3    3    0    0  0.20265952334E+02 -0.46452878793E+02  0.31409976395E+01  0.50778387512E+02  0.00000000000E+00 0. -1.
          4    1    6    6  502    0 -0.17090828319E+03 -0.83870871882E+02  0.11118731852E+04  0.11280540521E+04  0.00000000000E+00 0. -1.
          3    1    5    5  503    0  0.98287927411E+02  0.14922582593E+03 -0.49381731883E+02  0.18538451727E+03  0.00000000000E+00 0. -1.
         -4    1    5    5    0  503  0.16354422413E+02 -0.49142551368E+01 -0.21094166242E+02  0.27140023682E+02  0.00000000000E+00 0.  1.
         -3    1    6    6    0  502  0.18553965134E+01 -0.93342665432E+01  0.19774213133E+03  0.19797101185E+03  0.00000000000E+00 0.  1.
<mgrwt>
<rscale>  0 0.12239835E+04</rscale>
<asrwt>0</asrwt>
<pdfrwt beam="1">  1        1 0.21832125E+00 0.12239835E+04</pdfrwt>
<pdfrwt beam="2">  1       -1 0.40603962E-01 0.12239835E+04</pdfrwt>
<totfact> 0.43600049E+01</totfact>
</mgrwt>
</event>
<event>
12    1  0.1201209E-007  0.1071737E+04  0.7818608E-02  0.9233185E-01
          1   -1    0    0  501    0  0.00000000000E+00  0.00000000000E+00  0.23749730061E+03  0.23749730061E+03  0.00000000000E+00 0. -1.
         -1   -1    0    0    0  501 -0.00000000000E+00 -0.00000000000E+00 -0.12090886110E+04  0.12090886110E+04  0.00000000000E+00 0.  1.
         23    2    1    2    0    0  0.59427713427E+02  0.77316493465E+02 -0.21094768936E+02  0.13607454739E+03  0.92529994527E+02 0.  0.
        254    2    1    2    0    0 -0.59427713427E+02 -0.77316493465E+02 -0.95049654146E+03  0.13105113642E+04  0.89693191890E+03 0.  0.
        -24    2    4    4    0    0  0.14327869620E+03 -0.24068071888E+03  0.29863789563E+02  0.29298823630E+03  0.80587017921E+02 0.  0.
         24    2    4    4    0    0 -0.20270640963E+03  0.16336422542E+03 -0.98036033102E+03  0.10175231279E+04  0.80431203860E+02 0.  0.
         11    1    3    3    0    0 -0.71258964990E+00  0.51789101928E+02  0.23598348168E+02  0.56916613557E+02  0.00000000000E+00 0. -1.
        -11    1    3    3    0    0  0.60140303077E+02  0.25527391537E+02 -0.44693117104E+02  0.79157933837E+02  0.00000000000E+00 0.  1.
          2    1    6    6  502    0 -0.13158086204E+03  0.12131917878E+03 -0.78975013750E+03  0.80977598512E+03  0.00000000000E+00 0. -1.
          3    1    5    5  503    0  0.40377169027E+02 -0.11879972842E+03 -0.17276112457E+02  0.12665763030E+03  0.00000000000E+00 0. -1.
         -4    1    5    5    0  503  0.10290152717E+03 -0.12188099046E+03  0.47139902020E+02  0.16633060600E+03  0.00000000000E+00 0.  1.
         -1    1    6    6    0  502 -0.71125547581E+02  0.42045046642E+02 -0.19061019352E+03  0.20774714279E+03  0.00000000000E+00 0.  1.
<mgrwt>
<rscale>  0 0.10717374E+04</rscale>
<asrwt>0</asrwt>
<pdfrwt beam="1">  1        1 0.36538046E-01 0.10717374E+04</pdfrwt>
<pdfrwt beam="2">  1       -1 0.18601364E+00 0.10717374E+04</pdfrwt>
<totfact> 0.22390392E+01</totfact>
</mgrwt>
</event>
<event>
12    1  0.1201209E-007  0.1700323E+04  0.7818608E-02  0.8761180E-01
          1   -1    0    0  501    0  0.00000000000E+00  0.00000000000E+00  0.53489864416E+03  0.53489864416E+03  0.00000000000E+00 0. -1.
         -1   -1    0    0    0  501 -0.00000000000E+00 -0.00000000000E+00 -0.13512361754E+04  0.13512361754E+04  0.00000000000E+00 0.  1.
         23    2    1    2    0    0 -0.11323367118E+03  0.23554691221E+02 -0.95337346008E+03  0.96467041423E+03  0.91056937977E+02 0.  0.
        254    2    1    2    0    0  0.11323367118E+03 -0.23554691221E+02  0.13703592879E+03  0.92146440536E+03  0.90384795005E+03 0.  0.
        -24    2    4    4    0    0  0.26533999721E+03 -0.40274229754E+03  0.12462023150E+03  0.50476087308E+03  0.81527078638E+02 0.  0.
         24    2    4    4    0    0 -0.15210632603E+03  0.37918760632E+03  0.12415697291E+02  0.41670353228E+03  0.81043871282E+02 0.  0.
         13    1    3    3    0    0 -0.38419481033E+02  0.52148456260E+02 -0.34274653390E+03  0.34881328030E+03  0.00000000000E+00 0. -1.
        -13    1    3    3    0    0 -0.74814190144E+02 -0.28593765039E+02 -0.61062692617E+03  0.61585713393E+03  0.00000000000E+00 0.  1.
          4    1    6    6  502    0 -0.95256655536E+02  0.31474543026E+03 -0.56419660497E+01  0.32889260872E+03  0.00000000000E+00 0. -1.
          1    1    5    5  503    0  0.10773971572E+03 -0.22190554745E+03  0.89072475417E+02  0.26226670435E+03  0.00000000000E+00 0. -1.
         -2    1    5    5    0  503  0.15760028149E+03 -0.18083675009E+03  0.35547756081E+02  0.24249416873E+03  0.00000000000E+00 0.  1.
         -3    1    6    6    0  502 -0.56849670494E+02  0.64442176062E+02  0.18057663341E+02  0.87810923559E+02  0.00000000000E+00 0.  1.
<mgrwt>
<rscale>  0 0.17003228E+04</rscale>
<asrwt>0</asrwt>
<pdfrwt beam="1">  1        1 0.82292099E-01 0.17003228E+04</pdfrwt>
<pdfrwt beam="2">  1       -1 0.20788249E+00 0.17003228E+04</pdfrwt>
<totfact> 0.51009742E+00</totfact>
</mgrwt>
</event>
<event>
12    1  0.1201209E-007  0.1886906E+04  0.7818608E-02  0.8661401E-01
          1   -1    0    0  501    0  0.00000000000E+00  0.00000000000E+00  0.23027876895E+04  0.23027876895E+04  0.00000000000E+00 0. -1.
         -1   -1    0    0    0  501 -0.00000000000E+00 -0.00000000000E+00 -0.38653322482E+03  0.38653322482E+03  0.00000000000E+00 0.  1.
         23    2    1    2    0    0  0.12567003179E+03  0.44933536860E+03 -0.50020370220E+02  0.47732609910E+03  0.87423893057E+02 0.  0.
        254    2    1    2    0    0 -0.12567003179E+03 -0.44933536860E+03  0.19662748349E+04  0.22119948152E+04  0.89943821679E+03 0.  0.
        -24    2    4    4    0    0  0.16425017184E+03 -0.48354076633E+03  0.17860414190E+04  0.18593029796E+04  0.79207498146E+02 0.  0.
         24    2    4    4    0    0 -0.28992020363E+03  0.34205397725E+02  0.18023341586E+03  0.35269183562E+03  0.81753978597E+02 0.  0.
         11    1    3    3    0    0  0.11606653844E+03  0.37774802912E+03 -0.11221909651E+02  0.39533649731E+03  0.00000000000E+00 0.  1.
        -11    1    3    3    0    0  0.96034933430E+01  0.71587339479E+02 -0.38798460570E+02  0.81989601784E+02  0.00000000000E+00 0. -1.
          2    1    6    6  502    0 -0.18325476531E+03 -0.14892654444E+01  0.14835216008E+03  0.23578144609E+03  0.00000000000E+00 0. -1.
          1    1    5    5  503    0  0.94043769531E+02 -0.16285725661E+03  0.61388609225E+03  0.64204583237E+03  0.00000000000E+00 0. -1.
         -2    1    5    5    0  503  0.70206402307E+02 -0.32068350972E+03  0.11721553268E+04  0.12172571472E+04  0.00000000000E+00 0.  1.
         -3    1    6    6    0  502 -0.10666543831E+03  0.35694663170E+02  0.31881255779E+02  0.11691038953E+03  0.00000000000E+00 0.  1.
<mgrwt>
<rscale>  0 0.18869064E+04</rscale>
<asrwt>0</asrwt>
<pdfrwt beam="1">  1        1 0.35427502E+00 0.18869064E+04</pdfrwt>
<pdfrwt beam="2">  1       -1 0.59466651E-01 0.18869064E+04</pdfrwt>
<totfact> 0.49775440E+00</totfact>
</mgrwt>
</event>
<event>
12    1  0.1201209E-007  0.2432494E+04  0.7818608E-02  0.8427438E-01
         -2   -1    0    0    0  501 -0.00000000000E+00  0.00000000000E+00  0.10140682417E+04  0.10140682417E+04  0.00000000000E+00 0. -1.
          2   -1    0    0  501    0  0.00000000000E+00 -0.00000000000E+00 -0.14587348174E+04  0.14587348174E+04  0.00000000000E+00 0.  1.
         23    2    1    2    0    0  0.14408658068E+03 -0.32837858014E+03 -0.11202993328E+04  0.11824573161E+04  0.12058720754E+03 0.  0.
        254    2    1    2    0    0 -0.14408658068E+03  0.32837858014E+03  0.67563275715E+03  0.12903457430E+04  0.10391915509E+04 0.  0.
        -24    2    4    4    0    0 -0.49011996435E+03  0.36739962329E+03  0.11841331284E+03  0.62864896522E+03  0.77315885628E+02 0.  0.
         24    2    4    4    0    0  0.34603338366E+03 -0.39021043149E+02  0.55721944431E+03  0.66169677783E+03  0.78021614038E+02 0.  0.
         13    1    3    3    0    0  0.35972256644E+01  0.10136900018E+02 -0.19827046577E+02  0.22556785019E+02  0.00000000000E+00 0. -1.
        -13    1    3    3    0    0  0.14048935502E+03 -0.33851548016E+03 -0.11004722862E+04  0.11599005311E+04  0.00000000000E+00 0.  1.
          4    1    6    6  502    0  0.21458795002E+03 -0.59392420146E+02  0.32223046360E+03  0.39167323056E+03  0.00000000000E+00 0. -1.
          3    1    5    5  503    0 -0.29153936244E+03  0.23466525282E+03  0.36014485173E+02  0.37597875455E+03  0.00000000000E+00 0. -1.
         -4    1    5    5    0  503 -0.19858060191E+03  0.13273437047E+03  0.82398827669E+02  0.25267021067E+03  0.00000000000E+00 0.  1.
         -3    1    6    6    0  502  0.13144543364E+03  0.20371376997E+02  0.23498898071E+03  0.27002354727E+03  0.00000000000E+00 0.  1.
<mgrwt>
<rscale>  0 0.24324939E+04</rscale>
<asrwt>0</asrwt>
<pdfrwt beam="1">  1        2 0.22442074E+00 0.24324939E+04</pdfrwt>
<pdfrwt beam="2">  1       -2 0.15601050E+00 0.24324939E+04</pdfrwt>
<totfact> 0.32413871E+00</totfact>
</mgrwt>
</event>
<event>
12    1  0.1201209E-007  0.2930518E+04  0.7818608E-02  0.8263855E-01
          2   -1    0    0  501    0  0.00000000000E+00  0.00000000000E+00  0.26260368570E+04  0.26260368570E+04  0.00000000000E+00 0. -1.
         -2   -1    0    0    0  501 -0.00000000000E+00 -0.00000000000E+00 -0.81757564756E+03  0.81757564756E+03  0.00000000000E+00 0.  1.
         23    2    1    2    0    0 -0.68358269931E+03 -0.10415515546E+04  0.13831882921E+04  0.18629909707E+04  0.73556494370E+02 0.  0.
        254    2    1    2    0    0  0.68358269931E+03  0.10415515546E+04  0.42527291726E+03  0.15806215338E+04  0.87486709354E+03 0.  0.
        -24    2    4    4    0    0  0.47428879292E+03  0.89327704772E+03 -0.70116773147E+02  0.10168939146E+04  0.79139929856E+02 0.  0.
         24    2    4    4    0    0  0.20929390639E+03  0.14827450684E+03  0.49538969041E+03  0.56372761925E+03  0.81170282216E+02 0.  0.
         11    1    3    3    0    0 -0.38687550016E+03 -0.63841093577E+03  0.86368773815E+03  0.11415768413E+04  0.00000000000E+00 0.  1.
        -11    1    3    3    0    0 -0.29670719915E+03 -0.40314061879E+03  0.51950055398E+03  0.72141412943E+03  0.00000000000E+00 0. -1.
          4    1    6    6  502    0 -0.58215386928E+01  0.33715827786E+01  0.33550686022E+01  0.75176039075E+01  0.00000000000E+00 0. -1.
          1    1    5    5  503    0  0.11219380625E+03  0.15699852946E+03 -0.31200448624E+02  0.19547239296E+03  0.00000000000E+00 0. -1.
         -4    1    5    5    0  503  0.36209498667E+03  0.73627851826E+03 -0.38916324523E+02  0.82142152159E+03  0.00000000000E+00 0.  1.
         -3    1    6    6    0  502  0.21511544508E+03  0.14490292406E+03  0.49203462180E+03  0.55621001534E+03  0.00000000000E+00 0.  1.
<mgrwt>
<rscale>  0 0.29305179E+04</rscale>
<asrwt>0</asrwt>
<pdfrwt beam="1">  1        2 0.40400567E+00 0.29305179E+04</pdfrwt>
<pdfrwt beam="2">  1       -2 0.12578087E+00 0.29305179E+04</pdfrwt>
<totfact> 0.11934406E+00</totfact>
</mgrwt>
</event>
<event>
12    1  0.1201209E-007  0.1263094E+04  0.7818608E-02  0.9059355E-01
          1   -1    0    0  501    0  0.00000000000E+00  0.00000000000E+00  0.23938627192E+04  0.23938627192E+04  0.00000000000E+00 0. -1.
         -1   -1    0    0    0  501 -0.00000000000E+00 -0.00000000000E+00 -0.16661435031E+03  0.16661435031E+03  0.00000000000E+00 0.  1.
         23    2    1    2    0    0 -0.93600124635E+01  0.27690307959E+03  0.31936718498E+03  0.43220804897E+03  0.89696563082E+02 0.  0.
        254    2    1    2    0    0  0.93600124635E+01 -0.27690307959E+03  0.19078811839E+04  0.21282690206E+04  0.90152952619E+03 0.  0.
        -24    2    4    4    0    0 -0.27923399385E+03 -0.36672290718E+03  0.16712361737E+04  0.17354753297E+04  0.79918443208E+02 0.  0.
         24    2    4    4    0    0  0.28859400631E+03  0.89819827588E+02  0.23664501021E+03  0.39279369090E+03  0.83258157844E+02 0.  0.
         11    1    3    3    0    0  0.31905117788E+02  0.44728716324E+02  0.70223304902E+02  0.89162251858E+02  0.00000000000E+00 0. -1.
        -11    1    3    3    0    0 -0.41265130251E+02  0.23217436327E+03  0.24914388008E+03  0.34304579711E+03  0.00000000000E+00 0.  1.
          2    1    6    6  502    0  0.25804694257E+03  0.63439437226E+02  0.17185414805E+03  0.31645953133E+03  0.00000000000E+00 0. -1.
          1    1    5    5  503    0 -0.25600953175E+03 -0.36242946361E+03  0.15683709149E+04  0.16299335333E+04  0.00000000000E+00 0. -1.
         -2    1    5    5    0  503 -0.23224462098E+02 -0.42934435653E+01  0.10286525881E+03  0.10554179631E+03  0.00000000000E+00 0.  1.
         -1    1    6    6    0  502  0.30547063742E+02  0.26380390362E+02  0.64790862153E+02  0.76334159571E+02  0.00000000000E+00 0.  1.
<mgrwt>
<rscale>  0 0.12630944E+04</rscale>
<asrwt>0</asrwt>
<pdfrwt beam="1">  1        1 0.36828655E+00 0.12630944E+04</pdfrwt>
<pdfrwt beam="2">  1       -1 0.25632979E-01 0.12630944E+04</pdfrwt>
<totfact> 0.21295871E+01</totfact>
</mgrwt>
</event>
<event>
12    1  0.1201209E-007  0.1840219E+04  0.7818608E-02  0.8685199E-01
         -1   -1    0    0    0  501 -0.00000000000E+00  0.00000000000E+00  0.11117377370E+04  0.11117377370E+04  0.00000000000E+00 0.  1.
          1   -1    0    0  501    0  0.00000000000E+00 -0.00000000000E+00 -0.76151214733E+03  0.76151214733E+03  0.00000000000E+00 0. -1.
         23    2    1    2    0    0  0.29953087484E+03  0.32699056009E+03 -0.41399281228E+03  0.61344104720E+03  0.90985154832E+02 0.  0.
        254    2    1    2    0    0 -0.29953087484E+03 -0.32699056009E+03  0.76421840198E+03  0.12598088372E+04  0.89802392446E+03 0.  0.
        -24    2    4    4    0    0 -0.57553854035E+03 -0.15787861248E+03  0.69459527869E+03  0.91925792754E+03  0.80014176656E+02 0.  0.
         24    2    4    4    0    0  0.27600766551E+03 -0.16911194761E+03  0.69623123296E+02  0.34055090962E+03  0.79677227000E+02 0.  0.
         13    1    3    3    0    0 -0.29176961755E+01  0.23809303965E+02 -0.28464795715E+02  0.37224192421E+02  0.00000000000E+00 0.  1.
        -13    1    3    3    0    0  0.30244857102E+03  0.30318125612E+03 -0.38552801656E+03  0.57621685478E+03  0.00000000000E+00 0. -1.
          4    1    6    6  502    0  0.14321209545E+03 -0.66680916983E+02  0.70125115749E+02  0.17283975478E+03  0.00000000000E+00 0. -1.
          3    1    5    5  503    0 -0.53884490559E+03 -0.16656931635E+03  0.64221138294E+03  0.85471318570E+03  0.00000000000E+00 0. -1.
         -4    1    5    5    0  503 -0.36693634761E+02  0.86907038750E+01  0.52383895746E+02  0.64544741841E+02  0.00000000000E+00 0.  1.
         -3    1    6    6    0  502  0.13279557006E+03 -0.10243103063E+03 -0.50199245217E+00  0.16771115484E+03  0.00000000000E+00 0.  1.
<mgrwt>
<rscale>  0 0.18402193E+04</rscale>
<asrwt>0</asrwt>
<pdfrwt beam="1">  1        1 0.11715571E+00 0.18402193E+04</pdfrwt>
<pdfrwt beam="2">  1       -1 0.17103658E+00 0.18402193E+04</pdfrwt>
<totfact> 0.54371461E+00</totfact>
</mgrwt>
</event>
<event>
12    1  0.1201209E-007  0.2310147E+04  0.7818608E-02  0.8473931E-01
          1   -1    0    0  501    0  0.00000000000E+00  0.00000000000E+00  0.23133001561E+04  0.23133001561E+04  0.00000000000E+00 0. -1.
         -1   -1    0    0    0  501 -0.00000000000E+00 -0.00000000000E+00 -0.57674959487E+03  0.57674959487E+03  0.00000000000E+00 0.  1.
         23    2    1    2    0    0  0.60088780066E+03  0.67877462825E+03  0.40772725870E+03  0.99815214315E+03  0.90912256963E+02 0.  0.
        254    2    1    2    0    0 -0.60088780066E+03 -0.67877462825E+03  0.13288233025E+04  0.18918976078E+04  0.99584338336E+03 0.  0.
        -24    2    4    4    0    0  0.21758139434E+02 -0.46095046293E+03  0.10894678722E+04  0.11858344201E+04  0.79462452362E+02 0.  0.
         24    2    4    4    0    0 -0.62264594009E+03 -0.21782416531E+03  0.23935543027E+03  0.70606318771E+03  0.78095258037E+02 0.  0.
         11    1    3    3    0    0  0.22302252480E+03  0.19321774070E+03  0.11348091792E+03  0.31614879506E+03  0.00000000000E+00 0. -1.
        -11    1    3    3    0    0  0.37786527586E+03  0.48555688755E+03  0.29424634077E+03  0.68200334809E+03  0.00000000000E+00 0.  1.
          2    1    6    6  502    0 -0.47122125739E+03 -0.17310506711E+03  0.21578776978E+03  0.54642401051E+03  0.00000000000E+00 0. -1.
          1    1    5    5  503    0  0.46152317967E+02 -0.36878754337E+03  0.83031806263E+03  0.90970455299E+03  0.00000000000E+00 0. -1.
         -2    1    5    5    0  503 -0.24394178532E+02 -0.92162919560E+02  0.25914980961E+03  0.27612986711E+03  0.00000000000E+00 0.  1.
         -1    1    6    6    0  502 -0.15142468270E+03 -0.44719098202E+02  0.23567660496E+02  0.15963917720E+03  0.00000000000E+00 0.  1.
<mgrwt>
<rscale>  0 0.23101471E+04</rscale>
<asrwt>0</asrwt>
<pdfrwt beam="1">  1        1 0.35589233E+00 0.23101471E+04</pdfrwt>
<pdfrwt beam="2">  1       -1 0.88730708E-01 0.23101471E+04</pdfrwt>
<totfact> 0.20509742E+00</totfact>
</mgrwt>
</event>
<event>
12    1  0.1201209E-007  0.2788649E+04  0.7818608E-02  0.8306801E-01
          1   -1    0    0  501    0  0.00000000000E+00  0.00000000000E+00  0.17010392652E+04  0.17010392652E+04  0.00000000000E+00 0. -1.
         -1   -1    0    0    0  501 -0.00000000000E+00 -0.00000000000E+00 -0.11429134211E+04  0.11429134211E+04  0.00000000000E+00 0.  1.
         23    2    1    2    0    0 -0.93871068683E+03  0.54271172570E+03  0.89350524450E+03  0.14079032648E+04  0.90145494874E+02 0.  0.
        254    2    1    2    0    0  0.93871068683E+03 -0.54271172570E+03 -0.33537940032E+03  0.14360494215E+04  0.87979817465E+03 0.  0.
        -24    2    4    4    0    0  0.33824444093E+03 -0.59244844480E+03  0.92288302071E+02  0.69307415584E+03  0.80188485592E+02 0.  0.
         24    2    4    4    0    0  0.60046624590E+03  0.49736719103E+02 -0.42766770239E+03  0.74297526568E+03  0.77968763365E+02 0.  0.
         11    1    3    3    0    0 -0.77455882961E+03  0.46191321665E+03  0.70022935088E+03  0.11417645747E+04  0.00000000000E+00 0. -1.
        -11    1    3    3    0    0 -0.16415185722E+03  0.80798509048E+02  0.19327589362E+03  0.26613869006E+03  0.00000000000E+00 0.  1.
          2    1    6    6  502    0  0.55228659539E+03  0.26089576337E+02 -0.40124607936E+03  0.68315413023E+03  0.00000000000E+00 0. -1.
          3    1    5    5  503    0  0.84525756150E+02 -0.16484187657E+03  0.60368313317E+02  0.19483783251E+03  0.00000000000E+00 0. -1.
         -4    1    5    5    0  503  0.25371868479E+03 -0.42760656823E+03  0.31919988753E+02  0.49823632333E+03  0.00000000000E+00 0.  1.
         -1    1    6    6    0  502  0.48179650506E+02  0.23647142766E+02 -0.26421623026E+02  0.59821135456E+02  0.00000000000E+00 0.  1.
<mgrwt>
<rscale>  0 0.27886489E+04</rscale>
<asrwt>0</asrwt>
<pdfrwt beam="1">  1        1 0.26169835E+00 0.27886489E+04</pdfrwt>
<pdfrwt beam="2">  1       -1 0.17583283E+00 0.27886489E+04</pdfrwt>
<totfact> 0.91975739E-01</totfact>
</mgrwt>
</event>
<event>
12    1  0.1201209E-007  0.1374726E+04  0.7818608E-02  0.8972319E-01
          1   -1    0    0  501    0  0.00000000000E+00  0.00000000000E+00  0.15340511572E+04  0.15340511572E+04  0.00000000000E+00 0. -1.
         -1   -1    0    0    0  501 -0.00000000000E+00 -0.00000000000E+00 -0.30798699903E+03  0.30798699903E+03  0.00000000000E+00 0.  1.
         23    2    1    2    0    0 -0.80583619940E+02  0.16132312661E+03  0.79385425728E+03  0.81822646262E+03  0.82286641397E+02 0.  0.
        254    2    1    2    0    0  0.80583619940E+02 -0.16132312661E+03  0.43220990087E+03  0.10238116936E+04  0.91042084475E+03 0.  0.
        -24    2    4    4    0    0 -0.19348634930E+03  0.30529508276E+03  0.97643318626E+02  0.38278984210E+03  0.79698121818E+02 0.  0.
         24    2    4    4    0    0  0.27406996924E+03 -0.46661820936E+03  0.33456658224E+03  0.64102185150E+03  0.78277166496E+02 0.  0.
         13    1    3    3    0    0 -0.81930793725E+02  0.16159931181E+03  0.79561960517E+03  0.81598869395E+03  0.00000000000E+00 0. -1.
        -13    1    3    3    0    0  0.13471737855E+01 -0.27618520308E+00 -0.17653478826E+01  0.22377686702E+01  0.00000000000E+00 0.  1.
          4    1    6    6  502    0  0.22169625389E+03 -0.42117008481E+03  0.27555399029E+03  0.54996679072E+03  0.00000000000E+00 0. -1.
          1    1    5    5  503    0 -0.11916087504E+03  0.13568981774E+03  0.18916932125E+02  0.18157337663E+03  0.00000000000E+00 0. -1.
         -2    1    5    5    0  503 -0.74325474255E+02  0.16960526502E+03  0.78726386501E+02  0.20121646547E+03  0.00000000000E+00 0.  1.
         -3    1    6    6    0  502  0.52373715344E+02 -0.45448124557E+02  0.59012591951E+02  0.91055060779E+02  0.00000000000E+00 0.  1.
<mgrwt>
<rscale>  0 0.13747259E+04</rscale>
<asrwt>0</asrwt>
<pdfrwt beam="1">  1        1 0.23600787E+00 0.13747259E+04</pdfrwt>
<pdfrwt beam="2">  1       -1 0.47382616E-01 0.13747259E+04</pdfrwt>
<totfact> 0.26904314E+01</totfact>
</mgrwt>
</event>
<event>
12    1  0.1201209E-007  0.1853925E+04  0.7818608E-02  0.8678137E-01
         -1   -1    0    0    0  501 -0.00000000000E+00  0.00000000000E+00  0.29726056567E+03  0.29726056567E+03  0.00000000000E+00 0.  1.
          1   -1    0    0  501    0  0.00000000000E+00 -0.00000000000E+00 -0.28905927206E+04  0.28905927206E+04  0.00000000000E+00 0. -1.
         23    2    1    2    0    0 -0.40078277544E+03  0.22821243989E+03 -0.19610275543E+04  0.20166571686E+04  0.92570601179E+02 0.  0.
        254    2    1    2    0    0  0.40078277544E+03 -0.22821243989E+03 -0.63230460063E+03  0.11711961177E+04  0.87131136066E+03 0.  0.
        -24    2    4    4    0    0  0.49930198440E+03  0.65664101853E+02 -0.57226761298E+02  0.51304641068E+03  0.79545404675E+02 0.  0.
         24    2    4    4    0    0 -0.98519208959E+02 -0.29387654174E+03 -0.57507783933E+03  0.65814970697E+03  0.79856491116E+02 0.  0.
         13    1    3    3    0    0 -0.40019933405E+03  0.23390207326E+03 -0.19486148375E+04  0.20029901327E+04  0.00000000000E+00 0. -1.
        -13    1    3    3    0    0 -0.58344139252E+00 -0.56896333736E+01 -0.12412716755E+02  0.13667035854E+02  0.00000000000E+00 0.  1.
          2    1    6    6  502    0 -0.40995593835E+02 -0.96996110019E+02 -0.27680542181E+03  0.29615895330E+03  0.00000000000E+00 0. -1.
          1    1    5    5  503    0  0.64866914015E+02 -0.16750349368E+02 -0.16465790750E+02  0.68988499062E+02  0.00000000000E+00 0. -1.
         -2    1    5    5    0  503  0.43443507039E+03  0.82414451222E+02 -0.40760970549E+02  0.44405791162E+03  0.00000000000E+00 0.  1.
         -1    1    6    6    0  502 -0.57523615124E+02 -0.19688043172E+03 -0.29827241752E+03  0.36199075367E+03  0.00000000000E+00 0.  1.
<mgrwt>
<rscale>  0 0.18539247E+04</rscale>
<asrwt>0</asrwt>
<pdfrwt beam="1">  1        1 0.44470658E+00 0.18539247E+04</pdfrwt>
<pdfrwt beam="2">  1       -1 0.45732394E-01 0.18539247E+04</pdfrwt>
<totfact> 0.32098985E+00</totfact>
</mgrwt>
</event>
<event>
12    1  0.1201209E-007  0.2679059E+04  0.7818608E-02  0.8341832E-01
          1   -1    0    0  501    0  0.00000000000E+00  0.00000000000E+00  0.39655987286E+04  0.39655987286E+04  0.00000000000E+00 0. -1.
         -1   -1    0    0    0  501 -0.00000000000E+00 -0.00000000000E+00 -0.45247629956E+03  0.45247629956E+03  0.00000000000E+00 0.  1.
         23    2    1    2    0    0 -0.12217201412E+03 -0.68197571274E+03  0.31324797598E+04  0.32097700934E+04  0.10088474895E+03 0.  0.
        254    2    1    2    0    0  0.12217201412E+03  0.68197571274E+03  0.38064266915E+03  0.12083049348E+04  0.91383537904E+03 0.  0.
        -24    2    4    4    0    0  0.30565784435E+03  0.56032568383E+03  0.60539676176E+03  0.88346436107E+03  0.81316962282E+02 0.  0.
         24    2    4    4    0    0 -0.18348583023E+03  0.12165002891E+03 -0.22475409261E+03  0.32484057369E+03  0.80877788945E+02 0.  0.
         11    1    3    3    0    0 -0.12850554953E+03 -0.62865399783E+03  0.27707904241E+04  0.28441165763E+04  0.00000000000E+00 0. -1.
        -11    1    3    3    0    0  0.63335354115E+01 -0.53321714917E+02  0.36168933575E+03  0.36565351708E+03  0.00000000000E+00 0.  1.
          2    1    6    6  502    0 -0.22860027010E+02  0.29977961054E+02 -0.85147180288E+02  0.93119822244E+02  0.00000000000E+00 0. -1.
          3    1    5    5  503    0  0.16181484691E+03  0.36227405655E+03  0.40682862756E+03  0.56827464217E+03  0.00000000000E+00 0. -1.
         -4    1    5    5    0  503  0.14384299743E+03  0.19805162728E+03  0.19856813420E+03  0.31518971890E+03  0.00000000000E+00 0.  1.
         -1    1    6    6    0  502 -0.16062580322E+03  0.91672067856E+02 -0.13960691232E+03  0.23172075145E+03  0.00000000000E+00 0.  1.
<mgrwt>
<rscale>  0 0.26790591E+04</rscale>
<asrwt>0</asrwt>
<pdfrwt beam="1">  1        1 0.61009209E+00 0.26790591E+04</pdfrwt>
<pdfrwt beam="2">  1       -1 0.69611741E-01 0.26790591E+04</pdfrwt>
<totfact> 0.18795105E-01</totfact>
</mgrwt>
</event>
<event>
12    1  0.1201209E-007  0.2044223E+04  0.7818608E-02  0.8586220E-01
          1   -1    0    0  501    0  0.00000000000E+00  0.00000000000E+00  0.28785984901E+04  0.28785984901E+04  0.00000000000E+00 0. -1.
         -1   -1    0    0    0  501 -0.00000000000E+00 -0.00000000000E+00 -0.36292381347E+03  0.36292381347E+03  0.00000000000E+00 0.  1.
         23    2    1    2    0    0 -0.16775839169E+03  0.80548664005E+03  0.12212497863E+04  0.14753769267E+04  0.91293099966E+02 0.  0.
        254    2    1    2    0    0  0.16775839169E+03 -0.80548664005E+03  0.12944248903E+04  0.17661453768E+04  0.87566094473E+03 0.  0.
        -24    2    4    4    0    0 -0.12749452935E+03 -0.86905405225E+03  0.87179669348E+03  0.12401753427E+04  0.80595316872E+02 0.  0.
         24    2    4    4    0    0  0.29525292104E+03  0.63567412200E+02  0.42262819681E+03  0.52597003412E+03  0.82551685461E+02 0.  0.
         13    1    3    3    0    0 -0.20484679001E+02  0.21536484149E+03  0.26507165589E+03  0.34214707332E+03  0.00000000000E+00 0. -1.
        -13    1    3    3    0    0 -0.14727371269E+03  0.59012179856E+03  0.95617813043E+03  0.11332298534E+04  0.00000000000E+00 0.  1.
          4    1    6    6  502    0  0.59731603454E+01 -0.52132779893E+01 -0.14259845259E+01  0.80554542873E+01  0.00000000000E+00 0. -1.
          1    1    5    5  503    0 -0.32220555024E+01 -0.15898093828E+03  0.19240343244E+03  0.24960849583E+03  0.00000000000E+00 0. -1.
         -2    1    5    5    0  503 -0.12427247385E+03 -0.71007311397E+03  0.67939326104E+03  0.99056684686E+03  0.00000000000E+00 0.  1.
         -3    1    6    6    0  502  0.28927976070E+03  0.68780690190E+02  0.42405418134E+03  0.51791457983E+03  0.00000000000E+00 0.  1.
<mgrwt>
<rscale>  0 0.20442230E+04</rscale>
<asrwt>0</asrwt>
<pdfrwt beam="1">  1        1 0.44286129E+00 0.20442230E+04</pdfrwt>
<pdfrwt beam="2">  1       -1 0.55834435E-01 0.20442230E+04</pdfrwt>
<totfact> 0.21976644E+00</totfact>
</mgrwt>
</event>
<event>
12    1  0.1201209E-007  0.2356795E+04  0.7818608E-02  0.8455858E-01
          2   -1    0    0  501    0  0.00000000000E+00  0.00000000000E+00  0.27434320148E+04  0.27434320148E+04  0.00000000000E+00 0. -1.
         -2   -1    0    0    0  501 -0.00000000000E+00 -0.00000000000E+00 -0.50616175226E+03  0.50616175226E+03  0.00000000000E+00 0.  1.
         23    2    1    2    0    0 -0.88818093959E+03 -0.40578697735E+03  0.61995658413E+03  0.11596230693E+04  0.82771035184E+02 0.  0.
        254    2    1    2    0    0  0.88818093959E+03  0.40578697735E+03  0.16173136784E+04  0.20899706977E+04  0.89372564615E+03 0.  0.
        -24    2    4    4    0    0  0.88238194919E+02  0.26612246576E+03  0.14650740537E+02  0.29171746133E+03  0.79229333083E+02 0.  0.
         24    2    4    4    0    0  0.79994274467E+03  0.13966451158E+03  0.16026629378E+04  0.17982532364E+04  0.75971305633E+02 0.  0.
         11    1    3    3    0    0 -0.73610976184E+03 -0.32178635528E+03  0.47445382984E+03  0.93301150935E+03  0.00000000000E+00 0.  1.
        -11    1    3    3    0    0 -0.15207117775E+03 -0.84000622064E+02  0.14550275429E+03  0.22661155998E+03  0.00000000000E+00 0. -1.
          4    1    6    6  502    0  0.48464151171E+03  0.11740737797E+03  0.94068244529E+03  0.10646808677E+04  0.00000000000E+00 0. -1.
          3    1    5    5  503    0  0.32198264090E+02  0.53895117184E+02 -0.26929111166E+02  0.68312435873E+02  0.00000000000E+00 0. -1.
         -4    1    5    5    0  503  0.56039930829E+02  0.21222734858E+03  0.41579851703E+02  0.22340502546E+03  0.00000000000E+00 0.  1.
         -1    1    6    6    0  502  0.31530123296E+03  0.22257133619E+02  0.66198049255E+03  0.73357236863E+03  0.00000000000E+00 0.  1.
<mgrwt>
<rscale>  0 0.23567947E+04</rscale>
<asrwt>0</asrwt>
<pdfrwt beam="1">  1        2 0.42206645E+00 0.23567947E+04</pdfrwt>
<pdfrwt beam="2">  1       -2 0.77871041E-01 0.23567947E+04</pdfrwt>
<totfact> 0.33153915E+00</totfact>
</mgrwt>
</event>
<event>
12    1  0.1201209E-007  0.1788304E+04  0.7818608E-02  0.8712544E-01
         -2   -1    0    0    0  501 -0.00000000000E+00  0.00000000000E+00  0.99239324249E+03  0.99239324249E+03  0.00000000000E+00 0. -1.
          2   -1    0    0  501    0  0.00000000000E+00 -0.00000000000E+00 -0.80563619007E+03  0.80563619007E+03  0.00000000000E+00 0.  1.
         23    2    1    2    0    0 -0.48721281201E+03 -0.42300707016E+03 -0.91115691694E+02  0.65791647120E+03  0.90778346547E+02 0.  0.
        254    2    1    2    0    0  0.48721281201E+03  0.42300707016E+03  0.27787274411E+03  0.11401129614E+04  0.89796046525E+03 0.  0.
        -24    2    4    4    0    0  0.49241708348E+03  0.49803001747E+03 -0.13121368155E+03  0.71663837800E+03  0.76452941008E+02 0.  0.
         24    2    4    4    0    0 -0.52042714649E+01 -0.75022947311E+02  0.40908642566E+03  0.42347458337E+03  0.79520387572E+02 0.  0.
         11    1    3    3    0    0 -0.47159464987E+03 -0.39961780987E+03 -0.10426336305E+03  0.62687060597E+03  0.00000000000E+00 0.  1.
        -11    1    3    3    0    0 -0.15618162142E+02 -0.23389260288E+02  0.13147671356E+02  0.31045865226E+02  0.00000000000E+00 0. -1.
          2    1    6    6  502    0  0.17880041894E+02 -0.75651174194E+02  0.22725250288E+03  0.24018013265E+03  0.00000000000E+00 0. -1.
          1    1    5    5  503    0  0.27410566476E+03  0.32571738265E+03 -0.94907391274E+02  0.43615724427E+03  0.00000000000E+00 0. -1.
         -2    1    5    5    0  503  0.21831141871E+03  0.17231263483E+03 -0.36306290271E+02  0.28048113372E+03  0.00000000000E+00 0.  1.
         -1    1    6    6    0  502 -0.23084313359E+02  0.62822688257E+00  0.18183392277E+03  0.18329445072E+03  0.00000000000E+00 0.  1.
<mgrwt>
<rscale>  0 0.17883041E+04</rscale>
<asrwt>0</asrwt>
<pdfrwt beam="1">  1        2 0.12394403E+00 0.17883041E+04</pdfrwt>
<pdfrwt beam="2">  1       -2 0.15267588E+00 0.17883041E+04</pdfrwt>
<totfact> 0.92137560E+00</totfact>
</mgrwt>
</event>
<event>
12    1  0.1201209E-007  0.1716371E+04  0.7818608E-02  0.8752082E-01
          1   -1    0    0  501    0  0.00000000000E+00  0.00000000000E+00  0.95255376167E+03  0.95255376167E+03  0.00000000000E+00 0. -1.
         -1   -1    0    0    0  501 -0.00000000000E+00 -0.00000000000E+00 -0.77316634904E+03  0.77316634904E+03  0.00000000000E+00 0.  1.
         23    2    1    2    0    0  0.33864350836E+03  0.50788783341E+03  0.15847840738E+03  0.63745938454E+03  0.92787845386E+02 0.  0.
        254    2    1    2    0    0 -0.33864350836E+03 -0.50788783341E+03  0.20909005247E+02  0.10882607262E+04  0.90069125928E+03 0.  0.
        -24    2    4    4    0    0  0.21563766127E+03 -0.40222304718E+03 -0.16232587712E+03  0.49026484129E+03  0.75676572260E+02 0.  0.
         24    2    4    4    0    0 -0.55428116963E+03 -0.10566478624E+03  0.18323488236E+03  0.59799588488E+03  0.75042615662E+02 0.  0.
         11    1    3    3    0    0  0.69047608200E+02  0.15959673152E+03  0.16378245939E+02  0.17466234812E+03  0.00000000000E+00 0.  1.
        -11    1    3    3    0    0  0.26959590016E+03  0.34829110189E+03  0.14210016144E+03  0.46279703642E+03  0.00000000000E+00 0. -1.
          4    1    6    6  502    0 -0.37136813060E+03 -0.10490442214E+03  0.13494100316E+03  0.40881328323E+03  0.00000000000E+00 0. -1.
          1    1    5    5  503    0  0.14850687737E+03 -0.20802558268E+03 -0.70036006982E+02  0.26501693899E+03  0.00000000000E+00 0. -1.
         -2    1    5    5    0  503  0.67130783896E+02 -0.19419746450E+03 -0.92289870134E+02  0.22524790231E+03  0.00000000000E+00 0.  1.
         -3    1    6    6    0  502 -0.18291303903E+03 -0.76036410055E+00  0.48293879200E+02  0.18918260165E+03  0.00000000000E+00 0.  1.
<mgrwt>
<rscale>  0 0.17163712E+04</rscale>
<asrwt>0</asrwt>
<pdfrwt beam="1">  1        1 0.14654673E+00 0.17163712E+04</pdfrwt>
<pdfrwt beam="2">  1       -1 0.11894867E+00 0.17163712E+04</pdfrwt>
<totfact> 0.99189850E+00</totfact>
</mgrwt>
</event>
<event>
12    1  0.1201209E-007  0.2086702E+04  0.7818608E-02  0.8567124E-01
          2   -1    0    0  501    0  0.00000000000E+00  0.00000000000E+00  0.52479460214E+03  0.52479460214E+03  0.00000000000E+00 0. -1.
         -2   -1    0    0    0  501 -0.00000000000E+00 -0.00000000000E+00 -0.20742995092E+04  0.20742995092E+04  0.00000000000E+00 0.  1.
         23    2    1    2    0    0  0.13874856362E+03  0.82930192536E+03 -0.49317877696E+03  0.97954442745E+03  0.96380143129E+02 0.  0.
        254    2    1    2    0    0 -0.13874856362E+03 -0.82930192536E+03 -0.10563261301E+04  0.16195496839E+04  0.89449619234E+03 0.  0.
        -24    2    4    4    0    0 -0.36767431930E+03 -0.87105564848E+03 -0.97472092052E+03  0.13602433925E+04  0.79112996486E+02 0.  0.
         24    2    4    4    0    0  0.22892575568E+03  0.41753723115E+02 -0.81605209548E+02  0.25930629133E+03  0.80187078062E+02 0.  0.
         11    1    3    3    0    0  0.56413729899E+02  0.57042947139E+03 -0.36127622505E+03  0.67756387266E+03  0.00000000000E+00 0. -1.
        -11    1    3    3    0    0  0.82334833725E+02  0.25887245397E+03 -0.13190255191E+03  0.30198055479E+03  0.00000000000E+00 0.  1.
          2    1    6    6  502    0  0.52763797579E+02  0.45803440442E+02 -0.20795024024E+02  0.72899976100E+02  0.00000000000E+00 0. -1.
          1    1    5    5  503    0 -0.10342357647E+03 -0.25081425752E+03 -0.33236991238E+03  0.42903844419E+03  0.00000000000E+00 0. -1.
         -2    1    5    5    0  503 -0.26425074284E+03 -0.62024139096E+03 -0.64235100814E+03  0.93120494834E+03  0.00000000000E+00 0.  1.
         -1    1    6    6    0  502  0.17616195810E+03 -0.40497173268E+01 -0.60810185524E+02  0.18640631523E+03  0.00000000000E+00 0.  1.
<mgrwt>
<rscale>  0 0.20867019E+04</rscale>
<asrwt>0</asrwt>
<pdfrwt beam="1">  1        2 0.80737634E-01 0.20867019E+04</pdfrwt>
<pdfrwt beam="2">  1       -2 0.31912299E+00 0.20867019E+04</pdfrwt>
<totfact> 0.13031619E+00</totfact>
</mgrwt>
</event>
<event>
12    1  0.1201209E-007  0.2220209E+04  0.7818608E-02  0.8510064E-01
          2   -1    0    0  501    0  0.00000000000E+00  0.00000000000E+00  0.37310523601E+04  0.37310523601E+04  0.00000000000E+00 0. -1.
         -2   -1    0    0    0  501 -0.00000000000E+00 -0.00000000000E+00 -0.33029066502E+03  0.33029066502E+03  0.00000000000E+00 0.  1.
         23    2    1    2    0    0  0.88963055135E+03 -0.21840513234E+02  0.93742489136E+03  0.12959685190E+04  0.94071511789E+02 0.  0.
        254    2    1    2    0    0 -0.88963055135E+03  0.21840513234E+02  0.24633368037E+04  0.27653745061E+04  0.88732656036E+03 0.  0.
        -24    2    4    4    0    0  0.20138301159E+02  0.11270612206E+03  0.26868934628E+01  0.13915271062E+03  0.79044521337E+02 0.  0.
         24    2    4    4    0    0 -0.90976885251E+03 -0.90865608825E+02  0.24606499102E+04  0.26262217955E+04  0.79416714489E+02 0.  0.
         11    1    3    3    0    0  0.59842098703E+03 -0.45405002225E+02  0.67550444897E+03  0.90359036765E+03  0.00000000000E+00 0. -1.
        -11    1    3    3    0    0  0.29120956432E+03  0.23564488991E+02  0.26192044239E+03  0.39237815132E+03  0.00000000000E+00 0.  1.
          4    1    6    6  502    0 -0.21941916099E+03  0.12093713680E+02  0.58795556068E+03  0.62768046605E+03  0.00000000000E+00 0. -1.
          3    1    5    5  503    0  0.12175048895E+02 -0.22100292054E+01 -0.18274105367E+02  0.22069412580E+02  0.00000000000E+00 0. -1.
         -4    1    5    5    0  503  0.79632522642E+01  0.11491615126E+03  0.20960998830E+02  0.11708329804E+03  0.00000000000E+00 0.  1.
         -3    1    6    6    0  502 -0.69034969152E+03 -0.10295932250E+03  0.18726943495E+04  0.19985413294E+04  0.00000000000E+00 0.  1.
<mgrwt>
<rscale>  0 0.22202088E+04</rscale>
<asrwt>0</asrwt>
<pdfrwt beam="1">  1        2 0.57400803E+00 0.22202088E+04</pdfrwt>
<pdfrwt beam="2">  1       -2 0.50813951E-01 0.22202088E+04</pdfrwt>
<totfact> 0.18581630E+00</totfact>
</mgrwt>
</event>
<event>
12    1  0.1201209E-007  0.2692989E+04  0.7818608E-02  0.8337283E-01
         -2   -1    0    0    0  501 -0.00000000000E+00  0.00000000000E+00  0.66081082483E+03  0.66081082483E+03  0.00000000000E+00 0.  1.
          2   -1    0    0  501    0  0.00000000000E+00 -0.00000000000E+00 -0.27436714157E+04  0.27436714157E+04  0.00000000000E+00 0. -1.
         23    2    1    2    0    0  0.96466899205E+03 -0.21878546543E+03 -0.83514203227E+02  0.99695054051E+03  0.92100021533E+02 0.  0.
        254    2    1    2    0    0 -0.96466899205E+03  0.21878546543E+03 -0.19993463876E+04  0.24075317000E+04  0.90574254878E+03 0.  0.
        -24    2    4    4    0    0 -0.10342287437E+04  0.29110007667E+03 -0.12611444331E+04  0.16586516431E+04  0.79193706324E+02 0.  0.
         24    2    4    4    0    0  0.69559751656E+02 -0.72314611245E+02 -0.73820195451E+03  0.74888005687E+03  0.76231567507E+02 0.  0.
         11    1    3    3    0    0  0.40081540969E+03 -0.70613411222E+02  0.65309804114E+01  0.40704041592E+03  0.00000000000E+00 0. -1.
        -11    1    3    3    0    0  0.56385358236E+03 -0.14817205420E+03 -0.90045183639E+02  0.58991012459E+03  0.00000000000E+00 0.  1.
          2    1    6    6  502    0  0.25748778240E+02  0.13429017138E+02 -0.20615878321E+03  0.20819409689E+03  0.00000000000E+00 0. -1.
          1    1    5    5  503    0 -0.13076583161E+03  0.12447891592E+02 -0.17107928035E+03  0.21569138344E+03  0.00000000000E+00 0. -1.
         -2    1    5    5    0  503 -0.90346291210E+03  0.27865218508E+03 -0.10900651528E+04  0.14429602597E+04  0.00000000000E+00 0.  1.
         -1    1    6    6    0  502  0.43810973416E+02 -0.85743628383E+02 -0.53204317130E+03  0.54068595999E+03  0.00000000000E+00 0.  1.
<mgrwt>
<rscale>  0 0.26929892E+04</rscale>
<asrwt>0</asrwt>
<pdfrwt beam="1">  1        2 0.42210330E+00 0.26929892E+04</pdfrwt>
<pdfrwt beam="2">  1       -2 0.10166320E+00 0.26929892E+04</pdfrwt>
<totfact> 0.17426558E+00</totfact>
</mgrwt>
</event>
<event>
12    1  0.1201209E-007  0.1429394E+04  0.7818608E-02  0.8932812E-01
         -2   -1    0    0    0  501 -0.00000000000E+00  0.00000000000E+00  0.27973809727E+03  0.27973809727E+03  0.00000000000E+00 0.  1.
          2   -1    0    0  501    0  0.00000000000E+00 -0.00000000000E+00 -0.18259644682E+04  0.18259644682E+04  0.00000000000E+00 0. -1.
         23    2    1    2    0    0 -0.25323740301E+03  0.21392320078E+03 -0.86164206207E+03  0.92767027603E+03  0.90844811495E+02 0.  0.
        254    2    1    2    0    0  0.25323740301E+03 -0.21392320078E+03 -0.68458430881E+03  0.11780322894E+04  0.89956216067E+03 0.  0.
        -24    2    4    4    0    0  0.33914949522E+03  0.27694491449E+03 -0.24071006214E+03  0.50593721766E+03  0.79437198007E+02 0.  0.
         24    2    4    4    0    0 -0.85912092220E+02 -0.49086811527E+03 -0.44387424667E+03  0.67209507175E+03  0.79718532545E+02 0.  0.
         13    1    3    3    0    0 -0.17059040268E+03  0.12982936138E+03 -0.43381185486E+03  0.48388993995E+03  0.00000000000E+00 0.  1.
        -13    1    3    3    0    0 -0.82647000321E+02  0.84093839406E+02 -0.42783020721E+03  0.44378033608E+03  0.00000000000E+00 0. -1.
          2    1    6    6  502    0 -0.90232493288E+02 -0.41101083702E+03 -0.40138826785E+03  0.58153620056E+03  0.00000000000E+00 0. -1.
          3    1    5    5  503    0  0.17796491170E+03  0.18372897247E+03 -0.16810922313E+03  0.30608586381E+03  0.00000000000E+00 0. -1.
         -4    1    5    5    0  503  0.16118458352E+03  0.93215942015E+02 -0.72600839011E+02  0.19985135385E+03  0.00000000000E+00 0.  1.
         -1    1    6    6    0  502  0.43204010689E+01 -0.79857278246E+02 -0.42485978827E+02  0.90558871190E+02  0.00000000000E+00 0.  1.
<mgrwt>
<rscale>  0 0.14293940E+04</rscale>
<asrwt>0</asrwt>
<pdfrwt beam="1">  1        2 0.28091762E+00 0.14293940E+04</pdfrwt>
<pdfrwt beam="2">  1       -2 0.43036629E-01 0.14293940E+04</pdfrwt>
<totfact> 0.41502879E+01</totfact>
</mgrwt>
</event>
<event>
12    1  0.1201209E-007  0.1717993E+04  0.7818608E-02  0.8751168E-01
         -2   -1    0    0    0  501 -0.00000000000E+00  0.00000000000E+00  0.12646826587E+04  0.12646826587E+04  0.00000000000E+00 0.  1.
          2   -1    0    0  501    0  0.00000000000E+00 -0.00000000000E+00 -0.58344700907E+03  0.58344700907E+03  0.00000000000E+00 0. -1.
         23    2    1    2    0    0  0.46168012938E+03 -0.38997020468E+03  0.98488648260E+02  0.61958872635E+03  0.94683016357E+02 0.  0.
        254    2    1    2    0    0 -0.46168012938E+03  0.38997020468E+03  0.58274700142E+03  0.12285409415E+04  0.89693560237E+03 0.  0.
        -24    2    4    4    0    0  0.54869965111E+02  0.46522659294E+02  0.59288841385E+03  0.60243787715E+03  0.78991478273E+02 0.  0.
         24    2    4    4    0    0 -0.51655009449E+03  0.34344754538E+03 -0.10141412430E+02  0.62610306432E+03  0.84391838246E+02 0.  0.
         11    1    3    3    0    0  0.92052233718E+01  0.46928264791E+01  0.64092716121E+01  0.12158845352E+02  0.00000000000E+00 0. -1.
        -11    1    3    3    0    0  0.45247490600E+03 -0.39466303115E+03  0.92079376648E+02  0.60742988100E+03  0.00000000000E+00 0.  1.
          4    1    6    6  502    0 -0.48088252083E+03  0.33048688723E+03 -0.27984153611E+02  0.58416837840E+03  0.00000000000E+00 0. -1.
          3    1    5    5  503    0 -0.11627987685E+02  0.17709387925E+02  0.29885085281E+03  0.29960084236E+03  0.00000000000E+00 0. -1.
         -4    1    5    5    0  503  0.66497952796E+02  0.28813271369E+02  0.29403756105E+03  0.30283703479E+03  0.00000000000E+00 0.  1.
         -3    1    6    6    0  502 -0.35667573653E+02  0.12960658152E+02  0.17842741181E+02  0.41934685916E+02  0.00000000000E+00 0.  1.
<mgrwt>
<rscale>  0 0.17179934E+04</rscale>
<asrwt>0</asrwt>
<pdfrwt beam="1">  1        2 0.89761078E-01 0.17179934E+04</pdfrwt>
<pdfrwt beam="2">  1       -2 0.19456656E+00 0.17179934E+04</pdfrwt>
<totfact> 0.70362279E+00</totfact>
</mgrwt>
</event>
<event>
12    1  0.1201209E-007  0.3035411E+04  0.7818608E-02  0.8233691E-01
          2   -1    0    0  501    0  0.00000000000E+00  0.00000000000E+00  0.21232619496E+04  0.21232619496E+04  0.00000000000E+00 0. -1.
         -2   -1    0    0    0  501 -0.00000000000E+00 -0.00000000000E+00 -0.10848542013E+04  0.10848542013E+04  0.00000000000E+00 0.  1.
         23    2    1    2    0    0 -0.59545861636E+03 -0.55044020135E+03  0.16550373182E+04  0.18453085321E+04  0.91976491353E+02 0.  0.
        254    2    1    2    0    0  0.59545861636E+03  0.55044020135E+03 -0.61662956995E+03  0.13628076187E+04  0.90523875299E+03 0.  0.
        -24    2    4    4    0    0 -0.53791361835E+02  0.47205213265E+03 -0.32914132012E+02  0.48278054463E+03  0.79164307858E+02 0.  0.
         24    2    4    4    0    0  0.64924997819E+03  0.78388068701E+02 -0.58371543794E+03  0.88002707404E+03  0.77805623629E+02 0.  0.
         13    1    3    3    0    0 -0.56959466885E+03 -0.51733372959E+03  0.15165182149E+04  0.17005586643E+04  0.00000000000E+00 0. -1.
        -13    1    3    3    0    0 -0.25863947502E+02 -0.33106471756E+02  0.13851910334E+03  0.14474986785E+03  0.00000000000E+00 0.  1.
          2    1    6    6  502    0  0.47856944295E+03  0.29656104889E+02 -0.39822050113E+03  0.62328786592E+03  0.00000000000E+00 0. -1.
          3    1    5    5  503    0 -0.57667135941E+02  0.41712945411E+03 -0.51752591760E+01  0.42112855919E+03  0.00000000000E+00 0. -1.
         -2    1    5    5    0  503  0.38757741059E+01  0.54922678536E+02 -0.27738872836E+02  0.61651985440E+02  0.00000000000E+00 0.  1.
         -1    1    6    6    0  502  0.17068053524E+03  0.48731963813E+02 -0.18549493680E+03  0.25673920812E+03  0.00000000000E+00 0.  1.
<mgrwt>
<rscale>  0 0.30354108E+04</rscale>
<asrwt>0</asrwt>
<pdfrwt beam="1">  1        2 0.32665568E+00 0.30354108E+04</pdfrwt>
<pdfrwt beam="2">  1       -2 0.16690065E+00 0.30354108E+04</pdfrwt>
<totfact> 0.10917756E+00</totfact>
</mgrwt>
</event>
<event>
12    1  0.1201209E-007  0.2076865E+04  0.7818608E-02  0.8571504E-01
         -2   -1    0    0    0  501 -0.00000000000E+00  0.00000000000E+00  0.65752869112E+03  0.65752869112E+03  0.00000000000E+00 0.  1.
          2   -1    0    0  501    0  0.00000000000E+00 -0.00000000000E+00 -0.16399921153E+04  0.16399921153E+04  0.00000000000E+00 0. -1.
         23    2    1    2    0    0  0.62826148975E+03 -0.24210664744E+03  0.16752103201E+03  0.69987006847E+03  0.91796995256E+02 0.  0.
        254    2    1    2    0    0 -0.62826148975E+03  0.24210664744E+03 -0.11499844562E+04  0.15976507380E+04  0.88130329785E+03 0.  0.
        -24    2    4    4    0    0  0.64401130401E+02 -0.18303823550E+03 -0.29156676874E+02  0.21091830333E+03  0.77368712145E+02 0.  0.
         24    2    4    4    0    0 -0.69266262015E+03  0.42514488294E+03 -0.11208277794E+04  0.13867324347E+04  0.79007958573E+02 0.  0.
         13    1    3    3    0    0  0.75184335951E+02 -0.53562429732E+02  0.45573223283E+02  0.10294919588E+03  0.00000000000E+00 0. -1.
        -13    1    3    3    0    0  0.55307715380E+03 -0.18854421771E+03  0.12194780873E+03  0.59692087259E+03  0.00000000000E+00 0.  1.
          2    1    6    6  502    0 -0.33347761536E+03  0.20889112549E+03 -0.47603938774E+03  0.61762150297E+03  0.00000000000E+00 0. -1.
          1    1    5    5  503    0  0.13958624310E+02  0.41638077593E+01 -0.56322334597E+01  0.15617379467E+02  0.00000000000E+00 0. -1.
         -2    1    5    5    0  503  0.50442506091E+02 -0.18720204326E+03 -0.23524443414E+02  0.19530092386E+03  0.00000000000E+00 0.  1.
         -1    1    6    6    0  502 -0.35918500479E+03  0.21625375745E+03 -0.64478839163E+03  0.76911093170E+03  0.00000000000E+00 0.  1.
<mgrwt>
<rscale>  0 0.20768648E+04</rscale>
<asrwt>0</asrwt>
<pdfrwt beam="1">  1        2 0.25230647E+00 0.20768648E+04</pdfrwt>
<pdfrwt beam="2">  1       -2 0.10115826E+00 0.20768648E+04</pdfrwt>
<totfact> 0.78602496E+00</totfact>
</mgrwt>
</event>
<event>
12    1  0.1201209E-007  0.1263315E+04  0.7818608E-02  0.9059173E-01
         -2   -1    0    0    0  501 -0.00000000000E+00  0.00000000000E+00  0.22637071782E+03  0.22637071782E+03  0.00000000000E+00 0.  1.
          2   -1    0    0  501    0  0.00000000000E+00 -0.00000000000E+00 -0.17625571100E+04  0.17625571100E+04  0.00000000000E+00 0. -1.
         23    2    1    2    0    0 -0.19751557271E+03  0.15172190525E+03 -0.11482013371E+03  0.28957851787E+03  0.92952229200E+02 0.  0.
        254    2    1    2    0    0  0.19751557271E+03 -0.15172190525E+03 -0.14213662585E+04  0.16993493099E+04  0.89748208814E+03 0.  0.
        -24    2    4    4    0    0 -0.19372135209E+02  0.30147157267E+03 -0.18580421344E+03  0.36333071482E+03  0.78902559184E+02 0.  0.
         24    2    4    4    0    0  0.21688770792E+03 -0.45319347792E+03 -0.12355620450E+04  0.13360185951E+04  0.76860348492E+02 0.  0.
         13    1    3    3    0    0 -0.54766137790E+02  0.59023388357E+01 -0.52797631752E+02  0.76300441485E+02  0.00000000000E+00 0. -1.
        -13    1    3    3    0    0 -0.14274943492E+03  0.14581956641E+03 -0.62022501955E+02  0.21327807638E+03  0.00000000000E+00 0.  1.
          2    1    6    6  502    0  0.17653147998E+03 -0.33592685611E+03 -0.10042447046E+04  0.10735537447E+04  0.00000000000E+00 0. -1.
          1    1    5    5  503    0 -0.37940593641E+02  0.26608094234E+03 -0.14179397937E+03  0.30388170249E+03  0.00000000000E+00 0. -1.
         -2    1    5    5    0  503  0.18568458433E+02  0.35390630333E+02 -0.44010234072E+02  0.59449012330E+02  0.00000000000E+00 0.  1.
         -1    1    6    6    0  502  0.40356227932E+02 -0.11726662181E+03 -0.23131734041E+03  0.26246485040E+03  0.00000000000E+00 0.  1.
<mgrwt>
<rscale>  0 0.12633152E+04</rscale>
<asrwt>0</asrwt>
<pdfrwt beam="1">  1        2 0.27116262E+00 0.12633152E+04</pdfrwt>
<pdfrwt beam="2">  1       -2 0.34826265E-01 0.12633152E+04</pdfrwt>
<totfact> 0.68792655E+01</totfact>
</mgrwt>
</event>
<event>
12    1  0.1201209E-007  0.2879449E+04  0.7818608E-02  0.8279018E-01
          3   -1    0    0  501    0  0.00000000000E+00  0.00000000000E+00  0.78096260307E+03  0.78096260307E+03  0.00000000000E+00 0. -1.
         -3   -1    0    0    0  501 -0.00000000000E+00 -0.00000000000E+00 -0.26541685957E+04  0.26541685957E+04  0.00000000000E+00 0.  1.
         23    2    1    2    0    0  0.49453610964E+03  0.97902589106E+03 -0.22410685906E+02  0.11007847741E+04  0.90372677969E+02 0.  0.
        254    2    1    2    0    0 -0.49453610964E+03 -0.97902589106E+03 -0.18507953067E+04  0.23343464247E+04  0.90590965545E+03 0.  0.
        -24    2    4    4    0    0 -0.64856033051E+03 -0.29653371099E+03 -0.90831661648E+03  0.11575533160E+04  0.79547844227E+02 0.  0.
         24    2    4    4    0    0  0.15402422087E+03 -0.68249218007E+03 -0.94247869024E+03  0.11767931087E+04  0.84005372331E+02 0.  0.
         13    1    3    3    0    0  0.46948143397E+02  0.67884176587E+02 -0.22851699811E+02  0.85642219632E+02  0.00000000000E+00 0.  1.
        -13    1    3    3    0    0  0.44758796625E+03  0.91114171448E+03  0.44101390513E+00  0.10151425545E+04  0.00000000000E+00 0. -1.
          2    1    6    6  502    0  0.10678102842E+01 -0.62388241179E+02 -0.12198039339E+03  0.13701331770E+03  0.00000000000E+00 0. -1.
          1    1    5    5  503    0 -0.44941051586E+02 -0.45061765623E+02 -0.82319381158E+02  0.10405162830E+03  0.00000000000E+00 0. -1.
         -2    1    5    5    0  503 -0.60361927893E+03 -0.25147194537E+03 -0.82599723532E+03  0.10535016877E+04  0.00000000000E+00 0.  1.
         -1    1    6    6    0  502  0.15295641059E+03 -0.62010393889E+03 -0.82049829686E+03  0.10397797910E+04  0.00000000000E+00 0.  1.
<mgrwt>
<rscale>  0 0.28794488E+04</rscale>
<asrwt>0</asrwt>
<pdfrwt beam="1">  1        3 0.12014809E+00 0.28794488E+04</pdfrwt>
<pdfrwt beam="2">  1       -3 0.40833363E+00 0.28794488E+04</pdfrwt>
<totfact> 0.12068245E-02</totfact>
</mgrwt>
</event>
<event>
12    1  0.1201209E-007  0.1824333E+04  0.7818608E-02  0.8693466E-01
         -2   -1    0    0    0  501 -0.00000000000E+00  0.00000000000E+00  0.45711373083E+03  0.45711373083E+03  0.00000000000E+00 0. -1.
          2   -1    0    0  501    0  0.00000000000E+00 -0.00000000000E+00 -0.18202194115E+04  0.18202194115E+04  0.00000000000E+00 0.  1.
         23    2    1    2    0    0  0.24136703415E+03 -0.24930050330E+03  0.22084334204E+03  0.42218000851E+03  0.95159822116E+02 0.  0.
        254    2    1    2    0    0 -0.24136703415E+03  0.24930050330E+03 -0.15839490227E+04  0.18551531338E+04  0.90127124510E+03 0.  0.
        -24    2    4    4    0    0 -0.38089243032E+03  0.31402370333E+03 -0.16033973332E+04  0.16796501050E+04  0.81556957396E+02 0.  0.
         24    2    4    4    0    0  0.13952539617E+03 -0.64723200033E+02  0.19448310537E+02  0.17550302880E+03  0.82259634913E+02 0.  0.
         11    1    3    3    0    0  0.10715783669E+03 -0.15965573125E+03  0.15840564407E+03  0.24912868674E+03  0.00000000000E+00 0. -1.
        -11    1    3    3    0    0  0.13420919746E+03 -0.89644772046E+02  0.62437697969E+02  0.17305132177E+03  0.00000000000E+00 0.  1.
          4    1    6    6  502    0  0.58956244564E+02 -0.59354358457E+02  0.39180706341E+02  0.92379144780E+02  0.00000000000E+00 0. -1.
          3    1    5    5  503    0 -0.31917956419E+03  0.29647454233E+03 -0.13698123289E+04  0.14374138460E+04  0.00000000000E+00 0. -1.
         -4    1    5    5    0  503 -0.61712866126E+02  0.17549161004E+02 -0.23358500435E+03  0.24223625896E+03  0.00000000000E+00 0.  1.
         -3    1    6    6    0  502  0.80569151604E+02 -0.53688415762E+01 -0.19732395804E+02  0.83123884018E+02  0.00000000000E+00 0.  1.
<mgrwt>
<rscale>  0 0.18243325E+04</rscale>
<asrwt>0</asrwt>
<pdfrwt beam="1">  1        2 0.28003376E+00 0.18243325E+04</pdfrwt>
<pdfrwt beam="2">  1       -2 0.70325189E-01 0.18243325E+04</pdfrwt>
<totfact> 0.14577931E+01</totfact>
</mgrwt>
</event>
<event>
12    1  0.1201209E-007  0.1399228E+04  0.7818608E-02  0.8954378E-01
          1   -1    0    0  501    0  0.00000000000E+00  0.00000000000E+00  0.18501298614E+04  0.18501298614E+04  0.00000000000E+00 0. -1.
         -1   -1    0    0    0  501 -0.00000000000E+00 -0.00000000000E+00 -0.26455426037E+03  0.26455426037E+03  0.00000000000E+00 0.  1.
         23    2    1    2    0    0  0.84961597261E+02 -0.10118589523E+02  0.10328717801E+04  0.10406374399E+04  0.93708635043E+02 0.  0.
        254    2    1    2    0    0 -0.84961597261E+02  0.10118589523E+02  0.55270382089E+03  0.10740466819E+04  0.91693724012E+03 0.  0.
        -24    2    4    4    0    0 -0.40202251428E+03  0.12117704750E+03  0.59496660700E+01  0.42743695447E+03  0.79755706309E+02 0.  0.
         24    2    4    4    0    0  0.31706091702E+03 -0.11105845798E+03  0.54675415482E+03  0.64660972739E+03  0.79387829998E+02 0.  0.
         11    1    3    3    0    0  0.76611313344E+02 -0.42905875495E+02  0.86108962957E+03  0.86555505754E+03  0.00000000000E+00 0. -1.
        -11    1    3    3    0    0  0.83502839169E+01  0.32787285973E+02  0.17178215055E+03  0.17508238235E+03  0.00000000000E+00 0.  1.
          4    1    6    6  502    0  0.18338059218E+03 -0.22290616939E+02  0.29381795089E+03  0.34706526974E+03  0.00000000000E+00 0. -1.
          3    1    5    5  503    0 -0.22473079457E+03  0.46655195444E+02  0.37447976956E+02  0.23255749455E+03  0.00000000000E+00 0. -1.
         -4    1    5    5    0  503 -0.17729171970E+03  0.74521852056E+02 -0.31498310886E+02  0.19487945992E+03  0.00000000000E+00 0.  1.
         -3    1    6    6    0  502  0.13368032483E+03 -0.88767841039E+02  0.25293620393E+03  0.29954445765E+03  0.00000000000E+00 0.  1.
<mgrwt>
<rscale>  0 0.13992280E+04</rscale>
<asrwt>0</asrwt>
<pdfrwt beam="1">  1        1 0.28463536E+00 0.13992280E+04</pdfrwt>
<pdfrwt beam="2">  1       -1 0.40700657E-01 0.13992280E+04</pdfrwt>
<totfact> 0.21679360E+01</totfact>
</mgrwt>
</event>
<event>
12    1  0.1201209E-007  0.1381518E+04  0.7818608E-02  0.8967306E-01
          1   -1    0    0  501    0  0.00000000000E+00  0.00000000000E+00  0.11255638080E+04  0.11255638080E+04  0.00000000000E+00 0. -1.
         -1   -1    0    0    0  501 -0.00000000000E+00 -0.00000000000E+00 -0.42391915196E+03  0.42391915196E+03  0.00000000000E+00 0.  1.
         23    2    1    2    0    0 -0.32598976444E+03 -0.90254929003E+02  0.43161835871E+03  0.55560627497E+03  0.89379228464E+02 0.  0.
        254    2    1    2    0    0  0.32598976444E+03  0.90254929003E+02  0.27002629734E+03  0.99387668500E+03  0.89468507588E+03 0.  0.
        -24    2    4    4    0    0 -0.25108677381E+03  0.49972455954E+02 -0.11727973389E+03  0.29304943747E+03  0.81127199400E+02 0.  0.
         24    2    4    4    0    0  0.57707653825E+03  0.40282473048E+02  0.38730603123E+03  0.70082724753E+03  0.80702294928E+02 0.  0.
         11    1    3    3    0    0 -0.24367074210E+02 -0.30816707455E+02  0.75805225193E+02  0.85380653139E+02  0.00000000000E+00 0.  1.
        -11    1    3    3    0    0 -0.30162269023E+03 -0.59438221547E+02  0.35581313352E+03  0.47022562183E+03  0.00000000000E+00 0. -1.
          4    1    6    6  502    0  0.11262878379E+03  0.30880539986E+02  0.10620759516E+03  0.15785722650E+03  0.00000000000E+00 0. -1.
          1    1    5    5  503    0 -0.26056066094E+02  0.31536459251E+02 -0.31056932937E+02  0.51361463431E+02  0.00000000000E+00 0. -1.
         -2    1    5    5    0  503 -0.22503070772E+03  0.18435996704E+02 -0.86222800954E+02  0.24168797404E+03  0.00000000000E+00 0.  1.
         -3    1    6    6    0  502  0.46444775446E+03  0.94019330623E+01  0.28109843607E+03  0.54297002103E+03  0.00000000000E+00 0.  1.
<mgrwt>
<rscale>  0 0.13815181E+04</rscale>
<asrwt>0</asrwt>
<pdfrwt beam="1">  1        1 0.17316366E+00 0.13815181E+04</pdfrwt>
<pdfrwt beam="2">  1       -1 0.65218331E-01 0.13815181E+04</pdfrwt>
<totfact> 0.28233414E+01</totfact>
</mgrwt>
</event>
<event>
12    1  0.1201209E-007  0.1721946E+04  0.7818608E-02  0.8748946E-01
          1   -1    0    0  501    0  0.00000000000E+00  0.00000000000E+00  0.14835408530E+04  0.14835408530E+04  0.00000000000E+00 0. -1.
         -1   -1    0    0    0  501 -0.00000000000E+00 -0.00000000000E+00 -0.49966548549E+03  0.49966548549E+03  0.00000000000E+00 0.  1.
         23    2    1    2    0    0 -0.29501043396E+03 -0.33627329842E+02 -0.26869429234E+03  0.41089012205E+03  0.92044099226E+02 0.  0.
        254    2    1    2    0    0  0.29501043396E+03  0.33627329842E+02  0.12525696599E+04  0.15723162164E+04  0.90282090043E+03 0.  0.
        -24    2    4    4    0    0 -0.30737475380E+03 -0.60973391083E+02  0.31656385005E+03  0.45236711116E+03  0.78907150538E+02 0.  0.
         24    2    4    4    0    0  0.60238518776E+03  0.94600720925E+02  0.93600580981E+03  0.11199491053E+04  0.79761592294E+02 0.  0.
         13    1    3    3    0    0 -0.27474865913E+03 -0.56073266905E+02 -0.23791702565E+03  0.36774386202E+03  0.00000000000E+00 0.  1.
        -13    1    3    3    0    0 -0.20261774830E+02  0.22445937063E+02 -0.30777266693E+02  0.43146260034E+02  0.00000000000E+00 0. -1.
          4    1    6    6  502    0  0.18230749107E+03  0.55774932025E+02  0.24650452708E+03  0.31162693435E+03  0.00000000000E+00 0. -1.
          1    1    5    5  503    0 -0.11949850350E+03 -0.52507859377E+01  0.16904146350E+03  0.20708085250E+03  0.00000000000E+00 0. -1.
         -2    1    5    5    0  503 -0.18787625031E+03 -0.55722605145E+02  0.14752238655E+03  0.24528625866E+03  0.00000000000E+00 0.  1.
         -3    1    6    6    0  502  0.42007769669E+03  0.38825788900E+02  0.68950128273E+03  0.80832217094E+03  0.00000000000E+00 0.  1.
<mgrwt>
<rscale>  0 0.17219456E+04</rscale>
<asrwt>0</asrwt>
<pdfrwt beam="1">  1        1 0.22823705E+00 0.17219456E+04</pdfrwt>
<pdfrwt beam="2">  1       -1 0.76871614E-01 0.17219456E+04</pdfrwt>
<totfact> 0.10829462E+01</totfact>
</mgrwt>
</event>
<event>
12    1  0.1201209E-007  0.1847565E+04  0.7818608E-02  0.8681406E-01
         -1   -1    0    0    0  501 -0.00000000000E+00  0.00000000000E+00  0.38577341911E+03  0.38577341911E+03  0.00000000000E+00 0.  1.
          1   -1    0    0  501    0  0.00000000000E+00 -0.00000000000E+00 -0.22121133622E+04  0.22121133622E+04  0.00000000000E+00 0. -1.
         23    2    1    2    0    0  0.42526641497E+03  0.18532960561E+03 -0.14225308212E+04  0.14990275855E+04  0.91055908466E+02 0.  0.
        254    2    1    2    0    0 -0.42526641497E+03 -0.18532960561E+03 -0.40380912194E+03  0.10988591958E+04  0.91062129279E+03 0.  0.
        -24    2    4    4    0    0 -0.68432971976E+03 -0.23965905143E+03 -0.20075308345E+03  0.75661224981E+03  0.80104118327E+02 0.  0.
         24    2    4    4    0    0  0.25906330479E+03  0.54329445822E+02 -0.20305603849E+03  0.34224694601E+03  0.76391967627E+02 0.  0.
         13    1    3    3    0    0  0.10064413460E+03  0.21518542484E+02 -0.22313858269E+03  0.24572976333E+03  0.00000000000E+00 0.  1.
        -13    1    3    3    0    0  0.32462228038E+03  0.16381106312E+03 -0.11993922385E+04  0.12532978222E+04  0.00000000000E+00 0. -1.
          2    1    6    6  502    0  0.22617941701E+03  0.69873567494E+02 -0.15924026651E+03  0.28530143110E+03  0.00000000000E+00 0. -1.
          1    1    5    5  503    0 -0.66851908297E+03 -0.22054859224E+03 -0.19991127056E+03  0.73179502727E+03  0.00000000000E+00 0. -1.
         -2    1    5    5    0  503 -0.15810636792E+02 -0.19110459185E+02 -0.84181289223E+00  0.24817222548E+02  0.00000000000E+00 0.  1.
         -1    1    6    6    0  502  0.32883887782E+02 -0.15544121673E+02 -0.43815771981E+02  0.56945514911E+02  0.00000000000E+00 0.  1.
<mgrwt>
<rscale>  0 0.18475655E+04</rscale>
<asrwt>0</asrwt>
<pdfrwt beam="1">  1        1 0.34032513E+00 0.18475655E+04</pdfrwt>
<pdfrwt beam="2">  1       -1 0.59349758E-01 0.18475655E+04</pdfrwt>
<totfact> 0.57829083E+00</totfact>
</mgrwt>
</event>
<event>
12    1  0.1201209E-007  0.2031811E+04  0.7818608E-02  0.8591891E-01
         -1   -1    0    0    0  501 -0.00000000000E+00  0.00000000000E+00  0.11172628309E+04  0.11172628309E+04  0.00000000000E+00 0.  1.
          1   -1    0    0  501    0  0.00000000000E+00 -0.00000000000E+00 -0.92374336146E+03  0.92374336146E+03  0.00000000000E+00 0. -1.
         23    2    1    2    0    0  0.19944324486E+03 -0.69832834590E+03  0.44589242563E+03  0.85662935897E+03  0.86912121209E+02 0.  0.
        254    2    1    2    0    0 -0.19944324486E+03  0.69832834590E+03 -0.25237295619E+03  0.11843768334E+04  0.90089749019E+03 0.  0.
        -24    2    4    4    0    0 -0.21944962966E+03  0.83105707539E+03  0.27976733865E+02  0.86377028374E+03  0.80637478293E+02 0.  0.
         24    2    4    4    0    0  0.20006384808E+02 -0.13272872949E+03 -0.28034969006E+03  0.32060654965E+03  0.78583967179E+02 0.  0.
         11    1    3    3    0    0 -0.69363628952E+00 -0.10378361004E+03  0.54583020021E+02  0.11726391141E+03  0.00000000000E+00 0. -1.
        -11    1    3    3    0    0  0.20013688114E+03 -0.59454473587E+03  0.39130940561E+03  0.73936544757E+03  0.00000000000E+00 0.  1.
          4    1    6    6  502    0 -0.27022741606E+02 -0.82098474765E+02 -0.15716596348E+03  0.17936423333E+03  0.00000000000E+00 0. -1.
          3    1    5    5  503    0 -0.13939777918E+02  0.17375559686E+03  0.15154368194E+02  0.17497136830E+03  0.00000000000E+00 0. -1.
         -4    1    5    5    0  503 -0.20550985175E+03  0.65730147853E+03  0.12822365671E+02  0.68879891544E+03  0.00000000000E+00 0.  1.
         -3    1    6    6    0  502  0.47029126414E+02 -0.50630254727E+02 -0.12318372658E+03  0.14124231632E+03  0.00000000000E+00 0.  1.
<mgrwt>
<rscale>  0 0.20318111E+04</rscale>
<asrwt>0</asrwt>
<pdfrwt beam="1">  1        1 0.14211436E+00 0.20318111E+04</pdfrwt>
<pdfrwt beam="2">  1       -1 0.17188659E+00 0.20318111E+04</pdfrwt>
<totfact> 0.38371137E+00</totfact>
</mgrwt>
</event>
<event>
12    1  0.1201209E-007  0.1752337E+04  0.7818608E-02  0.8732065E-01
         -2   -1    0    0    0  501 -0.00000000000E+00  0.00000000000E+00  0.55981325280E+03  0.55981325280E+03  0.00000000000E+00 0.  1.
          2   -1    0    0  501    0  0.00000000000E+00 -0.00000000000E+00 -0.13712988945E+04  0.13712988945E+04  0.00000000000E+00 0. -1.
         23    2    1    2    0    0  0.38537735486E+03  0.50017508769E+03 -0.42929646413E+03  0.76886290927E+03  0.90354275768E+02 0.  0.
        254    2    1    2    0    0 -0.38537735486E+03 -0.50017508769E+03 -0.38218917761E+03  0.11622492381E+04  0.89781061473E+03 0.  0.
        -24    2    4    4    0    0 -0.48188898369E+03 -0.63998904208E+03 -0.49298516191E+03  0.94433463186E+03  0.83249987954E+02 0.  0.
         24    2    4    4    0    0  0.96511628823E+02  0.13981395438E+03  0.11079598430E+03  0.21791460621E+03  0.79678034131E+02 0.  0.
         11    1    3    3    0    0  0.15274392231E+02  0.96114645805E+01  0.19154754683E+01  0.18148177751E+02  0.00000000000E+00 0. -1.
        -11    1    3    3    0    0  0.37010296263E+03  0.49056362311E+03 -0.43121193960E+03  0.75071473152E+03  0.00000000000E+00 0.  1.
          4    1    6    6  502    0  0.89029074423E+02  0.91965816474E+02  0.11108984632E+03  0.16948404482E+03  0.00000000000E+00 0. -1.
          3    1    5    5  503    0 -0.18657067447E+03 -0.22348765637E+03 -0.22336248469E+03  0.36694161482E+03  0.00000000000E+00 0. -1.
         -4    1    5    5    0  503 -0.29531830922E+03 -0.41650138571E+03 -0.26962267722E+03  0.57739301704E+03  0.00000000000E+00 0.  1.
         -3    1    6    6    0  502  0.74825543995E+01  0.47848137909E+02 -0.29386201734E+00  0.48430561390E+02  0.00000000000E+00 0.  1.
<mgrwt>
<rscale>  0 0.17523371E+04</rscale>
<asrwt>0</asrwt>
<pdfrwt beam="1">  1        2 0.21096906E+00 0.17523371E+04</pdfrwt>
<pdfrwt beam="2">  1       -2 0.86125117E-01 0.17523371E+04</pdfrwt>
<totfact> 0.16655959E+01</totfact>
</mgrwt>
</event>
<event>
12    1  0.1201209E-007  0.1442008E+04  0.7818608E-02  0.8923960E-01
         -2   -1    0    0    0  501 -0.00000000000E+00  0.00000000000E+00  0.69370083071E+03  0.69370083071E+03  0.00000000000E+00 0.  1.
          2   -1    0    0  501    0  0.00000000000E+00 -0.00000000000E+00 -0.74938215165E+03  0.74938215165E+03  0.00000000000E+00 0. -1.
         23    2    1    2    0    0 -0.40317783820E+03  0.15419736760E+03 -0.62978490596E+02  0.44606318317E+03  0.93149748845E+02 0.  0.
        254    2    1    2    0    0  0.40317783820E+03 -0.15419736760E+03  0.72971696629E+01  0.99701979919E+03  0.89870241676E+03 0.  0.
        -24    2    4    4    0    0  0.10465154961E+02 -0.18820704735E+03 -0.38387059184E+03  0.43556826065E+03  0.82653894430E+02 0.  0.
         24    2    4    4    0    0  0.39271268324E+03  0.34009679747E+02  0.39116776150E+03  0.56145153854E+03  0.82678307881E+02 0.  0.
         11    1    3    3    0    0 -0.17091109878E+03  0.66265795010E+02 -0.73480459765E+02  0.19748705589E+03  0.00000000000E+00 0. -1.
        -11    1    3    3    0    0 -0.23226673942E+03  0.87931572594E+02  0.10501969170E+02  0.24857612729E+03  0.00000000000E+00 0.  1.
          2    1    6    6  502    0  0.43882299392E+02 -0.21472437392E+02  0.58800707547E+02  0.76447661675E+02  0.00000000000E+00 0. -1.
          3    1    5    5  503    0 -0.11490972506E+02 -0.48286092137E+01 -0.38494895269E+01  0.13045170972E+02  0.00000000000E+00 0. -1.
         -4    1    5    5    0  503  0.21956127467E+02 -0.18337843814E+03 -0.38002110231E+03  0.42252308968E+03  0.00000000000E+00 0.  1.
         -1    1    6    6    0  502  0.34883038385E+03  0.55482117139E+02  0.33236705395E+03  0.48500387686E+03  0.00000000000E+00 0.  1.
<mgrwt>
<rscale>  0 0.14420084E+04</rscale>
<asrwt>0</asrwt>
<pdfrwt beam="1">  1        2 0.11528956E+00 0.14420084E+04</pdfrwt>
<pdfrwt beam="2">  1       -2 0.10672320E+00 0.14420084E+04</pdfrwt>
<totfact> 0.25751502E+01</totfact>
</mgrwt>
</event>
<event>
12    1  0.1201209E-007  0.2800872E+04  0.7818608E-02  0.8302998E-01
          1   -1    0    0  501    0  0.00000000000E+00  0.00000000000E+00  0.11913005631E+04  0.11913005631E+04  0.00000000000E+00 0. -1.
         -1   -1    0    0    0  501 -0.00000000000E+00 -0.00000000000E+00 -0.16462852209E+04  0.16462852209E+04  0.00000000000E+00 0.  1.
         23    2    1    2    0    0 -0.47331238057E+03 -0.37643899371E+03  0.90891978897E+03  0.10951860563E+04  0.86984996709E+02 0.  0.
        254    2    1    2    0    0  0.47331238057E+03  0.37643899371E+03 -0.13639044468E+04  0.17423997276E+04  0.89999474726E+03 0.  0.
        -24    2    4    4    0    0  0.24667824784E+03  0.48146182843E+02 -0.13039530483E+04  0.13310135059E+04  0.90195275825E+02 0.  0.
         24    2    4    4    0    0  0.22663413273E+03  0.32829281087E+03 -0.59951398457E+02  0.41138622166E+03  0.80655151184E+02 0.  0.
         11    1    3    3    0    0 -0.60970297019E+02 -0.23803973272E+02  0.13493886785E+03  0.14997501231E+03  0.00000000000E+00 0.  1.
        -11    1    3    3    0    0 -0.41234208355E+03 -0.35263502044E+03  0.77398092112E+03  0.94521104404E+03  0.00000000000E+00 0. -1.
          4    1    6    6  502    0  0.20297540120E+03  0.27770876889E+03 -0.77976267564E+02  0.35270592866E+03  0.00000000000E+00 0. -1.
          3    1    5    5  503    0  0.24957509236E+03  0.42340299871E+02 -0.12971215923E+04  0.13215917876E+04  0.00000000000E+00 0. -1.
         -4    1    5    5    0  503 -0.28968445119E+01  0.58058829723E+01 -0.68314560159E+01  0.94217183418E+01  0.00000000000E+00 0.  1.
         -3    1    6    6    0  502  0.23658731528E+02  0.50584041976E+02  0.18024869107E+02  0.58680292999E+02  0.00000000000E+00 0.  1.
<mgrwt>
<rscale>  0 0.28008717E+04</rscale>
<asrwt>0</asrwt>
<pdfrwt beam="1">  1        1 0.18327701E+00 0.28008717E+04</pdfrwt>
<pdfrwt beam="2">  1       -1 0.25327465E+00 0.28008717E+04</pdfrwt>
<totfact> 0.62298018E-01</totfact>
</mgrwt>
</event>
<event>
12    1  0.1201209E-007  0.1865421E+04  0.7818608E-02  0.8672263E-01
          2   -1    0    0  501    0  0.00000000000E+00  0.00000000000E+00  0.88131783687E+03  0.88131783687E+03  0.00000000000E+00 0. -1.
         -2   -1    0    0    0  501 -0.00000000000E+00 -0.00000000000E+00 -0.98709985720E+03  0.98709985720E+03  0.00000000000E+00 0.  1.
         23    2    1    2    0    0  0.29494880341E+03 -0.37586051264E+03  0.49567729188E+03  0.69448590748E+03  0.91371638967E+02 0.  0.
        254    2    1    2    0    0 -0.29494880341E+03  0.37586051264E+03 -0.60145931222E+03  0.11739317866E+04  0.88774805758E+03 0.  0.
        -24    2    4    4    0    0 -0.51082369703E+03  0.43335126665E+03 -0.19288711508E+03  0.70162827161E+03  0.79640583930E+02 0.  0.
         24    2    4    4    0    0  0.21587489362E+03 -0.57490754012E+02 -0.40857219713E+03  0.47230351498E+03  0.78944369664E+02 0.  0.
         13    1    3    3    0    0  0.14471380409E+03 -0.22030764625E+03  0.21494360384E+03  0.34011512304E+03  0.00000000000E+00 0. -1.
        -13    1    3    3    0    0  0.15023499932E+03 -0.15555286639E+03  0.28073368804E+03  0.35437078444E+03  0.00000000000E+00 0.  1.
          2    1    6    6  502    0  0.21854313391E+03 -0.44461554388E+02 -0.39256517927E+03  0.45149236004E+03  0.00000000000E+00 0. -1.
          1    1    5    5  503    0 -0.39403133757E+03  0.37487400863E+03 -0.16058458791E+03  0.56707903083E+03  0.00000000000E+00 0. -1.
         -2    1    5    5    0  503 -0.11679235946E+03  0.58477258022E+02 -0.32302527174E+02  0.13454924079E+03  0.00000000000E+00 0.  1.
         -1    1    6    6    0  502 -0.26682402949E+01 -0.13029199624E+02 -0.16007017862E+02  0.20811154940E+02  0.00000000000E+00 0.  1.
<mgrwt>
<rscale>  0 0.18654208E+04</rscale>
<asrwt>0</asrwt>
<pdfrwt beam="1">  1        2 0.13558736E+00 0.18654208E+04</pdfrwt>
<pdfrwt beam="2">  1       -2 0.15186152E+00 0.18654208E+04</pdfrwt>
<totfact> 0.82198075E+00</totfact>
</mgrwt>
</event>
<event>
12    1  0.1201209E-007  0.1089507E+04  0.7818608E-02  0.9215479E-01
          2   -1    0    0  501    0  0.00000000000E+00  0.00000000000E+00  0.46217872068E+03  0.46217872068E+03  0.00000000000E+00 0. -1.
         -2   -1    0    0    0  501 -0.00000000000E+00 -0.00000000000E+00 -0.64208189677E+03  0.64208189677E+03  0.00000000000E+00 0.  1.
         23    2    1    2    0    0 -0.11952485344E+03 -0.41443601364E+02 -0.15929023982E+03  0.22758220779E+03  0.10206134487E+03 0.  0.
        254    2    1    2    0    0  0.11952485344E+03  0.41443601364E+02 -0.20612936267E+02  0.87667840965E+03  0.86725796515E+03 0.  0.
        -24    2    4    4    0    0  0.26913352482E+02 -0.24691657376E+03 -0.34053708422E+03  0.42888693169E+03  0.79286641368E+02 0.  0.
         24    2    4    4    0    0  0.92611500958E+02  0.28836017513E+03  0.31992414796E+03  0.44779147796E+03  0.80232578035E+02 0.  0.
         13    1    3    3    0    0 -0.35021475812E+02  0.18214789165E+02 -0.10191958446E+03  0.10929722782E+03  0.00000000000E+00 0.  1.
        -13    1    3    3    0    0 -0.84503377628E+02 -0.59658390529E+02 -0.57370655367E+02  0.11828497998E+03  0.00000000000E+00 0. -1.
          4    1    6    6  502    0  0.61462882200E+02  0.76387799589E+02  0.84058499840E+02  0.12914570535E+03  0.00000000000E+00 0. -1.
          1    1    5    5  503    0 -0.24059134598E+02 -0.11703811398E+03 -0.13276023260E+03  0.17861142585E+03  0.00000000000E+00 0. -1.
         -4    1    5    5    0  503  0.50972487080E+02 -0.12987845978E+03 -0.20777685162E+03  0.25027550584E+03  0.00000000000E+00 0.  1.
         -3    1    6    6    0  502  0.31148618759E+02  0.21197237554E+03  0.23586564812E+03  0.31864577261E+03  0.00000000000E+00 0.  1.
<mgrwt>
<rscale>  0 0.10895074E+04</rscale>
<asrwt>0</asrwt>
<pdfrwt beam="1">  1        2 0.71104419E-01 0.10895074E+04</pdfrwt>
<pdfrwt beam="2">  1       -2 0.98781830E-01 0.10895074E+04</pdfrwt>
<totfact> 0.56993924E+01</totfact>
</mgrwt>
</event>
<event>
12    1  0.1201209E-007  0.1971303E+04  0.7818608E-02  0.8620156E-01
          2   -1    0    0  501    0  0.00000000000E+00  0.00000000000E+00  0.16200792001E+04  0.16200792001E+04  0.00000000000E+00 0. -1.
         -2   -1    0    0    0  501 -0.00000000000E+00 -0.00000000000E+00 -0.59966766178E+03  0.59966766178E+03  0.00000000000E+00 0.  1.
         23    2    1    2    0    0  0.69091065276E+03 -0.71365084737E+02  0.79855857765E+03  0.10625679685E+04  0.94363023732E+02 0.  0.
        254    2    1    2    0    0 -0.69091065276E+03  0.71365084737E+02  0.22185296064E+03  0.11571788934E+04  0.89855091661E+03 0.  0.
        -24    2    4    4    0    0  0.87254328315E+02 -0.25541747215E+03  0.11109075296E+03  0.30220055031E+03  0.78311010246E+02 0.  0.
         24    2    4    4    0    0 -0.77816498107E+03  0.32678255689E+03  0.11076220768E+03  0.85497834307E+03  0.79950754966E+02 0.  0.
         13    1    3    3    0    0  0.64372519317E+03 -0.46208170425E+02  0.71334109931E+03  0.96196301556E+03  0.00000000000E+00 0. -1.
        -13    1    3    3    0    0  0.47185459588E+02 -0.25156914313E+02  0.85217478335E+02  0.10060495290E+03  0.00000000000E+00 0.  1.
          4    1    6    6  502    0 -0.23583217487E+03  0.89866336242E+02 -0.26433276403E+01  0.25238811437E+03  0.00000000000E+00 0. -1.
          3    1    5    5  503    0  0.61385082003E+02 -0.72312795899E+02  0.24264693130E+02  0.97908345283E+02  0.00000000000E+00 0. -1.
         -4    1    5    5    0  503  0.25869246312E+02 -0.18310467625E+03  0.86826059833E+02  0.20429220503E+03  0.00000000000E+00 0.  1.
         -3    1    6    6    0  502 -0.54233280620E+03  0.23691622065E+03  0.11340553532E+03  0.60259022870E+03  0.00000000000E+00 0.  1.
<mgrwt>
<rscale>  0 0.19713032E+04</rscale>
<asrwt>0</asrwt>
<pdfrwt beam="1">  1        2 0.24924295E+00 0.19713032E+04</pdfrwt>
<pdfrwt beam="2">  1       -2 0.92256564E-01 0.19713032E+04</pdfrwt>
<totfact> 0.10098627E+01</totfact>
</mgrwt>
</event>
<event>
12    1  0.1201209E-007  0.1910906E+04  0.7818608E-02  0.8649447E-01
         -1   -1    0    0    0  501 -0.00000000000E+00  0.00000000000E+00  0.15582240780E+04  0.15582240780E+04  0.00000000000E+00 0.  1.
          1   -1    0    0  501    0  0.00000000000E+00 -0.00000000000E+00 -0.58585337862E+03  0.58585337862E+03  0.00000000000E+00 0. -1.
         23    2    1    2    0    0 -0.40585396838E+02  0.23389317557E+03 -0.40851538582E+03  0.48148961872E+03  0.92705126453E+02 0.  0.
        254    2    1    2    0    0  0.40585396838E+02 -0.23389317557E+03  0.13808860852E+04  0.16625878379E+04  0.89498533304E+03 0.  0.
        -24    2    4    4    0    0 -0.18121598810E+03 -0.18331478188E+03  0.94810756961E+01  0.27009492999E+03  0.80111402479E+02 0.  0.
         24    2    4    4    0    0  0.22180138494E+03 -0.50578393684E+02  0.13714050095E+04  0.13924929079E+04  0.80813180846E+02 0.  0.
         11    1    3    3    0    0 -0.15237750582E+01  0.19036991608E+03 -0.35188563668E+03  0.40008315153E+03  0.00000000000E+00 0. -1.
        -11    1    3    3    0    0 -0.39061621780E+02  0.43523259485E+02 -0.56629749144E+02  0.81406467190E+02  0.00000000000E+00 0.  1.
          2    1    6    6  502    0  0.14347134733E+03 -0.71034378381E+02  0.87362433637E+03  0.88817193803E+03  0.00000000000E+00 0. -1.
          3    1    5    5  503    0 -0.37699272214E+02 -0.24258316755E+02 -0.27644994758E+02  0.52668271211E+02  0.00000000000E+00 0. -1.
         -4    1    5    5    0  503 -0.14351671589E+03 -0.15905646513E+03  0.37126070454E+02  0.21742665877E+03  0.00000000000E+00 0.  1.
         -3    1    6    6    0  502  0.78330037613E+02  0.20455984697E+02  0.49778067311E+03  0.50432096984E+03  0.00000000000E+00 0.  1.
<mgrwt>
<rscale>  0 0.19109064E+04</rscale>
<asrwt>0</asrwt>
<pdfrwt beam="1">  1        1 0.90131290E-01 0.19109064E+04</pdfrwt>
<pdfrwt beam="2">  1       -1 0.23972678E+00 0.19109064E+04</pdfrwt>
<totfact> 0.26974131E+00</totfact>
</mgrwt>
</event>
<event>
12    1  0.1201209E-007  0.1220291E+04  0.7818608E-02  0.9095279E-01
         -2   -1    0    0    0  501 -0.00000000000E+00  0.00000000000E+00  0.17407429025E+03  0.17407429025E+03  0.00000000000E+00 0.  1.
          2   -1    0    0  501    0  0.00000000000E+00 -0.00000000000E+00 -0.21386145500E+04  0.21386145500E+04  0.00000000000E+00 0. -1.
         23    2    1    2    0    0  0.49844388048E+02 -0.29811781093E+02  0.38193470770E+02  0.11410185724E+03  0.90483630036E+02 0.  0.
        254    2    1    2    0    0 -0.49844388048E+02  0.29811781093E+02 -0.20027337305E+04  0.21985869830E+04  0.90524533758E+03 0.  0.
        -24    2    4    4    0    0 -0.27963491858E+03  0.80626011183E+02 -0.16455041554E+03  0.34367396463E+03  0.79616036947E+02 0.  0.
         24    2    4    4    0    0  0.22979053053E+03 -0.50814230090E+02 -0.18381833150E+04  0.18549130184E+04  0.79991452159E+02 0.  0.
         13    1    3    3    0    0  0.49170049578E+02 -0.50218090529E+02  0.53711904891E+02  0.88456311922E+02  0.00000000000E+00 0.  1.
        -13    1    3    3    0    0  0.67433847041E+00  0.20406309435E+02 -0.15518434121E+02  0.25645545319E+02  0.00000000000E+00 0. -1.
          2    1    6    6  502    0  0.13963109436E+03  0.66625858153E+01 -0.11517542053E+04  0.11602064394E+04  0.00000000000E+00 0. -1.
          1    1    5    5  503    0 -0.24328532275E+03  0.49382364726E+02 -0.11137997728E+03  0.27208797392E+03  0.00000000000E+00 0. -1.
         -2    1    5    5    0  503 -0.36349595828E+02  0.31243646457E+02 -0.53170438261E+02  0.71585990708E+02  0.00000000000E+00 0.  1.
         -1    1    6    6    0  502  0.90159436173E+02 -0.57476815905E+02 -0.68642910968E+03  0.69470657901E+03  0.00000000000E+00 0.  1.
<mgrwt>
<rscale>  0 0.12202915E+04</rscale>
<asrwt>0</asrwt>
<pdfrwt beam="1">  1        2 0.32901763E+00 0.12202915E+04</pdfrwt>
<pdfrwt beam="2">  1       -2 0.26780659E-01 0.12202915E+04</pdfrwt>
<totfact> 0.69864741E+01</totfact>
</mgrwt>
</event>
<event>
12    1  0.1201209E-007  0.3122848E+04  0.7818608E-02  0.8209495E-01
         -2   -1    0    0    0  501 -0.00000000000E+00  0.00000000000E+00  0.16552267123E+04  0.16552267123E+04  0.00000000000E+00 0.  1.
          2   -1    0    0  501    0  0.00000000000E+00 -0.00000000000E+00 -0.14729369877E+04  0.14729369877E+04  0.00000000000E+00 0. -1.
         23    2    1    2    0    0  0.11354071162E+04  0.56418035148E+03 -0.57767391394E+03  0.13972597355E+04  0.10572998119E+03 0.  0.
        254    2    1    2    0    0 -0.11354071162E+04 -0.56418035148E+03  0.75996363858E+03  0.17309039646E+04  0.90057482422E+03 0.  0.
        -24    2    4    4    0    0 -0.10206820432E+04 -0.50926986575E+03  0.21189236318E+03  0.11630548377E+04  0.81550919486E+02 0.  0.
         24    2    4    4    0    0 -0.11472507298E+03 -0.54910485735E+02  0.54807127539E+03  0.56784912682E+03  0.76769161162E+02 0.  0.
         13    1    3    3    0    0  0.11108716955E+04  0.53176252856E+03 -0.55824706390E+03  0.13522008339E+04  0.00000000000E+00 0. -1.
        -13    1    3    3    0    0  0.24535420681E+02  0.32417822921E+02 -0.19426850039E+02  0.45058901600E+02  0.00000000000E+00 0.  1.
          2    1    6    6  502    0 -0.10466574305E+03 -0.59850402346E+02  0.54170428540E+03  0.55495992761E+03  0.00000000000E+00 0. -1.
          1    1    5    5  503    0 -0.90478509804E+03 -0.45344491076E+03  0.21385179544E+03  0.10343988356E+04  0.00000000000E+00 0. -1.
         -2    1    5    5    0  503 -0.11589694519E+03 -0.55824954986E+02 -0.19594322568E+01  0.12865600211E+03  0.00000000000E+00 0.  1.
         -1    1    6    6    0  502 -0.10059329933E+02  0.49399166103E+01  0.63669899953E+01  0.12889199216E+02  0.00000000000E+00 0.  1.
<mgrwt>
<rscale>  0 0.31228478E+04</rscale>
<asrwt>0</asrwt>
<pdfrwt beam="1">  1        2 0.22660569E+00 0.31228478E+04</pdfrwt>
<pdfrwt beam="2">  1       -2 0.25465026E+00 0.31228478E+04</pdfrwt>
<totfact> 0.67048704E-01</totfact>
</mgrwt>
</event>
<event>
12    1  0.1201209E-007  0.1575600E+04  0.7818608E-02  0.8835680E-01
         -1   -1    0    0    0  501 -0.00000000000E+00  0.00000000000E+00  0.56374157500E+03  0.56374157500E+03  0.00000000000E+00 0.  1.
          1   -1    0    0  501    0  0.00000000000E+00 -0.00000000000E+00 -0.11009103211E+04  0.11009103211E+04  0.00000000000E+00 0. -1.
         23    2    1    2    0    0 -0.35230088245E+03 -0.19084527370E+03 -0.54751441950E+03  0.68412285156E+03  0.87830553839E+02 0.  0.
        254    2    1    2    0    0  0.35230088245E+03  0.19084527370E+03  0.10345673375E+02  0.98052904457E+03  0.89487001515E+03 0.  0.
        -24    2    4    4    0    0 -0.15202772336E+03 -0.23317734199E+03  0.10847651260E+03  0.30951261171E+03  0.80912307682E+02 0.  0.
         24    2    4    4    0    0  0.50432860581E+03  0.42402261568E+03 -0.98130839222E+02  0.67101643286E+03  0.80565937621E+02 0.  0.
         13    1    3    3    0    0 -0.27873996288E+03 -0.11304111424E+03 -0.43435203157E+03  0.52833317873E+03  0.00000000000E+00 0. -1.
        -13    1    3    3    0    0 -0.73560919571E+02 -0.77804159457E+02 -0.11316238793E+03  0.15578967282E+03  0.00000000000E+00 0.  1.
          4    1    6    6  502    0  0.35431678587E+03  0.25513295821E+03 -0.44751580023E+02  0.43890308159E+03  0.00000000000E+00 0. -1.
          3    1    5    5  503    0 -0.63878440834E+02 -0.58419049898E+02  0.17641298008E+01  0.86581480401E+02  0.00000000000E+00 0. -1.
         -4    1    5    5    0  503 -0.88149282527E+02 -0.17475829209E+03  0.10671238280E+03  0.22293113131E+03  0.00000000000E+00 0.  1.
         -3    1    6    6    0  502  0.15001181995E+03  0.16888965747E+03 -0.53379259199E+02  0.23211335127E+03  0.00000000000E+00 0.  1.
<mgrwt>
<rscale>  0 0.15756001E+04</rscale>
<asrwt>0</asrwt>
<pdfrwt beam="1">  1        1 0.16937082E+00 0.15756001E+04</pdfrwt>
<pdfrwt beam="2">  1       -1 0.86729474E-01 0.15756001E+04</pdfrwt>
<totfact> 0.15950086E+01</totfact>
</mgrwt>
</event>
<event>
12    1  0.1201209E-007  0.1287747E+04  0.7818608E-02  0.9039338E-01
          2   -1    0    0  501    0  0.00000000000E+00  0.00000000000E+00  0.11011807755E+04  0.11011807755E+04  0.00000000000E+00 0. -1.
         -2   -1    0    0    0  501 -0.00000000000E+00 -0.00000000000E+00 -0.37648070805E+03  0.37648070805E+03  0.00000000000E+00 0.  1.
         23    2    1    2    0    0 -0.20530375535E+03  0.22038397347E+03  0.48854266359E+02  0.31819071195E+03  0.90221184355E+02 0.  0.
        254    2    1    2    0    0  0.20530375535E+03 -0.22038397347E+03  0.67584580106E+03  0.11594707716E+04  0.89268482432E+03 0.  0.
        -24    2    4    4    0    0 -0.22183678089E+03  0.21449700307E+03  0.30741276466E+03  0.44276224771E+03  0.79468726182E+02 0.  0.
         24    2    4    4    0    0  0.42714053625E+03 -0.43488097654E+03  0.36843303640E+03  0.71670852385E+03  0.79735214226E+02 0.  0.
         13    1    3    3    0    0 -0.26680912285E+02  0.25945350959E+02 -0.24011056463E+02  0.44289537695E+02  0.00000000000E+00 0. -1.
        -13    1    3    3    0    0 -0.17862284307E+03  0.19443862251E+03  0.72865322821E+02  0.27390117426E+03  0.00000000000E+00 0.  1.
          4    1    6    6  502    0  0.28193590023E+03 -0.33455840252E+03  0.27841604948E+03  0.51858718953E+03  0.00000000000E+00 0. -1.
          1    1    5    5  503    0 -0.12164399688E+03  0.15982081771E+03  0.16286491159E+03  0.25858255002E+03  0.00000000000E+00 0. -1.
         -2    1    5    5    0  503 -0.10019278401E+03  0.54676185365E+02  0.14454785307E+03  0.18417969769E+03  0.00000000000E+00 0.  1.
         -3    1    6    6    0  502  0.14520463602E+03 -0.10032257402E+03  0.90016986918E+02  0.19812133432E+03  0.00000000000E+00 0.  1.
<mgrwt>
<rscale>  0 0.12877474E+04</rscale>
<asrwt>0</asrwt>
<pdfrwt beam="1">  1        2 0.16941243E+00 0.12877474E+04</pdfrwt>
<pdfrwt beam="2">  1       -2 0.57920109E-01 0.12877474E+04</pdfrwt>
<totfact> 0.59529717E+01</totfact>
</mgrwt>
</event>
<event>
12    1  0.1201209E-007  0.1666123E+04  0.7818608E-02  0.8780925E-01
          1   -1    0    0  501    0  0.00000000000E+00  0.00000000000E+00  0.79776448297E+03  0.79776448297E+03  0.00000000000E+00 0. -1.
         -1   -1    0    0    0  501 -0.00000000000E+00 -0.00000000000E+00 -0.86992043216E+03  0.86992043216E+03  0.00000000000E+00 0.  1.
         23    2    1    2    0    0  0.53475168975E+03 -0.12794546899E+03 -0.26465782190E+03  0.61723385232E+03  0.92760190947E+02 0.  0.
        254    2    1    2    0    0 -0.53475168975E+03  0.12794546899E+03  0.19250187271E+03  0.10504510628E+04  0.87410585837E+03 0.  0.
        -24    2    4    4    0    0  0.36208675889E+02  0.23123963043E+03 -0.22248247973E+03  0.33258809689E+03  0.79583625921E+02 0.  0.
         24    2    4    4    0    0 -0.57096036564E+03 -0.10329416144E+03  0.41498435244E+03  0.71786296592E+03  0.80310660215E+02 0.  0.
         11    1    3    3    0    0  0.51247682188E+03 -0.11171432413E+03 -0.26877594977E+03  0.58936668921E+03  0.00000000000E+00 0.  1.
        -11    1    3    3    0    0  0.22274867875E+02 -0.16231144862E+02  0.41181278698E+01  0.27867163106E+02  0.00000000000E+00 0. -1.
          2    1    6    6  502    0 -0.28611713255E+02 -0.26925746678E+01  0.45959850817E+02  0.54205054938E+02  0.00000000000E+00 0. -1.
          3    1    5    5  503    0 -0.18280724281E+01  0.79869695635E+02 -0.31337777591E+02  0.85817052116E+02  0.00000000000E+00 0. -1.
         -4    1    5    5    0  503  0.38036748317E+02  0.15136993480E+03 -0.19114470214E+03  0.24677104478E+03  0.00000000000E+00 0.  1.
         -1    1    6    6    0  502 -0.54234865239E+03 -0.10060158678E+03  0.36902450162E+03  0.66365791098E+03  0.00000000000E+00 0.  1.
<mgrwt>
<rscale>  0 0.16661232E+04</rscale>
<asrwt>0</asrwt>
<pdfrwt beam="1">  1        1 0.12273300E+00 0.16661232E+04</pdfrwt>
<pdfrwt beam="2">  1       -1 0.13383391E+00 0.16661232E+04</pdfrwt>
<totfact> 0.99843007E+00</totfact>
</mgrwt>
</event>
<event>
12    1  0.1201209E-007  0.2418271E+04  0.7818608E-02  0.8432695E-01
         -1   -1    0    0    0  501 -0.00000000000E+00  0.00000000000E+00  0.23227323624E+04  0.23227323624E+04  0.00000000000E+00 0.  1.
          1   -1    0    0  501    0  0.00000000000E+00 -0.00000000000E+00 -0.62943494365E+03  0.62943494365E+03  0.00000000000E+00 0. -1.
         23    2    1    2    0    0 -0.41442840312E+03 -0.92723587440E+03  0.86282187515E+03  0.13347121264E+04  0.74010837063E+02 0.  0.
        254    2    1    2    0    0  0.41442840312E+03  0.92723587440E+03  0.83047554360E+03  0.16174551797E+04  0.94602027545E+03 0.  0.
        -24    2    4    4    0    0 -0.11495935883E+03  0.41437623267E+03 -0.78409957848E+02  0.44454540476E+03  0.80926998077E+02 0.  0.
         24    2    4    4    0    0  0.52938776195E+03  0.51285964173E+03  0.90888550145E+03  0.11729097749E+04  0.79800192139E+02 0.  0.
         11    1    3    3    0    0 -0.14521611361E+01 -0.21195076586E+01  0.10355941787E+02  0.10669892923E+02  0.00000000000E+00 0. -1.
        -11    1    3    3    0    0 -0.41297624199E+03 -0.92511636674E+03  0.85246593336E+03  0.13240422335E+04  0.00000000000E+00 0.  1.
          4    1    6    6  502    0  0.52226348147E+03  0.51517831472E+03  0.89604520655E+03  0.11580435450E+04  0.00000000000E+00 0. -1.
          3    1    5    5  503    0 -0.10977375864E+03  0.28073840620E+03 -0.75621398527E+02  0.31077793795E+03  0.00000000000E+00 0. -1.
         -4    1    5    5    0  503 -0.51856001907E+01  0.13363782648E+03 -0.27885593209E+01  0.13376746681E+03  0.00000000000E+00 0.  1.
         -3    1    6    6    0  502  0.71242804819E+01 -0.23186729858E+01  0.12840294893E+02  0.14866229843E+02  0.00000000000E+00 0.  1.
<mgrwt>
<rscale>  0 0.24182712E+04</rscale>
<asrwt>0</asrwt>
<pdfrwt beam="1">  1        1 0.96836146E-01 0.24182712E+04</pdfrwt>
<pdfrwt beam="2">  1       -1 0.35734344E+00 0.24182712E+04</pdfrwt>
<totfact> 0.39696831E-01</totfact>
</mgrwt>
</event>
<event>
12    1  0.1201209E-007  0.2721169E+04  0.7818608E-02  0.8328169E-01
         -2   -1    0    0    0  501 -0.00000000000E+00  0.00000000000E+00  0.87325321672E+03  0.87325321672E+03  0.00000000000E+00 0.  1.
          2   -1    0    0  501    0  0.00000000000E+00 -0.00000000000E+00 -0.21198783772E+04  0.21198783772E+04  0.00000000000E+00 0. -1.
         23    2    1    2    0    0  0.29349631600E+03  0.91486708478E+03  0.25194876692E+03  0.99737514213E+03  0.90316790616E+02 0.  0.
        254    2    1    2    0    0 -0.29349631600E+03 -0.91486708478E+03 -0.14985739274E+04  0.19957564518E+04  0.90232927951E+03 0.  0.
        -24    2    4    4    0    0  0.27994278048E+03 -0.57960546220E+03 -0.76934723672E+03  0.10063119728E+04  0.80362701763E+02 0.  0.
         24    2    4    4    0    0 -0.57343909648E+03 -0.33526162258E+03 -0.72922669071E+03  0.98944447899E+03  0.77434214812E+02 0.  0.
         11    1    3    3    0    0  0.28290427545E+03  0.89836132463E+03  0.25852511578E+03  0.97668988637E+03  0.00000000000E+00 0.  1.
        -11    1    3    3    0    0  0.10592040554E+02  0.16505760159E+02 -0.65763488675E+01  0.20685255762E+02  0.00000000000E+00 0. -1.
          2    1    6    6  502    0 -0.35681774185E+03 -0.24934014411E+03 -0.49130455543E+03  0.65640656193E+03  0.00000000000E+00 0. -1.
          3    1    5    5  503    0  0.12460130947E+03 -0.18340986953E+03 -0.23296904393E+03  0.32161971642E+03  0.00000000000E+00 0. -1.
         -4    1    5    5    0  503  0.15534147101E+03 -0.39619559268E+03 -0.53637819279E+03  0.68469225640E+03  0.00000000000E+00 0.  1.
         -1    1    6    6    0  502 -0.21662135463E+03 -0.85921478465E+02 -0.23792213528E+03  0.33303791706E+03  0.00000000000E+00 0.  1.
<mgrwt>
<rscale>  0 0.27211693E+04</rscale>
<asrwt>0</asrwt>
<pdfrwt beam="1">  1        2 0.32613513E+00 0.27211693E+04</pdfrwt>
<pdfrwt beam="2">  1       -2 0.13434665E+00 0.27211693E+04</pdfrwt>
<totfact> 0.20034878E+00</totfact>
</mgrwt>
</event>
<event>
12    1  0.1201209E-007  0.1536179E+04  0.7818608E-02  0.8860745E-01
          2   -1    0    0  501    0  0.00000000000E+00  0.00000000000E+00  0.33808036840E+03  0.33808036840E+03  0.00000000000E+00 0.  1.
         -2   -1    0    0    0  501 -0.00000000000E+00 -0.00000000000E+00 -0.17450325449E+04  0.17450325449E+04  0.00000000000E+00 0. -1.
         23    2    1    2    0    0 -0.38304707972E+03  0.19088039020E+03 -0.11824176365E+03  0.45372825843E+03  0.93422851476E+02 0.  0.
        254    2    1    2    0    0  0.38304707972E+03 -0.19088039020E+03 -0.12887104129E+04  0.16293846549E+04  0.90053286265E+03 0.  0.
        -24    2    4    4    0    0 -0.10850793922E+03  0.65611912985E+02  0.65853240586E+02  0.16353575187E+03  0.79551221517E+02 0.  0.
         24    2    4    4    0    0  0.49155501894E+03 -0.25649230319E+03 -0.13545636535E+04  0.14658489030E+04  0.80347227679E+02 0.  0.
         13    1    3    3    0    0 -0.44332113255E+02 -0.33721428063E+01  0.38370438637E+01  0.44625446982E+02  0.00000000000E+00 0. -1.
        -13    1    3    3    0    0 -0.33871496647E+03  0.19425253301E+03 -0.12207880751E+03  0.40910281145E+03  0.00000000000E+00 0.  1.
          4    1    6    6  502    0  0.59272865231E+02 -0.91548823758E+01 -0.10911901380E+03  0.12451523439E+03  0.00000000000E+00 0. -1.
          1    1    5    5  503    0 -0.20476123132E+02 -0.18552634996E+02  0.84515094024E+01  0.28894634364E+02  0.00000000000E+00 0. -1.
         -2    1    5    5    0  503 -0.88031816083E+02  0.84164547981E+02  0.57401731183E+02  0.13464111750E+03  0.00000000000E+00 0.  1.
         -3    1    6    6    0  502  0.43228215371E+03 -0.24733742081E+03 -0.12454446397E+04  0.13413336686E+04  0.00000000000E+00 0.  1.
<mgrwt>
<rscale>  0 0.15361787E+04</rscale>
<asrwt>0</asrwt>
<pdfrwt beam="1">  1        2 0.52012364E-01 0.15361787E+04</pdfrwt>
<pdfrwt beam="2">  1       -2 0.26846655E+00 0.15361787E+04</pdfrwt>
<totfact> 0.45908934E+00</totfact>
</mgrwt>
</event>
<event>
12    1  0.1201209E-007  0.1366063E+04  0.7818608E-02  0.8978757E-01
          2   -1    0    0  501    0  0.00000000000E+00  0.00000000000E+00  0.50346957342E+03  0.50346957342E+03  0.00000000000E+00 0. -1.
         -2   -1    0    0    0  501 -0.00000000000E+00 -0.00000000000E+00 -0.92663378536E+03  0.92663378536E+03  0.00000000000E+00 0.  1.
         23    2    1    2    0    0 -0.24611476287E+03  0.29989500229E+02 -0.41713805148E+03  0.49374781743E+03  0.91164173908E+02 0.  0.
        254    2    1    2    0    0  0.24611476287E+03 -0.29989500229E+02 -0.60261604633E+01  0.93635554134E+03  0.90291391537E+03 0.  0.
        -24    2    4    4    0    0  0.42777451032E+03  0.13638750308E+03  0.29189437124E+03  0.54136858549E+03  0.79278236085E+02 0.  0.
         24    2    4    4    0    0 -0.18165974745E+03 -0.16637700331E+03 -0.29792053171E+03  0.39498695585E+03  0.81095505493E+02 0.  0.
         13    1    3    3    0    0 -0.22293679155E+03  0.25682314496E+02 -0.41268736783E+03  0.46975659428E+03  0.00000000000E+00 0. -1.
        -13    1    3    3    0    0 -0.23177971323E+02  0.43071857326E+01 -0.44506836497E+01  0.23991223156E+02  0.00000000000E+00 0.  1.
          4    1    6    6  502    0 -0.71592620653E+02 -0.10387206724E+03 -0.10441734337E+03  0.16376169052E+03  0.00000000000E+00 0. -1.
          3    1    5    5  503    0  0.13359041938E+03  0.43674598995E+02  0.13676182780E+03  0.19610626785E+03  0.00000000000E+00 0. -1.
         -4    1    5    5    0  503  0.29418409094E+03  0.92712904082E+02  0.15513254344E+03  0.34526231764E+03  0.00000000000E+00 0.  1.
         -3    1    6    6    0  502 -0.11006712679E+03 -0.62504936065E+02 -0.19350318834E+03  0.23122526534E+03  0.00000000000E+00 0.  1.
<mgrwt>
<rscale>  0 0.13660628E+04</rscale>
<asrwt>0</asrwt>
<pdfrwt beam="1">  1        2 0.77456858E-01 0.13660628E+04</pdfrwt>
<pdfrwt beam="2">  1       -2 0.14255904E+00 0.13660628E+04</pdfrwt>
<totfact> 0.20402144E+01</totfact>
</mgrwt>
</event>
<event>
12    1  0.1201209E-007  0.1437108E+04  0.7818608E-02  0.8927387E-01
          1   -1    0    0  501    0  0.00000000000E+00  0.00000000000E+00  0.21528389038E+04  0.21528389038E+04  0.00000000000E+00 0.  1.
         -1   -1    0    0    0  501 -0.00000000000E+00 -0.00000000000E+00 -0.23983217422E+03  0.23983217422E+03  0.00000000000E+00 0. -1.
         23    2    1    2    0    0 -0.15003932713E+03 -0.10916849813E+03  0.12823221360E+04  0.12989116007E+04  0.91606360854E+02 0.  0.
        254    2    1    2    0    0  0.15003932713E+03  0.10916849813E+03  0.63068459362E+03  0.10937594773E+04  0.87413796220E+03 0.  0.
        -24    2    4    4    0    0  0.17823941180E+03  0.22642494859E+03 -0.12549125647E+03  0.32426221351E+03  0.79752005609E+02 0.  0.
         24    2    4    4    0    0 -0.28200084664E+02 -0.11725645046E+03  0.75617585009E+03  0.76949726382E+03  0.76025014493E+02 0.  0.
         11    1    3    3    0    0 -0.21203100961E+02  0.56718924114E+01  0.35416546702E+03  0.35484492371E+03  0.00000000000E+00 0. -1.
        -11    1    3    3    0    0 -0.12883622617E+03 -0.11484039054E+03  0.92815666894E+03  0.94406667698E+03  0.00000000000E+00 0.  1.
          4    1    6    6  502    0  0.13689382505E+02 -0.76886841172E+02  0.54050878092E+03  0.54612153207E+03  0.00000000000E+00 0. -1.
          3    1    5    5  503    0  0.12221993655E+03  0.16404823971E+03 -0.12630020716E+03  0.24041896799E+03  0.00000000000E+00 0. -1.
         -4    1    5    5    0  503  0.56019475250E+02  0.62376708877E+02  0.80895068941E+00  0.83843245517E+02  0.00000000000E+00 0.  1.
         -3    1    6    6    0  502 -0.41889467169E+02 -0.40369609284E+02  0.21566706917E+03  0.22337573175E+03  0.00000000000E+00 0.  1.
<mgrwt>
<rscale>  0 0.14371083E+04</rscale>
<asrwt>0</asrwt>
<pdfrwt beam="1">  1        1 0.33120597E+00 0.14371083E+04</pdfrwt>
<pdfrwt beam="2">  1       -1 0.36897259E-01 0.14371083E+04</pdfrwt>
<totfact> 0.16114094E+01</totfact>
</mgrwt>
</event>
<event>
12    1  0.1201209E-007  0.2340049E+04  0.7818608E-02  0.8462296E-01
         -2   -1    0    0    0  501 -0.00000000000E+00  0.00000000000E+00  0.98467278793E+03  0.98467278793E+03  0.00000000000E+00 0. -1.
          2   -1    0    0  501    0  0.00000000000E+00 -0.00000000000E+00 -0.13902662378E+04  0.13902662378E+04  0.00000000000E+00 0.  1.
         23    2    1    2    0    0 -0.63668585245E+03 -0.25103187920E+02 -0.95033082509E+03  0.11479141481E+04  0.92623806327E+02 0.  0.
        254    2    1    2    0    0  0.63668585245E+03  0.25103187920E+02  0.54473737522E+03  0.12270248777E+04  0.89602019936E+03 0.  0.
        -24    2    4    4    0    0 -0.18301330595E+03 -0.16131202588E+03  0.10714370767E+03  0.27603768952E+03  0.72122063860E+02 0.  0.
         24    2    4    4    0    0  0.81969915839E+03  0.18641521380E+03  0.43759366755E+03  0.95098718814E+03  0.78937138978E+02 0.  0.
         11    1    3    3    0    0 -0.61806139461E+03 -0.18896730914E+02 -0.88444854811E+03  0.10791692213E+04  0.00000000000E+00 0.  1.
        -11    1    3    3    0    0 -0.18624457841E+02 -0.62064570063E+01 -0.65882276979E+02  0.68744926782E+02  0.00000000000E+00 0. -1.
          4    1    6    6  502    0  0.13144727947E+03  0.60078941555E+02  0.78817023800E+02  0.16462074517E+03  0.00000000000E+00 0. -1.
          1    1    5    5  503    0  0.40173748806E+01 -0.12108273064E+02 -0.22618803332E+01  0.12956298861E+02  0.00000000000E+00 0. -1.
         -2    1    5    5    0  503 -0.18703068083E+03 -0.14920375281E+03  0.10940558800E+03  0.26308139066E+03  0.00000000000E+00 0.  1.
         -3    1    6    6    0  502  0.68825187892E+03  0.12633627224E+03  0.35877664375E+03  0.78636644297E+03  0.00000000000E+00 0.  1.
<mgrwt>
<rscale>  0 0.23400490E+04</rscale>
<asrwt>0</asrwt>
<pdfrwt beam="1">  1        2 0.21388711E+00 0.23400490E+04</pdfrwt>
<pdfrwt beam="2">  1       -2 0.15148812E+00 0.23400490E+04</pdfrwt>
<totfact> 0.38664462E+00</totfact>
</mgrwt>
</event>
<event>
12    1  0.1201209E-007  0.1040415E+04  0.7818608E-02  0.9265297E-01
         -2   -1    0    0    0  501 -0.00000000000E+00  0.00000000000E+00  0.19012909522E+03  0.19012909522E+03  0.00000000000E+00 0. -1.
          2   -1    0    0  501    0  0.00000000000E+00 -0.00000000000E+00 -0.14233257575E+04  0.14233257575E+04  0.00000000000E+00 0.  1.
         23    2    1    2    0    0  0.22823409200E+02  0.91114970098E+02 -0.19624096336E+03  0.23631969193E+03  0.92269362794E+02 0.  0.
        254    2    1    2    0    0 -0.22823409200E+02 -0.91114970098E+02 -0.10369556989E+04  0.13771351608E+04  0.90133305929E+03 0.  0.
        -24    2    4    4    0    0  0.41254219135E+03 -0.16410414671E+03 -0.43768107857E+03  0.62866303460E+03  0.80816173622E+02 0.  0.
         24    2    4    4    0    0 -0.43536560055E+03  0.72989176617E+02 -0.59927462033E+03  0.74847212618E+03  0.78802455797E+02 0.  0.
         11    1    3    3    0    0  0.17389714964E+02 -0.14268547009E+02 -0.59405286451E+02  0.63521505638E+02  0.00000000000E+00 0. -1.
        -11    1    3    3    0    0  0.54336942360E+01  0.10538351711E+03 -0.13683567691E+03  0.17279818629E+03  0.00000000000E+00 0.  1.
          2    1    6    6  502    0 -0.36670387990E+03  0.43323355991E+02 -0.53378410939E+03  0.64905633357E+03  0.00000000000E+00 0. -1.
          1    1    5    5  503    0  0.19931549535E+03 -0.62545081865E+02 -0.15395224581E+03  0.25949922532E+03  0.00000000000E+00 0. -1.
         -2    1    5    5    0  503  0.21322669600E+03 -0.10155906485E+03 -0.28372883277E+03  0.36916380928E+03  0.00000000000E+00 0.  1.
         -1    1    6    6    0  502 -0.68661720650E+02  0.29665820625E+02 -0.65490510945E+02  0.99415792607E+02  0.00000000000E+00 0.  1.
<mgrwt>
<rscale>  0 0.10404146E+04</rscale>
<asrwt>0</asrwt>
<pdfrwt beam="1">  1        2 0.21897320E+00 0.10404146E+04</pdfrwt>
<pdfrwt beam="2">  1       -2 0.29250629E-01 0.10404146E+04</pdfrwt>
<totfact> 0.15012089E+02</totfact>
</mgrwt>
</event>
<event>
12    1  0.1201209E-007  0.1443378E+04  0.7818608E-02  0.8923004E-01
         -2   -1    0    0    0  501 -0.00000000000E+00  0.00000000000E+00  0.15613521782E+03  0.15613521782E+03  0.00000000000E+00 0.  1.
          2   -1    0    0  501    0  0.00000000000E+00 -0.00000000000E+00 -0.33357965387E+04  0.33357965387E+04  0.00000000000E+00 0. -1.
         23    2    1    2    0    0 -0.25199650973E+02  0.43148105809E+03 -0.89060794802E+03  0.99143018060E+03  0.54225086614E+02 0.  0.
        254    2    1    2    0    0  0.25199650973E+02 -0.43148105809E+03 -0.22890533728E+04  0.25005015759E+04  0.90880793433E+03 0.  0.
        -24    2    4    4    0    0 -0.49074115582E+02 -0.64604603931E+03 -0.10388612350E+04  0.12274458310E+04  0.87217249985E+02 0.  0.
         24    2    4    4    0    0  0.74273766554E+02  0.21456498122E+03 -0.12501921378E+04  0.12730557449E+04  0.78331504476E+02 0.  0.
         11    1    3    3    0    0 -0.15446590959E+02  0.27166724785E+03 -0.61852814814E+03  0.67573571814E+03  0.00000000000E+00 0.  1.
        -11    1    3    3    0    0 -0.97530600133E+01  0.15981381024E+03 -0.27207979988E+03  0.31569446246E+03  0.00000000000E+00 0. -1.
          4    1    6    6  502    0 -0.12663906495E+02  0.12876280631E+02 -0.15578729234E+03  0.15683065257E+03  0.00000000000E+00 0. -1.
          3    1    5    5  503    0 -0.16290979535E+02 -0.16617571261E+03 -0.34362450644E+03  0.38204393059E+03  0.00000000000E+00 0. -1.
         -4    1    5    5    0  503 -0.32783136047E+02 -0.47987032670E+03 -0.69523672858E+03  0.84540190041E+03  0.00000000000E+00 0.  1.
         -3    1    6    6    0  502  0.86937673049E+02  0.20168870059E+03 -0.10944048455E+04  0.11162250923E+04  0.00000000000E+00 0.  1.
<mgrwt>
<rscale>  0 0.14433784E+04</rscale>
<asrwt>0</asrwt>
<pdfrwt beam="1">  1        2 0.51319946E+00 0.14433784E+04</pdfrwt>
<pdfrwt beam="2">  1       -2 0.24020803E-01 0.14433784E+04</pdfrwt>
<totfact> 0.15978838E+01</totfact>
</mgrwt>
</event>
<event>
12    1  0.1201209E-007  0.1351697E+04  0.7818608E-02  0.8989544E-01
          1   -1    0    0  501    0  0.00000000000E+00  0.00000000000E+00  0.13864460787E+04  0.13864460787E+04  0.00000000000E+00 0. -1.
         -1   -1    0    0    0  501 -0.00000000000E+00 -0.00000000000E+00 -0.32945473631E+03  0.32945473631E+03  0.00000000000E+00 0.  1.
         23    2    1    2    0    0  0.14535136744E+03  0.15510610634E+03 -0.85091881042E+02  0.24657777261E+03  0.91515274609E+02 0.  0.
        254    2    1    2    0    0 -0.14535136744E+03 -0.15510610634E+03  0.11420832235E+04  0.14693230424E+04  0.89965059298E+03 0.  0.
        -24    2    4    4    0    0 -0.17287191520E+02 -0.42579161572E+03  0.19959914348E+03  0.47712800585E+03  0.78828731336E+02 0.  0.
         24    2    4    4    0    0 -0.12806417592E+03  0.27068550938E+03  0.94248407997E+03  0.99219503657E+03  0.80645343636E+02 0.  0.
         13    1    3    3    0    0  0.12406503184E+03  0.67474627961E+02 -0.53658273854E+02  0.15107669541E+03  0.00000000000E+00 0.  1.
        -13    1    3    3    0    0  0.21286335608E+02  0.87631478380E+02 -0.31433607189E+02  0.95501077206E+02  0.00000000000E+00 0. -1.
          4    1    6    6  502    0 -0.12707998689E+03  0.25293097128E+03  0.79990269241E+03  0.84850911404E+03  0.00000000000E+00 0. -1.
          1    1    5    5  503    0  0.64070449720E+01 -0.36695061864E+03  0.18900960000E+03  0.41281767844E+03  0.00000000000E+00 0. -1.
         -2    1    5    5    0  503 -0.23694236492E+02 -0.58840997078E+02  0.10589543484E+02  0.64310327407E+02  0.00000000000E+00 0.  1.
         -3    1    6    6    0  502 -0.98418903250E+00  0.17754538096E+02  0.14258138756E+03  0.14368592252E+03  0.00000000000E+00 0.  1.
<mgrwt>
<rscale>  0 0.13516970E+04</rscale>
<asrwt>0</asrwt>
<pdfrwt beam="1">  1        1 0.21329939E+00 0.13516970E+04</pdfrwt>
<pdfrwt beam="2">  1       -1 0.50685345E-01 0.13516970E+04</pdfrwt>
<totfact> 0.30055610E+01</totfact>
</mgrwt>
</event>
<event>
12    1  0.1201209E-007  0.1560475E+04  0.7818608E-02  0.8845205E-01
          1   -1    0    0  501    0  0.00000000000E+00  0.00000000000E+00  0.39893049909E+04  0.39893049909E+04  0.00000000000E+00 0. -1.
         -1   -1    0    0    0  501 -0.00000000000E+00 -0.00000000000E+00 -0.15260056601E+03  0.15260056601E+03  0.00000000000E+00 0.  1.
         23    2    1    2    0    0  0.46212281567E+03 -0.11444473457E+03  0.75172081862E+03  0.89436598091E+03  0.90284132825E+02 0.  0.
        254    2    1    2    0    0 -0.46212281567E+03  0.11444473457E+03  0.30849836063E+04  0.32475395760E+04  0.89595443672E+03 0.  0.
        -24    2    4    4    0    0  0.11381218845E+03 -0.27876951652E+03  0.85186878054E+03  0.90671523581E+03  0.76068666415E+02 0.  0.
         24    2    4    4    0    0 -0.57593500412E+03  0.39321425109E+03  0.22331148257E+04  0.23408243402E+04  0.79612753323E+02 0.  0.
         13    1    3    3    0    0  0.26138454361E+02  0.14496957340E+02  0.48672093052E+02  0.57117013320E+02  0.00000000000E+00 0. -1.
        -13    1    3    3    0    0  0.43598436131E+03 -0.12894169191E+03  0.70304872556E+03  0.83724896759E+03  0.00000000000E+00 0.  1.
          4    1    6    6  502    0 -0.84797268459E+02  0.84019492210E+02  0.31626268186E+03  0.33804132254E+03  0.00000000000E+00 0. -1.
          1    1    5    5  503    0  0.67011174559E+01 -0.11288733707E+03  0.30488662454E+03  0.32518350153E+03  0.00000000000E+00 0. -1.
         -2    1    5    5    0  503  0.10711107099E+03 -0.16588217945E+03  0.54698215600E+03  0.58153173428E+03  0.00000000000E+00 0.  1.
         -3    1    6    6    0  502 -0.49113773566E+03  0.30919475888E+03  0.19168521439E+04  0.20027830177E+04  0.00000000000E+00 0.  1.
<mgrwt>
<rscale>  0 0.15604745E+04</rscale>
<asrwt>0</asrwt>
<pdfrwt beam="1">  1        1 0.61373915E+00 0.15604745E+04</pdfrwt>
<pdfrwt beam="2">  1       -1 0.23477013E-01 0.15604745E+04</pdfrwt>
<totfact> 0.14980720E+00</totfact>
</mgrwt>
</event>
<event>
12    1  0.1201209E-007  0.2190529E+04  0.7818608E-02  0.8522380E-01
         -1   -1    0    0    0  501 -0.00000000000E+00  0.00000000000E+00  0.47468385879E+03  0.47468385879E+03  0.00000000000E+00 0.  1.
          1   -1    0    0  501    0  0.00000000000E+00 -0.00000000000E+00 -0.25271655012E+04  0.25271655012E+04  0.00000000000E+00 0. -1.
         23    2    1    2    0    0  0.56229802637E+03 -0.19767576571E+03  0.67889495451E+02  0.60678184550E+03  0.91216476781E+02 0.  0.
        254    2    1    2    0    0 -0.56229802637E+03  0.19767576571E+03 -0.21203711379E+04  0.23950675145E+04  0.94080808772E+03 0.  0.
        -24    2    4    4    0    0 -0.18091225533E+03  0.54517544309E+03 -0.93848680250E+03  0.11032016909E+04  0.79693064545E+02 0.  0.
         24    2    4    4    0    0 -0.38138577103E+03 -0.34749967739E+03 -0.11818843354E+04  0.12918658236E+04  0.76521838542E+02 0.  0.
         13    1    3    3    0    0  0.37224465741E+03 -0.17446326949E+03  0.35934686625E+02  0.41266792833E+03  0.00000000000E+00 0.  1.
        -13    1    3    3    0    0  0.19005336896E+03 -0.23212496218E+02  0.31954808826E+02  0.19411391717E+03  0.00000000000E+00 0. -1.
          2    1    6    6  502    0 -0.16472560242E+02 -0.39705630843E+02 -0.75451626442E+02  0.86837954227E+02  0.00000000000E+00 0. -1.
          1    1    5    5  503    0 -0.64730948491E+02  0.19357524271E+03 -0.26342862726E+03  0.33325082437E+03  0.00000000000E+00 0. -1.
         -2    1    5    5    0  503 -0.11618130684E+03  0.35160020038E+03 -0.67505817524E+03  0.76995086657E+03  0.00000000000E+00 0.  1.
         -1    1    6    6    0  502 -0.36491321079E+03 -0.30779404654E+03 -0.11064327090E+04  0.12050278694E+04  0.00000000000E+00 0.  1.
<mgrwt>
<rscale>  0 0.21905293E+04</rscale>
<asrwt>0</asrwt>
<pdfrwt beam="1">  1        1 0.38879470E+00 0.21905293E+04</pdfrwt>
<pdfrwt beam="2">  1       -1 0.73028285E-01 0.21905293E+04</pdfrwt>
<totfact> 0.22373190E+00</totfact>
</mgrwt>
</event>
<event>
12    1  0.1201209E-007  0.2259314E+04  0.7818608E-02  0.8494138E-01
          1   -1    0    0  501    0  0.00000000000E+00  0.00000000000E+00  0.11766251794E+04  0.11766251794E+04  0.00000000000E+00 0. -1.
         -1   -1    0    0    0  501 -0.00000000000E+00 -0.00000000000E+00 -0.10845635087E+04  0.10845635087E+04  0.00000000000E+00 0.  1.
         23    2    1    2    0    0  0.38625732531E+03 -0.69301957933E+03 -0.47915060641E+03  0.93130861302E+03  0.90992144573E+02 0.  0.
        254    2    1    2    0    0 -0.38625732531E+03  0.69301957933E+03  0.57121227717E+03  0.13298800750E+04  0.90156901551E+03 0.  0.
        -24    2    4    4    0    0 -0.38959327399E+02  0.56818264720E+03  0.72206999736E+03  0.92333513914E+03  0.82543008807E+02 0.  0.
         24    2    4    4    0    0 -0.34729799791E+03  0.12483693213E+03 -0.15085772019E+03  0.40654493591E+03  0.79502038970E+02 0.  0.
         13    1    3    3    0    0  0.30348321616E+03 -0.53421368725E+03 -0.41342651891E+03  0.74054561823E+03  0.00000000000E+00 0. -1.
        -13    1    3    3    0    0  0.82774109144E+02 -0.15880589208E+03 -0.65724087491E+02  0.19076299479E+03  0.00000000000E+00 0.  1.
          2    1    6    6  502    0 -0.29884381426E+03  0.81611127864E+02 -0.10518191064E+03  0.32715628657E+03  0.00000000000E+00 0. -1.
          3    1    5    5  503    0 -0.27949365110E+02  0.53613296069E+03  0.70266724893E+03  0.88428557676E+03  0.00000000000E+00 0. -1.
         -4    1    5    5    0  503 -0.11009962290E+02  0.32049686507E+02  0.19402748430E+02  0.39049562372E+02  0.00000000000E+00 0.  1.
         -1    1    6    6    0  502 -0.48454183648E+02  0.43225804262E+02 -0.45675809548E+02  0.79388649346E+02  0.00000000000E+00 0.  1.
<mgrwt>
<rscale>  0 0.22593138E+04</rscale>
<asrwt>0</asrwt>
<pdfrwt beam="1">  1        1 0.18101926E+00 0.22593138E+04</pdfrwt>
<pdfrwt beam="2">  1       -1 0.16685592E+00 0.22593138E+04</pdfrwt>
<totfact> 0.26177465E+00</totfact>
</mgrwt>
</event>
<event>
12    1  0.1201209E-007  0.1631260E+04  0.7818608E-02  0.8801571E-01
          1   -1    0    0  501    0  0.00000000000E+00  0.00000000000E+00  0.88048203782E+03  0.88048203782E+03  0.00000000000E+00 0. -1.
         -1   -1    0    0    0  501 -0.00000000000E+00 -0.00000000000E+00 -0.75555443130E+03  0.75555443130E+03  0.00000000000E+00 0.  1.
         23    2    1    2    0    0  0.19347025632E+03  0.51149486422E+03 -0.16988939979E+03  0.57984887939E+03  0.91129460463E+02 0.  0.
        254    2    1    2    0    0 -0.19347025632E+03 -0.51149486422E+03  0.29481700631E+03  0.10561875897E+04  0.85414133567E+03 0.  0.
        -24    2    4    4    0    0 -0.13908761077E+03 -0.66493235059E+03  0.44882474142E+03  0.81812657185E+03  0.80044017434E+02 0.  0.
         24    2    4    4    0    0 -0.54382645549E+02  0.15343748637E+03 -0.15400773511E+03  0.23806101788E+03  0.80337608870E+02 0.  0.
         13    1    3    3    0    0  0.17133554004E+02  0.69452317527E+01 -0.13725190713E+02  0.23025546183E+02  0.00000000000E+00 0.  1.
        -13    1    3    3    0    0  0.17633670231E+03  0.50454963247E+03 -0.15616420907E+03  0.55682333321E+03  0.00000000000E+00 0. -1.
          4    1    6    6  502    0 -0.75573034877E+01  0.40448942962E+01 -0.48539416068E+02  0.49290454635E+02  0.00000000000E+00 0. -1.
          1    1    5    5  503    0 -0.45190960422E+02 -0.83268474546E+02  0.57679026154E+02  0.11091768035E+03  0.00000000000E+00 0. -1.
         -2    1    5    5    0  503 -0.93896650347E+02 -0.58166387605E+03  0.39114571527E+03  0.70720889150E+03  0.00000000000E+00 0.  1.
         -3    1    6    6    0  502 -0.46825342061E+02  0.14939259208E+03 -0.10546831905E+03  0.18877056325E+03  0.00000000000E+00 0.  1.
<mgrwt>
<rscale>  0 0.16312598E+04</rscale>
<asrwt>0</asrwt>
<pdfrwt beam="1">  1        1 0.13545878E+00 0.16312598E+04</pdfrwt>
<pdfrwt beam="2">  1       -1 0.11623914E+00 0.16312598E+04</pdfrwt>
<totfact> 0.12092974E+01</totfact>
</mgrwt>
</event>
<event>
12    1  0.1201209E-007  0.1685313E+04  0.7818608E-02  0.8769786E-01
         -2   -1    0    0    0  501 -0.00000000000E+00  0.00000000000E+00  0.42279260488E+03  0.42279260488E+03  0.00000000000E+00 0.  1.
          2   -1    0    0  501    0  0.00000000000E+00 -0.00000000000E+00 -0.16794756783E+04  0.16794756783E+04  0.00000000000E+00 0. -1.
         23    2    1    2    0    0 -0.74754532833E+02  0.29573304559E+03  0.19316309103E+03  0.37265523561E+03  0.92269553265E+02 0.  0.
        254    2    1    2    0    0  0.74754532833E+02 -0.29573304559E+03 -0.14498461644E+04  0.17296130476E+04  0.89244670393E+03 0.  0.
        -24    2    4    4    0    0  0.28974828114E+03 -0.41507867435E+03 -0.13623509718E+04  0.14553809355E+04  0.76740633542E+02 0.  0.
         24    2    4    4    0    0 -0.21499374831E+03  0.11934562876E+03 -0.87495192647E+02  0.27423211204E+03  0.84155520459E+02 0.  0.
         13    1    3    3    0    0 -0.52065690692E+02  0.27206793241E+03  0.19661442323E+03  0.33968960452E+03  0.00000000000E+00 0.  1.
        -13    1    3    3    0    0 -0.22688842141E+02  0.23665113175E+02 -0.34513322036E+01  0.32965631091E+02  0.00000000000E+00 0. -1.
          4    1    6    6  502    0 -0.19876281268E+03  0.12224472561E+03 -0.99665259406E+02  0.25373922160E+03  0.00000000000E+00 0. -1.
          3    1    5    5  503    0  0.22046981593E+03 -0.31870453548E+03 -0.11275282528E+04  0.11922665313E+04  0.00000000000E+00 0. -1.
         -4    1    5    5    0  503  0.69278465209E+02 -0.96374138868E+02 -0.23482271896E+03  0.26311440425E+03  0.00000000000E+00 0.  1.
         -3    1    6    6    0  502 -0.16230935629E+02 -0.28990968519E+01  0.12170066759E+02  0.20492890446E+02  0.00000000000E+00 0.  1.
<mgrwt>
<rscale>  0 0.16853129E+04</rscale>
<asrwt>0</asrwt>
<pdfrwt beam="1">  1        2 0.25838088E+00 0.16853129E+04</pdfrwt>
<pdfrwt beam="2">  1       -2 0.65045015E-01 0.16853129E+04</pdfrwt>
<totfact> 0.20906475E+01</totfact>
</mgrwt>
</event>
<event>
12    1  0.1201209E-007  0.1466224E+04  0.7818608E-02  0.8907230E-01
          2   -1    0    0  501    0  0.00000000000E+00  0.00000000000E+00  0.87441476052E+03  0.87441476052E+03  0.00000000000E+00 0. -1.
         -2   -1    0    0    0  501 -0.00000000000E+00 -0.00000000000E+00 -0.61464297118E+03  0.61464297118E+03  0.00000000000E+00 0.  1.
         23    2    1    2    0    0  0.38702813262E+03  0.11537323911E+03  0.27651792277E+03  0.49857334373E+03  0.94928698126E+02 0.  0.
        254    2    1    2    0    0 -0.38702813262E+03 -0.11537323911E+03 -0.16746133435E+02  0.99048438796E+03  0.90425501385E+03 0.  0.
        -24    2    4    4    0    0 -0.59234552470E+03  0.16160417598E+03  0.78482406152E+02  0.62412150007E+03  0.79868820240E+02 0.  0.
         24    2    4    4    0    0  0.20531739208E+03 -0.27697741508E+03 -0.95228539587E+02  0.36636288789E+03  0.79256361976E+02 0.  0.
         13    1    3    3    0    0  0.39960150840E+02  0.14429542710E+02 -0.15884406628E+01  0.42515273747E+02  0.00000000000E+00 0. -1.
        -13    1    3    3    0    0  0.34706798178E+03  0.10094369640E+03  0.27810636344E+03  0.45605806999E+03  0.00000000000E+00 0.  1.
          2    1    6    6  502    0  0.18831381621E+03 -0.25671109725E+03 -0.10902728120E+03  0.33652582200E+03  0.00000000000E+00 0. -1.
          1    1    5    5  503    0 -0.53721600438E+03  0.14570355197E+03  0.46824027762E+02  0.55859023443E+03  0.00000000000E+00 0. -1.
         -2    1    5    5    0  503 -0.55129520319E+02  0.15900624009E+02  0.31658378390E+02  0.65531265643E+02  0.00000000000E+00 0.  1.
         -1    1    6    6    0  502  0.17003575874E+02 -0.20266317834E+02  0.13798741610E+02  0.29837065893E+02  0.00000000000E+00 0.  1.
<mgrwt>
<rscale>  0 0.14662236E+04</rscale>
<asrwt>0</asrwt>
<pdfrwt beam="1">  1        2 0.13452535E+00 0.14662236E+04</pdfrwt>
<pdfrwt beam="2">  1       -2 0.94560457E-01 0.14662236E+04</pdfrwt>
<totfact> 0.27864640E+01</totfact>
</mgrwt>
</event>
<event>
12    1  0.1201209E-007  0.1902630E+04  0.7818608E-02  0.8653548E-01
          1   -1    0    0  501    0  0.00000000000E+00  0.00000000000E+00  0.35471512817E+04  0.35471512817E+04  0.00000000000E+00 0. -1.
         -1   -1    0    0    0  501 -0.00000000000E+00 -0.00000000000E+00 -0.25513436507E+03  0.25513436507E+03  0.00000000000E+00 0.  1.
         23    2    1    2    0    0  0.52107742443E+02 -0.11297126718E+03  0.27276301373E+04  0.27320633908E+04  0.93415636920E+02 0.  0.
        254    2    1    2    0    0 -0.52107742443E+02  0.11297126718E+03  0.56438677933E+03  0.10702222560E+04  0.90075830085E+03 0.  0.
        -24    2    4    4    0    0 -0.29509691225E+03 -0.28938649114E+03  0.18237938031E+03  0.45861958552E+03  0.79012385053E+02 0.  0.
         24    2    4    4    0    0  0.24298916980E+03  0.40235775832E+03  0.38200739902E+03  0.61160267048E+03  0.84809618070E+02 0.  0.
         13    1    3    3    0    0  0.42785903930E+02 -0.60267795544E+02  0.73334536899E+03  0.73706056126E+03  0.00000000000E+00 0.  1.
        -13    1    3    3    0    0  0.93218385129E+01 -0.52703471635E+02  0.19942847683E+04  0.19950028295E+04  0.00000000000E+00 0. -1.
          4    1    6    6  502    0  0.97966194054E+02  0.15272607637E+03  0.96247070462E+02  0.20539261952E+03  0.00000000000E+00 0. -1.
          1    1    5    5  503    0 -0.14433570869E+03 -0.13160821993E+03  0.12860561169E+03  0.23386518278E+03  0.00000000000E+00 0. -1.
         -2    1    5    5    0  503 -0.15076120355E+03 -0.15777827121E+03  0.53773768622E+02  0.22475440275E+03  0.00000000000E+00 0.  1.
         -3    1    6    6    0  502  0.14502297575E+03  0.24963168195E+03  0.28576032856E+03  0.40621005097E+03  0.00000000000E+00 0.  1.
<mgrwt>
<rscale>  0 0.19026300E+04</rscale>
<asrwt>0</asrwt>
<pdfrwt beam="1">  1        1 0.54571555E+00 0.19026300E+04</pdfrwt>
<pdfrwt beam="2">  1       -1 0.39251443E-01 0.19026300E+04</pdfrwt>
<totfact> 0.13601217E+00</totfact>
</mgrwt>
</event>
<event>
12    1  0.1201209E-007  0.1477248E+04  0.7818608E-02  0.8899725E-01
         -2   -1    0    0    0  501 -0.00000000000E+00  0.00000000000E+00  0.20582366362E+03  0.20582366362E+03  0.00000000000E+00 0.  1.
          2   -1    0    0  501    0  0.00000000000E+00 -0.00000000000E+00 -0.26506458594E+04  0.26506458594E+04  0.00000000000E+00 0. -1.
         23    2    1    2    0    0 -0.33747253955E+03  0.17879541633E+03 -0.27896660148E+03  0.48182528945E+03  0.92074583704E+02 0.  0.
        254    2    1    2    0    0  0.33747253955E+03 -0.17879541633E+03 -0.21658555943E+04  0.23746442336E+04  0.89562786065E+03 0.  0.
        -24    2    4    4    0    0  0.53287125105E+03  0.15681319642E+03 -0.14724844741E+04  0.15757771890E+04  0.79505184394E+02 0.  0.
         24    2    4    4    0    0 -0.19539871150E+03 -0.33560861276E+03 -0.69337112027E+03  0.79886704456E+03  0.81309575388E+02 0.  0.
         13    1    3    3    0    0 -0.28339666035E+03  0.16617854776E+03 -0.19778052206E+03  0.38346591992E+03  0.00000000000E+00 0.  1.
        -13    1    3    3    0    0 -0.54075879194E+02  0.12616868577E+02 -0.81186079418E+02  0.98359369532E+02  0.00000000000E+00 0. -1.
          2    1    6    6  502    0  0.47980611909E+01 -0.36383222375E+00 -0.19081064154E+02  0.19678434245E+02  0.00000000000E+00 0. -1.
          1    1    5    5  503    0  0.16873595792E+03  0.78281848139E+02 -0.42110565898E+03  0.46035839003E+03  0.00000000000E+00 0. -1.
         -2    1    5    5    0  503  0.36413529313E+03  0.78531348285E+02 -0.10513788151E+04  0.11154187990E+04  0.00000000000E+00 0.  1.
         -1    1    6    6    0  502 -0.20019677269E+03 -0.33524478054E+03 -0.67429005611E+03  0.77918861031E+03  0.00000000000E+00 0.  1.
<mgrwt>
<rscale>  0 0.14772483E+04</rscale>
<asrwt>0</asrwt>
<pdfrwt beam="1">  1        2 0.40779165E+00 0.14772483E+04</pdfrwt>
<pdfrwt beam="2">  1       -2 0.31665181E-01 0.14772483E+04</pdfrwt>
<totfact> 0.25584290E+01</totfact>
</mgrwt>
</event>
<event>
12    1  0.1201209E-007  0.1442377E+04  0.7818608E-02  0.8923702E-01
         -2   -1    0    0    0  501 -0.00000000000E+00  0.00000000000E+00  0.29514707821E+03  0.29514707821E+03  0.00000000000E+00 0. -1.
          2   -1    0    0  501    0  0.00000000000E+00 -0.00000000000E+00 -0.17622162727E+04  0.17622162727E+04  0.00000000000E+00 0.  1.
         23    2    1    2    0    0 -0.21874200566E+03 -0.95915342473E+02 -0.97751426537E+03  0.10106464426E+04  0.93937612712E+02 0.  0.
        254    2    1    2    0    0  0.21874200566E+03  0.95915342473E+02 -0.48955492911E+03  0.10467169082E+04  0.89381454421E+03 0.  0.
        -24    2    4    4    0    0  0.41608915137E+03  0.24574672877E+03 -0.59050543619E+03  0.76714931098E+03  0.79371018474E+02 0.  0.
         24    2    4    4    0    0 -0.19734714572E+03 -0.14983138630E+03  0.10095050707E+03  0.27956759727E+03  0.81065999787E+02 0.  0.
         11    1    3    3    0    0 -0.55896610332E+02 -0.15076009709E+02 -0.11020094303E+03  0.12448278981E+03  0.00000000000E+00 0. -1.
        -11    1    3    3    0    0 -0.16284539532E+03 -0.80839332764E+02 -0.86731332234E+03  0.88616365284E+03  0.00000000000E+00 0.  1.
          4    1    6    6  502    0 -0.36186636927E+02 -0.68436276283E+02  0.49286796948E+02  0.91772462955E+02  0.00000000000E+00 0. -1.
          3    1    5    5  503    0  0.86782145740E+02  0.78542987150E+02 -0.18254699118E+03  0.21684913106E+03  0.00000000000E+00 0. -1.
         -4    1    5    5    0  503  0.32930700563E+03  0.16720374162E+03 -0.40795844500E+03  0.55030017992E+03  0.00000000000E+00 0.  1.
         -3    1    6    6    0  502 -0.16116050879E+03 -0.81395110019E+02  0.51663710127E+02  0.18779513431E+03  0.00000000000E+00 0.  1.
<mgrwt>
<rscale>  0 0.14423772E+04</rscale>
<asrwt>0</asrwt>
<pdfrwt beam="1">  1        2 0.27111020E+00 0.14423772E+04</pdfrwt>
<pdfrwt beam="2">  1       -2 0.45407243E-01 0.14423772E+04</pdfrwt>
<totfact> 0.40413445E+01</totfact>
</mgrwt>
</event>
<event>
12    1  0.1201209E-007  0.1667350E+04  0.7818608E-02  0.8780208E-01
         -2   -1    0    0    0  501 -0.00000000000E+00  0.00000000000E+00  0.10174419471E+04  0.10174419471E+04  0.00000000000E+00 0.  1.
          2   -1    0    0  501    0  0.00000000000E+00 -0.00000000000E+00 -0.68309924462E+03  0.68309924462E+03  0.00000000000E+00 0. -1.
         23    2    1    2    0    0 -0.29915018250E+03  0.90532256126E+02  0.63239740432E+03  0.71150129570E+03  0.92847701650E+02 0.  0.
        254    2    1    2    0    0  0.29915018250E+03 -0.90532256126E+02 -0.29805470183E+03  0.98903989603E+03  0.88976198479E+03 0.  0.
        -24    2    4    4    0    0 -0.29534629283E+03  0.24638801510E+02  0.60965619258E+01  0.30706515488E+03  0.80095805442E+02 0.  0.
         24    2    4    4    0    0  0.59449647533E+03 -0.11517105764E+03 -0.30415126376E+03  0.68197474115E+03  0.76753661918E+02 0.  0.
         11    1    3    3    0    0 -0.26419029602E+03  0.71498202589E+02  0.60239344213E+03  0.66165426365E+03  0.00000000000E+00 0.  1.
        -11    1    3    3    0    0 -0.34959886486E+02  0.19034053537E+02  0.30003962187E+02  0.49847032049E+02  0.00000000000E+00 0. -1.
          4    1    6    6  502    0  0.48666534568E+03 -0.11384351163E+03 -0.22449775305E+03  0.54790760622E+03  0.00000000000E+00 0. -1.
          3    1    5    5  503    0 -0.20543547137E+03  0.51234076044E+02  0.18278614456E+02  0.21251534343E+03  0.00000000000E+00 0. -1.
         -4    1    5    5    0  503 -0.89910821456E+02 -0.26595274534E+02 -0.12182052530E+02  0.94549811455E+02  0.00000000000E+00 0.  1.
         -1    1    6    6    0  502  0.10783112966E+03 -0.13275460065E+01 -0.79653510706E+02  0.13406713493E+03  0.00000000000E+00 0.  1.
<mgrwt>
<rscale>  0 0.16673498E+04</rscale>
<asrwt>0</asrwt>
<pdfrwt beam="1">  1        2 0.10509219E+00 0.16673498E+04</pdfrwt>
<pdfrwt beam="2">  1       -2 0.15652953E+00 0.16673498E+04</pdfrwt>
<totfact> 0.10770477E+01</totfact>
</mgrwt>
</event>
<event>
12    1  0.1201209E-007  0.2325383E+04  0.7818608E-02  0.8467980E-01
         -2   -1    0    0    0  501 -0.00000000000E+00  0.00000000000E+00  0.19216823952E+04  0.19216823952E+04  0.00000000000E+00 0.  1.
          2   -1    0    0  501    0  0.00000000000E+00 -0.00000000000E+00 -0.70347295991E+03  0.70347295991E+03  0.00000000000E+00 0. -1.
         23    2    1    2    0    0  0.15624278082E+03  0.44507894451E+03  0.14904954280E+04  0.15660065627E+04  0.91065142789E+02 0.  0.
        254    2    1    2    0    0 -0.15624278082E+03 -0.44507894451E+03 -0.27228599264E+03  0.10591487924E+04  0.90837736065E+03 0.  0.
        -24    2    4    4    0    0 -0.33719084647E+03 -0.26702395522E+03 -0.53047933489E+03  0.68744596596E+03  0.78575898103E+02 0.  0.
         24    2    4    4    0    0  0.18094806565E+03 -0.17805498929E+03  0.25819334225E+03  0.37170282648E+03  0.83984567379E+02 0.  0.
         11    1    3    3    0    0  0.16575842681E+03  0.43063480791E+03  0.14567781402E+04  0.15281114958E+04  0.00000000000E+00 0.  1.
        -11    1    3    3    0    0 -0.95156459900E+01  0.14444136599E+02  0.33717287731E+02  0.37895066864E+02  0.00000000000E+00 0. -1.
          2    1    6    6  502    0  0.99294490575E+02 -0.10931612286E+03  0.91382051780E+02  0.17366660578E+03  0.00000000000E+00 0. -1.
          3    1    5    5  503    0 -0.98333890115E+02 -0.36207269295E+02 -0.13805545016E+03  0.17332001504E+03  0.00000000000E+00 0. -1.
         -4    1    5    5    0  503 -0.23885695635E+03 -0.23081668592E+03 -0.39242388474E+03  0.51412595092E+03  0.00000000000E+00 0.  1.
         -1    1    6    6    0  502  0.81653575074E+02 -0.68738866427E+02  0.16681129047E+03  0.19803622070E+03  0.00000000000E+00 0.  1.
<mgrwt>
<rscale>  0 0.23253831E+04</rscale>
<asrwt>0</asrwt>
<pdfrwt beam="1">  1        2 0.10822661E+00 0.23253831E+04</pdfrwt>
<pdfrwt beam="2">  1       -2 0.29564344E+00 0.23253831E+04</pdfrwt>
<totfact> 0.12453368E+00</totfact>
</mgrwt>
</event>
<event>
12    1  0.1201209E-007  0.1545570E+04  0.7818608E-02  0.8854703E-01
         -1   -1    0    0    0  501 -0.00000000000E+00  0.00000000000E+00  0.83085774396E+03  0.83085774396E+03  0.00000000000E+00 0.  1.
          1   -1    0    0  501    0  0.00000000000E+00 -0.00000000000E+00 -0.71877093642E+03  0.71877093642E+03  0.00000000000E+00 0. -1.
         23    2    1    2    0    0  0.39179451329E+03 -0.52536447239E+02 -0.27847882904E+03  0.49195657700E+03  0.90596890121E+02 0.  0.
        254    2    1    2    0    0 -0.39179451329E+03  0.52536447239E+02  0.39056563657E+03  0.10576721034E+04  0.89992540961E+03 0.  0.
        -24    2    4    4    0    0  0.19960891454E+03 -0.21548514769E+03  0.17855120435E+02  0.30475407885E+03  0.79238094459E+02 0.  0.
         24    2    4    4    0    0 -0.59140342783E+03  0.26802159493E+03  0.37271051614E+03  0.75291802453E+03  0.79867596812E+02 0.  0.
         13    1    3    3    0    0  0.80166831166E+02 -0.16018504698E+02 -0.10616486286E+03  0.13399362454E+03  0.00000000000E+00 0.  1.
        -13    1    3    3    0    0  0.31162768212E+03 -0.36517942541E+02 -0.17231396618E+03  0.35796295246E+03  0.00000000000E+00 0. -1.
          4    1    6    6  502    0 -0.15462687544E+03  0.36642449809E+02  0.73019739926E+02  0.17488288125E+03  0.00000000000E+00 0. -1.
          3    1    5    5  503    0  0.76703455507E+02 -0.36859409446E+02 -0.11787376142E+02  0.85912620654E+02  0.00000000000E+00 0. -1.
         -4    1    5    5    0  503  0.12290545903E+03 -0.17862573825E+03  0.29642496576E+02  0.21884145820E+03  0.00000000000E+00 0.  1.
         -3    1    6    6    0  502 -0.43677655239E+03  0.23137914512E+03  0.29969077621E+03  0.57803514328E+03  0.00000000000E+00 0.  1.
<mgrwt>
<rscale>  0 0.15455697E+04</rscale>
<asrwt>0</asrwt>
<pdfrwt beam="1">  1        1 0.11058014E+00 0.15455697E+04</pdfrwt>
<pdfrwt beam="2">  1       -1 0.12782427E+00 0.15455697E+04</pdfrwt>
<totfact> 0.13347085E+01</totfact>
</mgrwt>
</event>
<event>
12    1  0.1201209E-007  0.3470551E+04  0.7818608E-02  0.8120805E-01
         -2   -1    0    0    0  501 -0.00000000000E+00  0.00000000000E+00  0.66106086237E+03  0.66106086237E+03  0.00000000000E+00 0.  1.
          2   -1    0    0  501    0  0.00000000000E+00 -0.00000000000E+00 -0.45550751556E+04  0.45550751556E+04  0.00000000000E+00 0. -1.
         23    2    1    2    0    0  0.11049273419E+03  0.74661054611E+03 -0.39601493676E+04  0.40324735756E+04  0.91783289372E+02 0.  0.
        254    2    1    2    0    0 -0.11049273419E+03 -0.74661054611E+03  0.66135074351E+02  0.11836624424E+04  0.90942123224E+03 0.  0.
        -24    2    4    4    0    0 -0.10194603624E+03 -0.25067866161E+03 -0.40677722482E+03  0.49373984449E+03  0.71263859801E+02 0.  0.
         24    2    4    4    0    0 -0.85466979456E+01 -0.49593188450E+03  0.47291229917E+03  0.68992259792E+03  0.79534070146E+02 0.  0.
         11    1    3    3    0    0  0.22358350191E+02  0.31567170618E+03 -0.18637223951E+04  0.18903993462E+04  0.00000000000E+00 0.  1.
        -11    1    3    3    0    0  0.88134383996E+02  0.43093883992E+03 -0.20964269725E+04  0.21420742294E+04  0.00000000000E+00 0. -1.
          2    1    6    6  502    0 -0.89079542256E+01 -0.29998810424E+01  0.94484737813E+01  0.13327587612E+02  0.00000000000E+00 0. -1.
          1    1    5    5  503    0  0.18021743052E+01 -0.71571767068E+02 -0.12592348167E+03  0.14485333586E+03  0.00000000000E+00 0. -1.
         -2    1    5    5    0  503 -0.10374821055E+03 -0.17910689454E+03 -0.28085374314E+03  0.34888650863E+03  0.00000000000E+00 0.  1.
         -1    1    6    6    0  502  0.36125628005E+00 -0.49293200346E+03  0.46346382539E+03  0.67659501031E+03  0.00000000000E+00 0.  1.
<mgrwt>
<rscale>  0 0.34705515E+04</rscale>
<asrwt>0</asrwt>
<pdfrwt beam="1">  1        2 0.70078078E+00 0.34705515E+04</pdfrwt>
<pdfrwt beam="2">  1       -2 0.10170167E+00 0.34705515E+04</pdfrwt>
<totfact> 0.70589894E-02</totfact>
</mgrwt>
</event>
<event>
12    1  0.1201209E-007  0.1409928E+04  0.7818608E-02  0.8946663E-01
          1   -1    0    0  501    0  0.00000000000E+00  0.00000000000E+00  0.15182397422E+04  0.15182397422E+04  0.00000000000E+00 0. -1.
         -1   -1    0    0    0  501 -0.00000000000E+00 -0.00000000000E+00 -0.32733573733E+03  0.32733573733E+03  0.00000000000E+00 0.  1.
         23    2    1    2    0    0  0.40276989948E+01 -0.36265551521E+03  0.10667618211E+03  0.38715058626E+03  0.83489661275E+02 0.  0.
        254    2    1    2    0    0 -0.40276989948E+01  0.36265551521E+03  0.10842278228E+04  0.14584248933E+04  0.90549320961E+03 0.  0.
        -24    2    4    4    0    0  0.30189171089E+03  0.19632775151E+03  0.59496830051E+02  0.37306383809E+03  0.77159337630E+02 0.  0.
         24    2    4    4    0    0 -0.30591940989E+03  0.16632776369E+03  0.10247309927E+04  0.10853610552E+04  0.81752078855E+02 0.  0.
         11    1    3    3    0    0 -0.91226547633E+01 -0.67955752910E+02 -0.11207951587E+02  0.69475357950E+02  0.00000000000E+00 0. -1.
        -11    1    3    3    0    0  0.13150353758E+02 -0.29469976230E+03  0.11788413370E+03  0.31767522831E+03  0.00000000000E+00 0.  1.
          4    1    6    6  502    0 -0.29859655442E+03  0.16469147641E+03  0.93370392532E+03  0.99402525364E+03  0.00000000000E+00 0. -1.
          3    1    5    5  503    0  0.15103355135E+03  0.53523023426E+02  0.18170102616E+02  0.16126376003E+03  0.00000000000E+00 0. -1.
         -4    1    5    5    0  503  0.15085815954E+03  0.14280472809E+03  0.41326727436E+02  0.21180007805E+03  0.00000000000E+00 0.  1.
         -3    1    6    6    0  502 -0.73228554680E+01  0.16362872802E+01  0.91027067428E+02  0.91335801593E+02  0.00000000000E+00 0.  1.
<mgrwt>
<rscale>  0 0.14099278E+04</rscale>
<asrwt>0</asrwt>
<pdfrwt beam="1">  1        1 0.23357534E+00 0.14099278E+04</pdfrwt>
<pdfrwt beam="2">  1       -1 0.50359345E-01 0.14099278E+04</pdfrwt>
<totfact> 0.24509776E+01</totfact>
</mgrwt>
</event>
<event>
12    1  0.1201209E-007  0.1730292E+04  0.7818608E-02  0.8744274E-01
          2   -1    0    0  501    0  0.00000000000E+00  0.00000000000E+00  0.21705424811E+04  0.21705424811E+04  0.00000000000E+00 0. -1.
         -2   -1    0    0    0  501 -0.00000000000E+00 -0.00000000000E+00 -0.34483445458E+03  0.34483445458E+03  0.00000000000E+00 0.  1.
         23    2    1    2    0    0  0.22844291169E+02 -0.59908850817E+03  0.96380846856E+03  0.11386997649E+04  0.91002682321E+02 0.  0.
        254    2    1    2    0    0 -0.22844291169E+02  0.59908850817E+03  0.86189955792E+03  0.13766771708E+04  0.89047194358E+03 0.  0.
        -24    2    4    4    0    0 -0.28033900788E+03  0.20309280544E+03 -0.38220409927E+02  0.35701609382E+03  0.78505060671E+02 0.  0.
         24    2    4    4    0    0  0.25749471671E+03  0.39599570272E+03  0.90011996785E+03  0.10196610769E+04  0.79853801388E+02 0.  0.
         13    1    3    3    0    0  0.28081096832E+02 -0.59519106003E+03  0.96254826004E+03  0.11320512792E+04  0.00000000000E+00 0. -1.
        -13    1    3    3    0    0 -0.52368056630E+01 -0.38974481358E+01  0.12602085166E+01  0.66484856192E+01  0.00000000000E+00 0.  1.
          2    1    6    6  502    0  0.20428590757E+03  0.29016446753E+03  0.73791608461E+03  0.81880907309E+03  0.00000000000E+00 0. -1.
          1    1    5    5  503    0 -0.16603457071E+03  0.16058544239E+03 -0.68288076340E+01  0.23108828527E+03  0.00000000000E+00 0. -1.
         -2    1    5    5    0  503 -0.11430443718E+03  0.42507363055E+02 -0.31391602293E+02  0.12592780855E+03  0.00000000000E+00 0.  1.
         -1    1    6    6    0  502  0.53208809146E+02  0.10583123519E+03  0.16220388324E+03  0.20085200385E+03  0.00000000000E+00 0.  1.
<mgrwt>
<rscale>  0 0.17302923E+04</rscale>
<asrwt>0</asrwt>
<pdfrwt beam="1">  1        2 0.33392960E+00 0.17302923E+04</pdfrwt>
<pdfrwt beam="2">  1       -2 0.53051456E-01 0.17302923E+04</pdfrwt>
<totfact> 0.17069117E+01</totfact>
</mgrwt>
</event>
<event>
12    1  0.1201209E-007  0.1514009E+04  0.7818608E-02  0.8875190E-01
         -2   -1    0    0    0  501 -0.00000000000E+00  0.00000000000E+00  0.19359404679E+03  0.19359404679E+03  0.00000000000E+00 0. -1.
          2   -1    0    0  501    0  0.00000000000E+00 -0.00000000000E+00 -0.29600888398E+04  0.29600888398E+04  0.00000000000E+00 0.  1.
         23    2    1    2    0    0 -0.31693058205E+03  0.83420291241E+02 -0.15691463772E+03  0.37473430844E+03  0.91649656646E+02 0.  0.
        254    2    1    2    0    0  0.31693058205E+03 -0.83420291241E+02 -0.26095801553E+04  0.27789485782E+04  0.89735314914E+03 0.  0.
        -24    2    4    4    0    0  0.56045721093E+03  0.72035769756E+02 -0.21916493318E+04  0.22647689399E+04  0.80932813190E+02 0.  0.
         24    2    4    4    0    0 -0.24352662888E+03 -0.15545606100E+03 -0.41793082353E+03  0.51417963826E+03  0.79010893362E+02 0.  0.
         13    1    3    3    0    0 -0.27813934863E+03  0.43555870428E+02 -0.11104604732E+03  0.30263812669E+03  0.00000000000E+00 0. -1.
        -13    1    3    3    0    0 -0.38791233421E+02  0.39864420813E+02 -0.45868590401E+02  0.72096181746E+02  0.00000000000E+00 0.  1.
          4    1    6    6  502    0 -0.19857207852E+03 -0.15894388825E+03 -0.35056167712E+03  0.43311374885E+03  0.00000000000E+00 0. -1.
          3    1    5    5  503    0  0.47544236447E+03  0.58763956729E+02 -0.17266563209E+04  0.17918818864E+04  0.00000000000E+00 0. -1.
         -4    1    5    5    0  503  0.85014846459E+02  0.13271813027E+02 -0.46499301093E+03  0.47288705349E+03  0.00000000000E+00 0.  1.
         -3    1    6    6    0  502 -0.44954550367E+02  0.34878272565E+01 -0.67369146413E+02  0.81065889411E+02  0.00000000000E+00 0.  1.
<mgrwt>
<rscale>  0 0.15140087E+04</rscale>
<asrwt>0</asrwt>
<pdfrwt beam="1">  1        2 0.45539828E+00 0.15140087E+04</pdfrwt>
<pdfrwt beam="2">  1       -2 0.29783700E-01 0.15140087E+04</pdfrwt>
<totfact> 0.18623989E+01</totfact>
</mgrwt>
</event>
<event>
12    1  0.1201209E-007  0.1694050E+04  0.7818608E-02  0.8764765E-01
          1   -1    0    0  501    0  0.00000000000E+00  0.00000000000E+00  0.61370475362E+03  0.61370475362E+03  0.00000000000E+00 0. -1.
         -1   -1    0    0    0  501 -0.00000000000E+00 -0.00000000000E+00 -0.11690496692E+04  0.11690496692E+04  0.00000000000E+00 0.  1.
         23    2    1    2    0    0  0.34575888884E+03 -0.34312630075E+03 -0.57552852159E+03  0.75961040070E+03  0.92141273081E+02 0.  0.
        254    2    1    2    0    0 -0.34575888884E+03  0.34312630075E+03  0.20183606033E+02  0.10231440221E+04  0.89951733975E+03 0.  0.
        -24    2    4    4    0    0 -0.16176373301E+02  0.57538874032E+03 -0.11142673481E+03  0.59163282029E+03  0.79243922629E+02 0.  0.
         24    2    4    4    0    0 -0.32958251554E+03 -0.23226243957E+03  0.13161034084E+03  0.43151120180E+03  0.79436516023E+02 0.  0.
         11    1    3    3    0    0  0.17360461439E+03 -0.11295719180E+03 -0.26743901438E+03  0.33826249530E+03  0.00000000000E+00 0. -1.
        -11    1    3    3    0    0  0.17215427445E+03 -0.23016910895E+03 -0.30808950721E+03  0.42134790539E+03  0.00000000000E+00 0.  1.
          2    1    6    6  502    0 -0.55034813189E+02 -0.15241768855E+02  0.40106041869E+02  0.69782782798E+02  0.00000000000E+00 0. -1.
          1    1    5    5  503    0  0.22774840364E+02  0.12086695106E+03 -0.44739622591E+01  0.12307530032E+03  0.00000000000E+00 0. -1.
         -2    1    5    5    0  503 -0.38951213665E+02  0.45452178926E+03 -0.10695277255E+03  0.46855751997E+03  0.00000000000E+00 0.  1.
         -1    1    6    6    0  502 -0.27454770235E+03 -0.21702067071E+03  0.91504298973E+02  0.36172841901E+03  0.00000000000E+00 0.  1.
<mgrwt>
<rscale>  0 0.16940500E+04</rscale>
<asrwt>0</asrwt>
<pdfrwt beam="1">  1        1 0.94416117E-01 0.16940500E+04</pdfrwt>
<pdfrwt beam="2">  1       -1 0.17985379E+00 0.16940500E+04</pdfrwt>
<totfact> 0.65819643E+00</totfact>
</mgrwt>
</event>
<event>
12    1  0.1201209E-007  0.4374877E+04  0.7818608E-02  0.7932916E-01
          1   -1    0    0  501    0  0.00000000000E+00  0.00000000000E+00  0.31767239982E+04  0.31767239982E+04  0.00000000000E+00 0. -1.
         -1   -1    0    0    0  501 -0.00000000000E+00 -0.00000000000E+00 -0.15062330134E+04  0.15062330134E+04  0.00000000000E+00 0.  1.
         23    2    1    2    0    0  0.59844685423E+03 -0.19706872165E+04  0.12118638274E+04  0.23913582192E+04  0.90738379217E+02 0.  0.
        254    2    1    2    0    0 -0.59844685423E+03  0.19706872165E+04  0.45862715737E+03  0.22915987925E+04  0.89405783561E+03 0.  0.
        -24    2    4    4    0    0 -0.13658884222E+03  0.15771787569E+04  0.11420433686E+03  0.15891860330E+04  0.79500149827E+02 0.  0.
         24    2    4    4    0    0 -0.46185801201E+03  0.39350845962E+03  0.34442282051E+03  0.70241275947E+03  0.81208831625E+02 0.  0.
         11    1    3    3    0    0  0.57084493894E+03 -0.18205873286E+04  0.11026256398E+04  0.22036754450E+04  0.00000000000E+00 0. -1.
        -11    1    3    3    0    0  0.27601915282E+02 -0.15009988798E+03  0.10923818764E+03  0.18768277422E+03  0.00000000000E+00 0.  1.
          2    1    6    6  502    0 -0.14836680460E+03  0.17255267345E+03  0.14850277185E+03  0.27173554621E+03  0.00000000000E+00 0. -1.
          1    1    5    5  503    0 -0.71500993353E+02  0.48693201681E+03  0.57900646629E+02  0.49554784423E+03  0.00000000000E+00 0. -1.
         -2    1    5    5    0  503 -0.65087848867E+02  0.10902467401E+04  0.56303690228E+02  0.10936381888E+04  0.00000000000E+00 0.  1.
         -1    1    6    6    0  502 -0.31349120741E+03  0.22095578616E+03  0.19592004866E+03  0.43067721326E+03  0.00000000000E+00 0.  1.
<mgrwt>
<rscale>  0 0.43748767E+04</rscale>
<asrwt>0</asrwt>
<pdfrwt beam="1">  1        1 0.48872677E+00 0.43748767E+04</pdfrwt>
<pdfrwt beam="2">  1       -1 0.23172816E+00 0.43748767E+04</pdfrwt>
<totfact> 0.30861909E-02</totfact>
</mgrwt>
</event>
<event>
12    1  0.1201209E-007  0.1109262E+04  0.7818608E-02  0.9196211E-01
         -2   -1    0    0    0  501 -0.00000000000E+00  0.00000000000E+00  0.12119584676E+04  0.12119584676E+04  0.00000000000E+00 0.  1.
          2   -1    0    0  501    0  0.00000000000E+00 -0.00000000000E+00 -0.25381698188E+03  0.25381698188E+03  0.00000000000E+00 0. -1.
         23    2    1    2    0    0  0.68914349191E+01 -0.31966124239E+02 -0.54310491282E+02  0.11019304016E+03  0.90130747591E+02 0.  0.
        254    2    1    2    0    0 -0.68914349191E+01  0.31966124239E+02  0.10124519770E+04  0.13555824093E+04  0.90081925920E+03 0.  0.
        -24    2    4    4    0    0 -0.92798884531E+02 -0.19629441781E+03 -0.71393977545E+02  0.24177482552E+03  0.78834223472E+02 0.  0.
         24    2    4    4    0    0  0.85907449611E+02  0.22826054205E+03  0.10838459546E+04  0.11138075838E+04  0.79764124692E+02 0.  0.
         13    1    3    3    0    0 -0.37091751249E+02  0.56208023784E+01 -0.26962440027E+02  0.46199184001E+02  0.00000000000E+00 0.  1.
        -13    1    3    3    0    0  0.43983186168E+02 -0.37586926617E+02 -0.27348051254E+02  0.63993856154E+02  0.00000000000E+00 0. -1.
          2    1    6    6  502    0  0.44859434035E+02  0.17179667800E+03  0.89568858049E+03  0.91311801023E+03  0.00000000000E+00 0. -1.
          3    1    5    5  503    0 -0.23863825454E+02 -0.60301386878E+02 -0.60873182743E+02  0.88945397869E+02  0.00000000000E+00 0. -1.
         -4    1    5    5    0  503 -0.68935059076E+02 -0.13599303093E+03 -0.10520794802E+02  0.15282942765E+03  0.00000000000E+00 0.  1.
         -1    1    6    6    0  502  0.41048015577E+02  0.56463864054E+02  0.18815737407E+03  0.20068957358E+03  0.00000000000E+00 0.  1.
<mgrwt>
<rscale>  0 0.11092622E+04</rscale>
<asrwt>0</asrwt>
<pdfrwt beam="1">  1        2 0.39048767E-01 0.11092622E+04</pdfrwt>
<pdfrwt beam="2">  1       -2 0.18645515E+00 0.11092622E+04</pdfrwt>
<totfact> 0.21491213E+01</totfact>
</mgrwt>
</event>
<event>
12    1  0.1201209E-007  0.1740594E+04  0.7818608E-02  0.8738545E-01
         -2   -1    0    0    0  501 -0.00000000000E+00  0.00000000000E+00  0.10211251645E+04  0.10211251645E+04  0.00000000000E+00 0.  1.
          2   -1    0    0  501    0  0.00000000000E+00 -0.00000000000E+00 -0.74174742040E+03  0.74174742040E+03  0.00000000000E+00 0. -1.
         23    2    1    2    0    0  0.10450640280E+03  0.67852045309E+02  0.72833374599E+03  0.74527780094E+03  0.97177501225E+02 0.  0.
        254    2    1    2    0    0 -0.10450640280E+03 -0.67852045309E+02 -0.44895600187E+03  0.10175947840E+04  0.90466135349E+03 0.  0.
        -24    2    4    4    0    0 -0.46301405736E+03  0.58222197161E+02 -0.41187867957E+03  0.62761865188E+03  0.80556091903E+02 0.  0.
         24    2    4    4    0    0  0.35850765455E+03 -0.12607424247E+03 -0.37077322299E+02  0.38997613211E+03  0.79272963848E+02 0.  0.
         11    1    3    3    0    0  0.43898228212E+02  0.62269185046E+02  0.57939420000E+03  0.58438184848E+03  0.00000000000E+00 0.  1.
        -11    1    3    3    0    0  0.60608174591E+02  0.55828602625E+01  0.14893954600E+03  0.16089595246E+03  0.00000000000E+00 0. -1.
          2    1    6    6  502    0  0.51074492807E+02 -0.32742167277E+02 -0.32127238868E+02  0.68649929430E+02  0.00000000000E+00 0. -1.
          1    1    5    5  503    0 -0.12178660697E+03  0.51556599628E+02 -0.11247263171E+03  0.17360919759E+03  0.00000000000E+00 0. -1.
         -2    1    5    5    0  503 -0.34122745038E+03  0.66655975332E+01 -0.29940604786E+03  0.45400945429E+03  0.00000000000E+00 0.  1.
         -1    1    6    6    0  502  0.30743316175E+03 -0.93332075193E+02 -0.49500834307E+01  0.32132620268E+03  0.00000000000E+00 0.  1.
<mgrwt>
<rscale>  0 0.17405941E+04</rscale>
<asrwt>0</asrwt>
<pdfrwt beam="1">  1        2 0.11411499E+00 0.17405941E+04</pdfrwt>
<pdfrwt beam="2">  1       -2 0.15709618E+00 0.17405941E+04</pdfrwt>
<totfact> 0.95477051E+00</totfact>
</mgrwt>
</event>
<event>
12    1  0.1201209E-007  0.2017547E+04  0.7818608E-02  0.8598461E-01
          2   -1    0    0  501    0  0.00000000000E+00  0.00000000000E+00  0.17975313166E+04  0.17975313166E+04  0.00000000000E+00 0. -1.
         -2   -1    0    0    0  501 -0.00000000000E+00 -0.00000000000E+00 -0.56612296724E+03  0.56612296724E+03  0.00000000000E+00 0.  1.
         23    2    1    2    0    0 -0.55571554215E+03  0.27099786164E+03 -0.11415997621E+03  0.63537020059E+03  0.91668897818E+02 0.  0.
        254    2    1    2    0    0  0.55571554215E+03 -0.27099786164E+03  0.13455683255E+04  0.17282840832E+04  0.89115214684E+03 0.  0.
        -24    2    4    4    0    0 -0.97337600320E+01 -0.46881875869E+03  0.66952661375E+03  0.82155954697E+03  0.82513199649E+02 0.  0.
         24    2    4    4    0    0  0.56544930218E+03  0.19782089705E+03  0.67604171176E+03  0.90672453623E+03  0.79063062839E+02 0.  0.
         13    1    3    3    0    0 -0.40190213928E+03  0.15587122875E+03 -0.56367679731E+02  0.43473955977E+03  0.00000000000E+00 0.  1.
        -13    1    3    3    0    0 -0.15381340287E+03  0.11512663289E+03 -0.57792296479E+02  0.20063064082E+03  0.00000000000E+00 0. -1.
          2    1    6    6  502    0  0.48491273299E+03  0.16842022890E+03  0.61704353658E+03  0.80265089432E+03  0.00000000000E+00 0. -1.
          3    1    5    5  503    0 -0.33924015697E+02 -0.42099428357E+03  0.60091161753E+03  0.73449424622E+03  0.00000000000E+00 0. -1.
         -4    1    5    5    0  503  0.24190255665E+02 -0.47824475116E+02  0.68614996224E+02  0.87065300758E+02  0.00000000000E+00 0.  1.
         -1    1    6    6    0  502  0.80536569191E+02  0.29400668155E+02  0.58998175185E+02  0.10407364191E+03  0.00000000000E+00 0.  1.
<mgrwt>
<rscale>  0 0.20175468E+04</rscale>
<asrwt>0</asrwt>
<pdfrwt beam="1">  1        2 0.27654328E+00 0.20175468E+04</pdfrwt>
<pdfrwt beam="2">  1       -2 0.87095842E-01 0.20175468E+04</pdfrwt>
<totfact> 0.91516907E+00</totfact>
</mgrwt>
</event>
<event>
12    1  0.1448192E-007  0.2118741E+04  0.7818608E-02  0.8553033E-01
         -1   -1    0    0    0  501 -0.00000000000E+00  0.00000000000E+00  0.67185362368E+03  0.67185362368E+03  0.00000000000E+00 0.  1.
          1   -1    0    0  501    0  0.00000000000E+00 -0.00000000000E+00 -0.16704020553E+04  0.16704020553E+04  0.00000000000E+00 0. -1.
         23    2    1    2    0    0 -0.32294157462E+03 -0.32596039876E+03 -0.12066079408E+04  0.12941605073E+04  0.91691077145E+02 0.  0.
        254    2    1    2    0    0  0.32294157462E+03  0.32596039876E+03  0.20805950922E+03  0.10480951717E+04  0.91906109008E+03 0.  0.
        -24    2    4    4    0    0  0.34102350505E+02 -0.21817901992E+02  0.49740490354E+03  0.50534860812E+03  0.79539842253E+02 0.  0.
         24    2    4    4    0    0  0.28883922411E+03  0.34777830075E+03 -0.28934539432E+03  0.54274656353E+03  0.80468821006E+02 0.  0.
         11    1    3    3    0    0 -0.27899227672E+03 -0.24891952900E+03 -0.88963153106E+03  0.96500874786E+03  0.00000000000E+00 0. -1.
        -11    1    3    3    0    0 -0.43949297898E+02 -0.77040869759E+02 -0.31697640976E+03  0.32915175944E+03  0.00000000000E+00 0.  1.
          2    1    6    6  502    0  0.30504403789E+02  0.46551017100E+02 -0.78333814214E+01  0.56203894065E+02  0.00000000000E+00 0. -1.
          3    1    5    5  503    0  0.17617235668E+02 -0.24625804882E+02  0.56289886473E+02  0.63916731595E+02  0.00000000000E+00 0. -1.
         -4    1    5    5    0  503  0.16485114837E+02  0.28079028901E+01  0.44111501707E+03  0.44143187653E+03  0.00000000000E+00 0.  1.
         -1    1    6    6    0  502  0.25833482032E+03  0.30122728365E+03 -0.28151201290E+03  0.48654266947E+03  0.00000000000E+00 0.  1.
<mgrwt>
<rscale>  0 0.21187408E+04</rscale>
<asrwt>0</asrwt>
<pdfrwt beam="1">  1        1 0.25698493E+00 0.21187408E+04</pdfrwt>
<pdfrwt beam="2">  1       -1 0.10336210E+00 0.21187408E+04</pdfrwt>
<totfact> 0.40482999E+00</totfact>
</mgrwt>
</event>
<event>
12    1  0.1345899E-007  0.2276902E+04  0.7818608E-02  0.8487085E-01
          2   -1    0    0  501    0  0.00000000000E+00  0.00000000000E+00  0.12127403570E+04  0.12127403570E+04  0.00000000000E+00 0. -1.
         -2   -1    0    0    0  501 -0.00000000000E+00 -0.00000000000E+00 -0.10687120871E+04  0.10687120871E+04  0.00000000000E+00 0.  1.
         23    2    1    2    0    0 -0.73996840036E+03  0.60065944794E+03  0.49184113739E+02  0.95864691792E+03  0.90773510789E+02 0.  0.
        254    2    1    2    0    0  0.73996840036E+03 -0.60065944794E+03  0.94844156185E+02  0.13228055262E+04  0.91240015360E+03 0.  0.
        -24    2    4    4    0    0  0.30842619695E+03 -0.25413018391E+03  0.49068055666E+03  0.63815911389E+03  0.82284728957E+02 0.  0.
         24    2    4    4    0    0  0.43154220341E+03 -0.34652926403E+03 -0.39583640047E+03  0.68464641233E+03  0.75782912464E+02 0.  0.
         13    1    3    3    0    0 -0.85482944272E+02  0.48476097785E+02 -0.17230750770E+02  0.99770559736E+02  0.00000000000E+00 0. -1.
        -13    1    3    3    0    0 -0.65448545609E+03  0.55218335016E+03  0.66414864509E+02  0.85887635819E+03  0.00000000000E+00 0.  1.
          4    1    6    6  502    0  0.82534275904E+02 -0.99330202259E+02 -0.11562175869E+03  0.17334009018E+03  0.00000000000E+00 0. -1.
          1    1    5    5  503    0  0.75500082934E+02 -0.60456701688E+02  0.68409649723E+02  0.11847006152E+03  0.00000000000E+00 0. -1.
         -2    1    5    5    0  503  0.23292611402E+03 -0.19367348222E+03  0.42227090693E+03  0.51968905237E+03  0.00000000000E+00 0.  1.
         -3    1    6    6    0  502  0.34900792750E+03 -0.24719906178E+03 -0.28021464178E+03  0.51130632215E+03  0.00000000000E+00 0.  1.
<mgrwt>
<rscale>  0 0.22769016E+04</rscale>
<asrwt>0</asrwt>
<pdfrwt beam="1">  1        2 0.18657544E+00 0.22769016E+04</pdfrwt>
<pdfrwt beam="2">  1       -2 0.16441725E+00 0.22769016E+04</pdfrwt>
<totfact> 0.39524438E+00</totfact>
</mgrwt>
</event>
<event>
12    1  0.1201209E-007  0.2019154E+04  0.7818608E-02  0.8597718E-01
         -1   -1    0    0    0  501 -0.00000000000E+00  0.00000000000E+00  0.18695548141E+04  0.18695548141E+04  0.00000000000E+00 0.  1.
          1   -1    0    0  501    0  0.00000000000E+00 -0.00000000000E+00 -0.54518102802E+03  0.54518102802E+03  0.00000000000E+00 0. -1.
         23    2    1    2    0    0  0.63418306570E+03 -0.12580407174E+03  0.10991872779E+04  0.12788452788E+04  0.96009113496E+02 0.  0.
        254    2    1    2    0    0 -0.63418306570E+03  0.12580407174E+03  0.22518650817E+03  0.11358905633E+04  0.90637938144E+03 0.  0.
        -24    2    4    4    0    0  0.39702513105E+02 -0.13110287987E+03 -0.22989633716E+03  0.27911648554E+03  0.79305939277E+02 0.  0.
         24    2    4    4    0    0 -0.67388557881E+03  0.25690695161E+03  0.45508284533E+03  0.85677407779E+03  0.82695037009E+02 0.  0.
         11    1    3    3    0    0  0.41601927304E+03 -0.79020503315E+02  0.62707644748E+03  0.75666448739E+03  0.00000000000E+00 0. -1.
        -11    1    3    3    0    0  0.21816379266E+03 -0.46783568427E+02  0.47211083043E+03  0.52218079141E+03  0.00000000000E+00 0.  1.
          2    1    6    6  502    0 -0.40809174840E+03  0.11933004969E+03  0.24025488469E+03  0.48836558589E+03  0.00000000000E+00 0. -1.
          1    1    5    5  503    0  0.30976067995E+02 -0.34747103253E+02 -0.13815276517E+03  0.14578430813E+03  0.00000000000E+00 0. -1.
         -2    1    5    5    0  503  0.87264451100E+01 -0.96355776618E+02 -0.91743571988E+02  0.13333217741E+03  0.00000000000E+00 0.  1.
         -1    1    6    6    0  502 -0.26579383041E+03  0.13757690193E+03  0.21482796064E+03  0.36840849189E+03  0.00000000000E+00 0.  1.
<mgrwt>
<rscale>  0 0.20191541E+04</rscale>
<asrwt>0</asrwt>
<pdfrwt beam="1">  1        1 0.83874005E-01 0.20191541E+04</pdfrwt>
<pdfrwt beam="2">  1       -1 0.28762381E+00 0.20191541E+04</pdfrwt>
<totfact> 0.14456048E+00</totfact>
</mgrwt>
</event>
<event>
12    1  0.1201209E-007  0.1639905E+04  0.7818608E-02  0.8796401E-01
          1   -1    0    0  501    0  0.00000000000E+00  0.00000000000E+00  0.23659830101E+04  0.23659830101E+04  0.00000000000E+00 0. -1.
         -1   -1    0    0    0  501 -0.00000000000E+00 -0.00000000000E+00 -0.28416201774E+03  0.28416201774E+03  0.00000000000E+00 0.  1.
         23    2    1    2    0    0  0.52123928222E+03 -0.16608340082E+03  0.11242820983E+04  0.12536961841E+04  0.92031517236E+02 0.  0.
        254    2    1    2    0    0 -0.52123928222E+03  0.16608340082E+03  0.95753889399E+03  0.13964488437E+04  0.85668813117E+03 0.  0.
        -24    2    4    4    0    0 -0.86851234765E+02 -0.29513451415E+03  0.56072365041E+03  0.64462774124E+03  0.80538153875E+02 0.  0.
         24    2    4    4    0    0 -0.43438804745E+03  0.46121791497E+03  0.39681524358E+03  0.75182110241E+03  0.79735134232E+02 0.  0.
         13    1    3    3    0    0  0.45844938695E+03 -0.17354601533E+03  0.96621137635E+03  0.10834474992E+04  0.00000000000E+00 0. -1.
        -13    1    3    3    0    0  0.62789895265E+02  0.74626145178E+01  0.15807072198E+03  0.17024868490E+03  0.00000000000E+00 0.  1.
          2    1    6    6  502    0 -0.36505416499E+03  0.40994215973E+03  0.31465053386E+03  0.63271010436E+03  0.00000000000E+00 0. -1.
          3    1    5    5  503    0 -0.75157798700E+02 -0.19645103760E+03  0.44421019339E+03  0.49149201498E+03  0.00000000000E+00 0. -1.
         -4    1    5    5    0  503 -0.11693436065E+02 -0.98683476552E+02  0.11651345702E+03  0.15313572626E+03  0.00000000000E+00 0.  1.
         -1    1    6    6    0  502 -0.69333882467E+02  0.51275755235E+02  0.82164709717E+02  0.11911099805E+03  0.00000000000E+00 0.  1.
<mgrwt>
<rscale>  0 0.16399055E+04</rscale>
<asrwt>0</asrwt>
<pdfrwt beam="1">  1        1 0.36399737E+00 0.16399055E+04</pdfrwt>
<pdfrwt beam="2">  1       -1 0.43717235E-01 0.16399055E+04</pdfrwt>
<totfact> 0.82999169E+00</totfact>
</mgrwt>
</event>
<event>
12    1  0.1201209E-007  0.1269088E+04  0.7818608E-02  0.9054444E-01
          1   -1    0    0  501    0  0.00000000000E+00  0.00000000000E+00  0.47992485351E+04  0.47992485351E+04  0.00000000000E+00 0. -1.
         -1   -1    0    0    0  501 -0.00000000000E+00 -0.00000000000E+00 -0.83897767237E+02  0.83897767237E+02  0.00000000000E+00 0.  1.
         23    2    1    2    0    0  0.16170593082E+03 -0.23555336740E+03  0.15389739448E+04  0.15704418943E+04  0.12732927210E+03 0.  0.
        254    2    1    2    0    0 -0.16170593082E+03  0.23555336740E+03  0.31763768231E+04  0.33127044081E+04  0.89610634202E+03 0.  0.
        -24    2    4    4    0    0 -0.23164624942E+02  0.28761432204E+03  0.31228403659E+04  0.31371383724E+04  0.79035552081E+02 0.  0.
         24    2    4    4    0    0 -0.13854130587E+03 -0.52060954638E+02  0.53536457185E+02  0.17556603571E+03  0.77802597748E+02 0.  0.
         11    1    3    3    0    0  0.81781511065E+02 -0.17563324912E+03  0.12444112918E+04  0.12594025238E+04  0.00000000000E+00 0. -1.
        -11    1    3    3    0    0  0.79924419750E+02 -0.59920118284E+02  0.29456265297E+03  0.31103937046E+03  0.00000000000E+00 0.  1.
          2    1    6    6  502    0 -0.15624012487E+02 -0.40824089640E+02  0.16124014179E+02  0.46590770484E+02  0.00000000000E+00 0. -1.
          3    1    5    5  503    0 -0.36850773088E+01 -0.24532241092E+01  0.12887567921E+02  0.13626720450E+02  0.00000000000E+00 0. -1.
         -4    1    5    5    0  503 -0.19479547634E+02  0.29006754615E+03  0.31099527979E+04  0.31235116519E+04  0.00000000000E+00 0.  1.
         -1    1    6    6    0  502 -0.12291729339E+03 -0.11236864998E+02  0.37412443006E+02  0.12897526523E+03  0.00000000000E+00 0.  1.
<mgrwt>
<rscale>  0 0.12690882E+04</rscale>
<asrwt>0</asrwt>
<pdfrwt beam="1">  1        1 0.73834571E+00 0.12690882E+04</pdfrwt>
<pdfrwt beam="2">  1       -1 0.12907353E-01 0.12690882E+04</pdfrwt>
<totfact> 0.66319300E-01</totfact>
</mgrwt>
</event>
<event>
12    1  0.1201209E-007  0.3136411E+04  0.7818608E-02  0.8205816E-01
          1   -1    0    0  501    0  0.00000000000E+00  0.00000000000E+00  0.19495780436E+04  0.19495780436E+04  0.00000000000E+00 0. -1.
         -1   -1    0    0    0  501 -0.00000000000E+00 -0.00000000000E+00 -0.12614363475E+04  0.12614363475E+04  0.00000000000E+00 0.  1.
         23    2    1    2    0    0  0.27486158365E+03  0.10852674627E+04 -0.60769406271E+03  0.12771637306E+04  0.92199593701E+02 0.  0.
        254    2    1    2    0    0 -0.27486158365E+03 -0.10852674627E+04  0.12958357589E+04  0.19338506605E+04  0.89846185646E+03 0.  0.
        -24    2    4    4    0    0  0.38789213851E+02 -0.10568923125E+04  0.11871128150E+04  0.15918342048E+04  0.78570584176E+02 0.  0.
         24    2    4    4    0    0 -0.31365079750E+03 -0.28375150200E+02  0.10872294387E+03  0.34201645573E+03  0.77282634180E+02 0.  0.
         11    1    3    3    0    0  0.23109670504E+02  0.24356858664E+03 -0.14007504873E+03  0.28192327422E+03  0.00000000000E+00 0. -1.
        -11    1    3    3    0    0  0.25175191315E+03  0.84169887608E+03 -0.46761901398E+03  0.99524045638E+03  0.00000000000E+00 0.  1.
          4    1    6    6  502    0 -0.12360830999E+03 -0.10390757441E+02  0.83349285463E+02  0.14944592844E+03  0.00000000000E+00 0. -1.
          1    1    5    5  503    0 -0.15680840771E+02 -0.73461101248E+02  0.72471546073E+02  0.10437694743E+03  0.00000000000E+00 0. -1.
         -2    1    5    5    0  503  0.54470054622E+02 -0.98343121128E+03  0.11146412689E+04  0.14874572574E+04  0.00000000000E+00 0.  1.
         -3    1    6    6    0  502 -0.19004248751E+03 -0.17984392759E+02  0.25373658409E+02  0.19257052730E+03  0.00000000000E+00 0.  1.
<mgrwt>
<rscale>  0 0.31364111E+04</rscale>
<asrwt>0</asrwt>
<pdfrwt beam="1">  1        1 0.29993508E+00 0.31364111E+04</pdfrwt>
<pdfrwt beam="2">  1       -1 0.19406713E+00 0.31364111E+04</pdfrwt>
<totfact> 0.44885194E-01</totfact>
</mgrwt>
</event>
<event>
12    1  0.1201209E-007  0.2180126E+04  0.7818608E-02  0.8526746E-01
          1   -1    0    0  501    0  0.00000000000E+00  0.00000000000E+00  0.11722797778E+04  0.11722797778E+04  0.00000000000E+00 0. -1.
         -1   -1    0    0    0  501 -0.00000000000E+00 -0.00000000000E+00 -0.10136124304E+04  0.10136124304E+04  0.00000000000E+00 0.  1.
         23    2    1    2    0    0  0.79376701162E+03  0.65246023749E+02  0.48690436748E+03  0.94086158947E+03  0.11756511011E+03 0.  0.
        254    2    1    2    0    0 -0.79376701162E+03 -0.65246023749E+02 -0.32823702012E+03  0.12450306187E+04  0.89890966612E+03 0.  0.
        -24    2    4    4    0    0 -0.52118069309E+02  0.16869196779E+03  0.21931336855E+03  0.29074645734E+03  0.72538787470E+02 0.  0.
         24    2    4    4    0    0 -0.74164894231E+03 -0.23393799154E+03 -0.54755038867E+03  0.95428416139E+03  0.77953159124E+02 0.  0.
         11    1    3    3    0    0  0.24935823454E+03  0.68991255044E+02  0.12685873091E+03  0.28815353549E+03  0.00000000000E+00 0. -1.
        -11    1    3    3    0    0  0.54440877708E+03 -0.37452312952E+01  0.36004563658E+03  0.65270805398E+03  0.00000000000E+00 0.  1.
          4    1    6    6  502    0 -0.34132074064E+03 -0.12668478801E+03 -0.29820747103E+03  0.47061298249E+03  0.00000000000E+00 0. -1.
          1    1    5    5  503    0 -0.47018697503E+02  0.54102448979E+02  0.54955883707E+02  0.90321548118E+02  0.00000000000E+00 0. -1.
         -2    1    5    5    0  503 -0.50993718059E+01  0.11458951881E+03  0.16435748484E+03  0.20042490923E+03  0.00000000000E+00 0.  1.
         -3    1    6    6    0  502 -0.40032820167E+03 -0.10725320353E+03 -0.24934291764E+03  0.48367117890E+03  0.00000000000E+00 0.  1.
<mgrwt>
<rscale>  0 0.21801260E+04</rscale>
<asrwt>0</asrwt>
<pdfrwt beam="1">  1        1 0.18035074E+00 0.21801260E+04</pdfrwt>
<pdfrwt beam="2">  1       -1 0.15594037E+00 0.21801260E+04</pdfrwt>
<totfact> 0.32103610E+00</totfact>
</mgrwt>
</event>
<event>
12    1  0.1201209E-007  0.2069898E+04  0.7818608E-02  0.8574621E-01
         -2   -1    0    0    0  501 -0.00000000000E+00  0.00000000000E+00  0.56916592064E+03  0.56916592064E+03  0.00000000000E+00 0. -1.
          2   -1    0    0  501    0  0.00000000000E+00 -0.00000000000E+00 -0.18819103427E+04  0.18819103427E+04  0.00000000000E+00 0.  1.
         23    2    1    2    0    0  0.33988814875E+03  0.61692199435E+03 -0.10682815194E+04  0.12827905106E+04  0.90605676663E+02 0.  0.
        254    2    1    2    0    0 -0.33988814875E+03 -0.61692199435E+03 -0.24446290264E+03  0.11682857527E+04  0.89945138194E+03 0.  0.
        -24    2    4    4    0    0 -0.47542356660E+03 -0.59468467576E+03 -0.46689997227E+03  0.89662813120E+03  0.79176955620E+02 0.  0.
         24    2    4    4    0    0  0.13553541785E+03 -0.22237318586E+02  0.22243706962E+03  0.27165762152E+03  0.73859769525E+02 0.  0.
         13    1    3    3    0    0  0.33195990992E+03  0.55737421459E+03 -0.95398300232E+03  0.11536667481E+04  0.00000000000E+00 0.  1.
        -13    1    3    3    0    0  0.79282388246E+01  0.59547779760E+02 -0.11429851710E+03  0.12912376256E+03  0.00000000000E+00 0. -1.
          2    1    6    6  502    0  0.18301129871E+02 -0.12627457456E+02  0.97732720593E+02  0.10023007887E+03  0.00000000000E+00 0. -1.
          1    1    5    5  503    0 -0.12351177916E+03 -0.12595992666E+03 -0.14209315721E+03  0.22652048040E+03  0.00000000000E+00 0. -1.
         -2    1    5    5    0  503 -0.35191178744E+03 -0.46872474910E+03 -0.32480681506E+03  0.67010765080E+03  0.00000000000E+00 0.  1.
         -1    1    6    6    0  502  0.11723428798E+03 -0.96098611296E+01  0.12470434903E+03  0.17142754264E+03  0.00000000000E+00 0.  1.
<mgrwt>
<rscale>  0 0.20698978E+04</rscale>
<asrwt>0</asrwt>
<pdfrwt beam="1">  1        2 0.28952467E+00 0.20698978E+04</pdfrwt>
<pdfrwt beam="2">  1       -2 0.87563987E-01 0.20698978E+04</pdfrwt>
<totfact> 0.80811009E+00</totfact>
</mgrwt>
</event>
<event>
12    1  0.1201209E-007  0.1256492E+04  0.7818608E-02  0.9064797E-01
         -1   -1    0    0    0  501 -0.00000000000E+00  0.00000000000E+00  0.50633807399E+03  0.50633807399E+03  0.00000000000E+00 0.  1.
          1   -1    0    0  501    0  0.00000000000E+00 -0.00000000000E+00 -0.77950496698E+03  0.77950496698E+03  0.00000000000E+00 0. -1.
         23    2    1    2    0    0  0.15018215763E+02  0.17867757768E+03  0.17275291987E+03  0.26530228096E+03  0.91599701914E+02 0.  0.
        254    2    1    2    0    0 -0.15018215763E+02 -0.17867757768E+03 -0.44591981285E+03  0.10205407600E+04  0.90028203347E+03 0.  0.
        -24    2    4    4    0    0  0.15952251263E+03  0.11173613877E+03  0.19869712161E+03  0.28806000376E+03  0.74603102396E+02 0.  0.
         24    2    4    4    0    0 -0.17454072840E+03 -0.29041371645E+03 -0.64461693446E+03  0.73248075625E+03  0.78692270949E+02 0.  0.
         11    1    3    3    0    0  0.41576790430E+02  0.16064119425E+03  0.16074414617E+03  0.23102576332E+03  0.00000000000E+00 0.  1.
        -11    1    3    3    0    0 -0.26558574667E+02  0.18036383429E+02  0.12008773699E+02  0.34276517636E+02  0.00000000000E+00 0. -1.
          2    1    6    6  502    0 -0.16500066856E+03 -0.26912737257E+03 -0.63076771809E+03  0.70535287444E+03  0.00000000000E+00 0. -1.
          3    1    5    5  503    0  0.14187292300E+03  0.12130773228E+03  0.18943239097E+03  0.26594759434E+03  0.00000000000E+00 0. -1.
         -4    1    5    5    0  503  0.17649589633E+02 -0.95715935022E+01  0.92647306435E+01  0.22112409418E+02  0.00000000000E+00 0.  1.
         -1    1    6    6    0  502 -0.95400598356E+01 -0.21286343879E+02 -0.13849216371E+02  0.27127881810E+02  0.00000000000E+00 0.  1.
<mgrwt>
<rscale>  0 0.12564920E+04</rscale>
<asrwt>0</asrwt>
<pdfrwt beam="1">  1        1 0.11992384E+00 0.12564920E+04</pdfrwt>
<pdfrwt beam="2">  1       -1 0.77898165E-01 0.12564920E+04</pdfrwt>
<totfact> 0.37514132E+01</totfact>
</mgrwt>
</event>
<event>
12    1  0.1201209E-007  0.1816845E+04  0.7818608E-02  0.8697392E-01
         -1   -1    0    0    0  501 -0.00000000000E+00  0.00000000000E+00  0.19981929269E+03  0.19981929269E+03  0.00000000000E+00 0.  1.
          1   -1    0    0  501    0  0.00000000000E+00 -0.00000000000E+00 -0.41298898235E+04  0.41298898235E+04  0.00000000000E+00 0. -1.
         23    2    1    2    0    0 -0.14602612460E+03  0.27501061622E+03 -0.44196695544E+02  0.32607880062E+03  0.86136915510E+02 0.  0.
        254    2    1    2    0    0  0.14602612460E+03 -0.27501061622E+03 -0.38858738353E+04  0.40036303156E+04  0.91218735578E+03 0.  0.
        -24    2    4    4    0    0  0.19511223930E+03  0.25590545642E+03 -0.24037015950E+04  0.24265173685E+04  0.81540134352E+02 0.  0.
         24    2    4    4    0    0 -0.49086114696E+02 -0.53091607264E+03 -0.14821722403E+04  0.15771129470E+04  0.78545369067E+02 0.  0.
         13    1    3    3    0    0 -0.69598196219E+02  0.10324330827E+03  0.22631070080E+02  0.12655139254E+03  0.00000000000E+00 0. -1.
        -13    1    3    3    0    0 -0.76427928386E+02  0.17176730795E+03 -0.66827765624E+02  0.19952740808E+03  0.00000000000E+00 0.  1.
          2    1    6    6  502    0 -0.42573663065E+02 -0.40380454182E+03 -0.12175759069E+04  0.12834958956E+04  0.00000000000E+00 0. -1.
          1    1    5    5  503    0  0.15632343060E+03  0.24677648570E+03 -0.21139253013E+04  0.21340140178E+04  0.00000000000E+00 0. -1.
         -2    1    5    5    0  503  0.38788808704E+02  0.91289707252E+01 -0.28977629370E+03  0.29250335071E+03  0.00000000000E+00 0.  1.
         -1    1    6    6    0  502 -0.65124516310E+01 -0.12711153083E+03 -0.26459633334E+03  0.29361705147E+03  0.00000000000E+00 0.  1.
<mgrwt>
<rscale>  0 0.18168452E+04</rscale>
<asrwt>0</asrwt>
<pdfrwt beam="1">  1        1 0.63536769E+00 0.18168452E+04</pdfrwt>
<pdfrwt beam="2">  1       -1 0.30741429E-01 0.18168452E+04</pdfrwt>
<totfact> 0.68470590E-01</totfact>
</mgrwt>
</event>
<event>
12    1  0.1201209E-007  0.2268690E+04  0.7818608E-02  0.8490369E-01
          1   -1    0    0  501    0  0.00000000000E+00  0.00000000000E+00  0.16455957142E+04  0.16455957142E+04  0.00000000000E+00 0. -1.
         -1   -1    0    0    0  501 -0.00000000000E+00 -0.00000000000E+00 -0.78192907497E+03  0.78192907497E+03  0.00000000000E+00 0.  1.
         23    2    1    2    0    0 -0.36954466749E+03 -0.86915571280E+03  0.21825012597E+03  0.97360077532E+03  0.90941947740E+02 0.  0.
        254    2    1    2    0    0  0.36954466749E+03  0.86915571280E+03  0.64541651324E+03  0.14539240138E+04  0.89740606645E+03 0.  0.
        -24    2    4    4    0    0  0.27794013079E+03  0.19782381389E+03  0.68624532673E+03  0.77048368980E+03  0.79545522529E+02 0.  0.
         24    2    4    4    0    0  0.91604536697E+02  0.67133189891E+03 -0.40828813489E+02  0.68344032404E+03  0.79660372013E+02 0.  0.
         11    1    3    3    0    0 -0.35070045489E+03 -0.75735048326E+03  0.20525219893E+03  0.85947601986E+03  0.00000000000E+00 0.  1.
        -11    1    3    3    0    0 -0.18844212596E+02 -0.11180522954E+03  0.12997927040E+02  0.11412475546E+03  0.00000000000E+00 0. -1.
          4    1    6    6  502    0  0.12848916480E+02  0.10911946362E+03  0.22704034733E+02  0.11219458628E+03  0.00000000000E+00 0. -1.
          1    1    5    5  503    0  0.17523099143E+03  0.76871764193E+02  0.35990753984E+03  0.40761330415E+03  0.00000000000E+00 0. -1.
         -2    1    5    5    0  503  0.10270913936E+03  0.12095204969E+03  0.32633778689E+03  0.36287038565E+03  0.00000000000E+00 0.  1.
         -3    1    6    6    0  502  0.78755620217E+02  0.56221243529E+03 -0.63532848223E+02  0.57124573776E+03  0.00000000000E+00 0.  1.
<mgrwt>
<rscale>  0 0.22686905E+04</rscale>
<asrwt>0</asrwt>
<pdfrwt beam="1">  1        1 0.25316857E+00 0.22686905E+04</pdfrwt>
<pdfrwt beam="2">  1       -1 0.12029678E+00 0.22686905E+04</pdfrwt>
<totfact> 0.28955835E+00</totfact>
</mgrwt>
</event>
<event>
12    1  0.1201209E-007  0.1740977E+04  0.7818608E-02  0.8738333E-01
          1   -1    0    0  501    0  0.00000000000E+00  0.00000000000E+00  0.19357924137E+04  0.19357924137E+04  0.00000000000E+00 0. -1.
         -1   -1    0    0    0  501 -0.00000000000E+00 -0.00000000000E+00 -0.39144169451E+03  0.39144169451E+03  0.00000000000E+00 0.  1.
         23    2    1    2    0    0  0.37231418705E+03  0.50868936718E+03  0.66027070430E+03  0.91760729243E+03  0.93075313640E+02 0.  0.
        254    2    1    2    0    0 -0.37231418705E+03 -0.50868936718E+03  0.88408001490E+03  0.14096268158E+04  0.89892578164E+03 0.  0.
        -24    2    4    4    0    0 -0.20844997977E+03  0.23917126334E+03  0.28665704836E+03  0.43511329542E+03  0.80604151287E+02 0.  0.
         24    2    4    4    0    0 -0.16386420728E+03 -0.74786063051E+03  0.59742296654E+03  0.97451352037E+03  0.81335105201E+02 0.  0.
         11    1    3    3    0    0  0.35174008422E+03  0.48716173013E+03  0.65210667288E+03  0.88673037106E+03  0.00000000000E+00 0. -1.
        -11    1    3    3    0    0  0.20574102832E+02  0.21527637044E+02  0.81640314167E+01  0.30876921366E+02  0.00000000000E+00 0.  1.
          4    1    6    6  502    0 -0.14816276007E+03 -0.66366046920E+03  0.56057179927E+03  0.88127076656E+03  0.00000000000E+00 0. -1.
          1    1    5    5  503    0 -0.18978278737E+03  0.21064918484E+03  0.28338137417E+03  0.40086854289E+03  0.00000000000E+00 0. -1.
         -2    1    5    5    0  503 -0.18667192400E+02  0.28522078501E+02  0.32756741853E+01  0.34244752525E+02  0.00000000000E+00 0.  1.
         -3    1    6    6    0  502 -0.15701447209E+02 -0.84200161315E+02  0.36851167267E+02  0.93242753814E+02  0.00000000000E+00 0.  1.
<mgrwt>
<rscale>  0 0.17409766E+04</rscale>
<asrwt>0</asrwt>
<pdfrwt beam="1">  1        1 0.29781421E+00 0.17409766E+04</pdfrwt>
<pdfrwt beam="2">  1       -1 0.60221800E-01 0.17409766E+04</pdfrwt>
<totfact> 0.87367661E+00</totfact>
</mgrwt>
</event>
<event>
12    1  0.1201209E-007  0.1708536E+04  0.7818608E-02  0.8756511E-01
         -1   -1    0    0    0  501 -0.00000000000E+00  0.00000000000E+00  0.42427946284E+03  0.42427946284E+03  0.00000000000E+00 0.  1.
          1   -1    0    0  501    0  0.00000000000E+00 -0.00000000000E+00 -0.17200300833E+04  0.17200300833E+04  0.00000000000E+00 0. -1.
         23    2    1    2    0    0 -0.56494300344E+03 -0.29816203722E+03 -0.63993832776E+03  0.90875744193E+03  0.90872588532E+02 0.  0.
        254    2    1    2    0    0  0.56494300344E+03  0.29816203722E+03 -0.65581229267E+03  0.12355521042E+04  0.82972166499E+03 0.  0.
        -24    2    4    4    0    0  0.42478331727E+03 -0.17829845655E+02 -0.75222608311E+03  0.86773144674E+03  0.79718338720E+02 0.  0.
         24    2    4    4    0    0  0.14015968616E+03  0.31599188288E+03  0.96413790440E+02  0.36782065744E+03  0.80627596896E+02 0.  0.
         13    1    3    3    0    0 -0.52617639141E+03 -0.30080754353E+03 -0.59476353211E+03  0.84917043769E+03  0.00000000000E+00 0. -1.
        -13    1    3    3    0    0 -0.38766612027E+02  0.26455063053E+01 -0.45174795653E+02  0.59587004236E+02  0.00000000000E+00 0.  1.
          4    1    6    6  502    0  0.19404752602E+02  0.55662611334E+02 -0.13577654592E+02  0.60491515341E+02  0.00000000000E+00 0. -1.
          1    1    5    5  503    0  0.50301166884E+02  0.16682864778E+02 -0.13411328697E+03  0.14420436578E+03  0.00000000000E+00 0. -1.
         -4    1    5    5    0  503  0.37448215039E+03 -0.34512710433E+02 -0.61811279613E+03  0.72352708096E+03  0.00000000000E+00 0.  1.
         -3    1    6    6    0  502  0.12075493356E+03  0.26032927154E+03  0.10999144503E+03  0.30732914210E+03  0.00000000000E+00 0.  1.
<mgrwt>
<rscale>  0 0.17085356E+04</rscale>
<asrwt>0</asrwt>
<pdfrwt beam="1">  1        1 0.26462001E+00 0.17085356E+04</pdfrwt>
<pdfrwt beam="2">  1       -1 0.65273765E-01 0.17085356E+04</pdfrwt>
<totfact> 0.10449375E+01</totfact>
</mgrwt>
</event>
<event>
12    1  0.1201209E-007  0.2152535E+04  0.7818608E-02  0.8538448E-01
          2   -1    0    0  501    0  0.00000000000E+00  0.00000000000E+00  0.29761093494E+04  0.29761093494E+04  0.00000000000E+00 0.  1.
         -2   -1    0    0    0  501 -0.00000000000E+00 -0.00000000000E+00 -0.38921666873E+03  0.38921666873E+03  0.00000000000E+00 0. -1.
         23    2    1    2    0    0  0.70129018470E+03  0.62818217042E+01  0.24077169111E+03  0.74719949222E+03  0.92134084339E+02 0.  0.
        254    2    1    2    0    0 -0.70129018470E+03 -0.62818217042E+01  0.23461209895E+04  0.26181265259E+04  0.92652869550E+03 0.  0.
        -24    2    4    4    0    0 -0.49624521575E+02 -0.16741881939E+03  0.17039973857E+02  0.19290565345E+03  0.80190873531E+02 0.  0.
         24    2    4    4    0    0 -0.65166566312E+03  0.16113699768E+03  0.23290810157E+04  0.24252208724E+04  0.80278477793E+02 0.  0.
         13    1    3    3    0    0  0.56986007846E+02 -0.70642751470E+01  0.47147656044E+02  0.74298119384E+02  0.00000000000E+00 0.  1.
        -13    1    3    3    0    0  0.64430417685E+03  0.13346096851E+02  0.19362403507E+03  0.67290137284E+03  0.00000000000E+00 0. -1.
          2    1    6    6  502    0 -0.11074302660E+03  0.58942599676E+02  0.41394693244E+03  0.43253937494E+03  0.00000000000E+00 0. -1.
          3    1    5    5  503    0 -0.45489603894E+02 -0.16635758051E+03 -0.29246625884E+01  0.17248971653E+03  0.00000000000E+00 0. -1.
         -4    1    5    5    0  503 -0.41349176804E+01 -0.10612388780E+01  0.19964636445E+02  0.20415936926E+02  0.00000000000E+00 0.  1.
         -1    1    6    6    0  502 -0.54092263652E+03  0.10219439801E+03  0.19151340832E+04  0.19926814975E+04  0.00000000000E+00 0.  1.
<mgrwt>
<rscale>  0 0.21525347E+04</rscale>
<asrwt>0</asrwt>
<pdfrwt beam="1">  1        2 0.45786296E+00 0.21525347E+04</pdfrwt>
<pdfrwt beam="2">  1       -2 0.59879489E-01 0.21525347E+04</pdfrwt>
<totfact> 0.43071784E+00</totfact>
</mgrwt>
</event>
<event>
12    1  0.1201209E-007  0.1930027E+04  0.7818608E-02  0.8640053E-01
         -1   -1    0    0    0  501 -0.00000000000E+00  0.00000000000E+00  0.84009852178E+03  0.84009852178E+03  0.00000000000E+00 0.  1.
          1   -1    0    0  501    0  0.00000000000E+00 -0.00000000000E+00 -0.11085019823E+04  0.11085019823E+04  0.00000000000E+00 0. -1.
         23    2    1    2    0    0  0.20146220577E+03 -0.71056185900E+03 -0.24125969850E+03  0.78450558650E+03  0.10843245505E+03 0.  0.
        254    2    1    2    0    0 -0.20146220577E+03  0.71056185900E+03 -0.27143762067E+02  0.11640949176E+04  0.89938591139E+03 0.  0.
        -24    2    4    4    0    0 -0.53740810842E+03  0.45584752434E+03 -0.13085232209E+03  0.72136276539E+03  0.81470661303E+02 0.  0.
         24    2    4    4    0    0  0.33594590264E+03  0.25471433466E+03  0.10370856003E+03  0.44273215224E+03  0.86702084281E+02 0.  0.
         13    1    3    3    0    0  0.34165348717E+02 -0.13763894235E+03 -0.92765074547E+02  0.16946123026E+03  0.00000000000E+00 0.  1.
        -13    1    3    3    0    0  0.16729685706E+03 -0.57292291665E+03 -0.14849462396E+03  0.61504435624E+03  0.00000000000E+00 0. -1.
          4    1    6    6  502    0  0.18006426937E+03  0.13948641919E+03  0.11471144477E+02  0.22805961808E+03  0.00000000000E+00 0. -1.
          1    1    5    5  503    0 -0.42200458677E+03  0.36257460168E+03 -0.69112154534E+02  0.56064668281E+03  0.00000000000E+00 0. -1.
         -2    1    5    5    0  503 -0.11540352165E+03  0.93272922656E+02 -0.61740167561E+02  0.16071608258E+03  0.00000000000E+00 0.  1.
         -3    1    6    6    0  502  0.15588163328E+03  0.11522791547E+03  0.92237415551E+02  0.21467253416E+03  0.00000000000E+00 0.  1.
<mgrwt>
<rscale>  0 0.19300268E+04</rscale>
<asrwt>0</asrwt>
<pdfrwt beam="1">  1        1 0.17053877E+00 0.19300268E+04</pdfrwt>
<pdfrwt beam="2">  1       -1 0.12924593E+00 0.19300268E+04</pdfrwt>
<totfact> 0.60010331E+00</totfact>
</mgrwt>
</event>
<event>
12    1  0.1201209E-007  0.1732872E+04  0.7818608E-02  0.8742835E-01
         -2   -1    0    0    0  501 -0.00000000000E+00  0.00000000000E+00  0.29436191403E+03  0.29436191403E+03  0.00000000000E+00 0.  1.
          2   -1    0    0  501    0  0.00000000000E+00 -0.00000000000E+00 -0.25502996718E+04  0.25502996718E+04  0.00000000000E+00 0. -1.
         23    2    1    2    0    0  0.47583847475E+03 -0.32508431293E+03 -0.40998626333E+03  0.71261916962E+03  0.87380090506E+02 0.  0.
        254    2    1    2    0    0 -0.47583847475E+03  0.32508431293E+03 -0.18459514944E+04  0.21320424162E+04  0.89775602483E+03 0.  0.
        -24    2    4    4    0    0 -0.10147488258E+02  0.37750277138E+03 -0.23498617318E+03  0.45234955746E+03  0.82403316845E+02 0.  0.
         24    2    4    4    0    0 -0.46569098649E+03 -0.52418458449E+02 -0.16109653212E+04  0.16796928587E+04  0.80889083121E+02 0.  0.
         13    1    3    3    0    0  0.14906593813E+03 -0.11634690835E+03 -0.87820792741E+02  0.20849400143E+03  0.00000000000E+00 0. -1.
        -13    1    3    3    0    0  0.32677253662E+03 -0.20873740458E+03 -0.32216547059E+03  0.50412516819E+03  0.00000000000E+00 0.  1.
          4    1    6    6  502    0 -0.10558295732E+03 -0.20004067013E+02 -0.26371531261E+03  0.28476953784E+03  0.00000000000E+00 0. -1.
          1    1    5    5  503    0 -0.19268781682E+02  0.14501309043E+03 -0.13516318093E+03  0.19917120229E+03  0.00000000000E+00 0. -1.
         -2    1    5    5    0  503  0.91212934241E+01  0.23248968095E+03 -0.99822992253E+02  0.25317835516E+03  0.00000000000E+00 0.  1.
         -3    1    6    6    0  502 -0.36010802918E+03 -0.32414391436E+02 -0.13472500086E+04  0.13949233209E+04  0.00000000000E+00 0.  1.
<mgrwt>
<rscale>  0 0.17328717E+04</rscale>
<asrwt>0</asrwt>
<pdfrwt beam="1">  1        2 0.39235380E+00 0.17328717E+04</pdfrwt>
<pdfrwt beam="2">  1       -2 0.45286447E-01 0.17328717E+04</pdfrwt>
<totfact> 0.14306011E+01</totfact>
</mgrwt>
</event>
<event>
12    1  0.1656869E-007  0.1551203E+04  0.7818608E-02  0.8851100E-01
         -2   -1    0    0    0  501 -0.00000000000E+00  0.00000000000E+00  0.24862165967E+03  0.24862165967E+03  0.00000000000E+00 0. -1.
          2   -1    0    0  501    0  0.00000000000E+00 -0.00000000000E+00 -0.24195694319E+04  0.24195694319E+04  0.00000000000E+00 0.  1.
         23    2    1    2    0    0 -0.91096470976E+02 -0.39724118565E+03 -0.19783550445E+03  0.46327051916E+03  0.96858456022E+02 0.  0.
        254    2    1    2    0    0  0.91096470976E+02  0.39724118565E+03 -0.19731122678E+04  0.22049205724E+04  0.89576982690E+03 0.  0.
        -24    2    4    4    0    0  0.93526953773E+02  0.62929293854E+03 -0.17823943648E+04  0.18941687632E+04  0.78668533947E+02 0.  0.
         24    2    4    4    0    0 -0.24304827975E+01 -0.23205175290E+03 -0.19071790301E+03  0.31075180924E+03  0.79620632666E+02 0.  0.
         11    1    3    3    0    0  0.81389993678E+01 -0.52956097615E+00  0.15742397035E+01  0.83067428142E+01  0.00000000000E+00 0. -1.
        -11    1    3    3    0    0 -0.99235470344E+02 -0.39671162467E+03 -0.19940974415E+03  0.45496377634E+03  0.00000000000E+00 0.  1.
          4    1    6    6  502    0 -0.32234076429E+02 -0.18623542185E+03 -0.13202129001E+03  0.23054780209E+03  0.00000000000E+00 0. -1.
          3    1    5    5  503    0  0.96861353942E+02  0.59089829137E+03 -0.16159690996E+04  0.17233395033E+04  0.00000000000E+00 0. -1.
         -4    1    5    5    0  503 -0.33344001685E+01  0.38394647170E+02 -0.16642526514E+03  0.17082925988E+03  0.00000000000E+00 0.  1.
         -3    1    6    6    0  502  0.29803593631E+02 -0.45816331049E+02 -0.58696613001E+02  0.80204007144E+02  0.00000000000E+00 0.  1.
<mgrwt>
<rscale>  0 0.15512026E+04</rscale>
<asrwt>0</asrwt>
<pdfrwt beam="1">  1        2 0.37224145E+00 0.15512026E+04</pdfrwt>
<pdfrwt beam="2">  1       -2 0.38249486E-01 0.15512026E+04</pdfrwt>
<totfact> 0.24112979E+01</totfact>
</mgrwt>
</event>
<event>
12    1  0.1201209E-007  0.3719901E+04  0.7818608E-02  0.8063566E-01
          2   -1    0    0  501    0  0.00000000000E+00  0.00000000000E+00  0.13618480225E+04  0.13618480225E+04  0.00000000000E+00 0. -1.
         -2   -1    0    0    0  501 -0.00000000000E+00 -0.00000000000E+00 -0.25402357025E+04  0.25402357025E+04  0.00000000000E+00 0.  1.
         23    2    1    2    0    0 -0.12454675319E+04 -0.11689602867E+04 -0.95729784303E+03  0.19601876651E+04  0.90879025697E+02 0.  0.
        254    2    1    2    0    0  0.12454675319E+04  0.11689602867E+04 -0.22108983697E+03  0.19418960598E+04  0.89689579450E+03 0.  0.
        -24    2    4    4    0    0  0.56319639520E+03  0.10923989869E+04 -0.21807930126E+03  0.12507071137E+04  0.78638263915E+02 0.  0.
         24    2    4    4    0    0  0.68227113672E+03  0.76561299863E+02 -0.30105357065E+01  0.69118894614E+03  0.79859622477E+02 0.  0.
         13    1    3    3    0    0 -0.71273754524E+03 -0.61232721777E+03 -0.50485596530E+03  0.10666859780E+04  0.00000000000E+00 0.  1.
        -13    1    3    3    0    0 -0.53272998668E+03 -0.55663306896E+03 -0.45244187774E+03  0.89350168712E+03  0.00000000000E+00 0. -1.
          4    1    6    6  502    0  0.56982656836E+03  0.38050410720E+02 -0.18075222335E+02  0.57138154103E+03  0.00000000000E+00 0. -1.
          3    1    5    5  503    0  0.11355788140E+03  0.28737852221E+03 -0.69693063703E+02  0.31676320902E+03  0.00000000000E+00 0. -1.
         -4    1    5    5    0  503  0.44963851380E+03  0.80502046465E+03 -0.14838623756E+03  0.93394390468E+03  0.00000000000E+00 0.  1.
         -3    1    6    6    0  502  0.11244456835E+03  0.38510889143E+02  0.15064686629E+02  0.11980740510E+03  0.00000000000E+00 0.  1.
<mgrwt>
<rscale>  0 0.37199005E+04</rscale>
<asrwt>0</asrwt>
<pdfrwt beam="1">  1        2 0.20951508E+00 0.37199005E+04</pdfrwt>
<pdfrwt beam="2">  1       -2 0.39080549E+00 0.37199005E+04</pdfrwt>
<totfact> 0.10460806E-01</totfact>
</mgrwt>
</event>
<event>
12    1  0.1201209E-007  0.1632197E+04  0.7818608E-02  0.8801008E-01
         -2   -1    0    0    0  501 -0.00000000000E+00  0.00000000000E+00  0.47994382242E+03  0.47994382242E+03  0.00000000000E+00 0. -1.
          2   -1    0    0  501    0  0.00000000000E+00 -0.00000000000E+00 -0.13876980828E+04  0.13876980828E+04  0.00000000000E+00 0.  1.
         23    2    1    2    0    0  0.53826739327E+03 -0.12373761092E+03 -0.43690870462E+03  0.71008080470E+03  0.91009615011E+02 0.  0.
        254    2    1    2    0    0 -0.53826739327E+03  0.12373761092E+03 -0.47084555575E+03  0.11575611005E+04  0.90178122681E+03 0.  0.
        -24    2    4    4    0    0  0.94695995528E+01 -0.20741767565E+03 -0.46235145653E+03  0.51272640685E+03  0.77509569970E+02 0.  0.
         24    2    4    4    0    0 -0.54773699282E+03  0.33115528658E+03 -0.84940992200E+01  0.64483469366E+03  0.77845971585E+02 0.  0.
         11    1    3    3    0    0  0.34416720964E+03 -0.72452473348E+02 -0.33157000011E+03  0.48336228034E+03  0.00000000000E+00 0.  1.
        -11    1    3    3    0    0  0.19410018363E+03 -0.51285137575E+02 -0.10533870451E+03  0.22671852436E+03  0.00000000000E+00 0. -1.
          2    1    6    6  502    0 -0.14285398820E+03  0.56198382443E+02  0.18783362750E+02  0.15465553611E+03  0.00000000000E+00 0. -1.
          1    1    5    5  503    0  0.20570048173E+02 -0.18459666057E+03 -0.44436413521E+03  0.48162074149E+03  0.00000000000E+00 0. -1.
         -2    1    5    5    0  503 -0.11100448620E+02 -0.22821015081E+02 -0.17987321316E+02  0.31105665352E+02  0.00000000000E+00 0.  1.
         -3    1    6    6    0  502 -0.40488300462E+03  0.27495690413E+03 -0.27277461970E+02  0.49017915755E+03  0.00000000000E+00 0.  1.
<mgrwt>
<rscale>  0 0.16321974E+04</rscale>
<asrwt>0</asrwt>
<pdfrwt beam="1">  1        2 0.21349201E+00 0.16321974E+04</pdfrwt>
<pdfrwt beam="2">  1       -2 0.73837511E-01 0.16321974E+04</pdfrwt>
<totfact> 0.23256567E+01</totfact>
</mgrwt>
</event>
<event>
12    1  0.1201209E-007  0.2727373E+04  0.7818608E-02  0.8326178E-01
          1   -1    0    0  501    0  0.00000000000E+00  0.00000000000E+00  0.38780831714E+04  0.38780831714E+04  0.00000000000E+00 0. -1.
         -1   -1    0    0    0  501 -0.00000000000E+00 -0.00000000000E+00 -0.47952583078E+03  0.47952583078E+03  0.00000000000E+00 0.  1.
         23    2    1    2    0    0 -0.38866880121E+03 -0.53254658648E+03  0.31326398854E+04  0.32025451068E+04  0.90516327436E+02 0.  0.
        254    2    1    2    0    0  0.38866880121E+03  0.53254658648E+03  0.26591745517E+03  0.11550638954E+04  0.91037970407E+03 0.  0.
        -24    2    4    4    0    0  0.16924932846E+03  0.18758472854E+03 -0.33277810944E+03  0.42546010557E+03  0.80259988419E+02 0.  0.
         24    2    4    4    0    0  0.21941947274E+03  0.34496185794E+03  0.59869556461E+03  0.72960378979E+03  0.82107993119E+02 0.  0.
         11    1    3    3    0    0 -0.21233870182E+03 -0.36427172628E+03  0.19584326021E+04  0.20033072335E+04  0.00000000000E+00 0.  1.
        -11    1    3    3    0    0 -0.17633009939E+03 -0.16827486020E+03  0.11742072833E+04  0.11992378733E+04  0.00000000000E+00 0. -1.
          4    1    6    6  502    0  0.64453581084E+02  0.17631620969E+03  0.25751095235E+03  0.31867469384E+03  0.00000000000E+00 0. -1.
          1    1    5    5  503    0  0.14389652772E+03  0.12341154407E+03 -0.28197876610E+03  0.33977734538E+03  0.00000000000E+00 0. -1.
         -2    1    5    5    0  503  0.25352800740E+02  0.64173184463E+02 -0.50799343336E+02  0.85682760185E+02  0.00000000000E+00 0.  1.
         -1    1    6    6    0  502  0.15496589166E+03  0.16864564825E+03  0.34118461227E+03  0.41092909595E+03  0.00000000000E+00 0.  1.
<mgrwt>
<rscale>  0 0.27273731E+04</rscale>
<asrwt>0</asrwt>
<pdfrwt beam="1">  1        1 0.59662816E+00 0.27273731E+04</pdfrwt>
<pdfrwt beam="2">  1       -1 0.73773207E-01 0.27273731E+04</pdfrwt>
<totfact> 0.19743160E-01</totfact>
</mgrwt>
</event>
<event>
12    1  0.1201209E-007  0.1790332E+04  0.7818608E-02  0.8711458E-01
         -1   -1    0    0    0  501 -0.00000000000E+00  0.00000000000E+00  0.44874173889E+03  0.44874173889E+03  0.00000000000E+00 0.  1.
          1   -1    0    0  501    0  0.00000000000E+00 -0.00000000000E+00 -0.17857099017E+04  0.17857099017E+04  0.00000000000E+00 0. -1.
         23    2    1    2    0    0  0.21683603724E+03  0.48747081307E+03 -0.10086412705E+04  0.11450406954E+04  0.95474189056E+02 0.  0.
        254    2    1    2    0    0 -0.21683603724E+03 -0.48747081307E+03 -0.32832689231E+03  0.10894109453E+04  0.89127548983E+03 0.  0.
        -24    2    4    4    0    0  0.13090972276E+03 -0.52809599520E+03  0.68995651887E+02  0.55363789762E+03  0.75708559892E+02 0.  0.
         24    2    4    4    0    0 -0.34774576000E+03  0.40625182123E+02 -0.39732254420E+03  0.53577304764E+03  0.81302124354E+02 0.  0.
         13    1    3    3    0    0  0.21930632756E+03  0.41418404415E+03 -0.87419098119E+03  0.99189392544E+03  0.00000000000E+00 0. -1.
        -13    1    3    3    0    0 -0.24702903161E+01  0.73286768926E+02 -0.13445028935E+03  0.15314676993E+03  0.00000000000E+00 0.  1.
          4    1    6    6  502    0 -0.18555137654E+03 -0.17711865485E+02 -0.22268045179E+03  0.29039560452E+03  0.00000000000E+00 0. -1.
          1    1    5    5  503    0  0.11830524300E+03 -0.39344999891E+03  0.77656176024E+02  0.41812619367E+03  0.00000000000E+00 0. -1.
         -4    1    5    5    0  503  0.12604479759E+02 -0.13464599629E+03 -0.86605241375E+01  0.13551170394E+03  0.00000000000E+00 0.  1.
         -3    1    6    6    0  502 -0.16219438346E+03  0.58337047608E+02 -0.17464209241E+03  0.24537744312E+03  0.00000000000E+00 0.  1.
<mgrwt>
<rscale>  0 0.17903324E+04</rscale>
<asrwt>0</asrwt>
<pdfrwt beam="1">  1        1 0.27472460E+00 0.17903324E+04</pdfrwt>
<pdfrwt beam="2">  1       -1 0.69037191E-01 0.17903324E+04</pdfrwt>
<totfact> 0.83517652E+00</totfact>
</mgrwt>
</event>
<event>
12    1  0.1201209E-007  0.2260152E+04  0.7818608E-02  0.8493800E-01
          2   -1    0    0  501    0  0.00000000000E+00  0.00000000000E+00  0.11344511872E+04  0.11344511872E+04  0.00000000000E+00 0. -1.
         -2   -1    0    0    0  501 -0.00000000000E+00 -0.00000000000E+00 -0.11257175455E+04  0.11257175455E+04  0.00000000000E+00 0.  1.
         23    2    1    2    0    0 -0.39509893237E+03  0.78850768198E+03 -0.35054159576E+03  0.95346070221E+03  0.91435055637E+02 0.  0.
        254    2    1    2    0    0  0.39509893237E+03 -0.78850768198E+03  0.35927523741E+03  0.13067080305E+04  0.89473999008E+03 0.  0.
        -24    2    4    4    0    0  0.12455462011E+01 -0.17955161652E+03 -0.27651086896E+03  0.33926202083E+03  0.80000773381E+02 0.  0.
         24    2    4    4    0    0  0.39385338617E+03 -0.60895606547E+03  0.63578610638E+03  0.96744600967E+03  0.76025187325E+02 0.  0.
         11    1    3    3    0    0 -0.32102013203E+02  0.86100708851E+02 -0.94846459776E+01  0.92378730375E+02  0.00000000000E+00 0.  1.
        -11    1    3    3    0    0 -0.36299691917E+03  0.70240697313E+03 -0.34105694978E+03  0.86108197184E+03  0.00000000000E+00 0. -1.
          2    1    6    6  502    0  0.14345760966E+03 -0.21949611810E+03  0.27928931137E+03  0.38309418043E+03  0.00000000000E+00 0. -1.
          1    1    5    5  503    0  0.31071949874E+02 -0.10363673053E+03 -0.11247105563E+03  0.15606337283E+03  0.00000000000E+00 0. -1.
         -2    1    5    5    0  503 -0.29826403673E+02 -0.75914885990E+02 -0.16403981333E+03  0.18319864800E+03  0.00000000000E+00 0.  1.
         -1    1    6    6    0  502  0.25039577651E+03 -0.38945994737E+03  0.35649679500E+03  0.58435182925E+03  0.00000000000E+00 0.  1.
<mgrwt>
<rscale>  0 0.22601519E+04</rscale>
<asrwt>0</asrwt>
<pdfrwt beam="1">  1        2 0.17453095E+00 0.22601519E+04</pdfrwt>
<pdfrwt beam="2">  1       -2 0.17318731E+00 0.22601519E+04</pdfrwt>
<totfact> 0.38187088E+00</totfact>
</mgrwt>
</event>
<event>
12    1  0.1201209E-007  0.1794313E+04  0.7818608E-02  0.8709330E-01
         -1   -1    0    0    0  501 -0.00000000000E+00  0.00000000000E+00  0.65318654226E+03  0.65318654226E+03  0.00000000000E+00 0.  1.
          1   -1    0    0  501    0  0.00000000000E+00 -0.00000000000E+00 -0.12322506453E+04  0.12322506453E+04  0.00000000000E+00 0. -1.
         23    2    1    2    0    0 -0.25289024861E+03  0.47660159554E+03  0.21040122606E+03  0.58619534916E+03  0.90850166385E+02 0.  0.
        254    2    1    2    0    0  0.25289024861E+03 -0.47660159554E+03 -0.78946532912E+03  0.12992418384E+04  0.87958586285E+03 0.  0.
        -24    2    4    4    0    0  0.37628242729E+03  0.35883176658E+02 -0.54138073010E+02  0.39094720834E+03  0.83861321842E+02 0.  0.
         24    2    4    4    0    0 -0.12339217869E+03 -0.51248477220E+03 -0.73532725611E+03  0.90829463010E+03  0.80166638817E+02 0.  0.
         13    1    3    3    0    0 -0.48977072398E+02  0.10059234433E+03  0.84819298407E+02  0.14039902685E+03  0.00000000000E+00 0. -1.
        -13    1    3    3    0    0 -0.20391317621E+03  0.37600925121E+03  0.12558192765E+03  0.44579632230E+03  0.00000000000E+00 0.  1.
          4    1    6    6  502    0 -0.72612157642E+02 -0.41887345858E+03 -0.61467637856E+03  0.74736507150E+03  0.00000000000E+00 0. -1.
          3    1    5    5  503    0  0.31679232353E+03  0.26319799812E+02 -0.13307654253E+02  0.31816222556E+03  0.00000000000E+00 0. -1.
         -4    1    5    5    0  503  0.59490103761E+02  0.95633768461E+01 -0.40830418757E+02  0.72784982779E+02  0.00000000000E+00 0.  1.
         -3    1    6    6    0  502 -0.50780021045E+02 -0.93611313624E+02 -0.12065087755E+03  0.16092955860E+03  0.00000000000E+00 0.  1.
<mgrwt>
<rscale>  0 0.17943127E+04</rscale>
<asrwt>0</asrwt>
<pdfrwt beam="1">  1        1 0.18957702E+00 0.17943127E+04</pdfrwt>
<pdfrwt beam="2">  1       -1 0.10049024E+00 0.17943127E+04</pdfrwt>
<totfact> 0.90072906E+00</totfact>
</mgrwt>
</event>
<event>
12    1  0.1201209E-007  0.1272493E+04  0.7818608E-02  0.9051668E-01
          2   -1    0    0  501    0  0.00000000000E+00  0.00000000000E+00  0.28655235665E+03  0.28655235665E+03  0.00000000000E+00 0. -1.
         -2   -1    0    0    0  501 -0.00000000000E+00 -0.00000000000E+00 -0.14126896110E+04  0.14126896110E+04  0.00000000000E+00 0.  1.
         23    2    1    2    0    0  0.10064994746E+02  0.23688062190E+03 -0.55295388050E+03  0.60846760967E+03  0.90890620530E+02 0.  0.
        254    2    1    2    0    0 -0.10064994746E+02 -0.23688062190E+03 -0.57318337386E+03  0.10907743580E+04  0.89723786525E+03 0.  0.
        -24    2    4    4    0    0 -0.24085373339E+02  0.32626226894E+03 -0.10186531179E+03  0.35199004314E+03  0.80580862355E+02 0.  0.
         24    2    4    4    0    0  0.14020378593E+02 -0.56314289084E+03 -0.47131806207E+03  0.73878431486E+03  0.79593101011E+02 0.  0.
         13    1    3    3    0    0 -0.18738727651E+02  0.79038953190E+02 -0.28304262932E+03  0.29446803910E+03  0.00000000000E+00 0.  1.
        -13    1    3    3    0    0  0.28803722397E+02  0.15784166871E+03 -0.26991125118E+03  0.31399957057E+03  0.00000000000E+00 0. -1.
          2    1    6    6  502    0 -0.20566510657E+02 -0.63077262877E+02 -0.72050742590E+02  0.97944024628E+02  0.00000000000E+00 0. -1.
          1    1    5    5  503    0 -0.25356933837E+02  0.24821626885E+02 -0.10993354414E+02  0.37147558414E+02  0.00000000000E+00 0. -1.
         -2    1    5    5    0  503  0.12715604978E+01  0.30144064205E+03 -0.90871957375E+02  0.31484248472E+03  0.00000000000E+00 0.  1.
         -1    1    6    6    0  502  0.34586889249E+02 -0.50006562796E+03 -0.39926731948E+03  0.64084029023E+03  0.00000000000E+00 0.  1.
<mgrwt>
<rscale>  0 0.12724929E+04</rscale>
<asrwt>0</asrwt>
<pdfrwt beam="1">  1        2 0.44084978E-01 0.12724929E+04</pdfrwt>
<pdfrwt beam="2">  1       -2 0.21733686E+00 0.12724929E+04</pdfrwt>
<totfact> 0.11660174E+01</totfact>
</mgrwt>
</event>
<event>
12    1  0.1201209E-007  0.1999627E+04  0.7818608E-02  0.8606795E-01
         -2   -1    0    0    0  501 -0.00000000000E+00  0.00000000000E+00  0.95285138002E+03  0.95285138002E+03  0.00000000000E+00 0.  1.
          2   -1    0    0  501    0  0.00000000000E+00 -0.00000000000E+00 -0.10490906265E+04  0.10490906265E+04  0.00000000000E+00 0. -1.
         23    2    1    2    0    0 -0.59783859467E+03 -0.10757144836E+03 -0.54929044489E+03  0.82394693444E+03  0.90476273959E+02 0.  0.
        254    2    1    2    0    0  0.59783859467E+03  0.10757144836E+03  0.45305119838E+03  0.11779950721E+04  0.90190598169E+03 0.  0.
        -24    2    4    4    0    0  0.37273051107E+03  0.19397075167E+03 -0.20393556716E+03  0.47382436640E+03  0.79794287103E+02 0.  0.
         24    2    4    4    0    0  0.22510808359E+03 -0.86399303305E+02  0.65698676554E+03  0.70417070572E+03  0.78014638247E+02 0.  0.
         13    1    3    3    0    0 -0.33064421382E+03 -0.21309502013E+02 -0.26377110473E+03  0.42350311298E+03  0.00000000000E+00 0. -1.
        -13    1    3    3    0    0 -0.26719438084E+03 -0.86261946351E+02 -0.28551934016E+03  0.40044382147E+03  0.00000000000E+00 0.  1.
          4    1    6    6  502    0  0.63263842221E+02 -0.59083333268E+02  0.17996428121E+03  0.19970051706E+03  0.00000000000E+00 0. -1.
          3    1    5    5  503    0  0.18723443658E+03  0.13819513238E+03 -0.12947798679E+03  0.26630654877E+03  0.00000000000E+00 0. -1.
         -2    1    5    5    0  503  0.18549607449E+03  0.55775619288E+02 -0.74457580375E+02  0.20751781763E+03  0.00000000000E+00 0.  1.
         -3    1    6    6    0  502  0.16184424137E+03 -0.27315970037E+02  0.47702248433E+03  0.50447018866E+03  0.00000000000E+00 0.  1.
<mgrwt>
<rscale>  0 0.19996274E+04</rscale>
<asrwt>0</asrwt>
<pdfrwt beam="1">  1        2 0.16139856E+00 0.19996274E+04</pdfrwt>
<pdfrwt beam="2">  1       -2 0.14659252E+00 0.19996274E+04</pdfrwt>
<totfact> 0.69334202E+00</totfact>
</mgrwt>
</event>
<event>
12    1  0.1201209E-007  0.1275957E+04  0.7818608E-02  0.9048852E-01
          2   -1    0    0  501    0  0.00000000000E+00  0.00000000000E+00  0.76975010910E+03  0.76975010910E+03  0.00000000000E+00 0. -1.
         -2   -1    0    0    0  501 -0.00000000000E+00 -0.00000000000E+00 -0.52876417709E+03  0.52876417709E+03  0.00000000000E+00 0.  1.
         23    2    1    2    0    0  0.87694283941E+02 -0.27965119443E+03  0.16738599279E+03  0.34958558369E+03  0.91087495080E+02 0.  0.
        254    2    1    2    0    0 -0.87694283941E+02  0.27965119443E+03  0.73599939215E+02  0.94892870250E+03  0.89952968456E+03 0.  0.
        -24    2    4    4    0    0  0.19600328173E+03  0.27121656527E+02 -0.32734235029E+03  0.39079884627E+03  0.80111505104E+02 0.  0.
         24    2    4    4    0    0 -0.28369756567E+03  0.25252953790E+03  0.40094228951E+03  0.55812985623E+03  0.80614766760E+02 0.  0.
         13    1    3    3    0    0  0.27063329834E+02 -0.23616206442E+02  0.49771418359E+02  0.61378686153E+02  0.00000000000E+00 0.  1.
        -13    1    3    3    0    0  0.60630954107E+02 -0.25603498798E+03  0.11761457443E+03  0.28820689754E+03  0.00000000000E+00 0. -1.
          2    1    6    6  502    0 -0.28285974112E+03  0.22771038060E+03  0.38047017770E+03  0.52594601121E+03  0.00000000000E+00 0. -1.
          1    1    5    5  503    0  0.15276891925E+03 -0.39264951734E+01 -0.19218381720E+03  0.24553692114E+03  0.00000000000E+00 0. -1.
         -4    1    5    5    0  503  0.43234362486E+02  0.31048151701E+02 -0.13515853310E+03  0.14526192513E+03  0.00000000000E+00 0.  1.
         -1    1    6    6    0  502 -0.83782455054E+00  0.24819157294E+02  0.20472111806E+02  0.32183845024E+02  0.00000000000E+00 0.  1.
<mgrwt>
<rscale>  0 0.12759566E+04</rscale>
<asrwt>0</asrwt>
<pdfrwt beam="1">  1        2 0.11842309E+00 0.12759566E+04</pdfrwt>
<pdfrwt beam="2">  1       -2 0.81348335E-01 0.12759566E+04</pdfrwt>
<totfact> 0.47394141E+01</totfact>
</mgrwt>
</event>
<event>
12    1  0.1201209E-007  0.1622602E+04  0.7818608E-02  0.8806782E-01
          1   -1    0    0  501    0  0.00000000000E+00  0.00000000000E+00  0.79532330077E+03  0.79532330077E+03  0.00000000000E+00 0. -1.
         -1   -1    0    0    0  501 -0.00000000000E+00 -0.00000000000E+00 -0.82760015765E+03  0.82760015765E+03  0.00000000000E+00 0.  1.
         23    2    1    2    0    0  0.13606524749E+02 -0.52700893094E+03 -0.17933186533E+03  0.56445801062E+03  0.92354626431E+02 0.  0.
        254    2    1    2    0    0 -0.13606524749E+02  0.52700893094E+03  0.14705500845E+03  0.10584654478E+04  0.90598034078E+03 0.  0.
        -24    2    4    4    0    0 -0.28509759737E+03  0.29942078179E+03 -0.27327501238E+03  0.50214898217E+03  0.80875974872E+02 0.  0.
         24    2    4    4    0    0  0.27149107262E+03  0.22758814915E+03  0.42033002083E+03  0.55631646563E+03  0.85480497013E+02 0.  0.
         13    1    3    3    0    0 -0.23877771984E+02 -0.20018736126E+03 -0.32487528172E+02  0.20420716709E+03  0.00000000000E+00 0.  1.
        -13    1    3    3    0    0  0.37484296733E+02 -0.32682156968E+03 -0.14684433716E+03  0.36025084353E+03  0.00000000000E+00 0. -1.
          2    1    6    6  502    0  0.16365330737E+03  0.83415652136E+02  0.19496911328E+03  0.26786849603E+03  0.00000000000E+00 0. -1.
          3    1    5    5  503    0 -0.12892220702E+03  0.11033800621E+03 -0.15520822392E+03  0.22996739737E+03  0.00000000000E+00 0. -1.
         -4    1    5    5    0  503 -0.15617539035E+03  0.18908277558E+03 -0.11806678846E+03  0.27218158481E+03  0.00000000000E+00 0.  1.
         -1    1    6    6    0  502  0.10783776525E+03  0.14417249701E+03  0.22536090756E+03  0.28844796959E+03  0.00000000000E+00 0.  1.
<mgrwt>
<rscale>  0 0.16226025E+04</rscale>
<asrwt>0</asrwt>
<pdfrwt beam="1">  1        1 0.12235743E+00 0.16226025E+04</pdfrwt>
<pdfrwt beam="2">  1       -1 0.12732310E+00 0.16226025E+04</pdfrwt>
<totfact> 0.11426663E+01</totfact>
</mgrwt>
</event>
<event>
12    1  0.1201209E-007  0.1236631E+04  0.7818608E-02  0.9081384E-01
          1   -1    0    0  501    0  0.00000000000E+00  0.00000000000E+00  0.11362773020E+04  0.11362773020E+04  0.00000000000E+00 0. -1.
         -1   -1    0    0    0  501 -0.00000000000E+00 -0.00000000000E+00 -0.33646184419E+03  0.33646184419E+03  0.00000000000E+00 0.  1.
         23    2    1    2    0    0 -0.96210009572E+02  0.10406379808E+02  0.47292682713E+03  0.49172943362E+03  0.93666394131E+02 0.  0.
        254    2    1    2    0    0  0.96210009572E+02 -0.10406379808E+02  0.32688863070E+03  0.98100971259E+03  0.91986913234E+03 0.  0.
        -24    2    4    4    0    0  0.11831157392E+03 -0.31792866370E+03 -0.17265445640E+03  0.38872193017E+03  0.78860091039E+02 0.  0.
         24    2    4    4    0    0 -0.22101564346E+02  0.30752228389E+03  0.49954308710E+03  0.59228778241E+03  0.78759679341E+02 0.  0.
         13    1    3    3    0    0  0.20765553008E+01 -0.27816642952E+02  0.73483069507E+02  0.78599231620E+02  0.00000000000E+00 0. -1.
        -13    1    3    3    0    0 -0.98286564872E+02  0.38223022760E+02  0.39944375762E+03  0.41313020200E+03  0.00000000000E+00 0.  1.
          4    1    6    6  502    0 -0.44967617132E+02  0.18656040169E+03  0.34418539310E+03  0.39406909913E+03  0.00000000000E+00 0. -1.
          1    1    5    5  503    0 -0.63261603489E+01 -0.25713810713E+02 -0.31324700198E+02  0.41017766987E+02  0.00000000000E+00 0. -1.
         -4    1    5    5    0  503  0.12463773427E+03 -0.29221485299E+03 -0.14132975620E+03  0.34770416319E+03  0.00000000000E+00 0.  1.
         -3    1    6    6    0  502  0.22866052786E+02  0.12096188220E+03  0.15535769400E+03  0.19821868328E+03  0.00000000000E+00 0.  1.
<mgrwt>
<rscale>  0 0.12366308E+04</rscale>
<asrwt>0</asrwt>
<pdfrwt beam="1">  1        1 0.17481189E+00 0.12366308E+04</pdfrwt>
<pdfrwt beam="2">  1       -1 0.51763361E-01 0.12366308E+04</pdfrwt>
<totfact> 0.44148277E+01</totfact>
</mgrwt>
</event>
<event>
12    1  0.1201209E-007  0.2206315E+04  0.7818608E-02  0.8515804E-01
          2   -1    0    0  501    0  0.00000000000E+00  0.00000000000E+00  0.46622263046E+03  0.46622263046E+03  0.00000000000E+00 0. -1.
         -2   -1    0    0    0  501 -0.00000000000E+00 -0.00000000000E+00 -0.26102467673E+04  0.26102467673E+04  0.00000000000E+00 0.  1.
         23    2    1    2    0    0 -0.89247779578E+03 -0.63779107505E+02 -0.11653443952E+04  0.14715157260E+04  0.82137579208E+02 0.  0.
        254    2    1    2    0    0  0.89247779578E+03  0.63779107505E+02 -0.97867974165E+03  0.16049536718E+04  0.90414482320E+03 0.  0.
        -24    2    4    4    0    0  0.70379930208E+03 -0.27602524906E+03 -0.93617302587E+03  0.12060229409E+04  0.80919737562E+02 0.  0.
         24    2    4    4    0    0  0.18867849370E+03  0.33980435656E+03 -0.42506715781E+02  0.39893073086E+03  0.79198058156E+02 0.  0.
         13    1    3    3    0    0 -0.51475907639E+03  0.26086332745E+01 -0.68465255664E+03  0.85658206554E+03  0.00000000000E+00 0.  1.
        -13    1    3    3    0    0 -0.37771871939E+03 -0.66387740779E+02 -0.48069183857E+03  0.61493366046E+03  0.00000000000E+00 0. -1.
          4    1    6    6  502    0  0.18707806338E+03  0.28597158044E+03 -0.26538713892E+02  0.34275683794E+03  0.00000000000E+00 0. -1.
          1    1    5    5  503    0  0.62981153582E+03 -0.21948661870E+03 -0.83103700754E+03  0.10655793984E+04  0.00000000000E+00 0. -1.
         -2    1    5    5    0  503  0.73987766261E+02 -0.56538630350E+02 -0.10513601833E+03  0.14044354250E+03  0.00000000000E+00 0.  1.
         -3    1    6    6    0  502  0.16004303234E+01  0.53832776117E+02 -0.15968001889E+02  0.56173892922E+02  0.00000000000E+00 0.  1.
<mgrwt>
<rscale>  0 0.22063147E+04</rscale>
<asrwt>0</asrwt>
<pdfrwt beam="1">  1        2 0.71726559E-01 0.22063147E+04</pdfrwt>
<pdfrwt beam="2">  1       -2 0.40157642E+00 0.22063147E+04</pdfrwt>
<totfact> 0.44284254E-01</totfact>
</mgrwt>
</event>
<event>
12    1  0.1201209E-007  0.1730290E+04  0.7818608E-02  0.8744275E-01
          1   -1    0    0  501    0  0.00000000000E+00  0.00000000000E+00  0.16975202650E+04  0.16975202650E+04  0.00000000000E+00 0. -1.
         -1   -1    0    0    0  501 -0.00000000000E+00 -0.00000000000E+00 -0.44092329206E+03  0.44092329206E+03  0.00000000000E+00 0.  1.
         23    2    1    2    0    0  0.48520620627E+03 -0.28659307726E+03  0.80024648034E+03  0.98300909785E+03  0.91388197451E+02 0.  0.
        254    2    1    2    0    0 -0.48520620627E+03  0.28659307726E+03  0.45635049257E+03  0.11554344592E+04  0.89956231737E+03 0.  0.
        -24    2    4    4    0    0 -0.49672457478E+03  0.57211787244E+03  0.36753833603E+03  0.84583848856E+03  0.79398722449E+02 0.  0.
         24    2    4    4    0    0  0.11518368503E+02 -0.28552479519E+03  0.88812156539E+02  0.30959597060E+03  0.79403931803E+02 0.  0.
         11    1    3    3    0    0  0.34746519726E+03 -0.22643164861E+03  0.64574680554E+03  0.76745833220E+03  0.00000000000E+00 0.  1.
        -11    1    3    3    0    0  0.13774100902E+03 -0.60161428646E+02  0.15449967480E+03  0.21555076565E+03  0.00000000000E+00 0. -1.
          2    1    6    6  502    0 -0.80147750144E+01 -0.18873161040E+03  0.93429262784E+02  0.21074364647E+03  0.00000000000E+00 0. -1.
          1    1    5    5  503    0 -0.25082648988E+03  0.22915221729E+03  0.16928144072E+03  0.37957986365E+03  0.00000000000E+00 0. -1.
         -2    1    5    5    0  503 -0.24589808490E+03  0.34296565515E+03  0.19825689531E+03  0.46625862491E+03  0.00000000000E+00 0.  1.
         -1    1    6    6    0  502  0.19533143518E+02 -0.96793184787E+02 -0.46171062448E+01  0.98852324136E+02  0.00000000000E+00 0.  1.
<mgrwt>
<rscale>  0 0.17302904E+04</rscale>
<asrwt>0</asrwt>
<pdfrwt beam="1">  1        1 0.26115696E+00 0.17302904E+04</pdfrwt>
<pdfrwt beam="2">  1       -1 0.67834354E-01 0.17302904E+04</pdfrwt>
<totfact> 0.99931584E+00</totfact>
</mgrwt>
</event>
<event>
12    1  0.1201209E-007  0.2129621E+04  0.7818608E-02  0.8548306E-01
          1   -1    0    0  501    0  0.00000000000E+00  0.00000000000E+00  0.12034967476E+04  0.12034967476E+04  0.00000000000E+00 0. -1.
         -1   -1    0    0    0  501 -0.00000000000E+00 -0.00000000000E+00 -0.94210558009E+03  0.94210558009E+03  0.00000000000E+00 0.  1.
         23    2    1    2    0    0 -0.26927121981E+02  0.43959707907E+03 -0.64592181853E+03  0.78695010855E+03  0.90026750869E+02 0.  0.
        254    2    1    2    0    0  0.26927121981E+02 -0.43959707907E+03  0.90731298608E+03  0.13586522192E+04  0.91035615896E+03 0.  0.
        -24    2    4    4    0    0  0.32386169912E+03  0.89122003353E+02  0.12880195624E+03  0.36868013576E+03  0.80659574360E+02 0.  0.
         24    2    4    4    0    0 -0.29693457714E+03 -0.52871908242E+03  0.77851102984E+03  0.98997208342E+03  0.79065107049E+02 0.  0.
         13    1    3    3    0    0  0.26812354505E+02  0.26548320547E+03 -0.36591134466E+03  0.45287012144E+03  0.00000000000E+00 0.  1.
        -13    1    3    3    0    0 -0.53739476486E+02  0.17411387360E+03 -0.28001047388E+03  0.33407998712E+03  0.00000000000E+00 0. -1.
          4    1    6    6  502    0 -0.13578712974E+03 -0.29049801026E+03  0.46110148124E+03  0.56164206980E+03  0.00000000000E+00 0. -1.
          1    1    5    5  503    0  0.26869526144E+03  0.58469361816E+02  0.13294398815E+03  0.30543397613E+03  0.00000000000E+00 0. -1.
         -2    1    5    5    0  503  0.55166437684E+02  0.30652641537E+02 -0.41420319089E+01  0.63246159633E+02  0.00000000000E+00 0.  1.
         -3    1    6    6    0  502 -0.16114744740E+03 -0.23822107217E+03  0.31740954860E+03  0.42833001362E+03  0.00000000000E+00 0.  1.
<mgrwt>
<rscale>  0 0.21296206E+04</rscale>
<asrwt>0</asrwt>
<pdfrwt beam="1">  1        1 0.18515335E+00 0.21296206E+04</pdfrwt>
<pdfrwt beam="2">  1       -1 0.14493932E+00 0.21296206E+04</pdfrwt>
<totfact> 0.37276751E+00</totfact>
</mgrwt>
</event>
<event>
12    1  0.1201209E-007  0.1696862E+04  0.7818608E-02  0.8763156E-01
         -1   -1    0    0    0  501 -0.00000000000E+00  0.00000000000E+00  0.43410604685E+03  0.43410604685E+03  0.00000000000E+00 0.  1.
          1   -1    0    0  501    0  0.00000000000E+00 -0.00000000000E+00 -0.16582003291E+04  0.16582003291E+04  0.00000000000E+00 0. -1.
         23    2    1    2    0    0 -0.37913170258E+03 -0.22131418572E+03  0.70188240872E+02  0.45363414455E+03  0.90203831643E+02 0.  0.
        254    2    1    2    0    0  0.37913170258E+03  0.22131418572E+03 -0.12942825231E+04  0.16386722314E+04  0.90407887685E+03 0.  0.
        -24    2    4    4    0    0  0.24351115562E+03  0.22509584441E+03 -0.14061421878E+04  0.14471976071E+04  0.84730393281E+02 0.  0.
         24    2    4    4    0    0  0.13562054696E+03 -0.37816586924E+01  0.11185966475E+03  0.19147462424E+03  0.75780692986E+02 0.  0.
         11    1    3    3    0    0 -0.34328066318E+03 -0.22589729847E+03  0.73036205374E+02  0.41737931246E+03  0.00000000000E+00 0.  1.
        -11    1    3    3    0    0 -0.35851039396E+02  0.45831127504E+01 -0.28479645020E+01  0.36254832092E+02  0.00000000000E+00 0. -1.
          4    1    6    6  502    0  0.11690206366E+03  0.10299934575E+02  0.54254778987E+02  0.12928945117E+03  0.00000000000E+00 0. -1.
          3    1    5    5  503    0  0.10684052603E+03  0.12380906378E+03 -0.85123291139E+03  0.86679931455E+03  0.00000000000E+00 0. -1.
         -4    1    5    5    0  503  0.13667062959E+03  0.10128678064E+03 -0.55490927646E+03  0.58039829257E+03  0.00000000000E+00 0.  1.
         -3    1    6    6    0  502  0.18718483298E+02 -0.14081593267E+02  0.57604885766E+02  0.62185173073E+02  0.00000000000E+00 0.  1.
<mgrwt>
<rscale>  0 0.16968616E+04</rscale>
<asrwt>0</asrwt>
<pdfrwt beam="1">  1        1 0.25510774E+00 0.16968616E+04</pdfrwt>
<pdfrwt beam="2">  1       -1 0.66785546E-01 0.16968616E+04</pdfrwt>
<totfact> 0.11004984E+01</totfact>
</mgrwt>
</event>
<event>
12    1  0.1201209E-007  0.2647016E+04  0.7818608E-02  0.8352404E-01
         -1   -1    0    0    0  501 -0.00000000000E+00  0.00000000000E+00  0.54987258950E+03  0.54987258950E+03  0.00000000000E+00 0.  1.
          1   -1    0    0  501    0  0.00000000000E+00 -0.00000000000E+00 -0.31855985415E+04  0.31855985415E+04  0.00000000000E+00 0. -1.
         23    2    1    2    0    0  0.59934249696E+03  0.12703029477E+03 -0.25683363819E+04  0.26419716941E+04  0.91184086535E+02 0.  0.
        254    2    1    2    0    0 -0.59934249696E+03 -0.12703029477E+03 -0.67389570166E+02  0.10934994369E+04  0.90324500548E+03 0.  0.
        -24    2    4    4    0    0 -0.54865882971E+03 -0.18406449604E+03  0.33668171025E+03  0.67483609682E+03  0.84515876763E+02 0.  0.
         24    2    4    4    0    0 -0.50683667243E+02  0.57034201275E+02 -0.40407128041E+03  0.41866334010E+03  0.78636241324E+02 0.  0.
         13    1    3    3    0    0  0.58115398500E+03  0.12834662583E+03 -0.24018303332E+04  0.24744699958E+04  0.00000000000E+00 0. -1.
        -13    1    3    3    0    0  0.18188511953E+02 -0.13163310626E+01 -0.16650604871E+03  0.16750169836E+03  0.00000000000E+00 0.  1.
          2    1    6    6  502    0 -0.71227485112E+02  0.49204500056E+02 -0.34296910528E+03  0.35372622837E+03  0.00000000000E+00 0. -1.
          3    1    5    5  503    0 -0.22450095893E+03 -0.80614717452E+02  0.18702759090E+03  0.30311504910E+03  0.00000000000E+00 0. -1.
         -4    1    5    5    0  503 -0.32415787078E+03 -0.10344977859E+03  0.14965411935E+03  0.37172104772E+03  0.00000000000E+00 0.  1.
         -1    1    6    6    0  502  0.20543817869E+02  0.78297012192E+01 -0.61102175135E+02  0.64937111732E+02  0.00000000000E+00 0.  1.
<mgrwt>
<rscale>  0 0.26470159E+04</rscale>
<asrwt>0</asrwt>
<pdfrwt beam="1">  1        1 0.49009208E+00 0.26470159E+04</pdfrwt>
<pdfrwt beam="2">  1       -1 0.84595784E-01 0.26470159E+04</pdfrwt>
<totfact> 0.52865874E-01</totfact>
</mgrwt>
</event>
<event>
12    1  0.1201209E-007  0.2518334E+04  0.7818608E-02  0.8396483E-01
          2   -1    0    0  501    0  0.00000000000E+00  0.00000000000E+00  0.26921528530E+04  0.26921528530E+04  0.00000000000E+00 0. -1.
         -2   -1    0    0    0  501 -0.00000000000E+00 -0.00000000000E+00 -0.58893423504E+03  0.58893423504E+03  0.00000000000E+00 0.  1.
         23    2    1    2    0    0 -0.64197174156E+03  0.14535126275E+03  0.20597126789E+04  0.21642839595E+04  0.91945805659E+02 0.  0.
        254    2    1    2    0    0  0.64197174156E+03 -0.14535126275E+03  0.43505939081E+02  0.11168031286E+04  0.90116688503E+03 0.  0.
        -24    2    4    4    0    0  0.74371248694E+03 -0.32359001992E+03  0.20904705400E+03  0.84118368237E+03  0.77913750215E+02 0.  0.
         24    2    4    4    0    0 -0.10174074538E+03  0.17823875717E+03 -0.16554111492E+03  0.27561944619E+03  0.80261974549E+02 0.  0.
         11    1    3    3    0    0 -0.20681277005E+03  0.92966207443E+01  0.71594393104E+03  0.74527421893E+03  0.00000000000E+00 0.  1.
        -11    1    3    3    0    0 -0.43515897151E+03  0.13605464200E+03  0.13437687479E+04  0.14190097406E+04  0.00000000000E+00 0. -1.
          4    1    6    6  502    0 -0.43152048332E+02  0.15603608311E+02 -0.49038843032E+02  0.67159362665E+02  0.00000000000E+00 0. -1.
          3    1    5    5  503    0  0.51877269450E+03 -0.22589775550E+03  0.18243467600E+03  0.59450594237E+03  0.00000000000E+00 0. -1.
         -4    1    5    5    0  503  0.22493979243E+03 -0.97692264421E+02  0.26612378001E+02  0.24667774000E+03  0.00000000000E+00 0.  1.
         -3    1    6    6    0  502 -0.58588697043E+02  0.16263514886E+03 -0.11650227189E+03  0.20846008352E+03  0.00000000000E+00 0.  1.
<mgrwt>
<rscale>  0 0.25183336E+04</rscale>
<asrwt>0</asrwt>
<pdfrwt beam="1">  1        2 0.41417736E+00 0.25183336E+04</pdfrwt>
<pdfrwt beam="2">  1       -2 0.90605268E-01 0.25183336E+04</pdfrwt>
<totfact> 0.24870360E+00</totfact>
</mgrwt>
</event>
<event>
12    1  0.1201209E-007  0.1779920E+04  0.7818608E-02  0.8717051E-01
          1   -1    0    0  501    0  0.00000000000E+00  0.00000000000E+00  0.87742443846E+03  0.87742443846E+03  0.00000000000E+00 0. -1.
         -1   -1    0    0    0  501 -0.00000000000E+00 -0.00000000000E+00 -0.90267463740E+03  0.90267463740E+03  0.00000000000E+00 0.  1.
         23    2    1    2    0    0  0.20182919611E+03  0.62335564322E+03 -0.47150116738E+02  0.66324347117E+03  0.91441162555E+02 0.  0.
        254    2    1    2    0    0 -0.20182919611E+03 -0.62335564322E+03  0.21899917795E+02  0.11168556047E+04  0.90420105783E+03 0.  0.
        -24    2    4    4    0    0 -0.92617350721E+02  0.66819829003E+02 -0.30977819258E+03  0.33931309260E+03  0.78281434658E+02 0.  0.
         24    2    4    4    0    0 -0.10921184539E+03 -0.69017547222E+03  0.33167811037E+03  0.77754251209E+03  0.79325781264E+02 0.  0.
         13    1    3    3    0    0  0.10920239159E+03  0.44753670238E+03 -0.57535590773E+02  0.46424627786E+03  0.00000000000E+00 0.  1.
        -13    1    3    3    0    0  0.92626804520E+02  0.17581894084E+03  0.10385474035E+02  0.19899719331E+03  0.00000000000E+00 0. -1.
          4    1    6    6  502    0 -0.86970902515E+01 -0.38285271109E+02  0.21665351803E-01  0.39260690673E+02  0.00000000000E+00 0. -1.
          1    1    5    5  503    0 -0.31901240525E+02  0.12073656417E+01 -0.24170476244E+02  0.40041962998E+02  0.00000000000E+00 0. -1.
         -2    1    5    5    0  503 -0.60716110196E+02  0.65612463361E+02 -0.28560771633E+03  0.29927112960E+03  0.00000000000E+00 0.  1.
         -3    1    6    6    0  502 -0.10051475514E+03 -0.65189020111E+03  0.33165644502E+03  0.73828182141E+03  0.00000000000E+00 0.  1.
<mgrwt>
<rscale>  0 0.17799200E+04</rscale>
<asrwt>0</asrwt>
<pdfrwt beam="1">  1        1 0.13498838E+00 0.17799200E+04</pdfrwt>
<pdfrwt beam="2">  1       -1 0.13887302E+00 0.17799200E+04</pdfrwt>
<totfact> 0.76877110E+00</totfact>
</mgrwt>
</event>
<event>
12    1  0.1201209E-007  0.1707390E+04  0.7818608E-02  0.8757160E-01
          1   -1    0    0  501    0  0.00000000000E+00  0.00000000000E+00  0.62525502561E+03  0.62525502561E+03  0.00000000000E+00 0. -1.
         -1   -1    0    0    0  501 -0.00000000000E+00 -0.00000000000E+00 -0.11655972965E+04  0.11655972965E+04  0.00000000000E+00 0.  1.
         23    2    1    2    0    0 -0.49948830054E+03  0.73989949583E+02 -0.54236017416E+03  0.74688649189E+03  0.93390568219E+02 0.  0.
        254    2    1    2    0    0  0.49948830054E+03 -0.73989949583E+02  0.20179033244E+01  0.10439658302E+04  0.91372726107E+03 0.  0.
        -24    2    4    4    0    0  0.18746456545E+03  0.41128814432E+03 -0.44764641588E+02  0.46075712755E+03  0.77410312593E+02 0.  0.
         24    2    4    4    0    0  0.31202373508E+03 -0.48527809390E+03  0.46782544912E+02  0.58320870262E+03  0.71345249535E+02 0.  0.
         11    1    3    3    0    0 -0.64984965914E+02 -0.18343863086E+02 -0.94011538996E+02  0.11574848842E+03  0.00000000000E+00 0. -1.
        -11    1    3    3    0    0 -0.43450333462E+03  0.92333812669E+02 -0.44834863517E+03  0.63113800346E+03  0.00000000000E+00 0.  1.
          4    1    6    6  502    0  0.15625329174E+03 -0.28601808888E+03  0.53074569392E+02  0.33020955205E+03  0.00000000000E+00 0. -1.
          3    1    5    5  503    0  0.18329496774E+03  0.33818876858E+03 -0.28272956945E+02  0.38570461300E+03  0.00000000000E+00 0. -1.
         -4    1    5    5    0  503  0.41695977088E+01  0.73099375736E+02 -0.16491684643E+02  0.75052514551E+02  0.00000000000E+00 0.  1.
         -3    1    6    6    0  502  0.15577044335E+03 -0.19926000502E+03 -0.62920244799E+01  0.25299915058E+03  0.00000000000E+00 0.  1.
<mgrwt>
<rscale>  0 0.17073905E+04</rscale>
<asrwt>0</asrwt>
<pdfrwt beam="1">  1        1 0.96193081E-01 0.17073905E+04</pdfrwt>
<pdfrwt beam="2">  1       -1 0.17932266E+00 0.17073905E+04</pdfrwt>
<totfact> 0.64544001E+00</totfact>
</mgrwt>
</event>
<event>
12    1  0.1201209E-007  0.2003902E+04  0.7818608E-02  0.8604799E-01
         -1   -1    0    0    0  501 -0.00000000000E+00  0.00000000000E+00  0.45901073786E+03  0.45901073786E+03  0.00000000000E+00 0.  1.
          1   -1    0    0  501    0  0.00000000000E+00 -0.00000000000E+00 -0.21871069614E+04  0.21871069614E+04  0.00000000000E+00 0. -1.
         23    2    1    2    0    0  0.26932517580E+03  0.18004671022E+03  0.26508605511E+03  0.42954870017E+03  0.96377388571E+02 0.  0.
        254    2    1    2    0    0 -0.26932517580E+03 -0.18004671022E+03 -0.19931822787E+04  0.22165689991E+04  0.91402935604E+03 0.  0.
        -24    2    4    4    0    0 -0.26826616023E+03 -0.39103203149E+03 -0.45567594287E+03  0.66253873982E+03  0.80275989384E+02 0.  0.
         24    2    4    4    0    0 -0.10590155640E+01  0.21098532128E+03 -0.15375063358E+04  0.15540302593E+04  0.81045585336E+02 0.  0.
         13    1    3    3    0    0  0.70561337308E+02  0.55885814975E+02  0.23631928521E+02  0.93062316131E+02  0.00000000000E+00 0. -1.
        -13    1    3    3    0    0  0.19876383849E+03  0.12416089524E+03  0.24145412658E+03  0.33648638404E+03  0.00000000000E+00 0.  1.
          2    1    6    6  502    0  0.11772264989E+02  0.16621193964E+02 -0.52655285268E+02  0.56457323515E+02  0.00000000000E+00 0. -1.
          1    1    5    5  503    0 -0.12779810778E+03 -0.23256850814E+03 -0.21158735775E+03  0.33939604784E+03  0.00000000000E+00 0. -1.
         -2    1    5    5    0  503 -0.14046805245E+03 -0.15846352336E+03 -0.24408858512E+03  0.32314269198E+03  0.00000000000E+00 0.  1.
         -1    1    6    6    0  502 -0.12831280553E+02  0.19436412731E+03 -0.14848510505E+04  0.14975729358E+04  0.00000000000E+00 0.  1.
<mgrwt>
<rscale>  0 0.20039018E+04</rscale>
<asrwt>0</asrwt>
<pdfrwt beam="1">  1        1 0.33647799E+00 0.20039018E+04</pdfrwt>
<pdfrwt beam="2">  1       -1 0.70617038E-01 0.20039018E+04</pdfrwt>
<totfact> 0.41774998E+00</totfact>
</mgrwt>
</event>
<event>
12    1  0.1201209E-007  0.1365416E+04  0.7818608E-02  0.8979240E-01
         -2   -1    0    0    0  501 -0.00000000000E+00  0.00000000000E+00  0.15891141658E+03  0.15891141658E+03  0.00000000000E+00 0.  1.
          2   -1    0    0  501    0  0.00000000000E+00 -0.00000000000E+00 -0.29330180368E+04  0.29330180368E+04  0.00000000000E+00 0. -1.
         23    2    1    2    0    0  0.32960192916E+03 -0.15829660484E+03 -0.97213021367E+03  0.10428398076E+04  0.93714807890E+02 0.  0.
        254    2    1    2    0    0 -0.32960192916E+03  0.15829660484E+03 -0.18019764065E+04  0.20490896457E+04  0.90440818208E+03 0.  0.
        -24    2    4    4    0    0 -0.39117122704E+03 -0.12732855496E+03 -0.29588806013E+03  0.51289448701E+03  0.79268662829E+02 0.  0.
         24    2    4    4    0    0  0.61569297885E+02  0.28562515979E+03 -0.15060883464E+04  0.15361951587E+04  0.78872987861E+02 0.  0.
         11    1    3    3    0    0  0.26037713227E+03 -0.14405894719E+03 -0.86263105861E+03  0.91251387636E+03  0.00000000000E+00 0. -1.
        -11    1    3    3    0    0  0.69224796888E+02 -0.14237657647E+02 -0.10949915507E+03  0.13032593126E+03  0.00000000000E+00 0.  1.
          2    1    6    6  502    0  0.12421387623E+02  0.21303044998E+03 -0.99282959283E+03  0.10155032565E+04  0.00000000000E+00 0. -1.
          1    1    5    5  503    0 -0.38346104734E+03 -0.11761414419E+03 -0.29879765531E+03  0.50015547638E+03  0.00000000000E+00 0. -1.
         -2    1    5    5    0  503 -0.77101797030E+01 -0.97144107695E+01  0.29095951793E+01  0.12739010627E+02  0.00000000000E+00 0.  1.
         -1    1    6    6    0  502  0.49147910262E+02  0.72594709811E+02 -0.51325875357E+03  0.52069190228E+03  0.00000000000E+00 0.  1.
<mgrwt>
<rscale>  0 0.13654158E+04</rscale>
<asrwt>0</asrwt>
<pdfrwt beam="1">  1        2 0.45123355E+00 0.13654158E+04</pdfrwt>
<pdfrwt beam="2">  1       -2 0.24447910E-01 0.13654158E+04</pdfrwt>
<totfact> 0.28191455E+01</totfact>
</mgrwt>
</event>
<event>
12    1  0.1201209E-007  0.1448276E+04  0.7818608E-02  0.8919597E-01
          4   -1    0    0  501    0  0.00000000000E+00  0.00000000000E+00  0.14748531077E+04  0.14748531077E+04  0.00000000000E+00 0. -1.
         -4   -1    0    0    0  501 -0.00000000000E+00 -0.00000000000E+00 -0.35554423409E+03  0.35554423409E+03  0.00000000000E+00 0.  1.
         23    2    1    2    0    0  0.20040323528E+03 -0.18757778916E+03  0.77405798461E+03  0.82629817529E+03  0.90862683516E+02 0.  0.
        254    2    1    2    0    0 -0.20040323528E+03  0.18757778916E+03  0.34525088896E+03  0.10040991665E+04  0.90203662678E+03 0.  0.
        -24    2    4    4    0    0 -0.50796765974E+03  0.37757139221E+02  0.39433504640E+03  0.64918860031E+03  0.80554112569E+02 0.  0.
         24    2    4    4    0    0  0.30756442446E+03  0.14982064994E+03 -0.49084157440E+02  0.35491056614E+03  0.80685519788E+02 0.  0.
         13    1    3    3    0    0  0.10673866965E+03 -0.15841710993E+03  0.51617179101E+03  0.55038390433E+03  0.00000000000E+00 0. -1.
        -13    1    3    3    0    0  0.93664565634E+02 -0.29160679231E+02  0.25788619360E+03  0.27591427096E+03  0.00000000000E+00 0.  1.
          2    1    6    6  502    0  0.52217440277E+02  0.60607731893E+02 -0.22619411417E+02  0.83136009089E+02  0.00000000000E+00 0. -1.
          3    1    5    5  503    0 -0.37375368240E+03 -0.58897570494E+01  0.27020359796E+03  0.46123365954E+03  0.00000000000E+00 0. -1.
         -4    1    5    5    0  503 -0.13421397734E+03  0.43646896270E+02  0.12413144844E+03  0.18795494077E+03  0.00000000000E+00 0.  1.
         -1    1    6    6    0  502  0.25534698418E+03  0.89212918047E+02 -0.26464746023E+02  0.27177455705E+03  0.00000000000E+00 0.  1.
<mgrwt>
<rscale>  0 0.14482756E+04</rscale>
<asrwt>0</asrwt>
<pdfrwt beam="1">  1        4 0.22690047E+00 0.14482756E+04</pdfrwt>
<pdfrwt beam="2">  1       -4 0.54699114E-01 0.14482756E+04</pdfrwt>
<totfact> 0.54701026E-01</totfact>
</mgrwt>
</event>
<event>
12    1  0.1201209E-007  0.3182057E+04  0.7818608E-02  0.8193572E-01
          2   -1    0    0  501    0  0.00000000000E+00  0.00000000000E+00  0.16203197190E+04  0.16203197190E+04  0.00000000000E+00 0. -1.
         -2   -1    0    0    0  501 -0.00000000000E+00 -0.00000000000E+00 -0.15622669170E+04  0.15622669170E+04  0.00000000000E+00 0.  1.
         23    2    1    2    0    0  0.10971479768E+04 -0.30739121328E+03 -0.89508009372E+03  0.14518608817E+04  0.92242096705E+02 0.  0.
        254    2    1    2    0    0 -0.10971479768E+04  0.30739121328E+03  0.95313289565E+03  0.17307257544E+04  0.88810262863E+03 0.  0.
        -24    2    4    4    0    0  0.15272462230E+01  0.24477512275E+03  0.44956011904E+03  0.51788181497E+03  0.78613487682E+02 0.  0.
         24    2    4    4    0    0 -0.10986752231E+04  0.62616090530E+02  0.50357277661E+03  0.12128439394E+04  0.79980368986E+02 0.  0.
         13    1    3    3    0    0  0.10410944215E+04 -0.30235230060E+03 -0.87094004104E+03  0.13906225452E+04  0.00000000000E+00 0.  1.
        -13    1    3    3    0    0  0.56053555303E+02 -0.50389126847E+01 -0.24140052673E+02  0.61238336409E+02  0.00000000000E+00 0. -1.
          4    1    6    6  502    0 -0.19402989084E+03 -0.16580929057E+02  0.10325082359E+03  0.22041610268E+03  0.00000000000E+00 0. -1.
          3    1    5    5  503    0 -0.18056829831E+02  0.98117885892E+02  0.11613989671E+03  0.15310664337E+03  0.00000000000E+00 0. -1.
         -4    1    5    5    0  503  0.19584076054E+02  0.14665723686E+03  0.33342022233E+03  0.36477517160E+03  0.00000000000E+00 0.  1.
         -3    1    6    6    0  502 -0.90464533223E+03  0.79197019587E+02  0.40032195302E+03  0.99242783672E+03  0.00000000000E+00 0.  1.
<mgrwt>
<rscale>  0 0.31820571E+04</rscale>
<asrwt>0</asrwt>
<pdfrwt beam="1">  1        2 0.24927996E+00 0.31820571E+04</pdfrwt>
<pdfrwt beam="2">  1       -2 0.24034876E+00 0.31820571E+04</pdfrwt>
<totfact> 0.67530638E-01</totfact>
</mgrwt>
</event>
<event>
12    1  0.1201209E-007  0.2251931E+04  0.7818608E-02  0.8497119E-01
         -1   -1    0    0    0  501 -0.00000000000E+00  0.00000000000E+00  0.23729977712E+04  0.23729977712E+04  0.00000000000E+00 0.  1.
          1   -1    0    0  501    0  0.00000000000E+00 -0.00000000000E+00 -0.53426022295E+03  0.53426022295E+03  0.00000000000E+00 0. -1.
         23    2    1    2    0    0  0.21069968846E+03 -0.39301843259E+03  0.18438998014E+04  0.18994741992E+04  0.95801401346E+02 0.  0.
        254    2    1    2    0    0 -0.21069968846E+03  0.39301843259E+03 -0.51622532237E+01  0.10077837949E+04  0.90373872409E+03 0.  0.
        -24    2    4    4    0    0  0.21250598708E+03  0.44414612820E+02  0.29666447060E+03  0.37630426878E+03  0.80396779819E+02 0.  0.
         24    2    4    4    0    0 -0.42320567554E+03  0.34860381977E+03 -0.30182672383E+03  0.63147952616E+03  0.83900856859E+02 0.  0.
         13    1    3    3    0    0  0.17130743233E+02 -0.53362823778E+02  0.38686690056E+03  0.39090542600E+03  0.00000000000E+00 0. -1.
        -13    1    3    3    0    0  0.19356894522E+03 -0.33965560881E+03  0.14570329009E+04  0.15085687732E+04  0.00000000000E+00 0.  1.
          4    1    6    6  502    0 -0.35637283238E+03  0.26045401138E+03 -0.26523484764E+03  0.51496350561E+03  0.00000000000E+00 0. -1.
          3    1    5    5  503    0  0.18779170949E+03  0.59607453468E+02  0.28141320100E+03  0.34352898620E+03  0.00000000000E+00 0. -1.
         -4    1    5    5    0  503  0.24714277586E+02 -0.15192840648E+02  0.15251269608E+02  0.32775282580E+02  0.00000000000E+00 0.  1.
         -3    1    6    6    0  502 -0.66832843154E+02  0.88149808386E+02 -0.36591876183E+02  0.11651602055E+03  0.00000000000E+00 0.  1.
<mgrwt>
<rscale>  0 0.22519310E+04</rscale>
<asrwt>0</asrwt>
<pdfrwt beam="1">  1        1 0.82193882E-01 0.22519310E+04</pdfrwt>
<pdfrwt beam="2">  1       -1 0.36507657E+00 0.22519310E+04</pdfrwt>
<totfact> 0.45258547E-01</totfact>
</mgrwt>
</event>
<event>
12    1  0.1201209E-007  0.1258065E+04  0.7818608E-02  0.9063497E-01
          1   -1    0    0  501    0  0.00000000000E+00  0.00000000000E+00  0.13607312651E+04  0.13607312651E+04  0.00000000000E+00 0. -1.
         -1   -1    0    0    0  501 -0.00000000000E+00 -0.00000000000E+00 -0.29078638720E+03  0.29078638720E+03  0.00000000000E+00 0.  1.
         23    2    1    2    0    0 -0.13482480266E+03  0.17332238620E+03 -0.62340505032E+01  0.23738971970E+03  0.89981323975E+02 0.  0.
        254    2    1    2    0    0  0.13482480266E+03 -0.17332238620E+03  0.10761789284E+04  0.14141279326E+04  0.89071788288E+03 0.  0.
        -24    2    4    4    0    0  0.24534962444E+03 -0.25894164825E+03  0.42441424257E+02  0.36805578354E+03  0.80103494840E+02 0.  0.
         24    2    4    4    0    0 -0.11052482179E+03  0.85619262058E+02  0.10337375041E+04  0.10460721491E+04  0.78149339921E+02 0.  0.
         11    1    3    3    0    0 -0.68130941205E+02  0.48174388465E+02 -0.38592599862E+02  0.91934681256E+02  0.00000000000E+00 0. -1.
        -11    1    3    3    0    0 -0.66693861450E+02  0.12514799773E+03  0.32358549359E+02  0.14545503844E+03  0.00000000000E+00 0.  1.
          4    1    6    6  502    0 -0.10800714341E+03  0.98177504783E+02  0.98114595277E+03  0.99194341880E+03  0.00000000000E+00 0. -1.
          3    1    5    5  503    0  0.19117617087E+03 -0.24265127737E+03  0.32499709016E+02  0.31061906220E+03  0.00000000000E+00 0. -1.
         -4    1    5    5    0  503  0.54173453577E+02 -0.16290370889E+02  0.99417152415E+01  0.57436721338E+02  0.00000000000E+00 0.  1.
         -3    1    6    6    0  502 -0.25176783759E+01 -0.12558242725E+02  0.52591551376E+02  0.54128730272E+02  0.00000000000E+00 0.  1.
<mgrwt>
<rscale>  0 0.12580654E+04</rscale>
<asrwt>0</asrwt>
<pdfrwt beam="1">  1        1 0.20934327E+00 0.12580654E+04</pdfrwt>
<pdfrwt beam="2">  1       -1 0.44736368E-01 0.12580654E+04</pdfrwt>
<totfact> 0.39950675E+01</totfact>
</mgrwt>
</event>
<event>
12    1  0.1201209E-007  0.2006313E+04  0.7818608E-02  0.8603675E-01
          1   -1    0    0  501    0  0.00000000000E+00  0.00000000000E+00  0.27930325034E+04  0.27930325034E+04  0.00000000000E+00 0. -1.
         -1   -1    0    0    0  501 -0.00000000000E+00 -0.00000000000E+00 -0.36029746161E+03  0.36029746161E+03  0.00000000000E+00 0.  1.
         23    2    1    2    0    0  0.18084146221E+02  0.26613696117E+03 -0.20786958198E+03  0.35031332082E+03  0.91398802953E+02 0.  0.
        254    2    1    2    0    0 -0.18084146221E+02 -0.26613696117E+03  0.26406046237E+04  0.28030166442E+04  0.90163940136E+03 0.  0.
        -24    2    4    4    0    0  0.12104949444E+03  0.51019063435E+02  0.23180581657E+04  0.23230481518E+04  0.76831837402E+02 0.  0.
         24    2    4    4    0    0 -0.13913364066E+03 -0.31715602461E+03  0.32254645806E+03  0.47996849235E+03  0.79921349640E+02 0.  0.
         11    1    3    3    0    0 -0.48341368126E+01  0.24157101977E+03 -0.15303938919E+03  0.28600870811E+03  0.00000000000E+00 0.  1.
        -11    1    3    3    0    0  0.22918283033E+02  0.24565941410E+02 -0.54830192786E+02  0.64304612708E+02  0.00000000000E+00 0. -1.
          4    1    6    6  502    0 -0.63502773241E+02 -0.60130651970E+02  0.75667772246E+02  0.11564561934E+03  0.00000000000E+00 0. -1.
          3    1    5    5  503    0  0.74499522248E+02  0.29043775664E+02  0.77130798787E+03  0.77544163666E+03  0.00000000000E+00 0. -1.
         -4    1    5    5    0  503  0.46549972195E+02  0.21975287771E+02  0.15467501778E+04  0.15476065152E+04  0.00000000000E+00 0.  1.
         -3    1    6    6    0  502 -0.75630867423E+02 -0.25702537264E+03  0.24687868581E+03  0.36432287301E+03  0.00000000000E+00 0.  1.
<mgrwt>
<rscale>  0 0.20063126E+04</rscale>
<asrwt>0</asrwt>
<pdfrwt beam="1">  1        1 0.42969729E+00 0.20063126E+04</pdfrwt>
<pdfrwt beam="2">  1       -1 0.55430381E-01 0.20063126E+04</pdfrwt>
<totfact> 0.25750032E+00</totfact>
</mgrwt>
</event>
<event>
12    1  0.1201209E-007  0.1208715E+04  0.7818608E-02  0.9105262E-01
          2   -1    0    0  501    0  0.00000000000E+00  0.00000000000E+00  0.56792766669E+03  0.56792766669E+03  0.00000000000E+00 0.  1.
         -2   -1    0    0    0  501 -0.00000000000E+00 -0.00000000000E+00 -0.64312466128E+03  0.64312466128E+03  0.00000000000E+00 0. -1.
         23    2    1    2    0    0 -0.60484169159E+02  0.15834140068E+01 -0.26396842768E+03  0.28616851598E+03  0.92478358592E+02 0.  0.
        254    2    1    2    0    0  0.60484169159E+02 -0.15834140068E+01  0.18877143309E+03  0.92488381199E+03  0.90339059648E+03 0.  0.
        -24    2    4    4    0    0 -0.83683926741E+02  0.16254962997E+03  0.49822603496E+03  0.53637751722E+03  0.77757811627E+02 0.  0.
         24    2    4    4    0    0  0.14416809590E+03 -0.16413304397E+03 -0.30945460186E+03  0.38850629477E+03  0.86318563827E+02 0.  0.
         13    1    3    3    0    0 -0.39706144859E+02  0.37157797647E+02 -0.21691690562E+03  0.22362965771E+03  0.00000000000E+00 0. -1.
        -13    1    3    3    0    0 -0.20778024299E+02 -0.35574383641E+02 -0.47051522064E+02  0.62538858270E+02  0.00000000000E+00 0.  1.
          2    1    6    6  502    0  0.91204086459E+02 -0.14606737561E+03 -0.18898636591E+03  0.25567500876E+03  0.00000000000E+00 0. -1.
          3    1    5    5  503    0 -0.39008355787E+02  0.14489716183E+03  0.39426009215E+03  0.42185051807E+03  0.00000000000E+00 0. -1.
         -4    1    5    5    0  503 -0.44675570954E+02  0.17652468137E+02  0.10396594280E+03  0.11452699915E+03  0.00000000000E+00 0.  1.
         -1    1    6    6    0  502  0.52964009441E+02 -0.18065668367E+02 -0.12046823596E+03  0.13283128601E+03  0.00000000000E+00 0.  1.
<mgrwt>
<rscale>  0 0.12087155E+04</rscale>
<asrwt>0</asrwt>
<pdfrwt beam="1">  1        2 0.87373488E-01 0.12087155E+04</pdfrwt>
<pdfrwt beam="2">  1       -2 0.98942254E-01 0.12087155E+04</pdfrwt>
<totfact> 0.44274854E+01</totfact>
</mgrwt>
</event>
<event>
12    1  0.1201209E-007  0.1512280E+04  0.7818608E-02  0.8876328E-01
          2   -1    0    0  501    0  0.00000000000E+00  0.00000000000E+00  0.15118237032E+04  0.15118237032E+04  0.00000000000E+00 0. -1.
         -2   -1    0    0    0  501 -0.00000000000E+00 -0.00000000000E+00 -0.37818411597E+03  0.37818411597E+03  0.00000000000E+00 0.  1.
         23    2    1    2    0    0 -0.42670763341E+03 -0.92794603959E+02  0.65543800633E+03  0.79274967762E+03  0.90348371771E+02 0.  0.
        254    2    1    2    0    0  0.42670763341E+03  0.92794603959E+02  0.47820158091E+03  0.10972581416E+04  0.88578125648E+03 0.  0.
        -24    2    4    4    0    0  0.19376804470E+03 -0.30624566197E+03  0.50601124782E+03  0.62760806721E+03  0.80697227305E+02 0.  0.
         24    2    4    4    0    0  0.23293958871E+03  0.39904026592E+03 -0.27809666909E+02  0.46965007436E+03  0.79396655831E+02 0.  0.
         11    1    3    3    0    0 -0.36425005700E+03 -0.56936007565E+02  0.58839541394E+03  0.69435507928E+03  0.00000000000E+00 0. -1.
        -11    1    3    3    0    0 -0.62457576409E+02 -0.35858596394E+02  0.67042592394E+02  0.98394598333E+02  0.00000000000E+00 0.  1.
          4    1    6    6  502    0 -0.63723668181E+01  0.10616879687E+02 -0.30462216424E+01  0.12751653204E+02  0.00000000000E+00 0. -1.
          3    1    5    5  503    0  0.19074673727E+02 -0.28927270002E+02  0.16190654060E+02  0.38246142373E+02  0.00000000000E+00 0. -1.
         -4    1    5    5    0  503  0.17469337098E+03 -0.27731839196E+03  0.48982059376E+03  0.58936192484E+03  0.00000000000E+00 0.  1.
         -1    1    6    6    0  502  0.23931195552E+03  0.38842338624E+03 -0.24763445266E+02  0.45689842116E+03  0.00000000000E+00 0.  1.
<mgrwt>
<rscale>  0 0.15122800E+04</rscale>
<asrwt>0</asrwt>
<pdfrwt beam="1">  1        2 0.23258826E+00 0.15122800E+04</pdfrwt>
<pdfrwt beam="2">  1       -2 0.58182173E-01 0.15122800E+04</pdfrwt>
<totfact> 0.33342966E+01</totfact>
</mgrwt>
</event>
<event>
12    1  0.1201209E-007  0.2248603E+04  0.7818608E-02  0.8498466E-01
         -2   -1    0    0    0  501 -0.00000000000E+00  0.00000000000E+00  0.12728330699E+04  0.12728330699E+04  0.00000000000E+00 0.  1.
          2   -1    0    0  501    0  0.00000000000E+00 -0.00000000000E+00 -0.99310260289E+03  0.99310260289E+03  0.00000000000E+00 0. -1.
         23    2    1    2    0    0 -0.87537381775E+03  0.59812461726E+02  0.46221834518E+03  0.99590870758E+03  0.91277071816E+02 0.  0.
        254    2    1    2    0    0  0.87537381775E+03 -0.59812461726E+02 -0.18248787821E+03  0.12700269652E+04  0.89989433556E+03 0.  0.
        -24    2    4    4    0    0  0.86903411778E+03  0.23138228683E+03  0.26600471736E+02  0.90324230284E+03  0.79881237034E+02 0.  0.
         24    2    4    4    0    0  0.63396999710E+01 -0.29119474856E+03 -0.20908834994E+03  0.36678466232E+03  0.77320612062E+02 0.  0.
         11    1    3    3    0    0 -0.71850650572E+03  0.49344012506E+02  0.33814400229E+03  0.79563043973E+03  0.00000000000E+00 0.  1.
        -11    1    3    3    0    0 -0.15686731202E+03  0.10468449220E+02  0.12407434289E+03  0.20027826785E+03  0.00000000000E+00 0. -1.
          2    1    6    6  502    0 -0.24763288547E+02 -0.53570625586E+02 -0.22889725111E+02  0.63300646924E+02  0.00000000000E+00 0. -1.
          3    1    5    5  503    0  0.12322371035E+03  0.62346172730E+02  0.16051092571E+01  0.13810758279E+03  0.00000000000E+00 0. -1.
         -4    1    5    5    0  503  0.74581040742E+03  0.16903611410E+03  0.24995362479E+02  0.76513472006E+03  0.00000000000E+00 0.  1.
         -1    1    6    6    0  502  0.31102988518E+02 -0.23762412297E+03 -0.18619862483E+03  0.30348401540E+03  0.00000000000E+00 0.  1.
<mgrwt>
<rscale>  0 0.22486030E+04</rscale>
<asrwt>0</asrwt>
<pdfrwt beam="1">  1        2 0.15278501E+00 0.22486030E+04</pdfrwt>
<pdfrwt beam="2">  1       -2 0.19582047E+00 0.22486030E+04</pdfrwt>
<totfact> 0.32827839E+00</totfact>
</mgrwt>
</event>
<event>
12    1  0.1201209E-007  0.2212920E+04  0.7818608E-02  0.8513070E-01
          2   -1    0    0  501    0  0.00000000000E+00  0.00000000000E+00  0.62817318526E+03  0.62817318526E+03  0.00000000000E+00 0. -1.
         -2   -1    0    0    0  501 -0.00000000000E+00 -0.00000000000E+00 -0.19489115937E+04  0.19489115937E+04  0.00000000000E+00 0.  1.
         23    2    1    2    0    0 -0.75637315910E+03 -0.42961920475E+03 -0.86857561847E+03  0.12326923560E+04  0.91835846149E+02 0.  0.
        254    2    1    2    0    0  0.75637315910E+03  0.42961920475E+03 -0.45216278993E+03  0.13443924229E+04  0.91992759568E+03 0.  0.
        -24    2    4    4    0    0  0.24493253789E+03  0.54502921801E+03  0.61171069435E+02  0.60591300534E+03  0.79623323868E+02 0.  0.
         24    2    4    4    0    0  0.51144062122E+03 -0.11541001326E+03 -0.51333385937E+03  0.73847941758E+03  0.83361974685E+02 0.  0.
         11    1    3    3    0    0 -0.64775232280E+03 -0.40104269959E+03 -0.77101820900E+03  0.10839222284E+04  0.00000000000E+00 0.  1.
        -11    1    3    3    0    0 -0.10862083630E+03 -0.28576505152E+02 -0.97557409471E+02  0.14877012761E+03  0.00000000000E+00 0. -1.
          2    1    6    6  502    0  0.21150029756E+03 -0.85648300998E+02 -0.24681623473E+03  0.33613429022E+03  0.00000000000E+00 0. -1.
          1    1    5    5  503    0  0.13562013306E+03  0.29913301398E+03 -0.62367025431E+01  0.32850004110E+03  0.00000000000E+00 0. -1.
         -2    1    5    5    0  503  0.10931240483E+03  0.24589620403E+03  0.67407771978E+02  0.27741296424E+03  0.00000000000E+00 0.  1.
         -1    1    6    6    0  502  0.29994032365E+03 -0.29761712264E+02 -0.26651762464E+03  0.40234512736E+03  0.00000000000E+00 0.  1.
<mgrwt>
<rscale>  0 0.22129202E+04</rscale>
<asrwt>0</asrwt>
<pdfrwt beam="1">  1        2 0.96642029E-01 0.22129202E+04</pdfrwt>
<pdfrwt beam="2">  1       -2 0.29983255E+00 0.22129202E+04</pdfrwt>
<totfact> 0.13649201E+00</totfact>
</mgrwt>
</event>
<event>
12    1  0.1201209E-007  0.1882307E+04  0.7818608E-02  0.8663714E-01
          2   -1    0    0  501    0  0.00000000000E+00  0.00000000000E+00  0.26325269144E+04  0.26325269144E+04  0.00000000000E+00 0. -1.
         -2   -1    0    0    0  501 -0.00000000000E+00 -0.00000000000E+00 -0.33647128165E+03  0.33647128165E+03  0.00000000000E+00 0.  1.
         23    2    1    2    0    0 -0.67365230840E+03  0.16194405433E+03  0.10838240999E+04  0.12895058294E+04  0.90096032702E+02 0.  0.
        254    2    1    2    0    0  0.67365230840E+03 -0.16194405433E+03  0.12122315329E+04  0.16794923667E+04  0.93335738662E+03 0.  0.
        -24    2    4    4    0    0  0.59151564410E+03 -0.51260650382E+03  0.73668061131E+03  0.10777237945E+04  0.78320298267E+02 0.  0.
         24    2    4    4    0    0  0.82136664300E+02  0.35066244949E+03  0.47555092157E+03  0.60176857222E+03  0.79159019729E+02 0.  0.
         11    1    3    3    0    0 -0.54556885658E+03  0.15329016544E+03  0.93108335022E+03  0.10899814022E+04  0.00000000000E+00 0. -1.
        -11    1    3    3    0    0 -0.12808345182E+03  0.86538888859E+01  0.15274074967E+03  0.19952442716E+03  0.00000000000E+00 0.  1.
          4    1    6    6  502    0 -0.39139583209E+01  0.14365971509E+03  0.20607053861E+03  0.25123395410E+03  0.00000000000E+00 0. -1.
          1    1    5    5  503    0  0.71666793883E+02 -0.67209469811E+02  0.59764435923E+02  0.11500013034E+03  0.00000000000E+00 0. -1.
         -2    1    5    5    0  503  0.51984885022E+03 -0.44539703401E+03  0.67691617538E+03  0.96272366413E+03  0.00000000000E+00 0.  1.
         -3    1    6    6    0  502  0.86050622621E+02  0.20700273441E+03  0.26948038296E+03  0.35053461812E+03  0.00000000000E+00 0.  1.
<mgrwt>
<rscale>  0 0.18823068E+04</rscale>
<asrwt>0</asrwt>
<pdfrwt beam="1">  1        2 0.40500413E+00 0.18823068E+04</pdfrwt>
<pdfrwt beam="2">  1       -2 0.51764814E-01 0.18823068E+04</pdfrwt>
<totfact> 0.96385869E+00</totfact>
</mgrwt>
</event>
<event>
12    1  0.1201209E-007  0.1866947E+04  0.7818608E-02  0.8671486E-01
          2   -1    0    0  501    0  0.00000000000E+00  0.00000000000E+00  0.52113933816E+03  0.52113933816E+03  0.00000000000E+00 0. -1.
         -2   -1    0    0    0  501 -0.00000000000E+00 -0.00000000000E+00 -0.16720534206E+04  0.16720534206E+04  0.00000000000E+00 0.  1.
         23    2    1    2    0    0  0.18683199100E+03 -0.67394358924E+03 -0.18590246541E+03  0.72943381140E+03  0.91694079515E+02 0.  0.
        254    2    1    2    0    0 -0.18683199100E+03  0.67394358924E+03 -0.96501161702E+03  0.14637589474E+04  0.84984509214E+03 0.  0.
        -24    2    4    4    0    0 -0.45805606901E+03  0.40560709126E+03 -0.28470630839E+03  0.67953340865E+03  0.79846706855E+02 0.  0.
         24    2    4    4    0    0  0.27122407801E+03  0.26833649798E+03 -0.68030530863E+03  0.78422553871E+03  0.81408881364E+02 0.  0.
         11    1    3    3    0    0  0.19513975443E+03 -0.64543852349E+03 -0.16853213357E+03  0.69503488503E+03  0.00000000000E+00 0. -1.
        -11    1    3    3    0    0 -0.83077634252E+01 -0.28505065749E+02 -0.17370331849E+02  0.34398926365E+02  0.00000000000E+00 0.  1.
          2    1    6    6  502    0  0.24182230347E+03  0.21896785268E+03 -0.62202826210E+03  0.70238458540E+03  0.00000000000E+00 0. -1.
          3    1    5    5  503    0 -0.21252128909E+03  0.19281157431E+03 -0.89948705351E+02  0.30071975509E+03  0.00000000000E+00 0. -1.
         -4    1    5    5    0  503 -0.24553477991E+03  0.21279551695E+03 -0.19475760303E+03  0.37881365355E+03  0.00000000000E+00 0.  1.
         -1    1    6    6    0  502  0.29401774537E+02  0.49368645301E+02 -0.58277046536E+02  0.81840953304E+02  0.00000000000E+00 0.  1.
<mgrwt>
<rscale>  0 0.18669470E+04</rscale>
<asrwt>0</asrwt>
<pdfrwt beam="1">  1        2 0.80175281E-01 0.18669470E+04</pdfrwt>
<pdfrwt beam="2">  1       -2 0.25723899E+00 0.18669470E+04</pdfrwt>
<totfact> 0.31959666E+00</totfact>
</mgrwt>
</event>
<event>
12    1  0.1201209E-007  0.1270083E+04  0.7818608E-02  0.9053632E-01
          2   -1    0    0  501    0  0.00000000000E+00  0.00000000000E+00  0.22981455640E+04  0.22981455640E+04  0.00000000000E+00 0. -1.
         -2   -1    0    0    0  501 -0.00000000000E+00 -0.00000000000E+00 -0.17547960774E+03  0.17547960774E+03  0.00000000000E+00 0.  1.
         23    2    1    2    0    0 -0.32655041251E+02  0.29489614663E+01 -0.60898828680E+02  0.11076620962E+03  0.86518424436E+02 0.  0.
        254    2    1    2    0    0  0.32655041251E+02 -0.29489614663E+01  0.21835647849E+04  0.23628589621E+04  0.90225952849E+03 0.  0.
        -24    2    4    4    0    0 -0.82134159270E+02 -0.15474195626E+03  0.24594323106E+02  0.19410338176E+03  0.79875834473E+02 0.  0.
         24    2    4    4    0    0  0.11478920052E+03  0.15179299480E+03  0.21589704618E+04  0.21687555803E+04  0.78292007645E+02 0.  0.
         13    1    3    3    0    0  0.93628923825E+01 -0.34792669965E+02 -0.22818331405E+02  0.42648210808E+02  0.00000000000E+00 0. -1.
        -13    1    3    3    0    0 -0.42017933633E+02  0.37741631431E+02 -0.38080497275E+02  0.68117998815E+02  0.00000000000E+00 0.  1.
          2    1    6    6  502    0  0.70786446734E+02  0.14349829982E+03  0.17694391494E+04  0.17766590519E+04  0.00000000000E+00 0. -1.
          3    1    5    5  503    0 -0.23410558296E+02 -0.11438122481E+03 -0.52020028225E+01  0.11686821494E+03  0.00000000000E+00 0. -1.
         -4    1    5    5    0  503 -0.58723600974E+02 -0.40360731452E+02  0.29796325929E+02  0.77235166819E+02  0.00000000000E+00 0.  1.
         -1    1    6    6    0  502  0.44002753787E+02  0.82946949786E+01  0.38953131239E+03  0.39209652847E+03  0.00000000000E+00 0.  1.
<mgrwt>
<rscale>  0 0.12700830E+04</rscale>
<asrwt>0</asrwt>
<pdfrwt beam="1">  1        2 0.35356084E+00 0.12700830E+04</pdfrwt>
<pdfrwt beam="2">  1       -2 0.26996864E-01 0.12700830E+04</pdfrwt>
<totfact> 0.55825653E+01</totfact>
</mgrwt>
</event>
<event>
12    1  0.1201209E-007  0.1620711E+04  0.7818608E-02  0.8807925E-01
          1   -1    0    0  501    0  0.00000000000E+00  0.00000000000E+00  0.32547749894E+03  0.32547749894E+03  0.00000000000E+00 0. -1.
         -1   -1    0    0    0  501 -0.00000000000E+00 -0.00000000000E+00 -0.20175773166E+04  0.20175773166E+04  0.00000000000E+00 0.  1.
         23    2    1    2    0    0  0.31103757871E+03  0.48529107071E+02 -0.12496017814E+04  0.12918415539E+04  0.90832476574E+02 0.  0.
        254    2    1    2    0    0 -0.31103757871E+03 -0.48529107071E+02 -0.44249803628E+03  0.10512132616E+04  0.90008075176E+03 0.  0.
        -24    2    4    4    0    0  0.19538003818E+03 -0.27003015400E+03 -0.77003809201E+01  0.34293772802E+03  0.80357613499E+02 0.  0.
         24    2    4    4    0    0 -0.50641761688E+03  0.22150104693E+03 -0.43479765536E+03  0.70827553360E+03  0.84164802032E+02 0.  0.
         13    1    3    3    0    0  0.85610393990E+02  0.39064023449E+02 -0.50930221622E+03  0.51792266308E+03  0.00000000000E+00 0. -1.
        -13    1    3    3    0    0  0.22542718472E+03  0.94650836216E+01 -0.74029956517E+03  0.77391889085E+03  0.00000000000E+00 0.  1.
          4    1    6    6  502    0 -0.24551094974E+03  0.12202309905E+03 -0.16492260823E+03  0.31994488564E+03  0.00000000000E+00 0. -1.
          3    1    5    5  503    0  0.18904026578E+03 -0.22630782573E+03 -0.23992666937E+02  0.29584979659E+03  0.00000000000E+00 0. -1.
         -4    1    5    5    0  503  0.63397723974E+01 -0.43722328269E+02  0.16292286017E+02  0.47087931436E+02  0.00000000000E+00 0.  1.
         -3    1    6    6    0  502 -0.26090666714E+03  0.99477947881E+02 -0.26987504714E+03  0.38833064795E+03  0.00000000000E+00 0.  1.
<mgrwt>
<rscale>  0 0.16207110E+04</rscale>
<asrwt>0</asrwt>
<pdfrwt beam="1">  1        1 0.50073461E-01 0.16207110E+04</pdfrwt>
<pdfrwt beam="2">  1       -1 0.31039651E+00 0.16207110E+04</pdfrwt>
<totfact> 0.21385936E+00</totfact>
</mgrwt>
</event>
<event>
12    1  0.1201209E-007  0.2009770E+04  0.7818608E-02  0.8602066E-01
          2   -1    0    0  501    0  0.00000000000E+00  0.00000000000E+00  0.21993758729E+04  0.21993758729E+04  0.00000000000E+00 0. -1.
         -2   -1    0    0    0  501 -0.00000000000E+00 -0.00000000000E+00 -0.45912767883E+03  0.45912767883E+03  0.00000000000E+00 0.  1.
         23    2    1    2    0    0 -0.71610473198E+03 -0.29604734987E+03  0.92324720967E+03  0.12087778177E+04  0.91150325025E+02 0.  0.
        254    2    1    2    0    0  0.71610473198E+03  0.29604734987E+03  0.81700098440E+03  0.14497257341E+04  0.91310682564E+03 0.  0.
        -24    2    4    4    0    0  0.14094469431E+03 -0.29463663761E+03  0.39963716025E+03  0.52227218665E+03  0.79888810402E+02 0.  0.
         24    2    4    4    0    0  0.57516003766E+03  0.59068398748E+03  0.41736382415E+03  0.92745354743E+03  0.79125716052E+02 0.  0.
         13    1    3    3    0    0 -0.22596944352E+03 -0.90421792090E+02  0.22683652466E+03  0.33270572404E+03  0.00000000000E+00 0. -1.
        -13    1    3    3    0    0 -0.49013528845E+03 -0.20562555778E+03  0.69641068501E+03  0.87607209361E+03  0.00000000000E+00 0.  1.
          2    1    6    6  502    0  0.45997019411E+03  0.42521686156E+03  0.30650949737E+03  0.69737366655E+03  0.00000000000E+00 0. -1.
          1    1    5    5  503    0  0.16642437778E+02 -0.91470830923E+02  0.15567874577E+03  0.18132775720E+03  0.00000000000E+00 0. -1.
         -2    1    5    5    0  503  0.12430225654E+03 -0.20316580668E+03  0.24395841448E+03  0.34094442946E+03  0.00000000000E+00 0.  1.
         -1    1    6    6    0  502  0.11518984355E+03  0.16546712591E+03  0.11085432679E+03  0.23007988087E+03  0.00000000000E+00 0.  1.
<mgrwt>
<rscale>  0 0.20097705E+04</rscale>
<asrwt>0</asrwt>
<pdfrwt beam="1">  1        2 0.33836551E+00 0.20097705E+04</pdfrwt>
<pdfrwt beam="2">  1       -2 0.70635029E-01 0.20097705E+04</pdfrwt>
<totfact> 0.87439330E+00</totfact>
</mgrwt>
</event>
<event>
12    1  0.1201209E-007  0.2767257E+04  0.7818608E-02  0.8313506E-01
          2   -1    0    0  501    0  0.00000000000E+00  0.00000000000E+00  0.46623173326E+04  0.46623173326E+04  0.00000000000E+00 0. -1.
         -2   -1    0    0    0  501 -0.00000000000E+00 -0.00000000000E+00 -0.41061720382E+03  0.41061720382E+03  0.00000000000E+00 0.  1.
         23    2    1    2    0    0  0.83528632790E+03  0.29398480201E+03  0.34756061249E+04  0.35877856592E+04  0.90761707582E+02 0.  0.
        254    2    1    2    0    0 -0.83528632790E+03 -0.29398480201E+03  0.77609400395E+03  0.14851488773E+04  0.90510495045E+03 0.  0.
        -24    2    4    4    0    0 -0.45884142396E+03 -0.20341325107E+03 -0.10506272537E+03  0.51900577446E+03  0.80102525590E+02 0.  0.
         24    2    4    4    0    0 -0.37644490393E+03 -0.90571550938E+02  0.88115672932E+03  0.96614310282E+03  0.84150709799E+02 0.  0.
         11    1    3    3    0    0  0.65717879399E+02  0.82649033511E+01  0.19122819313E+03  0.20237433174E+03  0.00000000000E+00 0.  1.
        -11    1    3    3    0    0  0.76956844850E+03  0.28571989866E+03  0.32843779317E+04  0.33854113274E+04  0.00000000000E+00 0. -1.
          2    1    6    6  502    0 -0.10287739660E+03 -0.56914140063E+02  0.32080103892E+03  0.34166692061E+03  0.00000000000E+00 0. -1.
          1    1    5    5  503    0 -0.26792183589E+03 -0.86158979416E+02 -0.31523347038E+02  0.28319463499E+03  0.00000000000E+00 0. -1.
         -2    1    5    5    0  503 -0.19091958807E+03 -0.11725427165E+03 -0.73539378335E+02  0.23581113947E+03  0.00000000000E+00 0.  1.
         -1    1    6    6    0  502 -0.27356750733E+03 -0.33657410875E+02  0.56035569040E+03  0.62447618220E+03  0.00000000000E+00 0.  1.
<mgrwt>
<rscale>  0 0.27672569E+04</rscale>
<asrwt>0</asrwt>
<pdfrwt beam="1">  1        2 0.71727955E+00 0.27672569E+04</pdfrwt>
<pdfrwt beam="2">  1       -2 0.63171881E-01 0.27672569E+04</pdfrwt>
<totfact> 0.17085337E-01</totfact>
</mgrwt>
</event>
<event>
12    1  0.1201209E-007  0.2064637E+04  0.7818608E-02  0.8576983E-01
          2   -1    0    0  501    0  0.00000000000E+00  0.00000000000E+00  0.87725786737E+03  0.87725786737E+03  0.00000000000E+00 0.  1.
         -2   -1    0    0    0  501 -0.00000000000E+00 -0.00000000000E+00 -0.12147873834E+04  0.12147873834E+04  0.00000000000E+00 0. -1.
         23    2    1    2    0    0  0.72235705339E+03 -0.41639582008E+03 -0.12020948967E+03  0.84711908140E+03  0.89304115901E+02 0.  0.
        254    2    1    2    0    0 -0.72235705339E+03  0.41639582008E+03 -0.21732002641E+03  0.12449261694E+04  0.89856996491E+03 0.  0.
        -24    2    4    4    0    0  0.48576378643E+02 -0.81834959770E+02  0.19821240830E+03  0.23413363550E+03  0.80459774207E+02 0.  0.
         24    2    4    4    0    0 -0.77093343203E+03  0.49823077985E+03 -0.41553243471E+03  0.10107925339E+04  0.80387036961E+02 0.  0.
         11    1    3    3    0    0  0.28838321379E+03 -0.17171138333E+03 -0.45255135870E+01  0.33566375651E+03  0.00000000000E+00 0. -1.
        -11    1    3    3    0    0  0.43397383960E+03 -0.24468443674E+03 -0.11568397608E+03  0.51145532489E+03  0.00000000000E+00 0.  1.
          2    1    6    6  502    0 -0.48902317986E+03  0.36131570591E+03 -0.27224363916E+03  0.66619014466E+03  0.00000000000E+00 0. -1.
          3    1    5    5  503    0  0.69350219775E+02 -0.62564197212E+02  0.12829543216E+03  0.15869294146E+03  0.00000000000E+00 0. -1.
         -4    1    5    5    0  503 -0.20773841131E+02 -0.19270762558E+02  0.69916976136E+02  0.75440694038E+02  0.00000000000E+00 0.  1.
         -1    1    6    6    0  502 -0.28191025217E+03  0.13691507394E+03 -0.14328879554E+03  0.34460238925E+03  0.00000000000E+00 0.  1.
<mgrwt>
<rscale>  0 0.20646373E+04</rscale>
<asrwt>0</asrwt>
<pdfrwt beam="1">  1        2 0.13496275E+00 0.20646373E+04</pdfrwt>
<pdfrwt beam="2">  1       -2 0.18689037E+00 0.20646373E+04</pdfrwt>
<totfact> 0.45667662E+00</totfact>
</mgrwt>
</event>
<event>
12    1  0.1201209E-007  0.1480681E+04  0.7818608E-02  0.8897403E-01
          2   -1    0    0  501    0  0.00000000000E+00  0.00000000000E+00  0.36584785861E+03  0.36584785861E+03  0.00000000000E+00 0. -1.
         -2   -1    0    0    0  501 -0.00000000000E+00 -0.00000000000E+00 -0.14981741058E+04  0.14981741058E+04  0.00000000000E+00 0.  1.
         23    2    1    2    0    0  0.32309766558E+02  0.28959605766E+03 -0.80189196381E+03  0.85654691830E+03  0.75710659663E+02 0.  0.
        254    2    1    2    0    0 -0.32309766558E+02 -0.28959605766E+03 -0.33043428340E+03  0.10074750462E+04  0.90604048217E+03 0.  0.
        -24    2    4    4    0    0 -0.22510525210E+03  0.20654844048E+03 -0.34685445644E+03  0.46889501311E+03  0.78866257549E+02 0.  0.
         24    2    4    4    0    0  0.19279548555E+03 -0.49614449814E+03  0.16420173034E+02  0.53858003304E+03  0.80432379217E+02 0.  0.
         13    1    3    3    0    0  0.64051788704E+00  0.10179994969E+03 -0.18801688671E+03  0.21380830131E+03  0.00000000000E+00 0. -1.
        -13    1    3    3    0    0  0.31669248670E+02  0.18779610798E+03 -0.61387507710E+03  0.64273861699E+03  0.00000000000E+00 0.  1.
          4    1    6    6  502    0  0.11811641609E+03 -0.37099846135E+03 -0.14436323013E+02  0.38961487843E+03  0.00000000000E+00 0. -1.
          3    1    5    5  503    0 -0.87604451846E+02  0.73611903970E+02 -0.18886467284E+03  0.22082372390E+03  0.00000000000E+00 0. -1.
         -4    1    5    5    0  503 -0.13750080026E+03  0.13293653651E+03 -0.15798978360E+03  0.24807128921E+03  0.00000000000E+00 0.  1.
         -3    1    6    6    0  502  0.74679069458E+02 -0.12514603679E+03  0.30856496047E+02  0.14896515461E+03  0.00000000000E+00 0.  1.
<mgrwt>
<rscale>  0 0.14806806E+04</rscale>
<asrwt>0</asrwt>
<pdfrwt beam="1">  1        2 0.56284286E-01 0.14806806E+04</pdfrwt>
<pdfrwt beam="2">  1       -2 0.23048832E+00 0.14806806E+04</pdfrwt>
<totfact> 0.72216583E+00</totfact>
</mgrwt>
</event>
<event>
12    1  0.1201209E-007  0.1696118E+04  0.7818608E-02  0.8763581E-01
          2   -1    0    0  501    0  0.00000000000E+00  0.00000000000E+00  0.32640792953E+04  0.32640792953E+04  0.00000000000E+00 0. -1.
         -2   -1    0    0    0  501 -0.00000000000E+00 -0.00000000000E+00 -0.22033908999E+03  0.22033908999E+03  0.00000000000E+00 0.  1.
         23    2    1    2    0    0 -0.51865147261E+03  0.31283339111E+03  0.10315557914E+04  0.11998593558E+04  0.93225759606E+02 0.  0.
        254    2    1    2    0    0  0.51865147261E+03 -0.31283339111E+03  0.20121844139E+04  0.22845590295E+04  0.89635917081E+03 0.  0.
        -24    2    4    4    0    0 -0.24563013894E+02 -0.14428797513E+02  0.14216339250E+04  0.14240743239E+04  0.78314311009E+02 0.  0.
         24    2    4    4    0    0  0.54321448651E+03 -0.29840459359E+03  0.59055048891E+03  0.86048470565E+03  0.86929677747E+02 0.  0.
         11    1    3    3    0    0 -0.40077507743E+03  0.22085599354E+03  0.70202632888E+03  0.83799701610E+03  0.00000000000E+00 0. -1.
        -11    1    3    3    0    0 -0.11787639519E+03  0.91977397570E+02  0.32952946250E+03  0.36186233966E+03  0.00000000000E+00 0.  1.
          2    1    6    6  502    0  0.21202362988E+03 -0.69799491939E+02  0.22122577084E+03  0.31427190519E+03  0.00000000000E+00 0. -1.
          3    1    5    5  503    0 -0.15914706957E+01 -0.40426307125E+02  0.44816975319E+03  0.44999216300E+03  0.00000000000E+00 0. -1.
         -4    1    5    5    0  503 -0.22971543199E+02  0.25997509611E+02  0.97346417184E+03  0.97408216089E+03  0.00000000000E+00 0.  1.
         -1    1    6    6    0  502  0.33119085662E+03 -0.22860510165E+03  0.36932471807E+03  0.54621280046E+03  0.00000000000E+00 0.  1.
<mgrwt>
<rscale>  0 0.16961182E+04</rscale>
<asrwt>0</asrwt>
<pdfrwt beam="1">  1        2 0.50216601E+00 0.16961182E+04</pdfrwt>
<pdfrwt beam="2">  1       -2 0.33898324E-01 0.16961182E+04</pdfrwt>
<totfact> 0.91893121E+00</totfact>
</mgrwt>
</event>
<event>
12    1  0.1201209E-007  0.1887474E+04  0.7818608E-02  0.8661117E-01
         -2   -1    0    0    0  501 -0.00000000000E+00  0.00000000000E+00  0.69719161898E+03  0.69719161898E+03  0.00000000000E+00 0.  1.
          2   -1    0    0  501    0  0.00000000000E+00 -0.00000000000E+00 -0.12774672541E+04  0.12774672541E+04  0.00000000000E+00 0. -1.
         23    2    1    2    0    0  0.33951071498E+03  0.11617085891E+03  0.43505215137E+03  0.57126776886E+03  0.91177273902E+02 0.  0.
        254    2    1    2    0    0 -0.33951071498E+03 -0.11617085891E+03 -0.10153277865E+04  0.14033911042E+04  0.89991826481E+03 0.  0.
        -24    2    4    4    0    0 -0.54726362760E+03  0.19071045893E+03 -0.67832098218E+03  0.89574645283E+03  0.79839812407E+02 0.  0.
         24    2    4    4    0    0  0.20775291262E+03 -0.30688131783E+03 -0.33700680429E+03  0.50764465138E+03  0.82414137122E+02 0.  0.
         11    1    3    3    0    0  0.44717303164E+02  0.37024245609E+02  0.34017950334E+02  0.67287836271E+02  0.00000000000E+00 0. -1.
        -11    1    3    3    0    0  0.29479341182E+03  0.79146613297E+02  0.40103420104E+03  0.50397993259E+03  0.00000000000E+00 0.  1.
          2    1    6    6  502    0  0.13211966459E+03 -0.16029265518E+03 -0.23524334291E+03  0.31382920747E+03  0.00000000000E+00 0. -1.
          1    1    5    5  503    0 -0.39935135111E+03  0.15282348929E+03 -0.44705717236E+03  0.61862479409E+03  0.00000000000E+00 0. -1.
         -2    1    5    5    0  503 -0.14791227650E+03  0.37886969640E+02 -0.23126380982E+03  0.27712165873E+03  0.00000000000E+00 0.  1.
         -1    1    6    6    0  502  0.75633248031E+02 -0.14658866265E+03 -0.10176346138E+03  0.19381544391E+03  0.00000000000E+00 0.  1.
<mgrwt>
<rscale>  0 0.18874739E+04</rscale>
<asrwt>0</asrwt>
<pdfrwt beam="1">  1        2 0.19653342E+00 0.18874739E+04</pdfrwt>
<pdfrwt beam="2">  1       -2 0.10726025E+00 0.18874739E+04</pdfrwt>
<totfact> 0.11158751E+01</totfact>
</mgrwt>
</event>
<event>
12    1  0.1201209E-007  0.2366847E+04  0.7818608E-02  0.8452021E-01
         -1   -1    0    0    0  501 -0.00000000000E+00  0.00000000000E+00  0.82403866001E+03  0.82403866001E+03  0.00000000000E+00 0. -1.
          1   -1    0    0  501    0  0.00000000000E+00 -0.00000000000E+00 -0.16995457358E+04  0.16995457358E+04  0.00000000000E+00 0.  1.
         23    2    1    2    0    0  0.74581945088E+03 -0.63614145295E+03 -0.57309284335E+03  0.11387620968E+04  0.86145832338E+02 0.  0.
        254    2    1    2    0    0 -0.74581945088E+03  0.63614145295E+03 -0.30241423247E+03  0.13848222991E+04  0.93024503793E+03 0.  0.
        -24    2    4    4    0    0 -0.54126209239E+03  0.73193650873E+02  0.21193066008E+03  0.59134177436E+03  0.80302716214E+02 0.  0.
         24    2    4    4    0    0 -0.20455735848E+03  0.56294780208E+03 -0.51434489255E+03  0.79348052473E+03  0.79414947295E+02 0.  0.
         13    1    3    3    0    0  0.15652930065E+03 -0.17838746168E+03 -0.15440177002E+03  0.28313144480E+03  0.00000000000E+00 0. -1.
        -13    1    3    3    0    0  0.58929015023E+03 -0.45775399127E+03 -0.41869107333E+03  0.85563065196E+03  0.00000000000E+00 0.  1.
          2    1    6    6  502    0 -0.11662230193E+03  0.21422383861E+03 -0.18989043297E+03  0.30911323309E+03  0.00000000000E+00 0. -1.
          1    1    5    5  503    0 -0.27511328371E+03  0.10057282787E+02  0.13822954026E+03  0.30805173853E+03  0.00000000000E+00 0. -1.
         -2    1    5    5    0  503 -0.26614880868E+03  0.63136368086E+02  0.73701119826E+02  0.28329003583E+03  0.00000000000E+00 0.  1.
         -1    1    6    6    0  502 -0.87935056550E+02  0.34872396347E+03 -0.32445445958E+03  0.48436729164E+03  0.00000000000E+00 0.  1.
<mgrwt>
<rscale>  0 0.23668472E+04</rscale>
<asrwt>0</asrwt>
<pdfrwt beam="1">  1        1 0.26146857E+00 0.23668472E+04</pdfrwt>
<pdfrwt beam="2">  1       -1 0.12677518E+00 0.23668472E+04</pdfrwt>
<totfact> 0.23154998E+00</totfact>
</mgrwt>
</event>
<event>
12    1  0.1201209E-007  0.1633545E+04  0.7818608E-02  0.8800201E-01
         -2   -1    0    0    0  501 -0.00000000000E+00  0.00000000000E+00  0.46719127767E+03  0.46719127767E+03  0.00000000000E+00 0.  1.
          2   -1    0    0  501    0  0.00000000000E+00 -0.00000000000E+00 -0.14279313136E+04  0.14279313136E+04  0.00000000000E+00 0. -1.
         23    2    1    2    0    0 -0.66770458685E+02 -0.53673829445E+03 -0.52293563356E+03  0.75782749609E+03  0.91074398711E+02 0.  0.
        254    2    1    2    0    0  0.66770458685E+02  0.53673829445E+03 -0.43780440234E+03  0.11372950952E+04  0.89956720031E+03 0.  0.
        -24    2    4    4    0    0 -0.15656589794E+03 -0.10203008368E+03  0.13822909130E+03  0.24514655426E+03  0.77887951647E+02 0.  0.
         24    2    4    4    0    0  0.22333635663E+03  0.63876837813E+03 -0.57603349363E+03  0.89214854089E+03  0.78805229135E+02 0.  0.
         11    1    3    3    0    0 -0.49697472606E+02 -0.38482786694E+03 -0.31522944130E+03  0.49993192199E+03  0.00000000000E+00 0. -1.
        -11    1    3    3    0    0 -0.17072986079E+02 -0.15191042751E+03 -0.20770619226E+03  0.25789557411E+03  0.00000000000E+00 0.  1.
          4    1    6    6  502    0  0.16496362017E+03  0.42206129638E+03 -0.42777260394E+03  0.62316782215E+03  0.00000000000E+00 0. -1.
          1    1    5    5  503    0 -0.14080404066E+03 -0.68633772230E+02  0.13715571457E+03  0.20820197548E+03  0.00000000000E+00 0. -1.
         -2    1    5    5    0  503 -0.15761857283E+02 -0.33396311449E+02  0.10733767258E+01  0.36944578777E+02  0.00000000000E+00 0.  1.
         -3    1    6    6    0  502  0.58372736460E+02  0.21670708176E+03 -0.14826088969E+03  0.26898071875E+03  0.00000000000E+00 0.  1.
<mgrwt>
<rscale>  0 0.16335447E+04</rscale>
<asrwt>0</asrwt>
<pdfrwt beam="1">  1        2 0.21968174E+00 0.16335447E+04</pdfrwt>
<pdfrwt beam="2">  1       -2 0.71875581E-01 0.16335447E+04</pdfrwt>
<totfact> 0.23402048E+01</totfact>
</mgrwt>
</event>
<event>
12    1  0.1201209E-007  0.1449640E+04  0.7818608E-02  0.8918650E-01
          1   -1    0    0  501    0  0.00000000000E+00  0.00000000000E+00  0.56725474435E+03  0.56725474435E+03  0.00000000000E+00 0. -1.
         -1   -1    0    0    0  501 -0.00000000000E+00 -0.00000000000E+00 -0.92615192088E+03  0.92615192088E+03  0.00000000000E+00 0.  1.
         23    2    1    2    0    0 -0.18743858422E+02 -0.21652469804E+03  0.28012385934E+03  0.36623885166E+03  0.91800015283E+02 0.  0.
        254    2    1    2    0    0  0.18743858422E+02  0.21652469804E+03 -0.63902103587E+03  0.11271678136E+04  0.90273203033E+03 0.  0.
        -24    2    4    4    0    0 -0.16697207956E+03 -0.16790985152E+03  0.99756729215E+02  0.26918985580E+03  0.80239515520E+02 0.  0.
         24    2    4    4    0    0  0.18571593798E+03  0.38443454956E+03 -0.73877776509E+03  0.85797795778E+03  0.89739942760E+02 0.  0.
         13    1    3    3    0    0 -0.10468581188E+02 -0.21593773489E+03  0.28412899534E+03  0.35702658519E+03  0.00000000000E+00 0. -1.
        -13    1    3    3    0    0 -0.82752772348E+01 -0.58696314776E+00 -0.40051360028E+01  0.92122664665E+01  0.00000000000E+00 0.  1.
          4    1    6    6  502    0  0.17829568007E+03  0.29240395750E+03 -0.60927894715E+03  0.69893508950E+03  0.00000000000E+00 0. -1.
          3    1    5    5  503    0 -0.16287046961E+03 -0.12890766049E+03  0.98673919494E+02  0.22995764217E+03  0.00000000000E+00 0. -1.
         -4    1    5    5    0  503 -0.41016099505E+01 -0.39002191030E+02  0.10828097217E+01  0.39232213629E+02  0.00000000000E+00 0.  1.
         -3    1    6    6    0  502  0.74202579120E+01  0.92030592062E+02 -0.12949881794E+03  0.15904286828E+03  0.00000000000E+00 0.  1.
<mgrwt>
<rscale>  0 0.14496401E+04</rscale>
<asrwt>0</asrwt>
<pdfrwt beam="1">  1        1 0.87269960E-01 0.14496401E+04</pdfrwt>
<pdfrwt beam="2">  1       -1 0.14248491E+00 0.14496401E+04</pdfrwt>
<totfact> 0.14433019E+01</totfact>
</mgrwt>
</event>
<event>
12    1  0.1201209E-007  0.1133133E+04  0.7818608E-02  0.9173486E-01
         -2   -1    0    0    0  501 -0.00000000000E+00  0.00000000000E+00  0.27796658469E+03  0.27796658469E+03  0.00000000000E+00 0.  1.
          2   -1    0    0  501    0  0.00000000000E+00 -0.00000000000E+00 -0.11548069245E+04  0.11548069245E+04  0.00000000000E+00 0. -1.
         23    2    1    2    0    0 -0.77906015513E+02 -0.13974395634E+03 -0.29657396325E+02  0.18748911299E+03  0.93139066689E+02 0.  0.
        254    2    1    2    0    0  0.77906015513E+02  0.13974395634E+03 -0.84718294347E+03  0.12452843962E+04  0.89856361327E+03 0.  0.
        -24    2    4    4    0    0 -0.35265395767E+02  0.13725293416E+03 -0.10149572289E+04  0.10279476687E+04  0.80350588318E+02 0.  0.
         24    2    4    4    0    0  0.11317141128E+03  0.24910221792E+01  0.16777428542E+03  0.21733672748E+03  0.79202706647E+02 0.  0.
         13    1    3    3    0    0 -0.78916400569E+02 -0.98518201381E+02  0.14513602515E+02  0.12706013907E+03  0.00000000000E+00 0.  1.
        -13    1    3    3    0    0  0.10103850561E+01 -0.41225754962E+02 -0.44170998840E+02  0.60428973917E+02  0.00000000000E+00 0. -1.
          4    1    6    6  502    0  0.11485751877E+03  0.19616576433E+02  0.16122655854E+03  0.19892476685E+03  0.00000000000E+00 0. -1.
          1    1    5    5  503    0 -0.49993758479E+01  0.12178467024E+03 -0.64374059492E+03  0.65517818433E+03  0.00000000000E+00 0. -1.
         -2    1    5    5    0  503 -0.30266019919E+02  0.15468263929E+02 -0.37121663397E+03  0.37276948438E+03  0.00000000000E+00 0.  1.
         -3    1    6    6    0  502 -0.16861074856E+01 -0.17125554254E+02  0.65477268846E+01  0.18411960632E+02  0.00000000000E+00 0.  1.
<mgrwt>
<rscale>  0 0.11331332E+04</rscale>
<asrwt>0</asrwt>
<pdfrwt beam="1">  1        2 0.17766261E+00 0.11331332E+04</pdfrwt>
<pdfrwt beam="2">  1       -2 0.42764089E-01 0.11331332E+04</pdfrwt>
<totfact> 0.10352765E+02</totfact>
</mgrwt>
</event>
<event>
12    1  0.1201209E-007  0.1633905E+04  0.7818608E-02  0.8799985E-01
          1   -1    0    0  501    0  0.00000000000E+00  0.00000000000E+00  0.84966344982E+03  0.84966344982E+03  0.00000000000E+00 0. -1.
         -1   -1    0    0    0  501 -0.00000000000E+00 -0.00000000000E+00 -0.78550085018E+03  0.78550085018E+03  0.00000000000E+00 0.  1.
         23    2    1    2    0    0 -0.64042511244E+02  0.52427647084E+03 -0.17987167805E+03  0.56524839352E+03  0.90469136627E+02 0.  0.
        254    2    1    2    0    0  0.64042511244E+02 -0.52427647084E+03  0.24403427770E+03  0.10699159065E+04  0.89788643888E+03 0.  0.
        -24    2    4    4    0    0 -0.42181337070E+02 -0.71107221015E+03 -0.24297977848E+02  0.71712085452E+03  0.79176859109E+02 0.  0.
         24    2    4    4    0    0  0.10622384831E+03  0.18679573931E+03  0.26833225555E+03  0.35279505196E+03  0.79284267978E+02 0.  0.
         13    1    3    3    0    0  0.24241013368E+01  0.14056112912E+03 -0.11730208318E+02  0.14107056771E+03  0.00000000000E+00 0.  1.
        -13    1    3    3    0    0 -0.66466612581E+02  0.38371534172E+03 -0.16814146974E+03  0.42417782580E+03  0.00000000000E+00 0. -1.
          4    1    6    6  502    0  0.35524243581E+02  0.15196375987E+02  0.22297742557E+02  0.44610436540E+02  0.00000000000E+00 0. -1.
          3    1    5    5  503    0 -0.63521199293E+01 -0.15661158665E+03  0.27349309605E+02  0.15910852660E+03  0.00000000000E+00 0. -1.
         -4    1    5    5    0  503 -0.35829217141E+02 -0.55446062350E+03 -0.51647287453E+02  0.55801232792E+03  0.00000000000E+00 0.  1.
         -3    1    6    6    0  502  0.70699604733E+02  0.17159936332E+03  0.24603451299E+03  0.30818461542E+03  0.00000000000E+00 0.  1.
<mgrwt>
<rscale>  0 0.16339050E+04</rscale>
<asrwt>0</asrwt>
<pdfrwt beam="1">  1        1 0.13071745E+00 0.16339050E+04</pdfrwt>
<pdfrwt beam="2">  1       -1 0.12084628E+00 0.16339050E+04</pdfrwt>
<totfact> 0.11671273E+01</totfact>
</mgrwt>
</event>
<event>
12    1  0.1201209E-007  0.1611506E+04  0.7818608E-02  0.8813511E-01
          1   -1    0    0  501    0  0.00000000000E+00  0.00000000000E+00  0.94308589535E+03  0.94308589535E+03  0.00000000000E+00 0. -1.
         -1   -1    0    0    0  501 -0.00000000000E+00 -0.00000000000E+00 -0.68841826850E+03  0.68841826850E+03  0.00000000000E+00 0.  1.
         23    2    1    2    0    0 -0.92904483726E+02  0.35798859960E+03 -0.32843707286E+03  0.50307075704E+03  0.91772518852E+02 0.  0.
        254    2    1    2    0    0  0.92904483726E+02 -0.35798859960E+03  0.58310469972E+03  0.11284334068E+04  0.89250421973E+03 0.  0.
        -24    2    4    4    0    0  0.41055263387E+03  0.21252903192E+02  0.43999793179E+03  0.60742075467E+03  0.79728552938E+02 0.  0.
         24    2    4    4    0    0 -0.31764815015E+03 -0.37924150279E+03  0.14310676793E+03  0.52101265214E+03  0.79058028886E+02 0.  0.
         13    1    3    3    0    0 -0.20902947133E+02  0.95132770306E+01 -0.34939362390E+02  0.41811418093E+02  0.00000000000E+00 0. -1.
        -13    1    3    3    0    0 -0.72001536593E+02  0.34847532257E+03 -0.29349771047E+03  0.46125933894E+03  0.00000000000E+00 0.  1.
          4    1    6    6  502    0 -0.22319933277E+03 -0.31742139061E+03  0.10768759010E+03  0.40270448027E+03  0.00000000000E+00 0. -1.
          3    1    5    5  503    0  0.10842834869E+03  0.26379176374E+02  0.16275465798E+03  0.19733637891E+03  0.00000000000E+00 0. -1.
         -4    1    5    5    0  503  0.30212428518E+03 -0.51262731816E+01  0.27724327380E+03  0.41008437576E+03  0.00000000000E+00 0.  1.
         -3    1    6    6    0  502 -0.94448817374E+02 -0.61820112183E+02  0.35419177826E+02  0.11830817187E+03  0.00000000000E+00 0.  1.
<mgrwt>
<rscale>  0 0.16115056E+04</rscale>
<asrwt>0</asrwt>
<pdfrwt beam="1">  1        1 0.14509014E+00 0.16115056E+04</pdfrwt>
<pdfrwt beam="2">  1       -1 0.10591050E+00 0.16115056E+04</pdfrwt>
<totfact> 0.13431001E+01</totfact>
</mgrwt>
</event>
<event>
12    1  0.1201209E-007  0.1779903E+04  0.7818608E-02  0.8717060E-01
          2   -1    0    0  501    0  0.00000000000E+00  0.00000000000E+00  0.14077564341E+04  0.14077564341E+04  0.00000000000E+00 0. -1.
         -2   -1    0    0    0  501 -0.00000000000E+00 -0.00000000000E+00 -0.56260696714E+03  0.56260696714E+03  0.00000000000E+00 0.  1.
         23    2    1    2    0    0 -0.14861098080E+03 -0.64289193254E+03  0.36019316445E+03  0.76197122051E+03  0.12436142737E+03 0.  0.
        254    2    1    2    0    0  0.14861098080E+03  0.64289193254E+03  0.48495630250E+03  0.12083921807E+04  0.88861340669E+03 0.  0.
        -24    2    4    4    0    0 -0.86229694794E+02  0.53458593576E+03  0.68122629077E+03  0.87453198233E+03  0.86713585517E+02 0.  0.
         24    2    4    4    0    0  0.23484067560E+03  0.10830599679E+03 -0.19626998827E+03  0.33386019839E+03  0.77848519062E+02 0.  0.
         13    1    3    3    0    0 -0.92355433779E+02 -0.46808973269E+03  0.19657959453E+03  0.51602428332E+03  0.00000000000E+00 0.  1.
        -13    1    3    3    0    0 -0.56255547022E+02 -0.17480219986E+03  0.16361356993E+03  0.24594693718E+03  0.00000000000E+00 0. -1.
          4    1    6    6  502    0  0.23244886672E+02  0.32619736112E+02 -0.83446562774E+01  0.40914608990E+02  0.00000000000E+00 0. -1.
          1    1    5    5  503    0 -0.21994896964E+02  0.19255055569E+03  0.18118390757E+03  0.26530567342E+03  0.00000000000E+00 0. -1.
         -2    1    5    5    0  503 -0.64234797830E+02  0.34203538007E+03  0.50004238320E+03  0.60922630891E+03  0.00000000000E+00 0.  1.
         -3    1    6    6    0  502  0.21159578892E+03  0.75686260674E+02 -0.18792533199E+03  0.29294558940E+03  0.00000000000E+00 0.  1.
<mgrwt>
<rscale>  0 0.17799029E+04</rscale>
<asrwt>0</asrwt>
<pdfrwt beam="1">  1        2 0.21657791E+00 0.17799029E+04</pdfrwt>
<pdfrwt beam="2">  1       -2 0.86554919E-01 0.17799029E+04</pdfrwt>
<totfact> 0.15658192E+01</totfact>
</mgrwt>
</event>
<event>
12    1  0.1201209E-007  0.1350975E+04  0.7818608E-02  0.8990091E-01
          1   -1    0    0  501    0  0.00000000000E+00  0.00000000000E+00  0.10125007665E+04  0.10125007665E+04  0.00000000000E+00 0. -1.
         -1   -1    0    0    0  501 -0.00000000000E+00 -0.00000000000E+00 -0.45064974073E+03  0.45064974073E+03  0.00000000000E+00 0.  1.
         23    2    1    2    0    0  0.12652226301E+03  0.34557286471E+03  0.21914649617E+03  0.43825972998E+03  0.92832732768E+02 0.  0.
        254    2    1    2    0    0 -0.12652226301E+03 -0.34557286471E+03  0.34270452962E+03  0.10248907773E+04  0.89304323683E+03 0.  0.
        -24    2    4    4    0    0  0.98969401699E+02 -0.36578314956E+03  0.57339690705E+03  0.69181879968E+03  0.78974575680E+02 0.  0.
         24    2    4    4    0    0 -0.22549166471E+03  0.20210284848E+02 -0.23069237742E+03  0.33307197759E+03  0.80392927468E+02 0.  0.
         13    1    3    3    0    0  0.17918364341E+02  0.13422933852E+02 -0.52060635746E+01  0.22985778903E+02  0.00000000000E+00 0.  1.
        -13    1    3    3    0    0  0.10860389867E+03  0.33214993086E+03  0.22435255974E+03  0.41527395108E+03  0.00000000000E+00 0. -1.
          2    1    6    6  502    0 -0.66838952562E+02 -0.15432182905E+01 -0.22764803039E+02  0.70626222890E+02  0.00000000000E+00 0. -1.
          1    1    5    5  503    0  0.21640475522E+00 -0.13727162473E+02  0.26333569452E+01  0.13979141224E+02  0.00000000000E+00 0. -1.
         -2    1    5    5    0  503  0.98752996944E+02 -0.35205598709E+03  0.57076355010E+03  0.67783965846E+03  0.00000000000E+00 0.  1.
         -1    1    6    6    0  502 -0.15865271215E+03  0.21753503139E+02 -0.20792757438E+03  0.26244575470E+03  0.00000000000E+00 0.  1.
<mgrwt>
<rscale>  0 0.13509748E+04</rscale>
<asrwt>0</asrwt>
<pdfrwt beam="1">  1        1 0.15576935E+00 0.13509748E+04</pdfrwt>
<pdfrwt beam="2">  1       -1 0.69330730E-01 0.13509748E+04</pdfrwt>
<totfact> 0.30476723E+01</totfact>
</mgrwt>
</event>
<event>
12    1  0.1201209E-007  0.1765504E+04  0.7818608E-02  0.8724862E-01
          1   -1    0    0  501    0  0.00000000000E+00  0.00000000000E+00  0.30474806923E+04  0.30474806923E+04  0.00000000000E+00 0. -1.
         -1   -1    0    0    0  501 -0.00000000000E+00 -0.00000000000E+00 -0.25570344565E+03  0.25570344565E+03  0.00000000000E+00 0.  1.
         23    2    1    2    0    0 -0.19468214341E+03 -0.58878942918E+03  0.12033529321E+04  0.13569982990E+04  0.93872123455E+02 0.  0.
        254    2    1    2    0    0  0.19468214341E+03  0.58878942918E+03  0.15884243146E+04  0.19461858389E+04  0.93806896741E+03 0.  0.
        -24    2    4    4    0    0 -0.67300934438E+02  0.40399396346E+03  0.11022726703E+03  0.43150895088E+03  0.79431643601E+02 0.  0.
         24    2    4    4    0    0  0.26198307784E+03  0.18479546572E+03  0.14781970476E+04  0.15146768881E+04  0.79969160095E+02 0.  0.
         11    1    3    3    0    0 -0.12300744961E+03 -0.38242322673E+03  0.67864844858E+03  0.78863304126E+03  0.00000000000E+00 0. -1.
        -11    1    3    3    0    0 -0.71674693801E+02 -0.20636620244E+03  0.52470448347E+03  0.56836525775E+03  0.00000000000E+00 0.  1.
          4    1    6    6  502    0  0.27132386476E+01  0.16956331171E+02  0.15319723409E+03  0.15415664554E+03  0.00000000000E+00 0. -1.
          1    1    5    5  503    0 -0.31043051279E+02  0.10481942096E+03  0.63842872777E+02  0.12659658150E+03  0.00000000000E+00 0. -1.
         -2    1    5    5    0  503 -0.36257883159E+02  0.29917454250E+03  0.46384394257E+02  0.30491236938E+03  0.00000000000E+00 0.  1.
         -3    1    6    6    0  502  0.25926983920E+03  0.16783913455E+03  0.13249998135E+04  0.13605202425E+04  0.00000000000E+00 0.  1.
<mgrwt>
<rscale>  0 0.17655042E+04</rscale>
<asrwt>0</asrwt>
<pdfrwt beam="1">  1        1 0.46884316E+00 0.17655042E+04</pdfrwt>
<pdfrwt beam="2">  1       -1 0.39338994E-01 0.17655042E+04</pdfrwt>
<totfact> 0.32910967E+00</totfact>
</mgrwt>
</event>
<event>
12    1  0.1201209E-007  0.1931524E+04  0.7818608E-02  0.8639322E-01
         -1   -1    0    0    0  501 -0.00000000000E+00  0.00000000000E+00  0.68491560774E+03  0.68491560774E+03  0.00000000000E+00 0.  1.
          1   -1    0    0  501    0  0.00000000000E+00 -0.00000000000E+00 -0.13617679459E+04  0.13617679459E+04  0.00000000000E+00 0. -1.
         23    2    1    2    0    0 -0.29579000780E+02  0.43262418519E+03  0.38554507222E+03  0.58765806935E+03  0.93050528586E+02 0.  0.
        254    2    1    2    0    0  0.29579000780E+02 -0.43262418519E+03 -0.10623974103E+04  0.14590254842E+04  0.90112624159E+03 0.  0.
        -24    2    4    4    0    0  0.31922104854E+03  0.13448830857E+03 -0.32597707096E+03  0.48230687580E+03  0.79810329419E+02 0.  0.
         24    2    4    4    0    0 -0.28964204776E+03 -0.56711249376E+03 -0.73642033937E+03  0.97671860844E+03  0.78455257464E+02 0.  0.
         11    1    3    3    0    0  0.18260885264E+02  0.18361917686E+02  0.30162477355E+02  0.39754182069E+02  0.00000000000E+00 0. -1.
        -11    1    3    3    0    0 -0.47839886044E+02  0.41426226750E+03  0.35538259486E+03  0.54790388728E+03  0.00000000000E+00 0.  1.
          4    1    6    6  502    0 -0.10451939686E+03 -0.14449259637E+03 -0.23987553738E+03  0.29890247266E+03  0.00000000000E+00 0. -1.
          3    1    5    5  503    0  0.79955493567E+02  0.33577759041E+02 -0.13301341139E+03  0.15878575019E+03  0.00000000000E+00 0. -1.
         -2    1    5    5    0  503  0.23926555497E+03  0.10091054953E+03 -0.19296365957E+03  0.32352112561E+03  0.00000000000E+00 0.  1.
         -3    1    6    6    0  502 -0.18512265089E+03 -0.42261989739E+03 -0.49654480200E+03  0.67781613579E+03  0.00000000000E+00 0.  1.
<mgrwt>
<rscale>  0 0.19315239E+04</rscale>
<asrwt>0</asrwt>
<pdfrwt beam="1">  1        1 0.20950276E+00 0.19315239E+04</pdfrwt>
<pdfrwt beam="2">  1       -1 0.10537163E+00 0.19315239E+04</pdfrwt>
<totfact> 0.64411580E+00</totfact>
</mgrwt>
</event>
<event>
12    1  0.1201209E-007  0.2494173E+04  0.7818608E-02  0.8405064E-01
         -2   -1    0    0    0  501 -0.00000000000E+00  0.00000000000E+00  0.10055762387E+04  0.10055762387E+04  0.00000000000E+00 0.  1.
          2   -1    0    0  501    0  0.00000000000E+00 -0.00000000000E+00 -0.15466006364E+04  0.15466006364E+04  0.00000000000E+00 0. -1.
         23    2    1    2    0    0 -0.30494566055E+03  0.43348935951E+03  0.69751304152E+03  0.88057876890E+03  0.89384810993E+02 0.  0.
        254    2    1    2    0    0  0.30494566055E+03 -0.43348935951E+03 -0.12385374392E+04  0.16715981062E+04  0.98962637372E+03 0.  0.
        -24    2    4    4    0    0  0.10793972127E+03 -0.19060521688E+03 -0.13188199462E+04  0.13392224997E+04  0.79053911602E+02 0.  0.
         24    2    4    4    0    0  0.19700593928E+03 -0.24288414263E+03  0.80282507042E+02  0.33237560648E+03  0.78893700602E+02 0.  0.
         11    1    3    3    0    0 -0.31031201378E+02  0.10259987922E+03  0.15841698811E+03  0.19127365944E+03  0.00000000000E+00 0. -1.
        -11    1    3    3    0    0 -0.27391445918E+03  0.33088948030E+03  0.53909605341E+03  0.68930510945E+03  0.00000000000E+00 0.  1.
          4    1    6    6  502    0  0.80358862769E+02 -0.66627948908E+02  0.59101514782E+02  0.11995757354E+03  0.00000000000E+00 0. -1.
          3    1    5    5  503    0  0.99202074248E+02 -0.18057531988E+03 -0.10470959272E+04  0.10671730781E+04  0.00000000000E+00 0. -1.
         -4    1    5    5    0  503  0.87376470234E+01 -0.10029897008E+02 -0.27172401899E+03  0.27204942162E+03  0.00000000000E+00 0.  1.
         -3    1    6    6    0  502  0.11664707651E+03 -0.17625619372E+03  0.21180992260E+02  0.21241803294E+03  0.00000000000E+00 0.  1.
<mgrwt>
<rscale>  0 0.24941731E+04</rscale>
<asrwt>0</asrwt>
<pdfrwt beam="1">  1        2 0.23793856E+00 0.24941731E+04</pdfrwt>
<pdfrwt beam="2">  1       -2 0.15470404E+00 0.24941731E+04</pdfrwt>
<totfact> 0.29424571E+00</totfact>
</mgrwt>
</event>
<event>
12    1  0.1201209E-007  0.1230218E+04  0.7818608E-02  0.9086810E-01
          1   -1    0    0  501    0  0.00000000000E+00  0.00000000000E+00  0.14164434354E+04  0.14164434354E+04  0.00000000000E+00 0. -1.
         -1   -1    0    0    0  501 -0.00000000000E+00 -0.00000000000E+00 -0.26711924571E+03  0.26711924571E+03  0.00000000000E+00 0.  1.
         23    2    1    2    0    0  0.22773793635E+03 -0.15068048774E+03  0.26667417640E+03  0.39239233646E+03  0.91035445378E+02 0.  0.
        254    2    1    2    0    0 -0.22773793635E+03  0.15068048774E+03  0.88265001328E+03  0.12911703446E+04  0.90193161375E+03 0.  0.
        -24    2    4    4    0    0  0.41717205077E+02  0.92703548187E+02 -0.16240061785E+03  0.20743117612E+03  0.79495025649E+02 0.  0.
         24    2    4    4    0    0 -0.26945514143E+03  0.57976939549E+02  0.10450506311E+04  0.10837391685E+04  0.79952267011E+02 0.  0.
         11    1    3    3    0    0  0.11203209517E+03 -0.10669846046E+03  0.97877781659E+02  0.18307324205E+03  0.00000000000E+00 0. -1.
        -11    1    3    3    0    0  0.11570584118E+03 -0.43982027280E+02  0.16879639474E+03  0.20931909441E+03  0.00000000000E+00 0.  1.
          4    1    6    6  502    0 -0.13291079737E+03  0.57516826832E+02  0.64393631961E+03  0.66002079448E+03  0.00000000000E+00 0. -1.
          1    1    5    5  503    0  0.31450290159E+02  0.70724905738E+02 -0.16575998962E+03  0.18294126708E+03  0.00000000000E+00 0. -1.
         -2    1    5    5    0  503  0.10266914918E+02  0.21978642450E+02  0.33593717742E+01  0.24489909036E+02  0.00000000000E+00 0.  1.
         -3    1    6    6    0  502 -0.13654434406E+03  0.46011271724E+00  0.40111431151E+03  0.42371837404E+03  0.00000000000E+00 0.  1.
<mgrwt>
<rscale>  0 0.12302184E+04</rscale>
<asrwt>0</asrwt>
<pdfrwt beam="1">  1        1 0.21791437E+00 0.12302184E+04</pdfrwt>
<pdfrwt beam="2">  1       -1 0.41095269E-01 0.12302184E+04</pdfrwt>
<totfact> 0.42809365E+01</totfact>
</mgrwt>
</event>
<event>
12    1  0.1201209E-007  0.1247140E+04  0.7818608E-02  0.9072567E-01
          2   -1    0    0  501    0  0.00000000000E+00  0.00000000000E+00  0.45855592761E+03  0.45855592761E+03  0.00000000000E+00 0.  1.
         -2   -1    0    0    0  501 -0.00000000000E+00 -0.00000000000E+00 -0.84796506453E+03  0.84796506453E+03  0.00000000000E+00 0. -1.
         23    2    1    2    0    0 -0.10237580324E+03  0.20352850983E+03  0.10020534010E+03  0.26507131882E+03  0.91197776695E+02 0.  0.
        254    2    1    2    0    0  0.10237580324E+03 -0.20352850983E+03 -0.48961447702E+03  0.10414496733E+04  0.89050009914E+03 0.  0.
        -24    2    4    4    0    0  0.32645609813E+03 -0.35736300421E+03 -0.17694885008E+02  0.49101528217E+03  0.80628763992E+02 0.  0.
         24    2    4    4    0    0 -0.22408029490E+03  0.15383449438E+03 -0.47191959202E+03  0.55043439116E+03  0.79955534001E+02 0.  0.
         13    1    3    3    0    0 -0.44700689968E+02  0.51836682900E+02 -0.96127847150E+01  0.69120178007E+02  0.00000000000E+00 0. -1.
        -13    1    3    3    0    0 -0.57675113267E+02  0.15169182693E+03  0.10981812481E+03  0.19595114081E+03  0.00000000000E+00 0.  1.
          2    1    6    6  502    0 -0.12856370078E+03  0.76174424852E+02 -0.33192482370E+03  0.36401271509E+03  0.00000000000E+00 0. -1.
          1    1    5    5  503    0  0.39111568024E+02 -0.51506412104E+02  0.24676238551E+02  0.69220964961E+02  0.00000000000E+00 0. -1.
         -2    1    5    5    0  503  0.28734453011E+03 -0.30585659211E+03 -0.42371123559E+02  0.42179431721E+03  0.00000000000E+00 0.  1.
         -1    1    6    6    0  502 -0.95516594118E+02  0.77660069532E+02 -0.13999476831E+03  0.18642167606E+03  0.00000000000E+00 0.  1.
<mgrwt>
<rscale>  0 0.12471398E+04</rscale>
<asrwt>0</asrwt>
<pdfrwt beam="1">  1        2 0.70547066E-01 0.12471398E+04</pdfrwt>
<pdfrwt beam="2">  1       -2 0.13045616E+00 0.12471398E+04</pdfrwt>
<totfact> 0.28802873E+01</totfact>
</mgrwt>
</event>
<event>
12    1  0.1201209E-007  0.1405529E+04  0.7818608E-02  0.8949826E-01
          1   -1    0    0  501    0  0.00000000000E+00  0.00000000000E+00  0.23359587132E+04  0.23359587132E+04  0.00000000000E+00 0. -1.
         -1   -1    0    0    0  501 -0.00000000000E+00 -0.00000000000E+00 -0.21142416754E+03  0.21142416754E+03  0.00000000000E+00 0.  1.
         23    2    1    2    0    0  0.13303699720E+03  0.31092573276E+03  0.10340744664E+04  0.10919379393E+04  0.92977456701E+02 0.  0.
        254    2    1    2    0    0 -0.13303699720E+03 -0.31092573276E+03  0.10904600793E+04  0.14554449414E+04  0.90268662280E+03 0.  0.
        -24    2    4    4    0    0  0.19871659299E+03 -0.42962972906E+03  0.25260096890E+03  0.54252120412E+03  0.80324460845E+02 0.  0.
         24    2    4    4    0    0 -0.33175359019E+03  0.11870399629E+03  0.83785911036E+03  0.91292373725E+03  0.85268856506E+02 0.  0.
         13    1    3    3    0    0  0.23356891739E+01  0.11205718835E+03  0.29999521764E+03  0.32024896488E+03  0.00000000000E+00 0.  1.
        -13    1    3    3    0    0  0.13070130802E+03  0.19886854442E+03  0.73407924874E+03  0.77168897446E+03  0.00000000000E+00 0. -1.
          4    1    6    6  502    0 -0.28059322859E+02 -0.12374709314E+02  0.92909553461E+02  0.97839890404E+02  0.00000000000E+00 0. -1.
          3    1    5    5  503    0  0.10280338845E+02 -0.14629474584E+02  0.30859884801E+02  0.35665661122E+02  0.00000000000E+00 0. -1.
         -4    1    5    5    0  503  0.18843625414E+03 -0.41500025447E+03  0.22174108410E+03  0.50685554299E+03  0.00000000000E+00 0.  1.
         -3    1    6    6    0  502 -0.30369426733E+03  0.13107870561E+03  0.74494955690E+03  0.81508384685E+03  0.00000000000E+00 0.  1.
<mgrwt>
<rscale>  0 0.14055293E+04</rscale>
<asrwt>0</asrwt>
<pdfrwt beam="1">  1        1 0.35937824E+00 0.14055293E+04</pdfrwt>
<pdfrwt beam="2">  1       -1 0.32526797E-01 0.14055293E+04</pdfrwt>
<totfact> 0.15195280E+01</totfact>
</mgrwt>
</event>
<event>
12    1  0.1201209E-007  0.2880203E+04  0.7818608E-02  0.8278792E-01
         -1   -1    0    0    0  501 -0.00000000000E+00  0.00000000000E+00  0.15240359759E+04  0.15240359759E+04  0.00000000000E+00 0.  1.
          1   -1    0    0  501    0  0.00000000000E+00 -0.00000000000E+00 -0.13607897633E+04  0.13607897633E+04  0.00000000000E+00 0. -1.
         23    2    1    2    0    0 -0.48872834797E+03 -0.87970920027E+03 -0.74504690493E+03  0.12555166308E+04  0.92105615456E+02 0.  0.
        254    2    1    2    0    0  0.48872834797E+03  0.87970920027E+03  0.90829311749E+03  0.16293091085E+04  0.90382968999E+03 0.  0.
        -24    2    4    4    0    0  0.23671653469E+03  0.18410308085E+03 -0.14244129368E+03  0.34171181926E+03  0.80924551903E+02 0.  0.
         24    2    4    4    0    0  0.25201181328E+03  0.69560611942E+03  0.10507344112E+04  0.12875972892E+04  0.80536631134E+02 0.  0.
         11    1    3    3    0    0 -0.31808731992E+02 -0.81078706846E+02 -0.95437125724E+02  0.12920447787E+03  0.00000000000E+00 0.  1.
        -11    1    3    3    0    0 -0.45691961598E+03 -0.79863049342E+03 -0.64960977921E+03  0.11263121529E+04  0.00000000000E+00 0. -1.
          4    1    6    6  502    0  0.11397147036E+02  0.59891343836E+02  0.55848859040E+02  0.82679883183E+02  0.00000000000E+00 0. -1.
          1    1    5    5  503    0  0.11923687663E+03  0.93158254055E+02 -0.11633935741E+03  0.19086838169E+03  0.00000000000E+00 0. -1.
         -2    1    5    5    0  503  0.11747965807E+03  0.90944826799E+02 -0.26101936268E+02  0.15084343757E+03  0.00000000000E+00 0.  1.
         -3    1    6    6    0  502  0.24061466624E+03  0.63571477558E+03  0.99488555213E+03  0.12049174060E+04  0.00000000000E+00 0.  1.
<mgrwt>
<rscale>  0 0.28802032E+04</rscale>
<asrwt>0</asrwt>
<pdfrwt beam="1">  1        1 0.20935227E+00 0.28802032E+04</pdfrwt>
<pdfrwt beam="2">  1       -1 0.23446707E+00 0.28802032E+04</pdfrwt>
<totfact> 0.62078240E-01</totfact>
</mgrwt>
</event>
<event>
12    1  0.1201209E-007  0.2320448E+04  0.7818608E-02  0.8469902E-01
          2   -1    0    0  501    0  0.00000000000E+00  0.00000000000E+00  0.13466720342E+04  0.13466720342E+04  0.00000000000E+00 0. -1.
         -2   -1    0    0    0  501 -0.00000000000E+00 -0.00000000000E+00 -0.99958951345E+03  0.99958951345E+03  0.00000000000E+00 0.  1.
         23    2    1    2    0    0  0.42188243230E+02  0.86466457836E+03  0.61693149298E+03  0.10673975426E+04  0.96479872938E+02 0.  0.
        254    2    1    2    0    0 -0.42188243230E+02 -0.86466457836E+03 -0.26984897221E+03  0.12788640051E+04  0.90180374519E+03 0.  0.
        -24    2    4    4    0    0  0.21617721405E+03 -0.10631968559E+01 -0.29406449694E+03  0.37366662451E+03  0.80119283883E+02 0.  0.
         24    2    4    4    0    0 -0.25836545728E+03 -0.86360138150E+03  0.24215524738E+02  0.90519738060E+03  0.78967401843E+02 0.  0.
         13    1    3    3    0    0 -0.23091628135E+01  0.67122367779E+03  0.45083522776E+03  0.80857835764E+03  0.00000000000E+00 0. -1.
        -13    1    3    3    0    0  0.44497406044E+02  0.19344090057E+03  0.16609626522E+03  0.25881918491E+03  0.00000000000E+00 0.  1.
          4    1    6    6  502    0 -0.25090637745E+03 -0.75217026427E+03  0.13836820156E+02  0.79303567025E+03  0.00000000000E+00 0. -1.
          3    1    5    5  503    0  0.17455481982E+03 -0.25831653740E+02 -0.26088794495E+03  0.31495901206E+03  0.00000000000E+00 0. -1.
         -4    1    5    5    0  503  0.41622394229E+02  0.24768456884E+02 -0.33176551997E+02  0.58707612455E+02  0.00000000000E+00 0.  1.
         -3    1    6    6    0  502 -0.74590798368E+01 -0.11143111724E+03  0.10378704582E+02  0.11216171035E+03  0.00000000000E+00 0.  1.
<mgrwt>
<rscale>  0 0.23204476E+04</rscale>
<asrwt>0</asrwt>
<pdfrwt beam="1">  1        2 0.20718031E+00 0.23204476E+04</pdfrwt>
<pdfrwt beam="2">  1       -2 0.15378300E+00 0.23204476E+04</pdfrwt>
<totfact> 0.39418054E+00</totfact>
</mgrwt>
</event>
<event>
12    1  0.1201209E-007  0.2773119E+04  0.7818608E-02  0.8311663E-01
          2   -1    0    0  501    0  0.00000000000E+00  0.00000000000E+00  0.33067966515E+04  0.33067966515E+04  0.00000000000E+00 0.  1.
         -2   -1    0    0    0  501 -0.00000000000E+00 -0.00000000000E+00 -0.58139273155E+03  0.58139273155E+03  0.00000000000E+00 0. -1.
         23    2    1    2    0    0  0.64217382239E+03 -0.40039922586E+03 -0.15029859388E+03  0.77695146403E+03  0.91417459478E+02 0.  0.
        254    2    1    2    0    0 -0.64217382239E+03  0.40039922586E+03  0.28757025138E+04  0.31112379190E+04  0.91511184155E+03 0.  0.
        -24    2    4    4    0    0 -0.75402006491E+03  0.93822628405E+02  0.13706349777E+04  0.15691284417E+04  0.78580408035E+02 0.  0.
         24    2    4    4    0    0  0.11184624252E+03  0.30657659745E+03  0.15050675361E+04  0.15421094773E+04  0.79840840091E+02 0.  0.
         11    1    3    3    0    0  0.63556779382E+03 -0.37936745044E+03 -0.14744731996E+03  0.75472299234E+03  0.00000000000E+00 0. -1.
        -11    1    3    3    0    0  0.66060285679E+01 -0.21031775417E+02 -0.28512739207E+01  0.22228471689E+02  0.00000000000E+00 0.  1.
          4    1    6    6  502    0  0.10187849127E+03  0.21421404468E+03  0.11996246108E+04  0.12228516226E+04  0.00000000000E+00 0. -1.
          1    1    5    5  503    0 -0.32553454814E+03  0.13591549948E+01  0.58565372445E+03  0.67004841191E+03  0.00000000000E+00 0. -1.
         -2    1    5    5    0  503 -0.42848551676E+03  0.92463473411E+02  0.78498125326E+03  0.89908002979E+03  0.00000000000E+00 0.  1.
         -3    1    6    6    0  502  0.99677512451E+01  0.92362552770E+02  0.30544292526E+03  0.31925785474E+03  0.00000000000E+00 0.  1.
<mgrwt>
<rscale>  0 0.27731192E+04</rscale>
<asrwt>0</asrwt>
<pdfrwt beam="1">  1        2 0.50873794E+00 0.27731192E+04</pdfrwt>
<pdfrwt beam="2">  1       -2 0.89445038E-01 0.27731192E+04</pdfrwt>
<totfact> 0.10302020E+00</totfact>
</mgrwt>
</event>
<event>
12    1  0.1201209E-007  0.2312203E+04  0.7818608E-02  0.8473125E-01
         -2   -1    0    0    0  501 -0.00000000000E+00  0.00000000000E+00  0.74618400723E+03  0.74618400723E+03  0.00000000000E+00 0.  1.
          2   -1    0    0  501    0  0.00000000000E+00 -0.00000000000E+00 -0.17912072288E+04  0.17912072288E+04  0.00000000000E+00 0. -1.
         23    2    1    2    0    0  0.61903991366E+03  0.44639151142E+02 -0.12763983297E+04  0.14219033005E+04  0.86100124837E+02 0.  0.
        254    2    1    2    0    0 -0.61903991366E+03 -0.44639151142E+02  0.23137510812E+03  0.11154879355E+04  0.89753875965E+03 0.  0.
        -24    2    4    4    0    0 -0.12312517447E+03 -0.42483980510E+03  0.17711775188E+03  0.48323045256E+03  0.80574832664E+02 0.  0.
         24    2    4    4    0    0 -0.49591473919E+03  0.38020065396E+03  0.54257356241E+02  0.63225748294E+03  0.79509107726E+02 0.  0.
         13    1    3    3    0    0  0.60352218713E+03  0.29647128829E+02 -0.12438533420E+04  0.13828554223E+04  0.00000000000E+00 0. -1.
        -13    1    3    3    0    0  0.15517726527E+02  0.14992022313E+02 -0.32544987709E+02  0.39047878234E+02  0.00000000000E+00 0.  1.
          4    1    6    6  502    0 -0.39195794673E+03  0.29290418306E+03  0.97771094389E+01  0.48940727859E+03  0.00000000000E+00 0. -1.
          3    1    5    5  503    0 -0.83236955912E+02 -0.37801548432E+03  0.14132779290E+03  0.41206509469E+03  0.00000000000E+00 0. -1.
         -4    1    5    5    0  503 -0.39888218559E+02 -0.46824320781E+02  0.35789958979E+02  0.71165357865E+02  0.00000000000E+00 0.  1.
         -3    1    6    6    0  502 -0.10395679246E+03  0.87296470899E+02  0.44480246802E+02  0.14285020436E+03  0.00000000000E+00 0.  1.
<mgrwt>
<rscale>  0 0.23122026E+04</rscale>
<asrwt>0</asrwt>
<pdfrwt beam="1">  1        2 0.27557034E+00 0.23122026E+04</pdfrwt>
<pdfrwt beam="2">  1       -2 0.11479754E+00 0.23122026E+04</pdfrwt>
<totfact> 0.46807312E+00</totfact>
</mgrwt>
</event>
<event>
12    1  0.1201209E-007  0.1805158E+04  0.7818608E-02  0.8703561E-01
          2   -1    0    0  501    0  0.00000000000E+00  0.00000000000E+00  0.12357751812E+04  0.12357751812E+04  0.00000000000E+00 0.  1.
         -2   -1    0    0    0  501 -0.00000000000E+00 -0.00000000000E+00 -0.65922102426E+03  0.65922102426E+03  0.00000000000E+00 0. -1.
         23    2    1    2    0    0 -0.50699214982E+03  0.35970252703E+03 -0.34238401329E+02  0.62915264640E+03  0.90740489366E+02 0.  0.
        254    2    1    2    0    0  0.50699214982E+03 -0.35970252703E+03  0.61079255830E+03  0.12658435591E+04  0.91807702232E+03 0.  0.
        -24    2    4    4    0    0  0.10262806246E+03 -0.60748975022E+03  0.27526527013E+03  0.67933934139E+03  0.78451615679E+02 0.  0.
         24    2    4    4    0    0  0.40436408736E+03  0.24778722319E+03  0.33552728817E+03  0.58650421770E+03  0.80621418742E+02 0.  0.
         11    1    3    3    0    0 -0.38279556649E+03  0.30790572913E+03 -0.42196623347E+01  0.49128015358E+03  0.00000000000E+00 0. -1.
        -11    1    3    3    0    0 -0.12419658333E+03  0.51796797905E+02 -0.30018738994E+02  0.13787249282E+03  0.00000000000E+00 0.  1.
          4    1    6    6  502    0  0.11471204651E+03  0.39094640793E+02  0.58203147999E+02  0.13444274242E+03  0.00000000000E+00 0. -1.
          1    1    5    5  503    0  0.14068389768E+02 -0.23884410158E+03  0.13748370692E+03  0.27594599856E+03  0.00000000000E+00 0. -1.
         -2    1    5    5    0  503  0.88559672695E+02 -0.36864564863E+03  0.13778156321E+03  0.40339334284E+03  0.00000000000E+00 0.  1.
         -3    1    6    6    0  502  0.28965204085E+03  0.20869258239E+03  0.27732414017E+03  0.45206147528E+03  0.00000000000E+00 0.  1.
<mgrwt>
<rscale>  0 0.18051581E+04</rscale>
<asrwt>0</asrwt>
<pdfrwt beam="1">  1        2 0.19011926E+00 0.18051581E+04</pdfrwt>
<pdfrwt beam="2">  1       -2 0.10141862E+00 0.18051581E+04</pdfrwt>
<totfact> 0.13595933E+01</totfact>
</mgrwt>
</event>
<event>
12    1  0.1201209E-007  0.2077521E+04  0.7818608E-02  0.8571211E-01
         -1   -1    0    0    0  501 -0.00000000000E+00  0.00000000000E+00  0.16778218288E+04  0.16778218288E+04  0.00000000000E+00 0.  1.
          1   -1    0    0  501    0  0.00000000000E+00 -0.00000000000E+00 -0.64310961213E+03  0.64310961213E+03  0.00000000000E+00 0. -1.
         23    2    1    2    0    0 -0.48535983793E+03  0.68325054028E+03  0.44691900812E+03  0.95430094889E+03  0.92456628566E+02 0.  0.
        254    2    1    2    0    0  0.48535983793E+03 -0.68325054028E+03  0.58779320854E+03  0.13666304920E+04  0.90541292937E+03 0.  0.
        -24    2    4    4    0    0  0.45878217735E+03 -0.82835070382E+03  0.68616666053E+03  0.11718758618E+04  0.76304486704E+02 0.  0.
         24    2    4    4    0    0  0.26577660585E+02  0.14510016353E+03 -0.98373451984E+02  0.19475463023E+03  0.80570468801E+02 0.  0.
         11    1    3    3    0    0 -0.81167919263E+02  0.10567080641E+03  0.11087559471E+03  0.17334343930E+03  0.00000000000E+00 0. -1.
        -11    1    3    3    0    0 -0.40419191867E+03  0.57757973388E+03  0.33604341340E+03  0.78095750959E+03  0.00000000000E+00 0.  1.
          2    1    6    6  502    0  0.11131032573E+02  0.47949400227E+02  0.79972780232E+01  0.49869843834E+02  0.00000000000E+00 0. -1.
          1    1    5    5  503    0  0.96231158180E+02 -0.20624265285E+03  0.13043721403E+03  0.26231724012E+03  0.00000000000E+00 0. -1.
         -2    1    5    5    0  503  0.36255101917E+03 -0.62210805096E+03  0.55572944649E+03  0.90955862168E+03  0.00000000000E+00 0.  1.
         -1    1    6    6    0  502  0.15446628012E+02  0.97150763305E+02 -0.10637073001E+03  0.14488478640E+03  0.00000000000E+00 0.  1.
<mgrwt>
<rscale>  0 0.20775210E+04</rscale>
<asrwt>0</asrwt>
<pdfrwt beam="1">  1        1 0.98939941E-01 0.20775210E+04</pdfrwt>
<pdfrwt beam="2">  1       -1 0.25812643E+00 0.20775210E+04</pdfrwt>
<totfact> 0.17594876E+00</totfact>
</mgrwt>
</event>
<event>
12    1  0.1201209E-007  0.3091045E+04  0.7818608E-02  0.8218200E-01
         -2   -1    0    0    0  501 -0.00000000000E+00  0.00000000000E+00  0.16904389842E+04  0.16904389842E+04  0.00000000000E+00 0.  1.
          2   -1    0    0  501    0  0.00000000000E+00 -0.00000000000E+00 -0.14130289344E+04  0.14130289344E+04  0.00000000000E+00 0. -1.
         23    2    1    2    0    0  0.26453395362E+03 -0.10756959388E+04  0.10008609043E+04  0.14958138913E+04  0.92933752780E+02 0.  0.
        254    2    1    2    0    0 -0.26453395362E+03  0.10756959388E+04 -0.72345085440E+03  0.16076540273E+04  0.91327453005E+03 0.  0.
        -24    2    4    4    0    0  0.27447864223E+03  0.59714446748E+03 -0.55338754473E+03  0.86292748711E+03  0.80535912904E+02 0.  0.
         24    2    4    4    0    0 -0.53901259585E+03  0.47855147134E+03 -0.17006330968E+03  0.74472654016E+03  0.78421942807E+02 0.  0.
         13    1    3    3    0    0  0.13547350076E+03 -0.54163431087E+03  0.44196337000E+03  0.71207613114E+03  0.00000000000E+00 0.  1.
        -13    1    3    3    0    0  0.12906045287E+03 -0.53406162795E+03  0.55889753428E+03  0.78373776021E+03  0.00000000000E+00 0. -1.
          4    1    6    6  502    0 -0.29082414354E+03  0.20868167198E+03 -0.70781531904E+02  0.36487908675E+03  0.00000000000E+00 0. -1.
          1    1    5    5  503    0  0.28272261289E+02  0.12774596619E+03 -0.13119886429E+03  0.18528759977E+03  0.00000000000E+00 0. -1.
         -2    1    5    5    0  503  0.24620638094E+03  0.46939850129E+03 -0.42218868044E+03  0.67763988734E+03  0.00000000000E+00 0.  1.
         -3    1    6    6    0  502 -0.24818845230E+03  0.26986979936E+03 -0.99281777772E+02  0.37984745341E+03  0.00000000000E+00 0.  1.
<mgrwt>
<rscale>  0 0.30910446E+04</rscale>
<asrwt>0</asrwt>
<pdfrwt beam="1">  1        2 0.21738907E+00 0.30910446E+04</pdfrwt>
<pdfrwt beam="2">  1       -2 0.26006754E+00 0.30910446E+04</pdfrwt>
<totfact> 0.67364419E-01</totfact>
</mgrwt>
</event>
<event>
12    1  0.1201209E-007  0.1836845E+04  0.7818608E-02  0.8686947E-01
         -1   -1    0    0    0  501 -0.00000000000E+00  0.00000000000E+00  0.39392975260E+03  0.39392975260E+03  0.00000000000E+00 0.  1.
          1   -1    0    0  501    0  0.00000000000E+00 -0.00000000000E+00 -0.21412453359E+04  0.21412453359E+04  0.00000000000E+00 0. -1.
         23    2    1    2    0    0  0.25550619857E+03 -0.15062255760E+03  0.19894407002E+03  0.36916422550E+03  0.93450040280E+02 0.  0.
        254    2    1    2    0    0 -0.25550619857E+03  0.15062255760E+03 -0.19462596533E+04  0.21660108630E+04  0.90316435275E+03 0.  0.
        -24    2    4    4    0    0  0.28628352460E+03 -0.56396726223E+02 -0.33226310410E+03  0.44913244823E+03  0.78627848252E+02 0.  0.
         24    2    4    4    0    0 -0.54178972317E+03  0.20701928383E+03 -0.16139965492E+04  0.17168784147E+04  0.79331848299E+02 0.  0.
         11    1    3    3    0    0  0.30629162241E+02 -0.99059764755E+01  0.63770484225E+02  0.71434925687E+02  0.00000000000E+00 0. -1.
        -11    1    3    3    0    0  0.22487703633E+03 -0.14071658113E+03  0.13517358579E+03  0.29772929982E+03  0.00000000000E+00 0.  1.
          4    1    6    6  502    0 -0.32264065599E+03  0.16399498065E+03 -0.10159029845E+04  0.10784480611E+04  0.00000000000E+00 0. -1.
          1    1    5    5  503    0  0.25418209062E+03 -0.70882430548E+02 -0.26959165345E+03  0.37724330844E+03  0.00000000000E+00 0. -1.
         -2    1    5    5    0  503  0.32101433982E+02  0.14485704325E+02 -0.62671450648E+02  0.71889139790E+02  0.00000000000E+00 0.  1.
         -3    1    6    6    0  502 -0.21914906719E+03  0.43024303179E+02 -0.59809356471E+03  0.63843035365E+03  0.00000000000E+00 0.  1.
<mgrwt>
<rscale>  0 0.18368454E+04</rscale>
<asrwt>0</asrwt>
<pdfrwt beam="1">  1        1 0.32942236E+00 0.18368454E+04</pdfrwt>
<pdfrwt beam="2">  1       -1 0.60604577E-01 0.18368454E+04</pdfrwt>
<totfact> 0.62059074E+00</totfact>
</mgrwt>
</event>
<event>
12    1  0.1201209E-007  0.1406361E+04  0.7818608E-02  0.8949227E-01
          2   -1    0    0  501    0  0.00000000000E+00  0.00000000000E+00  0.14112283022E+04  0.14112283022E+04  0.00000000000E+00 0. -1.
         -2   -1    0    0    0  501 -0.00000000000E+00 -0.00000000000E+00 -0.35037776500E+03  0.35037776500E+03  0.00000000000E+00 0.  1.
         23    2    1    2    0    0 -0.23233133392E+03 -0.24172416651E+03  0.18826242836E+02  0.34807209916E+03  0.91604243327E+02 0.  0.
        254    2    1    2    0    0  0.23233133392E+03  0.24172416651E+03  0.10420242944E+04  0.14135339681E+04  0.89434625699E+03 0.  0.
        -24    2    4    4    0    0  0.27567119008E+03  0.44186958788E+03  0.23470608330E+03  0.57682238050E+03  0.79961086628E+02 0.  0.
         24    2    4    4    0    0 -0.43339856160E+02 -0.20014542137E+03  0.80731821109E+03  0.83671158757E+03  0.79919046473E+02 0.  0.
         13    1    3    3    0    0 -0.23900104006E+03 -0.24093121174E+03  0.13735042146E+02  0.33964392725E+03  0.00000000000E+00 0.  1.
        -13    1    3    3    0    0  0.66697061345E+01 -0.79295477421E+00  0.50912006901E+01  0.84281719050E+01  0.00000000000E+00 0. -1.
          4    1    6    6  502    0 -0.10374683355E+02 -0.17663114339E+03  0.69979346476E+03  0.72181513436E+03  0.00000000000E+00 0. -1.
          3    1    5    5  503    0  0.24023725542E+03  0.41466999347E+03  0.19617924704E+03  0.51783340887E+03  0.00000000000E+00 0. -1.
         -4    1    5    5    0  503  0.35433934666E+02  0.27199594414E+02  0.38526836257E+02  0.58988971632E+02  0.00000000000E+00 0.  1.
         -3    1    6    6    0  502 -0.32965172805E+02 -0.23514277975E+02  0.10752474633E+03  0.11489645321E+03  0.00000000000E+00 0.  1.
<mgrwt>
<rscale>  0 0.14063613E+04</rscale>
<asrwt>0</asrwt>
<pdfrwt beam="1">  1        2 0.21711204E+00 0.14063613E+04</pdfrwt>
<pdfrwt beam="2">  1       -2 0.53904272E-01 0.14063613E+04</pdfrwt>
<totfact> 0.44957730E+01</totfact>
</mgrwt>
</event>
<event>
12    1  0.1201209E-007  0.2178316E+04  0.7818608E-02  0.8527508E-01
         -2   -1    0    0    0  501 -0.00000000000E+00  0.00000000000E+00  0.52035899609E+03  0.52035899609E+03  0.00000000000E+00 0.  1.
          2   -1    0    0  501    0  0.00000000000E+00 -0.00000000000E+00 -0.22797044992E+04  0.22797044992E+04  0.00000000000E+00 0. -1.
         23    2    1    2    0    0 -0.71034960788E+03  0.21120628360E+03 -0.13559494550E+04  0.15479870167E+04  0.91979452382E+02 0.  0.
        254    2    1    2    0    0  0.71034960788E+03 -0.21120628360E+03 -0.40339604806E+03  0.12520764785E+04  0.92507430885E+03 0.  0.
        -24    2    4    4    0    0  0.78771283075E+03 -0.24069924820E+03 -0.60182435622E+03  0.10228142549E+04  0.74355985346E+02 0.  0.
         24    2    4    4    0    0 -0.77363222870E+02  0.29492964600E+02  0.19842830816E+03  0.22926222360E+03  0.79576821225E+02 0.  0.
         11    1    3    3    0    0 -0.70659071330E+03  0.21608889586E+03 -0.13315668764E+04  0.15228378749E+04  0.00000000000E+00 0. -1.
        -11    1    3    3    0    0 -0.37588945820E+01 -0.48826122600E+01 -0.24382578644E+02  0.25149141780E+02  0.00000000000E+00 0.  1.
          4    1    6    6  502    0 -0.79343841349E+02  0.93277644381E+01  0.19207535736E+03  0.20802739064E+03  0.00000000000E+00 0. -1.
          1    1    5    5  503    0  0.52745603649E+03 -0.19696819876E+03 -0.40318649129E+03  0.69250681477E+03  0.00000000000E+00 0. -1.
         -2    1    5    5    0  503  0.26025679427E+03 -0.43731049439E+02 -0.19863786494E+03  0.33030744017E+03  0.00000000000E+00 0.  1.
         -3    1    6    6    0  502  0.19806184787E+01  0.20165200162E+02  0.63529508009E+01  0.21234832964E+02  0.00000000000E+00 0.  1.
<mgrwt>
<rscale>  0 0.21783156E+04</rscale>
<asrwt>0</asrwt>
<pdfrwt beam="1">  1        2 0.35072377E+00 0.21783156E+04</pdfrwt>
<pdfrwt beam="2">  1       -2 0.80055230E-01 0.21783156E+04</pdfrwt>
<totfact> 0.58828680E+00</totfact>
</mgrwt>
</event>
<event>
12    1  0.1201209E-007  0.1402338E+04  0.7818608E-02  0.8952128E-01
          2   -1    0    0  501    0  0.00000000000E+00  0.00000000000E+00  0.14845010678E+04  0.14845010678E+04  0.00000000000E+00 0. -1.
         -2   -1    0    0    0  501 -0.00000000000E+00 -0.00000000000E+00 -0.33118073778E+03  0.33118073778E+03  0.00000000000E+00 0.  1.
         23    2    1    2    0    0 -0.13899755774E+03 -0.13242366125E+03  0.80462846420E+03  0.83226429992E+03  0.91545357106E+02 0.  0.
        254    2    1    2    0    0  0.13899755774E+03  0.13242366125E+03  0.34869186584E+03  0.98341750568E+03  0.89925948761E+03 0.  0.
        -24    2    4    4    0    0 -0.19165788253E+03  0.69873691028E+02 -0.22437515632E+03  0.31404514073E+03  0.81639837143E+02 0.  0.
         24    2    4    4    0    0  0.33065544027E+03  0.62549970225E+02  0.57306702215E+03  0.66937236495E+03  0.80050185012E+02 0.  0.
         13    1    3    3    0    0 -0.13920721512E+03 -0.99507452423E+02  0.56375240801E+03  0.58914952208E+03  0.00000000000E+00 0. -1.
        -13    1    3    3    0    0  0.20965738245E+00 -0.32916208830E+02  0.24087605619E+03  0.24311477784E+03  0.00000000000E+00 0.  1.
          4    1    6    6  502    0  0.17702850083E+03 -0.56030516488E+01  0.31569446115E+03  0.36198546531E+03  0.00000000000E+00 0. -1.
          1    1    5    5  503    0 -0.25743308464E+02  0.42300602767E+02 -0.34279558090E+02  0.60225800352E+02  0.00000000000E+00 0. -1.
         -2    1    5    5    0  503 -0.16591457407E+03  0.27573088261E+02 -0.19009559823E+03  0.25381934038E+03  0.00000000000E+00 0.  1.
         -3    1    6    6    0  502  0.15362693944E+03  0.68153021874E+02  0.25737256101E+03  0.30738689964E+03  0.00000000000E+00 0.  1.
<mgrwt>
<rscale>  0 0.14023383E+04</rscale>
<asrwt>0</asrwt>
<pdfrwt beam="1">  1        2 0.22838478E+00 0.14023383E+04</pdfrwt>
<pdfrwt beam="2">  1       -2 0.50950884E-01 0.14023383E+04</pdfrwt>
<totfact> 0.45885430E+01</totfact>
</mgrwt>
</event>
<event>
12    1  0.1201209E-007  0.1662438E+04  0.7818608E-02  0.8783082E-01
          2   -1    0    0  501    0  0.00000000000E+00  0.00000000000E+00  0.62652319489E+03  0.62652319489E+03  0.00000000000E+00 0. -1.
         -2   -1    0    0    0  501 -0.00000000000E+00 -0.00000000000E+00 -0.11027927901E+04  0.11027927901E+04  0.00000000000E+00 0.  1.
         23    2    1    2    0    0  0.13197085527E+02  0.55630877919E+03  0.69563765848E-01  0.56477867141E+03  0.96546993545E+02 0.  0.
        254    2    1    2    0    0 -0.13197085527E+02 -0.55630877919E+03 -0.47633915899E+03  0.11645373136E+04  0.90531460802E+03 0.  0.
        -24    2    4    4    0    0 -0.44510733938E+03 -0.23870064138E+03 -0.30727942167E+03  0.59670724682E+03  0.80872465425E+02 0.  0.
         24    2    4    4    0    0  0.43191025385E+03 -0.31760813782E+03 -0.16905973732E+03  0.56783006678E+03  0.80177262120E+02 0.  0.
         11    1    3    3    0    0 -0.42347683038E+01  0.26912280044E+03  0.47098606811E+02  0.27324584854E+03  0.00000000000E+00 0.  1.
        -11    1    3    3    0    0  0.17431853831E+02  0.28718597875E+03 -0.47029043045E+02  0.29153282287E+03  0.00000000000E+00 0. -1.
          4    1    6    6  502    0  0.28636605002E+03 -0.24816958818E+03 -0.14000100546E+03  0.40397269788E+03  0.00000000000E+00 0. -1.
          3    1    5    5  503    0 -0.31293641220E+03 -0.12891895938E+03 -0.18395710734E+03  0.38521359465E+03  0.00000000000E+00 0. -1.
         -4    1    5    5    0  503 -0.13217092718E+03 -0.10978168200E+03 -0.12332231433E+03  0.21149365217E+03  0.00000000000E+00 0.  1.
         -3    1    6    6    0  502  0.14554420383E+03 -0.69438549642E+02 -0.29058731857E+02  0.16385736890E+03  0.00000000000E+00 0.  1.
<mgrwt>
<rscale>  0 0.16624383E+04</rscale>
<asrwt>0</asrwt>
<pdfrwt beam="1">  1        2 0.96388185E-01 0.16624383E+04</pdfrwt>
<pdfrwt beam="2">  1       -2 0.16966043E+00 0.16624383E+04</pdfrwt>
<totfact> 0.96150778E+00</totfact>
</mgrwt>
</event>
<event>
12    1  0.1201209E-007  0.1477436E+04  0.7818608E-02  0.8899598E-01
         -2   -1    0    0    0  501 -0.00000000000E+00  0.00000000000E+00  0.25949117196E+03  0.25949117196E+03  0.00000000000E+00 0.  1.
          2   -1    0    0  501    0  0.00000000000E+00 -0.00000000000E+00 -0.21029790448E+04  0.21029790448E+04  0.00000000000E+00 0. -1.
         23    2    1    2    0    0  0.24438688118E+02 -0.42151309613E+03 -0.86830432036E+03  0.97000632341E+03  0.93216602719E+02 0.  0.
        254    2    1    2    0    0 -0.24438688118E+02  0.42151309613E+03 -0.97518355247E+03  0.13924638934E+04  0.89983453678E+03 0.  0.
        -24    2    4    4    0    0  0.28731880172E+03 -0.37058537755E+02 -0.71298819669E+03  0.77415761389E+03  0.83919088912E+02 0.  0.
         24    2    4    4    0    0 -0.31175748984E+03  0.45857163388E+03 -0.26219535578E+03  0.61830627946E+03  0.77945973277E+02 0.  0.
         11    1    3    3    0    0  0.32449375267E+02 -0.29569566269E+03 -0.69233418254E+03  0.75353533905E+03  0.00000000000E+00 0.  1.
        -11    1    3    3    0    0 -0.80106871492E+01 -0.12581743344E+03 -0.17597013782E+03  0.21647098436E+03  0.00000000000E+00 0. -1.
          2    1    6    6  502    0 -0.26181624481E+02  0.89781981743E+02 -0.44926796555E+02  0.10375306624E+03  0.00000000000E+00 0. -1.
          3    1    5    5  503    0 -0.38096773074E+01  0.48227246043E+01 -0.28440098465E+02  0.29096589396E+02  0.00000000000E+00 0. -1.
         -4    1    5    5    0  503  0.29112847903E+03 -0.41881262360E+02 -0.68454809823E+03  0.74506102450E+03  0.00000000000E+00 0.  1.
         -1    1    6    6    0  502 -0.28557586536E+03  0.36878965214E+03 -0.21726855923E+03  0.51455321321E+03  0.00000000000E+00 0.  1.
<mgrwt>
<rscale>  0 0.14774363E+04</rscale>
<asrwt>0</asrwt>
<pdfrwt beam="1">  1        2 0.32353523E+00 0.14774363E+04</pdfrwt>
<pdfrwt beam="2">  1       -2 0.39921720E-01 0.14774363E+04</pdfrwt>
<totfact> 0.33659213E+01</totfact>
</mgrwt>
</event>
<event>
12    1  0.1201209E-007  0.1742986E+04  0.7818608E-02  0.8737220E-01
         -1   -1    0    0    0  501 -0.00000000000E+00  0.00000000000E+00  0.44188894487E+03  0.44188894487E+03  0.00000000000E+00 0.  1.
          1   -1    0    0  501    0  0.00000000000E+00 -0.00000000000E+00 -0.17187583130E+04  0.17187583130E+04  0.00000000000E+00 0. -1.
         23    2    1    2    0    0  0.66734271509E+02  0.75328912058E+02 -0.12520567500E+04  0.12590473862E+04  0.86176025847E+02 0.  0.
        254    2    1    2    0    0 -0.66734271509E+02 -0.75328912058E+02 -0.24812618050E+02  0.90159987162E+03  0.89562199309E+03 0.  0.
        -24    2    4    4    0    0  0.23475434198E+03 -0.33121381554E+03  0.17771774898E+03  0.45039943870E+03  0.80398155437E+02 0.  0.
         24    2    4    4    0    0 -0.30148861349E+03  0.25588490348E+03 -0.20253036703E+03  0.45120043291E+03  0.78681720872E+02 0.  0.
         11    1    3    3    0    0 -0.15897191249E+02  0.31252682002E+02 -0.49094424300E+03  0.49219477908E+03  0.00000000000E+00 0.  1.
        -11    1    3    3    0    0  0.82631462758E+02  0.44076230056E+02 -0.76111250703E+03  0.76685260713E+03  0.00000000000E+00 0. -1.
          4    1    6    6  502    0 -0.15531007774E+03  0.13436906595E+03 -0.14896868037E+03  0.25370836380E+03  0.00000000000E+00 0. -1.
          1    1    5    5  503    0  0.19642566998E+03 -0.29041295731E+03  0.18052236569E+03  0.39434889897E+03  0.00000000000E+00 0. -1.
         -2    1    5    5    0  503  0.38328672000E+02 -0.40800858229E+02 -0.28046167163E+01  0.56050539734E+02  0.00000000000E+00 0.  1.
         -3    1    6    6    0  502 -0.14617853575E+03  0.12151583753E+03 -0.53561686661E+02  0.19749206911E+03  0.00000000000E+00 0.  1.
<mgrwt>
<rscale>  0 0.17429863E+04</rscale>
<asrwt>0</asrwt>
<pdfrwt beam="1">  1        1 0.26442436E+00 0.17429863E+04</pdfrwt>
<pdfrwt beam="2">  1       -1 0.67982914E-01 0.17429863E+04</pdfrwt>
<totfact> 0.96117627E+00</totfact>
</mgrwt>
</event>
<event>
12    1  0.1201209E-007  0.2205606E+04  0.7818608E-02  0.8516098E-01
         -2   -1    0    0    0  501 -0.00000000000E+00  0.00000000000E+00  0.15129915101E+04  0.15129915101E+04  0.00000000000E+00 0.  1.
          2   -1    0    0  501    0  0.00000000000E+00 -0.00000000000E+00 -0.80382102899E+03  0.80382102899E+03  0.00000000000E+00 0. -1.
         23    2    1    2    0    0  0.48941190402E+03 -0.52298613786E+03  0.87936182453E+03  0.11367487341E+04  0.76693897635E+02 0.  0.
        254    2    1    2    0    0 -0.48941190402E+03  0.52298613786E+03 -0.17019134341E+03  0.11800638050E+04  0.92225103861E+03 0.  0.
        -24    2    4    4    0    0  0.26060884974E+03  0.56040698465E+02 -0.71773671134E+02  0.28768677642E+03  0.80961033910E+02 0.  0.
         24    2    4    4    0    0 -0.75002075376E+03  0.46694543939E+03 -0.98417672279E+02  0.89237702854E+03  0.77984283058E+02 0.  0.
         13    1    3    3    0    0  0.18983266392E+03 -0.21212685032E+03  0.29203233249E+03  0.40781996535E+03  0.00000000000E+00 0.  1.
        -13    1    3    3    0    0  0.29957924010E+03 -0.31085928754E+03  0.58732949204E+03  0.72892876878E+03  0.00000000000E+00 0. -1.
          4    1    6    6  502    0 -0.90758883239E+02  0.79874171774E+02  0.45137844661E+01  0.12098525717E+03  0.00000000000E+00 0. -1.
          3    1    5    5  503    0  0.98861718156E+02  0.12658414619E+02  0.12086629326E+02  0.10039901088E+03  0.00000000000E+00 0. -1.
         -4    1    5    5    0  503  0.16174713158E+03  0.43382283846E+02 -0.83860300461E+02  0.18728776554E+03  0.00000000000E+00 0.  1.
         -3    1    6    6    0  502 -0.65926187052E+03  0.38707126762E+03 -0.10293145674E+03  0.77139177137E+03  0.00000000000E+00 0.  1.
<mgrwt>
<rscale>  0 0.22056059E+04</rscale>
<asrwt>0</asrwt>
<pdfrwt beam="1">  1        2 0.12366477E+00 0.22056059E+04</pdfrwt>
<pdfrwt beam="2">  1       -2 0.23276792E+00 0.22056059E+04</pdfrwt>
<totfact> 0.25683601E+00</totfact>
</mgrwt>
</event>
<event>
12    1  0.1201209E-007  0.1243804E+04  0.7818608E-02  0.9075356E-01
          2   -1    0    0  501    0  0.00000000000E+00  0.00000000000E+00  0.42715215801E+04  0.42715215801E+04  0.00000000000E+00 0. -1.
         -2   -1    0    0    0  501 -0.00000000000E+00 -0.00000000000E+00 -0.90544390464E+02  0.90544390464E+02  0.00000000000E+00 0.  1.
         23    2    1    2    0    0  0.57261388819E+02  0.19475217232E+03  0.27298759900E+03  0.35105866585E+03  0.86675731244E+02 0.  0.
        254    2    1    2    0    0 -0.57261388819E+02 -0.19475217232E+03  0.39079895906E+04  0.40110073047E+04  0.88010776766E+03 0.  0.
        -24    2    4    4    0    0  0.35366850195E+03 -0.22673529279E+03  0.26631452677E+04  0.26972461961E+04  0.79397876316E+02 0.  0.
         24    2    4    4    0    0 -0.41092989077E+03  0.31983120466E+02  0.12448443229E+04  0.13137611087E+04  0.80278062201E+02 0.  0.
         11    1    3    3    0    0  0.40793368105E+02  0.17235875145E+03  0.27025967544E+03  0.32312834950E+03  0.00000000000E+00 0.  1.
        -11    1    3    3    0    0  0.16468020714E+02  0.22393420869E+02  0.27279235647E+01  0.27930316350E+02  0.00000000000E+00 0. -1.
          4    1    6    6  502    0 -0.35522399543E+03  0.55320437672E+02  0.10696608311E+04  0.11284585643E+04  0.00000000000E+00 0. -1.
          3    1    5    5  503    0  0.25080413595E+03 -0.12554105677E+03  0.18984384981E+04  0.19190445546E+04  0.00000000000E+00 0. -1.
         -4    1    5    5    0  503  0.10286436600E+03 -0.10119423602E+03  0.76470676967E+03  0.77820164146E+03  0.00000000000E+00 0.  1.
         -3    1    6    6    0  502 -0.55705895338E+02 -0.23337317207E+02  0.17518349179E+03  0.18530254436E+03  0.00000000000E+00 0.  1.
<mgrwt>
<rscale>  0 0.12438044E+04</rscale>
<asrwt>0</asrwt>
<pdfrwt beam="1">  1        2 0.65715701E+00 0.12438044E+04</pdfrwt>
<pdfrwt beam="2">  1       -2 0.13929910E-01 0.12438044E+04</pdfrwt>
<totfact> 0.82425967E+00</totfact>
</mgrwt>
</event>
<event>
12    1  0.1201209E-007  0.1278734E+04  0.7818608E-02  0.9046601E-01
         -1   -1    0    0    0  501 -0.00000000000E+00  0.00000000000E+00  0.24283935843E+03  0.24283935843E+03  0.00000000000E+00 0.  1.
          1   -1    0    0  501    0  0.00000000000E+00 -0.00000000000E+00 -0.16833777740E+04  0.16833777740E+04  0.00000000000E+00 0. -1.
         23    2    1    2    0    0  0.22720489921E+03  0.75076410870E+02 -0.62655812266E+02  0.26429352435E+03  0.93095555796E+02 0.  0.
        254    2    1    2    0    0 -0.22720489921E+03 -0.75076410870E+02 -0.13778826033E+04  0.16619236081E+04  0.89787030073E+03 0.  0.
        -24    2    4    4    0    0  0.26375269793E+03 -0.27829166418E+03 -0.57823596398E+03  0.69841701281E+03  0.80110908847E+02 0.  0.
         24    2    4    4    0    0 -0.49095759714E+03  0.20321525331E+03 -0.79964663934E+03  0.96350659530E+03  0.81082735561E+02 0.  0.
         13    1    3    3    0    0  0.17393397316E+03  0.43075184893E+02 -0.45956820878E+01  0.17924736781E+03  0.00000000000E+00 0.  1.
        -13    1    3    3    0    0  0.53270926050E+02  0.32001225977E+02 -0.58060130178E+02  0.85046156542E+02  0.00000000000E+00 0. -1.
          2    1    6    6  502    0 -0.40728689067E+03  0.15923865543E+03 -0.59835681304E+03  0.74112781381E+03  0.00000000000E+00 0. -1.
          3    1    5    5  503    0  0.25299587979E+03 -0.23080873918E+03 -0.51792539604E+03  0.62090764622E+03  0.00000000000E+00 0. -1.
         -4    1    5    5    0  503  0.10756818143E+02 -0.47482924998E+02 -0.60310567944E+02  0.77509366587E+02  0.00000000000E+00 0.  1.
         -3    1    6    6    0  502 -0.83670706465E+02  0.43976597876E+02 -0.20128982630E+03  0.22237878148E+03  0.00000000000E+00 0.  1.
<mgrwt>
<rscale>  0 0.12787343E+04</rscale>
<asrwt>0</asrwt>
<pdfrwt beam="1">  1        1 0.25898120E+00 0.12787343E+04</pdfrwt>
<pdfrwt beam="2">  1       -1 0.37359901E-01 0.12787343E+04</pdfrwt>
<totfact> 0.33215554E+01</totfact>
</mgrwt>
</event>
<event>
12    1  0.1201209E-007  0.1498448E+04  0.7818608E-02  0.8885486E-01
         -2   -1    0    0    0  501 -0.00000000000E+00  0.00000000000E+00  0.61638145490E+03  0.61638145490E+03  0.00000000000E+00 0.  1.
          2   -1    0    0  501    0  0.00000000000E+00 -0.00000000000E+00 -0.91069637022E+03  0.91069637022E+03  0.00000000000E+00 0. -1.
         23    2    1    2    0    0  0.10489598084E+03 -0.35861889842E+03 -0.39234781555E+03  0.55052011278E+03  0.97595620350E+02 0.  0.
        254    2    1    2    0    0 -0.10489598084E+03  0.35861889842E+03  0.98032900225E+02  0.97655771233E+03  0.89690793000E+03 0.  0.
        -24    2    4    4    0    0 -0.30729404458E+03  0.43358750665E+03  0.34489583394E+03  0.63914474969E+03  0.84410420139E+02 0.  0.
         24    2    4    4    0    0  0.20239806374E+03 -0.74968608232E+02 -0.24686293371E+03  0.33741296265E+03  0.79504282237E+02 0.  0.
         11    1    3    3    0    0  0.52264843328E+02 -0.16541887842E+03 -0.11382507639E+03  0.20748775193E+03  0.00000000000E+00 0.  1.
        -11    1    3    3    0    0  0.52631137508E+02 -0.19320002000E+03 -0.27852273916E+03  0.34303236085E+03  0.00000000000E+00 0. -1.
          4    1    6    6  502    0  0.20084636459E+02  0.16540591678E+02 -0.28565005454E+02  0.38638624863E+02  0.00000000000E+00 0. -1.
          1    1    5    5  503    0 -0.22242818793E+03  0.24418098602E+03  0.22125587887E+03  0.39755857009E+03  0.00000000000E+00 0. -1.
         -2    1    5    5    0  503 -0.84865856647E+02  0.18940652063E+03  0.12363995507E+03  0.24158617960E+03  0.00000000000E+00 0.  1.
         -3    1    6    6    0  502  0.18231342728E+03 -0.91509199910E+02 -0.21829792826E+03  0.29877433778E+03  0.00000000000E+00 0.  1.
<mgrwt>
<rscale>  0 0.14984477E+04</rscale>
<asrwt>0</asrwt>
<pdfrwt beam="1">  1        2 0.14010713E+00 0.14984477E+04</pdfrwt>
<pdfrwt beam="2">  1       -2 0.94827917E-01 0.14984477E+04</pdfrwt>
<totfact> 0.26088090E+01</totfact>
</mgrwt>
</event>
<event>
12    1  0.1201209E-007  0.1129722E+04  0.7818608E-02  0.9176698E-01
          1   -1    0    0  501    0  0.00000000000E+00  0.00000000000E+00  0.14451552019E+04  0.14451552019E+04  0.00000000000E+00 0. -1.
         -1   -1    0    0    0  501 -0.00000000000E+00 -0.00000000000E+00 -0.22078445185E+03  0.22078445185E+03  0.00000000000E+00 0.  1.
         23    2    1    2    0    0  0.18983775840E+03  0.78196314447E+01  0.13269839275E+03  0.24964003155E+03  0.92799573085E+02 0.  0.
        254    2    1    2    0    0 -0.18983775840E+03 -0.78196314447E+01  0.10916723573E+04  0.14162996222E+04  0.88207514590E+03 0.  0.
        -24    2    4    4    0    0 -0.52723948381E+03 -0.41673415330E+02  0.51390534060E+03  0.74159325517E+03  0.78381823071E+02 0.  0.
         24    2    4    4    0    0  0.33740172540E+03  0.33853783885E+02  0.57776701674E+03  0.67470636707E+03  0.80174516757E+02 0.  0.
         11    1    3    3    0    0  0.14481070255E+03 -0.95529671927E+01  0.13901755031E+03  0.20096586289E+03  0.00000000000E+00 0.  1.
        -11    1    3    3    0    0  0.45027055855E+02  0.17372598637E+02 -0.63191575623E+01  0.48674168659E+02  0.00000000000E+00 0. -1.
          2    1    6    6  502    0  0.18963590998E+03 -0.21004720225E+02  0.31205233104E+03  0.36575898339E+03  0.00000000000E+00 0. -1.
          1    1    5    5  503    0 -0.37656215661E+03 -0.22668332760E+01  0.39421549191E+03  0.54516974456E+03  0.00000000000E+00 0. -1.
         -2    1    5    5    0  503 -0.15067732720E+03 -0.39406582054E+02  0.11968984869E+03  0.19642351061E+03  0.00000000000E+00 0.  1.
         -3    1    6    6    0  502  0.14776581543E+03  0.54858504110E+02  0.26571468571E+03  0.30894738368E+03  0.00000000000E+00 0.  1.
<mgrwt>
<rscale>  0 0.11297217E+04</rscale>
<asrwt>0</asrwt>
<pdfrwt beam="1">  1        1 0.22233156E+00 0.11297217E+04</pdfrwt>
<pdfrwt beam="2">  1       -1 0.33966840E-01 0.11297217E+04</pdfrwt>
<totfact> 0.58141376E+01</totfact>
</mgrwt>
</event>
<event>
12    1  0.1201209E-007  0.1731307E+04  0.7818608E-02  0.8743707E-01
         -2   -1    0    0    0  501 -0.00000000000E+00  0.00000000000E+00  0.28027701434E+03  0.28027701434E+03  0.00000000000E+00 0.  1.
          2   -1    0    0  501    0  0.00000000000E+00 -0.00000000000E+00 -0.26736265551E+04  0.26736265551E+04  0.00000000000E+00 0. -1.
         23    2    1    2    0    0  0.17994947834E+03 -0.24268344657E+03 -0.18254013034E+04  0.18524355798E+04  0.90280610489E+02 0.  0.
        254    2    1    2    0    0 -0.17994947834E+03  0.24268344657E+03 -0.56794823735E+03  0.11014679897E+04  0.89408582473E+03 0.  0.
        -24    2    4    4    0    0  0.28241018072E+03  0.21430068116E+03  0.11832417183E+01  0.36332933114E+03  0.79539365617E+02 0.  0.
         24    2    4    4    0    0 -0.46235965906E+03  0.28382765409E+02 -0.56913147907E+03  0.73813865855E+03  0.79724545006E+02 0.  0.
         11    1    3    3    0    0  0.17920897746E+03 -0.19517759109E+03 -0.14466926581E+04  0.14707582387E+04  0.00000000000E+00 0. -1.
        -11    1    3    3    0    0  0.74050088308E+00 -0.47505855478E+02 -0.37870864535E+03  0.38167734110E+03  0.00000000000E+00 0.  1.
          4    1    6    6  502    0 -0.27397621243E+03  0.14224985732E+02 -0.39696138991E+03  0.48253876557E+03  0.00000000000E+00 0. -1.
          1    1    5    5  503    0  0.17192902061E+03  0.17685094514E+03 -0.10802576410E+01  0.24665160021E+03  0.00000000000E+00 0. -1.
         -2    1    5    5    0  503  0.11048116010E+03  0.37449736020E+02  0.22634993592E+01  0.11667773093E+03  0.00000000000E+00 0.  1.
         -3    1    6    6    0  502 -0.18838344663E+03  0.14157779677E+02 -0.17217008915E+03  0.25559989297E+03  0.00000000000E+00 0.  1.
<mgrwt>
<rscale>  0 0.17313071E+04</rscale>
<asrwt>0</asrwt>
<pdfrwt beam="1">  1        2 0.41132714E+00 0.17313071E+04</pdfrwt>
<pdfrwt beam="2">  1       -2 0.43119543E-01 0.17313071E+04</pdfrwt>
<totfact> 0.13358360E+01</totfact>
</mgrwt>
</event>
<event>
12    1  0.1201209E-007  0.1400402E+04  0.7818608E-02  0.8953527E-01
         -1   -1    0    0    0  501 -0.00000000000E+00  0.00000000000E+00  0.92565760115E+03  0.92565760115E+03  0.00000000000E+00 0.  1.
          1   -1    0    0  501    0  0.00000000000E+00 -0.00000000000E+00 -0.52965761284E+03  0.52965761284E+03  0.00000000000E+00 0. -1.
         23    2    1    2    0    0  0.26511500564E+03  0.75909162841E+02  0.42177268974E+03  0.51632409261E+03  0.11247310604E+03 0.  0.
        254    2    1    2    0    0 -0.26511500564E+03 -0.75909162841E+02 -0.25772701439E+02  0.93899112138E+03  0.89721342314E+03 0.  0.
        -24    2    4    4    0    0  0.34468208687E+02  0.21519230756E+03 -0.33792368047E+03  0.40991350584E+03  0.79629654059E+02 0.  0.
         24    2    4    4    0    0 -0.29958321433E+03 -0.29110147041E+03  0.31215097903E+03  0.52907761553E+03  0.89413204692E+02 0.  0.
         11    1    3    3    0    0  0.22266208996E+03  0.10319040652E+03  0.37031338569E+03  0.44425068364E+03  0.00000000000E+00 0.  1.
        -11    1    3    3    0    0  0.42452915680E+02 -0.27281243675E+02  0.51459304059E+02  0.72073408970E+02  0.00000000000E+00 0. -1.
          2    1    6    6  502    0 -0.16816320928E+03 -0.11205311858E+03  0.18009202380E+03  0.27068044513E+03  0.00000000000E+00 0. -1.
          3    1    5    5  503    0  0.34830310400E+02  0.69876347117E+02 -0.17483614725E+03  0.19147723832E+03  0.00000000000E+00 0. -1.
         -4    1    5    5    0  503 -0.36210171227E+00  0.14531596045E+03 -0.16308753322E+03  0.21843626752E+03  0.00000000000E+00 0.  1.
         -1    1    6    6    0  502 -0.13142000505E+03 -0.17904835182E+03  0.13205895523E+03  0.25839717040E+03  0.00000000000E+00 0.  1.
<mgrwt>
<rscale>  0 0.14004022E+04</rscale>
<asrwt>0</asrwt>
<pdfrwt beam="1">  1        1 0.81485786E-01 0.14004022E+04</pdfrwt>
<pdfrwt beam="2">  1       -1 0.14240886E+00 0.14004022E+04</pdfrwt>
<totfact> 0.15986813E+01</totfact>
</mgrwt>
</event>
<event>
12    1  0.1201209E-007  0.1245986E+04  0.7818608E-02  0.9073530E-01
         -2   -1    0    0    0  501 -0.00000000000E+00  0.00000000000E+00  0.18308163905E+03  0.18308163905E+03  0.00000000000E+00 0.  1.
          2   -1    0    0  501    0  0.00000000000E+00 -0.00000000000E+00 -0.21199310476E+04  0.21199310476E+04  0.00000000000E+00 0. -1.
         23    2    1    2    0    0  0.96084122564E+02  0.13616644162E+03 -0.90698194229E+03  0.92638714354E+03  0.88337068412E+02 0.  0.
        254    2    1    2    0    0 -0.96084122564E+02 -0.13616644162E+03 -0.10298674663E+04  0.13766255431E+04  0.89816336458E+03 0.  0.
        -24    2    4    4    0    0 -0.10170859248E+03 -0.25460510193E+03 -0.11538048577E+04  0.11884669937E+04  0.77587045980E+02 0.  0.
         24    2    4    4    0    0  0.56244699179E+01  0.11843866031E+03  0.12393739146E+03  0.18815854942E+03  0.77355101958E+02 0.  0.
         13    1    3    3    0    0  0.10649854204E+03  0.12970512234E+03 -0.88849826453E+03  0.90420933654E+03  0.00000000000E+00 0. -1.
        -13    1    3    3    0    0 -0.10414419480E+02  0.64613192801E+01 -0.18483677761E+02  0.22177807004E+02  0.00000000000E+00 0.  1.
          2    1    6    6  502    0  0.18639762191E+02  0.12471479037E+03  0.10354004552E+03  0.16316176237E+03  0.00000000000E+00 0. -1.
          1    1    5    5  503    0 -0.42569279147E+02 -0.84188101527E+02 -0.25863960505E+03  0.27530751037E+03  0.00000000000E+00 0. -1.
         -2    1    5    5    0  503 -0.59139313335E+02 -0.17041700040E+03 -0.89516525269E+03  0.91315948335E+03  0.00000000000E+00 0.  1.
         -1    1    6    6    0  502 -0.13015292273E+02 -0.62761300617E+01  0.20397345938E+02  0.24996787050E+02  0.00000000000E+00 0.  1.
<mgrwt>
<rscale>  0 0.12459863E+04</rscale>
<asrwt>0</asrwt>
<pdfrwt beam="1">  1        2 0.32614323E+00 0.12459863E+04</pdfrwt>
<pdfrwt beam="2">  1       -2 0.28166406E-01 0.12459863E+04</pdfrwt>
<totfact> 0.65082791E+01</totfact>
</mgrwt>
</event>
<event>
12    1  0.1201209E-007  0.1620975E+04  0.7818608E-02  0.8807765E-01
         -1   -1    0    0    0  501 -0.00000000000E+00  0.00000000000E+00  0.83565375798E+03  0.83565375798E+03  0.00000000000E+00 0.  1.
          1   -1    0    0  501    0  0.00000000000E+00 -0.00000000000E+00 -0.78607881341E+03  0.78607881341E+03  0.00000000000E+00 0. -1.
         23    2    1    2    0    0  0.27441280265E+02  0.14445765098E+03  0.55404922971E+03  0.58038527664E+03  0.90859691912E+02 0.  0.
        254    2    1    2    0    0 -0.27441280265E+02 -0.14445765098E+03 -0.50447428514E+03  0.10413472947E+04  0.89904885691E+03 0.  0.
        -24    2    4    4    0    0 -0.26068316311E+03 -0.19772480441E+03  0.12794463399E+03  0.36027811009E+03  0.79872882960E+02 0.  0.
         24    2    4    4    0    0  0.23324188285E+03  0.53267153429E+02 -0.63241891913E+03  0.68106918466E+03  0.81623400235E+02 0.  0.
         11    1    3    3    0    0 -0.15156950395E+02  0.68775157321E+01  0.14928364727E+02  0.22358207471E+02  0.00000000000E+00 0. -1.
        -11    1    3    3    0    0  0.42598230659E+02  0.13758013525E+03  0.53912086498E+03  0.55802706917E+03  0.00000000000E+00 0.  1.
          2    1    6    6  502    0  0.19349894464E+03  0.71847968392E+02 -0.48085587335E+03  0.52328418959E+03  0.00000000000E+00 0. -1.
          1    1    5    5  503    0 -0.91531767913E+02 -0.77981048596E+02  0.72845508432E+01  0.12046648147E+03  0.00000000000E+00 0. -1.
         -2    1    5    5    0  503 -0.16915139520E+03 -0.11974375582E+03  0.12066008314E+03  0.23981162862E+03  0.00000000000E+00 0.  1.
         -1    1    6    6    0  502  0.39742938206E+02 -0.18580814963E+02 -0.15156304578E+03  0.15778499506E+03  0.00000000000E+00 0.  1.
<mgrwt>
<rscale>  0 0.16209747E+04</rscale>
<asrwt>0</asrwt>
<pdfrwt beam="1">  1        1 0.12093520E+00 0.16209747E+04</pdfrwt>
<pdfrwt beam="2">  1       -1 0.12856212E+00 0.16209747E+04</pdfrwt>
<totfact> 0.11363922E+01</totfact>
</mgrwt>
</event>
<event>
12    1  0.1201209E-007  0.2044039E+04  0.7818608E-02  0.8586303E-01
         -2   -1    0    0    0  501 -0.00000000000E+00  0.00000000000E+00  0.44496389216E+03  0.44496389216E+03  0.00000000000E+00 0.  1.
          2   -1    0    0  501    0  0.00000000000E+00 -0.00000000000E+00 -0.23474351513E+04  0.23474351513E+04  0.00000000000E+00 0. -1.
         23    2    1    2    0    0  0.61417931168E+03 -0.18539745267E+03 -0.14634519752E+04  0.16004481465E+04  0.90300297543E+02 0.  0.
        254    2    1    2    0    0 -0.61417931168E+03  0.18539745267E+03 -0.43901928393E+03  0.11919508969E+04  0.90355994078E+03 0.  0.
        -24    2    4    4    0    0  0.20631077324E+03  0.17850389367E+03 -0.12999107686E+03  0.31157511211E+03  0.75852456882E+02 0.  0.
         24    2    4    4    0    0 -0.82049008491E+03  0.68935589998E+01 -0.30902820707E+03  0.88037578478E+03  0.79445510042E+02 0.  0.
         11    1    3    3    0    0  0.58462189180E+03 -0.16044091352E+03 -0.13330032577E+04  0.14643844195E+04  0.00000000000E+00 0. -1.
        -11    1    3    3    0    0  0.29557419882E+02 -0.24956539147E+02 -0.13044871748E+03  0.13606372701E+03  0.00000000000E+00 0.  1.
          2    1    6    6  502    0 -0.54927621693E+03 -0.32765657383E+02 -0.20477996971E+03  0.58712246319E+03  0.00000000000E+00 0. -1.
          3    1    5    5  503    0  0.90158919162E+02  0.12717485753E+03 -0.78562771014E+02  0.17456856556E+03  0.00000000000E+00 0. -1.
         -4    1    5    5    0  503  0.11615185407E+03  0.51329036142E+02 -0.51428305850E+02  0.13700654655E+03  0.00000000000E+00 0.  1.
         -1    1    6    6    0  502 -0.27121386798E+03  0.39659216383E+02 -0.10424823736E+03  0.29325332159E+03  0.00000000000E+00 0.  1.
<mgrwt>
<rscale>  0 0.20440390E+04</rscale>
<asrwt>0</asrwt>
<pdfrwt beam="1">  1        2 0.36114386E+00 0.20440390E+04</pdfrwt>
<pdfrwt beam="2">  1       -2 0.68455985E-01 0.20440390E+04</pdfrwt>
<totfact> 0.76985037E+00</totfact>
</mgrwt>
</event>
<event>
12    1  0.1201209E-007  0.1724813E+04  0.7818608E-02  0.8747338E-01
         -2   -1    0    0    0  501 -0.00000000000E+00  0.00000000000E+00  0.13344074551E+04  0.13344074551E+04  0.00000000000E+00 0.  1.
          2   -1    0    0  501    0  0.00000000000E+00 -0.00000000000E+00 -0.55735941463E+03  0.55735941463E+03  0.00000000000E+00 0. -1.
         23    2    1    2    0    0  0.56374870839E+03  0.37376374574E+01 -0.57873942499E+01  0.57229799454E+03  0.98310347759E+02 0.  0.
        254    2    1    2    0    0 -0.56374870839E+03 -0.37376374574E+01  0.78283543477E+03  0.13194688752E+04  0.90018899051E+03 0.  0.
        -24    2    4    4    0    0 -0.17384036025E+03  0.42584483113E+03  0.43470490966E+03  0.63823285468E+03  0.82513800481E+02 0.  0.
         24    2    4    4    0    0 -0.38990834814E+03 -0.42958246858E+03  0.34813052511E+03  0.68123602055E+03  0.79486073734E+02 0.  0.
         13    1    3    3    0    0  0.43517332674E+03  0.40946668211E+02  0.12062288417E+02  0.43726188119E+03  0.00000000000E+00 0. -1.
        -13    1    3    3    0    0  0.12857538165E+03 -0.37209030754E+02 -0.17849682667E+02  0.13503611334E+03  0.00000000000E+00 0.  1.
          2    1    6    6  502    0 -0.20994713098E+03 -0.20484262941E+03  0.13431715784E+03  0.32261339018E+03  0.00000000000E+00 0. -1.
          3    1    5    5  503    0 -0.37246664130E+02  0.12101130382E+03  0.17032637436E+03  0.21223129704E+03  0.00000000000E+00 0. -1.
         -4    1    5    5    0  503 -0.13659369612E+03  0.30483352731E+03  0.26437853530E+03  0.42600155765E+03  0.00000000000E+00 0.  1.
         -1    1    6    6    0  502 -0.17996121716E+03 -0.22473983917E+03  0.21381336727E+03  0.35862263037E+03  0.00000000000E+00 0.  1.
<mgrwt>
<rscale>  0 0.17248125E+04</rscale>
<asrwt>0</asrwt>
<pdfrwt beam="1">  1        2 0.85747603E-01 0.17248125E+04</pdfrwt>
<pdfrwt beam="2">  1       -2 0.20529345E+00 0.17248125E+04</pdfrwt>
<totfact> 0.63151791E+00</totfact>
</mgrwt>
</event>
<event>
12    1  0.1201209E-007  0.1017031E+04  0.7818608E-02  0.9290061E-01
         -1   -1    0    0    0  501 -0.00000000000E+00  0.00000000000E+00  0.84397367582E+03  0.84397367582E+03  0.00000000000E+00 0.  1.
          1   -1    0    0  501    0  0.00000000000E+00 -0.00000000000E+00 -0.30639318888E+03  0.30639318888E+03  0.00000000000E+00 0. -1.
         23    2    1    2    0    0 -0.10536158075E+02 -0.19856089515E+02  0.12823064098E+03  0.15916328668E+03  0.91567350209E+02 0.  0.
        254    2    1    2    0    0  0.10536158075E+02  0.19856089515E+02  0.40934984596E+03  0.99120357802E+03  0.90244776124E+03 0.  0.
        -24    2    4    4    0    0 -0.43679583037E+03 -0.26203230023E+02  0.20802357470E+03  0.49118329323E+03  0.80684652952E+02 0.  0.
         24    2    4    4    0    0  0.44733198845E+03  0.46059319538E+02  0.20132627126E+03  0.50002028479E+03  0.85209441370E+02 0.  0.
         11    1    3    3    0    0  0.27655334812E+02 -0.26766454687E+02  0.10950282274E+03  0.11606949999E+03  0.00000000000E+00 0.  1.
        -11    1    3    3    0    0 -0.38191492887E+02  0.69103651720E+01  0.18727818244E+02  0.43093786698E+02  0.00000000000E+00 0. -1.
          4    1    6    6  502    0  0.74268554669E+02  0.38654311176E+02  0.25426432615E+02  0.87501299766E+02  0.00000000000E+00 0. -1.
          3    1    5    5  503    0 -0.19394724349E+03  0.18476250225E+02  0.62687032167E+02  0.20466208511E+03  0.00000000000E+00 0. -1.
         -4    1    5    5    0  503 -0.24284858688E+03 -0.44679480247E+02  0.14533654254E+03  0.28652120812E+03  0.00000000000E+00 0.  1.
         -3    1    6    6    0  502  0.37306343378E+03  0.74050083618E+01  0.17589983864E+03  0.41251898502E+03  0.00000000000E+00 0.  1.
<mgrwt>
<rscale>  0 0.10170306E+04</rscale>
<asrwt>0</asrwt>
<pdfrwt beam="1">  1        1 0.47137414E-01 0.10170306E+04</pdfrwt>
<pdfrwt beam="2">  1       -1 0.12984210E+00 0.10170306E+04</pdfrwt>
<totfact> 0.43471568E+01</totfact>
</mgrwt>
</event>
<event>
12    1  0.1201209E-007  0.1234961E+04  0.7818608E-02  0.9082794E-01
          2   -1    0    0  501    0  0.00000000000E+00  0.00000000000E+00  0.47466193862E+03  0.47466193862E+03  0.00000000000E+00 0.  1.
         -2   -1    0    0    0  501 -0.00000000000E+00 -0.00000000000E+00 -0.80327045091E+03  0.80327045091E+03  0.00000000000E+00 0. -1.
         23    2    1    2    0    0  0.23760816325E+03 -0.14547207455E+03 -0.21194147482E+02  0.28930714874E+03  0.75031131591E+02 0.  0.
        254    2    1    2    0    0 -0.23760816325E+03  0.14547207455E+03 -0.30741436480E+03  0.98862524079E+03  0.89736085903E+03 0.  0.
        -24    2    4    4    0    0 -0.31713747603E+03 -0.16142850659E+03  0.17505713118E+03  0.40482894797E+03  0.81278142797E+02 0.  0.
         24    2    4    4    0    0  0.79529312776E+02  0.30690058114E+03 -0.48247149598E+03  0.58379629282E+03  0.86755338607E+02 0.  0.
         13    1    3    3    0    0  0.18628670124E+03 -0.10290988742E+03  0.15168734728E+02  0.21336183000E+03  0.00000000000E+00 0.  1.
        -13    1    3    3    0    0  0.51321462016E+02 -0.42562187131E+02 -0.36362882210E+02  0.75945318746E+02  0.00000000000E+00 0. -1.
          2    1    6    6  502    0  0.91985594586E+01  0.70186436394E+00 -0.15581714741E+01  0.93559610966E+01  0.00000000000E+00 0. -1.
          1    1    5    5  503    0 -0.34555362271E+01 -0.20945178048E+02  0.81040497329E+01  0.22722606280E+02  0.00000000000E+00 0. -1.
         -2    1    5    5    0  503 -0.31368193980E+03 -0.14048332854E+03  0.16695308145E+03  0.38210634169E+03  0.00000000000E+00 0.  1.
         -3    1    6    6    0  502  0.70330753317E+02  0.30619871678E+03 -0.48091332451E+03  0.57444033172E+03  0.00000000000E+00 0.  1.
<mgrwt>
<rscale>  0 0.12349606E+04</rscale>
<asrwt>0</asrwt>
<pdfrwt beam="1">  1        2 0.73024914E-01 0.12349606E+04</pdfrwt>
<pdfrwt beam="2">  1       -2 0.12358007E+00 0.12349606E+04</pdfrwt>
<totfact> 0.31760289E+01</totfact>
</mgrwt>
</event>
<event>
12    1  0.2410377E-007  0.1947163E+04  0.7818608E-02  0.8631730E-01
          1   -1    0    0  501    0  0.00000000000E+00  0.00000000000E+00  0.17301582686E+04  0.17301582686E+04  0.00000000000E+00 0. -1.
         -1   -1    0    0    0  501 -0.00000000000E+00 -0.00000000000E+00 -0.54784636558E+03  0.54784636558E+03  0.00000000000E+00 0.  1.
         23    2    1    2    0    0 -0.43362420411E+03 -0.60089783917E+03  0.29440087801E+03  0.80275614635E+03  0.92937559810E+02 0.  0.
        254    2    1    2    0    0  0.43362420411E+03  0.60089783917E+03  0.88791102499E+03  0.14752484878E+04  0.91589516266E+03 0.  0.
        -24    2    4    4    0    0  0.55744090506E+03  0.46935423918E+03  0.20155952501E+03  0.76016177302E+03  0.78650585395E+02 0.  0.
         24    2    4    4    0    0 -0.12381670095E+03  0.13154359999E+03  0.68635149998E+03  0.71508671478E+03  0.87386120179E+02 0.  0.
         11    1    3    3    0    0 -0.29775357781E+03 -0.44307114815E+03  0.17031371050E+03  0.56033560962E+03  0.00000000000E+00 0. -1.
        -11    1    3    3    0    0 -0.13587062629E+03 -0.15782669102E+03  0.12408716751E+03  0.24242053673E+03  0.00000000000E+00 0.  1.
          2    1    6    6  502    0  0.29025908435E+01 -0.83438145150E+01  0.12549049061E+02  0.15346755572E+02  0.00000000000E+00 0. -1.
          1    1    5    5  503    0  0.14920219647E+03  0.16805537745E+03  0.78710680790E+02  0.23811609897E+03  0.00000000000E+00 0. -1.
         -2    1    5    5    0  503  0.40823870859E+03  0.30129886173E+03  0.12284884421E+03  0.52204567405E+03  0.00000000000E+00 0.  1.
         -1    1    6    6    0  502 -0.12671929179E+03  0.13988741451E+03  0.67380245092E+03  0.69973995921E+03  0.00000000000E+00 0.  1.
<mgrwt>
<rscale>  0 0.19471630E+04</rscale>
<asrwt>0</asrwt>
<pdfrwt beam="1">  1        1 0.26617819E+00 0.19471630E+04</pdfrwt>
<pdfrwt beam="2">  1       -1 0.84284057E-01 0.19471630E+04</pdfrwt>
<totfact> 0.59058752E+00</totfact>
</mgrwt>
</event>
<event>
12    1  0.1201209E-007  0.3693341E+04  0.7818608E-02  0.8069439E-01
         -2   -1    0    0    0  501 -0.00000000000E+00  0.00000000000E+00  0.21157444721E+04  0.21157444721E+04  0.00000000000E+00 0.  1.
          2   -1    0    0  501    0  0.00000000000E+00 -0.00000000000E+00 -0.16118166074E+04  0.16118166074E+04  0.00000000000E+00 0. -1.
         23    2    1    2    0    0  0.53842706805E+03  0.16278217198E+04  0.51397425961E+03  0.17920698775E+04  0.87393633094E+02 0.  0.
        254    2    1    2    0    0 -0.53842706805E+03 -0.16278217198E+04 -0.10046394882E+02  0.19354912020E+04  0.89795211677E+03 0.  0.
        -24    2    4    4    0    0 -0.71721490260E+03 -0.84951228246E+03 -0.13720582376E+03  0.11229816125E+04  0.78701521485E+02 0.  0.
         24    2    4    4    0    0  0.17878783455E+03 -0.77830943734E+03  0.12715942888E+03  0.81250958948E+03  0.79193703125E+02 0.  0.
         13    1    3    3    0    0  0.13986583040E+03  0.46956304484E+03  0.10882157332E+03  0.50189046455E+03  0.00000000000E+00 0.  1.
        -13    1    3    3    0    0  0.39856123765E+03  0.11582586750E+04  0.40515268630E+03  0.12901794129E+04  0.00000000000E+00 0. -1.
          4    1    6    6  502    0  0.61935257228E+02 -0.35222085663E+03  0.92133507727E+02  0.36930216785E+03  0.00000000000E+00 0. -1.
          1    1    5    5  503    0 -0.69150760007E+03 -0.82224756790E+03 -0.11788081896E+03  0.10808190003E+04  0.00000000000E+00 0. -1.
         -2    1    5    5    0  503 -0.25707302528E+02 -0.27264714560E+02 -0.19325004796E+02  0.42162612273E+02  0.00000000000E+00 0.  1.
         -3    1    6    6    0  502  0.11685257732E+03 -0.42608858071E+03  0.35025921152E+02  0.44320742164E+03  0.00000000000E+00 0.  1.
<mgrwt>
<rscale>  0 0.36933411E+04</rscale>
<asrwt>0</asrwt>
<pdfrwt beam="1">  1        2 0.24797179E+00 0.36933411E+04</pdfrwt>
<pdfrwt beam="2">  1       -2 0.32549915E+00 0.36933411E+04</pdfrwt>
<totfact> 0.19663433E-01</totfact>
</mgrwt>
</event>
<event>
12    1  0.1201209E-007  0.2078803E+04  0.7818608E-02  0.8570639E-01
          2   -1    0    0  501    0  0.00000000000E+00  0.00000000000E+00  0.15042731499E+04  0.15042731499E+04  0.00000000000E+00 0. -1.
         -2   -1    0    0    0  501 -0.00000000000E+00 -0.00000000000E+00 -0.71819074143E+03  0.71819074143E+03  0.00000000000E+00 0.  1.
         23    2    1    2    0    0 -0.77099512209E+03  0.14826248675E+03  0.34042629358E+00  0.79063208084E+03  0.93186523199E+02 0.  0.
        254    2    1    2    0    0  0.77099512209E+03 -0.14826248675E+03  0.78574198219E+03  0.14318318105E+04  0.90351349062E+03 0.  0.
        -24    2    4    4    0    0  0.41453895616E+02 -0.17463429432E+03  0.65892172234E+03  0.68762340568E+03  0.80203177281E+02 0.  0.
         24    2    4    4    0    0  0.72954122647E+03  0.26371807571E+02  0.12682025985E+03  0.74420840483E+03  0.69547811981E+02 0.  0.
         13    1    3    3    0    0 -0.20249239192E+03  0.15216030417E+02  0.33589076148E+02  0.20582255077E+03  0.00000000000E+00 0. -1.
        -13    1    3    3    0    0 -0.56850273016E+03  0.13304645633E+03 -0.33248649855E+02  0.58480953007E+03  0.00000000000E+00 0.  1.
          2    1    6    6  502    0  0.35605943751E+03 -0.21809481092E+02  0.58977495863E+02  0.36156924859E+03  0.00000000000E+00 0. -1.
          1    1    5    5  503    0  0.45328247967E+02 -0.40744539248E+02  0.25003211989E+03  0.25735350885E+03  0.00000000000E+00 0. -1.
         -2    1    5    5    0  503 -0.38743523511E+01 -0.13388975507E+03  0.40888960246E+03  0.43026989683E+03  0.00000000000E+00 0.  1.
         -1    1    6    6    0  502  0.37348178896E+03  0.48181288663E+02  0.67842763983E+02  0.38263915624E+03  0.00000000000E+00 0.  1.
<mgrwt>
<rscale>  0 0.20788026E+04</rscale>
<asrwt>0</asrwt>
<pdfrwt beam="1">  1        2 0.23142664E+00 0.20788026E+04</pdfrwt>
<pdfrwt beam="2">  1       -2 0.11049088E+00 0.20788026E+04</pdfrwt>
<totfact> 0.75752419E+00</totfact>
</mgrwt>
</event>
<event>
12    1  0.1201209E-007  0.1487373E+04  0.7818608E-02  0.8892893E-01
          2   -1    0    0  501    0  0.00000000000E+00  0.00000000000E+00  0.17692293025E+04  0.17692293025E+04  0.00000000000E+00 0. -1.
         -2   -1    0    0    0  501 -0.00000000000E+00 -0.00000000000E+00 -0.31260483873E+03  0.31260483873E+03  0.00000000000E+00 0.  1.
         23    2    1    2    0    0  0.26780552516E+03 -0.45074920873E+02  0.99798155831E+03  0.10383842236E+04  0.92320405263E+02 0.  0.
        254    2    1    2    0    0 -0.26780552516E+03  0.45074920873E+02  0.45864290550E+03  0.10434499177E+04  0.89704117419E+03 0.  0.
        -24    2    4    4    0    0 -0.38788406572E+03  0.19439577119E+03  0.63377148190E+03  0.77207886572E+03  0.78712891755E+02 0.  0.
         24    2    4    4    0    0  0.12007854056E+03 -0.14932085032E+03 -0.17512857639E+03  0.27137105199E+03  0.79099035038E+02 0.  0.
         13    1    3    3    0    0  0.23203624293E+03 -0.70120022079E+02  0.81637498013E+03  0.85160186925E+03  0.00000000000E+00 0. -1.
        -13    1    3    3    0    0  0.35769282233E+02  0.25045101206E+02  0.18160657818E+03  0.18678235432E+03  0.00000000000E+00 0.  1.
          2    1    6    6  502    0  0.12658576184E+03 -0.12478508628E+03 -0.16897784584E+03  0.24525249284E+03  0.00000000000E+00 0. -1.
          3    1    5    5  503    0 -0.22079208191E+03  0.66759922712E+02  0.33567970274E+03  0.40729214766E+03  0.00000000000E+00 0. -1.
         -4    1    5    5    0  503 -0.16709198380E+03  0.12763584848E+03  0.29809177916E+03  0.36478671806E+03  0.00000000000E+00 0.  1.
         -1    1    6    6    0  502 -0.65072212748E+01 -0.24535764040E+02 -0.61507305495E+01  0.26118559150E+02  0.00000000000E+00 0.  1.
<mgrwt>
<rscale>  0 0.14873730E+04</rscale>
<asrwt>0</asrwt>
<pdfrwt beam="1">  1        2 0.27218912E+00 0.14873730E+04</pdfrwt>
<pdfrwt beam="2">  1       -2 0.48093053E-01 0.14873730E+04</pdfrwt>
<totfact> 0.35550254E+01</totfact>
</mgrwt>
</event>
<event>
12    1  0.1201209E-007  0.1506639E+04  0.7818608E-02  0.8880050E-01
          1   -1    0    0  501    0  0.00000000000E+00  0.00000000000E+00  0.28513172961E+04  0.28513172961E+04  0.00000000000E+00 0. -1.
         -1   -1    0    0    0  501 -0.00000000000E+00 -0.00000000000E+00 -0.19902746866E+03  0.19902746866E+03  0.00000000000E+00 0.  1.
         23    2    1    2    0    0  0.45789837776E+03 -0.43561593111E+02  0.10404467798E+04  0.11425498945E+04  0.10640593496E+03 0.  0.
        254    2    1    2    0    0 -0.45789837776E+03  0.43561593111E+02  0.16118430476E+04  0.19077948703E+04  0.91108436499E+03 0.  0.
        -24    2    4    4    0    0  0.21367503138E+03 -0.96421295797E+02  0.14595765925E+03  0.28736519001E+03  0.79504898070E+02 0.  0.
         24    2    4    4    0    0 -0.67157340915E+03  0.13998288891E+03  0.14658853884E+04  0.16204296803E+04  0.79789245912E+02 0.  0.
         13    1    3    3    0    0  0.46292502792E+02 -0.38712371363E+02  0.12420047572E+03  0.13808476267E+03  0.00000000000E+00 0. -1.
        -13    1    3    3    0    0  0.41160587497E+03 -0.48492217479E+01  0.91624630406E+03  0.10044651318E+04  0.00000000000E+00 0.  1.
          2    1    6    6  502    0 -0.15058474965E+03  0.56862615117E+02  0.39843816291E+03  0.42972327548E+03  0.00000000000E+00 0. -1.
          3    1    5    5  503    0  0.19950282036E+02 -0.33605164119E+02  0.43613863487E+01  0.39323561635E+02  0.00000000000E+00 0. -1.
         -4    1    5    5    0  503  0.19372474935E+03 -0.62816131678E+02  0.14159627290E+03  0.24804162837E+03  0.00000000000E+00 0.  1.
         -1    1    6    6    0  502 -0.52098865950E+03  0.83120273790E+02  0.10674472255E+04  0.11907064048E+04  0.00000000000E+00 0.  1.
<mgrwt>
<rscale>  0 0.15066393E+04</rscale>
<asrwt>0</asrwt>
<pdfrwt beam="1">  1        1 0.43866417E+00 0.15066393E+04</pdfrwt>
<pdfrwt beam="2">  1       -1 0.30619613E-01 0.15066393E+04</pdfrwt>
<totfact> 0.73239740E+00</totfact>
</mgrwt>
</event>
<event>
12    1  0.1201209E-007  0.1212419E+04  0.7818608E-02  0.9102055E-01
         -1   -1    0    0    0  501 -0.00000000000E+00  0.00000000000E+00  0.93271892329E+03  0.93271892329E+03  0.00000000000E+00 0.  1.
          1   -1    0    0  501    0  0.00000000000E+00 -0.00000000000E+00 -0.39399843591E+03  0.39399843591E+03  0.00000000000E+00 0. -1.
         23    2    1    2    0    0  0.23226971211E+03 -0.11337682984E+03  0.14853676856E+03  0.31165004256E+03  0.90879330484E+02 0.  0.
        254    2    1    2    0    0 -0.23226971211E+03  0.11337682984E+03  0.39018371882E+03  0.10150673166E+04  0.90073014724E+03 0.  0.
        -24    2    4    4    0    0  0.32425648324E+03  0.12888846976E+03  0.24621030416E+03  0.43442108740E+03  0.79672220670E+02 0.  0.
         24    2    4    4    0    0 -0.55652619535E+03 -0.15511639920E+02  0.14397341466E+03  0.58064622923E+03  0.80372148830E+02 0.  0.
         13    1    3    3    0    0  0.32690592867E+02 -0.10525738603E+02  0.62294428265E+02  0.71134111564E+02  0.00000000000E+00 0.  1.
        -13    1    3    3    0    0  0.19957911924E+03 -0.10285109124E+03  0.86242340292E+02  0.24051593100E+03  0.00000000000E+00 0. -1.
          4    1    6    6  502    0 -0.33007447590E+03  0.29909262877E+02  0.90861075989E+02  0.34365601810E+03  0.00000000000E+00 0. -1.
          3    1    5    5  503    0  0.24709440165E+03  0.76279431461E+02  0.21389903123E+03  0.33559944957E+03  0.00000000000E+00 0. -1.
         -4    1    5    5    0  503  0.77162081589E+02  0.52609038297E+02  0.32311272932E+02  0.98821637834E+02  0.00000000000E+00 0.  1.
         -3    1    6    6    0  502 -0.22645171944E+03 -0.45420902797E+02  0.53112338674E+02  0.23699021113E+03  0.00000000000E+00 0.  1.
<mgrwt>
<rscale>  0 0.12124187E+04</rscale>
<asrwt>0</asrwt>
<pdfrwt beam="1">  1        1 0.60615144E-01 0.12124187E+04</pdfrwt>
<pdfrwt beam="2">  1       -1 0.14349522E+00 0.12124187E+04</pdfrwt>
<totfact> 0.23781899E+01</totfact>
</mgrwt>
</event>
<event>
12    1  0.1201209E-007  0.2486481E+04  0.7818608E-02  0.8407818E-01
         -2   -1    0    0    0  501 -0.00000000000E+00  0.00000000000E+00  0.76355169155E+03  0.76355169155E+03  0.00000000000E+00 0.  1.
          2   -1    0    0  501    0  0.00000000000E+00 -0.00000000000E+00 -0.20242857623E+04  0.20242857623E+04  0.00000000000E+00 0. -1.
         23    2    1    2    0    0  0.42746655259E+03 -0.31311431697E+03  0.47745749352E+03  0.71896776352E+03  0.90447541670E+02 0.  0.
        254    2    1    2    0    0 -0.42746655259E+03  0.31311431697E+03 -0.17381915643E+04  0.20688696904E+04  0.98901145212E+03 0.  0.
        -24    2    4    4    0    0 -0.22242418246E+03  0.55564273915E+03 -0.16055393034E+04  0.17153085086E+04  0.79469833539E+02 0.  0.
         24    2    4    4    0    0 -0.20504237013E+03 -0.24252842218E+03 -0.13265226090E+03  0.35356118175E+03  0.80910307160E+02 0.  0.
         13    1    3    3    0    0  0.26837337359E+03 -0.14822975212E+03  0.30232796920E+03  0.43057929354E+03  0.00000000000E+00 0. -1.
        -13    1    3    3    0    0  0.15909317900E+03 -0.16488456486E+03  0.17512952432E+03  0.28838846998E+03  0.00000000000E+00 0.  1.
          4    1    6    6  502    0 -0.32740997974E+02 -0.73128221564E+02 -0.63492586387E+02  0.10223022187E+03  0.00000000000E+00 0. -1.
          1    1    5    5  503    0 -0.96407376273E+02  0.19379470537E+03 -0.67907256289E+03  0.71273439352E+03  0.00000000000E+00 0. -1.
         -2    1    5    5    0  503 -0.12601680619E+03  0.36184803378E+03 -0.92646674051E+03  0.10025741151E+04  0.00000000000E+00 0.  1.
         -3    1    6    6    0  502 -0.17230137215E+03 -0.16940020061E+03 -0.69159674511E+02  0.25133095988E+03  0.00000000000E+00 0.  1.
<mgrwt>
<rscale>  0 0.24864809E+04</rscale>
<asrwt>0</asrwt>
<pdfrwt beam="1">  1        2 0.31142858E+00 0.24864809E+04</pdfrwt>
<pdfrwt beam="2">  1       -2 0.11746949E+00 0.24864809E+04</pdfrwt>
<totfact> 0.32367492E+00</totfact>
</mgrwt>
</event>
<event>
12    1  0.1201209E-007  0.2383048E+04  0.7818608E-02  0.8445878E-01
         -2   -1    0    0    0  501 -0.00000000000E+00  0.00000000000E+00  0.18141448580E+04  0.18141448580E+04  0.00000000000E+00 0.  1.
          2   -1    0    0  501    0  0.00000000000E+00 -0.00000000000E+00 -0.78258853713E+03  0.78258853713E+03  0.00000000000E+00 0. -1.
         23    2    1    2    0    0 -0.12397379481E+03  0.78481327593E+03 -0.25349614587E+03  0.83880792676E+03  0.89649663435E+02 0.  0.
        254    2    1    2    0    0  0.12397379481E+03 -0.78481327593E+03  0.12850524667E+04  0.17579254684E+04  0.89868833875E+03 0.  0.
        -24    2    4    4    0    0  0.45175261127E+03 -0.48403955418E+03  0.10608120627E+04  0.12529622118E+04  0.78850238166E+02 0.  0.
         24    2    4    4    0    0 -0.32777881646E+03 -0.30077372175E+03  0.22424040406E+03  0.50496325658E+03  0.82464219334E+02 0.  0.
         11    1    3    3    0    0  0.12419162342E+02  0.65300695786E+02 -0.10988457462E+02  0.67373308223E+02  0.00000000000E+00 0.  1.
        -11    1    3    3    0    0 -0.13639295715E+03  0.71951258014E+03 -0.24250768841E+03  0.77143461854E+03  0.00000000000E+00 0. -1.
          2    1    6    6  502    0 -0.34182165808E+02 -0.64466283888E+02  0.57231629639E+02  0.92735007677E+02  0.00000000000E+00 0. -1.
          3    1    5    5  503    0  0.26848332199E+03 -0.25049036181E+03  0.52994949270E+03  0.64472876495E+03  0.00000000000E+00 0. -1.
         -4    1    5    5    0  503  0.18326928928E+03 -0.23354919237E+03  0.53086256998E+03  0.60823344684E+03  0.00000000000E+00 0.  1.
         -1    1    6    6    0  502 -0.29359665065E+03 -0.23630743786E+03  0.16700877442E+03  0.41222824891E+03  0.00000000000E+00 0.  1.
<mgrwt>
<rscale>  0 0.23830476E+04</rscale>
<asrwt>0</asrwt>
<pdfrwt beam="1">  1        2 0.12039824E+00 0.23830476E+04</pdfrwt>
<pdfrwt beam="2">  1       -2 0.27909921E+00 0.23830476E+04</pdfrwt>
<totfact> 0.13621816E+00</totfact>
</mgrwt>
</event>
<event>
12    1  0.1201209E-007  0.1721733E+04  0.7818608E-02  0.8749065E-01
         -2   -1    0    0    0  501 -0.00000000000E+00  0.00000000000E+00  0.34745872926E+03  0.34745872926E+03  0.00000000000E+00 0. -1.
          2   -1    0    0  501    0  0.00000000000E+00 -0.00000000000E+00 -0.21328896675E+04  0.21328896675E+04  0.00000000000E+00 0.  1.
         23    2    1    2    0    0 -0.31381005948E+02  0.40056454002E+03  0.30459447132E+02  0.41324146094E+03  0.91673381409E+02 0.  0.
        254    2    1    2    0    0  0.31381005948E+02 -0.40056454002E+03 -0.18158903853E+04  0.20671069358E+04  0.90223969885E+03 0.  0.
        -24    2    4    4    0    0  0.44688723686E+03 -0.90412296783E+02 -0.86339626578E+03  0.97970076444E+03  0.80485341553E+02 0.  0.
         24    2    4    4    0    0 -0.41550623092E+03 -0.31015224324E+03 -0.95249411955E+03  0.10874061713E+04  0.79795311753E+02 0.  0.
         11    1    3    3    0    0  0.16176395417E+01  0.92947253355E+01  0.18072983798E+02  0.20387285747E+02  0.00000000000E+00 0.  1.
        -11    1    3    3    0    0 -0.32998645490E+02  0.39126981469E+03  0.12386463334E+02  0.39285417519E+03  0.00000000000E+00 0. -1.
          2    1    6    6  502    0 -0.31330276104E+03 -0.27384208208E+03 -0.76017919241E+03  0.86661439554E+03  0.00000000000E+00 0. -1.
          3    1    5    5  503    0  0.15914043792E+03  0.62414587969E+01 -0.28416925771E+03  0.32575573950E+03  0.00000000000E+00 0. -1.
         -4    1    5    5    0  503  0.28774679894E+03 -0.96653755580E+02 -0.57922700807E+03  0.65394502494E+03  0.00000000000E+00 0.  1.
         -1    1    6    6    0  502 -0.10220346988E+03 -0.36310161158E+02 -0.19231492714E+03  0.22079177580E+03  0.00000000000E+00 0.  1.
<mgrwt>
<rscale>  0 0.17217330E+04</rscale>
<asrwt>0</asrwt>
<pdfrwt beam="1">  1        2 0.32813688E+00 0.17217330E+04</pdfrwt>
<pdfrwt beam="2">  1       -2 0.53455187E-01 0.17217330E+04</pdfrwt>
<totfact> 0.17651787E+01</totfact>
</mgrwt>
</event>
<event>
12    1  0.1201209E-007  0.2120753E+04  0.7818608E-02  0.8552156E-01
          2   -1    0    0  501    0  0.00000000000E+00  0.00000000000E+00  0.55899787643E+03  0.55899787643E+03  0.00000000000E+00 0. -1.
         -2   -1    0    0    0  501 -0.00000000000E+00 -0.00000000000E+00 -0.20114538845E+04  0.20114538845E+04  0.00000000000E+00 0.  1.
         23    2    1    2    0    0 -0.46602679536E+02 -0.52510929976E+03  0.23755821488E+03  0.58483795183E+03  0.87692291632E+02 0.  0.
        254    2    1    2    0    0  0.46602679536E+02  0.52510929976E+03 -0.16900142230E+04  0.19856138091E+04  0.89922329747E+03 0.  0.
        -24    2    4    4    0    0  0.33351742709E+02  0.31842901773E+02 -0.14099774219E+04  0.14128942372E+04  0.78150406278E+02 0.  0.
         24    2    4    4    0    0  0.13250936827E+02  0.49326639798E+03 -0.28003680109E+03  0.57271957198E+03  0.78101033641E+02 0.  0.
         11    1    3    3    0    0 -0.41095055656E+02 -0.51032670556E+03  0.21059609297E+03  0.55359991364E+03  0.00000000000E+00 0. -1.
        -11    1    3    3    0    0 -0.55076238797E+01 -0.14782594198E+02  0.26962121914E+02  0.31238038192E+02  0.00000000000E+00 0.  1.
          2    1    6    6  502    0  0.89165753498E+01  0.47707168939E+03 -0.28428744707E+03  0.55542439152E+03  0.00000000000E+00 0. -1.
          1    1    5    5  503    0  0.22276663163E+02  0.25854414564E+02 -0.13794538061E+04  0.13798759015E+04  0.00000000000E+00 0. -1.
         -2    1    5    5    0  503  0.11075079546E+02  0.59884872095E+01 -0.30523615796E+02  0.33018335622E+02  0.00000000000E+00 0.  1.
         -1    1    6    6    0  502  0.43343614769E+01  0.16194708591E+02  0.42506459806E+01  0.17295180456E+02  0.00000000000E+00 0.  1.
<mgrwt>
<rscale>  0 0.21207531E+04</rscale>
<asrwt>0</asrwt>
<pdfrwt beam="1">  1        2 0.85999671E-01 0.21207531E+04</pdfrwt>
<pdfrwt beam="2">  1       -2 0.30945445E+00 0.21207531E+04</pdfrwt>
<totfact> 0.13828301E+00</totfact>
</mgrwt>
</event>
<event>
12    1  0.1201209E-007  0.1910474E+04  0.7818608E-02  0.8649660E-01
         -2   -1    0    0    0  501 -0.00000000000E+00  0.00000000000E+00  0.46837912175E+03  0.46837912175E+03  0.00000000000E+00 0.  1.
          2   -1    0    0  501    0  0.00000000000E+00 -0.00000000000E+00 -0.19481597394E+04  0.19481597394E+04  0.00000000000E+00 0. -1.
         23    2    1    2    0    0  0.53894505830E+03  0.34446940095E+03 -0.10438338911E+04  0.12276564142E+04  0.91815767379E+02 0.  0.
        254    2    1    2    0    0 -0.53894505830E+03 -0.34446940095E+03 -0.43594672653E+03  0.11888824469E+04  0.90236964717E+03 0.  0.
        -24    2    4    4    0    0 -0.57806217216E+03  0.26362441395E+02  0.31453658722E+02  0.58537098088E+03  0.82577232992E+02 0.  0.
         24    2    4    4    0    0  0.39117113865E+02 -0.37083184234E+03 -0.46740038525E+03  0.60351146602E+03  0.81954655695E+02 0.  0.
         13    1    3    3    0    0  0.14012932362E+03  0.13649243253E+03 -0.28920887979E+03  0.34915353017E+03  0.00000000000E+00 0.  1.
        -13    1    3    3    0    0  0.39881573468E+03  0.20797696841E+03 -0.75462501132E+03  0.87850288407E+03  0.00000000000E+00 0. -1.
          2    1    6    6  502    0  0.25057071320E+02 -0.20179957239E+03 -0.31812018265E+03  0.37755976328E+03  0.00000000000E+00 0. -1.
          3    1    5    5  503    0 -0.19394766973E+03 -0.19741838299E+02 -0.15973958272E+02  0.19560318534E+03  0.00000000000E+00 0. -1.
         -4    1    5    5    0  503 -0.38411450243E+03  0.46104279695E+02  0.47427616994E+02  0.38976779554E+03  0.00000000000E+00 0.  1.
         -1    1    6    6    0  502  0.14060042545E+02 -0.16903226995E+03 -0.14928020261E+03  0.22595170274E+03  0.00000000000E+00 0.  1.
<mgrwt>
<rscale>  0 0.19104736E+04</rscale>
<asrwt>0</asrwt>
<pdfrwt beam="1">  1        2 0.29971688E+00 0.19104736E+04</pdfrwt>
<pdfrwt beam="2">  1       -2 0.72058327E-01 0.19104736E+04</pdfrwt>
<totfact> 0.11654069E+01</totfact>
</mgrwt>
</event>
<event>
12    1  0.1201209E-007  0.1596004E+04  0.7818608E-02  0.8823007E-01
         -2   -1    0    0    0  501 -0.00000000000E+00  0.00000000000E+00  0.21640242567E+03  0.21640242567E+03  0.00000000000E+00 0.  1.
          2   -1    0    0  501    0  0.00000000000E+00 -0.00000000000E+00 -0.29426985783E+04  0.29426985783E+04  0.00000000000E+00 0. -1.
         23    2    1    2    0    0 -0.78072804337E+02 -0.42979949689E+03 -0.15667547316E+04  0.16289750033E+04  0.89533245144E+02 0.  0.
        254    2    1    2    0    0  0.78072804337E+02  0.42979949689E+03 -0.11595414211E+04  0.15301260007E+04  0.89773398100E+03 0.  0.
        -24    2    4    4    0    0  0.27427889668E+03 -0.10099177964E+03 -0.79957419381E+03  0.85496325839E+03  0.78835455682E+02 0.  0.
         24    2    4    4    0    0 -0.19620609235E+03  0.53079127653E+03 -0.35996722724E+03  0.67516274233E+03  0.77666685418E+02 0.  0.
         13    1    3    3    0    0 -0.55740521018E+02 -0.30827572842E+03 -0.96188579573E+03  0.10116151514E+04  0.00000000000E+00 0. -1.
        -13    1    3    3    0    0 -0.22332283319E+02 -0.12152376847E+03 -0.60486893587E+03  0.61735985192E+03  0.00000000000E+00 0.  1.
          4    1    6    6  502    0 -0.14556813461E+02  0.60431405358E+01 -0.12458941169E+02  0.20090932799E+02  0.00000000000E+00 0. -1.
          3    1    5    5  503    0  0.11735041487E+03 -0.35107329104E+02 -0.23106022565E+03  0.26151954479E+03  0.00000000000E+00 0. -1.
         -4    1    5    5    0  503  0.15692848181E+03 -0.65884450539E+02 -0.56851396816E+03  0.59344371360E+03  0.00000000000E+00 0.  1.
         -3    1    6    6    0  502 -0.18164927889E+03  0.52474813599E+03 -0.34750828607E+03  0.65507180953E+03  0.00000000000E+00 0.  1.
<mgrwt>
<rscale>  0 0.15960039E+04</rscale>
<asrwt>0</asrwt>
<pdfrwt beam="1">  1        2 0.45272285E+00 0.15960039E+04</pdfrwt>
<pdfrwt beam="2">  1       -2 0.33292681E-01 0.15960039E+04</pdfrwt>
<totfact> 0.15367456E+01</totfact>
</mgrwt>
</event>
<event>
12    1  0.1201209E-007  0.1415906E+04  0.7818608E-02  0.8942385E-01
         -2   -1    0    0    0  501 -0.00000000000E+00  0.00000000000E+00  0.58760675432E+03  0.58760675432E+03  0.00000000000E+00 0.  1.
          2   -1    0    0  501    0  0.00000000000E+00 -0.00000000000E+00 -0.85294699958E+03  0.85294699958E+03  0.00000000000E+00 0. -1.
         23    2    1    2    0    0  0.97243838016E+02 -0.29973181720E+03  0.19817803310E+03  0.38327780187E+03  0.91278772629E+02 0.  0.
        254    2    1    2    0    0 -0.97243838016E+02  0.29973181720E+03 -0.46351827836E+03  0.10572759520E+04  0.89648631786E+03 0.  0.
        -24    2    4    4    0    0 -0.37072694612E+03  0.32061837636E+02 -0.53810776254E+03  0.65907331744E+03  0.79694690140E+02 0.  0.
         24    2    4    4    0    0  0.27348310810E+03  0.26766997956E+03  0.74589484180E+02  0.39820263460E+03  0.81003201626E+02 0.  0.
         13    1    3    3    0    0  0.11819992465E+02 -0.61360845899E+02  0.12529386037E+01  0.62501483874E+02  0.00000000000E+00 0. -1.
        -13    1    3    3    0    0  0.85423845551E+02 -0.23837097130E+03  0.19692509450E+03  0.32077631800E+03  0.00000000000E+00 0.  1.
          4    1    6    6  502    0  0.10954002014E+03  0.15229442699E+03  0.11130366350E+02  0.18792683033E+03  0.00000000000E+00 0. -1.
          1    1    5    5  503    0 -0.86162118792E+02 -0.25085047404E+02 -0.11226695745E+03  0.14372557202E+03  0.00000000000E+00 0. -1.
         -2    1    5    5    0  503 -0.28456482733E+03  0.57146885040E+02 -0.42584080509E+03  0.51534774541E+03  0.00000000000E+00 0.  1.
         -3    1    6    6    0  502  0.16394308797E+03  0.11537555257E+03  0.63459117830E+02  0.21027580426E+03  0.00000000000E+00 0.  1.
<mgrwt>
<rscale>  0 0.14159060E+04</rscale>
<asrwt>0</asrwt>
<pdfrwt beam="1">  1        2 0.13122262E+00 0.14159060E+04</pdfrwt>
<pdfrwt beam="2">  1       -2 0.90401039E-01 0.14159060E+04</pdfrwt>
<totfact> 0.32132974E+01</totfact>
</mgrwt>
</event>
<event>
12    1  0.1201209E-007  0.1973199E+04  0.7818608E-02  0.8619255E-01
          2   -1    0    0  501    0  0.00000000000E+00  0.00000000000E+00  0.25442236612E+04  0.25442236612E+04  0.00000000000E+00 0. -1.
         -2   -1    0    0    0  501 -0.00000000000E+00 -0.00000000000E+00 -0.38258372776E+03  0.38258372776E+03  0.00000000000E+00 0.  1.
         23    2    1    2    0    0 -0.25104767289E+03 -0.22467126936E+03  0.18711918919E+04  0.19034495468E+04  0.90878861868E+02 0.  0.
        254    2    1    2    0    0  0.25104767289E+03  0.22467126936E+03  0.29044804146E+03  0.10233578421E+04  0.92162850153E+03 0.  0.
        -24    2    4    4    0    0  0.34505497905E+03  0.26560223474E+03  0.56621854245E+03  0.71860472095E+03  0.78624560302E+02 0.  0.
         24    2    4    4    0    0 -0.94007306167E+02 -0.40930965378E+02 -0.27577050100E+03  0.30475312114E+03  0.79450475675E+02 0.  0.
         13    1    3    3    0    0 -0.25687963691E+03 -0.20638506371E+03  0.17829405710E+04  0.18131351362E+04  0.00000000000E+00 0. -1.
        -13    1    3    3    0    0  0.58319640219E+01 -0.18286205646E+02  0.88251320977E+02  0.90314410675E+02  0.00000000000E+00 0.  1.
          2    1    6    6  502    0 -0.59932349263E+02 -0.64551145193E+02 -0.18017149550E+03  0.20055050392E+03  0.00000000000E+00 0. -1.
          1    1    5    5  503    0  0.21353915928E+03  0.21055175041E+03  0.38031814229E+03  0.48432726694E+03  0.00000000000E+00 0. -1.
         -2    1    5    5    0  503  0.13151581977E+03  0.55050484328E+02  0.18590040017E+03  0.23427745401E+03  0.00000000000E+00 0.  1.
         -1    1    6    6    0  502 -0.34074956904E+02  0.23620179814E+02 -0.95599005498E+02  0.10420261722E+03  0.00000000000E+00 0.  1.
<mgrwt>
<rscale>  0 0.19731990E+04</rscale>
<asrwt>0</asrwt>
<pdfrwt beam="1">  1        2 0.39141901E+00 0.19731990E+04</pdfrwt>
<pdfrwt beam="2">  1       -2 0.58859037E-01 0.19731990E+04</pdfrwt>
<totfact> 0.82453324E+00</totfact>
</mgrwt>
</event>
<event>
12    1  0.1201209E-007  0.2125995E+04  0.7818608E-02  0.8549878E-01
         -2   -1    0    0    0  501 -0.00000000000E+00  0.00000000000E+00  0.73889042322E+03  0.73889042322E+03  0.00000000000E+00 0.  1.
          2   -1    0    0  501    0  0.00000000000E+00 -0.00000000000E+00 -0.15292712091E+04  0.15292712091E+04  0.00000000000E+00 0. -1.
         23    2    1    2    0    0 -0.30196449361E+03 -0.57555402937E+02 -0.11949177664E+04  0.12371752007E+04  0.90988071626E+02 0.  0.
        254    2    1    2    0    0  0.30196449361E+03  0.57555402937E+02  0.40453698044E+03  0.10309864316E+04  0.89709958969E+03 0.  0.
        -24    2    4    4    0    0  0.31162750306E+03 -0.31716880476E+03  0.45888411661E+03  0.64397833135E+03  0.80160510217E+02 0.  0.
         24    2    4    4    0    0 -0.96630094501E+01  0.37472420770E+03 -0.54347136170E+02  0.38700810026E+03  0.79435841219E+02 0.  0.
         13    1    3    3    0    0 -0.23149069311E+03 -0.64848106993E+02 -0.77850382644E+03  0.81477691779E+03  0.00000000000E+00 0. -1.
        -13    1    3    3    0    0 -0.70473800495E+02  0.72927040558E+01 -0.41641393992E+03  0.42239828296E+03  0.00000000000E+00 0.  1.
          2    1    6    6  502    0  0.11260025687E+02  0.50839715544E+01  0.19918753802E+01  0.12514092566E+02  0.00000000000E+00 0. -1.
          3    1    5    5  503    0  0.87642654901E+02 -0.12942639334E+03  0.19761468623E+03  0.25196029541E+03  0.00000000000E+00 0. -1.
         -4    1    5    5    0  503  0.22398484816E+03 -0.18774241142E+03  0.26126943038E+03  0.39201803594E+03  0.00000000000E+00 0.  1.
         -1    1    6    6    0  502 -0.20923035137E+02  0.36964023615E+03 -0.56339011551E+02  0.37449400770E+03  0.00000000000E+00 0.  1.
<mgrwt>
<rscale>  0 0.21259952E+04</rscale>
<asrwt>0</asrwt>
<pdfrwt beam="1">  1        2 0.23527249E+00 0.21259952E+04</pdfrwt>
<pdfrwt beam="2">  1       -2 0.11367545E+00 0.21259952E+04</pdfrwt>
<totfact> 0.68172509E+00</totfact>
</mgrwt>
</event>
<event>
12    1  0.1201209E-007  0.2371296E+04  0.7818608E-02  0.8450329E-01
          1   -1    0    0  501    0  0.00000000000E+00  0.00000000000E+00  0.12768358218E+04  0.12768358218E+04  0.00000000000E+00 0.  1.
         -1   -1    0    0    0  501 -0.00000000000E+00 -0.00000000000E+00 -0.11009725307E+04  0.11009725307E+04  0.00000000000E+00 0. -1.
         23    2    1    2    0    0 -0.29697965210E+03  0.80984195926E+03  0.59223444499E+03  0.10505452560E+04  0.94142361784E+02 0.  0.
        254    2    1    2    0    0  0.29697965210E+03 -0.80984195926E+03 -0.41637115384E+03  0.13272630965E+04  0.91881525716E+03 0.  0.
        -24    2    4    4    0    0 -0.13361786937E+03 -0.72884592150E+03 -0.43691494906E+02  0.74649938403E+03  0.79260780440E+02 0.  0.
         24    2    4    4    0    0  0.43059752147E+03 -0.80996037758E+02 -0.37267965894E+03  0.58076371245E+03  0.80135996225E+02 0.  0.
         11    1    3    3    0    0 -0.14026275827E+03  0.27286868085E+03  0.23978213090E+03  0.38939238391E+03  0.00000000000E+00 0. -1.
        -11    1    3    3    0    0 -0.15671689383E+03  0.53697327841E+03  0.35245231410E+03  0.66115287207E+03  0.00000000000E+00 0.  1.
          4    1    6    6  502    0  0.40593259517E+03 -0.86760510028E+02 -0.36854625790E+03  0.55509909218E+03  0.00000000000E+00 0. -1.
          3    1    5    5  503    0 -0.12232441762E+03 -0.66674693171E+03 -0.17326355910E+02  0.67809655411E+03  0.00000000000E+00 0. -1.
         -4    1    5    5    0  503 -0.11293451756E+02 -0.62098989794E+02 -0.26365138995E+02  0.68402829914E+02  0.00000000000E+00 0.  1.
         -1    1    6    6    0  502  0.24664926299E+02  0.57644722698E+01 -0.41334010343E+01  0.25664620277E+02  0.00000000000E+00 0.  1.
<mgrwt>
<rscale>  0 0.23712960E+04</rscale>
<asrwt>0</asrwt>
<pdfrwt beam="1">  1        1 0.19643628E+00 0.23712960E+04</pdfrwt>
<pdfrwt beam="2">  1       -1 0.16938039E+00 0.23712960E+04</pdfrwt>
<totfact> 0.20996178E+00</totfact>
</mgrwt>
</event>
<event>
12    1  0.1201209E-007  0.1640505E+04  0.7818608E-02  0.8796043E-01
         -1   -1    0    0    0  501 -0.00000000000E+00  0.00000000000E+00  0.38105096432E+03  0.38105096432E+03  0.00000000000E+00 0.  1.
          1   -1    0    0  501    0  0.00000000000E+00 -0.00000000000E+00 -0.17656812005E+04  0.17656812005E+04  0.00000000000E+00 0. -1.
         23    2    1    2    0    0  0.20288617936E+03  0.10342735978E+03  0.19315853201E+03  0.31272370392E+03  0.92875594116E+02 0.  0.
        254    2    1    2    0    0 -0.20288617936E+03 -0.10342735978E+03 -0.15777887682E+04  0.18340084609E+04  0.90681288980E+03 0.  0.
        -24    2    4    4    0    0 -0.50550350840E+03 -0.40674246040E+02 -0.52720100221E+03  0.73597467391E+03  0.80806142195E+02 0.  0.
         24    2    4    4    0    0  0.30261732904E+03 -0.62753113740E+02 -0.10505877660E+04  0.10980337870E+04  0.80176943131E+02 0.  0.
         13    1    3    3    0    0  0.11710800662E+03  0.44153192589E+02  0.16036509930E+03  0.20342260126E+03  0.00000000000E+00 0. -1.
        -13    1    3    3    0    0  0.85778172736E+02  0.59274167192E+02  0.32793432709E+02  0.10930110266E+03  0.00000000000E+00 0.  1.
          2    1    6    6  502    0  0.27077468715E+03 -0.62097690664E+02 -0.83239172003E+03  0.87752551527E+03  0.00000000000E+00 0. -1.
          3    1    5    5  503    0 -0.37453340695E+03  0.47366107076E+01 -0.37252992080E+03  0.52827667968E+03  0.00000000000E+00 0. -1.
         -4    1    5    5    0  503 -0.13097010145E+03 -0.45410856747E+02 -0.15467108141E+03  0.20769799423E+03  0.00000000000E+00 0.  1.
         -1    1    6    6    0  502  0.31842641889E+02 -0.65542307642E+00 -0.21819604600E+03  0.22050827175E+03  0.00000000000E+00 0.  1.
<mgrwt>
<rscale>  0 0.16405054E+04</rscale>
<asrwt>0</asrwt>
<pdfrwt beam="1">  1        1 0.27164327E+00 0.16405054E+04</pdfrwt>
<pdfrwt beam="2">  1       -1 0.58623224E-01 0.16405054E+04</pdfrwt>
<totfact> 0.12124316E+01</totfact>
</mgrwt>
</event>
<event>
12    1  0.1201209E-007  0.1398888E+04  0.7818608E-02  0.8954624E-01
          2   -1    0    0  501    0  0.00000000000E+00  0.00000000000E+00  0.82116365375E+03  0.82116365375E+03  0.00000000000E+00 0. -1.
         -2   -1    0    0    0  501 -0.00000000000E+00 -0.00000000000E+00 -0.59576649121E+03  0.59576649121E+03  0.00000000000E+00 0.  1.
         23    2    1    2    0    0  0.24068906296E+03  0.20664457315E+03 -0.18569473879E+03  0.37608487555E+03  0.79524165893E+02 0.  0.
        254    2    1    2    0    0 -0.24068906296E+03 -0.20664457315E+03  0.41109190133E+03  0.10408452694E+04  0.90206935369E+03 0.  0.
        -24    2    4    4    0    0 -0.28139795938E+03 -0.63479992944E+02 -0.23040771485E+03  0.37774069409E+03  0.79911174823E+02 0.  0.
         24    2    4    4    0    0  0.40708896417E+02 -0.14316458021E+03  0.64149961617E+03  0.66310457532E+03  0.77669871758E+02 0.  0.
         13    1    3    3    0    0  0.10130024086E+02  0.39784363406E+02 -0.35533169345E+02  0.54295663578E+02  0.00000000000E+00 0. -1.
        -13    1    3    3    0    0  0.23055903888E+03  0.16686020975E+03 -0.15016156944E+03  0.32178921197E+03  0.00000000000E+00 0.  1.
          2    1    6    6  502    0 -0.12101346164E+02 -0.65100058356E+02  0.36567835463E+03  0.37162497120E+03  0.00000000000E+00 0. -1.
          1    1    5    5  503    0 -0.21769942398E+03 -0.77436617724E+02 -0.20081332636E+03  0.30612981071E+03  0.00000000000E+00 0. -1.
         -2    1    5    5    0  503 -0.63698535404E+02  0.13956624780E+02 -0.29594388492E+02  0.71610883377E+02  0.00000000000E+00 0.  1.
         -1    1    6    6    0  502  0.52810242581E+02 -0.78064521852E+02  0.27582126154E+03  0.29147960411E+03  0.00000000000E+00 0.  1.
<mgrwt>
<rscale>  0 0.13988878E+04</rscale>
<asrwt>0</asrwt>
<pdfrwt beam="1">  1        2 0.12633287E+00 0.13988878E+04</pdfrwt>
<pdfrwt beam="2">  1       -2 0.91656383E-01 0.13988878E+04</pdfrwt>
<totfact> 0.32811474E+01</totfact>
</mgrwt>
</event>
<event>
12    1  0.1201209E-007  0.2655705E+04  0.7818608E-02  0.8349522E-01
         -2   -1    0    0    0  501 -0.00000000000E+00  0.00000000000E+00  0.13722320418E+04  0.13722320418E+04  0.00000000000E+00 0.  1.
          2   -1    0    0  501    0  0.00000000000E+00 -0.00000000000E+00 -0.12849080600E+04  0.12849080600E+04  0.00000000000E+00 0. -1.
         23    2    1    2    0    0 -0.10407060737E+04  0.16334698450E+03 -0.47552957539E+03  0.11594408682E+04  0.91778976991E+02 0.  0.
        254    2    1    2    0    0  0.10407060737E+04 -0.16334698450E+03  0.56285355720E+03  0.14976992336E+04  0.90363017787E+03 0.  0.
        -24    2    4    4    0    0  0.47197608214E+02  0.27271621562E+03  0.19988335608E+03  0.35081026951E+03  0.80701553105E+02 0.  0.
         24    2    4    4    0    0  0.99350846546E+03 -0.43606320011E+03  0.36297020112E+03  0.11468889641E+04  0.79979645093E+02 0.  0.
         13    1    3    3    0    0 -0.48346538042E+03  0.61770150473E+02 -0.17226669522E+03  0.51694307214E+03  0.00000000000E+00 0. -1.
        -13    1    3    3    0    0 -0.55724069325E+03  0.10157683402E+03 -0.30326288017E+03  0.64249779604E+03  0.00000000000E+00 0.  1.
          2    1    6    6  502    0  0.55111577759E+03 -0.21758821182E+03  0.16317392759E+03  0.61457217711E+03  0.00000000000E+00 0. -1.
          1    1    5    5  503    0  0.36320532993E+00  0.77959073755E+02  0.10052542659E+03  0.12721285505E+03  0.00000000000E+00 0. -1.
         -2    1    5    5    0  503  0.46834402884E+02  0.19475714186E+03  0.99357929486E+02  0.22359741446E+03  0.00000000000E+00 0.  1.
         -1    1    6    6    0  502  0.44239268787E+03 -0.21847498829E+03  0.19979627353E+03  0.53231678698E+03  0.00000000000E+00 0.  1.
<mgrwt>
<rscale>  0 0.26557048E+04</rscale>
<asrwt>0</asrwt>
<pdfrwt beam="1">  1        2 0.19767816E+00 0.26557048E+04</pdfrwt>
<pdfrwt beam="2">  1       -2 0.21111262E+00 0.26557048E+04</pdfrwt>
<totfact> 0.16732184E+00</totfact>
</mgrwt>
</event>
<event>
12    1  0.1201209E-007  0.1623553E+04  0.7818608E-02  0.8806208E-01
          1   -1    0    0  501    0  0.00000000000E+00  0.00000000000E+00  0.19869402728E+04  0.19869402728E+04  0.00000000000E+00 0. -1.
         -1   -1    0    0    0  501 -0.00000000000E+00 -0.00000000000E+00 -0.33165633394E+03  0.33165633394E+03  0.00000000000E+00 0.  1.
         23    2    1    2    0    0 -0.11483406825E+03 -0.33329756946E+03  0.11932445302E+04  0.12475997887E+04  0.91643826152E+02 0.  0.
        254    2    1    2    0    0  0.11483406825E+03  0.33329756946E+03  0.46203940858E+03  0.10709968180E+04  0.89959970874E+03 0.  0.
        -24    2    4    4    0    0  0.26492169002E+03 -0.10830472222E+03  0.51681187248E+03  0.59607348274E+03  0.79345261927E+02 0.  0.
         24    2    4    4    0    0 -0.15008762177E+03  0.44160229169E+03 -0.54772463900E+02  0.47492333522E+03  0.70804472348E+02 0.  0.
         11    1    3    3    0    0 -0.38718552447E+02 -0.63154035751E+02  0.38365913640E+03  0.39074530257E+03  0.00000000000E+00 0.  1.
        -11    1    3    3    0    0 -0.76115515800E+02 -0.27014353371E+03  0.80958539384E+03  0.85685448617E+03  0.00000000000E+00 0. -1.
          2    1    6    6  502    0 -0.13041387784E+03  0.42112459646E+03 -0.63057140755E+02  0.44534246180E+03  0.00000000000E+00 0. -1.
          1    1    5    5  503    0  0.25889422468E+03 -0.11872841327E+03  0.49202357399E+03  0.56851548180E+03  0.00000000000E+00 0. -1.
         -2    1    5    5    0  503  0.60274653371E+01  0.10423691046E+02  0.24788298495E+02  0.27558000938E+02  0.00000000000E+00 0.  1.
         -1    1    6    6    0  502 -0.19673743931E+02  0.20477695222E+02  0.82846768547E+01  0.29580873423E+02  0.00000000000E+00 0.  1.
<mgrwt>
<rscale>  0 0.16235533E+04</rscale>
<asrwt>0</asrwt>
<pdfrwt beam="1">  1        1 0.30568311E+00 0.16235533E+04</pdfrwt>
<pdfrwt beam="2">  1       -1 0.51024052E-01 0.16235533E+04</pdfrwt>
<totfact> 0.11251236E+01</totfact>
</mgrwt>
</event>
<event>
12    1  0.1201209E-007  0.1772549E+04  0.7818608E-02  0.8721035E-01
          2   -1    0    0  501    0  0.00000000000E+00  0.00000000000E+00  0.63366199319E+03  0.63366199319E+03  0.00000000000E+00 0. -1.
         -2   -1    0    0    0  501 -0.00000000000E+00 -0.00000000000E+00 -0.12395922901E+04  0.12395922901E+04  0.00000000000E+00 0.  1.
         23    2    1    2    0    0 -0.46231640558E+03 -0.19853518374E+03  0.21682668909E+03  0.55545823364E+03  0.91473264811E+02 0.  0.
        254    2    1    2    0    0  0.46231640558E+03  0.19853518374E+03 -0.82275698603E+03  0.13177960497E+04  0.89805606309E+03 0.  0.
        -24    2    4    4    0    0  0.28476287734E+03 -0.27521575204E+03 -0.67291527200E+03  0.78505058723E+03  0.81583421963E+02 0.  0.
         24    2    4    4    0    0  0.17755352823E+03  0.47375093577E+03 -0.14984171403E+03  0.53274546245E+03  0.73484583202E+02 0.  0.
         13    1    3    3    0    0 -0.14418524185E+03 -0.97412450351E+02  0.43666128988E+02  0.17940262058E+03  0.00000000000E+00 0.  1.
        -13    1    3    3    0    0 -0.31813116373E+03 -0.10112273338E+03  0.17316056010E+03  0.37605561306E+03  0.00000000000E+00 0. -1.
          4    1    6    6  502    0  0.69163785796E+02  0.19938646782E+03 -0.10011807041E+03  0.23358557497E+03  0.00000000000E+00 0. -1.
          3    1    5    5  503    0  0.92189537534E+02 -0.97416894460E+02 -0.15788095432E+03  0.20716022276E+03  0.00000000000E+00 0. -1.
         -4    1    5    5    0  503  0.19257333981E+03 -0.17779885758E+03 -0.51503431768E+03  0.57789036447E+03  0.00000000000E+00 0.  1.
         -3    1    6    6    0  502  0.10838974243E+03  0.27436446795E+03 -0.49723643628E+02  0.29915988748E+03  0.00000000000E+00 0.  1.
<mgrwt>
<rscale>  0 0.17725490E+04</rscale>
<asrwt>0</asrwt>
<pdfrwt beam="1">  1        2 0.97486462E-01 0.17725490E+04</pdfrwt>
<pdfrwt beam="2">  1       -2 0.19070650E+00 0.17725490E+04</pdfrwt>
<totfact> 0.67248281E+00</totfact>
</mgrwt>
</event>
<event>
12    1  0.1201209E-007  0.1544295E+04  0.7818608E-02  0.8855520E-01
         -2   -1    0    0    0  501 -0.00000000000E+00  0.00000000000E+00  0.12073415652E+04  0.12073415652E+04  0.00000000000E+00 0.  1.
          2   -1    0    0  501    0  0.00000000000E+00 -0.00000000000E+00 -0.49382166294E+03  0.49382166294E+03  0.00000000000E+00 0. -1.
         23    2    1    2    0    0  0.10727292893E+03 -0.40889716466E+03  0.53819437574E+03  0.69061527016E+03  0.92692463295E+02 0.  0.
        254    2    1    2    0    0 -0.10727292893E+03  0.40889716466E+03  0.17532552653E+03  0.10105479580E+04  0.90097933527E+03 0.  0.
        -24    2    4    4    0    0 -0.37391799839E+03  0.39813462779E+03  0.37531832838E+03  0.66761065731E+03  0.80711156413E+02 0.  0.
         24    2    4    4    0    0  0.26664506946E+03  0.10762536872E+02 -0.19999280185E+03  0.34293730068E+03  0.79959027861E+02 0.  0.
         11    1    3    3    0    0  0.75791906524E+02 -0.26960754091E+03  0.28278460716E+03  0.39799468998E+03  0.00000000000E+00 0.  1.
        -11    1    3    3    0    0  0.31481022407E+02 -0.13928962375E+03  0.25540976858E+03  0.29262058017E+03  0.00000000000E+00 0. -1.
          4    1    6    6  502    0  0.23032867227E+03 -0.79162775512E+00 -0.13329448124E+03  0.26611903854E+03  0.00000000000E+00 0. -1.
          3    1    5    5  503    0 -0.30684321370E+03  0.27564841632E+03  0.28021690429E+03  0.49865451032E+03  0.00000000000E+00 0. -1.
         -4    1    5    5    0  503 -0.67074784688E+02  0.12248621146E+03  0.95101424092E+02  0.16895614698E+03  0.00000000000E+00 0.  1.
         -3    1    6    6    0  502  0.36316397185E+02  0.11554164627E+02 -0.66698320616E+02  0.76818262137E+02  0.00000000000E+00 0.  1.
<mgrwt>
<rscale>  0 0.15442946E+04</rscale>
<asrwt>0</asrwt>
<pdfrwt beam="1">  1        2 0.75972564E-01 0.15442946E+04</pdfrwt>
<pdfrwt beam="2">  1       -2 0.18574486E+00 0.15442946E+04</pdfrwt>
<totfact> 0.99530181E+00</totfact>
</mgrwt>
</event>
<event>
12    1  0.1201209E-007  0.1482662E+04  0.7818608E-02  0.8896065E-01
         -2   -1    0    0    0  501 -0.00000000000E+00  0.00000000000E+00  0.52417976509E+03  0.52417976509E+03  0.00000000000E+00 0.  1.
          2   -1    0    0  501    0  0.00000000000E+00 -0.00000000000E+00 -0.10484413342E+04  0.10484413342E+04  0.00000000000E+00 0. -1.
         23    2    1    2    0    0  0.38590926446E+03 -0.54651887525E+02  0.10048355428E+03  0.41411033803E+03  0.97353162093E+02 0.  0.
        254    2    1    2    0    0 -0.38590926446E+03  0.54651887525E+02 -0.62474512335E+03  0.11585107612E+04  0.89438689924E+03 0.  0.
        -24    2    4    4    0    0  0.77920389779E+02  0.11646493918E+03  0.16870371439E+03  0.23331707107E+03  0.79625644138E+02 0.  0.
         24    2    4    4    0    0 -0.46382965424E+03 -0.61813051655E+02 -0.79344883774E+03  0.92519369015E+03  0.86391577610E+02 0.  0.
         11    1    3    3    0    0  0.32168099790E+03 -0.52123078328E+02  0.44558042720E+02  0.32890864822E+03  0.00000000000E+00 0.  1.
        -11    1    3    3    0    0  0.64228266564E+02 -0.25288091972E+01  0.55925511565E+02  0.85201689805E+02  0.00000000000E+00 0. -1.
          4    1    6    6  502    0 -0.25137329127E+03 -0.73631124222E+02 -0.46913614651E+03  0.53730698672E+03  0.00000000000E+00 0. -1.
          3    1    5    5  503    0 -0.13517963273E+02  0.48031499948E+01  0.52766329930E+01  0.15285563015E+02  0.00000000000E+00 0. -1.
         -4    1    5    5    0  503  0.91438353053E+02  0.11166178919E+03  0.16342708140E+03  0.21803150806E+03  0.00000000000E+00 0.  1.
         -3    1    6    6    0  502 -0.21245636298E+03  0.11818072567E+02 -0.32431269122E+03  0.38788670343E+03  0.00000000000E+00 0.  1.
<mgrwt>
<rscale>  0 0.14826621E+04</rscale>
<asrwt>0</asrwt>
<pdfrwt beam="1">  1        2 0.16129867E+00 0.14826621E+04</pdfrwt>
<pdfrwt beam="2">  1       -2 0.80643041E-01 0.14826621E+04</pdfrwt>
<totfact> 0.30820727E+01</totfact>
</mgrwt>
</event>
<event>
12    1  0.1201209E-007  0.1516130E+04  0.7818608E-02  0.8873797E-01
          2   -1    0    0  501    0  0.00000000000E+00  0.00000000000E+00  0.10591210431E+04  0.10591210431E+04  0.00000000000E+00 0. -1.
         -2   -1    0    0    0  501 -0.00000000000E+00 -0.00000000000E+00 -0.54258474153E+03  0.54258474153E+03  0.00000000000E+00 0.  1.
         23    2    1    2    0    0 -0.18837422773E+03 -0.13394288943E+03 -0.28606723526E+03  0.37678664322E+03  0.81903382820E+02 0.  0.
        254    2    1    2    0    0  0.18837422773E+03  0.13394288943E+03  0.80260353687E+03  0.12249191415E+04  0.89600720890E+03 0.  0.
        -24    2    4    4    0    0  0.44145181665E+03 -0.36387564922E+02  0.10840718363E+03  0.46239526621E+03  0.76508192042E+02 0.  0.
         24    2    4    4    0    0 -0.25307758892E+03  0.17033045435E+03  0.69419635325E+03  0.76252387524E+03  0.80457154815E+02 0.  0.
         13    1    3    3    0    0 -0.85486302899E+02 -0.22142509198E+02 -0.14313828231E+03  0.16818670149E+03  0.00000000000E+00 0.  1.
        -13    1    3    3    0    0 -0.10288792483E+03 -0.11180038023E+03 -0.14292895295E+03  0.20859994172E+03  0.00000000000E+00 0. -1.
          2    1    6    6  502    0 -0.35382733364E+02  0.24028138550E+02  0.43739140080E+02  0.61175171740E+02  0.00000000000E+00 0. -1.
          1    1    5    5  503    0  0.31813980868E+02 -0.83754446976E+01 -0.11170560355E+02  0.34742752787E+02  0.00000000000E+00 0. -1.
         -2    1    5    5    0  503  0.40963783578E+03 -0.28012120224E+02  0.11957774398E+03  0.42765251343E+03  0.00000000000E+00 0.  1.
         -1    1    6    6    0  502 -0.21769485556E+03  0.14630231580E+03  0.65045721317E+03  0.70134870350E+03  0.00000000000E+00 0.  1.
<mgrwt>
<rscale>  0 0.15161305E+04</rscale>
<asrwt>0</asrwt>
<pdfrwt beam="1">  1        2 0.16294170E+00 0.15161305E+04</pdfrwt>
<pdfrwt beam="2">  1       -2 0.83474576E-01 0.15161305E+04</pdfrwt>
<totfact> 0.27997243E+01</totfact>
</mgrwt>
</event>
<event>
12    1  0.1201209E-007  0.1673115E+04  0.7818608E-02  0.8776848E-01
         -1   -1    0    0    0  501 -0.00000000000E+00  0.00000000000E+00  0.38109916840E+03  0.38109916840E+03  0.00000000000E+00 0.  1.
          1   -1    0    0  501    0  0.00000000000E+00 -0.00000000000E+00 -0.18363417414E+04  0.18363417414E+04  0.00000000000E+00 0. -1.
         23    2    1    2    0    0  0.45733186915E+03 -0.35986835123E+03 -0.37924430928E+03  0.70048977126E+03  0.90564920191E+02 0.  0.
        254    2    1    2    0    0 -0.45733186915E+03  0.35986835123E+03 -0.10759982638E+04  0.15169511386E+04  0.89705675653E+03 0.  0.
        -24    2    4    4    0    0  0.34069758650E+02  0.53084334011E+03 -0.47009116943E+03  0.71455286484E+03  0.81514961089E+02 0.  0.
         24    2    4    4    0    0 -0.49140162780E+03 -0.17097498888E+03 -0.60590709432E+03  0.80239827372E+03  0.77534354330E+02 0.  0.
         13    1    3    3    0    0  0.43254420000E+03 -0.30821042074E+03 -0.35087155941E+03  0.63655243273E+03  0.00000000000E+00 0.  1.
        -13    1    3    3    0    0  0.24787669146E+02 -0.51657930485E+02 -0.28372749868E+02  0.63937338533E+02  0.00000000000E+00 0. -1.
          2    1    6    6  502    0 -0.40883343121E+03 -0.11079025668E+03 -0.47745508270E+03  0.63826531431E+03  0.00000000000E+00 0. -1.
          1    1    5    5  503    0  0.56474920297E+02  0.43311640359E+03 -0.36391140465E+03  0.56851626724E+03  0.00000000000E+00 0. -1.
         -2    1    5    5    0  503 -0.22405161647E+02  0.97726936520E+02 -0.10617976478E+03  0.14603659760E+03  0.00000000000E+00 0.  1.
         -1    1    6    6    0  502 -0.82568196588E+02 -0.60184732200E+02 -0.12845201162E+03  0.16413295941E+03  0.00000000000E+00 0.  1.
<mgrwt>
<rscale>  0 0.16731148E+04</rscale>
<asrwt>0</asrwt>
<pdfrwt beam="1">  1        1 0.28251411E+00 0.16731148E+04</pdfrwt>
<pdfrwt beam="2">  1       -1 0.58630643E-01 0.16731148E+04</pdfrwt>
<totfact> 0.10822719E+01</totfact>
</mgrwt>
</event>
<event>
12    1  0.1201209E-007  0.2144205E+04  0.7818608E-02  0.8542017E-01
         -1   -1    0    0    0  501 -0.00000000000E+00  0.00000000000E+00  0.10610294837E+04  0.10610294837E+04  0.00000000000E+00 0.  1.
          1   -1    0    0  501    0  0.00000000000E+00 -0.00000000000E+00 -0.10832910875E+04  0.10832910875E+04  0.00000000000E+00 0. -1.
         23    2    1    2    0    0  0.64996604991E+02 -0.65754198954E+03  0.57290967889E+03  0.87928204896E+03  0.91243601330E+02 0.  0.
        254    2    1    2    0    0 -0.64996604991E+02  0.65754198954E+03 -0.59517128270E+03  0.12650385222E+04  0.89972639192E+03 0.  0.
        -24    2    4    4    0    0  0.28374395856E+03  0.45885018860E+03 -0.65313993389E+03  0.85097745354E+03  0.80726226118E+02 0.  0.
         24    2    4    4    0    0 -0.34874056355E+03  0.19869180094E+03  0.57968651198E+02  0.41406106869E+03  0.83593012019E+02 0.  0.
         11    1    3    3    0    0  0.42745894830E+02 -0.31244915456E+03  0.33151998600E+03  0.45755566527E+03  0.00000000000E+00 0. -1.
        -11    1    3    3    0    0  0.22250710161E+02 -0.34509283499E+03  0.24138969289E+03  0.42172638368E+03  0.00000000000E+00 0.  1.
          4    1    6    6  502    0 -0.34996950081E+03  0.18820428534E+03  0.63060314239E+02  0.40233830013E+03  0.00000000000E+00 0. -1.
          1    1    5    5  503    0  0.24887640638E+03  0.36212402901E+03 -0.49018893921E+03  0.65829968416E+03  0.00000000000E+00 0. -1.
         -2    1    5    5    0  503  0.34867552177E+02  0.96726159594E+02 -0.16295099468E+03  0.19267776938E+03  0.00000000000E+00 0.  1.
         -3    1    6    6    0  502  0.12289372619E+01  0.10487515600E+02 -0.50916630408E+01  0.11722768562E+02  0.00000000000E+00 0.  1.
<mgrwt>
<rscale>  0 0.21442050E+04</rscale>
<asrwt>0</asrwt>
<pdfrwt beam="1">  1        1 0.16666017E+00 0.21442050E+04</pdfrwt>
<pdfrwt beam="2">  1       -1 0.16323530E+00 0.21442050E+04</pdfrwt>
<totfact> 0.33039687E+00</totfact>
</mgrwt>
</event>
<event>
12    1  0.1201209E-007  0.1349821E+04  0.7818608E-02  0.8990964E-01
          1   -1    0    0  501    0  0.00000000000E+00  0.00000000000E+00  0.49627054807E+03  0.49627054807E+03  0.00000000000E+00 0. -1.
         -1   -1    0    0    0  501 -0.00000000000E+00 -0.00000000000E+00 -0.91785404560E+03  0.91785404560E+03  0.00000000000E+00 0.  1.
         23    2    1    2    0    0 -0.14966008617E+03  0.26786957903E+03  0.86939250875E+02  0.33091980869E+03  0.88301946052E+02 0.  0.
        254    2    1    2    0    0  0.14966008617E+03 -0.26786957903E+03 -0.50852274841E+03  0.10832047850E+04  0.90586145066E+03 0.  0.
        -24    2    4    4    0    0  0.62668655747E+02 -0.47024623283E+03 -0.65154611187E+03  0.80992720743E+03  0.80067880746E+02 0.  0.
         24    2    4    4    0    0  0.86991430426E+02  0.20237665380E+03  0.14302336346E+03  0.27327757755E+03  0.75505846965E+02 0.  0.
         13    1    3    3    0    0 -0.15750941865E+03  0.25130757407E+03  0.67440254127E+02  0.30415933592E+03  0.00000000000E+00 0. -1.
        -13    1    3    3    0    0  0.78493324819E+01  0.16562004966E+02  0.19498996748E+02  0.26760472774E+02  0.00000000000E+00 0.  1.
          4    1    6    6  502    0  0.90540575189E+02  0.19726350117E+03  0.15006839039E+03  0.26387687743E+03  0.00000000000E+00 0. -1.
          1    1    5    5  503    0  0.25414570491E+02 -0.39542159574E+03 -0.55943158405E+03  0.68554200163E+03  0.00000000000E+00 0. -1.
         -2    1    5    5    0  503  0.37254085256E+02 -0.74824637094E+02 -0.92114527826E+02  0.12438520580E+03  0.00000000000E+00 0.  1.
         -1    1    6    6    0  502 -0.35491447633E+01  0.51131526352E+01 -0.70450269265E+01  0.94007001238E+01  0.00000000000E+00 0.  1.
<mgrwt>
<rscale>  0 0.13498206E+04</rscale>
<asrwt>0</asrwt>
<pdfrwt beam="1">  1        1 0.76349315E-01 0.13498206E+04</pdfrwt>
<pdfrwt beam="2">  1       -1 0.14120831E+00 0.13498206E+04</pdfrwt>
<totfact> 0.17967422E+01</totfact>
</mgrwt>
</event>
<event>
12    1  0.1201209E-007  0.1360779E+04  0.7818608E-02  0.8982709E-01
          2   -1    0    0  501    0  0.00000000000E+00  0.00000000000E+00  0.96530274850E+03  0.96530274850E+03  0.00000000000E+00 0. -1.
         -2   -1    0    0    0  501 -0.00000000000E+00 -0.00000000000E+00 -0.47956932572E+03  0.47956932572E+03  0.00000000000E+00 0.  1.
         23    2    1    2    0    0  0.17507946432E+02 -0.20893254687E+03  0.46658304106E+03  0.51957864870E+03  0.91120253780E+02 0.  0.
        254    2    1    2    0    0 -0.17507946432E+02  0.20893254687E+03  0.19150381723E+02  0.92529342552E+03  0.90102266834E+03 0.  0.
        -24    2    4    4    0    0 -0.25729846677E+03  0.29254788132E+03  0.32974488144E+03  0.51654973046E+03  0.79405121615E+02 0.  0.
         24    2    4    4    0    0  0.23979052033E+03 -0.83615334442E+02 -0.31059449972E+03  0.40874369506E+03  0.78175745592E+02 0.  0.
         11    1    3    3    0    0  0.36356221819E+01 -0.48137160945E+02  0.37442627106E+02  0.61092997447E+02  0.00000000000E+00 0.  1.
        -11    1    3    3    0    0  0.13872324250E+02 -0.16079538593E+03  0.42914041395E+03  0.45848565125E+03  0.00000000000E+00 0. -1.
          2    1    6    6  502    0  0.16479635616E+03 -0.74674264213E+02 -0.16565594930E+03  0.24530792543E+03  0.00000000000E+00 0. -1.
          3    1    5    5  503    0 -0.22408585750E+03  0.20680111302E+03  0.23985519412E+03  0.38795835604E+03  0.00000000000E+00 0. -1.
         -4    1    5    5    0  503 -0.33212609266E+02  0.85746768300E+02  0.89889687319E+02  0.12859137442E+03  0.00000000000E+00 0.  1.
         -1    1    6    6    0  502  0.74994164170E+02 -0.89410702290E+01 -0.14493855042E+03  0.16343576963E+03  0.00000000000E+00 0.  1.
<mgrwt>
<rscale>  0 0.13607786E+04</rscale>
<asrwt>0</asrwt>
<pdfrwt beam="1">  1        2 0.14850811E+00 0.13607786E+04</pdfrwt>
<pdfrwt beam="2">  1       -2 0.73779896E-01 0.13607786E+04</pdfrwt>
<totfact> 0.42888253E+01</totfact>
</mgrwt>
</event>
<event>
12    1  0.1201209E-007  0.2513486E+04  0.7818608E-02  0.8398197E-01
          2   -1    0    0  501    0  0.00000000000E+00  0.00000000000E+00  0.21186047820E+04  0.21186047820E+04  0.00000000000E+00 0. -1.
         -2   -1    0    0    0  501 -0.00000000000E+00 -0.00000000000E+00 -0.74549200056E+03  0.74549200056E+03  0.00000000000E+00 0.  1.
         23    2    1    2    0    0  0.93313684845E+03  0.86356914563E+02 -0.42791512492E+02  0.94229921590E+03  0.88852710237E+02 0.  0.
        254    2    1    2    0    0 -0.93313684845E+03 -0.86356914563E+02  0.14159042939E+04  0.19217975667E+04  0.90017721757E+03 0.  0.
        -24    2    4    4    0    0 -0.90652780147E+03 -0.25975138323E+03  0.14449754123E+04  0.17273187530E+04  0.80079314072E+02 0.  0.
         24    2    4    4    0    0 -0.26609046986E+02  0.17339446867E+03 -0.29071118362E+02  0.19447881363E+03  0.78760369980E+02 0.  0.
         13    1    3    3    0    0  0.82115608505E+03  0.47010487672E+02 -0.42675049277E+02  0.82360698261E+03  0.00000000000E+00 0.  1.
        -13    1    3    3    0    0  0.11198076340E+03  0.39346426892E+02 -0.11646321565E+00  0.11869223330E+03  0.00000000000E+00 0. -1.
          2    1    6    6  502    0 -0.11824230399E+02  0.17564046456E+03 -0.20461817012E+02  0.17722322413E+03  0.00000000000E+00 0. -1.
          3    1    5    5  503    0 -0.73227498963E+03 -0.23454306899E+03  0.12112030293E+04  0.14346602002E+04  0.00000000000E+00 0. -1.
         -4    1    5    5    0  503 -0.17425281183E+03 -0.25208314246E+02  0.23377238296E+03  0.29265855288E+03  0.00000000000E+00 0.  1.
         -1    1    6    6    0  502 -0.14784816587E+02 -0.22459958919E+01 -0.86093013502E+01  0.17255589494E+02  0.00000000000E+00 0.  1.
<mgrwt>
<rscale>  0 0.25134860E+04</rscale>
<asrwt>0</asrwt>
<pdfrwt beam="1">  1        2 0.32593919E+00 0.25134860E+04</pdfrwt>
<pdfrwt beam="2">  1       -2 0.11469108E+00 0.25134860E+04</pdfrwt>
<totfact> 0.30332195E+00</totfact>
</mgrwt>
</event>
<event>
12    1  0.1201209E-007  0.2049985E+04  0.7818608E-02  0.8583601E-01
         -2   -1    0    0    0  501 -0.00000000000E+00  0.00000000000E+00  0.31534969486E+03  0.31534969486E+03  0.00000000000E+00 0.  1.
          2   -1    0    0  501    0  0.00000000000E+00 -0.00000000000E+00 -0.33315701862E+04  0.33315701862E+04  0.00000000000E+00 0. -1.
         23    2    1    2    0    0  0.82355067787E+03 -0.23220503818E+02 -0.12152827994E+04  0.14710638848E+04  0.91333236110E+02 0.  0.
        254    2    1    2    0    0 -0.82355067787E+03  0.23220503818E+02 -0.18009376920E+04  0.21758559963E+04  0.90122019236E+03 0.  0.
        -24    2    4    4    0    0 -0.30215390689E+03  0.27832522595E+03 -0.14117487381E+04  0.14725237474E+04  0.80807006601E+02 0.  0.
         24    2    4    4    0    0 -0.52139677098E+03 -0.25510472213E+03 -0.38918895389E+03  0.70333224882E+03  0.79216149595E+02 0.  0.
         11    1    3    3    0    0  0.49718552082E+01 -0.86908898180E+01 -0.18564919853E+02  0.21092822457E+02  0.00000000000E+00 0.  1.
        -11    1    3    3    0    0  0.81857882266E+03 -0.14529614000E+02 -0.11967178795E+04  0.14499710624E+04  0.00000000000E+00 0. -1.
          4    1    6    6  502    0 -0.88503025312E+02 -0.37795447988E+02 -0.31707299344E+02  0.10132440086E+03  0.00000000000E+00 0. -1.
          3    1    5    5  503    0 -0.99802276477E+02  0.14599373727E+03 -0.58499662415E+03  0.61114295871E+03  0.00000000000E+00 0. -1.
         -4    1    5    5    0  503 -0.20235163041E+03  0.13233148868E+03 -0.82675211398E+03  0.86138078873E+03  0.00000000000E+00 0.  1.
         -3    1    6    6    0  502 -0.43289374567E+03 -0.21730927414E+03 -0.35748165454E+03  0.60200784796E+03  0.00000000000E+00 0.  1.
<mgrwt>
<rscale>  0 0.20499850E+04</rscale>
<asrwt>0</asrwt>
<pdfrwt beam="1">  1        2 0.51254927E+00 0.20499850E+04</pdfrwt>
<pdfrwt beam="2">  1       -2 0.48515337E-01 0.20499850E+04</pdfrwt>
<totfact> 0.39655612E+00</totfact>
</mgrwt>
</event>
<event>
12    1  0.1201209E-007  0.1567136E+04  0.7818608E-02  0.8840996E-01
          2   -1    0    0  501    0  0.00000000000E+00  0.00000000000E+00  0.21715536360E+04  0.21715536360E+04  0.00000000000E+00 0. -1.
         -2   -1    0    0    0  501 -0.00000000000E+00 -0.00000000000E+00 -0.28273728580E+03  0.28273728580E+03  0.00000000000E+00 0.  1.
         23    2    1    2    0    0  0.36397006653E+03 -0.27775820134E+03  0.24301768726E+03  0.52641806130E+03  0.91839812744E+02 0.  0.
        254    2    1    2    0    0 -0.36397006653E+03  0.27775820134E+03  0.16457986629E+04  0.19278728605E+04  0.89354166080E+03 0.  0.
        -24    2    4    4    0    0 -0.10197654976E+03 -0.79855598590E+02  0.14122048732E+04  0.14202345571E+04  0.77249336538E+02 0.  0.
         24    2    4    4    0    0 -0.26199351676E+03  0.35761379993E+03  0.23359378970E+03  0.50763830335E+03  0.81254881193E+02 0.  0.
         13    1    3    3    0    0  0.33890774033E+03 -0.23459558587E+03  0.23872503815E+03  0.47632256844E+03  0.00000000000E+00 0.  1.
        -13    1    3    3    0    0  0.25062326194E+02 -0.43162615464E+02  0.42926491027E+01  0.50095492854E+02  0.00000000000E+00 0. -1.
          2    1    6    6  502    0 -0.16771544130E+03  0.25577850083E+03  0.12097810386E+03  0.32891763764E+03  0.00000000000E+00 0. -1.
          3    1    5    5  503    0 -0.10886041050E+03 -0.80060688576E+02  0.11458254190E+04  0.11537660914E+04  0.00000000000E+00 0. -1.
         -4    1    5    5    0  503  0.68838607388E+01  0.20508998602E+00  0.26637945418E+03  0.26646846569E+03  0.00000000000E+00 0.  1.
         -1    1    6    6    0  502 -0.94278075461E+02  0.10183529910E+03  0.11261568583E+03  0.17872066570E+03  0.00000000000E+00 0.  1.
<mgrwt>
<rscale>  0 0.15671365E+04</rscale>
<asrwt>0</asrwt>
<pdfrwt beam="1">  1        2 0.33408516E+00 0.15671365E+04</pdfrwt>
<pdfrwt beam="2">  1       -2 0.43498046E-01 0.15671365E+04</pdfrwt>
<totfact> 0.25831396E+01</totfact>
</mgrwt>
</event>
<event>
12    1  0.1201209E-007  0.1894661E+04  0.7818608E-02  0.8657519E-01
          1   -1    0    0  501    0  0.00000000000E+00  0.00000000000E+00  0.20411153276E+04  0.20411153276E+04  0.00000000000E+00 0. -1.
         -1   -1    0    0    0  501 -0.00000000000E+00 -0.00000000000E+00 -0.43967875501E+03  0.43967875501E+03  0.00000000000E+00 0.  1.
         23    2    1    2    0    0 -0.15447171018E+03  0.43471540631E+03 -0.12382799700E+03  0.48596663958E+03  0.89393557999E+02 0.  0.
        254    2    1    2    0    0  0.15447171018E+03 -0.43471540631E+03  0.17252645696E+04  0.19948274430E+04  0.88879677015E+03 0.  0.
        -24    2    4    4    0    0  0.20089881524E+02 -0.29105961650E+03  0.50710090390E+02  0.30691937119E+03  0.80676411952E+02 0.  0.
         24    2    4    4    0    0  0.13438182866E+03 -0.14365578980E+03  0.16745544792E+04  0.16879080718E+04  0.78774953832E+02 0.  0.
         11    1    3    3    0    0 -0.11008409014E+03  0.26926336396E+03 -0.34978171514E+02  0.29299272781E+03  0.00000000000E+00 0.  1.
        -11    1    3    3    0    0 -0.44387620048E+02  0.16545204235E+03 -0.88849825484E+02  0.19297391176E+03  0.00000000000E+00 0. -1.
          2    1    6    6  502    0  0.46917196183E+02 -0.80829805302E+02  0.10486826770E+04  0.10528390370E+04  0.00000000000E+00 0. -1.
          3    1    5    5  503    0  0.12543122789E+02 -0.22813001756E+02 -0.15792142376E+02  0.30449215741E+02  0.00000000000E+00 0. -1.
         -4    1    5    5    0  503  0.75467587347E+01 -0.26824661475E+03  0.66502232767E+02  0.27647015545E+03  0.00000000000E+00 0.  1.
         -1    1    6    6    0  502  0.87464632477E+02 -0.62825984502E+02  0.62587180218E+03  0.63506903485E+03  0.00000000000E+00 0.  1.
<mgrwt>
<rscale>  0 0.18946610E+04</rscale>
<asrwt>0</asrwt>
<pdfrwt beam="1">  1        1 0.31401774E+00 0.18946610E+04</pdfrwt>
<pdfrwt beam="2">  1       -1 0.67642887E-01 0.18946610E+04</pdfrwt>
<totfact> 0.57893763E+00</totfact>
</mgrwt>
</event>
<event>
12    1  0.1201209E-007  0.1350136E+04  0.7818608E-02  0.8990725E-01
          1   -1    0    0  501    0  0.00000000000E+00  0.00000000000E+00  0.28500322665E+04  0.28500322665E+04  0.00000000000E+00 0. -1.
         -1   -1    0    0    0  501 -0.00000000000E+00 -0.00000000000E+00 -0.15989893814E+03  0.15989893814E+03  0.00000000000E+00 0.  1.
         23    2    1    2    0    0 -0.32782645375E+03  0.43509037814E+02  0.10941916451E+04  0.11465775818E+04  0.89563244081E+02 0.  0.
        254    2    1    2    0    0  0.32782645375E+03 -0.43509037814E+02  0.15959416833E+04  0.18633536229E+04  0.90315759825E+03 0.  0.
        -24    2    4    4    0    0  0.61289976579E+03  0.56086144742E+02  0.83270445708E+03  0.10385658396E+04  0.80190471585E+02 0.  0.
         24    2    4    4    0    0 -0.28507331203E+03 -0.99595182556E+02  0.76323722621E+03  0.82478778332E+03  0.80980432285E+02 0.  0.
         11    1    3    3    0    0 -0.22978342055E+03  0.39756112984E+02  0.88989000172E+03  0.91993759791E+03  0.00000000000E+00 0. -1.
        -11    1    3    3    0    0 -0.98043033200E+02  0.37529248298E+01  0.20430164337E+03  0.22663998387E+03  0.00000000000E+00 0.  1.
          2    1    6    6  502    0 -0.26674639875E+03 -0.11306173692E+03  0.71457948671E+03  0.77107745424E+03  0.00000000000E+00 0. -1.
          3    1    5    5  503    0  0.20143059542E+03 -0.43113625656E+01  0.22304982036E+03  0.30057294452E+03  0.00000000000E+00 0. -1.
         -4    1    5    5    0  503  0.41146917037E+03  0.60397507307E+02  0.60965463672E+03  0.73799289504E+03  0.00000000000E+00 0.  1.
         -1    1    6    6    0  502 -0.18326913280E+02  0.13466554362E+02  0.48657739500E+02  0.53710329081E+02  0.00000000000E+00 0.  1.
<mgrwt>
<rscale>  0 0.13501365E+04</rscale>
<asrwt>0</asrwt>
<pdfrwt beam="1">  1        1 0.43846647E+00 0.13501365E+04</pdfrwt>
<pdfrwt beam="2">  1       -1 0.24599839E-01 0.13501365E+04</pdfrwt>
<totfact> 0.10896433E+01</totfact>
</mgrwt>
</event>
<event>
12    1  0.1201209E-007  0.1887628E+04  0.7818608E-02  0.8661039E-01
         -1   -1    0    0    0  501 -0.00000000000E+00  0.00000000000E+00  0.34554404677E+03  0.34554404677E+03  0.00000000000E+00 0.  1.
          1   -1    0    0  501    0  0.00000000000E+00 -0.00000000000E+00 -0.25779206664E+04  0.25779206664E+04  0.00000000000E+00 0. -1.
         23    2    1    2    0    0  0.19367813721E+03  0.21618323491E+03  0.16504315360E+03  0.34879330559E+03  0.10085194883E+03 0.  0.
        254    2    1    2    0    0 -0.19367813721E+03 -0.21618323491E+03 -0.23974197732E+04  0.25746714075E+04  0.89278489911E+03 0.  0.
        -24    2    4    4    0    0 -0.15595940358E+03 -0.55741157044E+03 -0.15385970451E+04  0.16459391946E+04  0.82486185058E+02 0.  0.
         24    2    4    4    0    0 -0.37718733628E+02  0.34122833553E+03 -0.85882272805E+03  0.92873221291E+03  0.84306377235E+02 0.  0.
         13    1    3    3    0    0  0.85689046953E+02  0.32299547027E+02  0.70294429039E+02  0.11544340717E+03  0.00000000000E+00 0. -1.
        -13    1    3    3    0    0  0.10798909026E+03  0.18388368789E+03  0.94748724557E+02  0.23334989841E+03  0.00000000000E+00 0.  1.
          4    1    6    6  502    0 -0.12061668847E+02  0.38157296087E+02 -0.46581179857E+02  0.61410662078E+02  0.00000000000E+00 0. -1.
          3    1    5    5  503    0 -0.74041111063E+02 -0.18241067102E+03 -0.61551174024E+03  0.64622785564E+03  0.00000000000E+00 0. -1.
         -4    1    5    5    0  503 -0.81918292520E+02 -0.37500089942E+03 -0.92308530489E+03  0.99971133900E+03  0.00000000000E+00 0.  1.
         -3    1    6    6    0  502 -0.25657064781E+02  0.30307103944E+03 -0.81224154820E+03  0.86732155083E+03  0.00000000000E+00 0.  1.
<mgrwt>
<rscale>  0 0.18876283E+04</rscale>
<asrwt>0</asrwt>
<pdfrwt beam="1">  1        1 0.39660319E+00 0.18876283E+04</pdfrwt>
<pdfrwt beam="2">  1       -1 0.53160621E-01 0.18876283E+04</pdfrwt>
<totfact> 0.40001155E+00</totfact>
</mgrwt>
</event>
<event>
12    1  0.1201209E-007  0.2314410E+04  0.7818608E-02  0.8472261E-01
          1   -1    0    0  501    0  0.00000000000E+00  0.00000000000E+00  0.18623413477E+04  0.18623413477E+04  0.00000000000E+00 0. -1.
         -1   -1    0    0    0  501 -0.00000000000E+00 -0.00000000000E+00 -0.71905355812E+03  0.71905355812E+03  0.00000000000E+00 0.  1.
         23    2    1    2    0    0  0.75196942838E+03  0.14858600792E+03 -0.20168687652E+03  0.79830888908E+03  0.95308253854E+02 0.  0.
        254    2    1    2    0    0 -0.75196942838E+03 -0.14858600792E+03  0.13449746661E+04  0.17830860167E+04  0.88481809863E+03 0.  0.
        -24    2    4    4    0    0 -0.38881811954E+03 -0.11864721022E+03  0.29602226738E+02  0.41558546398E+03  0.81106691857E+02 0.  0.
         24    2    4    4    0    0 -0.36315130884E+03 -0.29938797703E+02  0.13153724394E+04  0.13675005528E+04  0.84130273092E+02 0.  0.
         13    1    3    3    0    0  0.87798866077E+02  0.22425605879E+02  0.67246631101E+01  0.90866769379E+02  0.00000000000E+00 0. -1.
        -13    1    3    3    0    0  0.66417056231E+03  0.12616040205E+03 -0.20841153963E+03  0.70744211970E+03  0.00000000000E+00 0.  1.
          4    1    6    6  502    0 -0.73983070796E+02 -0.14833242290E+02  0.16823532227E+03  0.18438178734E+03  0.00000000000E+00 0. -1.
          3    1    5    5  503    0 -0.23306575973E+02 -0.27752547527E+02  0.13249366462E+02  0.38586864209E+02  0.00000000000E+00 0. -1.
         -4    1    5    5    0  503 -0.36551154357E+03 -0.90894662694E+02  0.16352860275E+02  0.37699859977E+03  0.00000000000E+00 0.  1.
         -3    1    6    6    0  502 -0.28916823805E+03 -0.15105555413E+02  0.11471371171E+04  0.11831187654E+04  0.00000000000E+00 0.  1.
<mgrwt>
<rscale>  0 0.23144098E+04</rscale>
<asrwt>0</asrwt>
<pdfrwt beam="1">  1        1 0.28651405E+00 0.23144098E+04</pdfrwt>
<pdfrwt beam="2">  1       -1 0.11062362E+00 0.23144098E+04</pdfrwt>
<totfact> 0.25117632E+00</totfact>
</mgrwt>
</event>
<event>
12    1  0.1201209E-007  0.1568504E+04  0.7818608E-02  0.8840134E-01
         -2   -1    0    0    0  501 -0.00000000000E+00  0.00000000000E+00  0.40157510379E+03  0.40157510379E+03  0.00000000000E+00 0.  1.
          2   -1    0    0  501    0  0.00000000000E+00 -0.00000000000E+00 -0.15315973965E+04  0.15315973965E+04  0.00000000000E+00 0. -1.
         23    2    1    2    0    0  0.46542875665E+03 -0.31305851847E+03 -0.35094218444E+03  0.66780800072E+03  0.90429782111E+02 0.  0.
        254    2    1    2    0    0 -0.46542875665E+03  0.31305851847E+03 -0.77908010821E+03  0.12653644995E+04  0.82434940296E+03 0.  0.
        -24    2    4    4    0    0 -0.67785096667E+03  0.34536987127E+03 -0.65169178936E+03  0.10049590298E+04  0.80487156482E+02 0.  0.
         24    2    4    4    0    0  0.21242221002E+03 -0.32311352799E+02 -0.12738831885E+03  0.26040546969E+03  0.73593518965E+02 0.  0.
         13    1    3    3    0    0  0.21789080153E+03 -0.19061212140E+03 -0.21082430280E+03  0.35812884395E+03  0.00000000000E+00 0. -1.
        -13    1    3    3    0    0  0.24753795511E+03 -0.12244639707E+03 -0.14011788165E+03  0.30967915677E+03  0.00000000000E+00 0.  1.
          2    1    6    6  502    0  0.12048982811E+02 -0.11071054243E+02 -0.35209335851E+02  0.38825810486E+02  0.00000000000E+00 0. -1.
          3    1    5    5  503    0 -0.17173841545E+02  0.24000844161E+02 -0.34738768921E+02  0.45582490278E+02  0.00000000000E+00 0. -1.
         -4    1    5    5    0  503 -0.66067712512E+03  0.32136902711E+03 -0.61695302044E+03  0.95937653957E+03  0.00000000000E+00 0.  1.
         -1    1    6    6    0  502  0.20037322721E+03 -0.21240298556E+02 -0.92178983004E+02  0.22157965920E+03  0.00000000000E+00 0.  1.
<mgrwt>
<rscale>  0 0.15685042E+04</rscale>
<asrwt>0</asrwt>
<pdfrwt beam="1">  1        2 0.23563037E+00 0.15685042E+04</pdfrwt>
<pdfrwt beam="2">  1       -2 0.61780786E-01 0.15685042E+04</pdfrwt>
<totfact> 0.28500587E+01</totfact>
</mgrwt>
</event>
<event>
12    1  0.1201209E-007  0.1851897E+04  0.7818608E-02  0.8679178E-01
          2   -1    0    0  501    0  0.00000000000E+00  0.00000000000E+00  0.19958821819E+04  0.19958821819E+04  0.00000000000E+00 0. -1.
         -2   -1    0    0    0  501 -0.00000000000E+00 -0.00000000000E+00 -0.42957472944E+03  0.42957472944E+03  0.00000000000E+00 0.  1.
         23    2    1    2    0    0  0.47775762787E+03 -0.49271831635E+03  0.81298821960E+03  0.10667876103E+04  0.77860580452E+02 0.  0.
        254    2    1    2    0    0 -0.47775762787E+03  0.49271831635E+03  0.75331923289E+03  0.13586693011E+04  0.89859262897E+03 0.  0.
        -24    2    4    4    0    0  0.11091861173E+03 -0.17584671194E+03  0.23986089702E+03  0.32742626077E+03  0.80310035450E+02 0.  0.
         24    2    4    4    0    0 -0.58867623960E+03  0.66856502829E+03  0.51345833587E+03  0.10312430403E+04  0.79396683986E+02 0.  0.
         11    1    3    3    0    0  0.47577984562E+03 -0.47872041619E+03  0.80515462150E+03  0.10506253675E+04  0.00000000000E+00 0. -1.
        -11    1    3    3    0    0  0.19777822473E+01 -0.13997900160E+02  0.78335980961E+01  0.16162242748E+02  0.00000000000E+00 0.  1.
          4    1    6    6  502    0 -0.38080313039E+03  0.38808736289E+03  0.28331976087E+03  0.61310106202E+03  0.00000000000E+00 0. -1.
          1    1    5    5  503    0  0.87400404381E+02 -0.63774535187E+02  0.11013051653E+03  0.15438507925E+03  0.00000000000E+00 0. -1.
         -2    1    5    5    0  503  0.23518207348E+02 -0.11207217675E+03  0.12973038049E+03  0.17304118152E+03  0.00000000000E+00 0.  1.
         -3    1    6    6    0  502 -0.20787310921E+03  0.28047766539E+03  0.23013857500E+03  0.41814197830E+03  0.00000000000E+00 0.  1.
<mgrwt>
<rscale>  0 0.18518969E+04</rscale>
<asrwt>0</asrwt>
<pdfrwt beam="1">  1        2 0.30705879E+00 0.18518969E+04</pdfrwt>
<pdfrwt beam="2">  1       -2 0.66088421E-01 0.18518969E+04</pdfrwt>
<totfact> 0.13300356E+01</totfact>
</mgrwt>
</event>
<event>
12    1  0.1201209E-007  0.1628398E+04  0.7818608E-02  0.8803289E-01
          1   -1    0    0  501    0  0.00000000000E+00  0.00000000000E+00  0.11428753642E+04  0.11428753642E+04  0.00000000000E+00 0. -1.
         -1   -1    0    0    0  501 -0.00000000000E+00 -0.00000000000E+00 -0.58004601643E+03  0.58004601643E+03  0.00000000000E+00 0.  1.
         23    2    1    2    0    0 -0.55693699932E+03 -0.42404418543E+01  0.28294174334E+03  0.63138622718E+03  0.91628244512E+02 0.  0.
        254    2    1    2    0    0  0.55693699932E+03  0.42404418543E+01  0.27988760439E+03  0.10915351534E+04  0.89605530937E+03 0.  0.
        -24    2    4    4    0    0 -0.58067086224E+02  0.17635480996E+03  0.38940560235E+03  0.43867940684E+03  0.79561883734E+02 0.  0.
         24    2    4    4    0    0  0.61500408554E+03 -0.17211436811E+03 -0.10951799796E+03  0.65285574656E+03  0.79831403595E+02 0.  0.
         11    1    3    3    0    0 -0.40894919691E+03  0.37372459624E+02  0.20994458768E+03  0.46120806182E+03  0.00000000000E+00 0. -1.
        -11    1    3    3    0    0 -0.14798780241E+03 -0.41612901478E+02  0.72997155658E+02  0.17017816536E+03  0.00000000000E+00 0.  1.
          4    1    6    6  502    0  0.10199260951E+03 -0.53695459488E+02 -0.90062725740E+00  0.11526710673E+03  0.00000000000E+00 0. -1.
          1    1    5    5  503    0 -0.39687789971E+02  0.13368815458E+03  0.20106134292E+03  0.24469022655E+03  0.00000000000E+00 0. -1.
         -2    1    5    5    0  503 -0.18379296253E+02  0.42666655380E+02  0.18834425942E+03  0.19398918029E+03  0.00000000000E+00 0.  1.
         -3    1    6    6    0  502  0.51301147603E+03 -0.11841890862E+03 -0.10861737070E+03  0.53758863984E+03  0.00000000000E+00 0.  1.
<mgrwt>
<rscale>  0 0.16283984E+04</rscale>
<asrwt>0</asrwt>
<pdfrwt beam="1">  1        1 0.17582698E+00 0.16283984E+04</pdfrwt>
<pdfrwt beam="2">  1       -1 0.89237849E-01 0.16283984E+04</pdfrwt>
<totfact> 0.13876117E+01</totfact>
</mgrwt>
</event>
<event>
12    1  0.1201209E-007  0.2542057E+04  0.7818608E-02  0.8388154E-01
         -2   -1    0    0    0  501 -0.00000000000E+00  0.00000000000E+00  0.48867484705E+03  0.48867484705E+03  0.00000000000E+00 0.  1.
          2   -1    0    0  501    0  0.00000000000E+00 -0.00000000000E+00 -0.33059060557E+04  0.33059060557E+04  0.00000000000E+00 0. -1.
         23    2    1    2    0    0  0.20198807245E+03 -0.36303376446E+03  0.30090894981E+03  0.52078628937E+03  0.89885858568E+02 0.  0.
        254    2    1    2    0    0 -0.20198807245E+03  0.36303376446E+03 -0.31181401585E+04  0.32737946134E+04  0.90682987781E+03 0.  0.
        -24    2    4    4    0    0 -0.50652910831E+03  0.40759494595E+03 -0.17353647143E+04  0.18549627528E+04  0.81796975095E+02 0.  0.
         24    2    4    4    0    0  0.30454103586E+03 -0.44561181490E+02 -0.13827754442E+04  0.14188318607E+04  0.79277854396E+02 0.  0.
         13    1    3    3    0    0  0.20752434721E+03 -0.36014574886E+03  0.30280685131E+03  0.51425995790E+03  0.00000000000E+00 0.  1.
        -13    1    3    3    0    0 -0.55362747578E+01 -0.28880156050E+01 -0.18979014990E+01  0.65263314679E+01  0.00000000000E+00 0. -1.
          4    1    6    6  502    0  0.25941125555E+03 -0.66179988659E+02 -0.11756081781E+04  0.12057066719E+04  0.00000000000E+00 0. -1.
          3    1    5    5  503    0 -0.39444298734E+03  0.29845285132E+03 -0.14024827580E+04  0.14871507191E+04  0.00000000000E+00 0. -1.
         -4    1    5    5    0  503 -0.11208612097E+03  0.10914209463E+03 -0.33288195621E+03  0.36781203366E+03  0.00000000000E+00 0.  1.
         -3    1    6    6    0  502  0.45129780310E+02  0.21618807169E+02 -0.20716726616E+03  0.21312518871E+03  0.00000000000E+00 0.  1.
<mgrwt>
<rscale>  0 0.25420568E+04</rscale>
<asrwt>0</asrwt>
<pdfrwt beam="1">  1        2 0.50860093E+00 0.25420568E+04</pdfrwt>
<pdfrwt beam="2">  1       -2 0.75180746E-01 0.25420568E+04</pdfrwt>
<totfact> 0.15590494E+00</totfact>
</mgrwt>
</event>
<event>
12    1  0.1201209E-007  0.1040701E+04  0.7818608E-02  0.9264998E-01
         -1   -1    0    0    0  501 -0.00000000000E+00  0.00000000000E+00  0.21945269455E+03  0.21945269455E+03  0.00000000000E+00 0.  1.
          1   -1    0    0  501    0  0.00000000000E+00 -0.00000000000E+00 -0.12338172592E+04  0.12338172592E+04  0.00000000000E+00 0. -1.
         23    2    1    2    0    0 -0.35909108426E+02 -0.50693360674E+02 -0.23938056187E+03  0.26419237732E+03  0.92926196252E+02 0.  0.
        254    2    1    2    0    0  0.35909108426E+02  0.50693360674E+02 -0.77498400274E+03  0.11890775764E+04  0.89969216807E+03 0.  0.
        -24    2    4    4    0    0 -0.22928438083E+03 -0.15139567371E+03  0.54351339938E+02  0.29162946886E+03  0.81250856263E+02 0.  0.
         24    2    4    4    0    0  0.26519348926E+03  0.20208903439E+03 -0.82933534268E+03  0.89744810753E+03  0.80302120272E+02 0.  0.
         11    1    3    3    0    0 -0.52376542039E+02  0.32679072513E+01 -0.85793238841E+02  0.10057067766E+03  0.00000000000E+00 0. -1.
        -11    1    3    3    0    0  0.16467433613E+02 -0.53961267926E+02 -0.15358732303E+03  0.16362169966E+03  0.00000000000E+00 0.  1.
          4    1    6    6  502    0  0.39143595495E+01 -0.70207303978E+01 -0.14731654562E+02  0.16781969853E+02  0.00000000000E+00 0. -1.
          3    1    5    5  503    0 -0.23096033621E+03 -0.13224737364E+03  0.57137290342E+02  0.27220711726E+03  0.00000000000E+00 0. -1.
         -4    1    5    5    0  503  0.16759553809E+01 -0.19148300077E+02 -0.27859504031E+01  0.19422351607E+02  0.00000000000E+00 0.  1.
         -3    1    6    6    0  502  0.26127912971E+03  0.20910976479E+03 -0.81460368812E+03  0.88066613767E+03  0.00000000000E+00 0.  1.
<mgrwt>
<rscale>  0 0.10407008E+04</rscale>
<asrwt>0</asrwt>
<pdfrwt beam="1">  1        1 0.18981804E+00 0.10407008E+04</pdfrwt>
<pdfrwt beam="2">  1       -1 0.33761953E-01 0.10407008E+04</pdfrwt>
<totfact> 0.83500646E+01</totfact>
</mgrwt>
</event>
<event>
12    1  0.1201209E-007  0.1835947E+04  0.7818608E-02  0.8687413E-01
         -1   -1    0    0    0  501 -0.00000000000E+00  0.00000000000E+00  0.53785535685E+03  0.53785535685E+03  0.00000000000E+00 0.  1.
          1   -1    0    0  501    0  0.00000000000E+00 -0.00000000000E+00 -0.15667321957E+04  0.15667321957E+04  0.00000000000E+00 0. -1.
         23    2    1    2    0    0  0.40557588678E+03 -0.17709956645E+03  0.21762025140E+03  0.50249488889E+03  0.96366400622E+02 0.  0.
        254    2    1    2    0    0 -0.40557588678E+03  0.17709956645E+03 -0.12464970903E+04  0.16020926637E+04  0.90393022441E+03 0.  0.
        -24    2    4    4    0    0 -0.20423413556E+02  0.20861706073E+02 -0.11688489696E+04  0.11715111056E+04  0.73335054933E+02 0.  0.
         24    2    4    4    0    0 -0.38515247323E+03  0.15623786037E+03 -0.77648120697E+02  0.43058155808E+03  0.81354476613E+02 0.  0.
         13    1    3    3    0    0  0.20278126102E+03 -0.10690231949E+03  0.62192316017E+02  0.23752100939E+03  0.00000000000E+00 0.  1.
        -13    1    3    3    0    0  0.20279462576E+03 -0.70197246960E+02  0.15542793538E+03  0.26497387950E+03  0.00000000000E+00 0. -1.
          4    1    6    6  502    0 -0.35517264912E+03  0.12254182525E+03 -0.84113042776E+02  0.38501832889E+03  0.00000000000E+00 0. -1.
          3    1    5    5  503    0 -0.23371473424E+02  0.25559582657E+02 -0.11627565898E+04  0.11632722833E+04  0.00000000000E+00 0. -1.
         -2    1    5    5    0  503  0.29480598675E+01 -0.46978765840E+01 -0.60923798124E+01  0.82388223163E+01  0.00000000000E+00 0.  1.
         -3    1    6    6    0  502 -0.29979824109E+02  0.33696035126E+02  0.64649220786E+01  0.45563229191E+02  0.00000000000E+00 0.  1.
<mgrwt>
<rscale>  0 0.18359470E+04</rscale>
<asrwt>0</asrwt>
<pdfrwt beam="1">  1        1 0.24103572E+00 0.18359470E+04</pdfrwt>
<pdfrwt beam="2">  1       -1 0.82746978E-01 0.18359470E+04</pdfrwt>
<totfact> 0.80285874E+00</totfact>
</mgrwt>
</event>
<event>
12    1  0.1201209E-007  0.2186008E+04  0.7818608E-02  0.8524275E-01
          2   -1    0    0  501    0  0.00000000000E+00  0.00000000000E+00  0.18959301443E+04  0.18959301443E+04  0.00000000000E+00 0. -1.
         -2   -1    0    0    0  501 -0.00000000000E+00 -0.00000000000E+00 -0.63011686921E+03  0.63011686921E+03  0.00000000000E+00 0.  1.
         23    2    1    2    0    0  0.92005342097E+02  0.41893177057E+03 -0.40159123394E+03  0.59442116538E+03  0.89956607911E+02 0.  0.
        254    2    1    2    0    0 -0.92005342097E+02 -0.41893177057E+03  0.16674045090E+04  0.19316258481E+04  0.87576926703E+03 0.  0.
        -24    2    4    4    0    0  0.28251653720E+03 -0.21637923579E+03  0.13350402727E+04  0.13840184090E+04  0.80863213294E+02 0.  0.
         24    2    4    4    0    0 -0.37452187929E+03 -0.20255253478E+03  0.33236423633E+03  0.54760743913E+03  0.90076380840E+02 0.  0.
         13    1    3    3    0    0  0.10260685176E+03  0.40699835479E+03 -0.39716954388E+03  0.57785765843E+03  0.00000000000E+00 0.  1.
        -13    1    3    3    0    0 -0.10601509660E+02  0.11933415781E+02 -0.44216900608E+01  0.16563506943E+02  0.00000000000E+00 0. -1.
          4    1    6    6  502    0 -0.18039469013E+03 -0.13624737645E+03  0.21112295016E+03  0.30931940110E+03  0.00000000000E+00 0. -1.
          3    1    5    5  503    0  0.84359794624E+02 -0.25468250857E+02  0.38338401468E+03  0.39338087074E+03  0.00000000000E+00 0. -1.
         -4    1    5    5    0  503  0.19815674257E+03 -0.19091098493E+03  0.95165625800E+03  0.99063753824E+03  0.00000000000E+00 0.  1.
         -3    1    6    6    0  502 -0.19412718916E+03 -0.66305158331E+02  0.12124128617E+03  0.23828803802E+03  0.00000000000E+00 0.  1.
<mgrwt>
<rscale>  0 0.21860078E+04</rscale>
<asrwt>0</asrwt>
<pdfrwt beam="1">  1        2 0.29168156E+00 0.21860078E+04</pdfrwt>
<pdfrwt beam="2">  1       -2 0.96941057E-01 0.21860078E+04</pdfrwt>
<totfact> 0.62082335E+00</totfact>
</mgrwt>
</event>
<event>
12    1  0.1201209E-007  0.1563561E+04  0.7818608E-02  0.8843252E-01
          2   -1    0    0  501    0  0.00000000000E+00  0.00000000000E+00  0.11527784055E+04  0.11527784055E+04  0.00000000000E+00 0. -1.
         -2   -1    0    0    0  501 -0.00000000000E+00 -0.00000000000E+00 -0.53018048986E+03  0.53018048986E+03  0.00000000000E+00 0.  1.
         23    2    1    2    0    0  0.10706476639E+03 -0.17051507695E+02 -0.33236563062E+03  0.36298831343E+03  0.97672847553E+02 0.  0.
        254    2    1    2    0    0 -0.10706476639E+03  0.17051507695E+02  0.95496354631E+03  0.13199705820E+04  0.90477253737E+03 0.  0.
        -24    2    4    4    0    0 -0.46936186461E+02  0.41671624383E+03  0.74157772998E+03  0.85566377230E+03  0.79796792812E+02 0.  0.
         24    2    4    4    0    0 -0.60128579931E+02 -0.39966473613E+03  0.21338581632E+03  0.46430680967E+03  0.81853280121E+02 0.  0.
         13    1    3    3    0    0  0.27310622366E+02  0.19530110792E+02 -0.21246630690E+02  0.39733042134E+02  0.00000000000E+00 0. -1.
        -13    1    3    3    0    0  0.79754144026E+02 -0.36581618486E+02 -0.31111899993E+03  0.32325527130E+03  0.00000000000E+00 0.  1.
          2    1    6    6  502    0 -0.14877883413E+02 -0.17079858824E+03  0.47048457816E+02  0.17778376344E+03  0.00000000000E+00 0. -1.
          1    1    5    5  503    0 -0.62596764539E+02  0.23139743580E+03  0.44889490824E+03  0.50889072193E+03  0.00000000000E+00 0. -1.
         -2    1    5    5    0  503  0.15660578078E+02  0.18531880803E+03  0.29268282175E+03  0.34677305037E+03  0.00000000000E+00 0.  1.
         -1    1    6    6    0  502 -0.45250696518E+02 -0.22886614789E+03  0.16633735851E+03  0.28652304623E+03  0.00000000000E+00 0.  1.
<mgrwt>
<rscale>  0 0.15635608E+04</rscale>
<asrwt>0</asrwt>
<pdfrwt beam="1">  1        2 0.17735052E+00 0.15635608E+04</pdfrwt>
<pdfrwt beam="2">  1       -2 0.81566229E-01 0.15635608E+04</pdfrwt>
<totfact> 0.25735123E+01</totfact>
</mgrwt>
</event>
<event>
12    1  0.1201209E-007  0.2848415E+04  0.7818608E-02  0.8288393E-01
          2   -1    0    0  501    0  0.00000000000E+00  0.00000000000E+00  0.15601941878E+04  0.15601941878E+04  0.00000000000E+00 0. -1.
         -2   -1    0    0    0  501 -0.00000000000E+00 -0.00000000000E+00 -0.13000730876E+04  0.13000730876E+04  0.00000000000E+00 0.  1.
         23    2    1    2    0    0 -0.12696219192E+03 -0.68327120062E+03 -0.96215860920E+03  0.11905387156E+04  0.93028556718E+02 0.  0.
        254    2    1    2    0    0  0.12696219192E+03  0.68327120062E+03  0.12222797094E+04  0.16697285597E+04  0.90058139190E+03 0.  0.
        -24    2    4    4    0    0  0.33012468839E+03  0.79658977142E+03  0.78521010424E+03  0.11687561876E+04  0.76801981262E+02 0.  0.
         24    2    4    4    0    0 -0.20316249647E+03 -0.11331857080E+03  0.43706960517E+03  0.50097237220E+03  0.76337274503E+02 0.  0.
         13    1    3    3    0    0  0.10269218979E+02 -0.12115154577E+03 -0.19142681175E+03  0.22677605287E+03  0.00000000000E+00 0. -1.
        -13    1    3    3    0    0 -0.13723141090E+03 -0.56211965485E+03 -0.77073179746E+03  0.96376266275E+03  0.00000000000E+00 0.  1.
          2    1    6    6  502    0 -0.14017551438E+03 -0.42496948356E+02  0.30571326740E+03  0.33899228209E+03  0.00000000000E+00 0. -1.
          1    1    5    5  503    0  0.27436065449E+03  0.64853082888E+03  0.67888098921E+03  0.97813363211E+03  0.00000000000E+00 0. -1.
         -2    1    5    5    0  503  0.55764033904E+02  0.14805894254E+03  0.10632911502E+03  0.19062255544E+03  0.00000000000E+00 0.  1.
         -1    1    6    6    0  502 -0.62986982094E+02 -0.70821622444E+02  0.13135633777E+03  0.16198009011E+03  0.00000000000E+00 0.  1.
<mgrwt>
<rscale>  0 0.28484146E+04</rscale>
<asrwt>0</asrwt>
<pdfrwt beam="1">  1        2 0.24002988E+00 0.28484146E+04</pdfrwt>
<pdfrwt beam="2">  1       -2 0.20001124E+00 0.28484146E+04</pdfrwt>
<totfact> 0.13532506E+00</totfact>
</mgrwt>
</event>
<event>
12    1  0.1201209E-007  0.1719416E+04  0.7818608E-02  0.8750367E-01
          1   -1    0    0  501    0  0.00000000000E+00  0.00000000000E+00  0.87349260403E+03  0.87349260403E+03  0.00000000000E+00 0. -1.
         -1   -1    0    0    0  501 -0.00000000000E+00 -0.00000000000E+00 -0.84614121108E+03  0.84614121108E+03  0.00000000000E+00 0.  1.
         23    2    1    2    0    0 -0.92364307330E+01 -0.87196480620E+02 -0.60582300759E+03  0.61882385554E+03  0.90735383250E+02 0.  0.
        254    2    1    2    0    0  0.92364307330E+01  0.87196480620E+02  0.63317440054E+03  0.11008099596E+04  0.89620544950E+03 0.  0.
        -24    2    4    4    0    0  0.26445384208E+03 -0.13836950368E+02  0.74379318423E+03  0.79359871838E+03  0.80270350136E+02 0.  0.
         24    2    4    4    0    0 -0.25521741134E+03  0.10103343099E+03 -0.11061878369E+03  0.30721124120E+03  0.82453321252E+02 0.  0.
         13    1    3    3    0    0 -0.10147095579E+02  0.10405062093E+02 -0.18908880412E+02  0.23848996295E+02  0.00000000000E+00 0. -1.
        -13    1    3    3    0    0  0.91066484648E+00 -0.97601542714E+02 -0.58691412718E+03  0.59497485925E+03  0.00000000000E+00 0.  1.
          4    1    6    6  502    0 -0.91697067637E+02  0.31803695417E+02  0.17511994612E+01  0.97071591905E+02  0.00000000000E+00 0. -1.
          3    1    5    5  503    0  0.13464151522E+03 -0.43630983947E+02  0.33552971385E+03  0.36415956565E+03  0.00000000000E+00 0. -1.
         -4    1    5    5    0  503  0.12981232686E+03  0.29794033579E+02  0.40826347038E+03  0.42943915272E+03  0.00000000000E+00 0.  1.
         -3    1    6    6    0  502 -0.16352034371E+03  0.69229735571E+02 -0.11236998315E+03  0.21013964930E+03  0.00000000000E+00 0.  1.
<mgrwt>
<rscale>  0 0.17194163E+04</rscale>
<asrwt>0</asrwt>
<pdfrwt beam="1">  1        1 0.13438348E+00 0.17194163E+04</pdfrwt>
<pdfrwt beam="2">  1       -1 0.13017557E+00 0.17194163E+04</pdfrwt>
<totfact> 0.91917803E+00</totfact>
</mgrwt>
</event>
<event>
12    1  0.1201209E-007  0.2033901E+04  0.7818608E-02  0.8590933E-01
         -3   -1    0    0    0  501 -0.00000000000E+00  0.00000000000E+00  0.23882382005E+04  0.23882382005E+04  0.00000000000E+00 0.  1.
          3   -1    0    0  501    0  0.00000000000E+00 -0.00000000000E+00 -0.43303406438E+03  0.43303406438E+03  0.00000000000E+00 0. -1.
         23    2    1    2    0    0 -0.72156072348E+03  0.12000759287E+03  0.28986327313E+03  0.79204386080E+03  0.90890375175E+02 0.  0.
        254    2    1    2    0    0  0.72156072348E+03 -0.12000759287E+03  0.16653408630E+04  0.20292284041E+04  0.89964216552E+03 0.  0.
        -24    2    4    4    0    0 -0.19733369194E+03 -0.70287548198E+01  0.46395428670E+03  0.51038778395E+03  0.79070351516E+02 0.  0.
         24    2    4    4    0    0  0.91889441542E+03 -0.11297883805E+03  0.12013865763E+04  0.15188406202E+04  0.80099682512E+02 0.  0.
         11    1    3    3    0    0 -0.24216611974E+03  0.19949608429E+02  0.56056774370E+02  0.24936875983E+03  0.00000000000E+00 0.  1.
        -11    1    3    3    0    0 -0.47939460374E+03  0.10005798444E+03  0.23380649876E+03  0.54267510096E+03  0.00000000000E+00 0. -1.
          4    1    6    6  502    0  0.36481512773E+03 -0.34885977676E+02  0.41436699136E+03  0.55317909612E+03  0.00000000000E+00 0. -1.
          3    1    5    5  503    0 -0.14703682543E+03  0.15132627927E+02  0.39783468633E+03  0.42440695342E+03  0.00000000000E+00 0. -1.
         -4    1    5    5    0  503 -0.50296866514E+02 -0.22161382747E+02  0.66119600368E+02  0.85980830534E+02  0.00000000000E+00 0.  1.
         -3    1    6    6    0  502  0.55407928769E+03 -0.78092860370E+02  0.78701958495E+03  0.96566152403E+03  0.00000000000E+00 0.  1.
<mgrwt>
<rscale>  0 0.20339012E+04</rscale>
<asrwt>0</asrwt>
<pdfrwt beam="1">  1        3 0.66620626E-01 0.20339012E+04</pdfrwt>
<pdfrwt beam="2">  1       -3 0.36742126E+00 0.20339012E+04</pdfrwt>
<totfact> 0.84444345E-02</totfact>
</mgrwt>
</event>
<event>
12    1  0.1201209E-007  0.2791317E+04  0.7818608E-02  0.8305969E-01
         -1   -1    0    0    0  501 -0.00000000000E+00  0.00000000000E+00  0.14723405178E+04  0.14723405178E+04  0.00000000000E+00 0.  1.
          1   -1    0    0  501    0  0.00000000000E+00 -0.00000000000E+00 -0.13229699589E+04  0.13229699589E+04  0.00000000000E+00 0. -1.
         23    2    1    2    0    0  0.17918780686E+03 -0.98034676026E+03 -0.67139444783E+03  0.12049802495E+04  0.89548068613E+02 0.  0.
        254    2    1    2    0    0 -0.17918780686E+03  0.98034676026E+03  0.82076500668E+03  0.15903302272E+04  0.92860486475E+03 0.  0.
        -24    2    4    4    0    0  0.15567798834E+03  0.42787761147E+02  0.51540457115E+03  0.54596794455E+03  0.79829167319E+02 0.  0.
         24    2    4    4    0    0 -0.33486579520E+03  0.93755899912E+03  0.30536043553E+03  0.10443622826E+04  0.79344843486E+02 0.  0.
         13    1    3    3    0    0  0.78631315153E+02 -0.46523910637E+03 -0.37129431646E+03  0.60040801065E+03  0.00000000000E+00 0.  1.
        -13    1    3    3    0    0  0.10055649170E+03 -0.51510765389E+03 -0.30010013137E+03  0.60457223883E+03  0.00000000000E+00 0. -1.
          2    1    6    6  502    0 -0.20045944039E+02  0.57734513379E+02 -0.52672315023E+00  0.61117848005E+02  0.00000000000E+00 0. -1.
          1    1    5    5  503    0  0.70186289208E+02 -0.16090381523E+02  0.27163096122E+03  0.28101315745E+03  0.00000000000E+00 0. -1.
         -2    1    5    5    0  503  0.85491699137E+02  0.58878142670E+02  0.24377360993E+03  0.26495478709E+03  0.00000000000E+00 0.  1.
         -1    1    6    6    0  502 -0.31481985116E+03  0.87982448574E+03  0.30588715868E+03  0.98324443463E+03  0.00000000000E+00 0.  1.
<mgrwt>
<rscale>  0 0.27913167E+04</rscale>
<asrwt>0</asrwt>
<pdfrwt beam="1">  1        1 0.20353384E+00 0.27913167E+04</pdfrwt>
<pdfrwt beam="2">  1       -1 0.22651393E+00 0.27913167E+04</pdfrwt>
<totfact> 0.75134218E-01</totfact>
</mgrwt>
</event>
<event>
12    1  0.1201209E-007  0.1075761E+04  0.7818608E-02  0.9229145E-01
          1   -1    0    0  501    0  0.00000000000E+00  0.00000000000E+00  0.47795900488E+03  0.47795900488E+03  0.00000000000E+00 0. -1.
         -1   -1    0    0    0  501 -0.00000000000E+00 -0.00000000000E+00 -0.60531387906E+03  0.60531387906E+03  0.00000000000E+00 0.  1.
         23    2    1    2    0    0 -0.15590667883E+03  0.50221490717E+02  0.26194339504E+02  0.18866895459E+03  0.89892938376E+02 0.  0.
        254    2    1    2    0    0  0.15590667883E+03 -0.50221490717E+02 -0.15354921368E+03  0.89460392935E+03  0.86597328986E+03 0.  0.
        -24    2    4    4    0    0 -0.23701407613E+03  0.26989715686E+03 -0.78874509328E+02  0.37622566797E+03  0.79400361775E+02 0.  0.
         24    2    4    4    0    0  0.39292075495E+03 -0.32011864758E+03 -0.74674704356E+02  0.51837826138E+03  0.79227786806E+02 0.  0.
         13    1    3    3    0    0 -0.11253326354E+02  0.29455715829E+02 -0.17600166714E+02  0.36111527486E+02  0.00000000000E+00 0.  1.
        -13    1    3    3    0    0 -0.14465335247E+03  0.20765774887E+02  0.43794506218E+02  0.15255742710E+03  0.00000000000E+00 0. -1.
          4    1    6    6  502    0  0.37761932684E+03 -0.32241361126E+03 -0.77800552891E+02  0.50259309462E+03  0.00000000000E+00 0. -1.
          1    1    5    5  503    0 -0.14015054263E+03  0.20676947853E+03 -0.73926539913E+02  0.26050129588E+03  0.00000000000E+00 0. -1.
         -2    1    5    5    0  503 -0.96863533501E+02  0.63127678330E+02 -0.49479694150E+01  0.11572437209E+03  0.00000000000E+00 0.  1.
         -3    1    6    6    0  502  0.15301428111E+02  0.22949636846E+01  0.31258485347E+01  0.15785166759E+02  0.00000000000E+00 0.  1.
<mgrwt>
<rscale>  0 0.10757606E+04</rscale>
<asrwt>0</asrwt>
<pdfrwt beam="1">  1        1 0.73532155E-01 0.10757606E+04</pdfrwt>
<pdfrwt beam="2">  1       -1 0.93125212E-01 0.10757606E+04</pdfrwt>
<totfact> 0.52735196E+01</totfact>
</mgrwt>
</event>
<event>
12    1  0.1201209E-007  0.1618668E+04  0.7818608E-02  0.8809161E-01
          2   -1    0    0  501    0  0.00000000000E+00  0.00000000000E+00  0.12511196267E+04  0.12511196267E+04  0.00000000000E+00 0. -1.
         -2   -1    0    0    0  501 -0.00000000000E+00 -0.00000000000E+00 -0.52354841371E+03  0.52354841371E+03  0.00000000000E+00 0.  1.
         23    2    1    2    0    0  0.23505610272E+03  0.44982750780E+03  0.42835386118E+01  0.51572512627E+03  0.91421545410E+02 0.  0.
        254    2    1    2    0    0 -0.23505610272E+03 -0.44982750780E+03  0.72328767437E+03  0.12589429141E+04  0.89676978259E+03 0.  0.
        -24    2    4    4    0    0  0.26645261053E+03 -0.13705495938E+03 -0.17030921335E+02  0.30840143433E+03  0.70995329904E+02 0.  0.
         24    2    4    4    0    0 -0.50150871325E+03 -0.31277254842E+03  0.74031859571E+03  0.95054147981E+03  0.78229311507E+02 0.  0.
         11    1    3    3    0    0  0.73421547892E+02  0.14279070751E+03 -0.41228144272E+02  0.16576993010E+03  0.00000000000E+00 0. -1.
        -11    1    3    3    0    0  0.16163455483E+03  0.30703680029E+03  0.45511682883E+02  0.34995519617E+03  0.00000000000E+00 0.  1.
          2    1    6    6  502    0 -0.35134804654E+03 -0.25868285474E+03  0.55503685324E+03  0.70599446004E+03  0.00000000000E+00 0. -1.
          1    1    5    5  503    0  0.23595280679E+03 -0.11314372652E+03 -0.37861523909E+02  0.26440258107E+03  0.00000000000E+00 0. -1.
         -4    1    5    5    0  503  0.30499803744E+02 -0.23911232859E+02  0.20830602574E+02  0.43998853267E+02  0.00000000000E+00 0.  1.
         -1    1    6    6    0  502 -0.15016066671E+03 -0.54089693672E+02  0.18528174247E+03  0.24454701977E+03  0.00000000000E+00 0.  1.
<mgrwt>
<rscale>  0 0.16186682E+04</rscale>
<asrwt>0</asrwt>
<pdfrwt beam="1">  1        2 0.19247994E+00 0.16186682E+04</pdfrwt>
<pdfrwt beam="2">  1       -2 0.80545910E-01 0.16186682E+04</pdfrwt>
<totfact> 0.23023499E+01</totfact>
</mgrwt>
</event>
<event>
12    1  0.1201209E-007  0.1640779E+04  0.7818608E-02  0.8795880E-01
         -2   -1    0    0    0  501 -0.00000000000E+00  0.00000000000E+00  0.55869802002E+03  0.55869802002E+03  0.00000000000E+00 0.  1.
          2   -1    0    0  501    0  0.00000000000E+00 -0.00000000000E+00 -0.12046562043E+04  0.12046562043E+04  0.00000000000E+00 0. -1.
         23    2    1    2    0    0 -0.72407640367E+02 -0.37113467560E+03 -0.68397165662E+03  0.78666104300E+03  0.89635683170E+02 0.  0.
        254    2    1    2    0    0  0.72407640367E+02  0.37113467560E+03  0.38013472338E+02  0.97669318133E+03  0.89972258644E+03 0.  0.
        -24    2    4    4    0    0  0.38198702802E+03  0.43277207809E+03  0.19640621159E+03  0.61464944198E+03  0.77542088108E+02 0.  0.
         24    2    4    4    0    0 -0.30957938765E+03 -0.61637402491E+02 -0.15839273925E+03  0.36204373935E+03  0.79679625440E+02 0.  0.
         11    1    3    3    0    0 -0.23018399621E+02 -0.99653038124E+02 -0.27409469037E+03  0.29255507860E+03  0.00000000000E+00 0.  1.
        -11    1    3    3    0    0 -0.49389240746E+02 -0.27148163748E+03 -0.40987696625E+03  0.49410596440E+03  0.00000000000E+00 0. -1.
          4    1    6    6  502    0 -0.21568851737E+03 -0.46987484847E+02 -0.68233985042E+02  0.23105245502E+03  0.00000000000E+00 0. -1.
          3    1    5    5  503    0  0.55808287905E+02  0.47172504797E+02  0.91146569269E+00  0.73079689226E+02  0.00000000000E+00 0. -1.
         -4    1    5    5    0  503  0.32617874011E+03  0.38559957330E+03  0.19549474589E+03  0.54156975276E+03  0.00000000000E+00 0.  1.
         -3    1    6    6    0  502 -0.93890870283E+02 -0.14649917644E+02 -0.90158754207E+02  0.13099128433E+03  0.00000000000E+00 0.  1.
<mgrwt>
<rscale>  0 0.16407791E+04</rscale>
<asrwt>0</asrwt>
<pdfrwt beam="1">  1        2 0.18533172E+00 0.16407791E+04</pdfrwt>
<pdfrwt beam="2">  1       -2 0.85953543E-01 0.16407791E+04</pdfrwt>
<totfact> 0.21135035E+01</totfact>
</mgrwt>
</event>
<event>
12    1  0.1201209E-007  0.3435578E+04  0.7818608E-02  0.8129229E-01
         -1   -1    0    0    0  501 -0.00000000000E+00  0.00000000000E+00  0.19299010962E+04  0.19299010962E+04  0.00000000000E+00 0.  1.
          1   -1    0    0  501    0  0.00000000000E+00 -0.00000000000E+00 -0.15289899624E+04  0.15289899624E+04  0.00000000000E+00 0. -1.
         23    2    1    2    0    0  0.55289851045E+03  0.93175331992E+03 -0.99474747341E+03  0.14736285691E+04  0.90540663650E+02 0.  0.
        254    2    1    2    0    0 -0.55289851045E+03 -0.93175331992E+03  0.13956586072E+04  0.19852624895E+04  0.90528624873E+03 0.  0.
        -24    2    4    4    0    0  0.20472519573E+03 -0.24019000269E+03  0.12299110374E+03  0.34879508974E+03  0.83231964198E+02 0.  0.
         24    2    4    4    0    0 -0.75762370618E+03 -0.69156331723E+03  0.12726675035E+04  0.16364673997E+04  0.78035082232E+02 0.  0.
         13    1    3    3    0    0  0.24447805584E+03  0.46903507320E+03 -0.43800392662E+03  0.68673929508E+03  0.00000000000E+00 0.  1.
        -13    1    3    3    0    0  0.30842045461E+03  0.46271824673E+03 -0.55674354679E+03  0.78688927402E+03  0.00000000000E+00 0. -1.
          4    1    6    6  502    0 -0.73999980729E+03 -0.66800897262E+03  0.12524565372E+04  0.16007757744E+04  0.00000000000E+00 0. -1.
          3    1    5    5  503    0  0.15656785578E+03 -0.14988784686E+03  0.11692485192E+03  0.24627480808E+03  0.00000000000E+00 0. -1.
         -4    1    5    5    0  503  0.48157339951E+02 -0.90302155834E+02  0.60662518228E+01  0.10252028165E+03  0.00000000000E+00 0.  1.
         -3    1    6    6    0  502 -0.17623898894E+02 -0.23554344605E+02  0.20210966307E+02  0.35691625364E+02  0.00000000000E+00 0.  1.
<mgrwt>
<rscale>  0 0.34355782E+04</rscale>
<asrwt>0</asrwt>
<pdfrwt beam="1">  1        1 0.23522923E+00 0.34355782E+04</pdfrwt>
<pdfrwt beam="2">  1       -1 0.29690786E+00 0.34355782E+04</pdfrwt>
<totfact> 0.17716822E-01</totfact>
</mgrwt>
</event>
<event>
12    1  0.1254541E-007  0.1741372E+04  0.7818608E-02  0.8738114E-01
         -1   -1    0    0    0  501 -0.00000000000E+00  0.00000000000E+00  0.65330297283E+03  0.65330297283E+03  0.00000000000E+00 0.  1.
          1   -1    0    0  501    0  0.00000000000E+00 -0.00000000000E+00 -0.11604022505E+04  0.11604022505E+04  0.00000000000E+00 0. -1.
         23    2    1    2    0    0 -0.47083440864E+02 -0.34521476160E+03  0.36714046445E+03  0.51474289009E+03  0.93691196118E+02 0.  0.
        254    2    1    2    0    0  0.47083440864E+02  0.34521476160E+03 -0.87423974210E+03  0.12989623332E+04  0.89533118701E+03 0.  0.
        -24    2    4    4    0    0 -0.43706176460E+02 -0.74363705320E+02  0.14704294146E+03  0.18845867690E+03  0.80342116827E+02 0.  0.
         24    2    4    4    0    0  0.90789617324E+02  0.41957846692E+03 -0.10212826836E+04  0.11105036563E+04  0.76884370710E+02 0.  0.
         11    1    3    3    0    0 -0.61321902287E+02 -0.11880886004E+03  0.12724813260E+03  0.18457521007E+03  0.00000000000E+00 0. -1.
        -11    1    3    3    0    0  0.14238461423E+02 -0.22640590156E+03  0.23989233186E+03  0.33016768002E+03  0.00000000000E+00 0.  1.
          4    1    6    6  502    0 -0.78276768041E+01  0.16221389822E+02 -0.74854170693E+02  0.76990602557E+02  0.00000000000E+00 0. -1.
          1    1    5    5  503    0  0.89035898167E+01  0.12727379300E+02  0.13562294633E+02  0.20620279610E+02  0.00000000000E+00 0. -1.
         -2    1    5    5    0  503 -0.52609766277E+02 -0.87091084620E+02  0.13348064682E+03  0.16783839729E+03  0.00000000000E+00 0.  1.
         -3    1    6    6    0  502  0.98617294129E+02  0.40335707709E+03 -0.94642851287E+03  0.10335130538E+04  0.00000000000E+00 0.  1.
<mgrwt>
<rscale>  0 0.17413721E+04</rscale>
<asrwt>0</asrwt>
<pdfrwt beam="1">  1        1 0.17852342E+00 0.17413721E+04</pdfrwt>
<pdfrwt beam="2">  1       -1 0.10050815E+00 0.17413721E+04</pdfrwt>
<totfact> 0.10210705E+01</totfact>
</mgrwt>
</event>
<event>
12    1  0.1201209E-007  0.3457992E+04  0.7818608E-02  0.8123818E-01
         -1   -1    0    0    0  501 -0.00000000000E+00  0.00000000000E+00  0.17119962880E+04  0.17119962880E+04  0.00000000000E+00 0.  1.
          1   -1    0    0  501    0  0.00000000000E+00 -0.00000000000E+00 -0.17461645363E+04  0.17461645363E+04  0.00000000000E+00 0. -1.
         23    2    1    2    0    0 -0.12756108334E+03  0.36758493200E+03  0.15480382378E+04  0.15987198332E+04  0.89956697192E+02 0.  0.
        254    2    1    2    0    0  0.12756108334E+03 -0.36758493200E+03 -0.15822064861E+04  0.18594409911E+04  0.89596479994E+03 0.  0.
        -24    2    4    4    0    0  0.15961027786E+03 -0.46709883727E+03 -0.16405503608E+04  0.17150810055E+04  0.80253377894E+02 0.  0.
         24    2    4    4    0    0 -0.32049194515E+02  0.99513905278E+02  0.58343874720E+02  0.14435998560E+03  0.80657482681E+02 0.  0.
         11    1    3    3    0    0 -0.11856854476E+03  0.36759256973E+03  0.14600909362E+04  0.15103139869E+04  0.00000000000E+00 0.  1.
        -11    1    3    3    0    0 -0.89925385838E+01 -0.76377363418E-02  0.87947301559E+02  0.88405846300E+02  0.00000000000E+00 0. -1.
          4    1    6    6  502    0 -0.13159503602E+02  0.87524608602E+02  0.75364966732E+02  0.11624804453E+03  0.00000000000E+00 0. -1.
          3    1    5    5  503    0  0.10001530233E+03 -0.36874790630E+03 -0.13353578687E+04  0.13889415814E+04  0.00000000000E+00 0. -1.
         -4    1    5    5    0  503  0.59594975524E+02 -0.98350930977E+02 -0.30519249214E+03  0.32613942416E+03  0.00000000000E+00 0.  1.
         -3    1    6    6    0  502 -0.18889690913E+02  0.11989296676E+02 -0.17021092012E+02  0.28111941072E+02  0.00000000000E+00 0.  1.
<mgrwt>
<rscale>  0 0.34579920E+04</rscale>
<asrwt>0</asrwt>
<pdfrwt beam="1">  1        1 0.26864070E+00 0.34579920E+04</pdfrwt>
<pdfrwt beam="2">  1       -1 0.26338405E+00 0.34579920E+04</pdfrwt>
<totfact> 0.20700520E-01</totfact>
</mgrwt>
</event>
<event>
12    1  0.1201209E-007  0.1572588E+04  0.7818608E-02  0.8837567E-01
         -1   -1    0    0    0  501 -0.00000000000E+00  0.00000000000E+00  0.74398006856E+03  0.74398006856E+03  0.00000000000E+00 0.  1.
          1   -1    0    0  501    0  0.00000000000E+00 -0.00000000000E+00 -0.83101490779E+03  0.83101490779E+03  0.00000000000E+00 0. -1.
         23    2    1    2    0    0  0.68801518232E+02  0.15020814754E+03  0.46828818761E+03  0.50971333239E+03  0.11496833506E+03 0.  0.
        254    2    1    2    0    0 -0.68801518232E+02 -0.15020814754E+03 -0.55532302684E+03  0.10652816440E+04  0.89394920455E+03 0.  0.
        -24    2    4    4    0    0 -0.17350217192E+03 -0.63705731158E+02 -0.77170892782E+03  0.79694157494E+03  0.73619160218E+02 0.  0.
         24    2    4    4    0    0  0.10470065369E+03 -0.86502416382E+02  0.21638590098E+03  0.26834006902E+03  0.82089217177E+02 0.  0.
         13    1    3    3    0    0  0.80207385938E+02  0.16133778514E+03  0.45346722444E+03  0.48795043735E+03  0.00000000000E+00 0.  1.
        -13    1    3    3    0    0 -0.11405867706E+02 -0.11129637599E+02  0.14820963172E+02  0.21762895041E+02  0.00000000000E+00 0. -1.
          2    1    6    6  502    0  0.95458368695E+02 -0.62972211561E+02  0.10887634691E+03  0.15789825363E+03  0.00000000000E+00 0. -1.
          3    1    5    5  503    0 -0.61555181120E+02  0.12947227035E+02 -0.26767167552E+03  0.27496326461E+03  0.00000000000E+00 0. -1.
         -4    1    5    5    0  503 -0.11194699080E+03 -0.76652958193E+02 -0.50403725230E+03  0.52197831033E+03  0.00000000000E+00 0.  1.
         -1    1    6    6    0  502  0.92422849933E+01 -0.23530204822E+02  0.10750955407E+03  0.11044181539E+03  0.00000000000E+00 0.  1.
<mgrwt>
<rscale>  0 0.15725883E+04</rscale>
<asrwt>0</asrwt>
<pdfrwt beam="1">  1        1 0.12784845E+00 0.15725883E+04</pdfrwt>
<pdfrwt beam="2">  1       -1 0.11445847E+00 0.15725883E+04</pdfrwt>
<totfact> 0.13881418E+01</totfact>
</mgrwt>
</event>
<event>
12    1  0.1201209E-007  0.1550582E+04  0.7818608E-02  0.8851496E-01
         -2   -1    0    0    0  501 -0.00000000000E+00  0.00000000000E+00  0.19721426282E+04  0.19721426282E+04  0.00000000000E+00 0. -1.
          2   -1    0    0  501    0  0.00000000000E+00 -0.00000000000E+00 -0.30478333635E+03  0.30478333635E+03  0.00000000000E+00 0.  1.
         23    2    1    2    0    0 -0.26622910269E+03  0.31227352603E+03  0.98568745309E+03  0.10716806511E+04  0.92341608426E+02 0.  0.
        254    2    1    2    0    0  0.26622910269E+03 -0.31227352603E+03  0.68167183878E+03  0.12052453134E+04  0.90528839581E+03 0.  0.
        -24    2    4    4    0    0  0.27029472180E+03 -0.51304842855E+03  0.77392941959E+03  0.97043206853E+03  0.80583661267E+02 0.  0.
         24    2    4    4    0    0 -0.40656191096E+01  0.20077490251E+03 -0.92257580810E+02  0.23481324490E+03  0.79364400248E+02 0.  0.
         13    1    3    3    0    0 -0.26346491952E+03  0.30858991089E+03  0.98678022375E+03  0.10669473778E+04  0.00000000000E+00 0. -1.
        -13    1    3    3    0    0 -0.27641831698E+01  0.36836151389E+01 -0.10927706597E+01  0.47332733708E+01  0.00000000000E+00 0.  1.
          4    1    6    6  502    0 -0.53753839658E+01  0.16312994285E+03 -0.36051690733E+02  0.16715261712E+03  0.00000000000E+00 0. -1.
          1    1    5    5  503    0  0.19312762422E+03 -0.36025912245E+03  0.48167232993E+03  0.63173819575E+03  0.00000000000E+00 0. -1.
         -2    1    5    5    0  503  0.77167097579E+02 -0.15278930610E+03  0.29225708966E+03  0.33869387278E+03  0.00000000000E+00 0.  1.
         -3    1    6    6    0  502  0.13097648562E+01  0.37644959666E+02 -0.56205890077E+02  0.67660627780E+02  0.00000000000E+00 0.  1.
<mgrwt>
<rscale>  0 0.15505821E+04</rscale>
<asrwt>0</asrwt>
<pdfrwt beam="1">  1        2 0.46889745E-01 0.15505821E+04</pdfrwt>
<pdfrwt beam="2">  1       -2 0.30340655E+00 0.15505821E+04</pdfrwt>
<totfact> 0.31561233E+00</totfact>
</mgrwt>
</event>
<event>
12    1  0.1201209E-007  0.2124173E+04  0.7818608E-02  0.8550669E-01
          2   -1    0    0  501    0  0.00000000000E+00  0.00000000000E+00  0.13543755579E+04  0.13543755579E+04  0.00000000000E+00 0. -1.
         -2   -1    0    0    0  501 -0.00000000000E+00 -0.00000000000E+00 -0.83287652300E+03  0.83287652300E+03  0.00000000000E+00 0.  1.
         23    2    1    2    0    0  0.11466136653E+03 -0.58239017309E+03  0.86415854132E+03  0.10526818014E+04  0.95097044119E+02 0.  0.
        254    2    1    2    0    0 -0.11466136653E+03  0.58239017309E+03 -0.34265950643E+03  0.11345702795E+04  0.90416184339E+03 0.  0.
        -24    2    4    4    0    0 -0.12879570926E+03 -0.12098714652E+03 -0.37871373564E+03  0.42556155594E+03  0.80326334314E+02 0.  0.
         24    2    4    4    0    0  0.14134342733E+02  0.70337731961E+03  0.36054229212E+02  0.70900872354E+03  0.80336972935E+02 0.  0.
         13    1    3    3    0    0  0.51434406546E+02 -0.23445672316E+03  0.27018340802E+03  0.36140631868E+03  0.00000000000E+00 0. -1.
        -13    1    3    3    0    0  0.63226959982E+02 -0.34793344993E+03  0.59397513329E+03  0.69127548273E+03  0.00000000000E+00 0.  1.
          4    1    6    6  502    0 -0.22283644175E+02  0.54596127291E+03  0.32869445472E+02  0.54740357393E+03  0.00000000000E+00 0. -1.
          3    1    5    5  503    0 -0.51774447870E+02 -0.85185556490E+02 -0.26856604847E+03  0.28646971023E+03  0.00000000000E+00 0. -1.
         -4    1    5    5    0  503 -0.77021261391E+02 -0.35801590030E+02 -0.11014768717E+03  0.13909184571E+03  0.00000000000E+00 0.  1.
         -3    1    6    6    0  502  0.36417986908E+02  0.15741604671E+03  0.31847837400E+01  0.16160514961E+03  0.00000000000E+00 0.  1.
<mgrwt>
<rscale>  0 0.21241729E+04</rscale>
<asrwt>0</asrwt>
<pdfrwt beam="1">  1        2 0.20836547E+00 0.21241729E+04</pdfrwt>
<pdfrwt beam="2">  1       -2 0.12813485E+00 0.21241729E+04</pdfrwt>
<totfact> 0.63701097E+00</totfact>
</mgrwt>
</event>
<event>
12    1  0.1201209E-007  0.2031955E+04  0.7818608E-02  0.8591825E-01
         -2   -1    0    0    0  501 -0.00000000000E+00  0.00000000000E+00  0.37119917524E+03  0.37119917524E+03  0.00000000000E+00 0.  1.
          2   -1    0    0  501    0  0.00000000000E+00 -0.00000000000E+00 -0.27807445289E+04  0.27807445289E+04  0.00000000000E+00 0. -1.
         23    2    1    2    0    0 -0.50074918877E+03 -0.60110139998E+03 -0.60971746592E+03  0.99574885768E+03  0.87679850697E+02 0.  0.
        254    2    1    2    0    0  0.50074918877E+03  0.60110139998E+03 -0.17998278877E+04  0.21561948464E+04  0.89315348474E+03 0.  0.
        -24    2    4    4    0    0  0.54899036861E+03  0.79255000098E+03 -0.15589182883E+04  0.18347882171E+04  0.81826908704E+02 0.  0.
         24    2    4    4    0    0 -0.48241179839E+02 -0.19144860100E+03 -0.24090959941E+03  0.32140662938E+03  0.79278042753E+02 0.  0.
         13    1    3    3    0    0 -0.21211518854E+03 -0.28582290749E+03 -0.22819547506E+03  0.42280109093E+03  0.00000000000E+00 0. -1.
        -13    1    3    3    0    0 -0.28863400023E+03 -0.31527849249E+03 -0.38152199086E+03  0.57294776676E+03  0.00000000000E+00 0.  1.
          2    1    6    6  502    0  0.20574745335E+02 -0.33018355976E+02 -0.57892239529E+02  0.69749862900E+02  0.00000000000E+00 0. -1.
          1    1    5    5  503    0  0.61496761779E+02  0.55471458681E+02 -0.15910390561E+03  0.17936830048E+03  0.00000000000E+00 0. -1.
         -2    1    5    5    0  503  0.48749360683E+03  0.73707854230E+03 -0.13998143827E+04  0.16554199166E+04  0.00000000000E+00 0.  1.
         -1    1    6    6    0  502 -0.68815925174E+02 -0.15843024502E+03 -0.18301735988E+03  0.25165676648E+03  0.00000000000E+00 0.  1.
<mgrwt>
<rscale>  0 0.20319548E+04</rscale>
<asrwt>0</asrwt>
<pdfrwt beam="1">  1        2 0.42780686E+00 0.20319548E+04</pdfrwt>
<pdfrwt beam="2">  1       -2 0.57107564E-01 0.20319548E+04</pdfrwt>
<totfact> 0.63340635E+00</totfact>
</mgrwt>
</event>
<event>
12    1  0.1201209E-007  0.1967708E+04  0.7818608E-02  0.8621869E-01
          2   -1    0    0  501    0  0.00000000000E+00  0.00000000000E+00  0.73026063993E+03  0.73026063993E+03  0.00000000000E+00 0.  1.
         -2   -1    0    0    0  501 -0.00000000000E+00 -0.00000000000E+00 -0.13255118116E+04  0.13255118116E+04  0.00000000000E+00 0. -1.
         23    2    1    2    0    0  0.24718533621E+03  0.72828666853E+03 -0.28507553714E+03  0.82587559822E+03  0.96438477091E+02 0.  0.
        254    2    1    2    0    0 -0.24718533621E+03 -0.72828666853E+03 -0.31017563457E+03  0.12298968534E+04  0.90825948033E+03 0.  0.
        -24    2    4    4    0    0  0.32290835762E+03 -0.21239039871E+03  0.61800684229E+01  0.39469361635E+03  0.79783260487E+02 0.  0.
         24    2    4    4    0    0 -0.57009369383E+03 -0.51589626982E+03 -0.31635570299E+03  0.83520323700E+03  0.79547063599E+02 0.  0.
         11    1    3    3    0    0  0.22227609099E+03  0.59490163427E+03 -0.26727733012E+03  0.68902234091E+03  0.00000000000E+00 0.  1.
        -11    1    3    3    0    0  0.24909245213E+02  0.13338503426E+03 -0.17798207022E+02  0.13685325730E+03  0.00000000000E+00 0. -1.
          2    1    6    6  502    0 -0.93705133367E+02 -0.96788271888E+02 -0.87731911627E+02  0.16076538779E+03  0.00000000000E+00 0. -1.
          3    1    5    5  503    0  0.24115373778E+03 -0.19654085188E+03  0.10811070936E+02  0.31128814780E+03  0.00000000000E+00 0. -1.
         -4    1    5    5    0  503  0.81754619842E+02 -0.15849546830E+02 -0.46310025127E+01  0.83405468552E+02  0.00000000000E+00 0.  1.
         -1    1    6    6    0  502 -0.47638856046E+03 -0.41910799793E+03 -0.22862379137E+03  0.67443784921E+03  0.00000000000E+00 0.  1.
<mgrwt>
<rscale>  0 0.19677084E+04</rscale>
<asrwt>0</asrwt>
<pdfrwt beam="1">  1        2 0.11234779E+00 0.19677084E+04</pdfrwt>
<pdfrwt beam="2">  1       -2 0.20392489E+00 0.19677084E+04</pdfrwt>
<totfact> 0.45299663E+00</totfact>
</mgrwt>
</event>
<event>
12    1  0.1201209E-007  0.1756407E+04  0.7818608E-02  0.8729831E-01
         -1   -1    0    0    0  501 -0.00000000000E+00  0.00000000000E+00  0.27619346763E+03  0.27619346763E+03  0.00000000000E+00 0.  1.
          1   -1    0    0  501    0  0.00000000000E+00 -0.00000000000E+00 -0.27923960104E+04  0.27923960104E+04  0.00000000000E+00 0. -1.
         23    2    1    2    0    0 -0.15291566013E+03 -0.25433376639E+03  0.65359817277E+02  0.31831779548E+03  0.94791610214E+02 0.  0.
        254    2    1    2    0    0  0.15291566013E+03  0.25433376639E+03 -0.25815623601E+04  0.27502716826E+04  0.90081143708E+03 0.  0.
        -24    2    4    4    0    0  0.31402072930E+03  0.42816562841E+03 -0.88330572753E+03  0.10337028794E+04  0.79861196861E+02 0.  0.
         24    2    4    4    0    0 -0.16110506916E+03 -0.17383186202E+03 -0.16982566325E+04  0.17165688032E+04  0.79752784104E+02 0.  0.
         11    1    3    3    0    0 -0.86174824482E+02 -0.81405858319E+02  0.60036612148E+02  0.13288118355E+03  0.00000000000E+00 0. -1.
        -11    1    3    3    0    0 -0.66740835652E+02 -0.17292790807E+03  0.53232051294E+01  0.18543661193E+03  0.00000000000E+00 0.  1.
          2    1    6    6  502    0 -0.67741938177E+02 -0.21063719822E+02 -0.46189383106E+03  0.46730992034E+03  0.00000000000E+00 0. -1.
          3    1    5    5  503    0  0.18876621953E+03  0.22458542693E+03 -0.55272100906E+03  0.62575699236E+03  0.00000000000E+00 0. -1.
         -2    1    5    5    0  503  0.12525450976E+03  0.20358020148E+03 -0.33058471847E+03  0.40794588702E+03  0.00000000000E+00 0.  1.
         -1    1    6    6    0  502 -0.93363130985E+02 -0.15276814220E+03 -0.12363628015E+04  0.12492588829E+04  0.00000000000E+00 0.  1.
<mgrwt>
<rscale>  0 0.17564072E+04</rscale>
<asrwt>0</asrwt>
<pdfrwt beam="1">  1        1 0.42959939E+00 0.17564072E+04</pdfrwt>
<pdfrwt beam="2">  1       -1 0.42491302E-01 0.17564072E+04</pdfrwt>
<totfact> 0.43657632E+00</totfact>
</mgrwt>
</event>
<event>
12    1  0.1201209E-007  0.2288184E+04  0.7818608E-02  0.8482595E-01
         -2   -1    0    0    0  501 -0.00000000000E+00  0.00000000000E+00  0.64580230066E+03  0.64580230066E+03  0.00000000000E+00 0.  1.
          2   -1    0    0  501    0  0.00000000000E+00 -0.00000000000E+00 -0.20268526193E+04  0.20268526193E+04  0.00000000000E+00 0. -1.
         23    2    1    2    0    0  0.47254827065E+03  0.61056106657E+03  0.92434157279E+02  0.78283084368E+03  0.90517248541E+02 0.  0.
        254    2    1    2    0    0 -0.47254827065E+03 -0.61056106657E+03 -0.14734844759E+04  0.18898240763E+04  0.89676744722E+03 0.  0.
        -24    2    4    4    0    0 -0.29683651900E+02  0.15946283921E+03 -0.65375660886E+03  0.67838404827E+03  0.80608293888E+02 0.  0.
         24    2    4    4    0    0 -0.44286461875E+03 -0.77002390578E+03 -0.81972786704E+03  0.12114400280E+04  0.81038752453E+02 0.  0.
         13    1    3    3    0    0  0.36670804784E+03  0.52894206663E+03  0.80579484033E+02  0.64865056498E+03  0.00000000000E+00 0.  1.
        -13    1    3    3    0    0  0.10584022280E+03  0.81618999945E+02  0.11854673246E+02  0.13418027870E+03  0.00000000000E+00 0. -1.
          2    1    6    6  502    0 -0.18849596311E+03 -0.31613632249E+03 -0.39384468377E+03  0.53906079198E+03  0.00000000000E+00 0. -1.
          1    1    5    5  503    0  0.26388773605E+02  0.74749061178E+02 -0.26838090385E+03  0.27984299003E+03  0.00000000000E+00 0. -1.
         -2    1    5    5    0  503 -0.56072425506E+02  0.84713778030E+02 -0.38537570501E+03  0.39854105824E+03  0.00000000000E+00 0.  1.
         -1    1    6    6    0  502 -0.25436865563E+03 -0.45388758329E+03 -0.42588318327E+03  0.67237923601E+03  0.00000000000E+00 0.  1.
<mgrwt>
<rscale>  0 0.22881836E+04</rscale>
<asrwt>0</asrwt>
<pdfrwt beam="1">  1        2 0.31182348E+00 0.22881836E+04</pdfrwt>
<pdfrwt beam="2">  1       -2 0.99354199E-01 0.22881836E+04</pdfrwt>
<totfact> 0.49131175E+00</totfact>
</mgrwt>
</event>
<event>
12    1  0.1201209E-007  0.1639229E+04  0.7818608E-02  0.8796804E-01
          2   -1    0    0  501    0  0.00000000000E+00  0.00000000000E+00  0.29512803758E+04  0.29512803758E+04  0.00000000000E+00 0. -1.
         -2   -1    0    0    0  501 -0.00000000000E+00 -0.00000000000E+00 -0.22761927300E+03  0.22761927300E+03  0.00000000000E+00 0.  1.
         23    2    1    2    0    0  0.14216203499E+03  0.10122247810E+03 -0.95116371648E+02  0.21903322339E+03  0.92045611120E+02 0.  0.
        254    2    1    2    0    0 -0.14216203499E+03 -0.10122247810E+03  0.28187774745E+04  0.29598664254E+04  0.88591578133E+03 0.  0.
        -24    2    4    4    0    0  0.36222311001E+03 -0.67877045655E+02  0.14585824940E+04  0.15065966917E+04  0.80980398523E+02 0.  0.
         24    2    4    4    0    0 -0.50438514500E+03 -0.33345432449E+02  0.13601949805E+04  0.14532697337E+04  0.79663302017E+02 0.  0.
         13    1    3    3    0    0  0.44647664638E+02 -0.15435838842E+00  0.70241559681E+01  0.45197085649E+02  0.00000000000E+00 0. -1.
        -13    1    3    3    0    0  0.97514370352E+02  0.10137683649E+03 -0.10214052762E+03  0.17383613774E+03  0.00000000000E+00 0.  1.
          2    1    6    6  502    0 -0.43047934671E+02  0.19703399249E+02  0.12399879180E+03  0.13272923186E+03  0.00000000000E+00 0. -1.
          3    1    5    5  503    0  0.55302128325E+02 -0.34779866869E+02  0.18714440898E+03  0.19821956097E+03  0.00000000000E+00 0. -1.
         -4    1    5    5    0  503  0.30692098169E+03 -0.33097178786E+02  0.12714380850E+04  0.13083771308E+04  0.00000000000E+00 0.  1.
         -1    1    6    6    0  502 -0.46133721033E+03 -0.53048831698E+02  0.12361961886E+04  0.13205405018E+04  0.00000000000E+00 0.  1.
<mgrwt>
<rscale>  0 0.16392294E+04</rscale>
<asrwt>0</asrwt>
<pdfrwt beam="1">  1        2 0.45404311E+00 0.16392294E+04</pdfrwt>
<pdfrwt beam="2">  1       -2 0.35018352E-01 0.16392294E+04</pdfrwt>
<totfact> 0.13733685E+01</totfact>
</mgrwt>
</event>
<event>
12    1  0.1201209E-007  0.1293661E+04  0.7818608E-02  0.9034607E-01
         -1   -1    0    0    0  501 -0.00000000000E+00  0.00000000000E+00  0.76160185822E+03  0.76160185822E+03  0.00000000000E+00 0.  1.
          1   -1    0    0  501    0  0.00000000000E+00 -0.00000000000E+00 -0.54935508577E+03  0.54935508577E+03  0.00000000000E+00 0. -1.
         23    2    1    2    0    0 -0.12733157067E+03  0.29120104238E+03 -0.33087959660E+02  0.33241066212E+03  0.91600541716E+02 0.  0.
        254    2    1    2    0    0  0.12733157067E+03 -0.29120104238E+03  0.24533473211E+03  0.97854628187E+03  0.89238574564E+03 0.  0.
        -24    2    4    4    0    0  0.11663769466E+02 -0.27794407541E+03 -0.29889298785E+03  0.41630933418E+03  0.81163359756E+02 0.  0.
         24    2    4    4    0    0  0.11566780120E+03 -0.13256966973E+02  0.54422771996E+03  0.56223694770E+03  0.79823472594E+02 0.  0.
         11    1    3    3    0    0 -0.12159622154E+03  0.27326294837E+03 -0.54364740845E+02  0.30399638993E+03  0.00000000000E+00 0.  1.
        -11    1    3    3    0    0 -0.57353491290E+01  0.17938094016E+02  0.21276781184E+02  0.28414272191E+02  0.00000000000E+00 0. -1.
          2    1    6    6  502    0  0.63789461648E+01  0.35983200765E+01  0.21126256482E+03  0.21138947504E+03  0.00000000000E+00 0. -1.
          3    1    5    5  503    0  0.98086449236E+01 -0.10603624464E+01 -0.24845283146E+02  0.26732414376E+02  0.00000000000E+00 0. -1.
         -4    1    5    5    0  503  0.18551245425E+01 -0.27688371296E+03 -0.27404770470E+03  0.38957691980E+03  0.00000000000E+00 0.  1.
         -1    1    6    6    0  502  0.10928885503E+03 -0.16855287049E+02  0.33296515513E+03  0.35084747265E+03  0.00000000000E+00 0.  1.
<mgrwt>
<rscale>  0 0.12936612E+04</rscale>
<asrwt>0</asrwt>
<pdfrwt beam="1">  1        1 0.84516167E-01 0.12936612E+04</pdfrwt>
<pdfrwt beam="2">  1       -1 0.11716952E+00 0.12936612E+04</pdfrwt>
<totfact> 0.25072178E+01</totfact>
</mgrwt>
</event>
<event>
12    1  0.1201209E-007  0.2052019E+04  0.7818608E-02  0.8582679E-01
         -1   -1    0    0    0  501 -0.00000000000E+00  0.00000000000E+00  0.90044223867E+03  0.90044223867E+03  0.00000000000E+00 0.  1.
          1   -1    0    0  501    0  0.00000000000E+00 -0.00000000000E+00 -0.11690874584E+04  0.11690874584E+04  0.00000000000E+00 0. -1.
         23    2    1    2    0    0  0.34144988731E+03 -0.51927866630E+03 -0.64948745620E+03  0.90287733088E+03  0.84351407998E+02 0.  0.
        254    2    1    2    0    0 -0.34144988731E+03  0.51927866630E+03  0.38084223648E+03  0.11666523662E+04  0.91093280521E+03 0.  0.
        -24    2    4    4    0    0 -0.26763783736E+03 -0.97273855591E+02  0.44873000954E+03  0.53708164561E+03  0.77497468456E+02 0.  0.
         24    2    4    4    0    0 -0.73812049945E+02  0.61655252190E+03 -0.67887773052E+02  0.62957072058E+03  0.78519497611E+02 0.  0.
         13    1    3    3    0    0  0.13886060064E+03 -0.16607795285E+03 -0.18105408521E+03  0.28221398726E+03  0.00000000000E+00 0. -1.
        -13    1    3    3    0    0  0.20258928667E+03 -0.35320071345E+03 -0.46843337099E+03  0.62066334362E+03  0.00000000000E+00 0.  1.
          4    1    6    6  502    0 -0.38744958741E+01  0.59780473396E+02 -0.30385992511E+02  0.67171610511E+02  0.00000000000E+00 0. -1.
          1    1    5    5  503    0 -0.99715545176E+02 -0.76814247914E+02  0.18496481648E+03  0.22373109299E+03  0.00000000000E+00 0. -1.
         -2    1    5    5    0  503 -0.16792229219E+03 -0.20459607677E+02  0.26376519306E+03  0.31335055262E+03  0.00000000000E+00 0.  1.
         -1    1    6    6    0  502 -0.69937554071E+02  0.55677204850E+03 -0.37501780542E+02  0.56239911007E+03  0.00000000000E+00 0.  1.
<mgrwt>
<rscale>  0 0.20520192E+04</rscale>
<asrwt>0</asrwt>
<pdfrwt beam="1">  1        1 0.17985961E+00 0.20520192E+04</pdfrwt>
<pdfrwt beam="2">  1       -1 0.13852957E+00 0.20520192E+04</pdfrwt>
<totfact> 0.44809949E+00</totfact>
</mgrwt>
</event>
<event>
12    1  0.1201209E-007  0.1143458E+04  0.7818608E-02  0.9163840E-01
         -1   -1    0    0    0  501 -0.00000000000E+00  0.00000000000E+00  0.16559072993E+03  0.16559072993E+03  0.00000000000E+00 0.  1.
          1   -1    0    0  501    0  0.00000000000E+00 -0.00000000000E+00 -0.19739873365E+04  0.19739873365E+04  0.00000000000E+00 0. -1.
         23    2    1    2    0    0  0.11613850479E+03  0.87097906321E+01 -0.32474582318E+03  0.35960041822E+03  0.10143272824E+03 0.  0.
        254    2    1    2    0    0 -0.11613850479E+03 -0.87097906321E+01 -0.14836507834E+04  0.17799776482E+04  0.97649207285E+03 0.  0.
        -24    2    4    4    0    0 -0.19284548513E+03 -0.21421792457E+03 -0.21591458158E+02  0.29942825077E+03  0.78181749463E+02 0.  0.
         24    2    4    4    0    0  0.76706980343E+02  0.20550813394E+03 -0.14620593253E+04  0.14805493975E+04  0.79318937336E+02 0.  0.
         13    1    3    3    0    0  0.90242359461E+01  0.30408157617E+02 -0.15133511294E+03  0.15462344355E+03  0.00000000000E+00 0. -1.
        -13    1    3    3    0    0  0.10711426884E+03 -0.21698366985E+02 -0.17341071024E+03  0.20497697467E+03  0.00000000000E+00 0.  1.
          2    1    6    6  502    0  0.91032929892E+02  0.15071253309E+03 -0.10608818290E+04  0.10753936568E+04  0.00000000000E+00 0. -1.
          3    1    5    5  503    0 -0.16660767772E+03 -0.14936953477E+03 -0.39489454018E+02  0.22721970243E+03  0.00000000000E+00 0. -1.
         -4    1    5    5    0  503 -0.26237807410E+02 -0.64848389799E+02  0.17897995859E+02  0.72208548337E+02  0.00000000000E+00 0.  1.
         -1    1    6    6    0  502 -0.14325949549E+02  0.54795600853E+02 -0.40117749627E+03  0.40515574069E+03  0.00000000000E+00 0.  1.
<mgrwt>
<rscale>  0 0.11434579E+04</rscale>
<asrwt>0</asrwt>
<pdfrwt beam="1">  1        1 0.30369037E+00 0.11434579E+04</pdfrwt>
<pdfrwt beam="2">  1       -1 0.25475496E-01 0.11434579E+04</pdfrwt>
<totfact> 0.41910977E+01</totfact>
</mgrwt>
</event>
<event>
12    1  0.1201209E-007  0.1707615E+04  0.7818608E-02  0.8757033E-01
         -1   -1    0    0    0  501 -0.00000000000E+00  0.00000000000E+00  0.86174376877E+03  0.86174376877E+03  0.00000000000E+00 0.  1.
          1   -1    0    0  501    0  0.00000000000E+00 -0.00000000000E+00 -0.84594451976E+03  0.84594451976E+03  0.00000000000E+00 0. -1.
         23    2    1    2    0    0 -0.24594602551E+02  0.34851573192E+03 -0.50857389044E+03  0.62372029537E+03  0.91167400683E+02 0.  0.
        254    2    1    2    0    0  0.24594602551E+02 -0.34851573192E+03  0.52437313944E+03  0.10839679932E+04  0.88201548226E+03 0.  0.
        -24    2    4    4    0    0  0.30554826562E+03 -0.25368051138E+03 -0.73598448338E+02  0.41184057622E+03  0.80513254488E+02 0.  0.
         24    2    4    4    0    0 -0.28095366307E+03 -0.94835220547E+02  0.59797158778E+03  0.67212741693E+03  0.79098451011E+02 0.  0.
         13    1    3    3    0    0 -0.14812269302E+02  0.25502756552E+03 -0.43454306735E+03  0.50406957841E+03  0.00000000000E+00 0. -1.
        -13    1    3    3    0    0 -0.97823332491E+01  0.93488166405E+02 -0.74030823083E+02  0.11965071696E+03  0.00000000000E+00 0.  1.
          4    1    6    6  502    0 -0.11721991337E+03 -0.63650029993E+02  0.33737937443E+03  0.36279012762E+03  0.00000000000E+00 0. -1.
          3    1    5    5  503    0  0.46978844831E+02 -0.36283251861E+02 -0.41657494162E+02  0.72517811930E+02  0.00000000000E+00 0. -1.
         -4    1    5    5    0  503  0.25856942079E+03 -0.21739725952E+03 -0.31940954176E+02  0.33932276429E+03  0.00000000000E+00 0.  1.
         -3    1    6    6    0  502 -0.16373374970E+03 -0.31185190554E+02  0.26059221335E+03  0.30933728931E+03  0.00000000000E+00 0.  1.
<mgrwt>
<rscale>  0 0.17076152E+04</rscale>
<asrwt>0</asrwt>
<pdfrwt beam="1">  1        1 0.13014531E+00 0.17076152E+04</pdfrwt>
<pdfrwt beam="2">  1       -1 0.13257596E+00 0.17076152E+04</pdfrwt>
<totfact> 0.92644103E+00</totfact>
</mgrwt>
</event>
<event>
12    1  0.1201209E-007  0.2311847E+04  0.7818608E-02  0.8473265E-01
         -1   -1    0    0    0  501 -0.00000000000E+00  0.00000000000E+00  0.46613388495E+03  0.46613388495E+03  0.00000000000E+00 0.  1.
          1   -1    0    0  501    0  0.00000000000E+00 -0.00000000000E+00 -0.28664695097E+04  0.28664695097E+04  0.00000000000E+00 0. -1.
         23    2    1    2    0    0  0.71660787651E+03  0.62028242101E+03 -0.13571341494E+04  0.16577688307E+04  0.90040358915E+02 0.  0.
        254    2    1    2    0    0 -0.71660787651E+03 -0.62028242101E+03 -0.10432014753E+04  0.16748345639E+04  0.90472336534E+03 0.  0.
        -24    2    4    4    0    0 -0.73640282038E+03 -0.75125141354E+03 -0.61935545182E+03  0.12233526048E+04  0.79514902266E+02 0.  0.
         24    2    4    4    0    0  0.19794943876E+02  0.13096899253E+03 -0.42384602353E+03  0.45148195914E+03  0.81521720779E+02 0.  0.
         11    1    3    3    0    0  0.60530233179E+03  0.56314448247E+03 -0.11892593101E+04  0.14483992294E+04  0.00000000000E+00 0. -1.
        -11    1    3    3    0    0  0.11130554472E+03  0.57137938537E+02 -0.16787483926E+03  0.20936960133E+03  0.00000000000E+00 0.  1.
          4    1    6    6  502    0  0.38482171251E+02  0.11480567628E+03 -0.27329552935E+03  0.29891749225E+03  0.00000000000E+00 0. -1.
          1    1    5    5  503    0 -0.71346517338E+03 -0.71491294196E+03 -0.60803343283E+03  0.11789137897E+04  0.00000000000E+00 0. -1.
         -4    1    5    5    0  503 -0.22937647001E+02 -0.36338471580E+02 -0.11322018987E+02  0.44438815023E+02  0.00000000000E+00 0.  1.
         -3    1    6    6    0  502 -0.18687227375E+02  0.16163316245E+02 -0.15055049418E+03  0.15256446688E+03  0.00000000000E+00 0.  1.
<mgrwt>
<rscale>  0 0.23118465E+04</rscale>
<asrwt>0</asrwt>
<pdfrwt beam="1">  1        1 0.44099531E+00 0.23118465E+04</pdfrwt>
<pdfrwt beam="2">  1       -1 0.71712906E-01 0.23118465E+04</pdfrwt>
<totfact> 0.13240939E+00</totfact>
</mgrwt>
</event>
<event>
12    1  0.1281137E-007  0.1510800E+04  0.7818608E-02  0.8877303E-01
         -2   -1    0    0    0  501 -0.00000000000E+00  0.00000000000E+00  0.64190377515E+03  0.64190377515E+03  0.00000000000E+00 0.  1.
          2   -1    0    0  501    0  0.00000000000E+00 -0.00000000000E+00 -0.88896318684E+03  0.88896318684E+03  0.00000000000E+00 0. -1.
         23    2    1    2    0    0 -0.20002634775E+03 -0.25098153735E+03 -0.44042728387E+03  0.55084858988E+03  0.80347400129E+02 0.  0.
        254    2    1    2    0    0  0.20002634775E+03  0.25098153735E+03  0.19336787218E+03  0.98001837211E+03  0.90556203752E+03 0.  0.
        -24    2    4    4    0    0  0.17866308689E+02 -0.18615430648E+03  0.40607677680E+03  0.45417701684E+03  0.80036136602E+02 0.  0.
         24    2    4    4    0    0  0.18216003906E+03  0.43713584383E+03 -0.21270890462E+03  0.52584135527E+03  0.83630299636E+02 0.  0.
         11    1    3    3    0    0 -0.20636668466E+03 -0.25005360334E+03 -0.42879125395E+03  0.53756483566E+03  0.00000000000E+00 0. -1.
        -11    1    3    3    0    0  0.63403369098E+01 -0.92793401283E+00 -0.11636029923E+02  0.13283754214E+02  0.00000000000E+00 0.  1.
          4    1    6    6  502    0  0.13022466046E+03  0.28480188150E+03 -0.97771201153E+02  0.32806978171E+03  0.00000000000E+00 0. -1.
          1    1    5    5  503    0 -0.43455975659E+01 -0.26738052144E+02  0.14313588145E+02  0.30637990408E+02  0.00000000000E+00 0. -1.
         -2    1    5    5    0  503  0.22211906255E+02 -0.15941625433E+03  0.39176318865E+03  0.42353902643E+03  0.00000000000E+00 0.  1.
         -3    1    6    6    0  502  0.51935378595E+02  0.15233396233E+03 -0.11493770347E+03  0.19777157356E+03  0.00000000000E+00 0.  1.
<mgrwt>
<rscale>  0 0.15107996E+04</rscale>
<asrwt>0</asrwt>
<pdfrwt beam="1">  1        2 0.13676357E+00 0.15107996E+04</pdfrwt>
<pdfrwt beam="2">  1       -2 0.98754428E-01 0.15107996E+04</pdfrwt>
<totfact> 0.24511007E+01</totfact>
</mgrwt>
</event>
<event>
12    1  0.1201209E-007  0.1191022E+04  0.7818608E-02  0.9120752E-01
          2   -1    0    0  501    0  0.00000000000E+00  0.00000000000E+00  0.33768634148E+03  0.33768634148E+03  0.00000000000E+00 0. -1.
         -2   -1    0    0    0  501 -0.00000000000E+00 -0.00000000000E+00 -0.10501849227E+04  0.10501849227E+04  0.00000000000E+00 0.  1.
         23    2    1    2    0    0 -0.15785921028E+03  0.48504779164E+02 -0.37165756679E+03  0.41668622246E+03  0.90696290784E+02 0.  0.
        254    2    1    2    0    0  0.15785921028E+03 -0.48504779164E+02 -0.34084101448E+03  0.97118504177E+03  0.89429052568E+03 0.  0.
        -24    2    4    4    0    0  0.19862620696E+03 -0.40817050966E+03 -0.38182000636E+03  0.59829771196E+03  0.78218283233E+02 0.  0.
         24    2    4    4    0    0 -0.40766996671E+02  0.35966573049E+03  0.40978991880E+02  0.37288732981E+03  0.79651096972E+02 0.  0.
         11    1    3    3    0    0 -0.49897932033E+02  0.41841354822E+02 -0.22640049536E+03  0.23557947045E+03  0.00000000000E+00 0.  1.
        -11    1    3    3    0    0 -0.10796127825E+03  0.66634243423E+01 -0.14525707143E+03  0.18110675201E+03  0.00000000000E+00 0. -1.
          4    1    6    6  502    0 -0.44379886487E+02  0.93899130609E+02  0.23742208717E+02  0.10653785021E+03  0.00000000000E+00 0. -1.
          1    1    5    5  503    0  0.63991653821E+02 -0.18448986639E+03 -0.20414377603E+03  0.28249977673E+03  0.00000000000E+00 0. -1.
         -2    1    5    5    0  503  0.13463455313E+03 -0.22368064326E+03 -0.17767623033E+03  0.31579793522E+03  0.00000000000E+00 0.  1.
         -3    1    6    6    0  502  0.36128898160E+01  0.26576659988E+03  0.17236783163E+02  0.26634947960E+03  0.00000000000E+00 0.  1.
<mgrwt>
<rscale>  0 0.11910216E+04</rscale>
<asrwt>0</asrwt>
<pdfrwt beam="1">  1        2 0.51951745E-01 0.11910216E+04</pdfrwt>
<pdfrwt beam="2">  1       -2 0.16156691E+00 0.11910216E+04</pdfrwt>
<totfact> 0.23266848E+01</totfact>
</mgrwt>
</event>
<event>
12    1  0.1201209E-007  0.1415308E+04  0.7818608E-02  0.8942812E-01
          2   -1    0    0  501    0  0.00000000000E+00  0.00000000000E+00  0.31285235518E+04  0.31285235518E+04  0.00000000000E+00 0. -1.
         -2   -1    0    0    0  501 -0.00000000000E+00 -0.00000000000E+00 -0.16006714559E+03  0.16006714559E+03  0.00000000000E+00 0.  1.
         23    2    1    2    0    0 -0.24074594629E+03  0.31986720076E+03  0.10520568050E+04  0.11290961420E+04  0.88096197652E+02 0.  0.
        254    2    1    2    0    0  0.24074594629E+03 -0.31986720076E+03  0.19163996012E+04  0.21594945554E+04  0.91134826860E+03 0.  0.
        -24    2    4    4    0    0 -0.12967939020E+03 -0.10507714782E+03 -0.10535330543E+02  0.18412655470E+03  0.77030148120E+02 0.  0.
         24    2    4    4    0    0  0.37042533648E+03 -0.21479005294E+03  0.19269349317E+04  0.19753680007E+04  0.75171872423E+02 0.  0.
         13    1    3    3    0    0 -0.13396268450E+03  0.15197909247E+03  0.64399709422E+03  0.67511177056E+03  0.00000000000E+00 0. -1.
        -13    1    3    3    0    0 -0.10678326179E+03  0.16788810829E+03  0.40805971081E+03  0.45398437142E+03  0.00000000000E+00 0.  1.
          2    1    6    6  502    0  0.26895185372E+03 -0.19278343212E+03  0.14650435052E+04  0.15019497406E+04  0.00000000000E+00 0. -1.
          3    1    5    5  503    0 -0.97110987166E+02 -0.95164203334E+02 -0.37109311764E+02  0.14093924380E+03  0.00000000000E+00 0. -1.
         -4    1    5    5    0  503 -0.32568403029E+02 -0.99129444897E+01  0.26573981221E+02  0.43187310894E+02  0.00000000000E+00 0.  1.
         -1    1    6    6    0  502  0.10147348276E+03 -0.22006620813E+02  0.46189142654E+03  0.47341826007E+03  0.00000000000E+00 0.  1.
<mgrwt>
<rscale>  0 0.14153075E+04</rscale>
<asrwt>0</asrwt>
<pdfrwt beam="1">  1        2 0.48131127E+00 0.14153075E+04</pdfrwt>
<pdfrwt beam="2">  1       -2 0.24625717E-01 0.14153075E+04</pdfrwt>
<totfact> 0.20902342E+01</totfact>
</mgrwt>
</event>
<event>
12    1  0.1201209E-007  0.1112239E+04  0.7818608E-02  0.9193345E-01
         -2   -1    0    0    0  501 -0.00000000000E+00  0.00000000000E+00  0.18145188016E+03  0.18145188016E+03  0.00000000000E+00 0.  1.
          2   -1    0    0  501    0  0.00000000000E+00 -0.00000000000E+00 -0.17044119267E+04  0.17044119267E+04  0.00000000000E+00 0. -1.
         23    2    1    2    0    0  0.10344498838E+03 -0.65770596326E+02 -0.63897701657E+02  0.16589642143E+03  0.91717334266E+02 0.  0.
        254    2    1    2    0    0 -0.10344498838E+03  0.65770596326E+02 -0.14590623449E+04  0.17199673854E+04  0.90244016074E+03 0.  0.
        -24    2    4    4    0    0 -0.32220836872E+03 -0.13243695808E+03 -0.16981270680E+03  0.39483564834E+03  0.75505318192E+02 0.  0.
         24    2    4    4    0    0  0.21876338034E+03  0.19820755440E+03 -0.12892496381E+04  0.13251317371E+04  0.81644596542E+02 0.  0.
         13    1    3    3    0    0  0.86471671919E+02 -0.65467490163E+02 -0.94571527457E+01  0.10887047373E+03  0.00000000000E+00 0.  1.
        -13    1    3    3    0    0  0.16973316456E+02 -0.30310616345E+00 -0.54440548912E+02  0.57025947696E+02  0.00000000000E+00 0. -1.
          4    1    6    6  502    0  0.11669974080E+03  0.54731176287E+02 -0.48523392793E+03  0.50206204395E+03  0.00000000000E+00 0. -1.
          1    1    5    5  503    0 -0.30193992548E+02 -0.38816010627E+02 -0.31739846537E+02  0.58530143731E+02  0.00000000000E+00 0. -1.
         -2    1    5    5    0  503 -0.29201437617E+03 -0.93620947451E+02 -0.13807286026E+03  0.33630550461E+03  0.00000000000E+00 0.  1.
         -3    1    6    6    0  502  0.10206363955E+03  0.14347637812E+03 -0.80401571014E+03  0.82306969312E+03  0.00000000000E+00 0.  1.
<mgrwt>
<rscale>  0 0.11122387E+04</rscale>
<asrwt>0</asrwt>
<pdfrwt beam="1">  1        2 0.26221723E+00 0.11122387E+04</pdfrwt>
<pdfrwt beam="2">  1       -2 0.27915672E-01 0.11122387E+04</pdfrwt>
<totfact> 0.11340860E+02</totfact>
</mgrwt>
</event>
<event>
12    1  0.1201209E-007  0.1616195E+04  0.7818608E-02  0.8810660E-01
          2   -1    0    0  501    0  0.00000000000E+00  0.00000000000E+00  0.13342559317E+04  0.13342559317E+04  0.00000000000E+00 0. -1.
         -2   -1    0    0    0  501 -0.00000000000E+00 -0.00000000000E+00 -0.48942779978E+03  0.48942779978E+03  0.00000000000E+00 0.  1.
         23    2    1    2    0    0  0.17126034559E+03 -0.49899938344E+03  0.93420437895E+02  0.54309315976E+03  0.88838681404E+02 0.  0.
        254    2    1    2    0    0 -0.17126034559E+03  0.49899938344E+03  0.75140769406E+03  0.12805905718E+04  0.89273075400E+03 0.  0.
        -24    2    4    4    0    0 -0.46423299027E+03  0.36623655739E+03  0.18540264967E+03  0.62461972927E+03  0.78320996315E+02 0.  0.
         24    2    4    4    0    0  0.29297264468E+03  0.13276282605E+03  0.56600504439E+03  0.65597084249E+03  0.80480416290E+02 0.  0.
         13    1    3    3    0    0  0.31242155649E+02 -0.19043953154E+03  0.56515200268E+01  0.19306793400E+03  0.00000000000E+00 0. -1.
        -13    1    3    3    0    0  0.14001818994E+03 -0.30855985191E+03  0.87768917869E+02  0.35002522576E+03  0.00000000000E+00 0.  1.
          2    1    6    6  502    0  0.26530192934E+03  0.13663910325E+03  0.54372009113E+03  0.62023132439E+03  0.00000000000E+00 0. -1.
          3    1    5    5  503    0 -0.25496648943E+03  0.24912629569E+03  0.10307229480E+03  0.37107373915E+03  0.00000000000E+00 0. -1.
         -4    1    5    5    0  503 -0.20926650084E+03  0.11711026171E+03  0.82330354868E+02  0.25354599012E+03  0.00000000000E+00 0.  1.
         -1    1    6    6    0  502  0.27670715343E+02 -0.38762771983E+01  0.22284953258E+02  0.35739518103E+02  0.00000000000E+00 0.  1.
<mgrwt>
<rscale>  0 0.16161955E+04</rscale>
<asrwt>0</asrwt>
<pdfrwt beam="1">  1        2 0.20527014E+00 0.16161955E+04</pdfrwt>
<pdfrwt beam="2">  1       -2 0.75296585E-01 0.16161955E+04</pdfrwt>
<totfact> 0.23938159E+01</totfact>
</mgrwt>
</event>
<event>
12    1  0.1201209E-007  0.1151924E+04  0.7818608E-02  0.9156011E-01
         -2   -1    0    0    0  501 -0.00000000000E+00  0.00000000000E+00  0.20947318170E+03  0.20947318170E+03  0.00000000000E+00 0. -1.
          2   -1    0    0  501    0  0.00000000000E+00 -0.00000000000E+00 -0.15836497848E+04  0.15836497848E+04  0.00000000000E+00 0.  1.
         23    2    1    2    0    0 -0.43601833595E+02 -0.13702609539E+03 -0.51381356157E+03  0.54133609636E+03  0.91450109125E+02 0.  0.
        254    2    1    2    0    0  0.43601833595E+02  0.13702609539E+03 -0.86036304151E+03  0.12517868701E+04  0.89781319566E+03 0.  0.
        -24    2    4    4    0    0 -0.27317978724E+03  0.16055940317E+03 -0.86554087742E+03  0.92524901495E+03  0.80735438836E+02 0.  0.
         24    2    4    4    0    0  0.31678162084E+03 -0.23533307785E+02  0.51778359072E+01  0.32653785517E+03  0.75470186167E+02 0.  0.
         13    1    3    3    0    0 -0.35427885777E+02 -0.14923732816E+03 -0.48906435814E+03  0.51255327685E+03  0.00000000000E+00 0.  1.
        -13    1    3    3    0    0 -0.81739478183E+01  0.12211232765E+02 -0.24749203421E+02  0.28782819504E+02  0.00000000000E+00 0. -1.
          4    1    6    6  502    0  0.30716588257E+03 -0.17842299106E+02  0.19584093033E+02  0.30830628238E+03  0.00000000000E+00 0. -1.
          1    1    5    5  503    0 -0.91061281538E+02  0.86099166735E+02 -0.41767819680E+03  0.43607373183E+03  0.00000000000E+00 0. -1.
         -2    1    5    5    0  503 -0.18211850570E+03  0.74460236440E+02 -0.44786268062E+03  0.48917528312E+03  0.00000000000E+00 0.  1.
         -3    1    6    6    0  502  0.96157382635E+01 -0.56910086783E+01 -0.14406257125E+02  0.18231572793E+02  0.00000000000E+00 0.  1.
<mgrwt>
<rscale>  0 0.11519239E+04</rscale>
<asrwt>0</asrwt>
<pdfrwt beam="1">  1        2 0.24363843E+00 0.11519239E+04</pdfrwt>
<pdfrwt beam="2">  1       -2 0.32226643E-01 0.11519239E+04</pdfrwt>
<totfact> 0.10099776E+02</totfact>
</mgrwt>
</event>
<event>
12    1  0.1201209E-007  0.3393403E+04  0.7818608E-02  0.8139527E-01
          2   -1    0    0  501    0  0.00000000000E+00  0.00000000000E+00  0.13304233432E+04  0.13304233432E+04  0.00000000000E+00 0. -1.
         -2   -1    0    0    0  501 -0.00000000000E+00 -0.00000000000E+00 -0.21638198705E+04  0.21638198705E+04  0.00000000000E+00 0.  1.
         23    2    1    2    0    0 -0.15565175517E+04  0.18332096301E+02 -0.13269559921E+03  0.15651206161E+04  0.94400563935E+02 0.  0.
        254    2    1    2    0    0  0.15565175517E+04 -0.18332096301E+02 -0.70070092810E+03  0.19291225975E+04  0.89858179994E+03 0.  0.
        -24    2    4    4    0    0  0.15317179824E+04  0.16513096863E+03 -0.75908369550E+03  0.17193321595E+04  0.80416437790E+02 0.  0.
         24    2    4    4    0    0  0.24799569263E+02 -0.18346306494E+03  0.58382767400E+02  0.20979043802E+03  0.79559823550E+02 0.  0.
         13    1    3    3    0    0 -0.12388087573E+04  0.19241988946E+02 -0.67536137501E+02  0.12407975343E+04  0.00000000000E+00 0.  1.
        -13    1    3    3    0    0 -0.31770879440E+03 -0.90989264525E+00 -0.65159461709E+02  0.32432308181E+03  0.00000000000E+00 0. -1.
          4    1    6    6  502    0 -0.54063441919E+01  0.25104833626E+01  0.15436245136E+02  0.16547167375E+02  0.00000000000E+00 0. -1.
          1    1    5    5  503    0  0.12674918303E+03 -0.18155789607E+01 -0.80523973325E+02  0.15017577037E+03  0.00000000000E+00 0. -1.
         -4    1    5    5    0  503  0.14049687994E+04  0.16694654760E+03 -0.67855972218E+03  0.15691563891E+04  0.00000000000E+00 0.  1.
         -3    1    6    6    0  502  0.30205913455E+02 -0.18597354830E+03  0.42946522264E+02  0.19324327064E+03  0.00000000000E+00 0.  1.
<mgrwt>
<rscale>  0 0.33934033E+04</rscale>
<asrwt>0</asrwt>
<pdfrwt beam="1">  1        2 0.20468052E+00 0.33934033E+04</pdfrwt>
<pdfrwt beam="2">  1       -2 0.33289536E+00 0.33934033E+04</pdfrwt>
<totfact> 0.26190325E-01</totfact>
</mgrwt>
</event>
<event>
12    1  0.1201209E-007  0.2293884E+04  0.7818608E-02  0.8480336E-01
         -2   -1    0    0    0  501 -0.00000000000E+00  0.00000000000E+00  0.82908000278E+03  0.82908000278E+03  0.00000000000E+00 0.  1.
          2   -1    0    0  501    0  0.00000000000E+00 -0.00000000000E+00 -0.15866695545E+04  0.15866695545E+04  0.00000000000E+00 0. -1.
         23    2    1    2    0    0 -0.15001675816E+03  0.29959149102E+03  0.63685815662E+03  0.72427448883E+03  0.82006916165E+02 0.  0.
        254    2    1    2    0    0  0.15001675816E+03 -0.29959149102E+03 -0.13944477083E+04  0.16914750684E+04  0.89685194244E+03 0.  0.
        -24    2    4    4    0    0  0.19358874546E+03 -0.30612477630E+03 -0.86526206995E+02  0.38053441780E+03  0.78298643648E+02 0.  0.
         24    2    4    4    0    0 -0.43571987303E+02  0.65332852794E+01 -0.13079215013E+04  0.13109406506E+04  0.77236869268E+02 0.  0.
         11    1    3    3    0    0 -0.11313654266E+03  0.20246928887E+03  0.51031543577E+03  0.56054931469E+03  0.00000000000E+00 0.  1.
        -11    1    3    3    0    0 -0.36880215499E+02  0.97122202152E+02  0.12654272085E+03  0.16372517414E+03  0.00000000000E+00 0. -1.
          2    1    6    6  502    0 -0.32579425930E+02 -0.36914181725E+01 -0.12657854983E+04  0.12662100826E+04  0.00000000000E+00 0. -1.
          3    1    5    5  503    0  0.17761882676E+03 -0.25152407571E+03 -0.96699089626E+02  0.32274374078E+03  0.00000000000E+00 0. -1.
         -4    1    5    5    0  503  0.15969918696E+02 -0.54600700593E+02  0.10172882631E+02  0.57790677011E+02  0.00000000000E+00 0.  1.
         -1    1    6    6    0  502 -0.10992561373E+02  0.10224703452E+02 -0.42136002976E+02  0.44730567993E+02  0.00000000000E+00 0.  1.
<mgrwt>
<rscale>  0 0.22938840E+04</rscale>
<asrwt>0</asrwt>
<pdfrwt beam="1">  1        2 0.24410300E+00 0.22938840E+04</pdfrwt>
<pdfrwt beam="2">  1       -2 0.12755077E+00 0.22938840E+04</pdfrwt>
<totfact> 0.46903781E+00</totfact>
</mgrwt>
</event>
<event>
12    1  0.1201209E-007  0.1650521E+04  0.7818608E-02  0.8790098E-01
         -1   -1    0    0    0  501 -0.00000000000E+00  0.00000000000E+00  0.49225615679E+03  0.49225615679E+03  0.00000000000E+00 0.  1.
          1   -1    0    0  501    0  0.00000000000E+00 -0.00000000000E+00 -0.13835381180E+04  0.13835381180E+04  0.00000000000E+00 0. -1.
         23    2    1    2    0    0 -0.39549499435E+03 -0.38565899562E+03 -0.49343235804E+03  0.74891818647E+03  0.11069691329E+03 0.  0.
        254    2    1    2    0    0  0.39549499435E+03  0.38565899562E+03 -0.39784960313E+03  0.11268760883E+04  0.89800682635E+03 0.  0.
        -24    2    4    4    0    0  0.27485475333E+03 -0.19487197688E+03 -0.39826691031E+03  0.52869427326E+03  0.85912047635E+02 0.  0.
         24    2    4    4    0    0  0.12064024101E+03  0.58053097251E+03  0.41730718271E+00  0.59818181502E+03  0.79063467433E+02 0.  0.
         11    1    3    3    0    0 -0.10981443575E+03 -0.10894941552E+03 -0.76008245408E+02  0.17235555927E+03  0.00000000000E+00 0. -1.
        -11    1    3    3    0    0 -0.28568055859E+03 -0.27670958010E+03 -0.41742411263E+03  0.57656262720E+03  0.00000000000E+00 0.  1.
          2    1    6    6  502    0  0.78334415893E+01  0.96109627186E+02  0.26852182813E+02  0.10009726753E+03  0.00000000000E+00 0. -1.
          1    1    5    5  503    0  0.54099541613E+02 -0.27938379029E+02 -0.12854663807E+03  0.14223765882E+03  0.00000000000E+00 0. -1.
         -2    1    5    5    0  503  0.22075521172E+03 -0.16693359786E+03 -0.26972027223E+03  0.38645661445E+03  0.00000000000E+00 0.  1.
         -1    1    6    6    0  502  0.11280679942E+03  0.48442134532E+03 -0.26434875630E+02  0.49808454749E+03  0.00000000000E+00 0.  1.
<mgrwt>
<rscale>  0 0.16505213E+04</rscale>
<asrwt>0</asrwt>
<pdfrwt beam="1">  1        1 0.21285201E+00 0.16505213E+04</pdfrwt>
<pdfrwt beam="2">  1       -1 0.75731718E-01 0.16505213E+04</pdfrwt>
<totfact> 0.13208696E+01</totfact>
</mgrwt>
</event>
<event>
12    1  0.1201209E-007  0.3344622E+04  0.7818608E-02  0.8151633E-01
          1   -1    0    0  501    0  0.00000000000E+00  0.00000000000E+00  0.29125539261E+04  0.29125539261E+04  0.00000000000E+00 0. -1.
         -1   -1    0    0    0  501 -0.00000000000E+00 -0.00000000000E+00 -0.96019665021E+03  0.96019665021E+03  0.00000000000E+00 0.  1.
         23    2    1    2    0    0  0.11658026542E+04  0.19549092953E+03  0.20657342822E+04  0.23820258370E+04  0.97346964833E+02 0.  0.
        254    2    1    2    0    0 -0.11658026542E+04 -0.19549092953E+03 -0.11337700631E+03  0.14907247393E+04  0.90116223327E+03 0.  0.
        -24    2    4    4    0    0 -0.77108009149E+03 -0.53426990444E+03  0.40337102191E+02  0.94242480794E+03  0.80799743370E+02 0.  0.
         24    2    4    4    0    0 -0.39472256271E+03  0.33877897492E+03 -0.15371410850E+03  0.54829993133E+03  0.80172889397E+02 0.  0.
         13    1    3    3    0    0  0.11462995963E+04  0.18316891878E+03  0.20015096664E+04  0.23137836031E+04  0.00000000000E+00 0. -1.
        -13    1    3    3    0    0  0.19503057860E+02  0.12322010749E+02  0.64224615774E+02  0.68242233889E+02  0.00000000000E+00 0.  1.
          2    1    6    6  502    0 -0.29749327244E+02  0.25248929066E+02 -0.35700509416E+02  0.52887212661E+02  0.00000000000E+00 0. -1.
          3    1    5    5  503    0 -0.87872363129E+02 -0.32874599158E+02  0.11058918621E+02  0.94470054264E+02  0.00000000000E+00 0. -1.
         -2    1    5    5    0  503 -0.68320772836E+03 -0.50139530528E+03  0.29278183569E+02  0.84795475368E+03  0.00000000000E+00 0.  1.
         -1    1    6    6    0  502 -0.36497323546E+03  0.31353004585E+03 -0.11801359909E+03  0.49541271867E+03  0.00000000000E+00 0.  1.
<mgrwt>
<rscale>  0 0.33446223E+04</rscale>
<asrwt>0</asrwt>
<pdfrwt beam="1">  1        1 0.44808521E+00 0.33446223E+04</pdfrwt>
<pdfrwt beam="2">  1       -1 0.14772256E+00 0.33446223E+04</pdfrwt>
<totfact> 0.20776115E-01</totfact>
</mgrwt>
</event>
<event>
12    1  0.1201209E-007  0.2054806E+04  0.7818608E-02  0.8581417E-01
         -2   -1    0    0    0  501 -0.00000000000E+00  0.00000000000E+00  0.51564651222E+03  0.51564651222E+03  0.00000000000E+00 0.  1.
          2   -1    0    0  501    0  0.00000000000E+00 -0.00000000000E+00 -0.20470557408E+04  0.20470557408E+04  0.00000000000E+00 0. -1.
         23    2    1    2    0    0  0.35388574723E+03  0.28459517524E+03 -0.14764741731E+04  0.15478598902E+04  0.98309308279E+02 0.  0.
        254    2    1    2    0    0 -0.35388574723E+03 -0.28459517524E+03 -0.54935055510E+02  0.10148423628E+04  0.90590155381E+03 0.  0.
        -24    2    4    4    0    0  0.15799253996E+03 -0.35785462789E+03  0.18346025224E+03  0.44007474196E+03  0.83585506945E+02 0.  0.
         24    2    4    4    0    0 -0.51187828719E+03  0.73259452650E+02 -0.23839530775E+03  0.57476762086E+03  0.78352836127E+02 0.  0.
         13    1    3    3    0    0  0.20317564307E+03  0.10051210110E+03 -0.70815190557E+03  0.74354700307E+03  0.00000000000E+00 0. -1.
        -13    1    3    3    0    0  0.15071010416E+03  0.18408307414E+03 -0.76832226753E+03  0.80431288717E+03  0.00000000000E+00 0.  1.
          4    1    6    6  502    0 -0.21822254235E+03  0.53521045690E+02 -0.68341164221E+02  0.23485334796E+03  0.00000000000E+00 0. -1.
          1    1    5    5  503    0  0.44828611350E+02 -0.71106542737E+02  0.57609890954E+01  0.84255170826E+02  0.00000000000E+00 0. -1.
         -2    1    5    5    0  503  0.11316392861E+03 -0.28674808515E+03  0.17769926315E+03  0.35581957113E+03  0.00000000000E+00 0.  1.
         -3    1    6    6    0  502 -0.29365574485E+03  0.19738406960E+02 -0.17005414353E+03  0.33991427290E+03  0.00000000000E+00 0.  1.
<mgrwt>
<rscale>  0 0.20548062E+04</rscale>
<asrwt>0</asrwt>
<pdfrwt beam="1">  1        2 0.31493166E+00 0.20548062E+04</pdfrwt>
<pdfrwt beam="2">  1       -2 0.79330231E-01 0.20548062E+04</pdfrwt>
<totfact> 0.81946447E+00</totfact>
</mgrwt>
</event>
<event>
12    1  0.1201209E-007  0.1429249E+04  0.7818608E-02  0.8932914E-01
          1   -1    0    0  501    0  0.00000000000E+00  0.00000000000E+00  0.65754469268E+03  0.65754469268E+03  0.00000000000E+00 0. -1.
         -1   -1    0    0    0  501 -0.00000000000E+00 -0.00000000000E+00 -0.77665962914E+03  0.77665962914E+03  0.00000000000E+00 0.  1.
         23    2    1    2    0    0 -0.72593607199E+02  0.30500708062E+03  0.24587084074E+03  0.40901905110E+03  0.92438967962E+02 0.  0.
        254    2    1    2    0    0  0.72593607199E+02 -0.30500708062E+03 -0.36498577720E+03  0.10251852707E+04  0.90525746102E+03 0.  0.
        -24    2    4    4    0    0 -0.36566598518E+03 -0.19761437151E+03 -0.37785868905E+03  0.56748422769E+03  0.80610838280E+02 0.  0.
         24    2    4    4    0    0  0.43825959237E+03 -0.10739270911E+03  0.12872911853E+02  0.45770104304E+03  0.75629813284E+02 0.  0.
         11    1    3    3    0    0 -0.52348992125E+02  0.29385531056E+03  0.20511315722E+03  0.36216400675E+03  0.00000000000E+00 0. -1.
        -11    1    3    3    0    0 -0.20244615074E+02  0.11151770065E+02  0.40757683516E+02  0.46855044346E+02  0.00000000000E+00 0.  1.
          4    1    6    6  502    0  0.42980890000E+03 -0.91397483111E+02  0.11760400152E+02  0.43957649783E+03  0.00000000000E+00 0. -1.
          1    1    5    5  503    0 -0.24200682082E+03 -0.95216585869E+02 -0.26457446527E+03  0.37098941659E+03  0.00000000000E+00 0. -1.
         -2    1    5    5    0  503 -0.12365916435E+03 -0.10239778564E+03 -0.11328422378E+03  0.19649481110E+03  0.00000000000E+00 0.  1.
         -3    1    6    6    0  502  0.84506923772E+01 -0.15995226001E+02  0.11125117010E+01  0.18124545202E+02  0.00000000000E+00 0.  1.
<mgrwt>
<rscale>  0 0.14292493E+04</rscale>
<asrwt>0</asrwt>
<pdfrwt beam="1">  1        1 0.10116072E+00 0.14292493E+04</pdfrwt>
<pdfrwt beam="2">  1       -1 0.11948610E+00 0.14292493E+04</pdfrwt>
<totfact> 0.18227517E+01</totfact>
</mgrwt>
</event>
<event>
12    1  0.1201209E-007  0.1662376E+04  0.7818608E-02  0.8783119E-01
         -1   -1    0    0    0  501 -0.00000000000E+00  0.00000000000E+00  0.79345696762E+03  0.79345696762E+03  0.00000000000E+00 0.  1.
          1   -1    0    0  501    0  0.00000000000E+00 -0.00000000000E+00 -0.87071307505E+03  0.87071307505E+03  0.00000000000E+00 0. -1.
         23    2    1    2    0    0  0.20869892349E+03 -0.26363068841E+03  0.44534693669E+03  0.56594683062E+03  0.94369171496E+02 0.  0.
        254    2    1    2    0    0 -0.20869892349E+03  0.26363068841E+03 -0.52260304411E+03  0.10982232121E+04  0.90549649432E+03 0.  0.
        -24    2    4    4    0    0 -0.37158789223E+03 -0.14916290105E+03 -0.88872559488E+00  0.40843083367E+03  0.80547025764E+02 0.  0.
         24    2    4    4    0    0  0.16288896874E+03  0.41279358946E+03 -0.52171431852E+03  0.68979237838E+03  0.81831115620E+02 0.  0.
         11    1    3    3    0    0  0.81704148640E+02 -0.10109949641E+03  0.25043623471E+03  0.28216127257E+03  0.00000000000E+00 0. -1.
        -11    1    3    3    0    0  0.12699477485E+03 -0.16253119201E+03  0.19491070198E+03  0.28378555805E+03  0.00000000000E+00 0.  1.
          2    1    6    6  502    0  0.16712218321E+02  0.48336239126E+02 -0.10740690658E+03  0.11896190078E+03  0.00000000000E+00 0. -1.
          3    1    5    5  503    0 -0.19641878275E+02 -0.33718355802E+01 -0.18340067890E+02  0.27083772772E+02  0.00000000000E+00 0. -1.
         -4    1    5    5    0  503 -0.35194601395E+03 -0.14579106547E+03  0.17451342295E+02  0.38134706090E+03  0.00000000000E+00 0.  1.
         -1    1    6    6    0  502  0.14617675042E+03  0.36445735034E+03 -0.41430741193E+03  0.57083047760E+03  0.00000000000E+00 0.  1.
<mgrwt>
<rscale>  0 0.16623758E+04</rscale>
<asrwt>0</asrwt>
<pdfrwt beam="1">  1        1 0.13395586E+00 0.16623758E+04</pdfrwt>
<pdfrwt beam="2">  1       -1 0.12207030E+00 0.16623758E+04</pdfrwt>
<totfact> 0.10904752E+01</totfact>
</mgrwt>
</event>
<event>
12    1  0.1201209E-007  0.1220023E+04  0.7818608E-02  0.9095509E-01
          2   -1    0    0  501    0  0.00000000000E+00  0.00000000000E+00  0.17099654834E+04  0.17099654834E+04  0.00000000000E+00 0. -1.
         -2   -1    0    0    0  501 -0.00000000000E+00 -0.00000000000E+00 -0.21761478403E+03  0.21761478403E+03  0.00000000000E+00 0.  1.
         23    2    1    2    0    0 -0.23763542864E+03  0.83702237212E+02  0.48522822929E+03  0.55417525275E+03  0.90482676845E+02 0.  0.
        254    2    1    2    0    0  0.23763542864E+03 -0.83702237212E+02  0.10071224700E+04  0.13734050146E+04  0.89914904389E+03 0.  0.
        -24    2    4    4    0    0  0.43734893249E+03  0.13203220273E+02  0.10447759551E+04  0.11355073841E+04  0.79823612328E+02 0.  0.
         24    2    4    4    0    0 -0.19971350385E+03 -0.96905457484E+02 -0.37653485066E+02  0.23789763059E+03  0.76820221246E+02 0.  0.
         13    1    3    3    0    0  0.15434653114E+00  0.13118920587E+00  0.58996996638E+02  0.58997344396E+02  0.00000000000E+00 0.  1.
        -13    1    3    3    0    0 -0.23778977517E+03  0.83571048006E+02  0.42623123265E+03  0.49517790836E+03  0.00000000000E+00 0. -1.
          4    1    6    6  502    0 -0.98650527039E+02 -0.83652714800E+02 -0.30927188609E+00  0.12934372357E+03  0.00000000000E+00 0. -1.
          3    1    5    5  503    0  0.26764931454E+03  0.43046410041E+02  0.59452193101E+03  0.65341064840E+03  0.00000000000E+00 0. -1.
         -4    1    5    5    0  503  0.16969961795E+03 -0.29843189768E+02  0.45025402410E+03  0.48209673566E+03  0.00000000000E+00 0.  1.
         -3    1    6    6    0  502 -0.10106297682E+03 -0.13252742684E+02 -0.37344213180E+02  0.10855390702E+03  0.00000000000E+00 0.  1.
<mgrwt>
<rscale>  0 0.12200226E+04</rscale>
<asrwt>0</asrwt>
<pdfrwt beam="1">  1        2 0.26307160E+00 0.12200226E+04</pdfrwt>
<pdfrwt beam="2">  1       -2 0.33479199E-01 0.12200226E+04</pdfrwt>
<totfact> 0.79554397E+01</totfact>
</mgrwt>
</event>
<event>
12    1  0.1201209E-007  0.3359152E+04  0.7818608E-02  0.8148005E-01
         -2   -1    0    0    0  501 -0.00000000000E+00  0.00000000000E+00  0.20779619704E+04  0.20779619704E+04  0.00000000000E+00 0.  1.
          2   -1    0    0  501    0  0.00000000000E+00 -0.00000000000E+00 -0.13575681165E+04  0.13575681165E+04  0.00000000000E+00 0. -1.
         23    2    1    2    0    0  0.11130746221E+04  0.67797650875E+03  0.12076362614E+04  0.17792435201E+04  0.93460704073E+02 0.  0.
        254    2    1    2    0    0 -0.11130746221E+04 -0.67797650875E+03 -0.48724240751E+03  0.16562865668E+04  0.89849472271E+03 0.  0.
        -24    2    4    4    0    0 -0.10144804030E+04 -0.47679632312E+03 -0.11195020353E+02  0.11237791879E+04  0.79051329442E+02 0.  0.
         24    2    4    4    0    0 -0.98594219094E+02 -0.20118018564E+03 -0.47604738716E+03  0.53250737892E+03  0.82150512151E+02 0.  0.
         11    1    3    3    0    0  0.76672319029E+03  0.51622137275E+03  0.84569699492E+03  0.12528177694E+04  0.00000000000E+00 0.  1.
        -11    1    3    3    0    0  0.34635143185E+03  0.16175513600E+03  0.36193926650E+03  0.52642575071E+03  0.00000000000E+00 0. -1.
          4    1    6    6  502    0 -0.74941956501E+02 -0.19775367017E+03 -0.44965111540E+03  0.49689932229E+03  0.00000000000E+00 0. -1.
          3    1    5    5  503    0 -0.82147099286E+03 -0.35622111819E+03 -0.25599332907E+02  0.89574739910E+03  0.00000000000E+00 0. -1.
         -4    1    5    5    0  503 -0.19300941018E+03 -0.12057520493E+03  0.14404312554E+02  0.22803178876E+03  0.00000000000E+00 0.  1.
         -3    1    6    6    0  502 -0.23652262593E+02 -0.34265154688E+01 -0.26396271757E+02  0.35608056626E+02  0.00000000000E+00 0.  1.
<mgrwt>
<rscale>  0 0.33591516E+04</rscale>
<asrwt>0</asrwt>
<pdfrwt beam="1">  1        2 0.20885663E+00 0.33591516E+04</pdfrwt>
<pdfrwt beam="2">  1       -2 0.31968646E+00 0.33591516E+04</pdfrwt>
<totfact> 0.30594210E-01</totfact>
</mgrwt>
</event>
<event>
12    1  0.1201209E-007  0.1249559E+04  0.7818608E-02  0.9070551E-01
          2   -1    0    0  501    0  0.00000000000E+00  0.00000000000E+00  0.10104094260E+04  0.10104094260E+04  0.00000000000E+00 0. -1.
         -2   -1    0    0    0  501 -0.00000000000E+00 -0.00000000000E+00 -0.38632781664E+03  0.38632781664E+03  0.00000000000E+00 0.  1.
         23    2    1    2    0    0 -0.84698204703E+01  0.12355343926E+03  0.45887026410E+03  0.48481204367E+03  0.95622216024E+02 0.  0.
        254    2    1    2    0    0  0.84698204703E+01 -0.12355343926E+03  0.16521134524E+03  0.91192519895E+03  0.88824297896E+03 0.  0.
        -24    2    4    4    0    0  0.14648610086E+03 -0.27387660458E+02 -0.33611957055E+03  0.37666176498E+03  0.81789105640E+02 0.  0.
         24    2    4    4    0    0 -0.13801628039E+03 -0.96165778802E+02  0.50133091579E+03  0.53526343397E+03  0.82933141466E+02 0.  0.
         13    1    3    3    0    0  0.33540456900E+02  0.62585137504E+02  0.31619104863E+03  0.32406579721E+03  0.00000000000E+00 0. -1.
        -13    1    3    3    0    0 -0.42010277371E+02  0.60968301756E+02  0.14267921547E+03  0.16074624646E+03  0.00000000000E+00 0.  1.
          4    1    6    6  502    0 -0.20324781883E+01 -0.16185711917E+02  0.97873513286E+01  0.19023682185E+02  0.00000000000E+00 0. -1.
          1    1    5    5  503    0  0.35616710461E+02 -0.42023888357E+02 -0.14659023891E+03  0.15659902746E+03  0.00000000000E+00 0. -1.
         -2    1    5    5    0  503  0.11086939040E+03  0.14636227899E+02 -0.18952933164E+03  0.22006273752E+03  0.00000000000E+00 0.  1.
         -3    1    6    6    0  502 -0.13598380220E+03 -0.79980066885E+02  0.49154356446E+03  0.51623975178E+03  0.00000000000E+00 0.  1.
<mgrwt>
<rscale>  0 0.12495588E+04</rscale>
<asrwt>0</asrwt>
<pdfrwt beam="1">  1        2 0.15544760E+00 0.12495588E+04</pdfrwt>
<pdfrwt beam="2">  1       -2 0.59435049E-01 0.12495588E+04</pdfrwt>
<totfact> 0.64465735E+01</totfact>
</mgrwt>
</event>
<event>
12    1  0.1201209E-007  0.1250795E+04  0.7818608E-02  0.9069522E-01
          1   -1    0    0  501    0  0.00000000000E+00  0.00000000000E+00  0.11144706081E+04  0.11144706081E+04  0.00000000000E+00 0. -1.
         -1   -1    0    0    0  501 -0.00000000000E+00 -0.00000000000E+00 -0.35094889390E+03  0.35094889390E+03  0.00000000000E+00 0.  1.
         23    2    1    2    0    0  0.24022827869E+03  0.67837608395E+02  0.15427122867E+02  0.26650239361E+03  0.92054129097E+02 0.  0.
        254    2    1    2    0    0 -0.24022827869E+03 -0.67837608395E+02  0.74809459130E+03  0.11989171084E+04  0.90302001539E+03 0.  0.
        -24    2    4    4    0    0 -0.37903867240E+03  0.32921681074E+03  0.39698211932E+03  0.64506959460E+03  0.80411163179E+02 0.  0.
         24    2    4    4    0    0  0.13881039371E+03 -0.39705441913E+03  0.35111247198E+03  0.55384751377E+03  0.80910835922E+02 0.  0.
         11    1    3    3    0    0  0.37242318543E+02  0.32704957042E+02  0.33319975133E+02  0.59722903885E+02  0.00000000000E+00 0. -1.
        -11    1    3    3    0    0  0.20298596015E+03  0.35132651352E+02 -0.17892852266E+02  0.20677948972E+03  0.00000000000E+00 0.  1.
          4    1    6    6  502    0  0.29604677484E+02 -0.32088755220E+02  0.60951130924E+02  0.74974432318E+02  0.00000000000E+00 0. -1.
          1    1    5    5  503    0 -0.22432254471E+03  0.14433754270E+03  0.19251949772E+03  0.32896456846E+03  0.00000000000E+00 0. -1.
         -2    1    5    5    0  503 -0.15471612769E+03  0.18487926804E+03  0.20446262160E+03  0.31610502614E+03  0.00000000000E+00 0.  1.
         -3    1    6    6    0  502  0.10920571623E+03 -0.36496566391E+03  0.29016134106E+03  0.47887308145E+03  0.00000000000E+00 0.  1.
<mgrwt>
<rscale>  0 0.12507953E+04</rscale>
<asrwt>0</asrwt>
<pdfrwt beam="1">  1        1 0.17145702E+00 0.12507953E+04</pdfrwt>
<pdfrwt beam="2">  1       -1 0.53992138E-01 0.12507953E+04</pdfrwt>
<totfact> 0.42218921E+01</totfact>
</mgrwt>
</event>
<event>
12    1  0.1201209E-007  0.2289390E+04  0.7818608E-02  0.8482116E-01
         -2   -1    0    0    0  501 -0.00000000000E+00  0.00000000000E+00  0.78755106148E+03  0.78755106148E+03  0.00000000000E+00 0.  1.
          2   -1    0    0  501    0  0.00000000000E+00 -0.00000000000E+00 -0.16637990304E+04  0.16637990304E+04  0.00000000000E+00 0. -1.
         23    2    1    2    0    0  0.55190422168E+03 -0.62129799805E+03  0.15584993110E+03  0.85136887331E+03  0.99650816024E+02 0.  0.
        254    2    1    2    0    0 -0.55190422168E+03  0.62129799805E+03 -0.10320979000E+04  0.15999812186E+04  0.89671865837E+03 0.  0.
        -24    2    4    4    0    0 -0.25266905094E+03  0.28538913425E+03  0.80196200106E+02  0.39751860908E+03  0.79378881355E+02 0.  0.
         24    2    4    4    0    0 -0.29923517074E+03  0.33590886380E+03 -0.11122941001E+04  0.12024626095E+04  0.79634853233E+02 0.  0.
         13    1    3    3    0    0  0.20258399873E+03 -0.27555149716E+03  0.10223317081E+03  0.35696011730E+03  0.00000000000E+00 0.  1.
        -13    1    3    3    0    0  0.34932022295E+03 -0.34574650089E+03  0.53616760289E+02  0.49440875601E+03  0.00000000000E+00 0. -1.
          4    1    6    6  502    0 -0.63316258705E+02  0.12237396422E+03 -0.37095242596E+03  0.39571459167E+03  0.00000000000E+00 0. -1.
          3    1    5    5  503    0 -0.24570532208E+03  0.24876547008E+03  0.58875289884E+02  0.35457250903E+03  0.00000000000E+00 0. -1.
         -2    1    5    5    0  503 -0.69637288590E+01  0.36623664167E+02  0.21320910223E+02  0.42946100049E+02  0.00000000000E+00 0.  1.
         -3    1    6    6    0  502 -0.23591891203E+03  0.21353489958E+03 -0.74134167417E+03  0.80674801782E+03  0.00000000000E+00 0.  1.
<mgrwt>
<rscale>  0 0.22893900E+04</rscale>
<asrwt>0</asrwt>
<pdfrwt beam="1">  1        2 0.25596908E+00 0.22893900E+04</pdfrwt>
<pdfrwt beam="2">  1       -2 0.12116170E+00 0.22893900E+04</pdfrwt>
<totfact> 0.48331478E+00</totfact>
</mgrwt>
</event>
<event>
12    1  0.1201209E-007  0.1580002E+04  0.7818608E-02  0.8832929E-01
         -1   -1    0    0    0  501 -0.00000000000E+00  0.00000000000E+00  0.46641511368E+03  0.46641511368E+03  0.00000000000E+00 0.  1.
          1   -1    0    0  501    0  0.00000000000E+00 -0.00000000000E+00 -0.13380820087E+04  0.13380820087E+04  0.00000000000E+00 0. -1.
         23    2    1    2    0    0 -0.10959413268E+03 -0.96924950916E+01 -0.88906212478E+03  0.90065109893E+03  0.92930737154E+02 0.  0.
        254    2    1    2    0    0  0.10959413268E+03  0.96924950916E+01  0.17395229763E+02  0.90384602345E+03  0.89695608684E+03 0.  0.
        -24    2    4    4    0    0  0.35646922547E+02  0.25787050034E+03  0.36970611549E+03  0.45908795466E+03  0.79443314704E+02 0.  0.
         24    2    4    4    0    0  0.73947210135E+02 -0.24817800525E+03 -0.35231088573E+03  0.44475806879E+03  0.81401888060E+02 0.  0.
         13    1    3    3    0    0 -0.36712920868E+02  0.39802200773E+02 -0.27262570765E+03  0.27795112918E+03  0.00000000000E+00 0. -1.
        -13    1    3    3    0    0 -0.72881211813E+02 -0.49494695865E+02 -0.61643641713E+03  0.62269996974E+03  0.00000000000E+00 0.  1.
          4    1    6    6  502    0  0.62234777722E+02 -0.24356014507E+03 -0.35149971140E+03  0.43214205875E+03  0.00000000000E+00 0. -1.
          1    1    5    5  503    0  0.26254670862E+02  0.17887231084E+03  0.18847970853E+03  0.26116893355E+03  0.00000000000E+00 0. -1.
         -2    1    5    5    0  503  0.93922516848E+01  0.78998189506E+02  0.18122640696E+03  0.19791902111E+03  0.00000000000E+00 0.  1.
         -3    1    6    6    0  502  0.11712432413E+02 -0.46178601771E+01 -0.81117432602E+00  0.12616010044E+02  0.00000000000E+00 0.  1.
<mgrwt>
<rscale>  0 0.15800021E+04</rscale>
<asrwt>0</asrwt>
<pdfrwt beam="1">  1        1 0.20585877E+00 0.15800021E+04</pdfrwt>
<pdfrwt beam="2">  1       -1 0.71756171E-01 0.15800021E+04</pdfrwt>
<totfact> 0.16009922E+01</totfact>
</mgrwt>
</event>
<event>
12    1  0.1201209E-007  0.1698938E+04  0.7818608E-02  0.8761970E-01
          3   -1    0    0  501    0  0.00000000000E+00  0.00000000000E+00  0.11916837937E+04  0.11916837937E+04  0.00000000000E+00 0. -1.
         -3   -1    0    0    0  501 -0.00000000000E+00 -0.00000000000E+00 -0.60552772406E+03  0.60552772406E+03  0.00000000000E+00 0.  1.
         23    2    1    2    0    0  0.10724972098E+03 -0.46042906644E+03 -0.19421033718E+03  0.51919084486E+03  0.91345774054E+02 0.  0.
        254    2    1    2    0    0 -0.10724972098E+03  0.46042906644E+03  0.78036640681E+03  0.12780206729E+04  0.89491210943E+03 0.  0.
        -24    2    4    4    0    0 -0.38432126764E+03  0.23046860161E+03  0.45597988276E+02  0.45592641782E+03  0.70506090770E+02 0.  0.
         24    2    4    4    0    0  0.27707154666E+03  0.22996046483E+03  0.73476841853E+03  0.82209425508E+03  0.79396964751E+02 0.  0.
         13    1    3    3    0    0  0.72439933046E+02 -0.18602972155E+03 -0.43963042791E+02  0.20441954488E+03  0.00000000000E+00 0. -1.
        -13    1    3    3    0    0  0.34809787939E+02 -0.27439934490E+03 -0.15024729439E+03  0.31477129997E+03  0.00000000000E+00 0.  1.
          4    1    6    6  502    0  0.20366156765E+03  0.16103153124E+03  0.60080458540E+03  0.65450388695E+03  0.00000000000E+00 0. -1.
          3    1    5    5  503    0 -0.29239155236E+03  0.15712973799E+03  0.60435651528E+02  0.33739449081E+03  0.00000000000E+00 0. -1.
         -4    1    5    5    0  503 -0.91929715282E+02  0.73338863618E+02 -0.14837663252E+02  0.11853192700E+03  0.00000000000E+00 0.  1.
         -1    1    6    6    0  502  0.73409979007E+02  0.68928933589E+02  0.13396383313E+03  0.16759036813E+03  0.00000000000E+00 0.  1.
<mgrwt>
<rscale>  0 0.16989380E+04</rscale>
<asrwt>0</asrwt>
<pdfrwt beam="1">  1        3 0.18333597E+00 0.16989380E+04</pdfrwt>
<pdfrwt beam="2">  1       -3 0.93158111E-01 0.16989380E+04</pdfrwt>
<totfact> 0.48404586E-01</totfact>
</mgrwt>
</event>
<event>
12    1  0.1201209E-007  0.4088258E+04  0.7818608E-02  0.7986975E-01
          2   -1    0    0  501    0  0.00000000000E+00  0.00000000000E+00  0.16859907497E+04  0.16859907497E+04  0.00000000000E+00 0. -1.
         -2   -1    0    0    0  501 -0.00000000000E+00 -0.00000000000E+00 -0.24783424819E+04  0.24783424819E+04  0.00000000000E+00 0.  1.
         23    2    1    2    0    0  0.12772533004E+04  0.12239714466E+04  0.44543928665E+03  0.18265792988E+04  0.92161168828E+02 0.  0.
        254    2    1    2    0    0 -0.12772533004E+04 -0.12239714466E+04 -0.12377910188E+04  0.23377539328E+04  0.89637310771E+03 0.  0.
        -24    2    4    4    0    0 -0.85049631442E+03 -0.51488604719E+03 -0.21591475136E+03  0.10204116696E+04  0.78544083881E+02 0.  0.
         24    2    4    4    0    0 -0.42675698602E+03 -0.70908539945E+03 -0.10218762675E+04  0.13173422632E+04  0.78967737520E+02 0.  0.
         11    1    3    3    0    0  0.52377438263E+03  0.48635992870E+03  0.13489858100E+03  0.72738106334E+03  0.00000000000E+00 0. -1.
        -11    1    3    3    0    0  0.75347891781E+03  0.73761151793E+03  0.31054070565E+03  0.10991982355E+04  0.00000000000E+00 0.  1.
          4    1    6    6  502    0 -0.66226808054E+02 -0.92402134876E+02 -0.10251018507E+03  0.15307672154E+03  0.00000000000E+00 0. -1.
          3    1    5    5  503    0 -0.24376599635E+01  0.20049530792E+01 -0.36314002491E+01  0.48113501968E+01  0.00000000000E+00 0. -1.
         -2    1    5    5    0  503 -0.84805865445E+03 -0.51689100027E+03 -0.21228335112E+03  0.10156003194E+04  0.00000000000E+00 0.  1.
         -1    1    6    6    0  502 -0.36053017797E+03 -0.61668326457E+03 -0.91936608241E+03  0.11642655417E+04  0.00000000000E+00 0.  1.
<mgrwt>
<rscale>  0 0.40882576E+04</rscale>
<asrwt>0</asrwt>
<pdfrwt beam="1">  1        2 0.25938320E+00 0.40882576E+04</pdfrwt>
<pdfrwt beam="2">  1       -2 0.38128345E+00 0.40882576E+04</pdfrwt>
<totfact> 0.76796445E-02</totfact>
</mgrwt>
</event>
<event>
12    1  0.1201209E-007  0.2372515E+04  0.7818608E-02  0.8449866E-01
         -2   -1    0    0    0  501 -0.00000000000E+00  0.00000000000E+00  0.11489414505E+04  0.11489414505E+04  0.00000000000E+00 0.  1.
          2   -1    0    0  501    0  0.00000000000E+00 -0.00000000000E+00 -0.12247855840E+04  0.12247855840E+04  0.00000000000E+00 0. -1.
         23    2    1    2    0    0 -0.34252764172E+03 -0.89799131112E+03  0.29363421666E+03  0.10090333573E+04  0.90629370760E+02 0.  0.
        254    2    1    2    0    0  0.34252764172E+03  0.89799131112E+03 -0.36947835011E+03  0.13646936771E+04  0.89563441259E+03 0.  0.
        -24    2    4    4    0    0  0.39230374728E+03  0.10171342870E+04 -0.15891345244E+03  0.11047530478E+04  0.82227874591E+02 0.  0.
         24    2    4    4    0    0 -0.49776105562E+02 -0.11914297592E+03 -0.21056489767E+03  0.25994062929E+03  0.80986697827E+02 0.  0.
         11    1    3    3    0    0 -0.12191552036E+02 -0.68981994186E+02  0.42638825853E+02  0.82007432182E+02  0.00000000000E+00 0. -1.
        -11    1    3    3    0    0 -0.33033608969E+03 -0.82900931693E+03  0.25099539080E+03  0.92702592516E+03  0.00000000000E+00 0.  1.
          4    1    6    6  502    0 -0.59155999729E+02 -0.41657943612E+02 -0.12245388405E+03  0.14223139699E+03  0.00000000000E+00 0. -1.
          1    1    5    5  503    0  0.69826030321E+01  0.64129514057E+02 -0.19476921237E+02  0.67384729569E+02  0.00000000000E+00 0. -1.
         -4    1    5    5    0  503  0.38532114425E+03  0.95300477298E+03 -0.13943653120E+03  0.10373683183E+04  0.00000000000E+00 0.  1.
         -3    1    6    6    0  502  0.93798941673E+01 -0.77485032310E+02 -0.88111013623E+02  0.11770923230E+03  0.00000000000E+00 0.  1.
<mgrwt>
<rscale>  0 0.23725151E+04</rscale>
<asrwt>0</asrwt>
<pdfrwt beam="1">  1        2 0.18842855E+00 0.23725151E+04</pdfrwt>
<pdfrwt beam="2">  1       -2 0.17676022E+00 0.23725151E+04</pdfrwt>
<totfact> 0.31510619E+00</totfact>
</mgrwt>
</event>
<event>
12    1  0.1201209E-007  0.3149957E+04  0.7818608E-02  0.8202160E-01
         -2   -1    0    0    0  501 -0.00000000000E+00  0.00000000000E+00  0.21716328520E+04  0.21716328520E+04  0.00000000000E+00 0.  1.
          2   -1    0    0  501    0  0.00000000000E+00 -0.00000000000E+00 -0.11422541471E+04  0.11422541471E+04  0.00000000000E+00 0. -1.
         23    2    1    2    0    0 -0.55091689431E+03 -0.13291827417E+04  0.30290223839E+03  0.14731717899E+04  0.90824947573E+02 0.  0.
        254    2    1    2    0    0  0.55091689431E+03  0.13291827417E+04  0.72647646649E+03  0.18407152093E+04  0.88894782749E+03 0.  0.
        -24    2    4    4    0    0 -0.20695966024E+02  0.88090630411E+03  0.12271856657E+03  0.89267291990E+03  0.73354316264E+02 0.  0.
         24    2    4    4    0    0  0.57161286034E+03  0.44827643760E+03  0.60375789993E+03  0.94804228937E+03  0.81040447380E+02 0.  0.
         13    1    3    3    0    0 -0.54059639649E+03 -0.12980296622E+04  0.30934056929E+03  0.14397281187E+04  0.00000000000E+00 0.  1.
        -13    1    3    3    0    0 -0.10320497826E+02 -0.31153079491E+02 -0.64383309003E+01  0.33443671179E+02  0.00000000000E+00 0. -1.
          2    1    6    6  502    0  0.10347630332E+03  0.10481059175E+03  0.15835046437E+03  0.21625789016E+03  0.00000000000E+00 0. -1.
          3    1    5    5  503    0 -0.11854081760E+02  0.81197619247E+03  0.94027022065E+02  0.81748818785E+03  0.00000000000E+00 0. -1.
         -4    1    5    5    0  503 -0.88418842639E+01  0.68930111636E+02  0.28691544501E+02  0.75184732049E+02  0.00000000000E+00 0.  1.
         -1    1    6    6    0  502  0.46813655702E+03  0.34346584584E+03  0.44540743556E+03  0.73178439921E+03  0.00000000000E+00 0.  1.
<mgrwt>
<rscale>  0 0.31499566E+04</rscale>
<asrwt>0</asrwt>
<pdfrwt beam="1">  1        2 0.17573141E+00 0.31499566E+04</pdfrwt>
<pdfrwt beam="2">  1       -2 0.33409736E+00 0.31499566E+04</pdfrwt>
<totfact> 0.33959736E-01</totfact>
</mgrwt>
</event>
<event>
12    1  0.1201209E-007  0.1346597E+04  0.7818608E-02  0.8993408E-01
         -2   -1    0    0    0  501 -0.00000000000E+00  0.00000000000E+00  0.25180210731E+03  0.25180210731E+03  0.00000000000E+00 0.  1.
          2   -1    0    0  501    0  0.00000000000E+00 -0.00000000000E+00 -0.18003447403E+04  0.18003447403E+04  0.00000000000E+00 0. -1.
         23    2    1    2    0    0 -0.34571484731E+03  0.14964089942E+03 -0.33882605047E+03  0.51556199222E+03  0.95341076718E+02 0.  0.
        254    2    1    2    0    0  0.34571484731E+03 -0.14964089942E+03 -0.12097165825E+04  0.15365848554E+04  0.86934898247E+03 0.  0.
        -24    2    4    4    0    0  0.58485348633E+03  0.92350358414E+02 -0.81503420701E+03  0.10105671693E+04  0.79894029784E+02 0.  0.
         24    2    4    4    0    0 -0.23913863902E+03 -0.24199125783E+03 -0.39468237549E+03  0.52601768601E+03  0.71926149186E+02 0.  0.
         11    1    3    3    0    0 -0.27461991792E+02  0.38237143902E+02 -0.69853254391E+02  0.84236080844E+02  0.00000000000E+00 0. -1.
        -11    1    3    3    0    0 -0.31825285552E+03  0.11140375552E+03 -0.26897279608E+03  0.43132591137E+03  0.00000000000E+00 0.  1.
          4    1    6    6  502    0 -0.59966037033E+01 -0.32215763284E+01  0.24983440133E+01  0.72511745823E+01  0.00000000000E+00 0. -1.
          1    1    5    5  503    0  0.25934512758E+03  0.37816379446E+02 -0.42850295842E+03  0.50229947156E+03  0.00000000000E+00 0. -1.
         -2    1    5    5    0  503  0.32550835875E+03  0.54533978968E+02 -0.38653124858E+03  0.50826769778E+03  0.00000000000E+00 0.  1.
         -3    1    6    6    0  502 -0.23314203532E+03 -0.23876968151E+03 -0.39718071950E+03  0.51876651143E+03  0.00000000000E+00 0.  1.
<mgrwt>
<rscale>  0 0.13465966E+04</rscale>
<asrwt>0</asrwt>
<pdfrwt beam="1">  1        2 0.27697612E+00 0.13465966E+04</pdfrwt>
<pdfrwt beam="2">  1       -2 0.38738785E-01 0.13465966E+04</pdfrwt>
<totfact> 0.53062461E+01</totfact>
</mgrwt>
</event>
<event>
12    1  0.1201209E-007  0.2459002E+04  0.7818608E-02  0.8417739E-01
          2   -1    0    0  501    0  0.00000000000E+00  0.00000000000E+00  0.15698997868E+04  0.15698997868E+04  0.00000000000E+00 0. -1.
         -2   -1    0    0    0  501 -0.00000000000E+00 -0.00000000000E+00 -0.96291044495E+03  0.96291044495E+03  0.00000000000E+00 0.  1.
         23    2    1    2    0    0  0.17802131129E+03  0.10538272332E+04  0.36895853343E+03  0.11342796022E+04  0.90644315272E+02 0.  0.
        254    2    1    2    0    0 -0.17802131129E+03 -0.10538272332E+04  0.23803080841E+03  0.13985306296E+04  0.87004932703E+03 0.  0.
        -24    2    4    4    0    0  0.13660953177E+03 -0.70723090134E+03  0.47602194967E+03  0.86699491303E+03  0.79028923004E+02 0.  0.
         24    2    4    4    0    0 -0.31463084306E+03 -0.34659633182E+03 -0.23799114126E+03  0.53153571654E+03  0.82273021103E+02 0.  0.
         13    1    3    3    0    0  0.10481034768E+02  0.75517415387E+01  0.30331136643E+01  0.13269539125E+02  0.00000000000E+00 0. -1.
        -13    1    3    3    0    0  0.16754027652E+03  0.10462754916E+04  0.36592541976E+03  0.11210100630E+04  0.00000000000E+00 0.  1.
          2    1    6    6  502    0 -0.43408419046E+01 -0.12934174145E+02  0.57389834636E+01  0.14801070923E+02  0.00000000000E+00 0. -1.
          1    1    5    5  503    0  0.10802756936E+02 -0.14339303474E+02  0.24804193144E+02  0.30619653477E+02  0.00000000000E+00 0. -1.
         -2    1    5    5    0  503  0.12580677483E+03 -0.69289159787E+03  0.45121775653E+03  0.83637525956E+03  0.00000000000E+00 0.  1.
         -1    1    6    6    0  502 -0.31029000115E+03 -0.33366215767E+03 -0.24373012473E+03  0.51673464561E+03  0.00000000000E+00 0.  1.
<mgrwt>
<rscale>  0 0.24590022E+04</rscale>
<asrwt>0</asrwt>
<pdfrwt beam="1">  1        2 0.24152304E+00 0.24590022E+04</pdfrwt>
<pdfrwt beam="2">  1       -2 0.14814007E+00 0.24590022E+04</pdfrwt>
<totfact> 0.32135822E+00</totfact>
</mgrwt>
</event>
<event>
12    1  0.1201209E-007  0.2263062E+04  0.7818608E-02  0.8492629E-01
          1   -1    0    0  501    0  0.00000000000E+00  0.00000000000E+00  0.19581225452E+04  0.19581225452E+04  0.00000000000E+00 0. -1.
         -1   -1    0    0    0  501 -0.00000000000E+00 -0.00000000000E+00 -0.65387272346E+03  0.65387272346E+03  0.00000000000E+00 0.  1.
         23    2    1    2    0    0 -0.15130273356E+03 -0.50157207629E+03  0.14659171260E+04  0.15593483422E+04  0.90482965755E+02 0.  0.
        254    2    1    2    0    0  0.15130273356E+03  0.50157207629E+03 -0.16166730427E+03  0.10526469264E+04  0.89858898813E+03 0.  0.
        -24    2    4    4    0    0 -0.11415356151E+03 -0.92405824421E+02  0.23369950143E+03  0.28723638058E+03  0.79494712826E+02 0.  0.
         24    2    4    4    0    0  0.26545629506E+03  0.59397790072E+03 -0.39536680571E+03  0.76541054587E+03  0.79130282089E+02 0.  0.
         13    1    3    3    0    0 -0.46784813016E+02 -0.66887887986E+02  0.17233233264E+03  0.19068623748E+03  0.00000000000E+00 0.  1.
        -13    1    3    3    0    0 -0.10451792054E+03 -0.43468418831E+03  0.12935847934E+04  0.13686621047E+04  0.00000000000E+00 0. -1.
          4    1    6    6  502    0  0.14183933780E+03  0.39482540087E+03 -0.27791315362E+03  0.50323077795E+03  0.00000000000E+00 0. -1.
          1    1    5    5  503    0 -0.65202910498E+02 -0.13149705716E+02  0.14057530388E+03  0.15551768503E+03  0.00000000000E+00 0. -1.
         -2    1    5    5    0  503 -0.48950651009E+02 -0.79256118705E+02  0.93124197555E+02  0.13171869555E+03  0.00000000000E+00 0.  1.
         -3    1    6    6    0  502  0.12361695726E+03  0.19915249984E+03 -0.11745365209E+03  0.26217976792E+03  0.00000000000E+00 0.  1.
<mgrwt>
<rscale>  0 0.22630625E+04</rscale>
<asrwt>0</asrwt>
<pdfrwt beam="1">  1        1 0.30124962E+00 0.22630625E+04</pdfrwt>
<pdfrwt beam="2">  1       -1 0.10059580E+00 0.22630625E+04</pdfrwt>
<totfact> 0.27119655E+00</totfact>
</mgrwt>
</event>
<event>
12    1  0.1201209E-007  0.1408891E+04  0.7818608E-02  0.8947408E-01
          2   -1    0    0  501    0  0.00000000000E+00  0.00000000000E+00  0.21654779659E+04  0.21654779659E+04  0.00000000000E+00 0. -1.
         -2   -1    0    0    0  501 -0.00000000000E+00 -0.00000000000E+00 -0.22916124361E+03  0.22916124361E+03  0.00000000000E+00 0.  1.
         23    2    1    2    0    0  0.60975938616E+02  0.37512191627E+03  0.34467147076E+03  0.52099841787E+03  0.90589246128E+02 0.  0.
        254    2    1    2    0    0 -0.60975938616E+02 -0.37512191627E+03  0.15916452515E+04  0.18736407916E+04  0.91255722681E+03 0.  0.
        -24    2    4    4    0    0 -0.24969940000E+03 -0.40409542270E+03  0.15953858654E+04  0.16665482462E+04  0.80523886028E+02 0.  0.
         24    2    4    4    0    0  0.18872346139E+03  0.28973506424E+02 -0.37406139031E+01  0.20709254545E+03  0.80108184581E+02 0.  0.
         11    1    3    3    0    0  0.22394507011E+02  0.20832652397E+02  0.10193999161E+02  0.32240207336E+02  0.00000000000E+00 0. -1.
        -11    1    3    3    0    0  0.38581431605E+02  0.35428926388E+03  0.33447747159E+03  0.48875821054E+03  0.00000000000E+00 0.  1.
          4    1    6    6  502    0  0.16713107343E+03  0.20015944672E+01 -0.21024767299E+02  0.16846021171E+03  0.00000000000E+00 0. -1.
          1    1    5    5  503    0 -0.22443319669E+03 -0.39496302399E+03  0.15244159176E+04  0.15906633647E+04  0.00000000000E+00 0. -1.
         -2    1    5    5    0  503 -0.25266203317E+02 -0.91323987103E+01  0.70969947876E+02  0.75884881484E+02  0.00000000000E+00 0.  1.
         -3    1    6    6    0  502  0.21592387953E+02  0.26971911956E+02  0.17284153396E+02  0.38632333747E+02  0.00000000000E+00 0.  1.
<mgrwt>
<rscale>  0 0.14088912E+04</rscale>
<asrwt>0</asrwt>
<pdfrwt beam="1">  1        2 0.33315044E+00 0.14088912E+04</pdfrwt>
<pdfrwt beam="2">  1       -2 0.35255578E-01 0.14088912E+04</pdfrwt>
<totfact> 0.39732129E+01</totfact>
</mgrwt>
</event>
<event>
12    1  0.1201209E-007  0.1815968E+04  0.7818608E-02  0.8697854E-01
         -1   -1    0    0    0  501 -0.00000000000E+00  0.00000000000E+00  0.29303104722E+03  0.29303104722E+03  0.00000000000E+00 0.  1.
          1   -1    0    0  501    0  0.00000000000E+00 -0.00000000000E+00 -0.28134735963E+04  0.28134735963E+04  0.00000000000E+00 0. -1.
         23    2    1    2    0    0  0.17573435230E+02 -0.39367018433E+03 -0.19086350421E+04  0.19510293387E+04  0.91338475583E+02 0.  0.
        254    2    1    2    0    0 -0.17573435230E+02  0.39367018433E+03 -0.61180750698E+03  0.11554753048E+04  0.89751307213E+03 0.  0.
        -24    2    4    4    0    0  0.16277831982E+02  0.25713675156E+03  0.19478884686E+03  0.33292808248E+03  0.80710200244E+02 0.  0.
         24    2    4    4    0    0 -0.33851267212E+02  0.13653343276E+03 -0.80659635383E+03  0.82254722228E+03  0.78733527175E+02 0.  0.
         13    1    3    3    0    0 -0.18004463979E+02 -0.20815268250E+03 -0.82444489396E+03  0.85050636866E+03  0.00000000000E+00 0. -1.
        -13    1    3    3    0    0  0.35577899209E+02 -0.18551750182E+03 -0.10841901481E+04  0.11005229701E+04  0.00000000000E+00 0.  1.
          2    1    6    6  502    0 -0.34767919304E+02  0.14321319802E+03 -0.68070760091E+03  0.69647804433E+03  0.00000000000E+00 0. -1.
          1    1    5    5  503    0  0.42256228734E+01  0.19211908264E+03  0.18376651140E+03  0.26589044458E+03  0.00000000000E+00 0. -1.
         -2    1    5    5    0  503  0.12052209109E+02  0.65017668918E+02  0.11022335451E+02  0.67037637897E+02  0.00000000000E+00 0.  1.
         -1    1    6    6    0  502  0.91665209107E+00 -0.66797652528E+01 -0.12588875293E+03  0.12606917795E+03  0.00000000000E+00 0.  1.
<mgrwt>
<rscale>  0 0.18159682E+04</rscale>
<asrwt>0</asrwt>
<pdfrwt beam="1">  1        1 0.43284212E+00 0.18159682E+04</pdfrwt>
<pdfrwt beam="2">  1       -1 0.45081697E-01 0.18159682E+04</pdfrwt>
<totfact> 0.37571131E+00</totfact>
</mgrwt>
</event>
<event>
12    1  0.1201209E-007  0.1648757E+04  0.7818608E-02  0.8791142E-01
         -1   -1    0    0    0  501 -0.00000000000E+00  0.00000000000E+00  0.30152302663E+03  0.30152302663E+03  0.00000000000E+00 0.  1.
          1   -1    0    0  501    0  0.00000000000E+00 -0.00000000000E+00 -0.22538914782E+04  0.22538914782E+04  0.00000000000E+00 0. -1.
         23    2    1    2    0    0  0.21825068325E+03  0.22676022819E+03 -0.12866308566E+04  0.13275109807E+04  0.88390502216E+02 0.  0.
        254    2    1    2    0    0 -0.21825068325E+03 -0.22676022819E+03 -0.66573759499E+03  0.12279035242E+04  0.98259195875E+03 0.  0.
        -24    2    4    4    0    0  0.17297090106E+03 -0.48437068119E+03 -0.18527297715E+03  0.55203448158E+03  0.76694871952E+02 0.  0.
         24    2    4    4    0    0 -0.39122158431E+03  0.25761045299E+03 -0.48046461785E+03  0.67586904258E+03  0.80840832452E+02 0.  0.
         11    1    3    3    0    0  0.48087659642E+02  0.27096442904E+02 -0.12530320352E+03  0.13692163102E+03  0.00000000000E+00 0.  1.
        -11    1    3    3    0    0  0.17016302361E+03  0.19966378529E+03 -0.11613276531E+04  0.11905893497E+04  0.00000000000E+00 0. -1.
          4    1    6    6  502    0 -0.22011205754E+03  0.17919519745E+03 -0.32710718288E+03  0.43308122304E+03  0.00000000000E+00 0. -1.
          1    1    5    5  503    0 -0.97248407260E-01 -0.48303615026E+02 -0.19786581829E+01  0.48344221682E+02  0.00000000000E+00 0. -1.
         -2    1    5    5    0  503  0.17306814946E+03 -0.43606706616E+03 -0.18329431896E+03  0.50369025989E+03  0.00000000000E+00 0.  1.
         -3    1    6    6    0  502 -0.17110952677E+03  0.78415255541E+02 -0.15335743497E+03  0.24278781953E+03  0.00000000000E+00 0.  1.
<mgrwt>
<rscale>  0 0.16487573E+04</rscale>
<asrwt>0</asrwt>
<pdfrwt beam="1">  1        1 0.34675252E+00 0.16487573E+04</pdfrwt>
<pdfrwt beam="2">  1       -1 0.46388160E-01 0.16487573E+04</pdfrwt>
<totfact> 0.88571499E+00</totfact>
</mgrwt>
</event>
<event>
12    1  0.1748682E-007  0.2567886E+04  0.7818608E-02  0.8379192E-01
          1   -1    0    0  501    0  0.00000000000E+00  0.00000000000E+00  0.12718140229E+04  0.12718140229E+04  0.00000000000E+00 0. -1.
         -1   -1    0    0    0  501 -0.00000000000E+00 -0.00000000000E+00 -0.12961880183E+04  0.12961880183E+04  0.00000000000E+00 0.  1.
         23    2    1    2    0    0 -0.49380817694E+03  0.74669752979E+03 -0.68886152154E+03  0.11318034976E+04  0.71029885715E+02 0.  0.
        254    2    1    2    0    0  0.49380817694E+03 -0.74669752979E+03  0.66448752615E+03  0.14361985436E+04  0.90538327107E+03 0.  0.
        -24    2    4    4    0    0  0.23652906442E+03 -0.38818266791E+03  0.83753944034E+03  0.95611242617E+03  0.77761657421E+02 0.  0.
         24    2    4    4    0    0  0.25727911252E+03 -0.35851486188E+03 -0.17305191419E+03  0.48008611740E+03  0.76225108640E+02 0.  0.
         11    1    3    3    0    0 -0.10415206987E+03  0.16278261601E+03 -0.18661379355E+03  0.26864575499E+03  0.00000000000E+00 0. -1.
        -11    1    3    3    0    0 -0.38965610707E+03  0.58391491378E+03 -0.50224772799E+03  0.86315774258E+03  0.00000000000E+00 0.  1.
          2    1    6    6  502    0  0.40919836849E+02 -0.34035888050E+02 -0.44716882629E+02  0.69516000425E+02  0.00000000000E+00 0. -1.
          1    1    5    5  503    0  0.74565013965E+02 -0.16445214087E+03  0.26829669562E+03  0.32340000746E+03  0.00000000000E+00 0. -1.
         -2    1    5    5    0  503  0.16196405046E+03 -0.22373052703E+03  0.56924274472E+03  0.63271241871E+03  0.00000000000E+00 0.  1.
         -1    1    6    6    0  502  0.21635927567E+03 -0.32447897383E+03 -0.12833503156E+03  0.41057011697E+03  0.00000000000E+00 0.  1.
<mgrwt>
<rscale>  0 0.25678864E+04</rscale>
<asrwt>0</asrwt>
<pdfrwt beam="1">  1        1 0.19566370E+00 0.25678864E+04</pdfrwt>
<pdfrwt beam="2">  1       -1 0.19941354E+00 0.25678864E+04</pdfrwt>
<totfact> 0.12715773E+00</totfact>
</mgrwt>
</event>
<event>
12    1  0.1288455E-007  0.1801058E+04  0.7818608E-02  0.8705737E-01
          1   -1    0    0  501    0  0.00000000000E+00  0.00000000000E+00  0.24874070755E+04  0.24874070755E+04  0.00000000000E+00 0. -1.
         -1   -1    0    0    0  501 -0.00000000000E+00 -0.00000000000E+00 -0.32602322380E+03  0.32602322380E+03  0.00000000000E+00 0.  1.
         23    2    1    2    0    0  0.26830692448E+03 -0.53043149969E+03  0.32313723961E+03  0.68260085570E+03  0.90443744889E+02 0.  0.
        254    2    1    2    0    0 -0.26830692448E+03  0.53043149969E+03  0.18382466121E+04  0.21308294436E+04  0.89885334135E+03 0.  0.
        -24    2    4    4    0    0 -0.30448257142E+03 -0.15657317550E+03  0.89211710091E+03  0.95828931344E+03  0.72254348873E+02 0.  0.
         24    2    4    4    0    0  0.36175646940E+02  0.68700467519E+03  0.94612951124E+03  0.11725401302E+04  0.80032516863E+02 0.  0.
         11    1    3    3    0    0  0.46671759978E+02 -0.34625116996E+02  0.28233706460E+02  0.64608777165E+02  0.00000000000E+00 0. -1.
        -11    1    3    3    0    0  0.22163516451E+03 -0.49580638269E+03  0.29490353315E+03  0.61799207853E+03  0.00000000000E+00 0.  1.
          2    1    6    6  502    0  0.12408097533E+02  0.45267774059E+03  0.55924604582E+03  0.71960213832E+03  0.00000000000E+00 0. -1.
          1    1    5    5  503    0 -0.29256898937E+03 -0.15329174725E+03  0.88350696501E+03  0.94322824944E+03  0.00000000000E+00 0. -1.
         -2    1    5    5    0  503 -0.11913582051E+02 -0.32814282497E+01  0.86101358997E+01  0.15061064002E+02  0.00000000000E+00 0.  1.
         -1    1    6    6    0  502  0.23767549406E+02  0.23432693460E+03  0.38688346542E+03  0.45293799189E+03  0.00000000000E+00 0.  1.
<mgrwt>
<rscale>  0 0.18010580E+04</rscale>
<asrwt>0</asrwt>
<pdfrwt beam="1">  1        1 0.38267800E+00 0.18010580E+04</pdfrwt>
<pdfrwt beam="2">  1       -1 0.50157421E-01 0.18010580E+04</pdfrwt>
<totfact> 0.52091597E+00</totfact>
</mgrwt>
</event>
<event>
12    1  0.1201209E-007  0.1341352E+04  0.7818608E-02  0.8997400E-01
         -2   -1    0    0    0  501 -0.00000000000E+00  0.00000000000E+00  0.52140798367E+03  0.52140798367E+03  0.00000000000E+00 0.  1.
          2   -1    0    0  501    0  0.00000000000E+00 -0.00000000000E+00 -0.86267660236E+03  0.86267660236E+03  0.00000000000E+00 0. -1.
         23    2    1    2    0    0  0.34173928744E+03 -0.77835156101E+02 -0.18637457445E+03  0.40725025309E+03  0.90957322590E+02 0.  0.
        254    2    1    2    0    0 -0.34173928744E+03  0.77835156101E+02 -0.15489404423E+03  0.97683433294E+03  0.89853719843E+03 0.  0.
        -24    2    4    4    0    0 -0.15629365117E+02 -0.30693867808E+03 -0.31068509096E+03  0.44417436921E+03  0.79435605147E+02 0.  0.
         24    2    4    4    0    0 -0.32610992233E+03  0.38477383418E+03  0.15579104672E+03  0.53265996373E+03  0.71114005704E+02 0.  0.
         13    1    3    3    0    0  0.14343484727E+03  0.77353707067E+01 -0.98005023823E+02  0.17389185164E+03  0.00000000000E+00 0.  1.
        -13    1    3    3    0    0  0.19830444018E+03 -0.85570526807E+02 -0.88369550632E+02  0.23335840146E+03  0.00000000000E+00 0. -1.
          2    1    6    6  502    0 -0.11108707230E+02 -0.11367885800E+01  0.45461803152E+01  0.12056675332E+02  0.00000000000E+00 0. -1.
          3    1    5    5  503    0  0.24809208953E+02 -0.12312545353E+03 -0.15787342300E+03  0.20174090276E+03  0.00000000000E+00 0. -1.
         -4    1    5    5    0  503 -0.40438574069E+02 -0.18381322455E+03 -0.15281166796E+03  0.24243346645E+03  0.00000000000E+00 0.  1.
         -1    1    6    6    0  502 -0.31500121510E+03  0.38591062276E+03  0.15124486641E+03  0.52060328840E+03  0.00000000000E+00 0.  1.
<mgrwt>
<rscale>  0 0.13413523E+04</rscale>
<asrwt>0</asrwt>
<pdfrwt beam="1">  1        2 0.13271948E+00 0.13413523E+04</pdfrwt>
<pdfrwt beam="2">  1       -2 0.80216613E-01 0.13413523E+04</pdfrwt>
<totfact> 0.41777252E+01</totfact>
</mgrwt>
</event>
<event>
12    1  0.1201209E-007  0.2866692E+04  0.7818608E-02  0.8282857E-01
          2   -1    0    0  501    0  0.00000000000E+00  0.00000000000E+00  0.20158726212E+04  0.20158726212E+04  0.00000000000E+00 0. -1.
         -2   -1    0    0    0  501 -0.00000000000E+00 -0.00000000000E+00 -0.10191519031E+04  0.10191519031E+04  0.00000000000E+00 0.  1.
         23    2    1    2    0    0 -0.99123797766E+03  0.25923403131E+03  0.12690798948E+04  0.16336981422E+04  0.93009833157E+02 0.  0.
        254    2    1    2    0    0  0.99123797766E+03 -0.25923403131E+03 -0.27235917672E+03  0.14013263820E+04  0.91639570955E+03 0.  0.
        -24    2    4    4    0    0  0.10897162145E+04 -0.39537448905E+03 -0.32817977498E+03  0.12073152590E+04  0.78139332596E+02 0.  0.
         24    2    4    4    0    0 -0.98478236806E+02  0.13614045774E+03  0.55820598261E+02  0.19401112300E+03  0.79323321289E+02 0.  0.
         13    1    3    3    0    0 -0.69428461834E+03  0.21115973647E+03  0.94554612512E+03  0.11919215747E+04  0.00000000000E+00 0. -1.
        -13    1    3    3    0    0 -0.29695335932E+03  0.48074294834E+02  0.32353376969E+03  0.44177656747E+03  0.00000000000E+00 0.  1.
          2    1    6    6  502    0 -0.11239079075E+03  0.12138421625E+03  0.47709092246E+02  0.17216845032E+03  0.00000000000E+00 0. -1.
          3    1    5    5  503    0  0.77531407290E+03 -0.25111989601E+03 -0.25285361726E+03  0.85329248536E+03  0.00000000000E+00 0. -1.
         -4    1    5    5    0  503  0.31440214157E+03 -0.14425459304E+03 -0.75326157720E+02  0.35402277367E+03  0.00000000000E+00 0.  1.
         -3    1    6    6    0  502  0.13912553948E+02  0.14756241489E+02  0.81115060150E+01  0.21842672686E+02  0.00000000000E+00 0.  1.
<mgrwt>
<rscale>  0 0.28666918E+04</rscale>
<asrwt>0</asrwt>
<pdfrwt beam="1">  1        2 0.31013425E+00 0.28666918E+04</pdfrwt>
<pdfrwt beam="2">  1       -2 0.15679260E+00 0.28666918E+04</pdfrwt>
<totfact> 0.15079089E+00</totfact>
</mgrwt>
</event>
<event>
12    1  0.1201209E-007  0.1401542E+04  0.7818608E-02  0.8952703E-01
         -1   -1    0    0    0  501 -0.00000000000E+00  0.00000000000E+00  0.81607354154E+03  0.81607354154E+03  0.00000000000E+00 0.  1.
          1   -1    0    0  501    0  0.00000000000E+00 -0.00000000000E+00 -0.60175924236E+03  0.60175924236E+03  0.00000000000E+00 0. -1.
         23    2    1    2    0    0 -0.37235490504E+03 -0.91965102760E+02  0.18212292275E+03  0.43483233032E+03  0.93833048931E+02 0.  0.
        254    2    1    2    0    0  0.37235490504E+03  0.91965102760E+02  0.32191376432E+02  0.98300045358E+03  0.90451525780E+03 0.  0.
        -24    2    4    4    0    0 -0.58846249637E+02  0.29852778091E+03 -0.26703586828E+03  0.41326443992E+03  0.83051943278E+02 0.  0.
         24    2    4    4    0    0  0.43120115467E+03 -0.20656267815E+03  0.29922724471E+03  0.56973601366E+03  0.80371670933E+02 0.  0.
         11    1    3    3    0    0 -0.43201191299E+01 -0.66895635724E+01 -0.85268181856E+01  0.11667061261E+02  0.00000000000E+00 0. -1.
        -11    1    3    3    0    0 -0.36803478591E+03 -0.85275539187E+02  0.19064974093E+03  0.42316526906E+03  0.00000000000E+00 0.  1.
          4    1    6    6  502    0  0.22773374526E+03 -0.11265640191E+03  0.11175745157E+03  0.27756774237E+03  0.00000000000E+00 0. -1.
          1    1    5    5  503    0 -0.60672945809E+02  0.28938249809E+03 -0.22867332042E+03  0.37378459576E+03  0.00000000000E+00 0. -1.
         -2    1    5    5    0  503  0.18266961721E+01  0.91452828221E+01 -0.38362547860E+02  0.39479844163E+02  0.00000000000E+00 0.  1.
         -3    1    6    6    0  502  0.20346740942E+03 -0.93906276240E+02  0.18746979314E+03  0.29216827130E+03  0.00000000000E+00 0.  1.
<mgrwt>
<rscale>  0 0.14015417E+04</rscale>
<asrwt>0</asrwt>
<pdfrwt beam="1">  1        1 0.92578345E-01 0.14015417E+04</pdfrwt>
<pdfrwt beam="2">  1       -1 0.12554977E+00 0.14015417E+04</pdfrwt>
<totfact> 0.18410255E+01</totfact>
</mgrwt>
</event>
<event>
12    1  0.1201209E-007  0.2447526E+04  0.7818608E-02  0.8421922E-01
         -4   -1    0    0    0  501 -0.00000000000E+00  0.00000000000E+00  0.68751751063E+03  0.68751751063E+03  0.00000000000E+00 0.  1.
          4   -1    0    0  501    0  0.00000000000E+00 -0.00000000000E+00 -0.21782659161E+04  0.21782659161E+04  0.00000000000E+00 0. -1.
         23    2    1    2    0    0 -0.85938441341E+03  0.60692624605E+03 -0.55978750195E+03  0.11954893686E+04  0.94507908849E+02 0.  0.
        254    2    1    2    0    0  0.85938441341E+03 -0.60692624605E+03 -0.93096090347E+03  0.16702940581E+04  0.90348934620E+03 0.  0.
        -24    2    4    4    0    0  0.32648811125E+03 -0.45292504682E+03  0.22740481455E+02  0.56410451318E+03  0.77208726646E+02 0.  0.
         24    2    4    4    0    0  0.53289630215E+03 -0.15400119923E+03 -0.95370138492E+03  0.11061895450E+04  0.80088323399E+02 0.  0.
         13    1    3    3    0    0 -0.54734486184E+03  0.41889537472E+03 -0.32459741998E+03  0.76185511602E+03  0.00000000000E+00 0. -1.
        -13    1    3    3    0    0 -0.31203955157E+03  0.18803087133E+03 -0.23519008198E+03  0.43363425254E+03  0.00000000000E+00 0.  1.
          4    1    6    6  502    0  0.33579457362E+03 -0.13529149380E+03 -0.63730710577E+03  0.73295438537E+03  0.00000000000E+00 0. -1.
          3    1    5    5  503    0  0.24536877624E+03 -0.34374279039E+03  0.50313390744E+02  0.42531915027E+03  0.00000000000E+00 0. -1.
         -4    1    5    5    0  503  0.81119335013E+02 -0.10918225642E+03 -0.27572909289E+02  0.13878536291E+03  0.00000000000E+00 0.  1.
         -3    1    6    6    0  502  0.19710172853E+03 -0.18709705427E+02 -0.31639427915E+03  0.37323515958E+03  0.00000000000E+00 0.  1.
<mgrwt>
<rscale>  0 0.24475261E+04</rscale>
<asrwt>0</asrwt>
<pdfrwt beam="1">  1        4 0.33511783E+00 0.24475261E+04</pdfrwt>
<pdfrwt beam="2">  1       -4 0.10577193E+00 0.24475261E+04</pdfrwt>
<totfact> 0.23885615E-02</totfact>
</mgrwt>
</event>
<event>
12    1  0.1201209E-007  0.1715827E+04  0.7818608E-02  0.8752389E-01
         -2   -1    0    0    0  501 -0.00000000000E+00  0.00000000000E+00  0.80510647606E+03  0.80510647606E+03  0.00000000000E+00 0.  1.
          2   -1    0    0  501    0  0.00000000000E+00 -0.00000000000E+00 -0.91418444270E+03  0.91418444270E+03  0.00000000000E+00 0. -1.
         23    2    1    2    0    0 -0.58427482940E+03  0.19846225362E+03 -0.65904243145E+02  0.62752961647E+03  0.93197145316E+02 0.  0.
        254    2    1    2    0    0  0.58427482940E+03 -0.19846225362E+03 -0.43173723499E+02  0.10917613023E+04  0.89961904627E+03 0.  0.
        -24    2    4    4    0    0  0.86939180473E+02  0.21590217056E+02  0.37961194867E+03  0.39818802664E+03  0.80149325723E+02 0.  0.
         24    2    4    4    0    0  0.49733564893E+03 -0.22005247068E+03 -0.42278567217E+03  0.69357327565E+03  0.80810435983E+02 0.  0.
         11    1    3    3    0    0 -0.77465887709E+02  0.55238130434E+02  0.90168633188E+01  0.95569444052E+02  0.00000000000E+00 0.  1.
        -11    1    3    3    0    0 -0.50680894169E+03  0.14322412319E+03 -0.74921106464E+02  0.53196017241E+03  0.00000000000E+00 0. -1.
          4    1    6    6  502    0  0.28465386246E+03 -0.16853218524E+03 -0.26307324845E+03  0.42265642420E+03  0.00000000000E+00 0. -1.
          3    1    5    5  503    0  0.98339920596E+02  0.30903229093E+02  0.29971189971E+03  0.31694316900E+03  0.00000000000E+00 0. -1.
         -4    1    5    5    0  503 -0.11400740123E+02 -0.93130120372E+01  0.79900048964E+02  0.81244857640E+02  0.00000000000E+00 0.  1.
         -3    1    6    6    0  502  0.21268178647E+03 -0.51520285440E+02 -0.15971242372E+03  0.27091685145E+03  0.00000000000E+00 0.  1.
<mgrwt>
<rscale>  0 0.17158273E+04</rscale>
<asrwt>0</asrwt>
<pdfrwt beam="1">  1        2 0.14064376E+00 0.17158273E+04</pdfrwt>
<pdfrwt beam="2">  1       -2 0.12386253E+00 0.17158273E+04</pdfrwt>
<totfact> 0.13373073E+01</totfact>
</mgrwt>
</event>
<event>
12    1  0.1201209E-007  0.1718851E+04  0.7818608E-02  0.8750685E-01
         -1   -1    0    0    0  501 -0.00000000000E+00  0.00000000000E+00  0.42086544385E+03  0.42086544385E+03  0.00000000000E+00 0.  1.
          1   -1    0    0  501    0  0.00000000000E+00 -0.00000000000E+00 -0.17549848883E+04  0.17549848883E+04  0.00000000000E+00 0. -1.
         23    2    1    2    0    0 -0.41454701291E+03  0.32760353275E+03 -0.88025108730E+03  0.10306855986E+04  0.91090756113E+02 0.  0.
        254    2    1    2    0    0  0.41454701291E+03 -0.32760353275E+03 -0.45386835714E+03  0.11451647335E+04  0.90897331136E+03 0.  0.
        -24    2    4    4    0    0  0.16468262333E+03  0.17381663959E+03 -0.51702135666E+03  0.57567546868E+03  0.82210530759E+02 0.  0.
         24    2    4    4    0    0  0.24986438958E+03 -0.50142017234E+03  0.63152999522E+02  0.56948926487E+03  0.80469367124E+02 0.  0.
         11    1    3    3    0    0 -0.73614607531E+01  0.32119312022E+02 -0.59276446685E+02  0.67819897087E+02  0.00000000000E+00 0.  1.
        -11    1    3    3    0    0 -0.40718555215E+03  0.29548422073E+03 -0.82097464062E+03  0.96286570150E+03  0.00000000000E+00 0. -1.
          4    1    6    6  502    0 -0.49377841460E+01 -0.14460449621E+02  0.76821554457E+01  0.17102684813E+02  0.00000000000E+00 0. -1.
          3    1    5    5  503    0  0.17034178827E+02 -0.17732493426E+01 -0.11777028095E+02  0.20784755285E+02  0.00000000000E+00 0. -1.
         -4    1    5    5    0  503  0.14764844450E+03  0.17558988893E+03 -0.50524432857E+03  0.55489071339E+03  0.00000000000E+00 0.  1.
         -3    1    6    6    0  502  0.25480217373E+03 -0.48695972272E+03  0.55470844076E+02  0.55238658006E+03  0.00000000000E+00 0.  1.
<mgrwt>
<rscale>  0 0.17188514E+04</rscale>
<asrwt>0</asrwt>
<pdfrwt beam="1">  1        1 0.26999768E+00 0.17188514E+04</pdfrwt>
<pdfrwt beam="2">  1       -1 0.64748528E-01 0.17188514E+04</pdfrwt>
<totfact> 0.10045755E+01</totfact>
</mgrwt>
</event>
<event>
12    1  0.1201209E-007  0.1751998E+04  0.7818608E-02  0.8732252E-01
         -1   -1    0    0    0  501 -0.00000000000E+00  0.00000000000E+00  0.59861258131E+03  0.59861258131E+03  0.00000000000E+00 0.  1.
          1   -1    0    0  501    0  0.00000000000E+00 -0.00000000000E+00 -0.12819207068E+04  0.12819207068E+04  0.00000000000E+00 0. -1.
         23    2    1    2    0    0  0.62329900522E+03 -0.87228422814E+02 -0.18647817937E+03  0.66468398602E+03  0.10449996286E+03 0.  0.
        254    2    1    2    0    0 -0.62329900522E+03  0.87228422814E+02 -0.49682994611E+03  0.12158493021E+04  0.91396886292E+03 0.  0.
        -24    2    4    4    0    0  0.15436968520E+03  0.96131979497E+02 -0.37533705597E+03  0.42462411724E+03  0.79726897419E+02 0.  0.
         24    2    4    4    0    0 -0.77766869042E+03 -0.89035566829E+01 -0.12149289014E+03  0.79122518484E+03  0.80180455208E+02 0.  0.
         13    1    3    3    0    0  0.37102118660E+03 -0.17382603318E+02 -0.69087631169E+02  0.37779885731E+03  0.00000000000E+00 0.  1.
        -13    1    3    3    0    0  0.25227781862E+03 -0.69845819496E+02 -0.11739054820E+03  0.28688512871E+03  0.00000000000E+00 0. -1.
          4    1    6    6  502    0 -0.24309430801E+03  0.11482554315E+02 -0.34313137271E+01  0.24338953461E+03  0.00000000000E+00 0. -1.
          1    1    5    5  503    0  0.39588720727E+02  0.55625055927E+02 -0.19876381243E+03  0.21016295294E+03  0.00000000000E+00 0. -1.
         -2    1    5    5    0  503  0.11478096447E+03  0.40506923570E+02 -0.17657324354E+03  0.21446116431E+03  0.00000000000E+00 0.  1.
         -3    1    6    6    0  502 -0.53457438240E+03 -0.20386110998E+02 -0.11806157641E+03  0.54783565023E+03  0.00000000000E+00 0.  1.
<mgrwt>
<rscale>  0 0.17519976E+04</rscale>
<asrwt>0</asrwt>
<pdfrwt beam="1">  1        1 0.19721857E+00 0.17519976E+04</pdfrwt>
<pdfrwt beam="2">  1       -1 0.92094244E-01 0.17519976E+04</pdfrwt>
<totfact> 0.10136152E+01</totfact>
</mgrwt>
</event>
<event>
12    1  0.1201209E-007  0.1896140E+04  0.7818608E-02  0.8656780E-01
         -2   -1    0    0    0  501 -0.00000000000E+00  0.00000000000E+00  0.64305664928E+03  0.64305664928E+03  0.00000000000E+00 0.  1.
          2   -1    0    0  501    0  0.00000000000E+00 -0.00000000000E+00 -0.13977561669E+04  0.13977561669E+04  0.00000000000E+00 0. -1.
         23    2    1    2    0    0  0.53247390054E+03  0.14084434457E+03 -0.80082160458E+03  0.97631113667E+03  0.92209593153E+02 0.  0.
        254    2    1    2    0    0 -0.53247390054E+03 -0.14084434457E+03  0.46122086960E+02  0.10645016795E+04  0.90976425222E+03 0.  0.
        -24    2    4    4    0    0 -0.57305794999E+03 -0.23226147916E+03  0.36367945520E+03  0.72184847912E+03  0.80384525397E+02 0.  0.
         24    2    4    4    0    0  0.40584049446E+02  0.91417134590E+02 -0.31755736824E+03  0.34265320039E+03  0.81020837137E+02 0.  0.
         11    1    3    3    0    0  0.30873683802E+03  0.12826798093E+03 -0.47375036910E+03  0.57983663415E+03  0.00000000000E+00 0. -1.
        -11    1    3    3    0    0  0.22373706252E+03  0.12576363634E+02 -0.32707123548E+03  0.39647450252E+03  0.00000000000E+00 0.  1.
          4    1    6    6  502    0  0.82800607773E+01 -0.21407003116E+01 -0.13261709686E+03  0.13289257460E+03  0.00000000000E+00 0. -1.
          1    1    5    5  503    0 -0.17303730303E+01 -0.21973894331E+01  0.12595582807E+02  0.12902380300E+02  0.00000000000E+00 0. -1.
         -2    1    5    5    0  503 -0.57132757696E+03 -0.23006408972E+03  0.35108387239E+03  0.70894609882E+03  0.00000000000E+00 0.  1.
         -3    1    6    6    0  502  0.32303988669E+02  0.93557834901E+02 -0.18494027139E+03  0.20976062580E+03  0.00000000000E+00 0.  1.
<mgrwt>
<rscale>  0 0.18961397E+04</rscale>
<asrwt>0</asrwt>
<pdfrwt beam="1">  1        2 0.21503941E+00 0.18961397E+04</pdfrwt>
<pdfrwt beam="2">  1       -2 0.98931792E-01 0.18961397E+04</pdfrwt>
<totfact> 0.11521876E+01</totfact>
</mgrwt>
</event>
<event>
12    1  0.1201209E-007  0.1490028E+04  0.7818608E-02  0.8891112E-01
          2   -1    0    0  501    0  0.00000000000E+00  0.00000000000E+00  0.12009855319E+04  0.12009855319E+04  0.00000000000E+00 0. -1.
         -2   -1    0    0    0  501 -0.00000000000E+00 -0.00000000000E+00 -0.46215852754E+03  0.46215852754E+03  0.00000000000E+00 0.  1.
         23    2    1    2    0    0  0.36030791898E+03  0.76893133531E+02  0.56111565405E+03  0.67721788262E+03  0.89660096248E+02 0.  0.
        254    2    1    2    0    0 -0.36030791898E+03 -0.76893133531E+02  0.17771135035E+03  0.98592617685E+03  0.89707009296E+03 0.  0.
        -24    2    4    4    0    0 -0.85902247393E+02  0.35814913818E+03 -0.10848892224E+03  0.39199372422E+03  0.78988811185E+02 0.  0.
         24    2    4    4    0    0 -0.27440567158E+03 -0.43504227171E+03  0.28620027258E+03  0.59393245263E+03  0.79277433690E+02 0.  0.
         11    1    3    3    0    0  0.34418112727E+03  0.88422533424E+02  0.50338459621E+03  0.61617793249E+03  0.00000000000E+00 0. -1.
        -11    1    3    3    0    0  0.16126791705E+02 -0.11529399892E+02  0.57731057834E+02  0.61039950125E+02  0.00000000000E+00 0.  1.
          4    1    6    6  502    0 -0.36992024760E+02 -0.10250392054E+03  0.35739500240E+02  0.11468555053E+03  0.00000000000E+00 0. -1.
          1    1    5    5  503    0 -0.59750930463E+02  0.26452451598E+03 -0.11500616359E+03  0.29456715857E+03  0.00000000000E+00 0. -1.
         -2    1    5    5    0  503 -0.26151316930E+02  0.93624622196E+02  0.65172413477E+01  0.97426565644E+02  0.00000000000E+00 0.  1.
         -3    1    6    6    0  502 -0.23741364682E+03 -0.33253835117E+03  0.25046077234E+03  0.47924690211E+03  0.00000000000E+00 0.  1.
<mgrwt>
<rscale>  0 0.14900278E+04</rscale>
<asrwt>0</asrwt>
<pdfrwt beam="1">  1        2 0.18476700E+00 0.14900278E+04</pdfrwt>
<pdfrwt beam="2">  1       -2 0.71101312E-01 0.14900278E+04</pdfrwt>
<totfact> 0.32858526E+01</totfact>
</mgrwt>
</event>
<event>
12    1  0.1201209E-007  0.1709019E+04  0.7818608E-02  0.8756237E-01
          1   -1    0    0  501    0  0.00000000000E+00  0.00000000000E+00  0.22756644859E+04  0.22756644859E+04  0.00000000000E+00 0. -1.
         -1   -1    0    0    0  501 -0.00000000000E+00 -0.00000000000E+00 -0.32086746285E+03  0.32086746285E+03  0.00000000000E+00 0.  1.
         23    2    1    2    0    0  0.58518250996E+03  0.14979001918E+03  0.87389330806E+03  0.10663192315E+04  0.92041130836E+02 0.  0.
        254    2    1    2    0    0 -0.58518250996E+03 -0.14979001918E+03  0.10809037150E+04  0.15302127173E+04  0.89906757211E+03 0.  0.
        -24    2    4    4    0    0 -0.20261668420E+02  0.22895366312E+03 -0.88348012558E+01  0.24336030668E+03  0.79472448617E+02 0.  0.
         24    2    4    4    0    0 -0.56492084154E+03 -0.37874368230E+03  0.10897385163E+04  0.12868524106E+04  0.76660020643E+02 0.  0.
         13    1    3    3    0    0  0.11226229247E+03  0.15739933723E+02  0.22827299534E+03  0.25487080693E+03  0.00000000000E+00 0.  1.
        -13    1    3    3    0    0  0.47292021750E+03  0.13405008546E+03  0.64562031271E+03  0.81144842456E+03  0.00000000000E+00 0. -1.
          2    1    6    6  502    0 -0.11102855688E+03 -0.10340177691E+03  0.20457105950E+03  0.25469312181E+03  0.00000000000E+00 0. -1.
          1    1    5    5  503    0  0.93737599201E+01  0.15859643079E+02  0.18949526724E+02  0.26428776300E+02  0.00000000000E+00 0. -1.
         -2    1    5    5    0  503 -0.29635428340E+02  0.21309402004E+03 -0.27784327980E+02  0.21693153038E+03  0.00000000000E+00 0.  1.
         -1    1    6    6    0  502 -0.45389228466E+03 -0.27534190539E+03  0.88516745679E+03  0.10321592888E+04  0.00000000000E+00 0.  1.
<mgrwt>
<rscale>  0 0.17090192E+04</rscale>
<asrwt>0</asrwt>
<pdfrwt beam="1">  1        1 0.35010222E+00 0.17090192E+04</pdfrwt>
<pdfrwt beam="2">  1       -1 0.49364227E-01 0.17090192E+04</pdfrwt>
<totfact> 0.75698102E+00</totfact>
</mgrwt>
</event>
<event>
12    1  0.1201209E-007  0.1628874E+04  0.7818608E-02  0.8803003E-01
         -1   -1    0    0    0  501 -0.00000000000E+00  0.00000000000E+00  0.71638017148E+03  0.71638017148E+03  0.00000000000E+00 0.  1.
          1   -1    0    0  501    0  0.00000000000E+00 -0.00000000000E+00 -0.92591571694E+03  0.92591571694E+03  0.00000000000E+00 0. -1.
         23    2    1    2    0    0 -0.21117995155E+03  0.17712784405E+03  0.42085593707E+03  0.51069587173E+03  0.87859595699E+02 0.  0.
        254    2    1    2    0    0  0.21117995155E+03 -0.17712784405E+03 -0.63039148253E+03  0.11316000167E+04  0.89841745945E+03 0.  0.
        -24    2    4    4    0    0  0.15838303609E+03  0.35362598664E+03 -0.32492553031E+03  0.51181804597E+03  0.79022701729E+02 0.  0.
         24    2    4    4    0    0  0.52796915455E+02 -0.53075383069E+03 -0.30546595222E+03  0.61978197072E+03  0.79580777737E+02 0.  0.
         11    1    3    3    0    0 -0.19943492520E+03  0.18741683911E+03  0.39778824621E+03  0.48284039785E+03  0.00000000000E+00 0.  1.
        -11    1    3    3    0    0 -0.11745026343E+02 -0.10288995061E+02  0.23067690865E+02  0.27855473878E+02  0.00000000000E+00 0. -1.
          4    1    6    6  502    0  0.62844200147E+02 -0.27605306149E+03 -0.18187026304E+03  0.33649885413E+03  0.00000000000E+00 0. -1.
          1    1    5    5  503    0  0.12234393616E+03  0.32759720872E+03 -0.30062370845E+03  0.46115353621E+03  0.00000000000E+00 0. -1.
         -2    1    5    5    0  503  0.36039099932E+02  0.26028777922E+02 -0.24301821857E+02  0.50664509764E+02  0.00000000000E+00 0.  1.
         -3    1    6    6    0  502 -0.10047284692E+02 -0.25470076920E+03 -0.12359568918E+03  0.28328311659E+03  0.00000000000E+00 0.  1.
<mgrwt>
<rscale>  0 0.16288740E+04</rscale>
<asrwt>0</asrwt>
<pdfrwt beam="1">  1        1 0.14244857E+00 0.16288740E+04</pdfrwt>
<pdfrwt beam="2">  1       -1 0.11021234E+00 0.16288740E+04</pdfrwt>
<totfact> 0.12607503E+01</totfact>
</mgrwt>
</event>
<event>
12    1  0.1201209E-007  0.1775693E+04  0.7818608E-02  0.8719333E-01
          1   -1    0    0  501    0  0.00000000000E+00  0.00000000000E+00  0.10300652537E+04  0.10300652537E+04  0.00000000000E+00 0. -1.
         -1   -1    0    0    0  501 -0.00000000000E+00 -0.00000000000E+00 -0.76526378196E+03  0.76526378196E+03  0.00000000000E+00 0.  1.
         23    2    1    2    0    0 -0.29992188390E+03 -0.28100965451E+03  0.61258420449E+03  0.74310385291E+03  0.89578827008E+02 0.  0.
        254    2    1    2    0    0  0.29992188390E+03  0.28100965451E+03 -0.34778273278E+03  0.10522251827E+04  0.90404946966E+03 0.  0.
        -24    2    4    4    0    0  0.39899544202E+03  0.20646586953E+03  0.18986836508E+03  0.49444587873E+03  0.81247848589E+02 0.  0.
         24    2    4    4    0    0 -0.99073558128E+02  0.74543784978E+02 -0.53765109786E+03  0.55777930399E+03  0.81711095568E+02 0.  0.
         13    1    3    3    0    0 -0.29464185912E+03 -0.28400410582E+03  0.61296727666E+03  0.73702173612E+03  0.00000000000E+00 0. -1.
        -13    1    3    3    0    0 -0.52800247804E+01  0.29944513047E+01 -0.38307216923E+00  0.60821167848E+01  0.00000000000E+00 0.  1.
          4    1    6    6  502    0 -0.80778441347E+02  0.92392976727E+02 -0.43345401498E+03  0.45049306525E+03  0.00000000000E+00 0. -1.
          3    1    5    5  503    0  0.29338986209E+03  0.15933773849E+03  0.17756930605E+03  0.37814942091E+03  0.00000000000E+00 0. -1.
         -4    1    5    5    0  503  0.10560557993E+03  0.47128131044E+02  0.12299059027E+02  0.11629645782E+03  0.00000000000E+00 0.  1.
         -3    1    6    6    0  502 -0.18295116781E+02 -0.17849191750E+02 -0.10419708287E+03  0.10728623874E+03  0.00000000000E+00 0.  1.
<mgrwt>
<rscale>  0 0.17756933E+04</rscale>
<asrwt>0</asrwt>
<pdfrwt beam="1">  1        1 0.15847158E+00 0.17756933E+04</pdfrwt>
<pdfrwt beam="2">  1       -1 0.11773289E+00 0.17756933E+04</pdfrwt>
<totfact> 0.87944194E+00</totfact>
</mgrwt>
</event>
<event>
12    1  0.1201209E-007  0.1269522E+04  0.7818608E-02  0.9054090E-01
         -1   -1    0    0    0  501 -0.00000000000E+00  0.00000000000E+00  0.13832020074E+03  0.13832020074E+03  0.00000000000E+00 0.  1.
          1   -1    0    0  501    0  0.00000000000E+00 -0.00000000000E+00 -0.29129622044E+04  0.29129622044E+04  0.00000000000E+00 0. -1.
         23    2    1    2    0    0  0.24793933725E+03 -0.18688311224E+03 -0.65837571122E+03  0.73376231381E+03  0.92462659689E+02 0.  0.
        254    2    1    2    0    0 -0.24793933725E+03  0.18688311224E+03 -0.21162662924E+04  0.23175200913E+04  0.89214188366E+03 0.  0.
        -24    2    4    4    0    0 -0.24596301245E+03  0.43874956047E+03 -0.64081751260E+03  0.81855386871E+03  0.79902260414E+02 0.  0.
         24    2    4    4    0    0 -0.19763248083E+01 -0.25186644823E+03 -0.14754487798E+04  0.14989662226E+04  0.80684701210E+02 0.  0.
         13    1    3    3    0    0  0.25286707928E+03 -0.18121598651E+03 -0.65575740765E+03  0.72580904598E+03  0.00000000000E+00 0.  1.
        -13    1    3    3    0    0 -0.49277420231E+01 -0.56671257267E+01 -0.26183035779E+01  0.79532678237E+01  0.00000000000E+00 0. -1.
          2    1    6    6  502    0  0.18612917614E+02 -0.11450632053E+03 -0.47708097674E+03  0.49098309188E+03  0.00000000000E+00 0. -1.
          1    1    5    5  503    0 -0.37237947094E+02  0.60706499206E+02 -0.14142968629E+03  0.15834866566E+03  0.00000000000E+00 0. -1.
         -2    1    5    5    0  503 -0.20872506535E+03  0.37804306127E+03 -0.49938782631E+03  0.66020520306E+03  0.00000000000E+00 0.  1.
         -1    1    6    6    0  502 -0.20589242423E+02 -0.13736012770E+03 -0.99836780308E+03  0.10079831307E+04  0.00000000000E+00 0.  1.
<mgrwt>
<rscale>  0 0.12695220E+04</rscale>
<asrwt>0</asrwt>
<pdfrwt beam="1">  1        1 0.44814805E+00 0.12695220E+04</pdfrwt>
<pdfrwt beam="2">  1       -1 0.21280030E-01 0.12695220E+04</pdfrwt>
<totfact> 0.12669576E+01</totfact>
</mgrwt>
</event>
<event>
12    1  0.1201209E-007  0.1536881E+04  0.7818608E-02  0.8860291E-01
          1   -1    0    0  501    0  0.00000000000E+00  0.00000000000E+00  0.68747005975E+03  0.68747005975E+03  0.00000000000E+00 0. -1.
         -1   -1    0    0    0  501 -0.00000000000E+00 -0.00000000000E+00 -0.85894736190E+03  0.85894736190E+03  0.00000000000E+00 0.  1.
         23    2    1    2    0    0  0.19996190352E+03 -0.29503208401E+03  0.29659467177E+03  0.47277060253E+03  0.92276485884E+02 0.  0.
        254    2    1    2    0    0 -0.19996190352E+03  0.29503208401E+03 -0.46807197391E+03  0.10736468191E+04  0.89810769176E+03 0.  0.
        -24    2    4    4    0    0 -0.36045579791E+03  0.53718082403E+03 -0.39932953627E+03  0.76463103400E+03  0.81883573869E+02 0.  0.
         24    2    4    4    0    0  0.16049389440E+03 -0.24214874002E+03 -0.68742437647E+02  0.30901578512E+03  0.79818107519E+02 0.  0.
         11    1    3    3    0    0  0.39234412404E+02 -0.18763296307E+02  0.64406144923E+02  0.77714554035E+02  0.00000000000E+00 0.  1.
        -11    1    3    3    0    0  0.16072749111E+03 -0.27626878770E+03  0.23218852684E+03  0.39505604850E+03  0.00000000000E+00 0. -1.
          2    1    6    6  502    0  0.11234297362E+03 -0.99048844194E+02 -0.43281475230E+02  0.15590029941E+03  0.00000000000E+00 0. -1.
          1    1    5    5  503    0 -0.16374360183E+01  0.33299911190E+02 -0.16929421878E+02  0.37392119586E+02  0.00000000000E+00 0. -1.
         -2    1    5    5    0  503 -0.35881836190E+03  0.50388091284E+03 -0.38240011439E+03  0.72723891442E+03  0.00000000000E+00 0.  1.
         -1    1    6    6    0  502  0.48150920775E+02 -0.14309989582E+03 -0.25460962416E+02  0.15311548571E+03  0.00000000000E+00 0.  1.
<mgrwt>
<rscale>  0 0.15368807E+04</rscale>
<asrwt>0</asrwt>
<pdfrwt beam="1">  1        1 0.10576462E+00 0.15368807E+04</pdfrwt>
<pdfrwt beam="2">  1       -1 0.13214575E+00 0.15368807E+04</pdfrwt>
<totfact> 0.13141931E+01</totfact>
</mgrwt>
</event>
<event>
12    1  0.1330771E-007  0.2133462E+04  0.7818608E-02  0.8546645E-01
         -2   -1    0    0    0  501 -0.00000000000E+00  0.00000000000E+00  0.42457802201E+03  0.42457802201E+03  0.00000000000E+00 0.  1.
          2   -1    0    0  501    0  0.00000000000E+00 -0.00000000000E+00 -0.26801072769E+04  0.26801072769E+04  0.00000000000E+00 0. -1.
         23    2    1    2    0    0 -0.39667504963E+03  0.67201870775E+03 -0.35869648628E+03  0.86325444211E+03  0.87090895064E+02 0.  0.
        254    2    1    2    0    0  0.39667504963E+03 -0.67201870775E+03 -0.18968327686E+04  0.22414308568E+04  0.90392339010E+03 0.  0.
        -24    2    4    4    0    0  0.45041598929E+03 -0.75327472477E+03 -0.98708741216E+03  0.13231551299E+04  0.78106108792E+02 0.  0.
         24    2    4    4    0    0 -0.53740939660E+02  0.81256017018E+02 -0.90974535649E+03  0.91827572690E+03  0.78122135607E+02 0.  0.
         13    1    3    3    0    0 -0.98245114480E+02  0.10823266931E+03 -0.85260355231E+02  0.16922098392E+03  0.00000000000E+00 0.  1.
        -13    1    3    3    0    0 -0.29842993515E+03  0.56378603844E+03 -0.27343613104E+03  0.69403345819E+03  0.00000000000E+00 0. -1.
          4    1    6    6  502    0 -0.15314882070E+02 -0.14863904642E+02 -0.14995708624E+03  0.15146817814E+03  0.00000000000E+00 0. -1.
          3    1    5    5  503    0  0.13546048194E+03 -0.16172882763E+03 -0.23467587087E+03  0.31556064429E+03  0.00000000000E+00 0. -1.
         -4    1    5    5    0  503  0.31495550735E+03 -0.59154589713E+03 -0.75241154129E+03  0.10075944856E+04  0.00000000000E+00 0.  1.
         -3    1    6    6    0  502 -0.38426057590E+02  0.96119921660E+02 -0.75978827025E+03  0.76680754877E+03  0.00000000000E+00 0.  1.
<mgrwt>
<rscale>  0 0.21334616E+04</rscale>
<asrwt>0</asrwt>
<pdfrwt beam="1">  1        2 0.41232419E+00 0.21334616E+04</pdfrwt>
<pdfrwt beam="2">  1       -2 0.65319697E-01 0.21334616E+04</pdfrwt>
<totfact> 0.54209554E+00</totfact>
</mgrwt>
</event>
<event>
12    1  0.1201209E-007  0.2342644E+04  0.7818608E-02  0.8461294E-01
          2   -1    0    0  501    0  0.00000000000E+00  0.00000000000E+00  0.14946384169E+04  0.14946384169E+04  0.00000000000E+00 0.  1.
         -2   -1    0    0    0  501 -0.00000000000E+00 -0.00000000000E+00 -0.91794494599E+03  0.91794494599E+03  0.00000000000E+00 0. -1.
         23    2    1    2    0    0  0.39461429120E+03  0.88543961772E+03  0.48031419652E+03  0.10857677669E+04  0.92011742182E+02 0.  0.
        254    2    1    2    0    0 -0.39461429120E+03 -0.88543961772E+03  0.96379274343E+02  0.13268155960E+04  0.90079237664E+03 0.  0.
        -24    2    4    4    0    0 -0.87235530442E+02 -0.63397798379E+02 -0.32377756395E+03  0.35040138588E+03  0.79497809401E+02 0.  0.
         24    2    4    4    0    0 -0.30737876075E+03 -0.82204181935E+03  0.42015683829E+03  0.97641421012E+03  0.81354075839E+02 0.  0.
         13    1    3    3    0    0  0.25290515667E+03  0.54859615954E+03  0.34774921017E+03  0.69702817569E+03  0.00000000000E+00 0. -1.
        -13    1    3    3    0    0  0.14170913453E+03  0.33684345819E+03  0.13256498636E+03  0.38873959117E+03  0.00000000000E+00 0.  1.
          2    1    6    6  502    0 -0.10324195280E+03 -0.20932620539E+03  0.81802453407E+02  0.24732165790E+03  0.00000000000E+00 0. -1.
          1    1    5    5  503    0  0.90128794861E+01 -0.92422543502E+01 -0.10027354737E+03  0.10110111555E+03  0.00000000000E+00 0. -1.
         -2    1    5    5    0  503 -0.96248409928E+02 -0.54155544029E+02 -0.22350401657E+03  0.24930027033E+03  0.00000000000E+00 0.  1.
         -1    1    6    6    0  502 -0.20413680796E+03 -0.61271561395E+03  0.33835438488E+03  0.72909255223E+03  0.00000000000E+00 0.  1.
<mgrwt>
<rscale>  0 0.23426445E+04</rscale>
<asrwt>0</asrwt>
<pdfrwt beam="1">  1        2 0.22994437E+00 0.23426445E+04</pdfrwt>
<pdfrwt beam="2">  1       -2 0.14122230E+00 0.23426445E+04</pdfrwt>
<totfact> 0.40557048E+00</totfact>
</mgrwt>
</event>
<event>
12    1  0.1201209E-007  0.2852130E+04  0.7818608E-02  0.8287264E-01
          1   -1    0    0  501    0  0.00000000000E+00  0.00000000000E+00  0.23659928282E+04  0.23659928282E+04  0.00000000000E+00 0. -1.
         -1   -1    0    0    0  501 -0.00000000000E+00 -0.00000000000E+00 -0.85953854719E+03  0.85953854719E+03  0.00000000000E+00 0.  1.
         23    2    1    2    0    0  0.46039341511E+03 -0.43244654485E+03 -0.58189053527E+03  0.86334376498E+03  0.88282221678E+02 0.  0.
        254    2    1    2    0    0 -0.46039341511E+03  0.43244654485E+03  0.20883448163E+04  0.23621876104E+04  0.90541378620E+03 0.  0.
        -24    2    4    4    0    0 -0.47927780552E+03  0.32797546557E+03  0.21410943853E+04  0.22199298324E+04  0.80797111808E+02 0.  0.
         24    2    4    4    0    0  0.18884390410E+02  0.10447107928E+03 -0.52749568968E+02  0.14225777802E+03  0.78637979207E+02 0.  0.
         11    1    3    3    0    0  0.14450936999E+03 -0.87447575227E+02 -0.17729017175E+03  0.24487107103E+03  0.00000000000E+00 0. -1.
        -11    1    3    3    0    0  0.31588404512E+03 -0.34499896962E+03 -0.40460036352E+03  0.61847269395E+03  0.00000000000E+00 0.  1.
          4    1    6    6  502    0  0.45680359318E+02  0.63743257658E+02 -0.50857953204E+02  0.93468869301E+02  0.00000000000E+00 0. -1.
          1    1    5    5  503    0 -0.26133107965E+03  0.16984879238E+03  0.99732004178E+03  0.10448874634E+04  0.00000000000E+00 0. -1.
         -2    1    5    5    0  503 -0.21794672587E+03  0.15812667319E+03  0.11437743435E+04  0.11750423690E+04  0.00000000000E+00 0.  1.
         -3    1    6    6    0  502 -0.26795968908E+02  0.40727821620E+02 -0.18916157643E+01  0.48788908718E+02  0.00000000000E+00 0.  1.
<mgrwt>
<rscale>  0 0.28521305E+04</rscale>
<asrwt>0</asrwt>
<pdfrwt beam="1">  1        1 0.36399889E+00 0.28521305E+04</pdfrwt>
<pdfrwt beam="2">  1       -1 0.13223670E+00 0.28521305E+04</pdfrwt>
<totfact> 0.70160479E-01</totfact>
</mgrwt>
</event>
<event>
12    1  0.1201209E-007  0.1204163E+04  0.7818608E-02  0.9109220E-01
         -2   -1    0    0    0  501 -0.00000000000E+00  0.00000000000E+00  0.29376950847E+03  0.29376950847E+03  0.00000000000E+00 0. -1.
          2   -1    0    0  501    0  0.00000000000E+00 -0.00000000000E+00 -0.12339687703E+04  0.12339687703E+04  0.00000000000E+00 0.  1.
         23    2    1    2    0    0 -0.62256970276E+02 -0.82727106853E+02 -0.48072450210E+03  0.50125703825E+03  0.97174414943E+02 0.  0.
        254    2    1    2    0    0  0.62256970276E+02  0.82727106853E+02 -0.45947475977E+03  0.10264812405E+04  0.91204549107E+03 0.  0.
        -24    2    4    4    0    0 -0.29679098659E+03  0.21135655182E+03  0.59108138283E+02  0.37804685402E+03  0.81664986991E+02 0.  0.
         24    2    4    4    0    0  0.35904795687E+03 -0.12862944497E+03 -0.51858289805E+03  0.64843438653E+03  0.77961285517E+02 0.  0.
         13    1    3    3    0    0 -0.80937223038E+02 -0.71438002400E+02 -0.45446476946E+03  0.46711074591E+03  0.00000000000E+00 0.  1.
        -13    1    3    3    0    0  0.18680252762E+02 -0.11289104453E+02 -0.26259732643E+02  0.34146292347E+02  0.00000000000E+00 0. -1.
          4    1    6    6  502    0  0.27744616326E+03 -0.12218746366E+03 -0.44445396600E+03  0.53800137331E+03  0.00000000000E+00 0. -1.
          3    1    5    5  503    0 -0.25790168540E+03  0.19200222629E+03  0.24408603002E+02  0.32244986298E+03  0.00000000000E+00 0. -1.
         -4    1    5    5    0  503 -0.38889301193E+02  0.19354325528E+02  0.34699535281E+02  0.55596991040E+02  0.00000000000E+00 0.  1.
         -3    1    6    6    0  502  0.81601793608E+02 -0.64419813115E+01 -0.74128932046E+02  0.11043301322E+03  0.00000000000E+00 0.  1.
<mgrwt>
<rscale>  0 0.12041634E+04</rscale>
<asrwt>0</asrwt>
<pdfrwt beam="1">  1        2 0.18984135E+00 0.12041634E+04</pdfrwt>
<pdfrwt beam="2">  1       -2 0.45195309E-01 0.12041634E+04</pdfrwt>
<totfact> 0.82759947E+01</totfact>
</mgrwt>
</event>
<event>
12    1  0.1201209E-007  0.2644261E+04  0.7818608E-02  0.8353320E-01
         -1   -1    0    0    0  501 -0.00000000000E+00  0.00000000000E+00  0.63288973613E+03  0.63288973613E+03  0.00000000000E+00 0.  1.
          1   -1    0    0  501    0  0.00000000000E+00 -0.00000000000E+00 -0.27619813275E+04  0.27619813275E+04  0.00000000000E+00 0. -1.
         23    2    1    2    0    0 -0.85050669601E+03 -0.80063954179E+03 -0.10560184397E+04  0.15773237786E+04  0.91597172070E+02 0.  0.
        254    2    1    2    0    0  0.85050669601E+03  0.80063954179E+03 -0.10730731517E+04  0.18175472850E+04  0.88747215644E+03 0.  0.
        -24    2    4    4    0    0  0.37623325148E+03  0.88129891072E+03 -0.83961034517E+03  0.12767556904E+04  0.83188530365E+02 0.  0.
         24    2    4    4    0    0  0.47427344453E+03 -0.80659368927E+02 -0.23346280655E+03  0.54079159465E+03  0.80681056183E+02 0.  0.
         13    1    3    3    0    0 -0.72835589828E+03 -0.69446573430E+03 -0.94932851486E+03  0.13834773579E+04  0.00000000000E+00 0.  1.
        -13    1    3    3    0    0 -0.12215079773E+03 -0.10617380748E+03 -0.10668992479E+03  0.19384642074E+03  0.00000000000E+00 0. -1.
          4    1    6    6  502    0  0.31247686327E+03 -0.38821717284E+02 -0.19130476041E+03  0.36843781995E+03  0.00000000000E+00 0. -1.
          1    1    5    5  503    0  0.29698328073E+03  0.60062654323E+03 -0.57397138633E+03  0.88226666366E+03  0.00000000000E+00 0. -1.
         -2    1    5    5    0  503  0.79249970747E+02  0.28067236748E+03 -0.26563895884E+03  0.39448902670E+03  0.00000000000E+00 0.  1.
         -3    1    6    6    0  502  0.16179658125E+03 -0.41837651643E+02 -0.42158046141E+02  0.17235377470E+03  0.00000000000E+00 0.  1.
<mgrwt>
<rscale>  0 0.26442614E+04</rscale>
<asrwt>0</asrwt>
<pdfrwt beam="1">  1        1 0.42492021E+00 0.26442614E+04</pdfrwt>
<pdfrwt beam="2">  1       -1 0.97367649E-01 0.26442614E+04</pdfrwt>
<totfact> 0.78787989E-01</totfact>
</mgrwt>
</event>
<event>
12    1  0.1201209E-007  0.1998034E+04  0.7818608E-02  0.8607540E-01
         -2   -1    0    0    0  501 -0.00000000000E+00  0.00000000000E+00  0.32281395098E+03  0.32281395098E+03  0.00000000000E+00 0. -1.
          2   -1    0    0  501    0  0.00000000000E+00 -0.00000000000E+00 -0.30916724499E+04  0.30916724499E+04  0.00000000000E+00 0.  1.
         23    2    1    2    0    0  0.61256516081E+03  0.48028120452E+03 -0.81420651496E+03  0.11301888960E+04  0.92133490263E+02 0.  0.
        254    2    1    2    0    0 -0.61256516081E+03 -0.48028120452E+03 -0.19546519840E+04  0.22842975049E+04  0.88963172191E+03 0.  0.
        -24    2    4    4    0    0 -0.21201427788E+03 -0.62084646623E+03 -0.15806443287E+04  0.17131291267E+04  0.77295033683E+02 0.  0.
         24    2    4    4    0    0 -0.40055088293E+03  0.14056526171E+03 -0.37400765530E+03  0.57116837819E+03  0.78434605895E+02 0.  0.
         11    1    3    3    0    0  0.20589148974E+03  0.17804123095E+03 -0.34659128657E+03  0.44069888290E+03  0.00000000000E+00 0.  1.
        -11    1    3    3    0    0  0.40667367107E+03  0.30223997357E+03 -0.46761522839E+03  0.68949001312E+03  0.00000000000E+00 0. -1.
          4    1    6    6  502    0 -0.35796366833E+02  0.19542116442E+02 -0.10351480278E+02  0.42076446350E+02  0.00000000000E+00 0. -1.
          1    1    5    5  503    0 -0.28896656931E+02 -0.46834759158E+02 -0.92388231814E+02  0.10753649067E+03  0.00000000000E+00 0. -1.
         -2    1    5    5    0  503 -0.18311762095E+03 -0.57401170708E+03 -0.14882560969E+04  0.16055926360E+04  0.00000000000E+00 0.  1.
         -3    1    6    6    0  502 -0.36475451610E+03  0.12102314527E+03 -0.36365617502E+03  0.52909193184E+03  0.00000000000E+00 0.  1.
<mgrwt>
<rscale>  0 0.19980340E+04</rscale>
<asrwt>0</asrwt>
<pdfrwt beam="1">  1        2 0.47564190E+00 0.19980340E+04</pdfrwt>
<pdfrwt beam="2">  1       -2 0.49663687E-01 0.19980340E+04</pdfrwt>
<totfact> 0.54469276E+00</totfact>
</mgrwt>
</event>
<event>
12    1  0.1201209E-007  0.1244539E+04  0.7818608E-02  0.9074740E-01
          2   -1    0    0  501    0  0.00000000000E+00  0.00000000000E+00  0.14040256187E+04  0.14040256187E+04  0.00000000000E+00 0. -1.
         -2   -1    0    0    0  501 -0.00000000000E+00 -0.00000000000E+00 -0.27579236157E+03  0.27579236157E+03  0.00000000000E+00 0.  1.
         23    2    1    2    0    0 -0.24948912449E+03 -0.14206412071E+03  0.25577769246E+03  0.39675813408E+03  0.97814883148E+02 0.  0.
        254    2    1    2    0    0  0.24948912449E+03  0.14206412071E+03  0.87245556471E+03  0.12830598462E+04  0.89590000502E+03 0.  0.
        -24    2    4    4    0    0 -0.25981815096E+03  0.19255826826E+03  0.62595876439E+03  0.70913737956E+03  0.80419463573E+02 0.  0.
         24    2    4    4    0    0  0.50930727545E+03 -0.50494147546E+02  0.24649680032E+03  0.57392246668E+03  0.81748183042E+02 0.  0.
         13    1    3    3    0    0 -0.77433182564E+02 -0.68835126457E+02  0.14883730228E+03  0.18134694634E+03  0.00000000000E+00 0. -1.
        -13    1    3    3    0    0 -0.17205594192E+03 -0.73228994257E+02  0.10694039018E+03  0.21541118774E+03  0.00000000000E+00 0.  1.
          2    1    6    6  502    0  0.43146803744E+03 -0.69359796849E+02  0.22202786391E+03  0.49017529630E+03  0.00000000000E+00 0. -1.
          3    1    5    5  503    0 -0.24604118121E+03  0.15654967516E+03  0.51724905693E+03  0.59379344097E+03  0.00000000000E+00 0. -1.
         -4    1    5    5    0  503 -0.13776969754E+02  0.36008593098E+02  0.10870970746E+03  0.11534393859E+03  0.00000000000E+00 0.  1.
         -1    1    6    6    0  502  0.77839238009E+02  0.18865649302E+02  0.24468936406E+02  0.83747170378E+02  0.00000000000E+00 0.  1.
<mgrwt>
<rscale>  0 0.12445393E+04</rscale>
<asrwt>0</asrwt>
<pdfrwt beam="1">  1        2 0.21600394E+00 0.12445393E+04</pdfrwt>
<pdfrwt beam="2">  1       -2 0.42429595E-01 0.12445393E+04</pdfrwt>
<totfact> 0.74529415E+01</totfact>
</mgrwt>
</event>
<event>
12    1  0.1201209E-007  0.1424070E+04  0.7818608E-02  0.8936577E-01
          4   -1    0    0  501    0  0.00000000000E+00  0.00000000000E+00  0.51141923795E+03  0.51141923795E+03  0.00000000000E+00 0. -1.
         -4   -1    0    0    0  501 -0.00000000000E+00 -0.00000000000E+00 -0.99134727124E+03  0.99134727124E+03  0.00000000000E+00 0.  1.
         23    2    1    2    0    0 -0.38865313932E+03 -0.10853521632E+02 -0.31692241564E+03  0.50994086160E+03  0.91819405123E+02 0.  0.
        254    2    1    2    0    0  0.38865313932E+03  0.10853521632E+02 -0.16300561764E+03  0.99282564758E+03  0.89886755058E+03 0.  0.
        -24    2    4    4    0    0  0.55866804306E+02 -0.36950222007E+03 -0.27472192679E+03  0.47030429590E+03  0.77852445190E+02 0.  0.
         24    2    4    4    0    0  0.33278633501E+03  0.38035574170E+03  0.11171630915E+03  0.52252135169E+03  0.71629562467E+02 0.  0.
         11    1    3    3    0    0 -0.36671894479E+03 -0.26872299847E+02 -0.27171734593E+03  0.45720369754E+03  0.00000000000E+00 0.  1.
        -11    1    3    3    0    0 -0.21934194531E+02  0.16018778215E+02 -0.45205069712E+02  0.52737164058E+02  0.00000000000E+00 0. -1.
          2    1    6    6  502    0  0.71849898846E+02  0.74193194662E+02 -0.57728480602E+01  0.10344256316E+03  0.00000000000E+00 0. -1.
          3    1    5    5  503    0  0.28365029946E+02 -0.90629127998E+02 -0.33956601055E+02  0.10085268723E+03  0.00000000000E+00 0. -1.
         -4    1    5    5    0  503  0.27501774359E+02 -0.27887309207E+03 -0.24076532574E+03  0.36945160867E+03  0.00000000000E+00 0.  1.
         -1    1    6    6    0  502  0.26093643617E+03  0.30616254704E+03  0.11748915721E+03  0.41907878853E+03  0.00000000000E+00 0.  1.
<mgrwt>
<rscale>  0 0.14240703E+04</rscale>
<asrwt>0</asrwt>
<pdfrwt beam="1">  1        4 0.78679884E-01 0.14240703E+04</pdfrwt>
<pdfrwt beam="2">  1       -4 0.15251496E+00 0.14240703E+04</pdfrwt>
<totfact> 0.79719447E-01</totfact>
</mgrwt>
</event>
<event>
12    1  0.1201209E-007  0.2098512E+04  0.7818608E-02  0.8561899E-01
          1   -1    0    0  501    0  0.00000000000E+00  0.00000000000E+00  0.17191544545E+04  0.17191544545E+04  0.00000000000E+00 0. -1.
         -1   -1    0    0    0  501 -0.00000000000E+00 -0.00000000000E+00 -0.64039510475E+03  0.64039510475E+03  0.00000000000E+00 0.  1.
         23    2    1    2    0    0  0.78458574487E+03  0.17728224812E+03  0.75772674100E+03  0.11087731699E+04  0.90688156835E+02 0.  0.
        254    2    1    2    0    0 -0.78458574487E+03 -0.17728224812E+03  0.32103260873E+03  0.12507763893E+04  0.90242775534E+03 0.  0.
        -24    2    4    4    0    0  0.16000146033E+03 -0.19019811960E+03  0.66013662650E+02  0.26864864544E+03  0.77707779748E+02 0.  0.
         24    2    4    4    0    0 -0.94458720520E+03  0.12915871482E+02  0.25501894608E+03  0.98212774386E+03  0.84430056456E+02 0.  0.
         11    1    3    3    0    0  0.25266916163E+02  0.22313258535E+02  0.22471475436E+02  0.40512538394E+02  0.00000000000E+00 0.  1.
        -11    1    3    3    0    0  0.75931882871E+03  0.15496898958E+03  0.73525526557E+03  0.10682606315E+04  0.00000000000E+00 0. -1.
          2    1    6    6  502    0 -0.80197191529E+03  0.35877708008E+02  0.23378888525E+03  0.83612403728E+03  0.00000000000E+00 0. -1.
          1    1    5    5  503    0  0.38143607913E+02 -0.10491872263E+03  0.30640630575E+02  0.11576580422E+03  0.00000000000E+00 0. -1.
         -2    1    5    5    0  503  0.12185785241E+03 -0.85279396963E+02  0.35373032076E+02  0.15288284122E+03  0.00000000000E+00 0.  1.
         -1    1    6    6    0  502 -0.14261528991E+03 -0.22961836526E+02  0.21230060830E+02  0.14600370658E+03  0.00000000000E+00 0.  1.
<mgrwt>
<rscale>  0 0.20985119E+04</rscale>
<asrwt>0</asrwt>
<pdfrwt beam="1">  1        1 0.26448530E+00 0.20985119E+04</pdfrwt>
<pdfrwt beam="2">  1       -1 0.98522325E-01 0.20985119E+04</pdfrwt>
<totfact> 0.41940911E+00</totfact>
</mgrwt>
</event>
<event>
12    1  0.1418310E-007  0.2204436E+04  0.7818608E-02  0.8516584E-01
         -1   -1    0    0    0  501 -0.00000000000E+00  0.00000000000E+00  0.84937996967E+03  0.84937996967E+03  0.00000000000E+00 0.  1.
          1   -1    0    0  501    0  0.00000000000E+00 -0.00000000000E+00 -0.14303187914E+04  0.14303187914E+04  0.00000000000E+00 0. -1.
         23    2    1    2    0    0  0.54610550884E+03  0.32326495311E+03  0.42793617056E+03  0.77134055793E+03  0.95422395408E+02 0.  0.
        254    2    1    2    0    0 -0.54610550884E+03 -0.32326495311E+03 -0.10088749923E+04  0.15083582031E+04  0.92443726783E+03 0.  0.
        -24    2    4    4    0    0 -0.74081690870E+03 -0.24367632945E+03 -0.10148822072E+04  0.12825281884E+04  0.81882927871E+02 0.  0.
         24    2    4    4    0    0  0.19471139986E+03 -0.79588623660E+02  0.60072149517E+01  0.22583001466E+03  0.81952612169E+02 0.  0.
         11    1    3    3    0    0  0.51797612055E+03  0.29122953643E+03  0.42074134966E+03  0.72810520370E+03  0.00000000000E+00 0.  1.
        -11    1    3    3    0    0  0.28129388290E+02  0.32035416682E+02  0.71948209004E+01  0.43235354230E+02  0.00000000000E+00 0. -1.
          4    1    6    6  502    0  0.10752446634E+02 -0.11391733323E+02  0.24165367703E+02  0.28798466851E+02  0.00000000000E+00 0. -1.
          1    1    5    5  503    0 -0.15729863403E+02 -0.14185321510E+02 -0.47284000494E+02  0.51811472202E+02  0.00000000000E+00 0. -1.
         -2    1    5    5    0  503 -0.72508704530E+03 -0.22949100794E+03 -0.96759820672E+03  0.12307167162E+04  0.00000000000E+00 0.  1.
         -3    1    6    6    0  502  0.18395895322E+03 -0.68196890337E+02 -0.18158152751E+02  0.19703154781E+03  0.00000000000E+00 0.  1.
<mgrwt>
<rscale>  0 0.22044356E+04</rscale>
<asrwt>0</asrwt>
<pdfrwt beam="1">  1        1 0.22004904E+00 0.22044356E+04</pdfrwt>
<pdfrwt beam="2">  1       -1 0.13067384E+00 0.22044356E+04</pdfrwt>
<totfact> 0.33373775E+00</totfact>
</mgrwt>
</event>
