<LesHouchesEvents version="3.0">
  <!--
  <scalesfunctionalform>
    muR  H_T/2 := sum_i mT(i)/2, i=final state
    muF1 H_T/2 := sum_i mT(i)/2, i=final state
    muF2 H_T/2 := sum_i mT(i)/2, i=final state
    QES  H_T/2 := sum_i mT(i)/2, i=final state
  </scalesfunctionalform>
HERWIG6   
  -->
  <header>
      204
  </header>
  <init>
   2212   2212 0.65000000D+04 0.65000000D+04 -1 -1   244800   244800 -4   1
 0.48539967D-03 0.18751367D-05 0.25765000D-05     66
  </init>
  <event>
  8     66 0.25765000E-05 0.20729397E+03 0.75467711E-02 0.97020267E-01
        2 -1    0    0  501    0 0.00000000E+00 0.00000000E+00 0.52419198E+03 0.52419208E+03 0.32000000E+00 0.0000E+00 0.9000E+01
       -2 -1    0    0    0  501 0.00000000E+00 0.00000000E+00 -.14676865E+03 0.14676900E+03 0.32000000E+00 0.0000E+00 0.9000E+01
       25  2    1    2    0    0 -.38266238E+02 0.37201409E+02 0.29636973E+02 0.30624906E+03 0.30010313E+03 0.0000E+00 0.0000E+00
       23  2    1    2    0    0 0.38266238E+02 -.37201409E+02 0.34778636E+03 0.36471201E+03 0.95975254E+02 0.0000E+00 0.0000E+00
       23  1    3    3    0    0 -.90849667E+02 0.11601527E+03 0.14876787E+02 0.17392463E+03 0.91188000E+02 0.0000E+00 0.9000E+01
      -13  1    4    4    0    0 -.25079032E+02 0.13666066E+02 0.87971384E+02 0.92491594E+02 0.10565837E+00 0.0000E+00 0.9000E+01
       13  1    4    4    0    0 0.63345270E+02 -.50867476E+02 0.25981498E+03 0.27222042E+03 0.10565837E+00 0.0000E+00 0.9000E+01
       23  1    3    3    0    0 0.52583429E+02 -.78813864E+02 0.14760185E+02 0.13232444E+03 0.91188000E+02 0.0000E+00 0.9000E+01
#aMCatNLO 1  0  0  1  1 0.30170840D+03 0.00000000D+00  -5  7  0 0.00000000D+00 0.00000000D+00 0.00000000D+00 0.00000000D+00 0.00000000D+00
  <mgrwgt>
 0.2232021294D-03    5    2    0
 0.277371768532472D+03 0.000000000000000D+00 0.000000000000000D+00 0.277371768532472D+03
 0.277371768532472D+03 0.000000000000000D+00 0.000000000000000D+00 -.277371768532472D+03
 0.200239949484873D+03 -.908496721633030D+02 0.116015278520823D+03 -.100337322284685D+03
 0.520163330869332D+02 -.250790869186708D+02 0.136661090399004D+02 0.434738515759312D+02
 0.152483324003725D+03 0.633453344034728D+02 -.508675278253159D+02 0.129038859734105D+03
 0.150003930489413D+03 0.525834246785009D+02 -.788138597354075D+02 -.721753890253505D+02
 0.000000000000000D+00 -.000000000000000D+00 -.000000000000000D+00 0.000000000000000D+00
 0.511945539360798D+03 0.000000000000000D+00 0.000000000000000D+00 0.511945539360798D+03
 0.431726312430087D+03 0.000000000000000D+00 0.000000000000000D+00 -.431726312430087D+03
 0.257191586996260D+03 -.317515867230980D+02 0.216232559007564D+03 -.100337322284685D+03
 0.586856284581793D+02 -.107768942187121D+02 0.379194642325556D+02 0.434738515759312D+02
 0.167245820674703D+03 0.104652893683896D+03 0.191809555357462D+02 0.129038859734105D+03
 0.148358039176104D+03 0.911304415961416D+02 -.134466455932341D+02 -.721753890253505D+02
 0.312190776485638D+03 -.153254854338227D+03 -.259886333182631D+03 0.802192269307110D+02
0.182928045901D-05 0.000000000000D+00 0.000000000000D+00 0.314351788836D-07 0.000000000000D+00  7 2 -2 23 -13 13 23 21 0 0.80644954D-01 0.22579826D-01 0.42970792D+05 0.42970792D+05 0.42970792D+05 0.11531282D+01  1  2  2  1  7  1        2 0.210582887125D-03 0.100000000000D+01
-.911473503188D-07 0.000000000000D+00 -.702491862320D-08 0.314351788836D-07 0.000000000000D+00  7 2 -2 23 -13 13 23 21 2 0.80644954D-01 0.22579826D-01 0.42970792D+05 0.42970792D+05 0.42970792D+05 0.11531282D+01  1  2  3  1  7  1        2 -.139521780452D-04 0.100000000000D+01
0.113463335476D-06 0.000000000000D+00 0.000000000000D+00 0.314351788836D-07 0.000000000000D+00  7 2 -2 23 -13 13 23 21 2 0.80644954D-01 0.22579826D-01 0.42970792D+05 0.42970792D+05 0.42970792D+05 0.11531282D+01  1  2 15  1  7  1        2 0.173681478685D-04 0.100000000000D+01
0.175463766656D-06 0.000000000000D+00 -.580776042889D-06 0.314351788836D-07 0.000000000000D+00  7 2 -2 23 -13 13 23 21 2 0.20411868D+00 0.22579826D-01 0.42970792D+05 0.42970792D+05 0.42970792D+05 0.11531282D+01  1  2  5  1  7  1        2 0.802647657069D-05 0.100000000000D+01
0.536134814500D-07 0.000000000000D+00 -.594866372736D-07 0.314351788836D-07 0.000000000000D+00  7 21 -2 23 -13 13 23 -2 2 0.20411868D+00 0.22579826D-01 0.42970792D+05 0.42970792D+05 0.42970792D+05 0.11531282D+01  1  2  5  3  7  1        2 0.117679587280D-05 0.100000000000D+01
  </mgrwgt>
  </event>
  <event>
  8     66 0.25765000E-05 0.31965265E+03 0.75467711E-02 0.93741927E-01
        2 -1    0    0  501    0 0.00000000E+00 0.00000000E+00 0.29273183E+03 0.29273201E+03 0.32000000E+00 0.0000E+00 0.9000E+01
       -2 -1    0    0    0  501 0.00000000E+00 0.00000000E+00 -.10224016E+04 0.10224016E+04 0.32000000E+00 0.0000E+00 0.9000E+01
       25  2    1    2    0    0 -.33229020E+03 0.27602855E+03 -.69680189E+03 0.87244011E+03 0.29834599E+03 0.0000E+00 0.0000E+00
       23  2    1    2    0    0 0.33229020E+03 -.27602855E+03 -.32867856E+02 0.44269353E+03 0.91042409E+02 0.0000E+00 0.0000E+00
       23  1    3    3    0    0 -.33569702E+03 0.21914641E+03 -.49236054E+03 0.64144508E+03 0.91188000E+02 0.0000E+00 0.9000E+01
      -13  1    4    4    0    0 0.21788591E+03 -.15465272E+03 -.59630478E+02 0.27376549E+03 0.10565837E+00 0.0000E+00 0.9000E+01
       13  1    4    4    0    0 0.11440429E+03 -.12137583E+03 0.26762622E+02 0.16892804E+03 0.10565837E+00 0.0000E+00 0.9000E+01
       23  1    3    3    0    0 0.34068203E+01 0.56882139E+02 -.20444136E+03 0.23099503E+03 0.91188000E+02 0.0000E+00 0.9000E+01
#aMCatNLO 1  0  0  1  2 0.11945070D+03 0.00000000D+00  -5  7  0 0.00000000D+00 0.00000000D+00 0.00000000D+00 0.00000000D+00 0.00000000D+00
  <mgrwgt>
 0.2486630061D-03    9    2    0
 0.547073701736405D+03 0.000000000000000D+00 0.000000000000000D+00 0.547073701736405D+03
 0.547073701736405D+03 0.000000000000000D+00 0.000000000000000D+00 -.547073701736405D+03
 0.442650972790611D+03 -.335697023357923D+03 0.219146413961973D+03 -.164033503055662D+03
 0.289291684350568D+03 0.217886053052660D+03 -.154652769335202D+03 0.110895750398629D+03
 0.220894114213321D+03 0.114404150039030D+03 -.121375784127077D+03 0.144823406863227D+03
 0.141310632118311D+03 0.340682026623176D+01 0.568821395003065D+02 -.916856542061942D+02
 0.000000000000000D+00 -.000000000000000D+00 -.000000000000000D+00 0.000000000000000D+00
 0.623358440574096D+03 0.000000000000000D+00 0.000000000000000D+00 0.623358440574096D+03
 0.599165959180805D+03 0.000000000000000D+00 0.000000000000000D+00 -.599165959180805D+03
 0.416064998674652D+03 -.290551257488480D+03 0.231231071496218D+03 -.164033503055662D+03
 0.309622944453811D+03 0.249373134353419D+03 -.146224280263314D+03 0.110895750398629D+03
 0.230845220395394D+03 0.138153700428158D+03 -.115018484001194D+03 0.144823406863227D+03
 0.144115286889872D+03 0.184126803419752D+02 0.608989210639769D+02 -.916856542061942D+02
 0.121875949341173D+03 -.115388257635071D+03 -.308872282956861D+02 0.241924813932905D+02
0.461976029462D-04 0.000000000000D+00 0.000000000000D+00 0.181911203133D-06 0.000000000000D+00  7 2 -2 23 -13 13 23 21 0 0.45035684D-01 0.15729257D+00 0.22688636D+06 0.22688636D+06 0.22688636D+06 0.10936429D+01  1  2  2  1  7  1        2 0.163844107878D-03 0.100000000000D+01
-.250669089382D-05 0.000000000000D+00 -.177410959422D-06 0.181911203133D-06 0.000000000000D+00  7 2 -2 23 -13 13 23 21 2 0.45035684D-01 0.15729257D+00 0.22688636D+06 0.22688636D+06 0.22688636D+06 0.10936429D+01  1  2  3  1  7  1        2 -.106331815692D-04 0.100000000000D+01
0.285871243490D-05 0.000000000000D+00 0.000000000000D+00 0.181911203133D-06 0.000000000000D+00  7 2 -2 23 -13 13 23 21 2 0.45035684D-01 0.15729257D+00 0.22688636D+06 0.22688636D+06 0.22688636D+06 0.10936429D+01  1  2 15  1  7  1        2 0.121264286911D-04 0.100000000000D+01
0.461352138804D-04 0.000000000000D+00 0.000000000000D+00 0.181911203133D-06 0.000000000000D+00  7 2 -2 23 -13 13 23 21 2 0.53208558D-01 0.15729257D+00 0.29260121D+06 0.29260121D+06 0.29260121D+06 0.10853551D+01  1  2 12  1  7  1        2 0.158901768485D-03 0.100000000000D+01
-.426567054794D-04 0.000000000000D+00 0.000000000000D+00 0.181911203133D-06 0.000000000000D+00  7 2 -2 23 -13 13 23 21 2 0.45035684D-01 0.15729257D+00 0.22688636D+06 0.22688636D+06 0.22688636D+06 0.10936429D+01  1  2  4  1  7  1        2 -.180946320755D-03 0.100000000000D+01
-.110154104938D-03 0.000000000000D+00 -.333747589868D-04 0.181911203133D-06 0.000000000000D+00  7 2 -2 23 -13 13 23 21 2 0.55813036D-01 0.15729257D+00 0.22688636D+06 0.22688636D+06 0.22688636D+06 0.10936429D+01  1  2  5  1  7  1        2 -.368720121752D-03 0.100000000000D+01
0.115402099317D-03 0.000000000000D+00 0.326210567975D-04 0.181911203133D-06 0.000000000000D+00  7 2 -2 23 -13 13 23 21 2 0.45035684D-01 0.15729257D+00 0.22688636D+06 0.22688636D+06 0.22688636D+06 0.10936429D+01  1  2  6  1  7  1        2 0.489526442423D-03 0.100000000000D+01
0.114568063518D-05 0.000000000000D+00 0.000000000000D+00 0.181911203133D-06 0.000000000000D+00  7 21 -2 23 -13 13 23 -2 2 0.53208558D-01 0.15729257D+00 0.29260121D+06 0.29260121D+06 0.29260121D+06 0.10853551D+01  1  2 12  3  7  1        2 0.114471738848D-04 0.100000000000D+01
-.289218816262D-05 0.000000000000D+00 -.100758537510D-05 0.181911203133D-06 0.000000000000D+00  7 21 -2 23 -13 13 23 -2 2 0.55813036D-01 0.15729257D+00 0.22688636D+06 0.22688636D+06 0.22688636D+06 0.10936429D+01  1  2  5  3  7  1        2 -.268832911747D-04 0.100000000000D+01
  </mgrwgt>
  </event>
  <event>
  8     66 0.25765000E-05 0.19327398E+03 0.75467711E-02 0.90740467E-01
        2 -1    0    0  501    0 0.00000000E+00 0.00000000E+00 0.24600928E+04 0.24600928E+04 0.32000000E+00 0.0000E+00 0.9000E+01
       -2 -1    0    0    0  501 0.00000000E+00 0.00000000E+00 -.14861954E+03 0.14861988E+03 0.32000000E+00 0.0000E+00 0.9000E+01
       25  2    1    2    0    0 -.11266041E+03 0.45871172E+02 0.24077589E+04 0.24293491E+04 0.29939561E+03 0.0000E+00 0.0000E+00
       23  2    1    2    0    0 0.11266041E+03 -.45871172E+02 -.96285638E+02 0.17936357E+03 0.90021300E+02 0.0000E+00 0.0000E+00
       23  1    3    3    0    0 0.15235621E+02 0.47109782E+02 0.17508010E+04 0.17538731E+04 0.91188000E+02 0.0000E+00 0.9000E+01
      -13  1    4    4    0    0 0.47336753E+02 -.36366936E+02 -.96360484E+02 0.11335200E+03 0.10565837E+00 0.0000E+00 0.9000E+01
       13  1    4    4    0    0 0.65323657E+02 -.95042364E+01 0.74846213E-01 0.66011571E+02 0.10565837E+00 0.0000E+00 0.9000E+01
       23  1    3    3    0    0 -.12789603E+03 -.12386099E+01 0.65695784E+03 0.67547596E+03 0.91188000E+02 0.0000E+00 0.9000E+01
#aMCatNLO 1  0  0  1  2 0.63448953D+03 0.00000000D+00  -5  7  0 0.00000000D+00 0.00000000D+00 0.00000000D+00 0.00000000D+00 0.00000000D+00
  <mgrwgt>
 0.3907747848D-03    3    2    0
 0.604663810328783D+03 0.000000000000000D+00 0.000000000000000D+00 0.604663810328783D+03
 0.604663810328783D+03 0.000000000000000D+00 0.000000000000000D+00 -.604663810328783D+03
 0.436954660644017D+03 0.152356205314121D+02 0.471097822207023D+02 0.424455731968210D+03
 0.428699346025277D+03 0.473367287136584D+02 -.363669729198770D+02 -.424523034331277D+03
 0.142254039459602D+03 0.653236821864803D+02 -.950419937567855D+01 -.126010707808507D+03
 0.201419574528670D+03 -.127896031431551D+03 -.123860992514673D+01 0.126078010171575D+03
 0.000000000000000D+00 -.000000000000000D+00 0.000000000000000D+00 -.000000000000000D+00
 0.849846732949955D+03 0.000000000000000D+00 0.000000000000000D+00 0.849846732949955D+03
 0.128544917692049D+04 0.000000000000000D+00 0.000000000000000D+00 -.128544917692049D+04
 0.500255170070663D+03 0.245907671651888D+03 0.361487546190247D+02 0.424455731968210D+03
 0.509834698538402D+03 0.278334703778442D+03 -.473434877092406D+02 -.424523034331277D+03
 0.195115492402460D+03 0.148359219533365D+03 -.134498651481825D+02 -.126010707808507D+03
 0.160463069448658D+03 -.388271708461945D+02 -.547096592399364D+01 0.126078010171575D+03
 0.769627479410259D+03 -.633774424117500D+03 0.301155641623920D+02 -.435602443970532D+03
0.413974485860D-04 0.000000000000D+00 0.000000000000D+00 0.922931514051D-06 0.000000000000D+00  7 2 -2 23 -13 13 23 21 0 0.37847584D+00 0.22864572D-01 0.37354830D+05 0.37354830D+05 0.37354830D+05 0.11586025D+01  1  2  2  1  7  1        2 0.348499905802D-03 0.100000000000D+01
0.133779913784D-05 0.000000000000D+00 -.158977102769D-06 0.922931514051D-06 0.000000000000D+00  7 2 -2 23 -13 13 23 21 2 0.37847584D+00 0.22864572D-01 0.37354830D+05 0.37354830D+05 0.37354830D+05 0.11586025D+01  1  2  3  1  7  1        2 0.151178116283D-04 0.100000000000D+01
0.240317198100D-05 0.000000000000D+00 0.000000000000D+00 0.922931514051D-06 0.000000000000D+00  7 2 -2 23 -13 13 23 21 2 0.37847584D+00 0.22864572D-01 0.37354830D+05 0.37354830D+05 0.37354830D+05 0.11586025D+01  1  2 15  1  7  1        2 0.271570673739D-04 0.100000000000D+01
  </mgrwgt>
  </event>
  <event>
  9     66 0.25765000E-05 0.23326766E+03 0.75467711E-02 0.89926411E-01
        2 -1    0    0  501    0 0.00000000E+00 0.00000000E+00 0.16285521E+04 0.16285521E+04 0.32000000E+00 0.0000E+00 0.9000E+01
       21 -1    0    0  502  501 0.00000000E+00 0.00000000E+00 -.47715861E+03 0.47715920E+03 0.75000000E+00 0.0000E+00 0.9000E+01
       25  2    1    2    0    0 0.35382890E+03 0.47759352E+03 0.71543035E+03 0.97734043E+03 0.30010545E+03 0.0000E+00 0.0000E+00
       23  2    1    2    0    0 0.31793604E+02 0.14439873E+03 -.11831756E+03 0.21032608E+03 0.91521524E+02 0.0000E+00 0.0000E+00
       23  1    3    3    0    0 0.32759659E+03 0.43652865E+03 0.53675392E+03 0.77090648E+03 0.91188000E+02 0.0000E+00 0.9000E+01
      -11  1    4    4    0    0 0.12122950E+02 -.73930137E+00 0.98991895E+01 0.15668645E+02 0.51099893E-03 0.0000E+00 0.9000E+01
       11  1    4    4    0    0 0.19670654E+02 0.14513803E+03 -.12821675E+03 0.19465744E+03 0.51099893E-03 0.0000E+00 0.9000E+01
       23  1    3    3    0    0 0.26232312E+02 0.41064864E+02 0.17867643E+03 0.20643395E+03 0.91188000E+02 0.0000E+00 0.9000E+01
        2  1    1    2  502    0 -.38562250E+03 -.62199225E+03 0.55428071E+03 0.91804481E+03 0.32000000E+00 0.0000E+00 0.9000E+01
#aMCatNLO 2  0  0  2  2 0.73183268D+03 0.00000000D+00  -5  7  0 0.00000000D+00 0.00000000D+00 0.00000000D+00 0.00000000D+00 0.00000000D+00
  <mgrwgt>
 0.1268690208D-04    1    2    0
 0.360010072362264D+03 0.000000000000000D+00 0.000000000000000D+00 0.360010072362264D+03
 0.360010072362264D+03 0.000000000000000D+00 0.000000000000000D+00 -.360010072362264D+03
 0.273924475262927D+03 0.139152157994674D+03 0.132576023301078D+03 0.172567788927038D+03
 0.117818228381068D+02 0.679112162792894D+01 -.933930744927732D+01 0.233866474533747D+01
 0.291502688421242D+03 -.110865852475828D+03 -.654116495489203D+02 -.261541385281391D+03
 0.142811158202252D+03 -.350774271467752D+02 -.578250663028807D+02 0.866349316090152D+02
 0.000000000000000D+00 -.000000000000000D+00 -.000000000000000D+00 0.000000000000000D+00
 0.936783365684755D+03 0.000000000000000D+00 0.000000000000000D+00 0.936783365684755D+03
 0.829517548395913D+03 0.000000000000000D+00 0.000000000000000D+00 -.829517548395913D+03
 0.579630640384945D+03 0.327596585217764D+03 0.436528651416554D+03 0.172567788927038D+03
 0.123685825327113D+02 0.121229499116302D+02 -.739301371236799D+00 0.233866474533747D+01
 0.299759702226811D+03 0.196706536051602D+02 0.145138031717890D+03 -.261541385281391D+03
 0.134890029011895D+03 0.262323116203822D+02 0.410648637521453D+02 0.866349316090152D+02
 0.739651959924306D+03 -.385622500354936D+03 -.621992245515353D+03 0.107265817288842D+03
0.517058135947D-06 0.000000000000D+00 0.000000000000D+00 0.111916703340D-05 0.379598794965D-11  7 2 21 23 -11 11 23 2 2 0.25054651D+00 0.73409061D-01 0.59844177D+06 0.59844177D+06 0.59844177D+06 0.10630374D+01  1  2  1  4  7  2       -2 0.126869020831D-04 0.100000000000D+01
  </mgrwgt>
  </event>
  <event>
  8     66 0.25765000E-05 0.21567363E+03 0.75467711E-02 0.10403724E+00
        2 -1    0    0  501    0 0.00000000E+00 0.00000000E+00 0.71005631E+02 0.71006352E+02 0.32000000E+00 0.0000E+00 0.9000E+01
       -2 -1    0    0    0  501 0.00000000E+00 0.00000000E+00 -.77891802E+03 0.77891808E+03 0.32000000E+00 0.0000E+00 0.9000E+01
       25  2    1    2    0    0 0.39139566E+02 -.77826522E+02 -.62402410E+03 0.69783848E+03 0.29997264E+03 0.0000E+00 0.0000E+00
       23  2    1    2    0    0 -.39139566E+02 0.77826522E+02 -.83888281E+02 0.15208596E+03 0.92217248E+02 0.0000E+00 0.0000E+00
       23  1    3    3    0    0 0.11665011E+03 0.25756705E+02 -.24988518E+03 0.29159649E+03 0.91188000E+02 0.0000E+00 0.9000E+01
      -11  1    4    4    0    0 0.12151754E+02 -.13421482E+02 -.28218658E+02 0.33527511E+02 0.51099893E-03 0.0000E+00 0.9000E+01
       11  1    4    4    0    0 -.51291321E+02 0.91248004E+02 -.55669624E+02 0.11855844E+03 0.51099893E-03 0.0000E+00 0.9000E+01
       23  1    3    3    0    0 -.77510548E+02 -.10358323E+03 -.37413892E+03 0.40624199E+03 0.91188000E+02 0.0000E+00 0.9000E+01
#aMCatNLO 1  0  0  2  1 0.36708752D+02 0.00000000D+00  -5  7  0 0.00000000D+00 0.00000000D+00 0.00000000D+00 0.00000000D+00 0.00000000D+00
  <mgrwgt>
 0.2527917957D-03    4    2    0
 0.235176315782313D+03 0.000000000000000D+00 0.000000000000000D+00 0.235176315782313D+03
 0.235176315782313D+03 0.000000000000000D+00 0.000000000000000D+00 -.235176315782313D+03
 0.150819111087520D+03 0.116650114238798D+03 0.257567046781963D+02 -.126686991212648D+02
 0.181130338631527D+02 0.121517544047411D+02 -.134214822735730D+02 -.529786933337451D+00
 0.130447878294153D+03 -.512913205437810D+02 0.912480039420993D+02 0.778437612458690D+02
 0.170972608319801D+03 -.775105480997584D+02 -.103583226346723D+03 -.646452751912667D+02
 0.000000000000000D+00 0.000000000000000D+00 0.000000000000000D+00 0.000000000000000D+00
 0.295045831445793D+03 0.000000000000000D+00 0.000000000000000D+00 0.295045831445793D+03
 0.241586446485321D+03 0.000000000000000D+00 0.000000000000000D+00 -.241586446485321D+03
 0.141955816089229D+03 0.105554297356273D+03 0.231083696905979D+02 -.126686991212648D+02
 0.174888204927001D+02 0.108024870326332D+02 -.137435236362785D+02 -.529786933337451D+00
 0.133084924824733D+03 -.612788961676336D+02 0.888641825212907D+02 0.778437612458690D+02
 0.179253365860669D+03 -.907836904227158D+02 -.106751242508256D+03 -.646452751912667D+02
 0.648493506637831D+02 0.357058022014431D+02 0.852221393264633D+01 0.534593849604719D+02
0.746079338334D-05 0.000000000000D+00 0.000000000000D+00 0.181422940669D-06 0.000000000000D+00  7 2 -2 23 -11 11 23 21 0 0.10924004D-01 0.11983360D+00 0.46515113D+05 0.46515113D+05 0.46515113D+05 0.11500655D+01  1  2  2  2  7  2       -2 0.295711073535D-03 0.100000000000D+01
-.410711745116D-06 0.000000000000D+00 -.286514110640D-07 0.181422940669D-06 0.000000000000D+00  7 2 -2 23 -11 11 23 21 2 0.10924004D-01 0.11983360D+00 0.46515113D+05 0.46515113D+05 0.46515113D+05 0.11500655D+01  1  2  3  2  7  2       -2 -.215310308723D-04 0.100000000000D+01
0.469127097464D-06 0.000000000000D+00 0.000000000000D+00 0.181422940669D-06 0.000000000000D+00  7 2 -2 23 -11 11 23 21 2 0.10924004D-01 0.11983360D+00 0.46515113D+05 0.46515113D+05 0.46515113D+05 0.11500655D+01  1  2 15  2  7  2       -2 0.245933800010D-04 0.100000000000D+01
-.877115190077D-06 0.000000000000D+00 0.000000000000D+00 0.181422940669D-06 0.000000000000D+00  7 2 -2 23 -11 11 23 21 2 0.10924004D-01 0.11983360D+00 0.46515113D+05 0.46515113D+05 0.46515113D+05 0.11500655D+01  1  2  4  2  7  2       -2 -.459816269212D-04 0.100000000000D+01
  </mgrwgt>
  </event>
  <event>
  7     66 0.25765000E-05 0.23997982E+03 0.75467711E-02 0.90572882E-01
        2 -1    0    0  501    0 0.00000000E+00 0.00000000E+00 0.22347896E+04 0.22347896E+04 0.32000000E+00 0.0000E+00 0.9000E+01
       -2 -1    0    0    0  501 0.00000000E+00 0.00000000E+00 -.35391663E+02 0.35393110E+02 0.32000000E+00 0.0000E+00 0.9000E+01
       25  2    1    2    0    0 0.31710776E+02 -.13321806E+03 0.11901487E+04 0.12358488E+04 0.30350557E+03 0.0000E+00 0.0000E+00
       23  1    3    3    0    0 -.37592036E+02 -.37525624E+02 0.14089812E+03 0.17603654E+03 0.91188000E+02 0.0000E+00 0.9000E+01
      -13  1    1    2    0    0 0.61098605E+02 -.20503099E+01 0.32452372E+03 0.33023158E+03 0.10565837E+00 0.0000E+00 0.9000E+01
       13  1    1    2    0    0 -.92809381E+02 0.13526837E+03 0.68472547E+03 0.70410233E+03 0.10565837E+00 0.0000E+00 0.9000E+01
       23  1    3    3    0    0 0.69302812E+02 -.95692433E+02 0.10492506E+04 0.10598123E+04 0.91188000E+02 0.0000E+00 0.9000E+01
#aMCatNLO 1  0  0  1  1 0.65116617D+03 0.00000000D+00  -5  7  0 0.00000000D+00 0.00000000D+00 0.00000000D+00 0.00000000D+00 0.00000000D+00
  <mgrwgt>
 0.7892625270D-03    3    2    0
 0.281237601095405D+03 0.000000000000000D+00 0.000000000000000D+00 0.281237601095405D+03
 0.281237601095405D+03 0.000000000000000D+00 0.000000000000000D+00 -.281237601095405D+03
 0.159558182837520D+03 -.375877910171354D+02 -.375434565384613D+02 -.119671254710595D+03
 0.638546775407185D+02 0.610762679559043D+02 -.202871933380922D+01 0.185200873181621D+02
 0.164381451513574D+03 -.927959362060830D+02 0.135284131665053D+03 0.104105496962722D+02
 0.174680890298999D+03 0.693074592673140D+02 -.957119557927825D+02 0.907406176961610D+02
 0.000000000000000D+00 -.000000000000000D+00 -.000000000000000D+00 -.000000000000000D+00
 0.507128721089006D+03 0.000000000000000D+00 0.000000000000000D+00 0.507128721089006D+03
 0.180874671722941D+04 0.000000000000000D+00 0.000000000000000D+00 -.180874671722941D+04
 0.187366307130909D+03 0.109374939561664D+03 0.225121099799241D+02 -.119671254710595D+03
 0.162247741401050D+03 0.156856847992724D+03 0.371115237258864D+02 0.185200873181621D+02
 0.211266496696250D+03 0.663345080305381D+02 0.200311971997868D+03 0.104105496962722D+02
 0.299581966068044D+03 0.270212746726682D+03 -.136130399153177D+02 0.907406176961610D+02
 0.145541292702217D+04 -.602779042311609D+03 -.246322565788360D+03 -.130161799614041D+04
0.760539698119D-05 0.000000000000D+00 0.000000000000D+00 0.328541627864D-11 0.000000000000D+00  7 2 -2 23 -13 13 23 21 0 0.34381389D+00 0.54449843D-02 0.57590312D+05 0.57590312D+05 0.57590312D+05 0.11419353D+01  1  2  2  1  7  1        2 0.778314844362D-03 0.100000000000D+01
-.409592489751D-06 0.000000000000D+00 -.292067269548D-07 0.328541627864D-11 0.000000000000D+00  7 2 -2 23 -13 13 23 21 2 0.34381389D+00 0.54449843D-02 0.57590312D+05 0.57590312D+05 0.57590312D+05 0.11419353D+01  1  2  3  1  7  1        2 -.546598466534D-04 0.100000000000D+01
0.491628735253D-06 0.000000000000D+00 0.000000000000D+00 0.328541627864D-11 0.000000000000D+00  7 2 -2 23 -13 13 23 21 2 0.34381389D+00 0.54449843D-02 0.57590312D+05 0.57590312D+05 0.57590312D+05 0.11419353D+01  1  2 15  1  7  1        2 0.656075293169D-04 0.100000000000D+01
  </mgrwgt>
  </event>
  <event>
  8     66 0.25765000E-05 0.60113494E+03 0.75467711E-02 0.86130690E-01
        2 -1    0    0  501    0 0.00000000E+00 0.00000000E+00 0.23547703E+04 0.23547703E+04 0.32000000E+00 0.0000E+00 0.9000E+01
       -2 -1    0    0    0  501 0.00000000E+00 0.00000000E+00 -.23531236E+03 0.23531258E+03 0.32000000E+00 0.0000E+00 0.9000E+01
       25  2    1    2    0    0 -.20176249E+03 0.54960047E+03 0.18011949E+04 0.19176047E+04 0.30022621E+03 0.0000E+00 0.0000E+00
       23  2    1    2    0    0 0.20176249E+03 -.54960047E+03 0.31826298E+03 0.67247820E+03 0.90370434E+02 0.0000E+00 0.0000E+00
       23  1    3    3    0    0 -.93052887E+02 0.23171865E+03 0.45344480E+03 0.52562326E+03 0.91188000E+02 0.0000E+00 0.9000E+01
      -11  1    4    4    0    0 0.15602317E+03 -.34448490E+03 0.24170359E+03 0.44881366E+03 0.51099893E-03 0.0000E+00 0.9000E+01
       11  1    4    4    0    0 0.45739318E+02 -.20511558E+03 0.76559393E+02 0.22366454E+03 0.51099893E-03 0.0000E+00 0.9000E+01
       23  1    3    3    0    0 -.10870960E+03 0.31788183E+03 0.13477502E+04 0.13919814E+04 0.91188000E+02 0.0000E+00 0.9000E+01
#aMCatNLO 1  0  0  2  1 0.87663619D+03 0.00000000D+00  -5  7  0 0.00000000D+00 0.00000000D+00 0.00000000D+00 0.00000000D+00 0.00000000D+00
  <mgrwgt>
 0.3146478046D-03    3    2    0
 0.744383554484387D+03 0.000000000000000D+00 0.000000000000000D+00 0.744383554484387D+03
 0.744383554484387D+03 0.000000000000000D+00 0.000000000000000D+00 -.744383554484387D+03
 0.268914211850757D+03 -.930528870742051D+02 0.231718646873460D+03 0.405860923174657D+02
 0.436726461601610D+03 0.156023173000481D+03 -.344484897356549D+03 -.218442045502170D+03
 0.280127951111228D+03 0.457393181724668D+02 -.205115575292157D+03 -.185221987192287D+03
 0.502998484405180D+03 -.108709604098742D+03 0.317881825775246D+03 0.363077940376992D+03
 0.000000000000000D+00 -.000000000000000D+00 0.000000000000000D+00 0.000000000000000D+00
 0.149481056807816D+04 0.000000000000000D+00 0.000000000000000D+00 0.149481056807816D+04
 0.116833631851822D+04 0.000000000000000D+00 0.000000000000000D+00 -.116833631851822D+04
 0.167749372638815D+03 -.284041333783952D+02 0.131797477191851D+03 0.405860923174657D+02
 0.727027311408954D+03 0.328318811350708D+03 -.610785185154828D+03 -.218442045502170D+03
 0.441119812520945D+03 0.152521222322350D+03 -.370157778792166D+03 -.185221987192287D+03
 0.391795178085838D+03 0.237660525616882D+02 0.113127336150686D+03 0.363077940376992D+03
 0.935455211941831D+03 -.476201952856351D+03 0.736018150604457D+03 0.326474249559944D+03
0.810461340440D-04 0.000000000000D+00 0.000000000000D+00 0.205285002051D-05 0.000000000000D+00  7 2 -2 23 -11 11 23 21 0 0.36227237D+00 0.36201921D-01 0.36136322D+06 0.36136322D+06 0.36136322D+06 0.10786224D+01  1  2  2  2  7  2       -2 0.311019457132D-03 0.100000000000D+01
-.425247048807D-05 0.000000000000D+00 -.311238494666D-06 0.205285002051D-05 0.000000000000D+00  7 2 -2 23 -11 11 23 21 2 0.36227237D+00 0.36201921D-01 0.36136322D+06 0.36136322D+06 0.36136322D+06 0.10786224D+01  1  2  3  2  7  2       -2 -.189860862721D-04 0.100000000000D+01
0.506514143503D-05 0.000000000000D+00 0.000000000000D+00 0.205285002051D-05 0.000000000000D+00  7 2 -2 23 -11 11 23 21 2 0.36227237D+00 0.36201921D-01 0.36136322D+06 0.36136322D+06 0.36136322D+06 0.10786224D+01  1  2 15  2  7  2       -2 0.226144337829D-04 0.100000000000D+01
  </mgrwgt>
  </event>
  <event>
  8     66 0.25765000E-05 0.17395593E+03 0.75467711E-02 0.10051937E+00
        2 -1    0    0  501    0 0.00000000E+00 0.00000000E+00 0.25831632E+03 0.25831652E+03 0.32000000E+00 0.0000E+00 0.9000E+01
       -2 -1    0    0    0  501 0.00000000E+00 0.00000000E+00 -.30051428E+03 0.30051445E+03 0.32000000E+00 0.0000E+00 0.9000E+01
       25  2    1    2    0    0 0.16749132E+03 0.16076802E+02 -.10083452E+03 0.35711846E+03 0.29841948E+03 0.0000E+00 0.0000E+00
       23  2    1    2    0    0 -.16749132E+03 -.16076802E+02 0.58636565E+02 0.20171251E+03 0.94540366E+02 0.0000E+00 0.0000E+00
       23  1    3    3    0    0 0.94435788E+01 0.10349346E+03 -.22105726E+02 0.14001425E+03 0.91188000E+02 0.0000E+00 0.9000E+01
      -11  1    4    4    0    0 -.10898386E+03 0.35750054E+02 0.38677424E+02 0.12104334E+03 0.51099893E-03 0.0000E+00 0.9000E+01
       11  1    4    4    0    0 -.58507468E+02 -.51826856E+02 0.19959141E+02 0.80669165E+02 0.51099893E-03 0.0000E+00 0.9000E+01
       23  1    3    3    0    0 0.15804775E+03 -.87416655E+02 -.78728794E+02 0.21710421E+03 0.91188000E+02 0.0000E+00 0.9000E+01
#aMCatNLO 1  0  0  1  2 0.74225557D+02 0.00000000D+00  -5  7  0 0.00000000D+00 0.00000000D+00 0.00000000D+00 0.00000000D+00 0.00000000D+00
  <mgrwgt>
 0.1299447820D-03    9    2    0
 0.278617740344361D+03 0.000000000000000D+00 0.000000000000000D+00 0.278617740344361D+03
 0.278617740344361D+03 0.000000000000000D+00 0.000000000000000D+00 -.278617740344361D+03
 0.138741137870786D+03 0.944357881139271D+01 0.103493457894304D+03 -.115661136944597D+02
 0.124318852322048D+03 -.108983856448058D+03 0.357500534008314D+02 0.479544550403620D+02
 0.824115903419084D+02 -.585074682249164D+02 -.518268558521136D+02 0.261251487474648D+02
 0.211763900153980D+03 0.158047745861582D+03 -.874166554430223D+02 -.625134900933671D+02
 0.000000000000000D+00 0.000000000000000D+00 0.000000000000000D+00 0.000000000000000D+00
 0.347005236781149D+03 0.000000000000000D+00 0.000000000000000D+00 0.347005236781149D+03
 0.301970945068210D+03 0.000000000000000D+00 0.000000000000000D+00 -.301970945068210D+03
 0.126839314215329D+03 0.236012263378783D+01 0.873705621006027D+02 -.115661136944597D+02
 0.126896317965462D+03 -.115684167543636D+03 0.204992471742148D+02 0.479544550403620D+02
 0.925946671945548D+02 -.631751655133607D+02 -.624511605829122D+02 0.261251487474648D+02
 0.215826986610726D+03 0.146643211813425D+03 -.113374903708254D+03 -.625134900933671D+02
 0.868188958632882D+02 0.298559986097838D+02 0.679562550163488D+02 0.450342917129385D+02
0.137757190196D-05 0.000000000000D+00 0.000000000000D+00 0.174169043566D-08 0.000000000000D+00  7 2 -2 23 -11 11 23 21 0 0.39741001D-01 0.46232994D-01 0.71140455D+05 0.71140455D+05 0.71140455D+05 0.11340635D+01  1  2  2  1  7  1        2 0.960443878934D-04 0.100000000000D+01
-.763546009539D-07 0.000000000000D+00 -.529023882655D-08 0.174169043566D-08 0.000000000000D+00  7 2 -2 23 -11 11 23 21 2 0.39741001D-01 0.46232994D-01 0.71140455D+05 0.71140455D+05 0.71140455D+05 0.11340635D+01  1  2  3  1  7  1        2 -.684648463904D-05 0.100000000000D+01
0.892235318908D-07 0.000000000000D+00 0.000000000000D+00 0.174169043566D-08 0.000000000000D+00  7 2 -2 23 -11 11 23 21 2 0.39741001D-01 0.46232994D-01 0.71140455D+05 0.71140455D+05 0.71140455D+05 0.11340635D+01  1  2 15  1  7  1        2 0.800040250227D-05 0.100000000000D+01
0.151963326636D-05 0.000000000000D+00 0.000000000000D+00 0.174169043566D-08 0.000000000000D+00  7 2 -2 23 -11 11 23 21 2 0.50852585D-01 0.46232994D-01 0.94074333D+05 0.94074333D+05 0.94074333D+05 0.11239056D+01  1  2 12  1  7  1        2 0.102145451615D-03 0.100000000000D+01
-.158290662960D-05 0.000000000000D+00 0.000000000000D+00 0.174169043566D-08 0.000000000000D+00  7 2 -2 23 -11 11 23 21 2 0.39741001D-01 0.46232994D-01 0.71140455D+05 0.71140455D+05 0.71140455D+05 0.11340635D+01  1  2  4  1  7  1        2 -.141934419003D-03 0.100000000000D+01
-.278485208975D-05 0.000000000000D+00 -.787123320361D-06 0.174169043566D-08 0.000000000000D+00  7 2 -2 23 -11 11 23 21 2 0.52984257D-01 0.46232994D-01 0.71140455D+05 0.71140455D+05 0.71140455D+05 0.11340635D+01  1  2  5  1  7  1        2 -.182569345299D-03 0.100000000000D+01
0.292105719958D-05 0.000000000000D+00 0.755653337086D-06 0.174169043566D-08 0.000000000000D+00  7 2 -2 23 -11 11 23 21 2 0.39741001D-01 0.46232994D-01 0.71140455D+05 0.71140455D+05 0.71140455D+05 0.11340635D+01  1  2  6  1  7  1        2 0.261922307193D-03 0.100000000000D+01
0.509038536023D-07 0.000000000000D+00 0.000000000000D+00 0.174169043566D-08 0.000000000000D+00  7 21 -2 23 -11 11 23 -2 2 0.50852585D-01 0.46232994D-01 0.94074333D+05 0.94074333D+05 0.94074333D+05 0.11239056D+01  1  2 12  3  7  1        2 0.108476953925D-04 0.100000000000D+01
-.878901535073D-07 0.000000000000D+00 -.295118680200D-07 0.174169043566D-08 0.000000000000D+00  7 21 -2 23 -11 11 23 -2 2 0.52984257D-01 0.46232994D-01 0.71140455D+05 0.71140455D+05 0.71140455D+05 0.11340635D+01  1  2  5  3  7  1        2 -.176652136995D-04 0.100000000000D+01
  </mgrwgt>
  </event>
  <event>
  8     66 0.25765000E-05 0.18956916E+03 0.75467711E-02 0.97354296E-01
        2 -1    0    0  501    0 0.00000000E+00 0.00000000E+00 0.17130185E+04 0.17130185E+04 0.32000000E+00 0.0000E+00 0.9000E+01
       -2 -1    0    0    0  501 0.00000000E+00 0.00000000E+00 -.20696546E+03 0.20696570E+03 0.32000000E+00 0.0000E+00 0.9000E+01
       25  2    1    2    0    0 -.28090295E+03 0.16195458E+03 0.71957939E+02 0.44664862E+03 0.29863237E+03 0.0000E+00 0.0000E+00
       23  2    1    2    0    0 0.28090295E+03 -.16195458E+03 0.14340951E+04 0.14733356E+04 0.94621893E+02 0.0000E+00 0.0000E+00
       23  1    3    3    0    0 -.20953244E+03 0.36291597E+02 -.49988761E+02 0.23671724E+03 0.91188000E+02 0.0000E+00 0.9000E+01
      -13  1    4    4    0    0 0.20103356E+02 -.47715353E+02 0.17816811E+03 0.18553918E+03 0.10565837E+00 0.0000E+00 0.9000E+01
       13  1    4    4    0    0 0.26079959E+03 -.11423923E+03 0.12559270E+04 0.12877964E+04 0.10565837E+00 0.0000E+00 0.9000E+01
       23  1    3    3    0    0 -.71370503E+02 0.12566299E+03 0.12194670E+03 0.20993138E+03 0.91188000E+02 0.0000E+00 0.9000E+01
#aMCatNLO 1  0  0  1  2 0.53069155D+02 0.00000000D+00  -5  7  0 0.00000000D+00 0.00000000D+00 0.00000000D+00 0.00000000D+00 0.00000000D+00
  <mgrwgt>
 0.4681863997D-03    9    2    0
 0.595429188965772D+03 0.000000000000000D+00 0.000000000000000D+00 0.595429188965772D+03
 0.595429188965772D+03 0.000000000000000D+00 0.000000000000000D+00 -.595429188965772D+03
 0.444871618195246D+03 -.209532442726630D+03 0.362915970897197D+02 -.379966552156037D+03
 0.738131894285034D+02 0.201030557180412D+02 -.477152697474995D+02 0.526071013963780D+02
 0.487931057753515D+03 0.260799890014011D+03 -.114239315047980D+03 0.396244259752129D+03
 0.184242512554280D+03 -.713705030054231D+02 0.125662987705759D+03 -.688848089924701D+02
 0.000000000000000D+00 -.000000000000000D+00 -.000000000000000D+00 0.000000000000000D+00
 0.624455242607747D+03 0.000000000000000D+00 0.000000000000000D+00 0.624455242607747D+03
 0.620781211778610D+03 0.000000000000000D+00 0.000000000000000D+00 -.620781211778610D+03
 0.440034094109662D+03 -.195921991406232D+03 0.505444869494350D+02 -.379966552156037D+03
 0.729673196549486D+02 0.223606397135835D+02 -.453511236012731D+02 0.526071013963780D+02
 0.492759998843257D+03 0.275883585034347D+03 -.984436416539475D+02 0.396244259752129D+03
 0.186278860009631D+03 -.656716324542176D+02 0.131630855514035D+03 -.688848089924701D+02
 0.531961817688568D+02 -.366506008874805D+02 -.383805772082499D+02 0.367403082913668D+01
0.162919607605D-04 0.000000000000D+00 0.000000000000D+00 0.601860499949D-07 0.000000000000D+00  7 2 -2 23 -13 13 23 21 0 0.26354133D+00 0.31840861D-01 0.13644148D+06 0.13644148D+06 0.13644148D+06 0.11108135D+01  1  2  2  1  7  1        2 0.185919968981D-03 0.100000000000D+01
-.654237768875D-06 0.000000000000D+00 -.625654190921D-07 0.601860499949D-07 0.000000000000D+00  7 2 -2 23 -13 13 23 21 2 0.26354133D+00 0.31840861D-01 0.13644148D+06 0.13644148D+06 0.13644148D+06 0.11108135D+01  1  2  3  1  7  1        2 -.921235375199D-05 0.100000000000D+01
0.984335156679D-06 0.000000000000D+00 0.000000000000D+00 0.601860499949D-07 0.000000000000D+00  7 2 -2 23 -13 13 23 21 2 0.26354133D+00 0.31840861D-01 0.13644148D+06 0.13644148D+06 0.13644148D+06 0.11108135D+01  1  2 15  1  7  1        2 0.138604710783D-04 0.100000000000D+01
0.331788287477D-04 0.000000000000D+00 0.000000000000D+00 0.601860499949D-07 0.000000000000D+00  7 2 -2 23 -13 13 23 21 2 0.28174640D+00 0.31840861D-01 0.15664355D+06 0.15664355D+06 0.15664355D+06 0.11060697D+01  1  2 12  1  7  1        2 0.397900582529D-03 0.100000000000D+01
-.269363708720D-04 0.000000000000D+00 0.000000000000D+00 0.601860499949D-07 0.000000000000D+00  7 2 -2 23 -13 13 23 21 2 0.26354133D+00 0.31840861D-01 0.13644148D+06 0.13644148D+06 0.13644148D+06 0.11108135D+01  1  2  4  1  7  1        2 -.379292344578D-03 0.100000000000D+01
-.118822964360D-03 0.000000000000D+00 -.251757527169D-04 0.601860499949D-07 0.000000000000D+00  7 2 -2 23 -13 13 23 21 2 0.28283541D+00 0.31840861D-01 0.13644148D+06 0.13644148D+06 0.13644148D+06 0.11108135D+01  1  2  5  1  7  1        2 -.143289283103D-02 0.100000000000D+01
0.120363904619D-03 0.000000000000D+00 0.251130429881D-04 0.601860499949D-07 0.000000000000D+00  7 2 -2 23 -13 13 23 21 2 0.26354133D+00 0.31840861D-01 0.13644148D+06 0.13644148D+06 0.13644148D+06 0.11108135D+01  1  2  6  1  7  1        2 0.169484997821D-02 0.100000000000D+01
0.387929044310D-06 0.000000000000D+00 0.000000000000D+00 0.601860499949D-07 0.000000000000D+00  7 21 -2 23 -13 13 23 -2 2 0.28174640D+00 0.31840861D-01 0.15664355D+06 0.15664355D+06 0.15664355D+06 0.11060697D+01  1  2 12  3  7  1        2 0.114737642325D-05 0.100000000000D+01
-.137711177028D-05 0.000000000000D+00 -.300903583483D-06 0.601860499949D-07 0.000000000000D+00  7 21 -2 23 -13 13 23 -2 2 0.28283541D+00 0.31840861D-01 0.13644148D+06 0.13644148D+06 0.13644148D+06 0.11108135D+01  1  2  5  3  7  1        2 -.409444811694D-05 0.100000000000D+01
  </mgrwgt>
  </event>
  <event>
  8     66 0.25765000E-05 0.18761139E+03 0.75467711E-02 0.95335886E-01
        2 -1    0    0  501    0 0.00000000E+00 0.00000000E+00 0.19926282E+04 0.19926282E+04 0.32000000E+00 0.0000E+00 0.9000E+01
       -2 -1    0    0    0  501 0.00000000E+00 0.00000000E+00 -.96828443E+02 0.96828971E+02 0.32000000E+00 0.0000E+00 0.9000E+01
       25  2    1    2    0    0 0.25120516E+03 0.28709856E+03 0.10045152E+04 0.11155512E+04 0.29979020E+03 0.0000E+00 0.0000E+00
       23  2    1    2    0    0 -.25120516E+03 -.28709856E+03 0.89128457E+03 0.97390597E+03 0.92601533E+02 0.0000E+00 0.0000E+00
       23  1    3    3    0    0 0.13716506E+03 0.28567245E+03 0.78993277E+03 0.85599768E+03 0.91188000E+02 0.0000E+00 0.9000E+01
      -11  1    4    4    0    0 -.25713622E+03 -.28838066E+03 0.88025239E+03 0.96131509E+03 0.51099893E-03 0.0000E+00 0.9000E+01
       11  1    4    4    0    0 0.59310552E+01 0.12821057E+01 0.11032176E+02 0.12590875E+02 0.51099893E-03 0.0000E+00 0.9000E+01
       23  1    3    3    0    0 0.11404010E+03 0.14261082E+01 0.21458244E+03 0.25955356E+03 0.91188000E+02 0.0000E+00 0.9000E+01
#aMCatNLO 1  0  0  1  2 0.69256041D+02 0.00000000D+00  -5  7  0 0.00000000D+00 0.00000000D+00 0.00000000D+00 0.00000000D+00 0.00000000D+00
  <mgrwgt>
 0.6878590828D-03    9    2    0
 0.439253533150685D+03 0.000000000000000D+00 0.000000000000000D+00 0.439253533150685D+03
 0.439253533150685D+03 0.000000000000000D+00 0.000000000000000D+00 -.439253533150685D+03
 0.331262181488988D+03 0.137165061447386D+03 0.285672446952167D+03 0.315654955820317D+02
 0.386843188866767D+03 -.257136215667569D+03 -.288380660893883D+03 0.191105674216615D+02
 0.613916133868845D+01 0.593105524713042D+01 0.128210571032222D+01 -.931713768005814D+00
 0.154262534606927D+03 0.114040098973052D+03 0.142610823139381D+01 -.497443492356874D+02
 0.000000000000000D+00 0.000000000000000D+00 0.000000000000000D+00 0.000000000000000D+00
 0.487231592062342D+03 0.000000000000000D+00 0.000000000000000D+00 0.487231592062342D+03
 0.466339688412130D+03 0.000000000000000D+00 0.000000000000000D+00 -.466339688412130D+03
 0.309487728986295D+03 0.117915359338343D+03 0.269382609998984D+03 0.315654955820317D+02
 0.418203168596060D+03 -.281321786842498D+03 -.308847419746953D+03 0.191105674216615D+02
 0.573599745397698D+01 0.557429629091484D+01 0.980202584994908D+00 -.931713768005814D+00
 0.147805801072550D+03 0.104965223763017D+03 -.625339957109381D+01 -.497443492356874D+02
 0.723385843655909D+02 0.528669074502224D+02 0.447380067340684D+02 0.208919036502128D+02
0.113188145261D-04 0.000000000000D+00 0.000000000000D+00 0.517499167313D-06 0.000000000000D+00  7 2 -2 23 -11 11 23 21 0 0.30655823D+00 0.14896726D-01 0.18844965D+06 0.18844965D+06 0.18844965D+06 0.10998151D+01  1  2  2  1  7  1        2 0.324836904574D-03 0.100000000000D+01
-.628716866243D-06 0.000000000000D+00 -.434672280927D-07 0.517499167313D-06 0.000000000000D+00  7 2 -2 23 -11 11 23 21 2 0.30655823D+00 0.14896726D-01 0.18844965D+06 0.18844965D+06 0.18844965D+06 0.10998151D+01  1  2  3  1  7  1        2 -.218252321484D-04 0.100000000000D+01
0.709766952791D-06 0.000000000000D+00 0.000000000000D+00 0.517499167313D-06 0.000000000000D+00  7 2 -2 23 -11 11 23 21 2 0.30655823D+00 0.14896726D-01 0.18844965D+06 0.18844965D+06 0.18844965D+06 0.10998151D+01  1  2 15  1  7  1        2 0.246387990328D-04 0.100000000000D+01
0.149046535780D-04 0.000000000000D+00 0.000000000000D+00 0.517499167313D-06 0.000000000000D+00  7 2 -2 23 -11 11 23 21 2 0.34867099D+00 0.14896726D-01 0.22077757D+06 0.22077757D+06 0.22077757D+06 0.10945438D+01  1  2 12  1  7  1        2 0.360212720117D-03 0.100000000000D+01
-.137893534335D-04 0.000000000000D+00 0.000000000000D+00 0.517499167313D-06 0.000000000000D+00  7 2 -2 23 -11 11 23 21 2 0.30655823D+00 0.14896726D-01 0.18844965D+06 0.18844965D+06 0.18844965D+06 0.10998151D+01  1  2  4  1  7  1        2 -.478682624917D-03 0.100000000000D+01
-.438018063685D-04 0.000000000000D+00 -.927555398060D-05 0.517499167313D-06 0.000000000000D+00  7 2 -2 23 -11 11 23 21 2 0.34909205D+00 0.14896726D-01 0.18844965D+06 0.18844965D+06 0.18844965D+06 0.10998151D+01  1  2  5  1  7  1        2 -.107123617342D-02 0.100000000000D+01
0.447068194034D-04 0.000000000000D+00 0.919780938674D-05 0.517499167313D-06 0.000000000000D+00  7 2 -2 23 -11 11 23 21 2 0.30655823D+00 0.14896726D-01 0.18844965D+06 0.18844965D+06 0.18844965D+06 0.10998151D+01  1  2  6  1  7  1        2 0.155194931850D-02 0.100000000000D+01
0.299881366241D-06 0.000000000000D+00 0.000000000000D+00 0.517499167313D-06 0.000000000000D+00  7 21 -2 23 -11 11 23 -2 2 0.34867099D+00 0.14896726D-01 0.22077757D+06 0.22077757D+06 0.22077757D+06 0.10945438D+01  1  2 12  3  7  1        2 0.110159440415D-05 0.100000000000D+01
-.838522117194D-06 0.000000000000D+00 -.188076292968D-06 0.517499167313D-06 0.000000000000D+00  7 21 -2 23 -11 11 23 -2 2 0.34909205D+00 0.14896726D-01 0.18844965D+06 0.18844965D+06 0.18844965D+06 0.10998151D+01  1  2  5  3  7  1        2 -.313622337792D-05 0.100000000000D+01
  </mgrwgt>
  </event>
  <event>
  8     66 0.25765000E-05 0.21902366E+03 0.75467711E-02 0.10006876E+00
        2 -1    0    0  501    0 0.00000000E+00 0.00000000E+00 0.55453877E+03 0.55453887E+03 0.32000000E+00 0.0000E+00 0.9000E+01
       -2 -1    0    0    0  501 0.00000000E+00 0.00000000E+00 -.12983734E+03 0.12983774E+03 0.32000000E+00 0.0000E+00 0.9000E+01
       25  2    1    2    0    0 -.97425219E+02 -.13345594E+03 0.30625708E+03 0.45947609E+03 0.30003786E+03 0.0000E+00 0.0000E+00
       23  2    1    2    0    0 0.97425219E+02 0.13345594E+03 0.11844435E+03 0.22490052E+03 0.96171804E+02 0.0000E+00 0.0000E+00
       23  1    3    3    0    0 0.78750490E+01 -.83502198E+02 0.51868213E+01 0.12400318E+03 0.91188000E+02 0.0000E+00 0.9000E+01
      -11  1    4    4    0    0 0.37930636E+02 0.66856775E+02 0.11136509E+03 0.13531720E+03 0.51099893E-03 0.0000E+00 0.9000E+01
       11  1    4    4    0    0 0.59494583E+02 0.66599166E+02 0.70792629E+01 0.89583315E+02 0.51099893E-03 0.0000E+00 0.9000E+01
       23  1    3    3    0    0 -.10530027E+03 -.49953743E+02 0.30107026E+03 0.33547291E+03 0.91188000E+02 0.0000E+00 0.9000E+01
#aMCatNLO 1  0  0  1  2 0.16874357D+03 0.00000000D+00  -5  7  0 0.00000000D+00 0.00000000D+00 0.00000000D+00 0.00000000D+00 0.00000000D+00
  <mgrwgt>
 0.1813114831D-03    7    2    0
 0.268328171340335D+03 0.000000000000000D+00 0.000000000000000D+00 0.268328171340335D+03
 0.268328171340335D+03 0.000000000000000D+00 0.000000000000000D+00 -.268328171340335D+03
 0.154031577173043D+03 0.787504888747303D+01 -.835021983360590D+02 -.915196257667203D+02
 0.844320839483321D+02 0.379306362512983D+02 0.668567752537043D+02 0.349315793531522D+02
 0.108639639888467D+03 0.594945831683717D+02 0.665991665855377D+02 -.618669292823658D+02
 0.189553041670827D+03 -.105300268307143D+03 -.499537435031830D+02 0.118454975695934D+03
 0.000000000000000D+00 -.000000000000000D+00 0.000000000000000D+00 0.000000000000000D+00
 0.378679703815164D+03 0.000000000000000D+00 0.000000000000000D+00 0.378679703815164D+03
 0.354366964598275D+03 0.000000000000000D+00 0.000000000000000D+00 -.354366964598275D+03
 0.174723819660704D+03 0.536923475338550D+02 -.104663516703050D+03 -.915196257667203D+02
 0.905206426205167D+02 0.623130841119409D+02 0.555954229481521D+02 0.349315793531522D+02
 0.122086277046857D+03 0.916499130686500D+02 0.517478070921047D+02 -.618669292823658D+02
 0.175229855011897D+03 -.544619639648521D+02 -.734340789923668D+02 0.118454975695934D+03
 0.170486074073463D+03 -.153193380749594D+03 0.707543656551597D+02 0.243127392168887D+02
0.138579668429D-05 0.000000000000D+00 0.000000000000D+00 0.221865242025D-07 0.000000000000D+00  7 2 -2 23 -11 11 23 21 0 0.85313695D-01 0.19975013D-01 0.47971365D+05 0.47971365D+05 0.47971365D+05 0.11488810D+01  1  2  2  1  7  1        2 0.183523866544D-03 0.100000000000D+01
-.731300747564D-07 0.000000000000D+00 -.532182415631D-08 0.221865242025D-07 0.000000000000D+00  7 2 -2 23 -11 11 23 21 2 0.85313695D-01 0.19975013D-01 0.47971365D+05 0.47971365D+05 0.47971365D+05 0.11488810D+01  1  2  3  1  7  1        2 -.127831863113D-04 0.100000000000D+01
0.884466643329D-07 0.000000000000D+00 0.000000000000D+00 0.221865242025D-07 0.000000000000D+00  7 2 -2 23 -11 11 23 21 2 0.85313695D-01 0.19975013D-01 0.47971365D+05 0.47971365D+05 0.47971365D+05 0.11488810D+01  1  2 15  1  7  1        2 0.154605364831D-04 0.100000000000D+01
-.498535382232D-06 0.000000000000D+00 0.000000000000D+00 0.221865242025D-07 0.000000000000D+00  7 2 -2 23 -11 11 23 21 2 0.85313695D-01 0.19975013D-01 0.47971365D+05 0.47971365D+05 0.47971365D+05 0.11488810D+01  1  2  4  1  7  1        2 -.871443205149D-04 0.100000000000D+01
-.503742452914D-06 0.000000000000D+00 -.490725036605D-06 0.221865242025D-07 0.000000000000D+00  7 2 -2 23 -11 11 23 21 2 0.14909303D+00 0.19975013D-01 0.47971365D+05 0.47971365D+05 0.47971365D+05 0.11488810D+01  1  2  5  1  7  1        2 -.447004783687D-04 0.100000000000D+01
0.728796958708D-06 0.000000000000D+00 0.423074569120D-06 0.221865242025D-07 0.000000000000D+00  7 2 -2 23 -11 11 23 21 2 0.85313695D-01 0.19975013D-01 0.47971365D+05 0.47971365D+05 0.47971365D+05 0.11488810D+01  1  2  6  1  7  1        2 0.127394199135D-03 0.100000000000D+01
-.621314981084D-08 0.000000000000D+00 -.302702725662D-07 0.221865242025D-07 0.000000000000D+00  7 21 -2 23 -11 11 23 -2 2 0.14909303D+00 0.19975013D-01 0.47971365D+05 0.47971365D+05 0.47971365D+05 0.11488810D+01  1  2  5  3  7  1        2 -.439133890864D-06 0.100000000000D+01
  </mgrwgt>
  </event>
  <event>
  8     66 0.25765000E-05 0.34159352E+03 0.75467711E-02 0.97023885E-01
        2 -1    0    0  501    0 0.00000000E+00 0.00000000E+00 0.10788552E+04 0.10788552E+04 0.32000000E+00 0.0000E+00 0.9000E+01
       -2 -1    0    0    0  501 0.00000000E+00 0.00000000E+00 -.36596764E+03 0.36596778E+03 0.32000000E+00 0.0000E+00 0.9000E+01
       25  2    1    2    0    0 -.26553560E+03 0.33917359E+02 -.22801732E+03 0.46283006E+03 0.30093226E+03 0.0000E+00 0.0000E+00
       23  2    1    2    0    0 0.26553560E+03 -.33917359E+02 0.94090487E+03 0.98199294E+03 0.85724128E+02 0.0000E+00 0.0000E+00
       23  1    3    3    0    0 -.42779875E+02 0.11063976E+03 -.96190192E+02 0.17787377E+03 0.91188000E+02 0.0000E+00 0.9000E+01
      -13  1    4    4    0    0 0.92302513E+02 0.28812790E+02 0.30887886E+03 0.32366046E+03 0.10565837E+00 0.0000E+00 0.9000E+01
       13  1    4    4    0    0 0.17323309E+03 -.62730149E+02 0.63202601E+03 0.65833248E+03 0.10565837E+00 0.0000E+00 0.9000E+01
       23  1    3    3    0    0 -.22275573E+03 -.76722405E+02 -.13182713E+03 0.28495629E+03 0.91188000E+02 0.0000E+00 0.9000E+01
#aMCatNLO 1  0  0  1  2 0.12158143D+03 0.00000000D+00  -5  7  0 0.00000000D+00 0.00000000D+00 0.00000000D+00 0.00000000D+00 0.00000000D+00
  <mgrwgt>
 0.4292254105D-03    4    2    0
 0.628351983595311D+03 0.000000000000000D+00 0.000000000000000D+00 0.628351983595311D+03
 0.628351983595311D+03 0.000000000000000D+00 0.000000000000000D+00 -.628351983595311D+03
 0.259065713802154D+03 -.427798749166053D+02 0.110639764289652D+03 -.211491176137137D+03
 0.196892668651609D+03 0.923023902382840D+02 0.288129288988388D+02 0.171513284772120D+03
 0.398352235343675D+03 0.173233213915438D+03 -.627302881069458D+02 0.353185033592663D+03
 0.402393349393184D+03 -.222755729237116D+03 -.767224050815445D+02 -.313207142227646D+03
 0.000000000000000D+00 -.000000000000000D+00 -.000000000000000D+00 -.000000000000000D+00
 0.640264696043247D+03 0.000000000000000D+00 0.000000000000000D+00 0.640264696043247D+03
 0.104286191401982D+04 0.000000000000000D+00 0.000000000000000D+00 -.104286191401982D+04
 0.270972867436535D+03 -.427403083606678D+02 0.136219646160689D+03 -.211491176137137D+03
 0.200613317469238D+03 0.923320634420697D+02 0.479967327348516D+02 0.171513284772120D+03
 0.394169159415373D+03 0.173292374405273D+03 -.244828767377023D+02 0.353185033592663D+03
 0.396816200006501D+03 -.222696069486937D+03 -.381522205940821D+02 -.313207142227646D+03
 0.420555065735425D+03 -.188059999737558D+00 -.121581281563756D+03 -.402597217976576D+03
0.492708182016D-04 0.000000000000D+00 0.000000000000D+00 0.355826586237D-07 0.000000000000D+00  7 2 -2 23 -13 13 23 21 0 0.16597773D+00 0.56302728D-01 0.11668613D+06 0.11668613D+06 0.11668613D+06 0.11162635D+01  1  2  2  1  7  1        2 0.431495361502D-03 0.100000000000D+01
-.150098933998D-05 0.000000000000D+00 -.189212915199D-06 0.355826586237D-07 0.000000000000D+00  7 2 -2 23 -13 13 23 21 2 0.16597773D+00 0.56302728D-01 0.11668613D+06 0.11668613D+06 0.11668613D+06 0.11162635D+01  1  2  3  1  7  1        2 -.163793777606D-04 0.100000000000D+01
0.294976231365D-05 0.000000000000D+00 0.000000000000D+00 0.355826586237D-07 0.000000000000D+00  7 2 -2 23 -13 13 23 21 2 0.16597773D+00 0.56302728D-01 0.11668613D+06 0.11668613D+06 0.11668613D+06 0.11162635D+01  1  2 15  1  7  1        2 0.321889502825D-04 0.100000000000D+01
-.165678894794D-05 0.000000000000D+00 0.000000000000D+00 0.355826586237D-07 0.000000000000D+00  7 2 -2 23 -13 13 23 21 2 0.16597773D+00 0.56302728D-01 0.11668613D+06 0.11668613D+06 0.11668613D+06 0.11162635D+01  1  2  4  1  7  1        2 -.180795235016D-04 0.100000000000D+01
  </mgrwgt>
  </event>
  <event>
  7     66 0.25765000E-05 0.63433333E+03 0.75467711E-02 0.89548059E-01
        2 -1    0    0  501    0 0.00000000E+00 0.00000000E+00 0.20415935E+04 0.20415935E+04 0.32000000E+00 0.0000E+00 0.9000E+01
       -2 -1    0    0    0  501 0.00000000E+00 0.00000000E+00 -.20972704E+03 0.20972728E+03 0.32000000E+00 0.0000E+00 0.9000E+01
       25  2    1    2    0    0 -.13699548E+03 0.59608787E+03 0.98792950E+03 0.12003890E+04 0.30139752E+03 0.0000E+00 0.0000E+00
       23  1    3    3    0    0 -.95375687E+02 0.42306624E+03 0.84643240E+03 0.95542903E+03 0.91188000E+02 0.0000E+00 0.9000E+01
      -11  1    1    2    0    0 -.80318501E+01 -.25212301E+03 0.31543822E+03 0.40389577E+03 0.51099893E-03 0.0000E+00 0.9000E+01
       11  1    1    2    0    0 0.14502733E+03 -.34396486E+03 0.52849872E+03 0.64703604E+03 0.51099893E-03 0.0000E+00 0.9000E+01
       23  1    3    3    0    0 -.41619792E+02 0.17302163E+03 0.14149710E+03 0.24495994E+03 0.91188000E+02 0.0000E+00 0.9000E+01
#aMCatNLO 1  0  0  2  2 0.30655068D+03 0.00000000D+00  -5  7  0 0.00000000D+00 0.00000000D+00 0.00000000D+00 0.00000000D+00 0.00000000D+00
  <mgrwgt>
 0.6276448974D-04    4    2    0
 0.654352853409504D+03 0.000000000000000D+00 0.000000000000000D+00 0.654352853409504D+03
 0.654352853409504D+03 0.000000000000000D+00 0.000000000000000D+00 -.654352853409504D+03
 0.458793839513466D+03 -.953756873510090D+02 0.423066236298979D+03 0.118722254854122D+03
 0.253271805519525D+03 -.803184975877814D+01 -.252123012080606D+03 -.227174743309031D+02
 0.373305190589409D+03 0.145027328899512D+03 -.343964857347758D+03 0.346642510446760D+01
 0.223334871196606D+03 -.416197917897247D+02 0.173021633129384D+03 -.994712056276862D+02
 0.000000000000000D+00 0.000000000000000D+00 0.000000000000000D+00 0.000000000000000D+00
 0.103170301310111D+04 0.000000000000000D+00 0.000000000000000D+00 0.103170301310111D+04
 0.737389605437393D+03 0.000000000000000D+00 0.000000000000000D+00 -.737389605437393D+03
 0.403311724930699D+03 -.153015709020766D+03 0.341813275221722D+03 0.118722254854122D+03
 0.309383952340521D+03 -.456507811440276D+02 -.305152998521736D+03 -.227174743309031D+02
 0.429468811705837D+03 0.913541909491157D+02 -.419625852303038D+03 0.346642510446760D+01
 0.201964950109718D+03 -.700551620358799D+02 0.132937365898089D+03 -.994712056276862D+02
 0.424963179451731D+03 0.177367461251558D+03 0.250028209704964D+03 0.294313407663722D+03
0.972314002444D-05 0.000000000000D+00 0.000000000000D+00 0.720334275048D-10 0.000000000000D+00  7 2 -2 23 -11 11 23 21 0 0.31409132D+00 0.32265719D-01 0.40237878D+06 0.40237878D+06 0.40237878D+06 0.10752420D+01  1  2  2  2  7  2       -2 0.685932541222D-04 0.100000000000D+01
-.539540344897D-06 0.000000000000D+00 -.373394178554D-07 0.720334275048D-10 0.000000000000D+00  7 2 -2 23 -11 11 23 21 2 0.31409132D+00 0.32265719D-01 0.40237878D+06 0.40237878D+06 0.40237878D+06 0.10752420D+01  1  2  3  2  7  2       -2 -.440059358847D-05 0.100000000000D+01
0.606659093549D-06 0.000000000000D+00 0.000000000000D+00 0.720334275048D-10 0.000000000000D+00  7 2 -2 23 -11 11 23 21 2 0.31409132D+00 0.32265719D-01 0.40237878D+06 0.40237878D+06 0.40237878D+06 0.10752420D+01  1  2 15  2  7  2       -2 0.494802685788D-05 0.100000000000D+01
-.781761780977D-06 0.000000000000D+00 0.000000000000D+00 0.720334275048D-10 0.000000000000D+00  7 2 -2 23 -11 11 23 21 2 0.31409132D+00 0.32265719D-01 0.40237878D+06 0.40237878D+06 0.40237878D+06 0.10752420D+01  1  2  4  2  7  2       -2 -.637619765347D-05 0.100000000000D+01
  </mgrwgt>
  </event>
  <event>
  8     66 0.25765000E-05 0.33717239E+03 0.75467711E-02 0.94010327E-01
        2 -1    0    0  501    0 0.00000000E+00 0.00000000E+00 0.93080565E+03 0.93080571E+03 0.32000000E+00 0.0000E+00 0.9000E+01
       -2 -1    0    0    0  501 0.00000000E+00 0.00000000E+00 -.31942839E+03 0.31942855E+03 0.32000000E+00 0.0000E+00 0.9000E+01
       25  2    1    2    0    0 0.39754838E+03 0.28471957E+03 0.44346377E+03 0.72506248E+03 0.29990921E+03 0.0000E+00 0.0000E+00
       23  2    1    2    0    0 -.39754838E+03 -.28471957E+03 0.16791350E+03 0.52517178E+03 0.92198212E+02 0.0000E+00 0.0000E+00
       23  1    3    3    0    0 0.27357864E+03 0.26203998E+03 0.20483302E+03 0.44020682E+03 0.91188000E+02 0.0000E+00 0.9000E+01
      -13  1    4    4    0    0 -.35759663E+02 -.65370781E+02 0.24552564E+02 0.78453375E+02 0.10565837E+00 0.0000E+00 0.9000E+01
       13  1    4    4    0    0 -.36178872E+03 -.21934879E+03 0.14336093E+03 0.44671841E+03 0.10565837E+00 0.0000E+00 0.9000E+01
       23  1    3    3    0    0 0.12396974E+03 0.22679586E+02 0.23863075E+03 0.28485566E+03 0.91188000E+02 0.0000E+00 0.9000E+01
#aMCatNLO 1  0  0  1  2 0.13388661D+02 0.00000000D+00  -5  7  0 0.00000000D+00 0.00000000D+00 0.00000000D+00 0.00000000D+00 0.00000000D+00
  <mgrwgt>
 0.2850889766D-03    9    2    0
 0.545275971563050D+03 0.000000000000000D+00 0.000000000000000D+00 0.545275971563050D+03
 0.545275971563050D+03 0.000000000000000D+00 0.000000000000000D+00 -.545275971563050D+03
 0.389831405071434D+03 0.273578644489462D+03 0.262039983059822D+03 -.119601669421892D+02
 0.761758384447817D+02 -.357592353336469D+02 -.653705786677639D+02 -.158342317704406D+02
 0.431758939624517D+03 -.361789145278422D+03 -.219348990698144D+03 -.860837765441406D+02
 0.192785759985367D+03 0.123969736122607D+03 0.226795863060857D+02 0.113878175256770D+03
 0.000000000000000D+00 0.000000000000000D+00 0.000000000000000D+00 0.000000000000000D+00
 0.555221789957778D+03 0.000000000000000D+00 0.000000000000000D+00 0.555221789957778D+03
 0.549841575477789D+03 0.000000000000000D+00 0.000000000000000D+00 -.549841575477789D+03
 0.385338328672610D+03 0.271005298717730D+03 0.258037707852611D+03 -.119601669421892D+02
 0.770940636494477D+02 -.362680483552583D+02 -.661619257785451D+02 -.158342317704406D+02
 0.436458768564882D+03 -.364671384188243D+03 -.223831681464674D+03 -.860837765441406D+02
 0.191742965159739D+03 0.122693208768807D+03 0.206942278534595D+02 0.113878175256770D+03
 0.144292393888887D+02 0.724092505696407D+01 0.112616715371481D+02 0.538021447998819D+01
0.764539371227D-05 0.000000000000D+00 0.000000000000D+00 0.707900498729D-06 0.000000000000D+00  7 2 -2 23 -13 13 23 21 0 0.14320089D+00 0.49142846D-01 0.27186190D+06 0.27186190D+06 0.27186190D+06 0.10877306D+01  1  2  2  1  7  1        2 0.105460249934D-03 0.100000000000D+01
-.423709118389D-06 0.000000000000D+00 -.293603249335D-07 0.707900498729D-06 0.000000000000D+00  7 2 -2 23 -13 13 23 21 2 0.14320089D+00 0.49142846D-01 0.27186190D+06 0.27186190D+06 0.27186190D+06 0.10877306D+01  1  2  3  1  7  1        2 -.691511621065D-05 0.100000000000D+01
0.470985686236D-06 0.000000000000D+00 0.000000000000D+00 0.707900498729D-06 0.000000000000D+00  7 2 -2 23 -13 13 23 21 2 0.14320089D+00 0.49142846D-01 0.27186190D+06 0.27186190D+06 0.27186190D+06 0.10877306D+01  1  2 15  1  7  1        2 0.768669026115D-05 0.100000000000D+01
0.830807284496D-05 0.000000000000D+00 0.000000000000D+00 0.707900498729D-06 0.000000000000D+00  7 2 -2 23 -13 13 23 21 2 0.14640434D+00 0.49142846D-01 0.27885807D+06 0.27885807D+06 0.27885807D+06 0.10869078D+01  1  2 12  1  7  1        2 0.131209931900D-03 0.100000000000D+01
-.782165517723D-05 0.000000000000D+00 0.000000000000D+00 0.707900498729D-06 0.000000000000D+00  7 2 -2 23 -13 13 23 21 2 0.14320089D+00 0.49142846D-01 0.27186190D+06 0.27186190D+06 0.27186190D+06 0.10877306D+01  1  2  4  1  7  1        2 -.127652798023D-03 0.100000000000D+01
-.333041252443D-03 0.000000000000D+00 -.401461937029D-04 0.707900498729D-06 0.000000000000D+00  7 2 -2 23 -13 13 23 21 2 0.14661760D+00 0.49142846D-01 0.27186190D+06 0.27186190D+06 0.27186190D+06 0.10877306D+01  1  2  5  1  7  1        2 -.526094512538D-02 0.100000000000D+01
0.333906206038D-03 0.000000000000D+00 0.401350358603D-04 0.707900498729D-06 0.000000000000D+00  7 2 -2 23 -13 13 23 21 2 0.14320089D+00 0.49142846D-01 0.27186190D+06 0.27186190D+06 0.27186190D+06 0.10877306D+01  1  2  6  1  7  1        2 0.544949381073D-02 0.100000000000D+01
0.301585369639D-06 0.000000000000D+00 0.000000000000D+00 0.707900498729D-06 0.000000000000D+00  7 21 -2 23 -13 13 23 -2 2 0.14640434D+00 0.49142846D-01 0.27885807D+06 0.27885807D+06 0.27885807D+06 0.10869078D+01  1  2 12  3  7  1        2 0.359743792989D-05 0.100000000000D+01
-.141357573299D-05 0.000000000000D+00 -.171377876465D-06 0.707900498729D-06 0.000000000000D+00  7 21 -2 23 -13 13 23 -2 2 0.14661760D+00 0.49142846D-01 0.27186190D+06 0.27186190D+06 0.27186190D+06 0.10877306D+01  1  2  5  3  7  1        2 -.168461045312D-04 0.100000000000D+01
  </mgrwgt>
  </event>
  <event>
  8     66 0.25765000E-05 0.38234897E+03 0.75467711E-02 0.92596363E-01
        2 -1    0    0  501    0 0.00000000E+00 0.00000000E+00 0.15162751E+04 0.15162751E+04 0.32000000E+00 0.0000E+00 0.9000E+01
       -2 -1    0    0    0  501 0.00000000E+00 0.00000000E+00 -.99812906E+02 0.99813419E+02 0.32000000E+00 0.0000E+00 0.9000E+01
       25  2    1    2    0    0 0.47181392E+02 0.31820054E+03 0.72491875E+03 0.84805640E+03 0.30035779E+03 0.0000E+00 0.0000E+00
       23  2    1    2    0    0 -.47181392E+02 -.31820054E+03 0.69154341E+03 0.76803212E+03 0.90351421E+02 0.0000E+00 0.0000E+00
       23  1    3    3    0    0 0.10880927E+02 -.64922708E+01 0.93047154E+02 0.13089526E+03 0.91188000E+02 0.0000E+00 0.9000E+01
      -11  1    4    4    0    0 0.90954503E+01 0.11429348E+01 0.12131141E+02 0.15205199E+02 0.51099893E-03 0.0000E+00 0.9000E+01
       11  1    4    4    0    0 -.56276842E+02 -.31934347E+03 0.67941227E+03 0.75282692E+03 0.51099893E-03 0.0000E+00 0.9000E+01
       23  1    3    3    0    0 0.36300465E+02 0.32469281E+03 0.63187159E+03 0.71716114E+03 0.91188000E+02 0.0000E+00 0.9000E+01
#aMCatNLO 1  0  0  1  1 0.35617732D+03 0.00000000D+00  -5  7  0 0.00000000D+00 0.00000000D+00 0.00000000D+00 0.00000000D+00 0.00000000D+00
  <mgrwgt>
 0.4010734074D-03    3    2    0
 0.389029899039428D+03 0.000000000000000D+00 0.000000000000000D+00 0.389029899039428D+03
 0.389029899039428D+03 0.000000000000000D+00 0.000000000000000D+00 -.389029899039428D+03
 0.102486402529686D+03 0.108809271674618D+02 -.649227083945294D+01 -.450296258345594D+02
 0.949753038498762D+01 0.909545035021812D+01 0.114293481678101D+01 -.248386117669026D+01
 0.326804144434742D+03 -.562768423013445D+02 -.319343470779264D+03 0.406646469426070D+02
 0.339271720729440D+03 0.363004647836645D+02 0.324692806801936D+03 0.684884006864266D+01
 0.000000000000000D+00 -.000000000000000D+00 0.000000000000000D+00 -.000000000000000D+00
 0.523344693904722D+03 0.000000000000000D+00 0.000000000000000D+00 0.523344693904722D+03
 0.759990711302845D+03 0.000000000000000D+00 0.000000000000000D+00 -.759990711302845D+03
 0.116025881763991D+03 0.141955047352815D+02 -.540145752331878D+02 -.450296258345594D+02
 0.102131434583506D+02 0.939443838001662D+01 -.314376533473012D+01 -.248386117669026D+01
 0.503460133629596D+03 -.436826974900834D+02 -.499910306538437D+03 0.406646469426070D+02
 0.226010683323013D+03 0.448751423218720D+02 0.201754535570929D+03 0.684884006864266D+01
 0.427625563032616D+03 -.247823879470868D+02 0.355314111535426D+03 -.236646017398123D+03
0.798249772811D-05 0.000000000000D+00 0.000000000000D+00 0.470925708001D-06 0.000000000000D+00  7 2 -2 23 -11 11 23 21 0 0.23327313D+00 0.15355874D-01 0.14619074D+06 0.14619074D+06 0.14619074D+06 0.11084346D+01  1  2  2  1  7  1        2 0.397065692869D-03 0.100000000000D+01
-.443310300193D-06 0.000000000000D+00 -.306548931159D-07 0.470925708001D-06 0.000000000000D+00  7 2 -2 23 -11 11 23 21 2 0.23327313D+00 0.15355874D-01 0.14619074D+06 0.14619074D+06 0.14619074D+06 0.11084346D+01  1  2  3  1  7  1        2 -.270926507962D-04 0.100000000000D+01
0.508887534862D-06 0.000000000000D+00 0.000000000000D+00 0.470925708001D-06 0.000000000000D+00  7 2 -2 23 -11 11 23 21 2 0.23327313D+00 0.15355874D-01 0.14619074D+06 0.14619074D+06 0.14619074D+06 0.11084346D+01  1  2 15  1  7  1        2 0.311003652985D-04 0.100000000000D+01
  </mgrwgt>
  </event>
  <event>
  7     66 0.25765000E-05 0.73503474E+03 0.75467711E-02 0.85804824E-01
        2 -1    0    0  501    0 0.00000000E+00 0.00000000E+00 0.15233758E+04 0.15233759E+04 0.32000000E+00 0.0000E+00 0.9000E+01
       -2 -1    0    0    0  501 0.00000000E+00 0.00000000E+00 -.40870459E+03 0.40870471E+03 0.32000000E+00 0.0000E+00 0.9000E+01
       23  2    1    2    0    0 0.46964300E+03 0.53073933E+03 0.88447917E+03 0.11370944E+04 0.91823027E+02 0.0000E+00 0.0000E+00
       23  1    1    2    0    0 -.94690885E+02 -.25193171E+03 0.69632311E+02 0.29257454E+03 0.91188000E+02 0.0000E+00 0.9000E+01
      -11  1    3    3    0    0 0.16429816E+03 0.21516536E+03 0.27491150E+03 0.38583203E+03 0.51099893E-03 0.0000E+00 0.9000E+01
       11  1    3    3    0    0 0.30534484E+03 0.31557398E+03 0.60956766E+03 0.75126236E+03 0.51099893E-03 0.0000E+00 0.9000E+01
       23  1    1    2    0    0 -.37495212E+03 -.27880762E+03 0.16055977E+03 0.50241165E+03 0.91188000E+02 0.0000E+00 0.9000E+01
#aMCatNLO 1  0  0  1  1 0.72640744D+03 0.00000000D+00  -5  7  0 0.00000000D+00 0.00000000D+00 0.00000000D+00 0.00000000D+00 0.00000000D+00
  <mgrwgt>
 0.2260606411D-02    3    2    0
 0.789056935937866D+03 0.000000000000000D+00 0.000000000000000D+00 0.789056935937866D+03
 0.789056935937866D+03 0.000000000000000D+00 0.000000000000000D+00 -.789056935937866D+03
 0.309014745314525D+03 -.946908850180050D+02 -.251931714374132D+03 -.121403908770760D+03
 0.278194511872890D+03 0.164298164869260D+03 0.215165357054455D+03 0.640481739038505D+02
 0.489211768872575D+03 0.305344835648729D+03 0.315573975203680D+03 0.215651923989172D+03
 0.501692845815741D+03 -.374952115499984D+03 -.278807617884003D+03 -.158296189122263D+03
 0.000000000000000D+00 0.000000000000000D+00 -.000000000000000D+00 -.000000000000000D+00
 0.104345476170703D+04 0.000000000000000D+00 0.000000000000000D+00 0.104345476170703D+04
 0.162322641550030D+04 0.000000000000000D+00 0.000000000000000D+00 -.162322641550030D+04
 0.332285171613127D+03 -.222799767831139D+03 -.194215185604877D+03 -.121403908770760D+03
 0.277981740157863D+03 0.531939585312854D+02 0.265220817539928D+03 0.640481739038505D+02
 0.470071633025154D+03 0.113714177863747D+03 0.401908787671377D+03 0.215651923989172D+03
 0.656932637475363D+03 -.606404221363886D+03 -.174532162244569D+03 -.158296189122263D+03
 0.929409994935825D+03 0.662295852799992D+03 -.298382257361858D+03 -.579771653793270D+03
0.612563695940D-03 0.000000000000D+00 0.000000000000D+00 0.171429500035D-08 0.000000000000D+00  7 2 -2 23 -11 11 23 21 0 0.23436553D+00 0.62877641D-01 0.54027607D+06 0.54027607D+06 0.54027607D+06 0.10661406D+01  1  2  2  1  7  1        2 0.224055721516D-02 0.100000000000D+01
-.338231999671D-04 0.000000000000D+00 -.235240588413D-05 0.171429500035D-08 0.000000000000D+00  7 2 -2 23 -11 11 23 21 2 0.23436553D+00 0.62877641D-01 0.54027607D+06 0.54027607D+06 0.54027607D+06 0.10661406D+01  1  2  3  1  7  1        2 -.140620434241D-03 0.100000000000D+01
0.386455997025D-04 0.000000000000D+00 0.000000000000D+00 0.171429500035D-08 0.000000000000D+00  7 2 -2 23 -11 11 23 21 2 0.23436553D+00 0.62877641D-01 0.54027607D+06 0.54027607D+06 0.54027607D+06 0.10661406D+01  1  2 15  1  7  1        2 0.160669629631D-03 0.100000000000D+01
  </mgrwgt>
  </event>
  <event>
  8     66 0.25765000E-05 0.14514151E+03 0.75467711E-02 0.98104057E-01
        2 -1    0    0  501    0 0.00000000E+00 0.00000000E+00 0.16539484E+04 0.16539484E+04 0.32000000E+00 0.0000E+00 0.9000E+01
       -2 -1    0    0    0  501 0.00000000E+00 0.00000000E+00 -.53060994E+02 0.53061959E+02 0.32000000E+00 0.0000E+00 0.9000E+01
       25  2    1    2    0    0 0.24607585E+02 0.19699064E+03 0.11663356E+04 0.12205488E+04 0.29998306E+03 0.0000E+00 0.0000E+00
       23  2    1    2    0    0 -.24607585E+02 -.19699064E+03 0.43455183E+03 0.48646160E+03 0.91644667E+02 0.0000E+00 0.0000E+00
       23  1    3    3    0    0 -.57445150E+02 0.10850124E+03 0.25970380E+03 0.30138643E+03 0.91188000E+02 0.0000E+00 0.9000E+01
      -11  1    4    4    0    0 -.48039984E+02 -.18643191E+03 0.39258253E+03 0.43724792E+03 0.51099893E-03 0.0000E+00 0.9000E+01
       11  1    4    4    0    0 0.23432400E+02 -.10558734E+02 0.41969300E+02 0.49213681E+02 0.51099893E-03 0.0000E+00 0.9000E+01
       23  1    3    3    0    0 0.82052734E+02 0.88489403E+02 0.90663176E+03 0.91916235E+03 0.91188000E+02 0.0000E+00 0.9000E+01
#aMCatNLO 1  0  0  1  2 0.18351383D+03 0.00000000D+00  -5  7  0 0.00000000D+00 0.00000000D+00 0.00000000D+00 0.00000000D+00 0.00000000D+00
  <mgrwgt>
 0.4644031027D-03    8    2    0
 0.296244824334705D+03 0.000000000000000D+00 0.000000000000000D+00 0.296244824334705D+03
 0.296244824334705D+03 0.000000000000000D+00 0.000000000000000D+00 -.296244824334705D+03
 0.166607505210960D+03 -.574451498683763D+02 0.108501239679879D+03 -.661085863799050D+02
 0.199001461172083D+03 -.480399843367089D+02 -.186431908277291D+03 -.503674997358492D+02
 0.283889185645315D+02 0.234323997794228D+02 -.105587340301735D+02 -.120568019607590D+02
 0.198491763721835D+03 0.820527344256624D+02 0.884894026275854D+02 0.128532888076513D+03
 0.000000000000000D+00 -.000000000000000D+00 -.000000000000000D+00 0.000000000000000D+00
 0.511352196033398D+03 0.000000000000000D+00 0.000000000000000D+00 0.511352196033398D+03
 0.351970406098622D+03 0.000000000000000D+00 0.000000000000000D+00 -.351970406098622D+03
 0.173578126799658D+03 -.114310698447848D+02 0.131579254475516D+03 -.661085863799050D+02
 0.169140317202134D+03 0.175549100426548D+01 -.161457363179669D+03 -.503674997358492D+02
 0.347408728089732D+02 0.319714414049152D+02 -.627604210473174D+01 -.120568019607590D+02
 0.242799750613614D+03 0.141742565928391D+03 0.118426387434470D+03 0.128532888076513D+03
 0.243063534707641D+03 -.164038428492787D+03 -.822722366255842D+02 0.159381789934777D+03
0.230835507216D-05 0.000000000000D+00 0.000000000000D+00 0.357948594724D-06 0.000000000000D+00  7 2 -2 23 -11 11 23 21 0 0.25445367D+00 0.81633065D-02 0.68227915D+05 0.68227915D+05 0.68227915D+05 0.11356075D+01  1  2  2  1  7  1        2 0.262405320138D-03 0.100000000000D+01
-.125771153550D-06 0.000000000000D+00 -.886469128093D-08 0.357948594724D-06 0.000000000000D+00  7 2 -2 23 -11 11 23 21 2 0.25445367D+00 0.81633065D-02 0.68227915D+05 0.68227915D+05 0.68227915D+05 0.11356075D+01  1  2  3  1  7  1        2 -.184377352258D-04 0.100000000000D+01
0.149640272525D-06 0.000000000000D+00 0.000000000000D+00 0.357948594724D-06 0.000000000000D+00  7 2 -2 23 -11 11 23 21 2 0.25445367D+00 0.81633065D-02 0.68227915D+05 0.68227915D+05 0.68227915D+05 0.11356075D+01  1  2 15  1  7  1        2 0.219368881184D-04 0.100000000000D+01
0.279845376193D-06 0.000000000000D+00 0.000000000000D+00 0.357948594724D-06 0.000000000000D+00  7 2 -2 23 -11 11 23 21 2 0.44856279D+00 0.81633065D-02 0.13840127D+06 0.13840127D+06 0.13840127D+06 0.11103206D+01  1  2 12  1  7  1        2 0.759447448929D-05 0.100000000000D+01
-.133238456572D-05 0.000000000000D+00 -.647139368876D-06 0.357948594724D-06 0.000000000000D+00  7 2 -2 23 -11 11 23 21 2 0.46205554D+00 0.81633065D-02 0.68227915D+05 0.68227915D+05 0.68227915D+05 0.11356075D+01  1  2  5  1  7  1        2 -.343517726583D-04 0.100000000000D+01
0.153697848442D-05 0.000000000000D+00 0.546900155854D-06 0.357948594724D-06 0.000000000000D+00  7 2 -2 23 -11 11 23 21 2 0.25445367D+00 0.81633065D-02 0.68227915D+05 0.68227915D+05 0.68227915D+05 0.11356075D+01  1  2  6  1  7  1        2 0.225317185569D-03 0.100000000000D+01
0.174891854313D-07 0.000000000000D+00 0.000000000000D+00 0.357948594724D-06 0.000000000000D+00  7 21 -2 23 -11 11 23 -2 2 0.44856279D+00 0.81633065D-02 0.13840127D+06 0.13840127D+06 0.13840127D+06 0.11103206D+01  1  2 12  3  7  1        2 0.366678452997D-07 0.100000000000D+01
-.521562618761D-07 0.000000000000D+00 -.422614438235D-07 0.357948594724D-06 0.000000000000D+00  7 21 -2 23 -11 11 23 -2 2 0.46205554D+00 0.81633065D-02 0.68227915D+05 0.68227915D+05 0.68227915D+05 0.11356075D+01  1  2  5  3  7  1        2 -.979255338607D-07 0.100000000000D+01
  </mgrwgt>
  </event>
  <event>
  8     66 0.25765000E-05 0.44622658E+03 0.75467711E-02 0.91863896E-01
        2 -1    0    0  501    0 0.00000000E+00 0.00000000E+00 0.73273531E+03 0.73273538E+03 0.32000000E+00 0.0000E+00 0.9000E+01
       -2 -1    0    0    0  501 0.00000000E+00 0.00000000E+00 -.30943338E+03 0.30943354E+03 0.32000000E+00 0.0000E+00 0.9000E+01
       25  2    1    2    0    0 0.11501638E+02 0.41293459E+03 0.33261018E+03 0.60942675E+03 0.30020689E+03 0.0000E+00 0.0000E+00
       23  2    1    2    0    0 -.11501638E+02 -.41293459E+03 0.90691761E+02 0.43274218E+03 0.91616238E+02 0.0000E+00 0.0000E+00
       23  1    3    3    0    0 0.51832359E+02 0.33666640E+03 0.33136171E+03 0.48388707E+03 0.91188000E+02 0.0000E+00 0.9000E+01
      -11  1    4    4    0    0 -.21962676E+02 -.32421891E+03 0.33526889E+02 0.32668688E+03 0.51099893E-03 0.0000E+00 0.9000E+01
       11  1    4    4    0    0 0.10461037E+02 -.88715673E+02 0.57164872E+02 0.10605530E+03 0.51099893E-03 0.0000E+00 0.9000E+01
       23  1    3    3    0    0 -.40330720E+02 0.76268185E+02 0.12484675E+01 0.12553969E+03 0.91188000E+02 0.0000E+00 0.9000E+01
#aMCatNLO 1  0  0  1  1 0.33984194D+03 0.00000000D+00  -5  7  0 0.00000000D+00 0.00000000D+00 0.00000000D+00 0.00000000D+00 0.00000000D+00
  <mgrwgt>
 0.2482616570D-03    3    2    0
 0.476164768539385D+03 0.000000000000000D+00 0.000000000000000D+00 0.476164768539385D+03
 0.476164768539385D+03 0.000000000000000D+00 0.000000000000000D+00 -.476164768539385D+03
 0.382247949200257D+03 0.518323585995784D+02 0.336666402013009D+03 0.147537736465699D+03
 0.342602956623712D+03 -.219626757640743D+02 -.324218913305970D+03 -.108519689528157D+03
 0.906509079186606D+02 0.104610374492157D+02 -.887156733953890D+02 0.154169742805214D+02
 0.136827723336141D+03 -.403307202847198D+02 0.762681846883499D+02 -.544350212180633D+02
 0.000000000000000D+00 0.000000000000000D+00 0.000000000000000D+00 -.000000000000000D+00
 0.650191397851398D+03 0.000000000000000D+00 0.000000000000000D+00 0.650191397851398D+03
 0.705228128905392D+03 0.000000000000000D+00 0.000000000000000D+00 -.705228128905392D+03
 0.292691994713358D+03 -.686923123313148D+01 0.235666676486363D+03 0.147537736465699D+03
 0.467732543971462D+03 -.924400309891931D+02 -.445479573432324D+03 -.108519689528157D+03
 0.121745324716806D+03 -.801171207851969D+01 -.120499184495187D+03 0.154169742805214D+02
 0.128980022235590D+03 -.634488323413773D+02 0.364920392880159D+02 -.544350212180633D+02
 0.344269641119573D+03 0.170769806642222D+03 0.293820042153132D+03 -.550367310539938D+02
0.121527594486D-04 0.000000000000D+00 0.000000000000D+00 0.144159490965D-05 0.000000000000D+00  7 2 -2 23 -11 11 23 21 0 0.11272853D+00 0.47605153D-01 0.19911816D+06 0.19911816D+06 0.19911816D+06 0.10979728D+01  1  2  2  1  7  1        2 0.245411160305D-03 0.100000000000D+01
-.671691761363D-06 0.000000000000D+00 -.466697961778D-07 0.144159490965D-05 0.000000000000D+00  7 2 -2 23 -11 11 23 21 2 0.11272853D+00 0.47605153D-01 0.19911816D+06 0.19911816D+06 0.19911816D+06 0.10979728D+01  1  2  3  1  7  1        2 -.163520647046D-04 0.100000000000D+01
0.788781266245D-06 0.000000000000D+00 0.000000000000D+00 0.144159490965D-05 0.000000000000D+00  7 2 -2 23 -11 11 23 21 2 0.11272853D+00 0.47605153D-01 0.19911816D+06 0.19911816D+06 0.19911816D+06 0.10979728D+01  1  2 15  1  7  1        2 0.192025614208D-04 0.100000000000D+01
  </mgrwgt>
  </event>
  <event>
  8     66 0.25765000E-05 0.38833362E+03 0.75467711E-02 0.96934088E-01
        2 -1    0    0  501    0 0.00000000E+00 0.00000000E+00 0.35141433E+03 0.35141448E+03 0.32000000E+00 0.0000E+00 0.9000E+01
       -2 -1    0    0    0  501 0.00000000E+00 0.00000000E+00 -.51138787E+03 0.51138797E+03 0.32000000E+00 0.0000E+00 0.9000E+01
       25  2    1    2    0    0 -.14864317E+03 0.31315969E+03 0.25873589E+02 0.45905937E+03 0.29983709E+03 0.0000E+00 0.0000E+00
       23  2    1    2    0    0 0.14864317E+03 -.31315969E+03 -.18584713E+03 0.40374307E+03 0.91134698E+02 0.0000E+00 0.0000E+00
       23  1    3    3    0    0 0.13747829E+02 0.43495571E+02 -.62543319E+02 0.11961516E+03 0.91188000E+02 0.0000E+00 0.9000E+01
      -11  1    4    4    0    0 0.61239495E+02 -.14666838E+03 -.35176880E+02 0.16278606E+03 0.51099893E-03 0.0000E+00 0.9000E+01
       11  1    4    4    0    0 0.87403679E+02 -.16649131E+03 -.15067025E+03 0.24095701E+03 0.51099893E-03 0.0000E+00 0.9000E+01
       23  1    3    3    0    0 -.16239100E+03 0.26966411E+03 0.88416908E+02 0.33944421E+03 0.91188000E+02 0.0000E+00 0.9000E+01
#aMCatNLO 1  0  0  2  2 0.41882715D+02 0.00000000D+00  -5  7  0 0.00000000D+00 0.00000000D+00 0.00000000D+00 0.00000000D+00 0.00000000D+00
  <mgrwgt>
 0.1723838783D-03    4    2    0
 0.423921137204117D+03 0.000000000000000D+00 0.000000000000000D+00 0.423921137204117D+03
 0.423921137204117D+03 0.000000000000000D+00 0.000000000000000D+00 -.423921137204117D+03
 0.109924895269633D+03 0.137478292538236D+02 0.434955714158876D+02 -.410775329596725D+02
 0.159021135871879D+03 0.612394952984523D+02 -.146668378103947D+03 -.508259126146169D+01
 0.216779761788597D+03 0.874036792727104D+02 -.166491307138670D+03 -.107864297234865D+03
 0.362116481478125D+03 -.162391003824986D+03 0.269664113826729D+03 0.154024421455999D+03
 0.000000000000000D+00 0.000000000000000D+00 -.000000000000000D+00 0.000000000000000D+00
 0.513449567491347D+03 0.000000000000000D+00 0.000000000000000D+00 0.513449567491347D+03
 0.429364849046128D+03 0.000000000000000D+00 0.000000000000000D+00 -.429364849046128D+03
 0.112094889897966D+03 0.130004192347902D+02 0.489248237902180D+02 -.410775329596725D+02
 0.151624874684757D+03 0.601937329107104D+02 -.139071867778898D+03 -.508259126146169D+01
 0.208307577568887D+03 0.859726602481662D+02 -.156096258585847D+03 -.107864297234865D+03
 0.376848787843902D+03 -.164878665208822D+03 0.287734705778638D+03 0.154024421455999D+03
 0.939382865419631D+02 0.571185281515565D+01 -.414914032041114D+02 0.840847184452194D+02
0.117349055174D-04 0.000000000000D+00 0.000000000000D+00 0.111514528891D-05 0.000000000000D+00  7 2 -2 23 -11 11 23 21 0 0.54063762D-01 0.78675075D-01 0.15080300D+06 0.15080300D+06 0.15080300D+06 0.11073690D+01  1  2  2  2  7  2       -2 0.193760217502D-03 0.100000000000D+01
-.645845011459D-06 0.000000000000D+00 -.450651270584D-07 0.111514528891D-05 0.000000000000D+00  7 2 -2 23 -11 11 23 21 2 0.54063762D-01 0.78675075D-01 0.15080300D+06 0.15080300D+06 0.15080300D+06 0.11073690D+01  1  2  3  2  7  2       -2 -.130766957644D-04 0.100000000000D+01
0.724802335735D-06 0.000000000000D+00 0.000000000000D+00 0.111514528891D-05 0.000000000000D+00  7 2 -2 23 -11 11 23 21 2 0.54063762D-01 0.78675075D-01 0.15080300D+06 0.15080300D+06 0.15080300D+06 0.11073690D+01  1  2 15  2  7  2       -2 0.146753779399D-04 0.100000000000D+01
-.113471348116D-05 0.000000000000D+00 0.000000000000D+00 0.111514528891D-05 0.000000000000D+00  7 2 -2 23 -11 11 23 21 2 0.54063762D-01 0.78675075D-01 0.15080300D+06 0.15080300D+06 0.15080300D+06 0.11073690D+01  1  2  4  2  7  2       -2 -.229750214211D-04 0.100000000000D+01
  </mgrwgt>
  </event>
  <event>
  7     66 0.25765000E-05 0.23768117E+03 0.75467711E-02 0.96380903E-01
        2 -1    0    0  501    0 0.00000000E+00 0.00000000E+00 0.16732248E+04 0.16732248E+04 0.32000000E+00 0.0000E+00 0.9000E+01
       -2 -1    0    0    0  501 0.00000000E+00 0.00000000E+00 -.23194252E+03 0.23194274E+03 0.32000000E+00 0.0000E+00 0.9000E+01
       25  2    1    2    0    0 -.28539994E+03 -.15504030E+03 0.14806572E+04 0.15451816E+04 0.29958286E+03 0.0000E+00 0.0000E+00
       23  1    3    3    0    0 -.10050825E+03 -.86361787E+01 0.92190865E+03 0.93188373E+03 0.91188000E+02 0.0000E+00 0.9000E+01
      -11  1    1    2    0    0 0.28756626E+03 0.17277230E+03 -.23858281E+02 0.33632401E+03 0.51099893E-03 0.0000E+00 0.9000E+01
       11  1    1    2    0    0 -.21663172E+01 -.17732001E+02 -.15516694E+02 0.23661881E+02 0.51099893E-03 0.0000E+00 0.9000E+01
       23  1    3    3    0    0 -.18489170E+03 -.14640412E+03 0.55874857E+03 0.61329791E+03 0.91188000E+02 0.0000E+00 0.9000E+01
#aMCatNLO 1  0  0  1  2 0.11213285D+03 0.00000000D+00  -5  7  0 0.00000000D+00 0.00000000D+00 0.00000000D+00 0.00000000D+00 0.00000000D+00
  <mgrwgt>
 0.7577840383D-03    9    2    0
 0.622970471855530D+03 0.000000000000000D+00 0.000000000000000D+00 0.622970471855530D+03
 0.622970471855530D+03 0.000000000000000D+00 0.000000000000000D+00 -.622970471855530D+03
 0.358495383939703D+03 -.100508246411535D+03 -.863617876151285D+01 0.331703478700107D+03
 0.541871674261233D+03 0.287566261655430D+03 0.172772302690454D+03 -.425535295771374D+03
 0.541308018106223D+02 -.216631685223193D+01 -.177320009429538D+02 -.510982085646424D+02
 0.291443083699503D+03 -.184891698391663D+03 -.146404122985988D+03 0.144930025635910D+03
 0.000000000000000D+00 0.000000000000000D+00 0.000000000000000D+00 0.000000000000000D+00
 0.682250704306650D+03 0.000000000000000D+00 0.000000000000000D+00 0.682250704306650D+03
 0.680867336397323D+03 0.000000000000000D+00 0.000000000000000D+00 -.680867336397323D+03
 0.367864196240354D+03 -.127493874154350D+03 -.269616357612845D+02 0.331703478700107D+03
 0.513915894586638D+03 0.248341763093220D+03 0.146135647483100D+03 -.425535295771374D+03
 0.554074088567266D+02 -.623586788087027D+01 -.204955602380881D+02 -.510982085646424D+02
 0.313789162851012D+03 -.207377217339882D+03 -.161673636614881D+03 0.144930025635910D+03
 0.112141378169242D+03 0.927651962818818D+02 0.629951851311541D+02 0.138336790932764D+01
0.420338824636D-04 0.000000000000D+00 0.000000000000D+00 0.206098142774D-08 0.000000000000D+00  7 2 -2 23 -11 11 23 21 0 0.25741921D+00 0.35683484D-01 0.13770680D+06 0.13770680D+06 0.13770680D+06 0.11104944D+01  1  2  2  1  7  1        2 0.410246873722D-03 0.100000000000D+01
-.157319738234D-05 0.000000000000D+00 -.161421176436D-06 0.206098142774D-08 0.000000000000D+00  7 2 -2 23 -11 11 23 21 2 0.25741921D+00 0.35683484D-01 0.13770680D+06 0.13770680D+06 0.13770680D+06 0.11104944D+01  1  2  3  1  7  1        2 -.189348448451D-04 0.100000000000D+01
0.251179076011D-05 0.000000000000D+00 0.000000000000D+00 0.206098142774D-08 0.000000000000D+00  7 2 -2 23 -11 11 23 21 2 0.25741921D+00 0.35683484D-01 0.13770680D+06 0.13770680D+06 0.13770680D+06 0.11104944D+01  1  2 15  1  7  1        2 0.302316599684D-04 0.100000000000D+01
0.401410359752D-04 0.000000000000D+00 0.000000000000D+00 0.206098142774D-08 0.000000000000D+00  7 2 -2 23 -11 11 23 21 2 0.29279589D+00 0.35683484D-01 0.18449962D+06 0.18449962D+06 0.18449962D+06 0.11005263D+01  1  2 12  1  7  1        2 0.352329805094D-03 0.100000000000D+01
-.345928384797D-04 0.000000000000D+00 0.000000000000D+00 0.206098142774D-08 0.000000000000D+00  7 2 -2 23 -11 11 23 21 2 0.25741921D+00 0.35683484D-01 0.13770680D+06 0.13770680D+06 0.13770680D+06 0.11104944D+01  1  2  4  1  7  1        2 -.416355911037D-03 0.100000000000D+01
-.109789970262D-03 0.000000000000D+00 -.343468952343D-04 0.206098142774D-08 0.000000000000D+00  7 2 -2 23 -11 11 23 21 2 0.29623719D+00 0.35683484D-01 0.13770680D+06 0.13770680D+06 0.13770680D+06 0.11104944D+01  1  2  5  1  7  1        2 -.967061313613D-03 0.100000000000D+01
0.113825580798D-03 0.000000000000D+00 0.340108690890D-04 0.206098142774D-08 0.000000000000D+00  7 2 -2 23 -11 11 23 21 2 0.25741921D+00 0.35683484D-01 0.13770680D+06 0.13770680D+06 0.13770680D+06 0.11104944D+01  1  2  6  1  7  1        2 0.136999319730D-02 0.100000000000D+01
0.807891311903D-06 0.000000000000D+00 0.000000000000D+00 0.206098142774D-08 0.000000000000D+00  7 21 -2 23 -11 11 23 -2 2 0.29279589D+00 0.35683484D-01 0.18449962D+06 0.18449962D+06 0.18449962D+06 0.11005263D+01  1  2 12  3  7  1        2 0.160264645257D-05 0.100000000000D+01
-.216212374498D-05 0.000000000000D+00 -.742640837317D-06 0.206098142774D-08 0.000000000000D+00  7 21 -2 23 -11 11 23 -2 2 0.29623719D+00 0.35683484D-01 0.13770680D+06 0.13770680D+06 0.13770680D+06 0.11104944D+01  1  2  5  3  7  1        2 -.426807476649D-05 0.100000000000D+01
  </mgrwgt>
  </event>
  <event>
  8     66 0.25765000E-05 0.17537974E+03 0.75467711E-02 0.98172497E-01
        2 -1    0    0  501    0 0.00000000E+00 0.00000000E+00 0.91486023E+02 0.91486583E+02 0.32000000E+00 0.0000E+00 0.9000E+01
       -2 -1    0    0    0  501 0.00000000E+00 0.00000000E+00 -.12482360E+04 0.12482360E+04 0.32000000E+00 0.0000E+00 0.9000E+01
       25  2    1    2    0    0 0.17479570E+03 -.19534497E+03 -.67570989E+03 0.78412939E+03 0.29926887E+03 0.0000E+00 0.0000E+00
       23  2    1    2    0    0 -.17479570E+03 0.19534497E+03 -.48104004E+03 0.55559318E+03 0.92580085E+02 0.0000E+00 0.0000E+00
       23  1    3    3    0    0 0.19235764E+03 -.20723772E+03 -.44408693E+03 0.53430084E+03 0.91188000E+02 0.0000E+00 0.9000E+01
      -11  1    4    4    0    0 -.27726764E+02 0.55027451E+02 -.19629460E+03 0.20573858E+03 0.51099893E-03 0.0000E+00 0.9000E+01
       11  1    4    4    0    0 -.14706894E+03 0.14031752E+03 -.28474544E+03 0.34985461E+03 0.51099893E-03 0.0000E+00 0.9000E+01
       23  1    3    3    0    0 -.17561939E+02 0.11892754E+02 -.23162296E+03 0.24982855E+03 0.91188000E+02 0.0000E+00 0.9000E+01
#aMCatNLO 1  0  0  2  1 0.79824476D+02 0.00000000D+00  -5  7  0 0.00000000D+00 0.00000000D+00 0.00000000D+00 0.00000000D+00 0.00000000D+00
  <mgrwgt>
 0.2632363518D-03    9    2    0
 0.337929794219184D+03 0.000000000000000D+00 0.000000000000000D+00 0.337929794219184D+03
 0.337929794219184D+03 0.000000000000000D+00 0.000000000000000D+00 -.337929794219184D+03
 0.299052312862975D+03 0.192357640114486D+03 -.207237721127496D+03 0.341774738118984D+02
 0.718623482079751D+02 -.277267638946951D+02 0.550274513973417D+02 -.369784159558694D+02
 0.206150573820112D+03 -.147068936765973D+03 0.140317516096256D+03 0.343479490139415D+02
 0.987943535473062D+02 -.175619394538179D+02 0.118927536338981D+02 -.315470068699706D+02
 0.000000000000000D+00 -.000000000000000D+00 -.000000000000000D+00 -.000000000000000D+00
 0.361760039315617D+03 0.000000000000000D+00 0.000000000000000D+00 0.361760039315617D+03
 0.414435070462681D+03 0.000000000000000D+00 0.000000000000000D+00 -.414435070462681D+03
 0.315943064338800D+03 0.227052688012192D+03 -.196935892386499D+03 0.341774738118984D+02
 0.710724882709760D+02 -.196630756431639D+02 0.574217624135130D+02 -.369784159558694D+02
 0.195649221369580D+03 -.124401346640623D+03 0.147048091368294D+03 0.343479490139415D+02
 0.978924464360376D+02 -.646582686624371D+01 0.151874673897357D+02 -.315470068699706D+02
 0.956378893629045D+02 -.765224388621609D+02 -.227214287850443D+02 -.526750311470640D+02
0.205227972012D-04 0.000000000000D+00 0.000000000000D+00 0.109418701207D-06 0.000000000000D+00  7 2 -2 23 -11 11 23 21 0 0.14074819D-01 0.19203635D+00 0.10745355D+06 0.10745355D+06 0.10745355D+06 0.11191690D+01  1  2  2  2  7  2       -2 0.160961973660D-03 0.100000000000D+01
-.113887164124D-05 0.000000000000D+00 -.788129450292D-07 0.109418701207D-06 0.000000000000D+00  7 2 -2 23 -11 11 23 21 2 0.14074819D-01 0.19203635D+00 0.10745355D+06 0.10745355D+06 0.10745355D+06 0.11191690D+01  1  2  3  2  7  2       -2 -.111880100764D-04 0.100000000000D+01
0.133715950469D-05 0.000000000000D+00 0.000000000000D+00 0.109418701207D-06 0.000000000000D+00  7 2 -2 23 -11 11 23 21 2 0.14074819D-01 0.19203635D+00 0.10745355D+06 0.10745355D+06 0.10745355D+06 0.11191690D+01  1  2 15  2  7  2       -2 0.131359439206D-04 0.100000000000D+01
0.219974474112D-04 0.000000000000D+00 0.000000000000D+00 0.109418701207D-06 0.000000000000D+00  7 2 -2 23 -11 11 23 21 2 0.14074819D-01 0.24114669D+00 0.13685898D+06 0.13685898D+06 0.13685898D+06 0.11107079D+01  1  2 12  2  7  2       -2 0.100340919554D-03 0.100000000000D+01
-.225396174789D-04 0.000000000000D+00 0.000000000000D+00 0.109418701207D-06 0.000000000000D+00  7 2 -2 23 -11 11 23 21 2 0.14074819D-01 0.19203635D+00 0.10745355D+06 0.10745355D+06 0.10745355D+06 0.11191690D+01  1  2  4  2  7  2       -2 -.221423958890D-03 0.100000000000D+01
-.422897339507D-04 0.000000000000D+00 -.103311001830D-04 0.109418701207D-06 0.000000000000D+00  7 2 -2 23 -11 11 23 21 2 0.14074819D-01 0.24357676D+00 0.10745355D+06 0.10745355D+06 0.10745355D+06 0.11191690D+01  1  2  5  2  7  2       -2 -.190437880106D-03 0.100000000000D+01
0.437878134839D-04 0.000000000000D+00 0.100458453203D-04 0.109418701207D-06 0.000000000000D+00  7 2 -2 23 -11 11 23 21 2 0.14074819D-01 0.19203635D+00 0.10745355D+06 0.10745355D+06 0.10745355D+06 0.11191690D+01  1  2  6  2  7  2       -2 0.430161293634D-03 0.100000000000D+01
0.694569336594D-06 0.000000000000D+00 0.000000000000D+00 0.109418701207D-06 0.000000000000D+00  7 2 21 23 -11 11 23 2 2 0.14074819D-01 0.24114669D+00 0.13685898D+06 0.13685898D+06 0.13685898D+06 0.11107079D+01  1  2 12  4  7  2       -2 0.245431664093D-04 0.100000000000D+01
-.121956462671D-05 0.000000000000D+00 -.336864616380D-06 0.109418701207D-06 0.000000000000D+00  7 2 21 23 -11 11 23 2 2 0.14074819D-01 0.24357676D+00 0.10745355D+06 0.10745355D+06 0.10745355D+06 0.11191690D+01  1  2  5  4  7  2       -2 -.428570963320D-04 0.100000000000D+01
  </mgrwgt>
  </event>
  <event>
  8     66 0.25765000E-05 0.41327107E+03 0.75467711E-02 0.92435703E-01
        2 -1    0    0  501    0 0.00000000E+00 0.00000000E+00 0.52322196E+03 0.52322206E+03 0.32000000E+00 0.0000E+00 0.9000E+01
       -2 -1    0    0    0  501 0.00000000E+00 0.00000000E+00 -.42473683E+03 0.42473695E+03 0.32000000E+00 0.0000E+00 0.9000E+01
       25  2    1    2    0    0 -.10380022E+03 -.37381297E+03 -.10315351E+03 0.50120004E+03 0.30008368E+03 0.0000E+00 0.0000E+00
       23  2    1    2    0    0 0.10380022E+03 0.37381297E+03 0.20163863E+03 0.44675897E+03 0.91786817E+02 0.0000E+00 0.0000E+00
       23  1    3    3    0    0 -.61056619E+02 -.11271360E+03 -.15010837E+03 0.21743974E+03 0.91188000E+02 0.0000E+00 0.9000E+01
      -13  1    4    4    0    0 0.94884827E+02 0.36381440E+03 0.17045261E+03 0.41281733E+03 0.10565837E+00 0.0000E+00 0.9000E+01
       13  1    4    4    0    0 0.89153960E+01 0.99985675E+01 0.31186021E+02 0.33941637E+02 0.10565837E+00 0.0000E+00 0.9000E+01
       23  1    3    3    0    0 -.42743604E+02 -.26109937E+03 0.46954867E+02 0.28376030E+03 0.91188000E+02 0.0000E+00 0.9000E+01
#aMCatNLO 1  0  0  1  1 0.33042483D+03 0.00000000D+00  -5  7  0 0.00000000D+00 0.00000000D+00 0.00000000D+00 0.00000000D+00 0.00000000D+00
  <mgrwgt>
 0.2260513021D-03    4    2    0
 0.471414616529381D+03 0.000000000000000D+00 0.000000000000000D+00 0.471414616529381D+03
 0.471414616529381D+03 0.000000000000000D+00 0.000000000000000D+00 -.471414616529381D+03
 0.234302667428840D+03 -.610566193359627D+02 -.112713599496054D+03 -.173638193794384D+03
 0.397258918415202D+03 0.948849411011502D+02 0.363814867468626D+03 0.128258482843956D+03
 0.308682236991454D+02 0.891528207816581D+01 0.999809876594327D+01 0.278101240715259D+02
 0.280399423515575D+03 -.427436038433534D+02 -.261099366738515D+03 0.175695868789018D+02
 0.000000000000000D+00 0.000000000000000D+00 0.000000000000000D+00 -.000000000000000D+00
 0.649414613951552D+03 0.000000000000000D+00 0.000000000000000D+00 0.649414613951552D+03
 0.681630293116002D+03 0.000000000000000D+00 0.000000000000000D+00 -.681630293116002D+03
 0.293192458311940D+03 -.105242654336542D+03 -.190841105716305D+03 -.173638193794384D+03
 0.293595763208148D+03 0.370149672323782D+02 0.261492114514238D+03 0.128258482843956D+03
 0.281209240765372D+02 0.397401073540169D+01 0.126119337122551D+01 0.278101240715259D+02
 0.384144170799724D+03 -.984096092431008D+02 -.359525174418889D+03 0.175695868789018D+02
 0.331991590671205D+03 0.162663285611863D+03 0.287612972249730D+03 -.322156791644494D+02
0.203771397234D-04 0.000000000000D+00 0.000000000000D+00 0.128613756132D-05 0.000000000000D+00  7 2 -2 23 -13 13 23 21 0 0.80495703D-01 0.65344145D-01 0.17079298D+06 0.17079298D+06 0.17079298D+06 0.11031301D+01  1  2  2  1  7  1        2 0.322816285383D-03 0.100000000000D+01
-.110821321820D-05 0.000000000000D+00 -.782535819620D-07 0.128613756132D-05 0.000000000000D+00  7 2 -2 23 -13 13 23 21 2 0.80495703D-01 0.65344145D-01 0.17079298D+06 0.17079298D+06 0.17079298D+06 0.11031301D+01  1  2  3  1  7  1        2 -.213643171850D-04 0.100000000000D+01
0.129164498892D-05 0.000000000000D+00 0.000000000000D+00 0.128613756132D-05 0.000000000000D+00  7 2 -2 23 -13 13 23 21 2 0.80495703D-01 0.65344145D-01 0.17079298D+06 0.17079298D+06 0.17079298D+06 0.11031301D+01  1  2 15  1  7  1        2 0.249005451122D-04 0.100000000000D+01
-.520284018669D-05 0.000000000000D+00 0.000000000000D+00 0.128613756132D-05 0.000000000000D+00  7 2 -2 23 -13 13 23 21 2 0.80495703D-01 0.65344145D-01 0.17079298D+06 0.17079298D+06 0.17079298D+06 0.11031301D+01  1  2  4  1  7  1        2 -.100301211162D-03 0.100000000000D+01
  </mgrwgt>
  </event>
  <event>
  8     66 0.25765000E-05 0.17015441E+03 0.75467711E-02 0.98193541E-01
        2 -1    0    0  501    0 0.00000000E+00 0.00000000E+00 0.14909697E+04 0.14909697E+04 0.32000000E+00 0.0000E+00 0.9000E+01
       -2 -1    0    0    0  501 0.00000000E+00 0.00000000E+00 -.31883638E+02 0.31885244E+02 0.32000000E+00 0.0000E+00 0.9000E+01
       25  2    1    2    0    0 0.12906688E+02 -.26060646E+02 0.75724634E+03 0.81467920E+03 0.29905592E+03 0.0000E+00 0.0000E+00
       23  2    1    2    0    0 -.12906688E+02 0.26060646E+02 0.70183969E+03 0.70817575E+03 0.89934383E+02 0.0000E+00 0.0000E+00
       23  1    3    3    0    0 0.56277719E+02 -.10038126E+03 0.57513134E+03 0.59357804E+03 0.91188000E+02 0.0000E+00 0.9000E+01
      -11  1    4    4    0    0 -.50699462E+01 0.46206761E+02 0.65433477E+03 0.65598381E+03 0.51099893E-03 0.0000E+00 0.9000E+01
       11  1    4    4    0    0 -.78367414E+01 -.20146114E+02 0.47504926E+02 0.52191938E+02 0.51099893E-03 0.0000E+00 0.9000E+01
       23  1    3    3    0    0 -.43371031E+02 0.74320612E+02 0.18211499E+03 0.22110116E+03 0.91188000E+02 0.0000E+00 0.9000E+01
#aMCatNLO 1  0  0  2  2 0.28640654D+03 0.00000000D+00  -5  7  0 0.00000000D+00 0.00000000D+00 0.00000000D+00 0.00000000D+00 0.00000000D+00
  <mgrwgt>
 0.3601346316D-03    5    2    0
 0.218033910555138D+03 0.000000000000000D+00 0.000000000000000D+00 0.218033910555138D+03
 0.218033910555138D+03 0.000000000000000D+00 0.000000000000000D+00 -.218033910555138D+03
 0.148525403526228D+03 0.562777187095715D+02 -.100381258948485D+03 0.223822558602222D+02
 0.101446305499581D+03 -.506994626198740D+01 0.462067606537841D+02 0.901697499957646D+02
 0.233151290227823D+02 -.783674140486898D+01 -.201461140988972D+02 -.873583494672443D+01
 0.162780983061685D+03 -.433710310427151D+02 0.743206123935976D+02 -.103816170909262D+03
 0.000000000000000D+00 0.000000000000000D+00 0.000000000000000D+00 -.000000000000000D+00
 0.361698261579392D+03 0.000000000000000D+00 0.000000000000000D+00 0.361698261579392D+03
 0.464215595400353D+03 0.000000000000000D+00 0.000000000000000D+00 -.464215595400353D+03
 0.148822606086763D+03 -.320097746297564D+02 -.110938386905595D+03 0.223822558602222D+02
 0.121073638321075D+03 -.711397615047509D+02 0.383063495396113D+02 0.901697499957646D+02
 0.345760084634049D+02 -.250255681330859D+02 -.222014974418689D+02 -.873583494672443D+01
 0.217240170732276D+03 -.156205534720934D+03 0.608282337083218D+02 -.103816170909262D+03
 0.304201433376227D+03 0.284380638988527D+03 0.340053010995305D+02 -.102517333820961D+03
0.968953178607D-06 0.000000000000D+00 0.000000000000D+00 0.225296439547D-07 0.000000000000D+00  7 2 -2 23 -11 11 23 21 0 0.22938007D+00 0.49053013D-02 0.28952525D+05 0.28952525D+05 0.28952525D+05 0.11687707D+01  1  2  2  2  7  2       -2 0.287018140781D-03 0.100000000000D+01
-.498070848975D-07 0.000000000000D+00 -.372103533708D-08 0.225296439547D-07 0.000000000000D+00  7 2 -2 23 -11 11 23 21 2 0.22938007D+00 0.49053013D-02 0.28952525D+05 0.28952525D+05 0.28952525D+05 0.11687707D+01  1  2  3  2  7  2       -2 -.201537704992D-04 0.100000000000D+01
0.597677649342D-07 0.000000000000D+00 0.000000000000D+00 0.225296439547D-07 0.000000000000D+00  7 2 -2 23 -11 11 23 21 2 0.22938007D+00 0.49053013D-02 0.28952525D+05 0.28952525D+05 0.28952525D+05 0.11687707D+01  1  2 15  2  7  2       -2 0.241842264050D-04 0.100000000000D+01
0.394189154551D-06 0.000000000000D+00 -.342167886459D-06 0.225296439547D-07 0.000000000000D+00  7 2 -2 23 -11 11 23 21 2 0.22938007D+00 0.18785619D-01 0.28952525D+05 0.28952525D+05 0.28952525D+05 0.11687707D+01  1  2  5  2  7  2       -2 0.206340938098D-04 0.100000000000D+01
0.691846136197D-07 0.000000000000D+00 -.545075760707D-07 0.225296439547D-07 0.000000000000D+00  7 2 21 23 -11 11 23 2 2 0.22938007D+00 0.18785619D-01 0.28952525D+05 0.28952525D+05 0.28952525D+05 0.11687707D+01  1  2  5  4  7  2       -2 0.484519411124D-04 0.100000000000D+01
  </mgrwgt>
  </event>
  <event>
  8     66 0.25765000E-05 0.20387233E+03 0.75467711E-02 0.94517327E-01
        2 -1    0    0  501    0 0.00000000E+00 0.00000000E+00 0.79938782E+03 0.79938788E+03 0.32000000E+00 0.0000E+00 0.9000E+01
       -2 -1    0    0    0  501 0.00000000E+00 0.00000000E+00 -.31903883E+03 0.31903899E+03 0.32000000E+00 0.0000E+00 0.9000E+01
       25  2    1    2    0    0 0.34231792E+03 -.29806273E+03 0.21954095E+03 0.58657579E+03 0.29974986E+03 0.0000E+00 0.0000E+00
       23  2    1    2    0    0 -.34231792E+03 0.29806273E+03 0.26080803E+03 0.53185108E+03 0.93924359E+02 0.0000E+00 0.0000E+00
       23  1    3    3    0    0 0.82520240E+02 -.16591164E+03 0.18846660E+03 0.27959108E+03 0.91188000E+02 0.0000E+00 0.9000E+01
      -11  1    4    4    0    0 -.18155484E+03 0.15988655E+03 0.19240261E+03 0.30910295E+03 0.51099893E-03 0.0000E+00 0.9000E+01
       11  1    4    4    0    0 -.16076308E+03 0.13817619E+03 0.68405422E+02 0.22274813E+03 0.51099893E-03 0.0000E+00 0.9000E+01
       23  1    3    3    0    0 0.25979768E+03 -.13215109E+03 0.31074354E+02 0.30698471E+03 0.91188000E+02 0.0000E+00 0.9000E+01
#aMCatNLO 1  0  0  1  2 0.43179988D+02 0.00000000D+00  -5  7  0 0.00000000D+00 0.00000000D+00 0.00000000D+00 0.00000000D+00 0.00000000D+00
  <mgrwgt>
 0.2802197310D-03    9    2    0
 0.505010770873624D+03 0.000000000000000D+00 0.000000000000000D+00 0.505010770873624D+03
 0.505010770873624D+03 0.000000000000000D+00 0.000000000000000D+00 -.505010770873624D+03
 0.219968020229691D+03 0.825202402353910D+02 -.165911641374484D+03 0.757259254660359D+02
 0.250775487212789D+03 -.181554838806920D+03 0.159886548991496D+03 0.660490495328678D+02
 0.214123172022397D+03 -.160763081761991D+03 0.138176185378736D+03 -.301878474472979D+02
 0.325154862282370D+03 0.259797680333520D+03 -.132151092995748D+03 -.111587127551606D+03
 0.000000000000000D+00 -.000000000000000D+00 -.000000000000000D+00 0.000000000000000D+00
 0.569475433752119D+03 0.000000000000000D+00 0.000000000000000D+00 0.569475433752119D+03
 0.512754926858175D+03 0.000000000000000D+00 0.000000000000000D+00 -.512754926858175D+03
 0.214165538198559D+03 0.848085860406061D+02 -.156922638118227D+03 0.757259254660359D+02
 0.255713827943779D+03 -.178885101171523D+03 0.170373722845747D+03 0.660490495328678D+02
 0.218347859323756D+03 -.158483499243558D+03 0.147130764985717D+03 -.301878474472979D+02
 0.322716900645800D+03 0.263212653910733D+03 -.118736508305076D+03 -.111587127551606D+03
 0.712862344984002D+02 -.106526395362583D+02 -.418453414081607D+02 0.567205068939438D+02
0.108491473384D-04 0.000000000000D+00 0.000000000000D+00 0.267092279522D-06 0.000000000000D+00  7 2 -2 23 -11 11 23 21 0 0.12298276D+00 0.49082914D-01 0.23320982D+06 0.23320982D+06 0.23320982D+06 0.10927378D+01  1  2  2  1  7  1        2 0.184282053942D-03 0.100000000000D+01
-.601263990453D-06 0.000000000000D+00 -.416635824257D-07 0.267092279522D-06 0.000000000000D+00  7 2 -2 23 -11 11 23 21 2 0.12298276D+00 0.49082914D-01 0.23320982D+06 0.23320982D+06 0.23320982D+06 0.10927378D+01  1  2  3  1  7  1        2 -.121950780511D-04 0.100000000000D+01
0.679598324288D-06 0.000000000000D+00 0.000000000000D+00 0.267092279522D-06 0.000000000000D+00  7 2 -2 23 -11 11 23 21 2 0.12298276D+00 0.49082914D-01 0.23320982D+06 0.23320982D+06 0.23320982D+06 0.10927378D+01  1  2 15  1  7  1        2 0.137838865118D-04 0.100000000000D+01
0.534220666940D-04 0.000000000000D+00 0.000000000000D+00 0.267092279522D-06 0.000000000000D+00  7 2 -2 23 -11 11 23 21 2 0.13954782D+00 0.49082914D-01 0.25482782D+06 0.25482782D+06 0.25482782D+06 0.10898347D+01  1  2 12  1  7  1        2 0.910525153455D-03 0.100000000000D+01
-.543374388566D-04 0.000000000000D+00 0.000000000000D+00 0.267092279522D-06 0.000000000000D+00  7 2 -2 23 -11 11 23 21 2 0.12298276D+00 0.49082914D-01 0.23320982D+06 0.23320982D+06 0.23320982D+06 0.10927378D+01  1  2  4  1  7  1        2 -.110209378654D-02 0.100000000000D+01
-.886837805914D-04 0.000000000000D+00 -.114040159147D-04 0.267092279522D-06 0.000000000000D+00  7 2 -2 23 -11 11 23 21 2 0.13976973D+00 0.49082914D-01 0.23320982D+06 0.23320982D+06 0.23320982D+06 0.10927378D+01  1  2  5  1  7  1        2 -.152007149732D-02 0.100000000000D+01
0.895020156146D-04 0.000000000000D+00 0.113112967046D-04 0.267092279522D-06 0.000000000000D+00  7 2 -2 23 -11 11 23 21 2 0.12298276D+00 0.49082914D-01 0.23320982D+06 0.23320982D+06 0.23320982D+06 0.10927378D+01  1  2  6  1  7  1        2 0.181531587369D-02 0.100000000000D+01
0.105843341606D-05 0.000000000000D+00 0.000000000000D+00 0.267092279522D-06 0.000000000000D+00  7 21 -2 23 -11 11 23 -2 2 0.13954782D+00 0.49082914D-01 0.25482782D+06 0.25482782D+06 0.25482782D+06 0.10898347D+01  1  2 12  3  7  1        2 0.147394447881D-04 0.100000000000D+01
-.171611547193D-05 0.000000000000D+00 -.228308059346D-06 0.267092279522D-06 0.000000000000D+00  7 21 -2 23 -11 11 23 -2 2 0.13976973D+00 0.49082914D-01 0.23320982D+06 0.23320982D+06 0.23320982D+06 0.10927378D+01  1  2  5  3  7  1        2 -.240663194402D-04 0.100000000000D+01
  </mgrwgt>
  </event>
  <event>
  9     66 0.25765000E-05 0.18181725E+03 0.75467711E-02 0.99139923E-01
        2 -1    0    0  501    0 0.00000000E+00 0.00000000E+00 0.85277916E+03 0.85277922E+03 0.32000000E+00 0.0000E+00 0.9000E+01
       21 -1    0    0  502  501 0.00000000E+00 0.00000000E+00 -.22200005E+03 0.22200132E+03 0.75000000E+00 0.0000E+00 0.9000E+01
       25  2    1    2    0    0 -.87233798E+02 0.30280923E+02 0.53738132E+02 0.31839330E+03 0.29993305E+03 0.0000E+00 0.0000E+00
       23  2    1    2    0    0 -.83434418E+02 0.12143705E+03 0.47583077E+03 0.50660815E+03 0.92350621E+02 0.0000E+00 0.0000E+00
       23  1    3    3    0    0 -.12407219E+03 -.68501391E+02 0.59921881E+02 0.17886372E+03 0.91188000E+02 0.0000E+00 0.9000E+01
      -13  1    4    4    0    0 -.19825525E+02 0.38754205E+02 0.42281990E+02 0.60685400E+02 0.10565837E+00 0.0000E+00 0.9000E+01
       13  1    4    4    0    0 -.63608894E+02 0.82682843E+02 0.43354878E+03 0.44592275E+03 0.10565837E+00 0.0000E+00 0.9000E+01
       23  1    3    3    0    0 0.36838389E+02 0.98782314E+02 -.61837491E+01 0.13952958E+03 0.91188000E+02 0.0000E+00 0.9000E+01
        2  1    1    2  502    0 0.17066822E+03 -.15171797E+03 0.10121020E+03 0.24977908E+03 0.32000000E+00 0.0000E+00 0.9000E+01
#aMCatNLO 2  0  0  2  2 0.22835495D+03 0.00000000D+00  -5  7  0 0.00000000D+00 0.00000000D+00 0.00000000D+00 0.00000000D+00 0.00000000D+00
  <mgrwgt>
 0.3126467549D-04    1    2    0
 0.294973807320019D+03 0.000000000000000D+00 0.000000000000000D+00 0.294973807320019D+03
 0.294973807320019D+03 0.000000000000000D+00 0.000000000000000D+00 -.294973807320019D+03
 0.178062893995202D+03 -.736535480024853D+02 -.113321766972427D+03 -.715854375612730D+02
 0.312076734836383D+02 -.936182004432367D+01 0.294523372911281D+02 0.433993523093451D+01
 0.194750515330183D+03 -.590364362735009D+01 0.313849365679382D+02 0.192114278412406D+03
 0.185926531831014D+03 0.889190116741591D+02 0.524844931133609D+02 -.124868776082068D+03
 0.000000000000000D+00 0.000000000000000D+00 -.000000000000000D+00 -.000000000000000D+00
 0.398258627328707D+03 0.000000000000000D+00 0.000000000000000D+00 0.398258627328707D+03
 0.475363548335013D+03 0.000000000000000D+00 0.000000000000000D+00 -.475363548335013D+03
 0.183101268168008D+03 -.124072187227203D+03 -.685013908366239D+02 -.715854375612730D+02
 0.437466351082779D+02 -.198254668818141D+02 0.387541469833384D+02 0.433993523093451D+01
 0.218610285367942D+03 -.636089512503724D+02 0.826829016155180D+02 0.192114278412406D+03
 0.187142926447517D+03 0.368383890840195D+02 0.987823133197519D+02 -.124868776082068D+03
 0.241021060571974D+03 0.170668216275370D+03 -.151717971081984D+03 -.771049210063059D+02
0.694032507861D-07 0.000000000000D+00 0.000000000000D+00 0.473355294141D-06 0.468324120554D-11  7 2 21 23 -13 13 23 2 2 0.13119686D+00 0.34153947D-01 0.11700693D+06 0.11700693D+06 0.11700693D+06 0.11161671D+01  1  2  1  4  7  2       -2 0.312646754889D-04 0.100000000000D+01
  </mgrwgt>
  </event>
  <event>
  8     66 0.25765000E-05 0.12855010E+03 0.75467711E-02 0.10569132E+00
        2 -1    0    0  501    0 0.00000000E+00 0.00000000E+00 0.60902644E+03 0.60902652E+03 0.32000000E+00 0.0000E+00 0.9000E+01
       -2 -1    0    0    0  501 0.00000000E+00 0.00000000E+00 -.10808397E+03 0.10808444E+03 0.32000000E+00 0.0000E+00 0.9000E+01
       25  2    1    2    0    0 -.46255506E+02 -.38134244E+01 0.13907588E+03 0.33366059E+03 0.29972183E+03 0.0000E+00 0.0000E+00
       23  2    1    2    0    0 0.46255506E+02 0.38134244E+01 0.36186658E+03 0.38345037E+03 0.11803665E+03 0.0000E+00 0.0000E+00
       23  1    3    3    0    0 0.95939707E+02 0.63779737E+01 0.77879801E+02 0.15370628E+03 0.91188000E+02 0.0000E+00 0.9000E+01
      -13  1    4    4    0    0 0.78354406E+02 0.29062192E+01 0.32605440E+03 0.33534958E+03 0.10565837E+00 0.0000E+00 0.9000E+01
       13  1    4    4    0    0 -.32098901E+02 0.90720519E+00 0.35812181E+02 0.48100789E+02 0.10565837E+00 0.0000E+00 0.9000E+01
       23  1    3    3    0    0 -.14219521E+03 -.10191398E+02 0.61196083E+02 0.17995431E+03 0.91188000E+02 0.0000E+00 0.9000E+01
#aMCatNLO 1  0  0  2  1 0.53826507D+01 0.00000000D+00  -5  7  0 0.00000000D+00 0.00000000D+00 0.00000000D+00 0.00000000D+00 0.00000000D+00
  <mgrwgt>
 0.1463136451D-03    8    2    0
 0.256566162509718D+03 0.000000000000000D+00 0.000000000000000D+00 0.256566162509718D+03
 0.256566162509718D+03 0.000000000000000D+00 0.000000000000000D+00 -.256566162509718D+03
 0.138777399126710D+03 0.959395671555902D+02 0.637796221119152D+01 -.412169408909117D+02
 0.150348206438570D+03 0.783541484674065D+02 0.290624662728989D+01 0.128283920768675D+03
 0.322594985328474D+02 -.320983148072282D+02 0.907204792037312D+00 0.309037402140380D+01
 0.191747220921308D+03 -.142195400815769D+03 -.101914136305187D+02 -.901573538991672D+02
 0.000000000000000D+00 -.000000000000000D+00 0.000000000000000D+00 0.000000000000000D+00
 0.259723724095143D+03 0.000000000000000D+00 0.000000000000000D+00 0.259723724095143D+03
 0.258884510700790D+03 0.000000000000000D+00 0.000000000000000D+00 -.258884510700790D+03
 0.139637052002637D+03 0.972221980201534D+02 0.568004786179908D+01 -.412169408909117D+02
 0.151063868387568D+03 0.797427273596150D+02 0.215068307357342D+01 0.128283920768675D+03
 0.319609685868895D+02 -.318024567692193D+02 0.746220384274918D+00 0.309037402140380D+01
 0.190498666705484D+03 -.140434427664649D+03 -.111496070320784D+02 -.901573538991672D+02
 0.544767911335406D+01 -.472804094590009D+01 0.257265571243094D+01 0.839213394353721D+00
0.653881977635D-06 0.000000000000D+00 0.000000000000D+00 0.794786314708D-09 0.000000000000D+00  7 2 -2 23 -13 13 23 21 0 0.93696418D-01 0.16628346D-01 0.42490428D+05 0.42490428D+05 0.42490428D+05 0.11535647D+01  1  2  2  2  7  2       -2 0.104730025254D-03 0.100000000000D+01
-.342109554813D-07 0.000000000000D+00 -.251107896520D-08 0.794786314708D-09 0.000000000000D+00  7 2 -2 23 -13 13 23 21 2 0.93696418D-01 0.16628346D-01 0.42490428D+05 0.42490428D+05 0.42490428D+05 0.11535647D+01  1  2  3  2  7  2       -2 -.729156787477D-05 0.100000000000D+01
0.398956186825D-07 0.000000000000D+00 0.000000000000D+00 0.794786314708D-09 0.000000000000D+00  7 2 -2 23 -13 13 23 21 2 0.93696418D-01 0.16628346D-01 0.42490428D+05 0.42490428D+05 0.42490428D+05 0.11535647D+01  1  2 15  2  7  2       -2 0.850317120457D-05 0.100000000000D+01
0.174861622020D-06 0.000000000000D+00 0.000000000000D+00 0.794786314708D-09 0.000000000000D+00  7 2 -2 23 -13 13 23 21 2 0.93696418D-01 0.16879841D-01 0.43721672D+05 0.43721672D+05 0.43721672D+05 0.11524566D+01  1  2 12  2  7  2       -2 0.363216306074D-04 0.100000000000D+01
-.150231310483D-05 0.000000000000D+00 0.000000000000D+00 0.794786314708D-09 0.000000000000D+00  7 2 -2 23 -13 13 23 21 2 0.93696418D-01 0.16628346D-01 0.42490428D+05 0.42490428D+05 0.42490428D+05 0.11535647D+01  1  2  4  2  7  2       -2 -.320196200863D-03 0.100000000000D+01
0.138786561568D-05 0.000000000000D+00 0.000000000000D+00 0.794786314708D-09 0.194331988907D-09  7 2 -2 23 -13 13 23 21 2 0.94849540D-01 0.16778601D-01 0.43721672D+05 0.43721672D+05 0.43721672D+05 0.11524566D+01  1  2 11  2  7  2       -2 0.287039422077D-03 0.100000000000D+01
0.728915692665D-08 0.000000000000D+00 0.000000000000D+00 0.794786314708D-09 0.000000000000D+00  7 2 21 23 -13 13 23 2 2 0.93696418D-01 0.16879841D-01 0.43721672D+05 0.43721672D+05 0.43721672D+05 0.11524566D+01  1  2 12  4  7  2       -2 0.204636420205D-04 0.100000000000D+01
0.598327152250D-08 0.000000000000D+00 0.000000000000D+00 0.794786314708D-09 0.324013790261D-12  7 2 21 23 -13 13 23 2 2 0.94849540D-01 0.16778601D-01 0.43721672D+05 0.43721672D+05 0.43721672D+05 0.11524566D+01  1  2 11  4  7  2       -2 0.167435226463D-04 0.100000000000D+01
  </mgrwgt>
  </event>
  <event>
  8     66 0.25765000E-05 0.29118913E+03 0.75467711E-02 0.92919550E-01
        2 -1    0    0  501    0 0.00000000E+00 0.00000000E+00 0.25449337E+04 0.25449337E+04 0.32000000E+00 0.0000E+00 0.9000E+01
       -2 -1    0    0    0  501 0.00000000E+00 0.00000000E+00 -.83126884E+02 0.83127500E+02 0.32000000E+00 0.0000E+00 0.9000E+01
       25  2    1    2    0    0 0.18958865E+03 0.17250991E+03 0.22474260E+04 0.22817227E+04 0.29938508E+03 0.0000E+00 0.0000E+00
       23  2    1    2    0    0 -.18958865E+03 -.17250991E+03 0.21438082E+03 0.34633850E+03 0.91036788E+02 0.0000E+00 0.0000E+00
       23  1    3    3    0    0 0.37980113E+02 0.61856388E+02 0.28038364E+03 0.30364278E+03 0.91188000E+02 0.0000E+00 0.9000E+01
      -13  1    4    4    0    0 -.52547102E+02 -.60722891E+02 0.18447341E+02 0.82394072E+02 0.10565837E+00 0.0000E+00 0.9000E+01
       13  1    4    4    0    0 -.13704154E+03 -.11178702E+03 0.19593348E+03 0.26394443E+03 0.10565837E+00 0.0000E+00 0.9000E+01
       23  1    3    3    0    0 0.15160853E+03 0.11065353E+03 0.19670424E+04 0.19780799E+04 0.91188000E+02 0.0000E+00 0.9000E+01
#aMCatNLO 1  0  0  2  1 0.47481931D+03 0.00000000D+00  -5  7  0 0.00000000D+00 0.00000000D+00 0.00000000D+00 0.00000000D+00 0.00000000D+00
  <mgrwgt>
 0.2875383355D-03    5    2    0
 0.459949175703360D+03 0.000000000000000D+00 0.000000000000000D+00 0.459949175703360D+03
 0.459949175703360D+03 0.000000000000000D+00 0.000000000000000D+00 -.459949175703360D+03
 0.117123225709511D+03 0.379801130967099D+02 0.618563879665851D+02 -.115713842512274D+02
 0.186023619295399D+03 -.525469887040873D+02 -.607228223200634D+02 -.167798509419417D+03
 0.229712123792957D+03 -.137041656567694D+03 -.111787091736273D+03 -.146597715888751D+03
 0.387039382608852D+03 0.151608532175071D+03 0.110653526089751D+03 0.325967609559396D+03
 0.000000000000000D+00 0.000000000000000D+00 0.000000000000000D+00 -.000000000000000D+00
 0.670607005535378D+03 0.000000000000000D+00 0.000000000000000D+00 0.670607005535378D+03
 0.885993479405140D+03 0.000000000000000D+00 0.000000000000000D+00 -.885993479405140D+03
 0.970159982090348D+02 -.373871113450451D+01 0.308054811690814D+02 -.115713842512274D+02
 0.249814416533893D+03 -.137457403887792D+03 -.123920801567855D+03 -.167798509419417D+03
 0.349702924354730D+03 -.249923893218503D+03 -.195804220069327D+03 -.146597715888751D+03
 0.338679852948521D+03 0.102231629960656D+02 0.542179912216312D+01 0.325967609559396D+03
 0.521387292894340D+03 0.380896845244734D+03 0.283497741345937D+03 -.215386473869762D+03
0.128627709166D-04 0.000000000000D+00 0.000000000000D+00 0.642509048864D-06 0.000000000000D+00  7 2 -2 23 -13 13 23 21 0 0.39152831D+00 0.12788800D-01 0.84791112D+05 0.84791112D+05 0.84791112D+05 0.11276496D+01  1  2  2  2  7  2       -2 0.238811505700D-03 0.100000000000D+01
-.533026889019D-06 0.000000000000D+00 -.493964271649D-07 0.642509048864D-06 0.000000000000D+00  7 2 -2 23 -13 13 23 21 2 0.39152831D+00 0.12788800D-01 0.84791112D+05 0.84791112D+05 0.84791112D+05 0.11276496D+01  1  2  3  2  7  2       -2 -.125839839204D-04 0.100000000000D+01
0.772895315691D-06 0.000000000000D+00 0.000000000000D+00 0.642509048864D-06 0.000000000000D+00  7 2 -2 23 -13 13 23 21 2 0.39152831D+00 0.12788800D-01 0.84791112D+05 0.84791112D+05 0.84791112D+05 0.11276496D+01  1  2 15  2  7  2       -2 0.182469260467D-04 0.100000000000D+01
0.485580623060D-05 0.000000000000D+00 -.423273757032D-05 0.642509048864D-06 0.000000000000D+00  7 2 -2 23 -13 13 23 21 2 0.39152831D+00 0.42829120D-01 0.84791112D+05 0.84791112D+05 0.84791112D+05 0.11276496D+01  1  2  5  2  7  2       -2 0.147016721619D-04 0.100000000000D+01
0.841307997694D-06 0.000000000000D+00 -.594010061616D-06 0.642509048864D-06 0.000000000000D+00  7 2 21 23 -13 13 23 2 2 0.39152831D+00 0.42829120D-01 0.84791112D+05 0.84791112D+05 0.84791112D+05 0.11276496D+01  1  2  5  4  7  2       -2 0.283622155284D-04 0.100000000000D+01
  </mgrwgt>
  </event>
  <event>
  8     66 0.25765000E-05 0.94232365E+02 0.75467711E-02 0.98953723E-01
        2 -1    0    0  501    0 0.00000000E+00 0.00000000E+00 0.83634714E+03 0.83634720E+03 0.32000000E+00 0.0000E+00 0.9000E+01
       -2 -1    0    0    0  501 0.00000000E+00 0.00000000E+00 -.11773285E+03 0.11773328E+03 0.32000000E+00 0.0000E+00 0.9000E+01
       25  2    1    2    0    0 0.80976488E+02 -.21059405E+03 0.50525370E+03 0.62999525E+03 0.30117381E+03 0.0000E+00 0.0000E+00
       23  2    1    2    0    0 -.80976488E+02 0.21059405E+03 0.21336059E+03 0.32408523E+03 0.92744005E+02 0.0000E+00 0.0000E+00
       23  1    3    3    0    0 0.12953757E+03 -.65334525E+02 0.13180337E+03 0.21618502E+03 0.91188000E+02 0.0000E+00 0.9000E+01
      -11  1    4    4    0    0 0.63681691E+01 0.60132066E+01 -.68168964E+01 0.11098753E+02 0.51099893E-03 0.0000E+00 0.9000E+01
       11  1    4    4    0    0 -.87344657E+02 0.20458084E+03 0.22017749E+03 0.31298648E+03 0.51099893E-03 0.0000E+00 0.9000E+01
       23  1    3    3    0    0 -.48561079E+02 -.14525952E+03 0.37345033E+03 0.41381023E+03 0.91188000E+02 0.0000E+00 0.9000E+01
#aMCatNLO 1  0  0  2  1 0.10437049D+03 0.00000000D+00  -5  7  0 0.00000000D+00 0.00000000D+00 0.00000000D+00 0.00000000D+00 0.00000000D+00
  <mgrwgt>
 0.3430226977D-03    9    2    0
 0.313792552237123D+03 0.000000000000000D+00 0.000000000000000D+00 0.313792552237123D+03
 0.313792552237123D+03 0.000000000000000D+00 0.000000000000000D+00 -.313792552237123D+03
 0.177732258955291D+03 0.129537566863486D+03 -.653345249906795D+02 -.471690909884910D+02
 0.246784415002822D+02 0.636816906411165D+01 0.601320657118615D+01 -.230719146233248D+02
 0.223701297289045D+03 -.873446573560143D+02 0.204580843414711D+03 -.236613555800988D+02
 0.201473106729629D+03 -.485610785715837D+02 -.145259524995217D+03 0.939023611919146D+02
 0.000000000000000D+00 0.000000000000000D+00 0.000000000000000D+00 -.000000000000000D+00
 0.367573060214778D+03 0.000000000000000D+00 0.000000000000000D+00 0.367573060214778D+03
 0.373150947487933D+03 0.000000000000000D+00 0.000000000000000D+00 -.373150947487933D+03
 0.180918506817142D+03 0.117022272937153D+03 -.921798202259383D+02 -.471690909884910D+02
 0.236635226331305D+02 0.468125257641672D+01 0.239477208487255D+01 -.230719146233248D+02
 0.202075026441269D+03 -.102202330465626D+03 0.172711146747240D+03 -.236613555800988D+02
 0.229547519846307D+03 -.636017541945462D+02 -.177521761904141D+03 0.939023611919146D+02
 0.104519431964861D+03 0.441005591466023D+02 0.945956632979667D+02 -.557788727315536D+01
0.253486955661D-05 0.000000000000D+00 0.000000000000D+00 0.369429339311D-07 0.000000000000D+00  7 2 -2 23 -11 11 23 21 0 0.12866883D+00 0.18112784D-01 0.84336723D+05 0.84336723D+05 0.84336723D+05 0.11278443D+01  1  2  2  2  7  2       -2 0.241879055872D-03 0.100000000000D+01
-.139799111114D-06 0.000000000000D+00 -.973456654388D-08 0.369429339311D-07 0.000000000000D+00  7 2 -2 23 -11 11 23 21 2 0.12866883D+00 0.18112784D-01 0.84336723D+05 0.84336723D+05 0.84336723D+05 0.11278443D+01  1  2  3  2  7  2       -2 -.169685732822D-04 0.100000000000D+01
0.160065531631D-06 0.000000000000D+00 0.000000000000D+00 0.369429339311D-07 0.000000000000D+00  7 2 -2 23 -11 11 23 21 2 0.12866883D+00 0.18112784D-01 0.84336723D+05 0.84336723D+05 0.84336723D+05 0.11278443D+01  1  2 15  2  7  2       -2 0.194284762027D-04 0.100000000000D+01
0.124719841790D-05 0.000000000000D+00 0.000000000000D+00 0.369429339311D-07 0.000000000000D+00  7 2 -2 23 -11 11 23 21 2 0.12866883D+00 0.22827585D-01 0.12056076D+06 0.12056076D+06 0.12056076D+06 0.11151184D+01  1  2 12  2  7  2       -2 0.100609241876D-03 0.100000000000D+01
-.121494414240D-05 0.000000000000D+00 0.000000000000D+00 0.369429339311D-07 0.000000000000D+00  7 2 -2 23 -11 11 23 21 2 0.12866883D+00 0.18112784D-01 0.84336723D+05 0.84336723D+05 0.84336723D+05 0.11278443D+01  1  2  4  2  7  2       -2 -.147467809700D-03 0.100000000000D+01
-.281805552613D-05 0.000000000000D+00 -.119685926661D-05 0.369429339311D-07 0.000000000000D+00  7 2 -2 23 -11 11 23 21 2 0.12866883D+00 0.25200795D-01 0.84336723D+05 0.84336723D+05 0.84336723D+05 0.11278443D+01  1  2  5  2  7  2       -2 -.197373758707D-03 0.100000000000D+01
0.310488803226D-05 0.000000000000D+00 0.113442879600D-05 0.369429339311D-07 0.000000000000D+00  7 2 -2 23 -11 11 23 21 2 0.12866883D+00 0.18112784D-01 0.84336723D+05 0.84336723D+05 0.84336723D+05 0.11278443D+01  1  2  6  2  7  2       -2 0.376865916304D-03 0.100000000000D+01
0.398490330637D-07 0.000000000000D+00 0.000000000000D+00 0.369429339311D-07 0.000000000000D+00  7 2 21 23 -11 11 23 2 2 0.12866883D+00 0.22827585D-01 0.12056076D+06 0.12056076D+06 0.12056076D+06 0.11151184D+01  1  2 12  4  7  2       -2 0.400318178196D-04 0.100000000000D+01
-.856802777972D-07 0.000000000000D+00 -.495838575346D-07 0.369429339311D-07 0.000000000000D+00  7 2 21 23 -11 11 23 2 2 0.12866883D+00 0.25200795D-01 0.84336723D+05 0.84336723D+05 0.84336723D+05 0.11278443D+01  1  2  5  4  7  2       -2 -.739816686536D-04 0.100000000000D+01
  </mgrwgt>
  </event>
  <event>
  8     66 0.25765000E-05 0.44413401E+03 0.75467711E-02 0.88456178E-01
        2 -1    0    0  501    0 0.00000000E+00 0.00000000E+00 0.17048801E+04 0.17048801E+04 0.32000000E+00 0.0000E+00 0.9000E+01
       -2 -1    0    0    0  501 0.00000000E+00 0.00000000E+00 -.60952821E+03 0.60952830E+03 0.32000000E+00 0.0000E+00 0.9000E+01
       25  2    1    2    0    0 0.64852432E+03 -.54688819E+03 -.34284039E+02 0.89883447E+03 0.29505510E+03 0.0000E+00 0.0000E+00
       23  2    1    2    0    0 -.64852432E+03 0.54688819E+03 0.11296359E+04 0.14155740E+04 0.90010105E+02 0.0000E+00 0.0000E+00
       23  1    3    3    0    0 0.31475226E+03 -.13322654E+03 0.33386237E+02 0.35531421E+03 0.91188000E+02 0.0000E+00 0.9000E+01
      -11  1    4    4    0    0 -.37281201E+03 0.26817180E+03 0.56332868E+03 0.72680404E+03 0.51099893E-03 0.0000E+00 0.9000E+01
       11  1    4    4    0    0 -.27571231E+03 0.27871639E+03 0.56630725E+03 0.68876992E+03 0.51099893E-03 0.0000E+00 0.9000E+01
       23  1    3    3    0    0 0.33377207E+03 -.41366166E+03 -.67670276E+02 0.54352026E+03 0.91188000E+02 0.0000E+00 0.9000E+01
#aMCatNLO 1  0  0  1  2 0.45759331D+02 0.00000000D+00  -5  7  0 0.00000000D+00 0.00000000D+00 0.00000000D+00 0.00000000D+00 0.00000000D+00
  <mgrwgt>
 0.3247398963D-03    9    2    0
 0.101939818332765D+04 0.000000000000000D+00 0.000000000000000D+00 0.101939818332765D+04
 0.101939818332765D+04 0.000000000000000D+00 0.000000000000000D+00 -.101939818332765D+04
 0.385410004484788D+03 0.314752256525863D+03 -.133226536754354D+03 -.152994533004559D+03
 0.522405416470912D+03 -.372812013430602D+03 0.268171801112484D+03 0.249003025861242D+03
 0.477629455969813D+03 -.275712308411376D+03 0.278716393382632D+03 0.272818240336433D+03
 0.653351489729783D+03 0.333772065316116D+03 -.413661657740762D+03 -.368826733193116D+03
 0.000000000000000D+00 0.000000000000000D+00 -.000000000000000D+00 0.000000000000000D+00
 0.104430709196091D+04 0.000000000000000D+00 0.000000000000000D+00 0.104430709196091D+04
 0.104088950407212D+04 0.000000000000000D+00 0.000000000000000D+00 -.104088950407212D+04
 0.377888130444968D+03 0.306529743324961D+03 -.130829572784762D+03 -.152994533004559D+03
 0.532254589720769D+03 -.384173178126979D+03 0.271483720687976D+03 0.249003025861242D+03
 0.485441339838031D+03 -.286086842252811D+03 0.281740697900198D+03 0.272818240336433D+03
 0.643725759767509D+03 0.319799497693424D+03 -.409588482017480D+03 -.368826733193116D+03
 0.458867762617468D+02 0.439307793614047D+02 -.128063637859308D+02 0.341758788878792D+01
0.927441182302D-04 0.000000000000D+00 0.000000000000D+00 0.268894972159D-07 0.000000000000D+00  7 2 -2 23 -11 11 23 21 0 0.26228926D+00 0.93773580D-01 0.76066595D+06 0.76066595D+06 0.76066595D+06 0.10558652D+01  1  2  2  1  7  1        2 0.107850776754D-03 0.100000000000D+01
-.500000882352D-05 0.000000000000D+00 -.356161834091D-06 0.268894972159D-07 0.000000000000D+00  7 2 -2 23 -11 11 23 21 2 0.26228926D+00 0.93773580D-01 0.76066595D+06 0.76066595D+06 0.76066595D+06 0.10558652D+01  1  2  3  1  7  1        2 -.648223323475D-05 0.100000000000D+01
0.596188650710D-05 0.000000000000D+00 0.000000000000D+00 0.268894972159D-07 0.000000000000D+00  7 2 -2 23 -11 11 23 21 2 0.26228926D+00 0.93773580D-01 0.76066595D+06 0.76066595D+06 0.76066595D+06 0.10558652D+01  1  2 15  1  7  1        2 0.772925413177D-05 0.100000000000D+01
0.146841977277D-03 0.000000000000D+00 0.000000000000D+00 0.268894972159D-07 0.000000000000D+00  7 2 -2 23 -11 11 23 21 2 0.27140062D+00 0.93773580D-01 0.80176203D+06 0.80176203D+06 0.80176203D+06 0.10543117D+01  1  2 12  1  7  1        2 0.175469224969D-03 0.100000000000D+01
-.118119552344D-03 0.000000000000D+00 0.000000000000D+00 0.268894972159D-07 0.000000000000D+00  7 2 -2 23 -11 11 23 21 2 0.26228926D+00 0.93773580D-01 0.76066595D+06 0.76066595D+06 0.76066595D+06 0.10558652D+01  1  2  4  1  7  1        2 -.153135427337D-03 0.100000000000D+01
-.186845483185D-02 0.000000000000D+00 -.277634850745D-03 0.268894972159D-07 0.000000000000D+00  7 2 -2 23 -11 11 23 21 2 0.27186102D+00 0.93773580D-01 0.76066595D+06 0.76066595D+06 0.76066595D+06 0.10558652D+01  1  2  5  1  7  1        2 -.223783927584D-02 0.100000000000D+01
0.187737827820D-02 0.000000000000D+00 0.277456603798D-03 0.268894972159D-07 0.000000000000D+00  7 2 -2 23 -11 11 23 21 2 0.26228926D+00 0.93773580D-01 0.76066595D+06 0.76066595D+06 0.76066595D+06 0.10558652D+01  1  2  6  1  7  1        2 0.243391647869D-02 0.100000000000D+01
0.234095142517D-05 0.000000000000D+00 0.000000000000D+00 0.268894972159D-07 0.000000000000D+00  7 21 -2 23 -11 11 23 -2 2 0.27140062D+00 0.93773580D-01 0.80176203D+06 0.80176203D+06 0.80176203D+06 0.10543117D+01  1  2 12  3  7  1        2 0.685471421782D-06 0.100000000000D+01
-.117807873234D-04 0.000000000000D+00 -.176951059077D-05 0.268894972159D-07 0.000000000000D+00  7 21 -2 23 -11 11 23 -2 2 0.27186102D+00 0.93773580D-01 0.76066595D+06 0.76066595D+06 0.76066595D+06 0.10558652D+01  1  2  5  3  7  1        2 -.345437329776D-05 0.100000000000D+01
  </mgrwgt>
  </event>
  <event>
  8     66 0.25765000E-05 0.18787958E+03 0.75467711E-02 0.95412812E-01
        2 -1    0    0  501    0 0.00000000E+00 0.00000000E+00 0.80424201E+03 0.80424208E+03 0.32000000E+00 0.0000E+00 0.9000E+01
       -2 -1    0    0    0  501 0.00000000E+00 0.00000000E+00 -.81413470E+02 0.81414099E+02 0.32000000E+00 0.0000E+00 0.9000E+01
       25  2    1    2    0    0 -.11847828E+03 -.31064502E+02 0.32349209E+03 0.45817740E+03 0.30046179E+03 0.0000E+00 0.0000E+00
       23  2    1    2    0    0 0.11847828E+03 0.31064502E+02 0.39933645E+03 0.42747878E+03 0.90919739E+02 0.0000E+00 0.0000E+00
       23  1    3    3    0    0 -.68640850E+02 -.44501573E+02 0.46865716E+01 0.12259352E+03 0.91188000E+02 0.0000E+00 0.9000E+01
      -11  1    4    4    0    0 0.23619202E+02 -.28073947E+02 0.61311974E+02 0.71450482E+02 0.51099893E-03 0.0000E+00 0.9000E+01
       11  1    4    4    0    0 0.94859083E+02 0.59138450E+02 0.33802448E+03 0.35602830E+03 0.51099893E-03 0.0000E+00 0.9000E+01
       23  1    3    3    0    0 -.49837435E+02 0.13437071E+02 0.31880552E+03 0.33558388E+03 0.91188000E+02 0.0000E+00 0.9000E+01
#aMCatNLO 1  0  0  2  2 0.39093991D+03 0.00000000D+00  -5  7  0 0.00000000D+00 0.00000000D+00 0.00000000D+00 0.00000000D+00 0.00000000D+00
  <mgrwgt>
 0.2240412643D-03    5    2    0
 0.255883644641481D+03 0.000000000000000D+00 0.000000000000000D+00 0.255883644641481D+03
 0.255883644641481D+03 0.000000000000000D+00 0.000000000000000D+00 -.255883644641481D+03
 0.205538971392195D+03 -.686408503276253D+02 -.445015733313734D+02 -.165042603755196D+03
 0.370530048601759D+02 0.236192021480636D+02 -.280739474800517D+02 0.518767114844722D+01
 0.138705465834865D+03 0.948590827369682D+02 0.591384499051826D+02 0.821194521266446D+02
 0.130469847195725D+03 -.498374345574064D+02 0.134370709062425D+02 0.777354804801040D+02
 0.000000000000000D+00 -.000000000000000D+00 0.000000000000000D+00 -.000000000000000D+00
 0.462210876500128D+03 0.000000000000000D+00 0.000000000000000D+00 0.462210876500128D+03
 0.594511723072091D+03 0.000000000000000D+00 0.000000000000000D+00 -.594511723072091D+03
 0.289161633821330D+03 -.577603631071569D+02 -.211480208363940D+03 -.165042603755196D+03
 0.692006842868801D+02 0.259561548315825D+02 -.639382577193572D+02 0.518767114844722D+01
 0.134177002000202D+03 0.100860882962557D+03 -.329688600985127D+02 0.821194521266446D+02
 0.151463608083919D+03 -.436365661435329D+02 -.817252616975161D+02 0.777354804801040D+02
 0.412719671379889D+03 -.254201085434494D+02 0.390112587879326D+03 -.132300846571963D+03
0.103155974009D-05 0.000000000000D+00 0.000000000000D+00 0.161739017213D-06 0.000000000000D+00  7 2 -2 23 -11 11 23 21 0 0.12372959D+00 0.12525202D-01 0.35298737D+05 0.35298737D+05 0.35298737D+05 0.11608382D+01  1  2  2  2  7  2       -2 0.185590551922D-03 0.100000000000D+01
-.506592071159D-07 0.000000000000D+00 -.396146101786D-08 0.161739017213D-06 0.000000000000D+00  7 2 -2 23 -11 11 23 21 2 0.12372959D+00 0.12525202D-01 0.35298737D+05 0.35298737D+05 0.35298737D+05 0.11608382D+01  1  2  3  2  7  2       -2 -.122818348844D-04 0.100000000000D+01
0.665362845719D-07 0.000000000000D+00 0.000000000000D+00 0.161739017213D-06 0.000000000000D+00  7 2 -2 23 -11 11 23 21 2 0.12372959D+00 0.12525202D-01 0.35298737D+05 0.35298737D+05 0.35298737D+05 0.11608382D+01  1  2 15  2  7  2       -2 0.161310787803D-04 0.100000000000D+01
0.559993361813D-06 0.000000000000D+00 -.378531099425D-06 0.161739017213D-06 0.000000000000D+00  7 2 -2 23 -11 11 23 21 2 0.12372959D+00 0.52176723D-01 0.35298737D+05 0.35298737D+05 0.35298737D+05 0.11608382D+01  1  2  5  2  7  2       -2 0.118260976130D-04 0.100000000000D+01
0.976773502507D-07 0.000000000000D+00 -.647823032005D-07 0.161739017213D-06 0.000000000000D+00  7 2 21 23 -11 11 23 2 2 0.12372959D+00 0.52176723D-01 0.35298737D+05 0.35298737D+05 0.35298737D+05 0.11608382D+01  1  2  5  4  7  2       -2 0.227753708753D-04 0.100000000000D+01
  </mgrwgt>
  </event>
  <event>
  8     66 0.25765000E-05 0.59795303E+03 0.75467711E-02 0.81260189E-01
        2 -1    0    0  501    0 0.00000000E+00 0.00000000E+00 0.28030136E+04 0.28030136E+04 0.32000000E+00 0.0000E+00 0.9000E+01
       -2 -1    0    0    0  501 0.00000000E+00 0.00000000E+00 -.32874246E+03 0.32874262E+03 0.32000000E+00 0.0000E+00 0.9000E+01
       25  2    1    2    0    0 0.86656323E+02 -.56090574E+03 0.54783060E+02 0.64494181E+03 0.30137051E+03 0.0000E+00 0.0000E+00
       23  2    1    2    0    0 -.86656323E+02 0.56090574E+03 0.24194881E+04 0.24868144E+04 0.90547727E+02 0.0000E+00 0.0000E+00
       23  1    3    3    0    0 0.97840538E+02 -.49872317E+03 0.98581156E+02 0.52567202E+03 0.91188000E+02 0.0000E+00 0.9000E+01
      -13  1    4    4    0    0 -.62608496E+02 0.48434612E+03 0.21870191E+04 0.22408845E+04 0.10565837E+00 0.0000E+00 0.9000E+01
       13  1    4    4    0    0 -.24047828E+02 0.76559617E+02 0.23246904E+03 0.24592994E+03 0.10565837E+00 0.0000E+00 0.9000E+01
       23  1    3    3    0    0 -.11184215E+02 -.62182566E+02 -.43798096E+02 0.11926979E+03 0.91188000E+02 0.0000E+00 0.9000E+01
#aMCatNLO 1  0  0  2  1 0.18606978D+04 0.00000000D+00  -5  7  0 0.00000000D+00 0.00000000D+00 0.00000000D+00 0.00000000D+00 0.00000000D+00
  <mgrwgt>
 0.3044339486D-03    5    2    0
 0.959932220237787D+03 0.000000000000000D+00 0.000000000000000D+00 0.959932220237787D+03
 0.959932220237787D+03 0.000000000000000D+00 0.000000000000000D+00 -.959932220237787D+03
 0.730447462507610D+03 0.978405383463059D+02 -.498723171071214D+03 -.516663015739064D+03
 0.836844398911468D+03 -.626085480816539D+02 0.484346674928568D+03 0.679556484909270D+03
 0.101569298583773D+03 -.240477753901464D+02 0.765590619555114D+02 0.622634479134986D+02
 0.251003280472724D+03 -.111842148745056D+02 -.621825658128655D+02 -.225156917083705D+03
 0.000000000000000D+00 0.000000000000000D+00 0.000000000000000D+00 -.000000000000000D+00
 0.196158711845781D+04 0.000000000000000D+00 0.000000000000000D+00 0.196158711845781D+04
 0.272213186049537D+04 0.000000000000000D+00 0.000000000000000D+00 -.272213186049537D+04
 0.138063589013300D+04 -.347133077175815D+03 -.122898257297538D+04 -.516663015739064D+03
 0.796093451287643D+03 -.406798775443898D+03 -.805141186263201D+02 0.679556484909270D+03
 0.902089636143504D+02 -.644707490269322D+02 0.102197206519825D+02 0.622634479134986D+02
 0.406650220611926D+03 -.149804253620194D+03 -.289676023975727D+03 -.225156917083705D+03
 0.201013045330626D+04 0.968206855266839D+03 0.158895299492545D+04 -.760544742037568D+03
0.269592637435D-03 0.000000000000D+00 0.000000000000D+00 0.982408111068D-06 0.000000000000D+00  7 2 -2 23 -13 13 23 21 0 0.43123288D+00 0.50575777D-01 0.35754782D+06 0.35754782D+06 0.35754782D+06 0.10789579D+01  1  2  2  2  7  2       -2 0.297193249885D-03 0.100000000000D+01
-.108971574255D-04 0.000000000000D+00 -.103530671312D-05 0.982408111068D-06 0.000000000000D+00  7 2 -2 23 -13 13 23 21 2 0.43123288D+00 0.50575777D-01 0.35754782D+06 0.35754782D+06 0.35754782D+06 0.10789579D+01  1  2  3  2  7  2       -2 -.139847004218D-04 0.100000000000D+01
0.162542159243D-04 0.000000000000D+00 0.000000000000D+00 0.982408111068D-06 0.000000000000D+00  7 2 -2 23 -13 13 23 21 2 0.43123288D+00 0.50575777D-01 0.35754782D+06 0.35754782D+06 0.35754782D+06 0.10789579D+01  1  2 15  2  7  2       -2 0.208595995650D-04 0.100000000000D+01
0.619319720074D-03 0.000000000000D+00 -.188986511801D-03 0.982408111068D-06 0.000000000000D+00  7 2 -2 23 -13 13 23 21 2 0.43123288D+00 0.52114512D+00 0.35754782D+06 0.35754782D+06 0.35754782D+06 0.10789579D+01  1  2  5  2  7  2       -2 0.107256706890D-06 0.100000000000D+01
0.140219071732D-03 0.000000000000D+00 -.522846017208D-04 0.982408111068D-06 0.000000000000D+00  7 2 21 23 -13 13 23 2 2 0.43123288D+00 0.52114512D+00 0.35754782D+06 0.35754782D+06 0.35754782D+06 0.10789579D+01  1  2  5  4  7  2       -2 0.258542856113D-06 0.100000000000D+01
  </mgrwgt>
  </event>
  <event>
  8     66 0.25765000E-05 0.33454309E+03 0.75467711E-02 0.92811163E-01
        2 -1    0    0  501    0 0.00000000E+00 0.00000000E+00 0.32746408E+04 0.32746409E+04 0.32000000E+00 0.0000E+00 0.9000E+01
       -2 -1    0    0    0  501 0.00000000E+00 0.00000000E+00 -.17565617E+03 0.17565646E+03 0.32000000E+00 0.0000E+00 0.9000E+01
       25  2    1    2    0    0 0.66709385E+02 -.53828096E+03 0.50688922E+03 0.80046897E+03 0.29936158E+03 0.0000E+00 0.0000E+00
       23  2    1    2    0    0 -.66709385E+02 0.53828096E+03 0.25920955E+04 0.26498283E+04 0.91841726E+02 0.0000E+00 0.0000E+00
       23  1    3    3    0    0 0.43532946E+02 -.50902387E+03 0.40103677E+03 0.65585529E+03 0.91188000E+02 0.0000E+00 0.9000E+01
      -13  1    4    4    0    0 -.70315392E+02 0.47178180E+03 0.23869749E+04 0.24341675E+04 0.10565837E+00 0.0000E+00 0.9000E+01
       13  1    4    4    0    0 0.36060074E+01 0.66499158E+02 0.20512057E+03 0.21566085E+03 0.10565837E+00 0.0000E+00 0.9000E+01
       23  1    3    3    0    0 0.23176439E+02 -.29257091E+02 0.10585245E+03 0.14461368E+03 0.91188000E+02 0.0000E+00 0.9000E+01
#aMCatNLO 1  0  0  2  1 0.16442982D+02 0.00000000D+00  -5  7  0 0.00000000D+00 0.00000000D+00 0.00000000D+00 0.00000000D+00 0.00000000D+00
  <mgrwgt>
 0.1264286422D-03    9    2    0
 0.758426924212774D+03 0.000000000000000D+00 0.000000000000000D+00 0.758426924212774D+03
 0.758426924212774D+03 0.000000000000000D+00 0.000000000000000D+00 -.758426924212774D+03
 0.672503118104560D+03 0.435329456163198D+02 -.509023869834411D+03 -.427720440359264D+03
 0.660185037345235D+03 -.703154899746210D+02 0.471782339905968D+03 0.456422434984312D+03
 0.714817429445173D+02 0.360610524815478D+01 0.664986214054938D+02 0.259724648521096D+02
 0.112683950031236D+03 0.231764391101465D+02 -.292570914770507D+02 -.546744594771574D+02
 0.000000000000000D+00 -.000000000000000D+00 0.000000000000000D+00 -.000000000000000D+00
 0.763595437895896D+03 0.000000000000000D+00 0.000000000000000D+00 0.763595437895896D+03
 0.771663038982349D+03 0.000000000000000D+00 0.000000000000000D+00 -.771663038982349D+03
 0.677362642986125D+03 0.476652505147377D+02 -.515061304663234D+03 -.427720440359264D+03
 0.655572974095754D+03 -.662875981408309D+02 0.465897456035621D+03 0.456422434984312D+03
 0.709131584713282D+02 0.404201462936242D+01 0.658617433084005D+02 0.259724648521096D+02
 0.113094192771471D+03 0.238676071894860D+02 -.302669110178045D+02 -.546744594771574D+02
 0.183155085535675D+02 -.928727419275528D+01 0.135690163370170D+02 -.806760108645391D+01
0.549810043748D-04 0.000000000000D+00 0.000000000000D+00 0.171901441480D-05 0.000000000000D+00  7 2 -2 23 -13 13 23 21 0 0.50379092D+00 0.27024050D-01 0.33702512D+06 0.33702512D+06 0.33702512D+06 0.10808323D+01  1  2  2  2  7  2       -2 0.974182342954D-04 0.100000000000D+01
-.278916964017D-05 0.000000000000D+00 -.211141533630D-06 0.171901441480D-05 0.000000000000D+00  7 2 -2 23 -13 13 23 21 2 0.50379092D+00 0.27024050D-01 0.33702512D+06 0.33702512D+06 0.33702512D+06 0.10808323D+01  1  2  3  2  7  2       -2 -.577323387069D-05 0.100000000000D+01
0.337453940469D-05 0.000000000000D+00 0.000000000000D+00 0.171901441480D-05 0.000000000000D+00  7 2 -2 23 -13 13 23 21 2 0.50379092D+00 0.27024050D-01 0.33702512D+06 0.33702512D+06 0.33702512D+06 0.10808323D+01  1  2 15  2  7  2       -2 0.698487639782D-05 0.100000000000D+01
0.473809769908D-04 0.000000000000D+00 0.000000000000D+00 0.171901441480D-05 0.000000000000D+00  7 2 -2 23 -13 13 23 21 2 0.50379092D+00 0.27586629D-01 0.34648324D+06 0.34648324D+06 0.34648324D+06 0.10799535D+01  1  2 12  2  7  2       -2 0.942626362869D-04 0.100000000000D+01
-.456614582425D-04 0.000000000000D+00 0.000000000000D+00 0.171901441480D-05 0.000000000000D+00  7 2 -2 23 -13 13 23 21 2 0.50379092D+00 0.27024050D-01 0.33702512D+06 0.33702512D+06 0.33702512D+06 0.10808323D+01  1  2  4  2  7  2       -2 -.945135331729D-04 0.100000000000D+01
-.201613648108D-02 0.000000000000D+00 -.259087001239D-03 0.171901441480D-05 0.000000000000D+00  7 2 -2 23 -13 13 23 21 2 0.50379092D+00 0.27759072D-01 0.33702512D+06 0.33702512D+06 0.33702512D+06 0.10808323D+01  1  2  5  2  7  2       -2 -.398126506474D-02 0.100000000000D+01
0.202245420236D-02 0.000000000000D+00 0.258993739145D-03 0.171901441480D-05 0.000000000000D+00  7 2 -2 23 -13 13 23 21 2 0.50379092D+00 0.27024050D-01 0.33702512D+06 0.33702512D+06 0.33702512D+06 0.10808323D+01  1  2  6  2  7  2       -2 0.418622837951D-02 0.100000000000D+01
0.199613595650D-05 0.000000000000D+00 0.000000000000D+00 0.171901441480D-05 0.000000000000D+00  7 2 21 23 -13 13 23 2 2 0.50379092D+00 0.27586629D-01 0.34648324D+06 0.34648324D+06 0.34648324D+06 0.10799535D+01  1  2 12  4  7  2       -2 0.464235487004D-04 0.100000000000D+01
-.968061811906D-05 0.000000000000D+00 -.125271672142D-05 0.171901441480D-05 0.000000000000D+00  7 2 21 23 -13 13 23 2 2 0.50379092D+00 0.27759072D-01 0.33702512D+06 0.33702512D+06 0.33702512D+06 0.10808323D+01  1  2  5  4  7  2       -2 -.223337201175D-03 0.100000000000D+01
  </mgrwgt>
  </event>
  <event>
  8     66 0.25765000E-05 0.15778867E+03 0.75467711E-02 0.10282563E+00
        2 -1    0    0  501    0 0.00000000E+00 0.00000000E+00 0.79289426E+03 0.79289432E+03 0.32000000E+00 0.0000E+00 0.9000E+01
       -2 -1    0    0    0  501 0.00000000E+00 0.00000000E+00 -.56748323E+02 0.56749225E+02 0.32000000E+00 0.0000E+00 0.9000E+01
       25  2    1    2    0    0 0.56356342E+02 0.30386920E+02 0.51783140E+03 0.60146501E+03 0.29918455E+03 0.0000E+00 0.0000E+00
       23  2    1    2    0    0 -.56356342E+02 -.30386920E+02 0.21831453E+03 0.24817854E+03 0.99156183E+02 0.0000E+00 0.0000E+00
       23  1    3    3    0    0 0.11455715E+02 -.95242576E+01 0.47542752E+03 0.48432275E+03 0.91188000E+02 0.0000E+00 0.9000E+01
      -11  1    4    4    0    0 -.67771713E+02 0.13096440E+02 0.16219832E+03 0.17627483E+03 0.51099893E-03 0.0000E+00 0.9000E+01
       11  1    4    4    0    0 0.11415371E+02 -.43483360E+02 0.56116218E+02 0.71903708E+02 0.51099893E-03 0.0000E+00 0.9000E+01
       23  1    3    3    0    0 0.44900627E+02 0.39911178E+02 0.42403874E+02 0.11714226E+03 0.91188000E+02 0.0000E+00 0.9000E+01
#aMCatNLO 1  0  0  1  1 0.16767960D+03 0.00000000D+00  -5  7  0 0.00000000D+00 0.00000000D+00 0.00000000D+00 0.00000000D+00 0.00000000D+00
  <mgrwgt>
 0.1419396852D-03    5    2    0
 0.212122205172635D+03 0.000000000000000D+00 0.000000000000000D+00 0.212122205172635D+03
 0.212122205172635D+03 0.000000000000000D+00 0.000000000000000D+00 -.212122205172635D+03
 0.145005235575828D+03 0.114557161547327D+02 -.952425690381695D+01 0.111755635644085D+03
 0.715840678286398D+02 -.677717134905364D+02 0.130964388559897D+02 0.189672588094134D+02
 0.466306569119553D+02 0.114153689399699D+02 -.434833602568535D+02 -.123816354645717D+02
 0.161024450028848D+03 0.449006283958338D+02 0.399111783046808D+02 -.118341258988927D+03
 0.000000000000000D+00 0.000000000000000D+00 0.000000000000000D+00 0.000000000000000D+00
 0.471333507812494D+03 0.000000000000000D+00 0.000000000000000D+00 0.471333507812494D+03
 0.256987166310527D+03 0.000000000000000D+00 0.000000000000000D+00 -.256987166310527D+03
 0.153810100023317D+03 -.381949541320736D+02 -.373379017329298D+02 0.111755635644085D+03
 0.978121308572407D+02 -.959183104244826D+02 -.267091022000067D+01 0.189672588094134D+02
 0.546040036865678D+02 -.540561765663767D+01 -.529062531235715D+02 -.123816354645717D+02
 0.149953298403747D+03 -.677092863118902D+01 0.109654596141768D+02 -.118341258988927D+03
 0.272141141152149D+03 0.146289810844383D+03 0.819496054623251D+02 0.214346341501967D+03
0.512657639875D-06 0.000000000000D+00 0.000000000000D+00 0.703821910739D-09 0.000000000000D+00  7 2 -2 23 -11 11 23 21 0 0.12198381D+00 0.87305856D-02 0.24897264D+05 0.24897264D+05 0.24897264D+05 0.11749238D+01  1  2  2  1  7  1        2 0.162159454508D-03 0.100000000000D+01
-.254488777208D-07 0.000000000000D+00 -.196874032298D-08 0.703821910739D-09 0.000000000000D+00  7 2 -2 23 -11 11 23 21 2 0.12198381D+00 0.87305856D-02 0.24897264D+05 0.24897264D+05 0.24897264D+05 0.11749238D+01  1  2  3  1  7  1        2 -.111122720921D-04 0.100000000000D+01
0.331525735652D-07 0.000000000000D+00 0.000000000000D+00 0.703821910739D-09 0.000000000000D+00  7 2 -2 23 -11 11 23 21 2 0.12198381D+00 0.87305856D-02 0.24897264D+05 0.24897264D+05 0.24897264D+05 0.11749238D+01  1  2 15  1  7  1        2 0.144760968264D-04 0.100000000000D+01
-.219897550494D-06 0.000000000000D+00 -.155160048394D-06 0.703821910739D-09 0.000000000000D+00  7 2 -2 23 -11 11 23 21 2 0.29327653D+00 0.87305856D-02 0.24897264D+05 0.24897264D+05 0.24897264D+05 0.11749238D+01  1  2  5  1  7  1        2 -.232794400744D-04 0.100000000000D+01
-.113656356461D-07 0.000000000000D+00 -.148953458689D-07 0.703821910739D-09 0.000000000000D+00  7 21 -2 23 -11 11 23 -2 2 0.29327653D+00 0.87305856D-02 0.24897264D+05 0.24897264D+05 0.24897264D+05 0.11749238D+01  1  2  5  3  7  1        2 -.304153947047D-06 0.100000000000D+01
  </mgrwgt>
  </event>
  <event>
  8     66 0.25765000E-05 0.16259926E+03 0.75467711E-02 0.98786596E-01
        2 -1    0    0  501    0 0.00000000E+00 0.00000000E+00 0.12575936E+04 0.12575936E+04 0.32000000E+00 0.0000E+00 0.9000E+01
       -2 -1    0    0    0  501 0.00000000E+00 0.00000000E+00 -.37242670E+02 0.37244044E+02 0.32000000E+00 0.0000E+00 0.9000E+01
       25  2    1    2    0    0 -.35249119E+02 0.66654976E+02 0.79361014E+03 0.85164624E+03 0.29966461E+03 0.0000E+00 0.0000E+00
       23  2    1    2    0    0 0.35249119E+02 -.66654976E+02 0.42674078E+03 0.44319144E+03 0.92873931E+02 0.0000E+00 0.0000E+00
       23  1    3    3    0    0 -.21538060E+02 -.29614552E+02 0.64319966E+03 0.65066271E+03 0.91188000E+02 0.0000E+00 0.9000E+01
      -11  1    4    4    0    0 0.39411822E+02 -.15578910E+02 0.63432420E+02 0.76286735E+02 0.51099893E-03 0.0000E+00 0.9000E+01
       11  1    4    4    0    0 -.41627029E+01 -.51076066E+02 0.36330836E+03 0.36690470E+03 0.51099893E-03 0.0000E+00 0.9000E+01
       23  1    3    3    0    0 -.13711059E+02 0.96269527E+02 0.15041047E+03 0.20098352E+03 0.91188000E+02 0.0000E+00 0.9000E+01
#aMCatNLO 1  0  0  1  1 0.27842941D+03 0.00000000D+00  -5  7  0 0.00000000D+00 0.00000000D+00 0.00000000D+00 0.00000000D+00 0.00000000D+00
  <mgrwgt>
 0.4847517869D-03    3    2    0
 0.216418712379844D+03 0.000000000000000D+00 0.000000000000000D+00 0.216418712379844D+03
 0.216418712379844D+03 0.000000000000000D+00 0.000000000000000D+00 -.216418712379844D+03
 0.133013672231312D+03 -.215380606183587D+02 -.296145511151228D+02 0.896463940351675D+02
 0.493698691849598D+02 0.394118214666669D+02 -.155789103639834D+02 -.253256759809206D+02
 0.732800180206060D+02 -.416270192344285D+01 -.510760666383564D+02 0.523819469908391D+02
 0.177173865322811D+03 -.137110589248654D+02 0.962695281174626D+02 -.116702665045086D+03
 0.000000000000000D+00 0.000000000000000D+00 -.000000000000000D+00 -.000000000000000D+00
 0.277508465863356D+03 0.000000000000000D+00 0.000000000000000D+00 0.277508465863356D+03
 0.121770780213568D+04 0.000000000000000D+00 0.000000000000000D+00 -.121770780213568D+04
 0.165960190737260D+03 -.105696484023138D+03 -.439441317876993D+01 0.896463940351675D+02
 0.315402216682341D+02 0.166363667291467D+02 -.875368614036997D+01 -.253256759809206D+02
 0.802655547178145D+02 -.473843842275169D+02 -.381236283030149D+02 0.523819469908391D+02
 0.236890395763333D+03 -.130266382708932D+03 0.131198192701779D+03 -.116702665045086D+03
 0.980559905112397D+03 0.266710884230440D+03 -.799264650796240D+02 -.940199336272328D+03
0.151690961656D-05 0.000000000000D+00 0.000000000000D+00 0.498227225309D-07 0.000000000000D+00  7 2 -2 23 -11 11 23 21 0 0.19347605D+00 0.57297504D-02 0.26438519D+05 0.26438519D+05 0.26438519D+05 0.11724627D+01  1  2  2  1  7  1        2 0.476076399967D-03 0.100000000000D+01
-.758959759868D-07 0.000000000000D+00 -.582533233906D-08 0.498227225309D-07 0.000000000000D+00  7 2 -2 23 -11 11 23 21 2 0.19347605D+00 0.57297504D-02 0.26438519D+05 0.26438519D+05 0.26438519D+05 0.11724627D+01  1  2  3  1  7  1        2 -.327441513446D-04 0.100000000000D+01
0.960042070733D-07 0.000000000000D+00 0.000000000000D+00 0.498227225309D-07 0.000000000000D+00  7 2 -2 23 -11 11 23 21 2 0.19347605D+00 0.57297504D-02 0.26438519D+05 0.26438519D+05 0.26438519D+05 0.11724627D+01  1  2 15  1  7  1        2 0.414195383253D-04 0.100000000000D+01
  </mgrwgt>
  </event>
  <event>
  8     66 0.25765000E-05 0.17544526E+03 0.75467711E-02 0.89135508E-01
        2 -1    0    0  501    0 0.00000000E+00 0.00000000E+00 0.14416896E+04 0.14416897E+04 0.32000000E+00 0.0000E+00 0.9000E+01
       -2 -1    0    0    0  501 0.00000000E+00 0.00000000E+00 -.44829568E+03 0.44829579E+03 0.32000000E+00 0.0000E+00 0.9000E+01
       25  2    1    2    0    0 -.78129410E+02 0.59443456E+02 -.38777494E+03 0.50228030E+03 0.30377354E+03 0.0000E+00 0.0000E+00
       23  2    1    2    0    0 0.78129410E+02 -.59443456E+02 0.13811689E+04 0.13877052E+04 0.91980209E+02 0.0000E+00 0.0000E+00
       23  1    3    3    0    0 -.56077885E+02 0.73795223E+02 -.38604901E+03 0.40735679E+03 0.91188000E+02 0.0000E+00 0.9000E+01
      -13  1    4    4    0    0 0.31040114E+01 0.17923369E+02 0.78238605E+02 0.80325417E+02 0.10565837E+00 0.0000E+00 0.9000E+01
       13  1    4    4    0    0 0.75025399E+02 -.77366825E+02 0.13029303E+04 0.13073797E+04 0.10565837E+00 0.0000E+00 0.9000E+01
       23  1    3    3    0    0 -.22051525E+02 -.14351768E+02 -.17259310E+01 0.94923512E+02 0.91188000E+02 0.0000E+00 0.9000E+01
#aMCatNLO 1  0  0  2  1 0.78170054D+03 0.00000000D+00  -5  7  0 0.00000000D+00 0.00000000D+00 0.00000000D+00 0.00000000D+00 0.00000000D+00
  <mgrwgt>
 0.5450775511D-03    3    2    0
 0.803929952721058D+03 0.000000000000000D+00 0.000000000000000D+00 0.803929952721058D+03
 0.803929952721058D+03 0.000000000000000D+00 0.000000000000000D+00 -.803929952721058D+03
 0.717349285627361D+03 -.560778853348264D+02 0.737952232170341D+02 -.705467420971945D+03
 0.460802939225699D+02 0.310391648128180D+01 0.179234948476680D+02 0.423380151036073D+02
 0.731784574569651D+03 0.750254938382201D+02 -.773669505320696D+02 0.723805356306365D+03
 0.112645751322535D+03 -.220515249846755D+02 -.143517675326325D+02 -.606759504380275D+02
 0.000000000000000D+00 -.000000000000000D+00 -.000000000000000D+00 0.000000000000000D+00
 0.157887502166184D+04 0.000000000000000D+00 0.000000000000000D+00 0.157887502166184D+04
 0.111692866044170D+04 0.000000000000000D+00 0.000000000000000D+00 -.111692866044170D+04
 0.787719473622912D+03 0.259150199430558D+03 0.217585867792585D+03 -.705467420971945D+03
 0.562269290019176D+02 0.245315819895449D+02 0.276976805376125D+02 0.423380151036073D+02
 0.831261611580106D+03 0.402396620659871D+03 0.719627177814139D+02 0.723805356306365D+03
 0.112603277714762D+03 0.251256020284846D+02 0.716798223044392D+01 -.606759504380275D+02
 0.907992390183843D+03 -.711204004108458D+03 -.324414248342055D+03 0.461946361220135D+03
0.116766880611D-03 0.000000000000D+00 0.000000000000D+00 0.166005919326D-06 0.000000000000D+00  7 2 -2 23 -13 13 23 21 0 0.22179842D+00 0.68968577D-01 0.30781040D+05 0.30781040D+05 0.30781040D+05 0.11663017D+01  1  2  2  2  7  2       -2 0.447488468828D-03 0.100000000000D+01
0.117882117075D-04 0.000000000000D+00 -.448415566971D-06 0.166005919326D-06 0.000000000000D+00  7 2 -2 23 -13 13 23 21 2 0.22179842D+00 0.68968577D-01 0.30781040D+05 0.30781040D+05 0.30781040D+05 0.11663017D+01  1  2  3  2  7  2       -2 0.614514190562D-04 0.100000000000D+01
0.693227969739D-05 0.000000000000D+00 0.000000000000D+00 0.166005919326D-06 0.000000000000D+00  7 2 -2 23 -13 13 23 21 2 0.22179842D+00 0.68968577D-01 0.30781040D+05 0.30781040D+05 0.30781040D+05 0.11663017D+01  1  2 15  2  7  2       -2 0.361376632241D-04 0.100000000000D+01
  </mgrwgt>
  </event>
  <event>
  8     66 0.25765000E-05 0.24005277E+03 0.75467711E-02 0.99687188E-01
        2 -1    0    0  501    0 0.00000000E+00 0.00000000E+00 0.29346947E+04 0.29346947E+04 0.32000000E+00 0.0000E+00 0.9000E+01
       -2 -1    0    0    0  501 0.00000000E+00 0.00000000E+00 -.46942222E+02 0.46943313E+02 0.32000000E+00 0.0000E+00 0.9000E+01
       25  2    1    2    0    0 0.13486189E+03 0.20781844E+03 0.95941052E+03 0.10352769E+04 0.29992242E+03 0.0000E+00 0.0000E+00
       23  2    1    2    0    0 -.13486189E+03 -.20781844E+03 0.19283419E+04 0.19463611E+04 0.91884478E+02 0.0000E+00 0.0000E+00
       23  1    3    3    0    0 0.18660236E+03 0.11274119E+03 0.47385256E+03 0.52951158E+03 0.91188000E+02 0.0000E+00 0.9000E+01
      -13  1    4    4    0    0 -.11232140E+03 -.14814290E+03 0.11030075E+04 0.11185652E+04 0.10565837E+00 0.0000E+00 0.9000E+01
       13  1    4    4    0    0 -.22540485E+02 -.59675538E+02 0.82533442E+03 0.82779596E+03 0.10565837E+00 0.0000E+00 0.9000E+01
       23  1    3    3    0    0 -.51740475E+02 0.95077251E+02 0.48555796E+03 0.50576530E+03 0.91188000E+02 0.0000E+00 0.9000E+01
#aMCatNLO 1  0  0  1  2 0.28098929D+02 0.00000000D+00  -5  7  0 0.00000000D+00 0.00000000D+00 0.00000000D+00 0.00000000D+00 0.00000000D+00
  <mgrwgt>
 0.2537843594D-03    9    2    0
 0.371164037623992D+03 0.000000000000000D+00 0.000000000000000D+00 0.371164037623992D+03
 0.371164037623992D+03 0.000000000000000D+00 0.000000000000000D+00 -.371164037623992D+03
 0.283490516236580D+03 0.186602362536646D+03 0.112741185355674D+03 -.156590564442504D+03
 0.201991292258556D+03 -.112321520939095D+03 -.148143015409513D+03 0.789810424569493D+02
 0.114270671544770D+03 -.225403669080486D+02 -.596754208353881D+02 0.948080291065190D+02
 0.142575595208078D+03 -.517404746895018D+02 0.950772508892267D+02 -.171985071209639D+02
 0.000000000000000D+00 -.000000000000000D+00 -.000000000000000D+00 0.000000000000000D+00
 0.541823462286124D+03 0.000000000000000D+00 0.000000000000000D+00 0.541823462286124D+03
 0.372588266196085D+03 0.000000000000000D+00 0.000000000000000D+00 -.372588266196085D+03
 0.289825435531844D+03 0.189746787116002D+03 0.123122230502682D+03 -.156590564442504D+03
 0.195536644116991D+03 -.110141228187316D+03 -.140944967907115D+03 0.789810424569493D+02
 0.111943304318941D+03 -.212996674582852D+02 -.555793591627943D+02 0.948080291065190D+02
 0.145554307446383D+03 -.501601894294118D+02 0.100294425674670D+03 -.171985071209639D+02
 0.171552037068050D+03 -.814570204098836D+01 -.268923291074427D+02 0.169235196090039D+03
0.793603984158D-05 0.000000000000D+00 0.000000000000D+00 0.650091330423D-06 0.000000000000D+00  7 2 -2 23 -13 13 23 21 0 0.45149158D+00 0.72219656D-02 0.98455683D+05 0.98455683D+05 0.98455683D+05 0.11222771D+01  1  2  2  1  7  1        2 0.207500274479D-03 0.100000000000D+01
-.425767990138D-06 0.000000000000D+00 -.304764825989D-07 0.650091330423D-06 0.000000000000D+00  7 2 -2 23 -13 13 23 21 2 0.45149158D+00 0.72219656D-02 0.98455683D+05 0.98455683D+05 0.98455683D+05 0.11222771D+01  1  2  3  1  7  1        2 -.140212933351D-04 0.100000000000D+01
0.502478794382D-06 0.000000000000D+00 0.000000000000D+00 0.650091330423D-06 0.000000000000D+00  7 2 -2 23 -13 13 23 21 2 0.45149158D+00 0.72219656D-02 0.98455683D+05 0.98455683D+05 0.98455683D+05 0.11222771D+01  1  2 15  1  7  1        2 0.165475158628D-04 0.100000000000D+01
0.108348313764D-03 0.000000000000D+00 0.000000000000D+00 0.650091330423D-06 0.000000000000D+00  7 2 -2 23 -13 13 23 21 2 0.65964047D+00 0.72219656D-02 0.10722739D+06 0.10722739D+06 0.10722739D+06 0.11192436D+01  1  2 12  1  7  1        2 0.359955674152D-03 0.100000000000D+01
-.101560607166D-03 0.000000000000D+00 0.000000000000D+00 0.650091330423D-06 0.000000000000D+00  7 2 -2 23 -13 13 23 21 2 0.45149158D+00 0.72219656D-02 0.98455683D+05 0.98455683D+05 0.98455683D+05 0.11222771D+01  1  2  4  1  7  1        2 -.334457051106D-02 0.100000000000D+01
-.109735593028D-03 0.000000000000D+00 -.211409108447D-05 0.650091330423D-06 0.000000000000D+00  7 2 -2 23 -13 13 23 21 2 0.65943737D+00 0.72219656D-02 0.98455683D+05 0.98455683D+05 0.98455683D+05 0.11222771D+01  1  2  5  1  7  1        2 -.369732649887D-03 0.100000000000D+01
0.103186367133D-03 0.000000000000D+00 0.197096278588D-05 0.650091330423D-06 0.000000000000D+00  7 2 -2 23 -13 13 23 21 2 0.45149158D+00 0.72219656D-02 0.98455683D+05 0.98455683D+05 0.98455683D+05 0.11222771D+01  1  2  6  1  7  1        2 0.339810966363D-02 0.100000000000D+01
0.495948357366D-05 0.000000000000D+00 0.000000000000D+00 0.650091330423D-06 0.000000000000D+00  7 21 -2 23 -13 13 23 -2 2 0.65964047D+00 0.72219656D-02 0.10722739D+06 0.10722739D+06 0.10722739D+06 0.11192436D+01  1  2 12  3  7  1        2 0.241157187085D-06 0.100000000000D+01
-.495306897472D-05 0.000000000000D+00 -.967122275483D-07 0.650091330423D-06 0.000000000000D+00  7 21 -2 23 -13 13 23 -2 2 0.65943737D+00 0.72219656D-02 0.98455683D+05 0.98455683D+05 0.98455683D+05 0.11222771D+01  1  2  5  3  7  1        2 -.245471613121D-06 0.100000000000D+01
  </mgrwgt>
  </event>
  <event>
  7     66 0.25765000E-05 0.76103905E+02 0.75467711E-02 0.10137544E+00
        2 -1    0    0  501    0 0.00000000E+00 0.00000000E+00 0.70025119E+03 0.70025126E+03 0.32000000E+00 0.0000E+00 0.9000E+01
       -2 -1    0    0    0  501 0.00000000E+00 0.00000000E+00 -.15083954E+03 0.15083988E+03 0.32000000E+00 0.0000E+00 0.9000E+01
       25  2    1    2    0    0 0.14122818E+03 -.50053165E+02 0.14169083E+03 0.36427012E+03 0.30027605E+03 0.0000E+00 0.0000E+00
       23  1    3    3    0    0 -.30182996E+02 -.16158666E+02 -.31007336E+02 0.10221948E+03 0.91188000E+02 0.0000E+00 0.9000E+01
      -13  1    1    2    0    0 0.25608538E+02 0.62974410E+02 0.24178291E+03 0.25115843E+03 0.10565837E+00 0.0000E+00 0.9000E+01
       13  1    1    2    0    0 -.16683672E+03 -.12921245E+02 0.16593791E+03 0.23566258E+03 0.10565837E+00 0.0000E+00 0.9000E+01
       23  1    3    3    0    0 0.17141118E+03 -.33894499E+02 0.17269817E+03 0.26205064E+03 0.91188000E+02 0.0000E+00 0.9000E+01
#aMCatNLO 1  0  0  1  2 0.40628032D+02 0.00000000D+00  -5  7  0 0.00000000D+00 0.00000000D+00 0.00000000D+00 0.00000000D+00 0.00000000D+00
  <mgrwgt>
 0.8076780776D-03    9    2    0
 0.325001138057471D+03 0.000000000000000D+00 0.000000000000000D+00 0.325001138057471D+03
 0.325001138057471D+03 0.000000000000000D+00 0.000000000000000D+00 -.325001138057471D+03
 0.160053339176585D+03 -.301796827860453D+02 -.161598400688465D+02 -.127003410794584D+03
 0.124488544550560D+03 0.255991219651483D+02 0.629724659268319D+02 0.104290705309842D+03
 0.168308768807283D+03 -.166834697281982D+03 -.129166816428355D+02 0.180882496552487D+02
 0.197151623580513D+03 0.171415258102879D+03 -.338959442151498D+02 0.462445582949354D+01
 0.000000000000000D+00 0.000000000000000D+00 -.000000000000000D+00 0.000000000000000D+00
 0.361325227591101D+03 0.000000000000000D+00 0.000000000000000D+00 0.361325227591101D+03
 0.337197747024503D+03 0.000000000000000D+00 0.000000000000000D+00 -.337197747024503D+03
 0.160547902591296D+03 -.356390152360834D+02 -.776993706592946D+01 -.127003410794584D+03
 0.127157911807284D+03 0.213139805303995D+02 0.695578719852361D+02 0.104290705309842D+03
 0.173647929549004D+03 -.172657679406287D+03 -.396792176097511D+01 0.180882496552487D+02
 0.189917010749236D+03 0.164824091006533D+03 -.237666375425033D+02 0.462445582949354D+01
 0.472522199187840D+02 0.221586231054383D+02 -.340533756158282D+02 0.241274805665983D+02
0.620116078782D-05 0.000000000000D+00 0.000000000000D+00 0.997078345265D-10 0.000000000000D+00  7 2 -2 23 -13 13 23 21 0 0.10773098D+00 0.23206114D-01 0.70174776D+05 0.70174776D+05 0.70174776D+05 0.11345676D+01  1  2  2  1  7  1        2 0.489384621372D-03 0.100000000000D+01
-.326999012157D-06 0.000000000000D+00 -.238140902284D-07 0.997078345265D-10 0.000000000000D+00  7 2 -2 23 -13 13 23 21 2 0.10773098D+00 0.23206114D-01 0.70174776D+05 0.70174776D+05 0.70174776D+05 0.11345676D+01  1  2  3  1  7  1        2 -.332188424728D-04 0.100000000000D+01
0.396021820756D-06 0.000000000000D+00 0.000000000000D+00 0.997078345265D-10 0.000000000000D+00  7 2 -2 23 -13 13 23 21 2 0.10773098D+00 0.23206114D-01 0.70174776D+05 0.70174776D+05 0.70174776D+05 0.11345676D+01  1  2 15  1  7  1        2 0.402306612264D-04 0.100000000000D+01
0.141200159585D-04 0.000000000000D+00 0.000000000000D+00 0.997078345265D-10 0.000000000000D+00  7 2 -2 23 -13 13 23 21 2 0.12163222D+00 0.23206114D-01 0.82413487D+05 0.82413487D+05 0.82413487D+05 0.11286812D+01  1  2 12  1  7  1        2 0.122298425003D-02 0.100000000000D+01
-.139913132761D-04 0.000000000000D+00 0.000000000000D+00 0.997078345265D-10 0.000000000000D+00  7 2 -2 23 -13 13 23 21 2 0.10773098D+00 0.23206114D-01 0.70174776D+05 0.70174776D+05 0.70174776D+05 0.11345676D+01  1  2  4  1  7  1        2 -.142133527756D-02 0.100000000000D+01
-.318491651685D-04 0.000000000000D+00 -.650269085081D-05 0.997078345265D-10 0.000000000000D+00  7 2 -2 23 -13 13 23 21 2 0.12277458D+00 0.23206114D-01 0.70174776D+05 0.70174776D+05 0.70174776D+05 0.11345676D+01  1  2  5  1  7  1        2 -.275849452776D-02 0.100000000000D+01
0.324764700872D-04 0.000000000000D+00 0.644753168385D-05 0.997078345265D-10 0.000000000000D+00  7 2 -2 23 -13 13 23 21 2 0.10773098D+00 0.23206114D-01 0.70174776D+05 0.70174776D+05 0.70174776D+05 0.11345676D+01  1  2  6  1  7  1        2 0.329918655344D-02 0.100000000000D+01
0.270466927848D-06 0.000000000000D+00 0.000000000000D+00 0.997078345265D-10 0.000000000000D+00  7 21 -2 23 -13 13 23 -2 2 0.12163222D+00 0.23206114D-01 0.82413487D+05 0.82413487D+05 0.82413487D+05 0.11286812D+01  1  2 12  3  7  1        2 0.247527128238D-04 0.100000000000D+01
-.613849602137D-06 0.000000000000D+00 -.132512579658D-06 0.997078345265D-10 0.000000000000D+00  7 21 -2 23 -13 13 23 -2 2 0.12277458D+00 0.23206114D-01 0.70174776D+05 0.70174776D+05 0.70174776D+05 0.11345676D+01  1  2  5  3  7  1        2 -.558120735399D-04 0.100000000000D+01
  </mgrwgt>
  </event>
  <event>
  9     66 0.25765000E-05 0.25591627E+03 0.75467711E-02 0.10189702E+00
        2 -1    0    0  502    0 0.00000000E+00 0.00000000E+00 0.31448609E+03 0.31448626E+03 0.32000000E+00 0.0000E+00 0.9000E+01
       -2 -1    0    0    0  501 0.00000000E+00 0.00000000E+00 -.31424226E+03 0.31424242E+03 0.32000000E+00 0.0000E+00 0.9000E+01
       25  2    1    2    0    0 -.17978928E+03 -.82434189E+02 0.87076795E+02 0.36943101E+03 0.29962864E+03 0.0000E+00 0.0000E+00
       23  2    1    2    0    0 0.14808327E+03 0.10673626E+03 -.77161656E+02 0.21818856E+03 0.91274560E+02 0.0000E+00 0.0000E+00
       23  1    3    3    0    0 0.19968500E+02 0.34417325E+01 0.95379312E+02 0.13350300E+03 0.91188000E+02 0.0000E+00 0.9000E+01
      -13  1    4    4    0    0 0.11016225E+02 0.61356966E+01 0.19039125E+02 0.22836449E+02 0.10565837E+00 0.0000E+00 0.9000E+01
       13  1    4    4    0    0 0.13706704E+03 0.10060056E+03 -.96200781E+02 0.19535212E+03 0.10565837E+00 0.0000E+00 0.9000E+01
       23  1    3    3    0    0 -.19975778E+03 -.85875921E+02 -.83025168E+01 0.23592801E+03 0.91188000E+02 0.0000E+00 0.9000E+01
       21  1    1    2  502  501 0.31706012E+02 -.24302071E+02 -.96713056E+01 0.41109105E+02 0.75000000E+00 0.0000E+00 0.9000E+01
#aMCatNLO 2  0  0  1  2 0.39948240D+02 0.00000000D+00  -5  7  0 0.00000000D+00 0.00000000D+00 0.00000000D+00 0.00000000D+00 0.00000000D+00
  <mgrwgt>
 0.1668719543D-03    1    2    0
 0.293088124865378D+03 0.000000000000000D+00 0.000000000000000D+00 0.293088124865378D+03
 0.293088124865378D+03 0.000000000000000D+00 0.000000000000000D+00 -.293088124865378D+03
 0.133155782832254D+03 0.271289055237038D+02 -.204658610579326D+01 0.931399223108331D+02
 0.229118796854019D+02 0.122432778827197D+02 0.519492700891714D+01 0.186566103774738D+02
 0.200703727855203D+03 0.147810658569402D+03 0.923660368697039D+02 -.995113602622314D+02
 0.229404859357896D+03 -.187182841975826D+03 -.955143777728277D+02 -.122851724260755D+02
 0.000000000000000D+00 0.000000000000000D+00 -.000000000000000D+00 -.000000000000000D+00
 0.309220464085646D+03 0.000000000000000D+00 0.000000000000000D+00 0.309220464085646D+03
 0.319586782965486D+03 0.000000000000000D+00 0.000000000000000D+00 -.319586782965486D+03
 0.131912406479038D+03 0.199684999568751D+02 0.344173219400642D+01 0.931399223108331D+02
 0.225181663255366D+02 0.110160557282876D+02 0.613557006959674D+01 0.186566103774738D+02
 0.197003629877747D+03 0.137067211814517D+03 0.100600689904012D+03 -.995113602622314D+02
 0.236101717578179D+03 -.199757779366650D+03 -.858759210741441D+02 -.122851724260755D+02
 0.412713267906311D+02 0.317060118669700D+02 -.243020710934708D+02 -.103663188798394D+02
0.252550654361D-05 0.000000000000D+00 0.000000000000D+00 0.344412615484D-06 0.147993087783D-08  7 2 -2 23 -13 13 23 21 2 0.48381975D-01 0.48344462D-01 0.76113933D+05 0.76113933D+05 0.76113933D+05 0.11315810D+01  1  2  1  1  7  1        2 0.166871954250D-03 0.100000000000D+01
  </mgrwgt>
  </event>
  <event>
  8     66 0.25765000E-05 0.18532167E+03 0.75467711E-02 0.91942397E-01
        2 -1    0    0  501    0 0.00000000E+00 0.00000000E+00 0.28244827E+04 0.28244827E+04 0.32000000E+00 0.0000E+00 0.9000E+01
       -2 -1    0    0    0  501 0.00000000E+00 0.00000000E+00 -.21025549E+02 0.21027984E+02 0.32000000E+00 0.0000E+00 0.9000E+01
       25  2    1    2    0    0 -.19656836E+02 -.11182075E+03 0.16642466E+04 0.16949173E+04 0.30022927E+03 0.0000E+00 0.0000E+00
       23  2    1    2    0    0 0.19656836E+02 0.11182075E+03 0.11392105E+04 0.11505934E+04 0.11477910E+03 0.0000E+00 0.0000E+00
       23  1    3    3    0    0 0.60169567E+02 -.61794017E+02 0.31157516E+03 0.33590655E+03 0.91188000E+02 0.0000E+00 0.9000E+01
      -13  1    4    4    0    0 -.42830063E+00 0.20449865E+02 0.75067588E+03 0.75095451E+03 0.10565837E+00 0.0000E+00 0.9000E+01
       13  1    4    4    0    0 0.20085137E+02 0.91370884E+02 0.38853465E+03 0.39963889E+03 0.10565837E+00 0.0000E+00 0.9000E+01
       23  1    3    3    0    0 -.79826403E+02 -.50026733E+02 0.13526715E+04 0.13590108E+04 0.91188000E+02 0.0000E+00 0.9000E+01
#aMCatNLO 1  0  0  1  2 0.58637046D+03 0.00000000D+00  -5  7  0 0.00000000D+00 0.00000000D+00 0.00000000D+00 0.00000000D+00 0.00000000D+00
  <mgrwgt>
 0.3176653005D-03    3    2    0
 0.243700201727134D+03 0.000000000000000D+00 0.000000000000000D+00 0.243700201727134D+03
 0.243700201727134D+03 0.000000000000000D+00 0.000000000000000D+00 -.243700201727134D+03
 0.168934900706294D+03 0.601689367262049D+02 -.617975992069606D+02 -.113068585903155D+03
 0.663936273190719D+02 -.427014822233478D+00 0.204549752022661D+02 0.631626899078885D+02
 0.983510031919705D+02 0.200850541548528D+02 0.913726167136167D+02 -.303406549594782D+02
 0.153720872236932D+03 -.798269760588243D+02 -.500299927089222D+02 0.802465509547443D+02
 0.000000000000000D+00 -.000000000000000D+00 -.000000000000000D+00 -.000000000000000D+00
 0.528430188639103D+03 0.000000000000000D+00 0.000000000000000D+00 0.528430188639103D+03
 0.965252208231336D+03 0.000000000000000D+00 0.000000000000000D+00 -.965252208231336D+03
 0.247453194541112D+03 0.176176245439369D+03 0.953690598116075D+02 -.113068585903155D+03
 0.123360242888380D+03 0.524391358961103D+02 0.920780166790600D+02 0.631626899078885D+02
 0.256653150977030D+03 0.118990563167230D+03 0.225369763810973D+03 -.303406549594782D+02
 0.135022406569879D+03 0.618000792615945D+00 0.589568322318089D+02 0.802465509547443D+02
 0.731193401894038D+03 -.348223945295324D+03 -.471773672533449D+03 -.436822019592233D+03
0.301497128101D-05 0.000000000000D+00 0.000000000000D+00 0.804584429975D-09 0.000000000000D+00  7 2 -2 23 -13 13 23 21 0 0.43453599D+00 0.32348885D-02 0.34344121D+05 0.34344121D+05 0.34344121D+05 0.11619257D+01  1  2  2  1  7  1        2 0.311500900331D-03 0.100000000000D+01
-.152226116567D-06 0.000000000000D+00 -.115782835793D-07 0.804584429975D-09 0.000000000000D+00  7 2 -2 23 -13 13 23 21 2 0.43453599D+00 0.32348885D-02 0.34344121D+05 0.34344121D+05 0.34344121D+05 0.11619257D+01  1  2  3  1  7  1        2 -.212335190336D-04 0.100000000000D+01
0.196419577978D-06 0.000000000000D+00 0.000000000000D+00 0.804584429975D-09 0.000000000000D+00  7 2 -2 23 -13 13 23 21 2 0.43453599D+00 0.32348885D-02 0.34344121D+05 0.34344121D+05 0.34344121D+05 0.11619257D+01  1  2 15  1  7  1        2 0.273979192377D-04 0.100000000000D+01
  </mgrwgt>
  </event>
  <event>
  8     66 0.25765000E-05 0.38860180E+03 0.75467711E-02 0.92386042E-01
        2 -1    0    0  501    0 0.00000000E+00 0.00000000E+00 0.44956579E+03 0.44956590E+03 0.32000000E+00 0.0000E+00 0.9000E+01
       -2 -1    0    0    0  501 0.00000000E+00 0.00000000E+00 -.55665080E+03 0.55665089E+03 0.32000000E+00 0.0000E+00 0.9000E+01
       25  2    1    2    0    0 -.19340879E+03 -.30815936E+03 -.32543993E+03 0.57265579E+03 0.29942336E+03 0.0000E+00 0.0000E+00
       23  2    1    2    0    0 0.19340879E+03 0.30815936E+03 0.21835492E+03 0.43356100E+03 0.89034356E+02 0.0000E+00 0.0000E+00
       23  1    3    3    0    0 -.14397015E+03 -.21111604E+03 -.69717026E+02 0.28013051E+03 0.91188000E+02 0.0000E+00 0.9000E+01
      -13  1    4    4    0    0 0.10777499E+02 0.18696596E+02 0.44986726E+02 0.49895229E+02 0.10565837E+00 0.0000E+00 0.9000E+01
       13  1    4    4    0    0 0.18263130E+03 0.28946277E+03 0.17336820E+03 0.38366578E+03 0.10565837E+00 0.0000E+00 0.9000E+01
       23  1    3    3    0    0 -.49438640E+02 -.97043329E+02 -.25572290E+03 0.29252528E+03 0.91188000E+02 0.0000E+00 0.9000E+01
#aMCatNLO 1  0  0  1  2 0.37192926D+03 0.00000000D+00  -5  7  0 0.00000000D+00 0.00000000D+00 0.00000000D+00 0.00000000D+00 0.00000000D+00
  <mgrwgt>
 0.3518180830D-03    3    2    0
 0.500251195846507D+03 0.000000000000000D+00 0.000000000000000D+00 0.500251195846507D+03
 0.500251195846507D+03 0.000000000000000D+00 0.000000000000000D+00 -.500251195846507D+03
 0.274268581531686D+03 -.143970154242074D+03 -.211116035259682D+03 -.401325032255568D+02
 0.549946998320320D+02 0.107772570795586D+02 0.186962145488961D+02 0.505837849611716D+02
 0.404413398402313D+03 0.182631537659216D+03 0.289463149536233D+03 0.215422847720717D+03
 0.266825711926983D+03 -.494386404967000D+02 -.970433288254474D+02 -.225874129456331D+03
 0.000000000000000D+00 0.000000000000000D+00 -.000000000000000D+00 -.000000000000000D+00
 0.686846460260754D+03 0.000000000000000D+00 0.000000000000000D+00 0.686846460260754D+03
 0.759511813596689D+03 0.000000000000000D+00 0.000000000000000D+00 -.759511813596689D+03
 0.221030033667306D+03 -.154539741423284D+03 -.122661627841170D+03 -.401325032255568D+02
 0.650974403986990D+02 0.821451148125565D+01 0.401432341321478D+02 0.505837849611716D+02
 0.530243339695769D+03 0.162686123772153D+03 0.456381661664457D+03 0.215422847720717D+03
 0.251026211710014D+03 -.604895113973572D+02 -.456117032507663D+01 -.225874129456331D+03
 0.378961248385655D+03 0.441286175672321D+02 -.369302097630359D+03 -.726653533359350D+02
0.333570593912D-04 0.000000000000D+00 0.000000000000D+00 0.255202216937D-06 0.000000000000D+00  7 2 -2 23 -13 13 23 21 0 0.69163984D-01 0.85638600D-01 0.15101136D+06 0.15101136D+06 0.15101136D+06 0.11073217D+01  1  2  2  1  7  1        2 0.346904672133D-03 0.100000000000D+01
-.170945255426D-05 0.000000000000D+00 -.128099891178D-06 0.255202216937D-06 0.000000000000D+00  7 2 -2 23 -13 13 23 21 2 0.69163984D-01 0.85638600D-01 0.15101136D+06 0.15101136D+06 0.15101136D+06 0.11073217D+01  1  2  3  1  7  1        2 -.217985216863D-04 0.100000000000D+01
0.209476504806D-05 0.000000000000D+00 0.000000000000D+00 0.255202216937D-06 0.000000000000D+00  7 2 -2 23 -13 13 23 21 2 0.69163984D-01 0.85638600D-01 0.15101136D+06 0.15101136D+06 0.15101136D+06 0.11073217D+01  1  2 15  1  7  1        2 0.267119325506D-04 0.100000000000D+01
  </mgrwgt>
  </event>
  <event>
  8     66 0.25765000E-05 0.18844874E+03 0.75467711E-02 0.97927628E-01
        2 -1    0    0  501    0 0.00000000E+00 0.00000000E+00 0.10529664E+04 0.10529665E+04 0.32000000E+00 0.0000E+00 0.9000E+01
       -2 -1    0    0    0  501 0.00000000E+00 0.00000000E+00 -.44273668E+02 0.44274825E+02 0.32000000E+00 0.0000E+00 0.9000E+01
       25  2    1    2    0    0 -.85226325E+01 -.19257229E+02 0.54352384E+03 0.62140652E+03 0.30047366E+03 0.0000E+00 0.0000E+00
       23  2    1    2    0    0 0.85226325E+01 0.19257229E+02 0.46516891E+03 0.47583477E+03 0.97944584E+02 0.0000E+00 0.0000E+00
       23  1    3    3    0    0 -.95543809E+02 0.40434328E+02 0.15004458E+03 0.20394162E+03 0.91188000E+02 0.0000E+00 0.9000E+01
      -11  1    4    4    0    0 -.30716782E+01 -.39396393E+02 0.21671804E+03 0.22029121E+03 0.51099893E-03 0.0000E+00 0.9000E+01
       11  1    4    4    0    0 0.11594311E+02 0.58653622E+02 0.24845087E+03 0.25554356E+03 0.51099893E-03 0.0000E+00 0.9000E+01
       23  1    3    3    0    0 0.87021177E+02 -.59691557E+02 0.39347926E+03 0.41746490E+03 0.91188000E+02 0.0000E+00 0.9000E+01
#aMCatNLO 1  0  0  2  1 0.29197211D+03 0.00000000D+00  -5  7  0 0.00000000D+00 0.00000000D+00 0.00000000D+00 0.00000000D+00 0.00000000D+00
  <mgrwgt>
 0.1882048285D-03    5    2    0
 0.215915138169615D+03 0.000000000000000D+00 0.000000000000000D+00 0.215915138169615D+03
 0.215915138169615D+03 0.000000000000000D+00 0.000000000000000D+00 -.215915138169615D+03
 0.167714691999309D+03 -.955438110182928D+02 0.404343246518183D+02 -.951283981494224D+02
 0.535180164487248D+02 -.307167496921552D+01 -.393963767257706D+02 0.360924978128506D+02
 0.689677265133176D+02 0.115943104670101D+02 0.586536121882564D+02 0.343783804516730D+02
 0.141629841377879D+03 0.870211755204982D+02 -.596915601143040D+02 0.246575198848987D+02
 0.000000000000000D+00 -.000000000000000D+00 0.000000000000000D+00 -.000000000000000D+00
 0.404701467256085D+03 0.000000000000000D+00 0.000000000000000D+00 0.404701467256085D+03
 0.408568834919275D+03 0.000000000000000D+00 0.000000000000000D+00 -.408568834919275D+03
 0.138437778657602D+03 -.316694262218454D+02 -.282383165920926D+02 -.951283981494224D+02
 0.826926436545957D+02 0.253467535940074D+02 -.699496032759300D+02 0.360924978128506D+02
 0.595535393990680D+02 0.384084556404911D+02 0.298251831140868D+02 0.343783804516730D+02
 0.240588617136790D+03 0.166765653306635D+03 -.145426458879153D+03 0.246575198848987D+02
 0.291997723327305D+03 -.198851436319288D+03 0.213789195633088D+03 -.386736766318955D+01
0.481040072495D-06 0.000000000000D+00 0.000000000000D+00 0.255867290504D-08 0.000000000000D+00  7 2 -2 23 -11 11 23 21 0 0.16199493D+00 0.68114263D-02 0.35512928D+05 0.35512928D+05 0.35512928D+05 0.11605987D+01  1  2  2  2  7  2       -2 0.152815413081D-03 0.100000000000D+01
-.261229321006D-07 0.000000000000D+00 -.184732053914D-08 0.255867290504D-08 0.000000000000D+00  7 2 -2 23 -11 11 23 21 2 0.16199493D+00 0.68114263D-02 0.35512928D+05 0.35512928D+05 0.35512928D+05 0.11605987D+01  1  2  3  2  7  2       -2 -.111782023330D-04 0.100000000000D+01
0.305194410736D-07 0.000000000000D+00 0.000000000000D+00 0.255867290504D-08 0.000000000000D+00  7 2 -2 23 -11 11 23 21 2 0.16199493D+00 0.68114263D-02 0.35512928D+05 0.35512928D+05 0.35512928D+05 0.11605987D+01  1  2 15  2  7  2       -2 0.130595021300D-04 0.100000000000D+01
0.192430957209D-06 0.000000000000D+00 -.167334247915D-06 0.255867290504D-08 0.000000000000D+00  7 2 -2 23 -11 11 23 21 2 0.16199493D+00 0.25422100D-01 0.35512928D+05 0.35512928D+05 0.35512928D+05 0.11605987D+01  1  2  5  2  7  2       -2 0.104438185553D-04 0.100000000000D+01
0.337429762743D-07 0.000000000000D+00 -.260467857425D-07 0.255867290504D-08 0.000000000000D+00  7 2 21 23 -11 11 23 2 2 0.16199493D+00 0.25422100D-01 0.35512928D+05 0.35512928D+05 0.35512928D+05 0.11605987D+01  1  2  5  4  7  2       -2 0.230642970626D-04 0.100000000000D+01
  </mgrwgt>
  </event>
  <event>
  8     66 0.25765000E-05 0.22379786E+03 0.75467711E-02 0.96141202E-01
        2 -1    0    0  501    0 0.00000000E+00 0.00000000E+00 0.10865303E+04 0.10865303E+04 0.32000000E+00 0.0000E+00 0.9000E+01
       -2 -1    0    0    0  501 0.00000000E+00 0.00000000E+00 -.16791736E+03 0.16791767E+03 0.32000000E+00 0.0000E+00 0.9000E+01
       25  2    1    2    0    0 -.58909266E+01 -.29644480E+03 0.83165874E+03 0.93223261E+03 0.29914405E+03 0.0000E+00 0.0000E+00
       23  2    1    2    0    0 0.58909266E+01 0.29644480E+03 0.86954167E+02 0.32221537E+03 0.91364621E+02 0.0000E+00 0.0000E+00
       23  1    3    3    0    0 0.60715441E+01 -.28210426E+03 0.75667374E+03 0.81270541E+03 0.91188000E+02 0.0000E+00 0.9000E+01
      -13  1    4    4    0    0 -.22410528E+02 0.17992068E+03 0.13991452E+02 0.18185009E+03 0.10565837E+00 0.0000E+00 0.9000E+01
       13  1    4    4    0    0 0.28301455E+02 0.11652412E+03 0.72962715E+02 0.14036528E+03 0.10565837E+00 0.0000E+00 0.9000E+01
       23  1    3    3    0    0 -.11962471E+02 -.14340540E+02 0.74984998E+02 0.11952721E+03 0.91188000E+02 0.0000E+00 0.9000E+01
#aMCatNLO 1  0  0  2  1 0.16692811D+03 0.00000000D+00  -5  7  0 0.00000000D+00 0.00000000D+00 0.00000000D+00 0.00000000D+00 0.00000000D+00
  <mgrwgt>
 0.3610411024D-03    9    2    0
 0.427138757655915D+03 0.000000000000000D+00 0.000000000000000D+00 0.427138757655915D+03
 0.427138757655915D+03 0.000000000000000D+00 0.000000000000000D+00 -.427138757655915D+03
 0.379743573093262D+03 0.607154408505353D+01 -.282104262137071D+03 0.237213514788174D+03
 0.251989411670532D+03 -.224105957387366D+02 0.179920763241644D+03 -.174999850706337D+03
 0.127659116106541D+03 0.283015223625119D+02 0.116524038895165D+03 -.437952293820408D+02
 0.948854144414954D+02 -.119624707088289D+02 -.143405399997377D+02 -.184184346997966D+02
 0.000000000000000D+00 -.000000000000000D+00 0.000000000000000D+00 -.000000000000000D+00
 0.476217868177324D+03 0.000000000000000D+00 0.000000000000000D+00 0.476217868177324D+03
 0.605121482209889D+03 0.000000000000000D+00 0.000000000000000D+00 -.605121482209889D+03
 0.391215296666877D+03 0.805711577227418D+02 -.286307865674715D+03 0.237213514788174D+03
 0.250402400477630D+03 0.261367358607049D+02 0.177181504272503D+03 -.174999850706337D+03
 0.134312154542561D+03 0.536164376103310D+02 0.115095657429881D+03 -.437952293820408D+02
 0.945039864408292D+02 0.633868353717670D+01 -.153731734990952D+02 -.184184346997966D+02
 0.210905512259316D+03 -.166663014730954D+03 0.940387747142608D+01 -.128903614032566D+03
0.930550410958D-05 0.000000000000D+00 0.000000000000D+00 0.780998175558D-06 0.000000000000D+00  7 2 -2 23 -13 13 23 21 0 0.16715853D+00 0.25833468D-01 0.11931557D+06 0.11931557D+06 0.11931557D+06 0.11154820D+01  1  2  2  2  7  2       -2 0.341367184080D-03 0.100000000000D+01
-.488630192709D-06 0.000000000000D+00 -.357355859763D-07 0.780998175558D-06 0.000000000000D+00  7 2 -2 23 -13 13 23 21 2 0.16715853D+00 0.25833468D-01 0.11931557D+06 0.11931557D+06 0.11931557D+06 0.11154820D+01  1  2  3  2  7  2       -2 -.223042321288D-04 0.100000000000D+01
0.598567234091D-06 0.000000000000D+00 0.000000000000D+00 0.780998175558D-06 0.000000000000D+00  7 2 -2 23 -13 13 23 21 2 0.16715853D+00 0.25833468D-01 0.11931557D+06 0.11931557D+06 0.11931557D+06 0.11154820D+01  1  2 15  2  7  2       -2 0.273224674469D-04 0.100000000000D+01
0.508894095589D-05 0.000000000000D+00 0.000000000000D+00 0.780998175558D-06 0.000000000000D+00  7 2 -2 23 -13 13 23 21 2 0.16715853D+00 0.37596720D-01 0.19218739D+06 0.19218739D+06 0.19218739D+06 0.10991569D+01  1  2 12  2  7  2       -2 0.114435619562D-03 0.100000000000D+01
-.767010002615D-05 0.000000000000D+00 0.000000000000D+00 0.780998175558D-06 0.000000000000D+00  7 2 -2 23 -13 13 23 21 2 0.16715853D+00 0.25833468D-01 0.11931557D+06 0.11931557D+06 0.11931557D+06 0.11154820D+01  1  2  4  2  7  2       -2 -.350112813304D-03 0.100000000000D+01
-.892435493761D-05 0.000000000000D+00 -.355062799793D-05 0.780998175558D-06 0.000000000000D+00  7 2 -2 23 -13 13 23 21 2 0.16715853D+00 0.40400546D-01 0.11931557D+06 0.11931557D+06 0.11931557D+06 0.11154820D+01  1  2  5  2  7  2       -2 -.183247203435D-03 0.100000000000D+01
0.983947352622D-05 0.000000000000D+00 0.322298336676D-05 0.780998175558D-06 0.000000000000D+00  7 2 -2 23 -13 13 23 21 2 0.16715853D+00 0.25833468D-01 0.11931557D+06 0.11931557D+06 0.11931557D+06 0.11154820D+01  1  2  6  2  7  2       -2 0.449137005508D-03 0.100000000000D+01
0.231198437756D-06 0.000000000000D+00 0.000000000000D+00 0.780998175558D-06 0.000000000000D+00  7 2 21 23 -13 13 23 2 2 0.16715853D+00 0.37596720D-01 0.19218739D+06 0.19218739D+06 0.19218739D+06 0.10991569D+01  1  2 12  4  7  2       -2 0.580009422504D-04 0.100000000000D+01
-.321361432571D-06 0.000000000000D+00 -.183630136817D-06 0.780998175558D-06 0.000000000000D+00  7 2 21 23 -13 13 23 2 2 0.16715853D+00 0.40400546D-01 0.11931557D+06 0.11931557D+06 0.11931557D+06 0.11154820D+01  1  2  5  4  7  2       -2 -.735578676089D-04 0.100000000000D+01
  </mgrwgt>
  </event>
  <event>
  9     66 0.25765000E-05 0.20282502E+03 0.75467711E-02 0.10596260E+00
        2 -1    0    0  501    0 0.00000000E+00 0.00000000E+00 0.14697040E+04 0.14697040E+04 0.32000000E+00 0.0000E+00 0.9000E+01
       -2 -1    0    0    0  502 0.00000000E+00 0.00000000E+00 -.37831920E+02 0.37833273E+02 0.32000000E+00 0.0000E+00 0.9000E+01
       25  2    1    2    0    0 0.40424071E+02 -.44858737E+02 0.66485595E+03 0.73179904E+03 0.29974987E+03 0.0000E+00 0.0000E+00
       23  2    1    2    0    0 -.36565826E+02 0.42194584E+02 0.67689722E+03 0.68549436E+03 0.92710418E+02 0.0000E+00 0.0000E+00
       23  1    3    3    0    0 0.13276248E+03 -.50413641E+02 0.29590045E+03 0.34064606E+03 0.91188000E+02 0.0000E+00 0.9000E+01
      -11  1    4    4    0    0 -.22030461E+02 0.71189848E+02 0.51674776E+03 0.52209347E+03 0.51099893E-03 0.0000E+00 0.9000E+01
       11  1    4    4    0    0 -.14535364E+02 -.28995265E+02 0.16014946E+03 0.16340089E+03 0.51099893E-03 0.0000E+00 0.9000E+01
       23  1    3    3    0    0 -.92338409E+02 0.55549044E+01 0.36895550E+03 0.39115298E+03 0.91188000E+02 0.0000E+00 0.9000E+01
       21  1    1    2  501  502 -.38582450E+01 0.26641535E+01 0.90118870E+02 0.90243875E+02 0.75000000E+00 0.0000E+00 0.9000E+01
#aMCatNLO 2  0  0  2  1 0.46886851D+01 0.00000000D+00  -5  7  0 0.00000000D+00 0.00000000D+00 0.00000000D+00 0.00000000D+00 0.00000000D+00
  <mgrwgt>
 0.4923252604D-05    4    2    0
 0.228252605579877D+03 0.000000000000000D+00 0.000000000000000D+00 0.228252605579877D+03
 0.228252605579877D+03 0.000000000000000D+00 0.000000000000000D+00 -.228252605579877D+03
 0.186467762583282D+03 0.131180608434173D+03 -.493213451835028D+02 -.825471260489751D+02
 0.102707105746341D+03 -.228959228666002D+02 0.717874571962669D+02 0.697931749970646D+02
 0.365489647057675D+02 -.148444449334640D+02 -.287818414137917D+02 0.169432842304004D+02
 0.130781378124362D+03 -.934402406341084D+02 0.631572940102761D+01 -.418933317848987D+01
 0.000000000000000D+00 -.000000000000000D+00 0.000000000000000D+00 0.000000000000000D+00
 0.243176857600145D+03 0.000000000000000D+00 0.000000000000000D+00 0.243176857600145D+03
 0.228633197506672D+03 0.000000000000000D+00 0.000000000000000D+00 -.228633197506672D+03
 0.187874134859924D+03 0.132762479376828D+03 -.504136415678989D+02 -.825471260489751D+02
 0.102100063529342D+03 -.220304613402854D+02 0.711898480800387D+02 0.697931749970646D+02
 0.365934017754711D+02 -.145353644244320D+02 -.289952643381273D+02 0.169432842304004D+02
 0.129961688692263D+03 -.923384086358380D+02 0.555490430748232D+01 -.418933317848987D+01
 0.152807662498174D+02 -.385824497627305D+01 0.266415351850509D+01 0.145436600934723D+02
-.499715154677D-08 0.000000000000D+00 0.000000000000D+00 0.552863689923D-07 0.000000000000D+00  7 2 -2 23 -11 11 23 21 2 0.21222316D+00 0.58104799D-02 0.41137988D+05 0.41137988D+05 0.41137988D+05 0.11548233D+01  1  2  8  2  7  2       -2 -.176618767744D-05 0.100000000000D+01
-.143876462147D-07 0.000000000000D+00 0.000000000000D+00 0.552863689923D-07 0.000000000000D+00  7 2 -2 23 -11 11 23 21 2 0.21222316D+00 0.63035099D-02 0.41137988D+05 0.41137988D+05 0.41137988D+05 0.11548233D+01  1  2  9  2  7  2       -2 -.450654097676D-05 0.100000000000D+01
0.143400608601D-07 0.000000000000D+00 0.000000000000D+00 0.552863689923D-07 0.000000000000D+00  7 2 -2 23 -11 11 23 21 2 0.21222316D+00 0.58104799D-02 0.41137988D+05 0.41137988D+05 0.41137988D+05 0.11548233D+01  1  2 10  2  7  2       -2 0.506833514009D-05 0.100000000000D+01
0.194483640939D-07 0.000000000000D+00 0.000000000000D+00 0.552863689923D-07 0.179009359527D-07  7 2 -2 23 -11 11 23 21 2 0.22609933D+00 0.58201684D-02 0.42087794D+05 0.42087794D+05 0.42087794D+05 0.11539347D+01  1  2  1  2  7  2       -2 0.612764611787D-05 0.100000000000D+01
  </mgrwgt>
  </event>
  <event>
  8     66 0.25765000E-05 0.16626230E+03 0.75467711E-02 0.99022324E-01
        2 -1    0    0  501    0 0.00000000E+00 0.00000000E+00 0.15816660E+04 0.15816660E+04 0.32000000E+00 0.0000E+00 0.9000E+01
       -2 -1    0    0    0  501 0.00000000E+00 0.00000000E+00 -.11096119E+03 0.11096165E+03 0.32000000E+00 0.0000E+00 0.9000E+01
       25  2    1    2    0    0 -.67685795E+01 0.31776332E+02 0.15441157E+04 0.15732859E+04 0.29979943E+03 0.0000E+00 0.0000E+00
       23  2    1    2    0    0 0.67685795E+01 -.31776332E+02 -.73410911E+02 0.11934176E+03 0.88304835E+02 0.0000E+00 0.0000E+00
       23  1    3    3    0    0 -.11318526E+03 0.59236226E+02 0.72252651E+03 0.73937787E+03 0.91188000E+02 0.0000E+00 0.9000E+01
      -11  1    4    4    0    0 0.61174484E+01 -.31439117E+02 -.93708500E+02 0.99030926E+02 0.51099893E-03 0.0000E+00 0.9000E+01
       11  1    4    4    0    0 0.65113110E+00 -.33721488E+00 0.20297589E+02 0.20310830E+02 0.51099893E-03 0.0000E+00 0.9000E+01
       23  1    3    3    0    0 0.10641668E+03 -.27459893E+02 0.82158917E+03 0.83390801E+03 0.91188000E+02 0.0000E+00 0.9000E+01
#aMCatNLO 1  0  0  1  2 0.26037817D+03 0.00000000D+00  -5  7  0 0.00000000D+00 0.00000000D+00 0.00000000D+00 0.00000000D+00 0.00000000D+00
  <mgrwgt>
 0.2339213705D-03    7    2    0
 0.418931921315082D+03 0.000000000000000D+00 0.000000000000000D+00 0.418931921315082D+03
 0.418931921315082D+03 0.000000000000000D+00 0.000000000000000D+00 -.418931921315082D+03
 0.225416394634795D+03 -.113185262727684D+03 0.592362255136855D+02 0.161794516329529D+03
 0.364546128216096D+03 0.611744842513901D+01 -.314391173236483D+02 -.363136390801063D+03
 0.540291964710060D+01 0.651131099512949D+00 -.337214882722746D+00 0.535292958361521D+01
 0.242498400132172D+03 0.106416683203032D+03 -.274598933073145D+02 0.195988944887918D+03
 0.000000000000000D+00 -.000000000000000D+00 -.000000000000000D+00 0.000000000000000D+00
 0.674709491419293D+03 0.000000000000000D+00 0.000000000000000D+00 0.674709491419293D+03
 0.510508997978540D+03 0.000000000000000D+00 0.000000000000000D+00 -.510508997978540D+03
 0.247098650334385D+03 -.989253668581516D+02 0.129532999389146D+03 0.161794516329529D+03
 0.372546218150432D+03 0.283619467058272D+02 0.782192195897094D+02 -.363136390801063D+03
 0.559532472340793D+01 0.983043958459812D+00 0.129901047300350D+01 0.535292958361521D+01
 0.252149462351379D+03 0.121344519017366D+03 0.461296131162413D+02 0.195988944887918D+03
 0.307828833838229D+03 -.517641428235013D+02 -.255180842568101D+03 0.164200493440753D+03
0.827712831940D-05 0.000000000000D+00 0.000000000000D+00 0.364220976453D-06 0.000000000000D+00  7 2 -2 23 -11 11 23 21 0 0.24333326D+00 0.17070990D-01 0.27643152D+05 0.27643152D+05 0.27643152D+05 0.11706472D+01  1  2  2  1  7  1        2 0.331807091559D-03 0.100000000000D+01
0.176513078896D-07 0.000000000000D+00 -.317863521644D-07 0.364220976453D-06 0.000000000000D+00  7 2 -2 23 -11 11 23 21 2 0.24333326D+00 0.17070990D-01 0.27643152D+05 0.27643152D+05 0.27643152D+05 0.11706472D+01  1  2  3  1  7  1        2 0.969694511983D-06 0.100000000000D+01
0.504465165933D-06 0.000000000000D+00 0.000000000000D+00 0.364220976453D-06 0.000000000000D+00  7 2 -2 23 -11 11 23 21 2 0.24333326D+00 0.17070990D-01 0.27643152D+05 0.27643152D+05 0.27643152D+05 0.11706472D+01  1  2 15  1  7  1        2 0.277133629956D-04 0.100000000000D+01
-.413434274575D-05 0.000000000000D+00 0.000000000000D+00 0.364220976453D-06 0.000000000000D+00  7 2 -2 23 -11 11 23 21 2 0.24333326D+00 0.17070990D-01 0.27643152D+05 0.27643152D+05 0.27643152D+05 0.11706472D+01  1  2  4  1  7  1        2 -.227124782837D-03 0.100000000000D+01
-.614372429192D-06 0.000000000000D+00 -.244815880179D-05 0.364220976453D-06 0.000000000000D+00  7 2 -2 23 -11 11 23 21 2 0.42046527D+00 0.17070990D-01 0.27643152D+05 0.27643152D+05 0.27643152D+05 0.11706472D+01  1  2  5  1  7  1        2 -.810743341951D-05 0.100000000000D+01
0.197585697878D-05 0.000000000000D+00 0.212268369620D-05 0.364220976453D-06 0.000000000000D+00  7 2 -2 23 -11 11 23 21 2 0.24333326D+00 0.17070990D-01 0.27643152D+05 0.27643152D+05 0.27643152D+05 0.11706472D+01  1  2  6  1  7  1        2 0.108545932164D-03 0.100000000000D+01
0.842793476454D-07 0.000000000000D+00 -.148452290893D-06 0.364220976453D-06 0.000000000000D+00  7 21 -2 23 -11 11 23 -2 2 0.42046527D+00 0.17070990D-01 0.27643152D+05 0.27643152D+05 0.27643152D+05 0.11706472D+01  1  2  5  3  7  1        2 0.117505489867D-06 0.100000000000D+01
  </mgrwgt>
  </event>
  <event>
  8     66 0.25765000E-05 0.32071686E+03 0.75467711E-02 0.91668261E-01
        2 -1    0    0  501    0 0.00000000E+00 0.00000000E+00 0.16222669E+04 0.16222669E+04 0.32000000E+00 0.0000E+00 0.9000E+01
       -2 -1    0    0    0  501 0.00000000E+00 0.00000000E+00 -.97533768E+02 0.97534293E+02 0.32000000E+00 0.0000E+00 0.9000E+01
       25  2    1    2    0    0 0.22143745E+03 -.14641406E+03 0.13006219E+04 0.13603761E+04 0.29754676E+03 0.0000E+00 0.0000E+00
       23  2    1    2    0    0 -.22143745E+03 0.14641406E+03 0.22411114E+03 0.35942507E+03 0.92135547E+02 0.0000E+00 0.0000E+00
       23  1    3    3    0    0 0.20917764E+03 -.14120034E+03 0.64928258E+03 0.70254960E+03 0.91188000E+02 0.0000E+00 0.9000E+01
      -13  1    4    4    0    0 -.96367974E+02 0.11858822E+03 0.12573871E+03 0.19788933E+03 0.10565837E+00 0.0000E+00 0.9000E+01
       13  1    4    4    0    0 -.12506947E+03 0.27825846E+02 0.98372422E+02 0.16153574E+03 0.10565837E+00 0.0000E+00 0.9000E+01
       23  1    3    3    0    0 0.12259804E+02 -.52137198E+01 0.65133937E+03 0.65782650E+03 0.91188000E+02 0.0000E+00 0.9000E+01
#aMCatNLO 1  0  0  1  1 0.48964254D+03 0.00000000D+00  -5  7  0 0.00000000D+00 0.00000000D+00 0.00000000D+00 0.00000000D+00 0.00000000D+00
  <mgrwgt>
 0.1636043182D-03    5    2    0
 0.397776666567576D+03 0.000000000000000D+00 0.000000000000000D+00 0.397776666567576D+03
 0.397776666567576D+03 0.000000000000000D+00 0.000000000000000D+00 -.397776666567576D+03
 0.274353699599989D+03 0.209177641396528D+03 -.141200343797222D+03 0.571128566220633D+02
 0.186803760064405D+03 -.963679363732476D+02 0.118588336896131D+03 -.107450788575845D+03
 0.160665080163529D+03 -.125069509319009D+03 0.278257268910880D+02 -.969361374598661D+02
 0.173730793307231D+03 0.122598042957281D+02 -.521371998999658D+01 0.147274069413648D+03
 0.000000000000000D+00 0.000000000000000D+00 -.000000000000000D+00 0.000000000000000D+00
 0.806186899589563D+03 0.000000000000000D+00 0.000000000000000D+00 0.806186899589563D+03
 0.643830924220422D+03 0.000000000000000D+00 0.000000000000000D+00 -.643830924220422D+03
 0.171578535781080D+03 0.904123497154536D+02 -.984259682409963D+02 0.571128566220633D+02
 0.299885176284877D+03 -.225987974794736D+03 0.165272145983569D+03 -.107450788575845D+03
 0.266883491782266D+03 -.238938673344743D+03 0.688367185483956D+02 -.969361374598661D+02
 0.195812807155214D+03 -.861608749366035D+02 0.302333625405426D+02 0.147274069413648D+03
 0.515857812806548D+03 0.460675173360629D+03 -.165916258831511D+03 0.162355975369141D+03
0.354954566771D-05 0.000000000000D+00 0.000000000000D+00 0.129579127241D-07 0.000000000000D+00  7 2 -2 23 -13 13 23 21 0 0.24957956D+00 0.15005238D-01 0.10285930D+06 0.10285930D+06 0.10285930D+06 0.11207187D+01  1  2  2  1  7  1        2 0.161828221794D-03 0.100000000000D+01
-.186079688360D-06 0.000000000000D+00 -.136311899808D-07 0.129579127241D-07 0.000000000000D+00  7 2 -2 23 -13 13 23 21 2 0.24957956D+00 0.15005238D-01 0.10285930D+06 0.10285930D+06 0.10285930D+06 0.11207187D+01  1  2  3  1  7  1        2 -.106554967530D-04 0.100000000000D+01
0.222780806057D-06 0.000000000000D+00 0.000000000000D+00 0.129579127241D-07 0.000000000000D+00  7 2 -2 23 -13 13 23 21 2 0.24957956D+00 0.15005238D-01 0.10285930D+06 0.10285930D+06 0.10285930D+06 0.11207187D+01  1  2 15  1  7  1        2 0.127571159243D-04 0.100000000000D+01
-.119945357944D-06 0.000000000000D+00 -.918959299908D-06 0.129579127241D-07 0.000000000000D+00  7 2 -2 23 -13 13 23 21 2 0.58387616D+00 0.15005238D-01 0.10285930D+06 0.10285930D+06 0.10285930D+06 0.11207187D+01  1  2  5  1  7  1        2 -.328754965901D-06 0.100000000000D+01
0.469337819260D-07 0.000000000000D+00 -.851679713374D-07 0.129579127241D-07 0.000000000000D+00  7 21 -2 23 -13 13 23 -2 2 0.58387616D+00 0.15005238D-01 0.10285930D+06 0.10285930D+06 0.10285930D+06 0.11207187D+01  1  2  5  3  7  1        2 0.323218890735D-08 0.100000000000D+01
  </mgrwgt>
  </event>
  <event>
  8     66 0.25765000E-05 0.32768236E+03 0.75467711E-02 0.93883138E-01
        2 -1    0    0  501    0 0.00000000E+00 0.00000000E+00 0.23887152E+03 0.23887174E+03 0.32000000E+00 0.0000E+00 0.9000E+01
       -2 -1    0    0    0  501 0.00000000E+00 0.00000000E+00 -.10922967E+04 0.10922967E+04 0.32000000E+00 0.0000E+00 0.9000E+01
       25  2    1    2    0    0 0.45386583E+03 -.28193575E+02 -.56577630E+03 0.78528131E+03 0.29962452E+03 0.0000E+00 0.0000E+00
       23  2    1    2    0    0 -.45386583E+03 0.28193575E+02 -.28764887E+03 0.54588716E+03 0.91988358E+02 0.0000E+00 0.0000E+00
       23  1    3    3    0    0 0.79840528E+02 -.80687289E+02 -.90658268E+02 0.17152003E+03 0.91188000E+02 0.0000E+00 0.9000E+01
      -13  1    4    4    0    0 -.28372397E+02 0.27814867E+01 0.48643154E+01 0.28920621E+02 0.10565837E+00 0.0000E+00 0.9000E+01
       13  1    4    4    0    0 -.42549343E+03 0.25412089E+02 -.29251318E+03 0.51696654E+03 0.10565837E+00 0.0000E+00 0.9000E+01
       23  1    3    3    0    0 0.37402530E+03 0.52493714E+02 -.47511803E+03 0.61376128E+03 0.91188000E+02 0.0000E+00 0.9000E+01
#aMCatNLO 1  0  0  1  2 0.76262207D+02 0.00000000D+00  -5  7  0 0.00000000D+00 0.00000000D+00 0.00000000D+00 0.00000000D+00 0.00000000D+00
  <mgrwgt>
 0.3440047167D-03    9    2    0
 0.510802063309356D+03 0.000000000000000D+00 0.000000000000000D+00 0.510802063309356D+03
 0.510802063309356D+03 0.000000000000000D+00 0.000000000000000D+00 -.510802063309356D+03
 0.147759791028406D+03 0.798405281830063D+02 -.806872893166459D+02 0.251546397896809D+02
 0.417471156384533D+02 -.283718732216091D+02 0.278145681869192D+01 0.304979011079957D+02
 0.429258223896150D+03 -.425493952318364D+03 0.254121186175248D+02 0.507123609226035D+02
 0.402838996055702D+03 0.374025297356967D+03 0.524937138804291D+02 -.106364901820280D+03
 0.000000000000000D+00 -.000000000000000D+00 -.000000000000000D+00 0.000000000000000D+00
 0.650242647489997D+03 0.000000000000000D+00 0.000000000000000D+00 0.650242647489997D+03
 0.522757938427572D+03 0.000000000000000D+00 0.000000000000000D+00 -.522757938427572D+03
 0.144228982396048D+03 0.831274852970277D+02 -.703122557186400D+02 0.251546397896809D+02
 0.414215502812606D+02 -.274356323007601D+02 0.573663106425793D+01 0.304979011079957D+02
 0.422667993699884D+03 -.415903703663571D+03 0.556830191967478D+02 0.507123609226035D+02
 0.416128112395203D+03 0.383244520862382D+03 0.815935014037265D+02 -.106364901820280D+03
 0.148553947145174D+03 -.230326701950795D+02 -.727008959460922D+02 0.127484709062425D+03
0.751961703323D-04 0.000000000000D+00 0.000000000000D+00 0.961760119914D-06 0.000000000000D+00  7 2 -2 23 -13 13 23 21 0 0.36749485D-01 0.16804566D+00 0.24448379D+06 0.24448379D+06 0.24448379D+06 0.10911888D+01  1  2  2  1  7  1        2 0.276519215938D-03 0.100000000000D+01
-.417219007890D-05 0.000000000000D+00 -.288773093682D-06 0.961760119914D-06 0.000000000000D+00  7 2 -2 23 -13 13 23 21 2 0.36749485D-01 0.16804566D+00 0.24448379D+06 0.24448379D+06 0.24448379D+06 0.10911888D+01  1  2  3  1  7  1        2 -.182681050998D-04 0.100000000000D+01
0.470561343034D-05 0.000000000000D+00 0.000000000000D+00 0.961760119914D-06 0.000000000000D+00  7 2 -2 23 -13 13 23 21 2 0.36749485D-01 0.16804566D+00 0.24448379D+06 0.24448379D+06 0.24448379D+06 0.10911888D+01  1  2 15  1  7  1        2 0.206037210862D-04 0.100000000000D+01
0.279317167538D-03 0.000000000000D+00 0.000000000000D+00 0.961760119914D-06 0.000000000000D+00  7 2 -2 23 -13 13 23 21 2 0.47129204D-01 0.16804566D+00 0.28527834D+06 0.28527834D+06 0.28527834D+06 0.10861723D+01  1  2 12  1  7  1        2 0.913667231340D-03 0.100000000000D+01
-.279825537598D-03 0.000000000000D+00 0.000000000000D+00 0.961760119914D-06 0.000000000000D+00  7 2 -2 23 -13 13 23 21 2 0.36749485D-01 0.16804566D+00 0.24448379D+06 0.24448379D+06 0.24448379D+06 0.10911888D+01  1  2  4  1  7  1        2 -.122522757443D-02 0.100000000000D+01
-.362301005213D-03 0.000000000000D+00 -.471315604388D-04 0.961760119914D-06 0.000000000000D+00  7 2 -2 23 -13 13 23 21 2 0.47524193D-01 0.16804566D+00 0.24448379D+06 0.24448379D+06 0.24448379D+06 0.10911888D+01  1  2  5  1  7  1        2 -.119159119486D-02 0.100000000000D+01
0.363842476524D-03 0.000000000000D+00 0.456154630636D-04 0.961760119914D-06 0.000000000000D+00  7 2 -2 23 -13 13 23 21 2 0.36749485D-01 0.16804566D+00 0.24448379D+06 0.24448379D+06 0.24448379D+06 0.10911888D+01  1  2  6  1  7  1        2 0.159309918177D-02 0.100000000000D+01
0.941861314944D-05 0.000000000000D+00 0.000000000000D+00 0.961760119914D-06 0.000000000000D+00  7 21 -2 23 -13 13 23 -2 2 0.47129204D-01 0.16804566D+00 0.28527834D+06 0.28527834D+06 0.28527834D+06 0.10861723D+01  1  2 12  3  7  1        2 0.101771695258D-03 0.100000000000D+01
-.116904764694D-04 0.000000000000D+00 -.162837868355D-05 0.961760119914D-06 0.000000000000D+00  7 21 -2 23 -13 13 23 -2 2 0.47524193D-01 0.16804566D+00 0.24448379D+06 0.24448379D+06 0.24448379D+06 0.10911888D+01  1  2  5  3  7  1        2 -.126569454260D-03 0.100000000000D+01
  </mgrwgt>
  </event>
  <event>
  7     66 0.25765000E-05 0.25334441E+03 0.75467711E-02 0.96579542E-01
        2 -1    0    0  501    0 0.00000000E+00 0.00000000E+00 0.11706157E+04 0.11706158E+04 0.32000000E+00 0.0000E+00 0.9000E+01
       -2 -1    0    0    0  501 0.00000000E+00 0.00000000E+00 -.81872627E+03 0.81872633E+03 0.32000000E+00 0.0000E+00 0.9000E+01
       25  2    1    2    0    0 -.33369407E+03 -.11183344E+03 -.71101720E+03 0.84807822E+03 0.29972112E+03 0.0000E+00 0.0000E+00
       23  1    3    3    0    0 -.14247117E+03 -.12903523E+03 -.52180704E+03 0.56351217E+03 0.91188000E+02 0.0000E+00 0.9000E+01
      -13  1    1    2    0    0 0.34852881E+03 0.11612468E+03 0.82784726E+03 0.90569772E+03 0.10565837E+00 0.0000E+00 0.9000E+01
       13  1    1    2    0    0 -.14834746E+02 -.42912384E+01 0.23505941E+03 0.23556617E+03 0.10565837E+00 0.0000E+00 0.9000E+01
       23  1    3    3    0    0 -.19122290E+03 0.17201782E+02 -.18921016E+03 0.28456605E+03 0.91188000E+02 0.0000E+00 0.9000E+01
#aMCatNLO 1  0  0  2  1 0.36221139D+02 0.00000000D+00  -5  7  0 0.00000000D+00 0.00000000D+00 0.00000000D+00 0.00000000D+00 0.00000000D+00
  <mgrwgt>
 0.1253529454D-02    9    2    0
 0.978986191293583D+03 0.000000000000000D+00 0.000000000000000D+00 0.978986191293583D+03
 0.978986191293583D+03 0.000000000000000D+00 0.000000000000000D+00 -.978986191293583D+03
 0.666320395112858D+03 -.142471173499235D+03 -.129035228699760D+03 -.631442390147753D+03
 0.771426683711719D+03 0.348528799344738D+03 0.116124678175092D+03 0.678337573401700D+03
 0.197094952180499D+03 -.148347214830945D+02 -.429123064277550D+01 0.196489024001654D+03
 0.323130351582090D+03 -.191222904362409D+03 0.172017811674433D+02 -.243384207255602D+03
 0.000000000000000D+00 -.000000000000000D+00 0.000000000000000D+00 -.000000000000000D+00
 0.986771306382977D+03 0.000000000000000D+00 0.000000000000000D+00 0.986771306382977D+03
 0.102221084769631D+04 0.000000000000000D+00 0.000000000000000D+00 -.102221084769631D+04
 0.665910562694444D+03 -.132944620828377D+03 -.136849778521280D+03 -.631442390147753D+03
 0.775181201455325D+03 0.359588324266346D+03 0.107052644304264D+03 0.678337573401700D+03
 0.196966842443980D+03 -.120168538903449D+02 -.660270337113714D+01 0.196489024001654D+03
 0.320248780387668D+03 -.186622211703136D+03 0.134278722581508D+02 -.243384207255602D+03
 0.506747670978670D+02 -.280046378444891D+02 0.229719653300027D+02 -.354395413133299D+02
0.473342484367D-03 0.000000000000D+00 0.000000000000D+00 0.127701169941D-08 0.000000000000D+00  7 2 -2 23 -13 13 23 21 0 0.18009474D+00 0.12595790D+00 0.16326035D+06 0.16326035D+06 0.16326035D+06 0.11046603D+01  1  2  2  2  7  2       -2 0.574473319939D-03 0.100000000000D+01
-.125656710072D-05 0.000000000000D+00 -.181775977391D-05 0.127701169941D-08 0.000000000000D+00  7 2 -2 23 -13 13 23 21 2 0.18009474D+00 0.12595790D+00 0.16326035D+06 0.16326035D+06 0.16326035D+06 0.11046603D+01  1  2  3  2  7  2       -2 -.186096234597D-05 0.100000000000D+01
0.276064288199D-04 0.000000000000D+00 0.000000000000D+00 0.127701169941D-08 0.000000000000D+00  7 2 -2 23 -13 13 23 21 2 0.18009474D+00 0.12595790D+00 0.16326035D+06 0.16326035D+06 0.16326035D+06 0.11046603D+01  1  2 15  2  7  2       -2 0.408848238276D-04 0.100000000000D+01
0.197338141102D-02 0.000000000000D+00 0.000000000000D+00 0.127701169941D-08 0.000000000000D+00  7 2 -2 23 -13 13 23 21 2 0.18009474D+00 0.13200646D+00 0.17839026D+06 0.17839026D+06 0.17839026D+06 0.11016598D+01  1  2 12  2  7  2       -2 0.255939974914D-02 0.100000000000D+01
-.200371301568D-02 0.000000000000D+00 0.000000000000D+00 0.127701169941D-08 0.000000000000D+00  7 2 -2 23 -13 13 23 21 2 0.18009474D+00 0.12595790D+00 0.16326035D+06 0.16326035D+06 0.16326035D+06 0.11046603D+01  1  2  4  2  7  2       -2 -.296747740107D-02 0.100000000000D+01
-.780808803312D-02 0.000000000000D+00 -.113995124374D-02 0.127701169941D-08 0.000000000000D+00  7 2 -2 23 -13 13 23 21 2 0.18009474D+00 0.13211145D+00 0.16326035D+06 0.16326035D+06 0.16326035D+06 0.11046603D+01  1  2  5  2  7  2       -2 -.102117012261D-01 0.100000000000D+01
0.785482016951D-02 0.000000000000D+00 0.113865571014D-02 0.127701169941D-08 0.000000000000D+00  7 2 -2 23 -13 13 23 21 2 0.18009474D+00 0.12595790D+00 0.16326035D+06 0.16326035D+06 0.16326035D+06 0.11046603D+01  1  2  6  2  7  2       -2 0.116329040936D-01 0.100000000000D+01
0.325999779203D-04 0.000000000000D+00 0.000000000000D+00 0.127701169941D-08 0.000000000000D+00  7 2 21 23 -13 13 23 2 2 0.18009474D+00 0.13200646D+00 0.17839026D+06 0.17839026D+06 0.17839026D+06 0.11016598D+01  1  2 12  4  7  2       -2 0.376456803657D-03 0.100000000000D+01
-.641809566212D-04 0.000000000000D+00 -.950384913365D-05 0.127701169941D-08 0.000000000000D+00  7 2 21 23 -13 13 23 2 2 0.18009474D+00 0.13211145D+00 0.16326035D+06 0.16326035D+06 0.16326035D+06 0.11046603D+01  1  2  5  4  7  2       -2 -.749549746975D-03 0.100000000000D+01
  </mgrwgt>
  </event>
  <event>
  7     66 0.25765000E-05 0.16822230E+03 0.75467711E-02 0.99423401E-01
        2 -1    0    0  501    0 0.00000000E+00 0.00000000E+00 0.11919354E+04 0.11919354E+04 0.32000000E+00 0.0000E+00 0.9000E+01
       -2 -1    0    0    0  501 0.00000000E+00 0.00000000E+00 -.10879403E+03 0.10879450E+03 0.32000000E+00 0.0000E+00 0.9000E+01
       25  2    1    2    0    0 -.14510180E+03 -.44470181E+02 0.58712230E+03 0.67681311E+03 0.30055160E+03 0.0000E+00 0.0000E+00
       23  1    3    3    0    0 -.79365729E+01 -.89590767E+02 0.10591832E+03 0.16620300E+03 0.91188000E+02 0.0000E+00 0.9000E+01
      -13  1    1    2    0    0 -.88830094E+02 0.48439479E+02 0.35238680E+02 0.10713984E+03 0.10565837E+00 0.0000E+00 0.9000E+01
       13  1    1    2    0    0 0.23393189E+03 -.39692978E+01 0.46078035E+03 0.51677696E+03 0.10565837E+00 0.0000E+00 0.9000E+01
       23  1    3    3    0    0 -.13716523E+03 0.45120585E+02 0.48120398E+03 0.51061011E+03 0.91188000E+02 0.0000E+00 0.9000E+01
#aMCatNLO 1  0  0  1  2 0.34323266D+02 0.00000000D+00  -5  7  0 0.00000000D+00 0.00000000D+00 0.00000000D+00 0.00000000D+00 0.00000000D+00
  <mgrwgt>
 0.2551403483D-02    9    2    0
 0.360105248098407D+03 0.000000000000000D+00 0.000000000000000D+00 0.360105248098407D+03
 0.360105248098407D+03 0.000000000000000D+00 0.000000000000000D+00 -.360105248098407D+03
 0.140879110173197D+03 -.795715023109283D+01 -.895970672621332D+02 -.586576647797744D+02
 0.140473144086605D+03 -.887905194599057D+02 0.484402894625158D+02 -.974806966553065D+02
 0.240346814237002D+03 0.233941881598654D+03 -.395491854422155D+01 0.549740463061040D+02
 0.198511427700010D+03 -.137194211907656D+03 0.451116963438389D+02 0.101164315128977D+03
 0.000000000000000D+00 0.000000000000000D+00 0.000000000000000D+00 0.000000000000000D+00
 0.402760350400283D+03 0.000000000000000D+00 0.000000000000000D+00 0.402760350400283D+03
 0.367485475653018D+03 0.000000000000000D+00 0.000000000000000D+00 -.367485475653018D+03
 0.145318444143592D+03 -.895554883295623D+01 -.963393760203923D+02 -.586576647797744D+02
 0.138968787559368D+03 -.897653511090557D+02 0.418571312393117D+02 -.974806966553065D+02
 0.239172910460950D+03 0.232269079663476D+03 -.152515560969323D+02 0.549740463061040D+02
 0.197567766735977D+03 -.138575932009688D+03 0.357807702708157D+02 0.101164315128977D+03
 0.492179171534128D+02 0.502775228822412D+01 0.339530306071972D+02 0.352748747472644D+02
0.228579385653D-04 0.000000000000D+00 0.000000000000D+00 0.460790156298D-10 0.000000000000D+00  7 2 -2 23 -13 13 23 21 0 0.18337471D+00 0.16737583D-01 0.10049101D+06 0.10049101D+06 0.10049101D+06 0.11215475D+01  1  2  2  1  7  1        2 0.150464354275D-02 0.100000000000D+01
-.124479196989D-05 0.000000000000D+00 -.877805027242D-07 0.460790156298D-10 0.000000000000D+00  7 2 -2 23 -13 13 23 21 2 0.18337471D+00 0.16737583D-01 0.10049101D+06 0.10049101D+06 0.10049101D+06 0.11215475D+01  1  2  3  1  7  1        2 -.103069152397D-03 0.100000000000D+01
0.146053977672D-05 0.000000000000D+00 0.000000000000D+00 0.460790156298D-10 0.000000000000D+00  7 2 -2 23 -13 13 23 21 2 0.18337471D+00 0.16737583D-01 0.10049101D+06 0.10049101D+06 0.10049101D+06 0.11215475D+01  1  2 15  1  7  1        2 0.120933136195D-03 0.100000000000D+01
0.820971329613D-04 0.000000000000D+00 0.000000000000D+00 0.460790156298D-10 0.000000000000D+00  7 2 -2 23 -13 13 23 21 2 0.20682968D+00 0.16737583D-01 0.11182106D+06 0.11182106D+06 0.11182106D+06 0.11177617D+01  1  2 12  1  7  1        2 0.553843777522D-02 0.100000000000D+01
-.834031553777D-04 0.000000000000D+00 0.000000000000D+00 0.460790156298D-10 0.000000000000D+00  7 2 -2 23 -13 13 23 21 2 0.18337471D+00 0.16737583D-01 0.10049101D+06 0.10049101D+06 0.10049101D+06 0.11215475D+01  1  2  4  1  7  1        2 -.690580654435D-02 0.100000000000D+01
-.153125150629D-03 0.000000000000D+00 -.234713405606D-04 0.460790156298D-10 0.000000000000D+00  7 2 -2 23 -13 13 23 21 2 0.20706024D+00 0.16737583D-01 0.10049101D+06 0.10049101D+06 0.10049101D+06 0.11215475D+01  1  2  5  1  7  1        2 -.103991838235D-01 0.100000000000D+01
0.155003434160D-03 0.000000000000D+00 0.232992165412D-04 0.460790156298D-10 0.000000000000D+00  7 2 -2 23 -13 13 23 21 2 0.18337471D+00 0.16737583D-01 0.10049101D+06 0.10049101D+06 0.10049101D+06 0.11215475D+01  1  2  6  1  7  1        2 0.128343313292D-01 0.100000000000D+01
0.156166227787D-05 0.000000000000D+00 0.000000000000D+00 0.460790156298D-10 0.000000000000D+00  7 21 -2 23 -13 13 23 -2 2 0.20682968D+00 0.16737583D-01 0.11182106D+06 0.11182106D+06 0.11182106D+06 0.11177617D+01  1  2 12  3  7  1        2 0.470276850930D-04 0.100000000000D+01
-.282436586748D-05 0.000000000000D+00 -.449943031229D-06 0.460790156298D-10 0.000000000000D+00  7 21 -2 23 -13 13 23 -2 2 0.20706024D+00 0.16737583D-01 0.10049101D+06 0.10049101D+06 0.10049101D+06 0.11215475D+01  1  2  5  3  7  1        2 -.859104654981D-04 0.100000000000D+01
  </mgrwgt>
  </event>
  <event>
  8     66 0.25765000E-05 0.32969619E+03 0.75467711E-02 0.93941986E-01
        2 -1    0    0  501    0 0.00000000E+00 0.00000000E+00 0.12134662E+04 0.12134663E+04 0.32000000E+00 0.0000E+00 0.9000E+01
       -2 -1    0    0    0  501 0.00000000E+00 0.00000000E+00 -.96977978E+02 0.96978506E+02 0.32000000E+00 0.0000E+00 0.9000E+01
       25  2    1    2    0    0 0.16308845E+03 0.20975024E+03 0.58600507E+03 0.70985330E+03 0.29982789E+03 0.0000E+00 0.0000E+00
       23  2    1    2    0    0 -.16308845E+03 -.20975024E+03 0.53048321E+03 0.60059150E+03 0.93299031E+02 0.0000E+00 0.0000E+00
       23  1    3    3    0    0 -.17051745E+02 -.66500471E+01 0.75643465E+02 0.11988399E+03 0.91188000E+02 0.0000E+00 0.9000E+01
      -13  1    4    4    0    0 -.16538135E+03 -.19586280E+03 0.44168596E+03 0.51068555E+03 0.10565837E+00 0.0000E+00 0.9000E+01
       13  1    4    4    0    0 0.22928988E+01 -.13887442E+02 0.88797245E+02 0.89905953E+02 0.10565837E+00 0.0000E+00 0.9000E+01
       23  1    3    3    0    0 0.18014020E+03 0.21640029E+03 0.51036160E+03 0.58996931E+03 0.91188000E+02 0.0000E+00 0.9000E+01
#aMCatNLO 1  0  0  2  2 0.32683918D+03 0.00000000D+00  -5  7  0 0.00000000D+00 0.00000000D+00 0.00000000D+00 0.00000000D+00 0.00000000D+00
  <mgrwgt>
 0.2960565560D-03    5    2    0
 0.343045007585852D+03 0.000000000000000D+00 0.000000000000000D+00 0.343045007585852D+03
 0.343045007585852D+03 0.000000000000000D+00 0.000000000000000D+00 -.343045007585852D+03
 0.105884510355859D+03 -.170517450511791D+02 -.665004681611572D+01 -.506092190944796D+02
 0.256654695442861D+03 -.165381568541878D+03 -.195863030668514D+03 0.125794553475348D+02
 0.272201939012739D+02 0.229311316617959D+01 -.138872092837996D+02 0.232986267049797D+02
 0.296330615471711D+03 0.180140200426877D+03 0.216400286768429D+03 0.147311370419651D+02
 0.000000000000000D+00 -.000000000000000D+00 -.000000000000000D+00 -.000000000000000D+00
 0.530917625547420D+03 0.000000000000000D+00 0.000000000000000D+00 0.530917625547420D+03
 0.556916739814576D+03 0.000000000000000D+00 0.000000000000000D+00 -.556916739814576D+03
 0.108748431405486D+03 0.307841336933411D+02 0.141917037427553D+01 -.506092190944796D+02
 0.191082424098484D+03 -.655930720322620D+02 -.179030162274078D+03 0.125794553475348D+02
 0.301278159410067D+02 0.150744337898572D+02 -.117311863403663D+02 0.232986267049797D+02
 0.430004064650404D+03 0.342020559523361D+03 0.243707149539455D+03 0.147311370419651D+02
 0.327871629266615D+03 -.322286054974297D+03 -.543649712992863D+02 -.259991142671556D+02
0.361560044931D-05 0.000000000000D+00 0.000000000000D+00 0.165319928327D-06 0.000000000000D+00  7 2 -2 23 -13 13 23 21 0 0.18668716D+00 0.14919733D-01 0.10869957D+06 0.10869957D+06 0.10869957D+06 0.11187612D+01  1  2  2  2  7  2       -2 0.278138157241D-03 0.100000000000D+01
-.200481964099D-06 0.000000000000D+00 -.138848577348D-07 0.165319928327D-06 0.000000000000D+00  7 2 -2 23 -13 13 23 21 2 0.18668716D+00 0.14919733D-01 0.10869957D+06 0.10869957D+06 0.10869957D+06 0.11187612D+01  1  2  3  2  7  2       -2 -.193032413925D-04 0.100000000000D+01
0.233407217642D-06 0.000000000000D+00 0.000000000000D+00 0.165319928327D-06 0.000000000000D+00  7 2 -2 23 -13 13 23 21 2 0.18668716D+00 0.14919733D-01 0.10869957D+06 0.10869957D+06 0.10869957D+06 0.11187612D+01  1  2 15  2  7  2       -2 0.224734224106D-04 0.100000000000D+01
0.632598516613D-08 0.000000000000D+00 -.110621751862D-05 0.165319928327D-06 0.000000000000D+00  7 2 -2 23 -13 13 23 21 2 0.18668716D+00 0.38476765D-01 0.10869957D+06 0.10869957D+06 0.10869957D+06 0.11187612D+01  1  2  5  2  7  2       -2 0.121143447981D-06 0.100000000000D+01
0.677079113157D-07 0.000000000000D+00 -.115953079521D-06 0.165319928327D-06 0.000000000000D+00  7 2 21 23 -13 13 23 2 2 0.18668716D+00 0.38476765D-01 0.10869957D+06 0.10869957D+06 0.10869957D+06 0.11187612D+01  1  2  5  4  7  2       -2 0.146270742887D-04 0.100000000000D+01
  </mgrwgt>
  </event>
  <event>
  8     66 0.25765000E-05 0.27325677E+03 0.75467711E-02 0.88516602E-01
        2 -1    0    0  501    0 0.00000000E+00 0.00000000E+00 0.36266607E+03 0.36266621E+03 0.32000000E+00 0.0000E+00 0.9000E+01
       -2 -1    0    0    0  501 0.00000000E+00 0.00000000E+00 -.11517377E+04 0.11517378E+04 0.32000000E+00 0.0000E+00 0.9000E+01
       25  2    1    2    0    0 0.19192962E+02 0.59804553E+03 -.27941532E+03 0.72378331E+03 0.29624741E+03 0.0000E+00 0.0000E+00
       23  2    1    2    0    0 -.19192962E+02 -.59804553E+03 -.50965634E+03 0.79062069E+03 0.85467292E+02 0.0000E+00 0.0000E+00
       23  1    3    3    0    0 0.71344546E+02 0.16332299E+03 -.17174013E+03 0.26376953E+03 0.91188000E+02 0.0000E+00 0.9000E+01
      -13  1    4    4    0    0 -.68866058E+01 -.54368314E+03 -.48870354E+03 0.73107451E+03 0.10565837E+00 0.0000E+00 0.9000E+01
       13  1    4    4    0    0 -.12306356E+02 -.54362387E+02 -.20952802E+02 0.59546172E+02 0.10565837E+00 0.0000E+00 0.9000E+01
       23  1    3    3    0    0 -.52151584E+02 0.43472254E+03 -.10767519E+03 0.46001378E+03 0.91188000E+02 0.0000E+00 0.9000E+01
#aMCatNLO 1  0  0  2  1 0.45494909D+03 0.00000000D+00  -5  7  0 0.00000000D+00 0.00000000D+00 0.00000000D+00 0.00000000D+00 0.00000000D+00
  <mgrwgt>
 0.9962046817D-03    8    2    0
 0.646294316623005D+03 0.000000000000000D+00 0.000000000000000D+00 0.646294316623005D+03
 0.646294316623005D+03 0.000000000000000D+00 0.000000000000000D+00 -.646294316623005D+03
 0.204193628866010D+03 0.713445456294564D+02 0.163322987724381D+03 -.401913450282251D+02
 0.558198505344971D+03 -.688659756081397D+01 -.543683892109398D+03 -.126277359824205D+03
 0.569730434126528D+02 -.123063644872271D+02 -.543616390731453D+02 0.118022568218379D+02
 0.473223455622376D+03 -.521515835814153D+02 0.434722543458162D+03 0.154666448030592D+03
 0.000000000000000D+00 -.000000000000000D+00 0.000000000000000D+00 -.000000000000000D+00
 0.835302463176645D+03 0.000000000000000D+00 0.000000000000000D+00 0.835302463176645D+03
 0.102978940967783D+04 0.000000000000000D+00 0.000000000000000D+00 -.102978940967783D+04
 0.223932895358006D+03 0.141379109304279D+03 0.142222689879535D+03 -.401913450282251D+02
 0.644646019117246D+03 0.189879280451647D+03 -.602966315157577D+03 -.126277359824205D+03
 0.617712372578250D+02 0.711827616242865D+01 -.602139737166490D+02 0.118022568218379D+02
 0.439965158472576D+03 0.972312799467792D+02 0.389715867497476D+03 0.154666448030592D+03
 0.494776562648822D+03 -.435607945865134D+03 0.131241731497215D+03 -.194486946501186D+03
0.324661284457D-03 0.000000000000D+00 0.000000000000D+00 0.269354599531D-08 0.000000000000D+00  7 2 -2 23 -13 13 23 21 0 0.55794795D-01 0.17719044D+00 0.38868888D+06 0.38868888D+06 0.38868888D+06 0.10763269D+01  1  2  2  2  7  2       -2 0.632164098593D-03 0.100000000000D+01
-.180083360437D-04 0.000000000000D+00 -.124678481760D-05 0.269354599531D-08 0.000000000000D+00  7 2 -2 23 -13 13 23 21 2 0.55794795D-01 0.17719044D+00 0.38868888D+06 0.38868888D+06 0.38868888D+06 0.10763269D+01  1  2  3  2  7  2       -2 -.406219962009D-04 0.100000000000D+01
0.200733574944D-04 0.000000000000D+00 0.000000000000D+00 0.269354599531D-08 0.000000000000D+00  7 2 -2 23 -13 13 23 21 2 0.55794795D-01 0.17719044D+00 0.38868888D+06 0.38868888D+06 0.38868888D+06 0.10763269D+01  1  2 15  2  7  2       -2 0.452801330394D-04 0.100000000000D+01
0.202736719128D-04 0.000000000000D+00 0.000000000000D+00 0.269354599531D-08 0.000000000000D+00  7 2 -2 23 -13 13 23 21 2 0.55794795D-01 0.29583893D+00 0.79202794D+06 0.79202794D+06 0.79202794D+06 0.10546717D+01  1  2 12  2  7  2       -2 0.688415446057D-05 0.100000000000D+01
-.137876772609D-03 0.000000000000D+00 -.903694972659D-04 0.269354599531D-08 0.000000000000D+00  7 2 -2 23 -13 13 23 21 2 0.55794795D-01 0.32083152D+00 0.38868888D+06 0.38868888D+06 0.38868888D+06 0.10763269D+01  1  2  5  2  7  2       -2 -.350149942686D-04 0.100000000000D+01
0.173858466868D-03 0.000000000000D+00 0.764888913715D-04 0.269354599531D-08 0.000000000000D+00  7 2 -2 23 -13 13 23 21 2 0.55794795D-01 0.17719044D+00 0.38868888D+06 0.38868888D+06 0.38868888D+06 0.10763269D+01  1  2  6  2  7  2       -2 0.392178264747D-03 0.100000000000D+01
0.116597317905D-05 0.000000000000D+00 0.000000000000D+00 0.269354599531D-08 0.000000000000D+00  7 2 21 23 -13 13 23 2 2 0.55794795D-01 0.29583893D+00 0.79202794D+06 0.79202794D+06 0.79202794D+06 0.10546717D+01  1  2 12  4  7  2       -2 0.275941973684D-05 0.100000000000D+01
-.411914476857D-05 0.000000000000D+00 -.587666899084D-05 0.269354599531D-08 0.000000000000D+00  7 2 21 23 -13 13 23 2 2 0.55794795D-01 0.32083152D+00 0.38868888D+06 0.38868888D+06 0.38868888D+06 0.10763269D+01  1  2  5  4  7  2       -2 -.742439844879D-05 0.100000000000D+01
  </mgrwgt>
  </event>
  <event>
  8     66 0.25765000E-05 0.41600470E+03 0.75467711E-02 0.83613703E-01
        2 -1    0    0  501    0 0.00000000E+00 0.00000000E+00 0.35288511E+04 0.35288511E+04 0.32000000E+00 0.0000E+00 0.9000E+01
       -2 -1    0    0    0  501 0.00000000E+00 0.00000000E+00 -.55851364E+03 0.55851373E+03 0.32000000E+00 0.0000E+00 0.9000E+01
       25  2    1    2    0    0 -.35529053E+03 -.65015998E+02 -.44901296E+03 0.64778803E+03 0.29590244E+03 0.0000E+00 0.0000E+00
       23  2    1    2    0    0 0.35529053E+03 0.65015998E+02 0.34193504E+04 0.34395768E+04 0.90955923E+02 0.0000E+00 0.0000E+00
       23  1    3    3    0    0 -.27881358E+03 0.54370675E+02 -.28533933E+03 0.41282802E+03 0.91188000E+02 0.0000E+00 0.9000E+01
      -11  1    4    4    0    0 0.30267224E+03 0.74307829E+02 0.26261169E+04 0.26445457E+04 0.51099893E-03 0.0000E+00 0.9000E+01
       11  1    4    4    0    0 0.52618292E+02 -.92918309E+01 0.79323351E+03 0.79503108E+03 0.51099893E-03 0.0000E+00 0.9000E+01
       23  1    3    3    0    0 -.76476951E+02 -.11938667E+03 -.16367363E+03 0.23496001E+03 0.91188000E+02 0.0000E+00 0.9000E+01
#aMCatNLO 1  0  0  1  2 0.14551654D+04 0.00000000D+00  -5  7  0 0.00000000D+00 0.00000000D+00 0.00000000D+00 0.00000000D+00 0.00000000D+00
  <mgrwgt>
 0.2797870636D-03    6    2    0
 0.140389162167024D+04 0.000000000000000D+00 0.000000000000000D+00 0.140389162167024D+04
 0.140389162167024D+04 0.000000000000000D+00 0.000000000000000D+00 -.140389162167024D+04
 0.902823540696798D+03 -.278813582313881D+03 0.543706745337673D+02 -.852104401091994D+03
 0.107158194797782D+04 0.302672241296219D+03 0.743078285419506D+02 0.102525886106780D+04
 0.318190835954665D+03 0.526182923374143D+02 -.929183087473292D+01 0.313672417142500D+03
 0.515186918711207D+03 -.764769513197525D+02 -.119386672200985D+03 -.486826877118303D+03
 0.000000000000000D+00 0.000000000000000D+00 0.000000000000000D+00 0.000000000000000D+00
 0.233474062284978D+04 0.000000000000000D+00 0.000000000000000D+00 0.233474062284978D+04
 0.228377695090625D+04 0.000000000000000D+00 0.000000000000000D+00 -.228377695090625D+04
 0.110846168204232D+04 -.651629801741701D+03 -.263948366795123D+03 -.852104401091994D+03
 0.106264182127277D+04 -.929321354820236D+02 -.263468264340575D+03 0.102525886106780D+04
 0.340772430553588D+03 -.695285772283252D+02 -.113583630413833D+03 0.313672417142500D+03
 0.650584050132455D+03 -.292566802927724D+03 -.303889145055627D+03 -.486826877118303D+03
 0.145605758975489D+04 0.110665731737977D+04 0.944889406605158D+03 0.509636719435324D+02
0.209699467089D-02 0.000000000000D+00 0.000000000000D+00 0.287998238820D-06 0.000000000000D+00  7 2 -2 23 -11 11 23 21 0 0.54290017D+00 0.85925184D-01 0.17305991D+06 0.17305991D+06 0.17305991D+06 0.11026840D+01  1  2  2  1  7  1        2 0.265419825084D-03 0.100000000000D+01
0.930526828066D-04 0.000000000000D+00 -.805301168759D-05 0.287998238820D-06 0.000000000000D+00  7 2 -2 23 -11 11 23 21 2 0.54290017D+00 0.85925184D-01 0.17305991D+06 0.17305991D+06 0.17305991D+06 0.11026840D+01  1  2  3  1  7  1        2 0.143207936908D-04 0.100000000000D+01
0.127237386737D-03 0.000000000000D+00 0.000000000000D+00 0.287998238820D-06 0.000000000000D+00  7 2 -2 23 -11 11 23 21 2 0.54290017D+00 0.85925184D-01 0.17305991D+06 0.17305991D+06 0.17305991D+06 0.11026840D+01  1  2 15  1  7  1        2 0.195818144115D-04 0.100000000000D+01
0.376658915842D-03 0.000000000000D+00 -.379496287986D-03 0.287998238820D-06 0.000000000000D+00  7 2 -2 23 -11 11 23 21 2 0.92494932D+00 0.85925184D-01 0.17305991D+06 0.17305991D+06 0.17305991D+06 0.11026840D+01  1  2  5  1  7  1        2 0.203456716058D-07 0.100000000000D+01
-.127067833484D-03 0.000000000000D+00 0.358199723597D-03 0.287998238820D-06 0.000000000000D+00  7 2 -2 23 -11 11 23 21 2 0.54290017D+00 0.85925184D-01 0.17305991D+06 0.17305991D+06 0.17305991D+06 0.11026840D+01  1  2  6  1  7  1        2 -.195557201918D-04 0.100000000000D+01
0.406934084039D-04 0.000000000000D+00 -.225208498996D-04 0.287998238820D-06 0.000000000000D+00  7 21 -2 23 -11 11 23 -2 2 0.92494932D+00 0.85925184D-01 0.17305991D+06 0.17305991D+06 0.17305991D+06 0.11026840D+01  1  2  5  3  7  1        2 0.492491825714D-11 0.100000000000D+01
  </mgrwgt>
  </event>
  <event>
  9     66 0.25765000E-05 0.29170466E+03 0.75467711E-02 0.10002458E+00
        2 -1    0    0  501    0 0.00000000E+00 0.00000000E+00 0.10415609E+04 0.10415609E+04 0.32000000E+00 0.0000E+00 0.9000E+01
       -2 -1    0    0    0  502 0.00000000E+00 0.00000000E+00 -.18168753E+03 0.18168781E+03 0.32000000E+00 0.0000E+00 0.9000E+01
       25  2    1    2    0    0 -.14704346E+03 -.16722637E+03 0.68561682E+02 0.38048740E+03 0.30080479E+03 0.0000E+00 0.0000E+00
       23  2    1    2    0    0 0.17908150E+03 0.12313100E+03 0.65685297E+03 0.69767329E+03 0.89781828E+02 0.0000E+00 0.0000E+00
       23  1    3    3    0    0 -.59070604E+02 0.45506951E+02 -.15916335E+02 0.11886463E+03 0.91188000E+02 0.0000E+00 0.9000E+01
      -13  1    4    4    0    0 0.42073696E+02 0.21961465E+02 0.57317980E+02 0.74416825E+02 0.10565837E+00 0.0000E+00 0.9000E+01
       13  1    4    4    0    0 0.13700780E+03 0.10116953E+03 0.59953499E+03 0.62325647E+03 0.10565837E+00 0.0000E+00 0.9000E+01
       23  1    3    3    0    0 -.87972851E+02 -.21273332E+03 0.84478017E+02 0.26162277E+03 0.91188000E+02 0.0000E+00 0.9000E+01
       21  1    1    2  501  502 -.32038044E+02 0.44095369E+02 0.13445869E+03 0.14508805E+03 0.75000000E+00 0.0000E+00 0.9000E+01
#aMCatNLO 2  0  0  2  1 0.54505393D+02 0.00000000D+00  -5  7  0 0.00000000D+00 0.00000000D+00 0.00000000D+00 0.00000000D+00 0.00000000D+00
  <mgrwgt>
 0.6719063548D-04    1    2    0
 0.397879763614179D+03 0.000000000000000D+00 0.000000000000000D+00 0.397879763614179D+03
 0.397879763614179D+03 0.000000000000000D+00 0.000000000000000D+00 -.397879763614179D+03
 0.180456859871610D+03 -.662206960819114D+02 0.553479363744003D+02 -.129618101668880D+03
 0.480976429830341D+02 0.401320654102540D+02 0.246335257481849D+02 0.979744842517790D+01
 0.297993394977189D+03 0.125040285660428D+03 0.117641244762435D+03 0.243568322946015D+03
 0.269211629396525D+03 -.989516549887709D+02 -.197622706885020D+03 -.123747669702313D+03
 0.000000000000000D+00 -.000000000000000D+00 0.000000000000000D+00 0.000000000000000D+00
 0.460624127316582D+03 0.000000000000000D+00 0.000000000000000D+00 0.460624127316582D+03
 0.410827601387760D+03 0.000000000000000D+00 0.000000000000000D+00 -.410827601387760D+03
 0.175146574220937D+03 -.590706042627352D+02 0.455069505583632D+02 -.129618101668880D+03
 0.484610765874913D+02 0.420735644079596D+02 0.219613552947889D+02 0.979744842517790D+01
 0.297206996535507D+03 0.137007935694477D+03 0.101169641709659D+03 0.243568322946015D+03
 0.276809363746616D+03 -.879728514624946D+02 -.212733317001855D+03 -.123747669702313D+03
 0.738277176137893D+02 -.320380443772065D+02 0.440953694390438D+02 0.497965259288217D+02
0.156514545989D-05 0.000000000000D+00 0.000000000000D+00 0.229085175886D-06 0.521978738245D-09  7 2 -2 23 -13 13 23 21 2 0.16023943D+00 0.27951826D-01 0.10165934D+06 0.10165934D+06 0.10165934D+06 0.11211360D+01  1  2  1  2  7  2       -2 0.671906354769D-04 0.100000000000D+01
  </mgrwgt>
  </event>
  <event>
  8     66 0.25765000E-05 0.15574476E+03 0.75467711E-02 0.99837716E-01
        2 -1    0    0  501    0 0.00000000E+00 0.00000000E+00 0.39333100E+03 0.39333113E+03 0.32000000E+00 0.0000E+00 0.9000E+01
       -2 -1    0    0    0  501 0.00000000E+00 0.00000000E+00 -.11105342E+03 0.11105388E+03 0.32000000E+00 0.0000E+00 0.9000E+01
       25  2    1    2    0    0 -.47362970E+02 0.35566260E+01 0.26427767E+03 0.40293860E+03 0.30043457E+03 0.0000E+00 0.0000E+00
       23  2    1    2    0    0 0.47362970E+02 -.35566260E+01 0.17999902E+02 0.10144640E+03 0.87815010E+02 0.0000E+00 0.0000E+00
       23  1    3    3    0    0 -.11120458E+03 0.34016525E+02 0.43885036E+02 0.15415813E+03 0.91188000E+02 0.0000E+00 0.9000E+01
      -11  1    4    4    0    0 0.24201434E+02 0.25894884E+01 0.53407442E+02 0.58692160E+02 0.51099893E-03 0.0000E+00 0.9000E+01
       11  1    4    4    0    0 0.23161537E+02 -.61461144E+01 -.35407540E+02 0.42754244E+02 0.51099893E-03 0.0000E+00 0.9000E+01
       23  1    3    3    0    0 0.63841610E+02 -.30459899E+02 0.22039264E+03 0.24878047E+03 0.91188000E+02 0.0000E+00 0.9000E+01
#aMCatNLO 1  0  0  1  1 0.25791773D+03 0.00000000D+00  -5  7  0 0.00000000D+00 0.00000000D+00 0.00000000D+00 0.00000000D+00 0.00000000D+00
  <mgrwgt>
 0.6708171510D-03    3    2    0
 0.208999765519162D+03 0.000000000000000D+00 0.000000000000000D+00 0.208999765519162D+03
 0.208999765519162D+03 0.000000000000000D+00 0.000000000000000D+00 -.208999765519162D+03
 0.156381252857204D+03 -.111204580497035D+03 0.340165247361466D+02 -.511494107741478D+02
 0.347553563338425D+02 0.242014337706468D+02 0.258948835266232D+01 0.248096744720439D+02
 0.755009326669604D+02 0.231615369590169D+02 -.614611442190792D+01 -.715972018782144D+02
 0.151361989180318D+03 0.638416097673710D+02 -.304598986669010D+02 0.979369381803183D+02
 0.000000000000000D+00 0.000000000000000D+00 -.000000000000000D+00 -.000000000000000D+00
 0.335313136425794D+03 0.000000000000000D+00 0.000000000000000D+00 0.335313136425794D+03
 0.430922574542506D+03 0.000000000000000D+00 0.000000000000000D+00 -.430922574542506D+03
 0.236353520560680D+03 -.167135298200226D+03 0.130373560242891D+03 -.511494107741478D+02
 0.347243577775447D+02 0.143065873269693D+02 0.196362581646794D+02 0.248096744720439D+02
 0.782625444821559D+02 0.126354825115805D+01 0.315795819771040D+02 -.715972018782144D+02
 0.141826718882770D+03 0.220875915995129D+02 0.414736215232032D+02 0.979369381803183D+02
 0.275068569265150D+03 0.129477571022586D+03 -.223063021907877D+03 -.956094381167126D+02
0.268034387302D-05 0.000000000000D+00 0.000000000000D+00 0.107572747948D-07 0.000000000000D+00  7 2 -2 23 -11 11 23 21 0 0.60512506D-01 0.17085187D-01 0.24256431D+05 0.24256431D+05 0.24256431D+05 0.11759972D+01  1  2  2  1  7  1        2 0.658942628875D-03 0.100000000000D+01
-.133246516404D-06 0.000000000000D+00 -.102932262231D-07 0.107572747948D-07 0.000000000000D+00  7 2 -2 23 -11 11 23 21 2 0.60512506D-01 0.17085187D-01 0.24256431D+05 0.24256431D+05 0.24256431D+05 0.11759972D+01  1  2  3  1  7  1        2 -.453028523914D-04 0.100000000000D+01
0.168172324133D-06 0.000000000000D+00 0.000000000000D+00 0.107572747948D-07 0.000000000000D+00  7 2 -2 23 -11 11 23 21 2 0.60512506D-01 0.17085187D-01 0.24256431D+05 0.24256431D+05 0.24256431D+05 0.11759972D+01  1  2 15  1  7  1        2 0.571773745546D-04 0.100000000000D+01
  </mgrwgt>
  </event>
  <event>
  8     66 0.25765000E-05 0.86942986E+02 0.75467711E-02 0.10698026E+00
        2 -1    0    0  501    0 0.00000000E+00 0.00000000E+00 0.20098965E+04 0.20098966E+04 0.32000000E+00 0.0000E+00 0.9000E+01
       -2 -1    0    0    0  501 0.00000000E+00 0.00000000E+00 -.35216334E+02 0.35217788E+02 0.32000000E+00 0.0000E+00 0.9000E+01
       25  2    1    2    0    0 0.40391269E+01 0.12062839E+03 0.83565554E+03 0.89600107E+03 0.29988367E+03 0.0000E+00 0.0000E+00
       23  2    1    2    0    0 -.40391269E+01 -.12062839E+03 0.11390247E+04 0.11491133E+04 0.92285558E+02 0.0000E+00 0.0000E+00
       23  1    3    3    0    0 0.17289472E+02 0.77972870E+02 0.11130549E+03 0.16456870E+03 0.91188000E+02 0.0000E+00 0.9000E+01
      -11  1    4    4    0    0 0.23396129E+02 -.42618077E+01 0.82916540E+02 0.86259460E+02 0.51099893E-03 0.0000E+00 0.9000E+01
       11  1    4    4    0    0 -.27435256E+02 -.11636658E+03 0.10561081E+04 0.10628538E+04 0.51099893E-03 0.0000E+00 0.9000E+01
       23  1    3    3    0    0 -.13250345E+02 0.42655516E+02 0.72435005E+03 0.73143237E+03 0.91188000E+02 0.0000E+00 0.9000E+01
#aMCatNLO 1  0  0  1  2 0.16403192D+02 0.00000000D+00  -5  7  0 0.00000000D+00 0.00000000D+00 0.00000000D+00 0.00000000D+00 0.00000000D+00
  <mgrwgt>
 0.5117485824D-03    9    2    0
 0.266050186616067D+03 0.000000000000000D+00 0.000000000000000D+00 0.266050186616067D+03
 0.266050186616067D+03 0.000000000000000D+00 0.000000000000000D+00 -.266050186616067D+03
 0.219449325950595D+03 0.172894717390122D+02 0.779728696160861D+02 -.182931848203065D+03
 0.238240952112970D+02 0.233961291857826D+02 -.426180769182050D+01 -.143026114994915D+01
 0.165723990063697D+03 -.274352561216499D+02 -.116366577603378D+03 0.114763091719633D+03
 0.123102962006546D+03 -.132503448031449D+02 0.426555156791122D+02 0.695990176333817D+02
 0.000000000000000D+00 0.000000000000000D+00 0.000000000000000D+00 0.000000000000000D+00
 0.276023055007010D+03 0.000000000000000D+00 0.000000000000000D+00 0.276023055007010D+03
 0.273008065973159D+03 0.000000000000000D+00 0.000000000000000D+00 -.273008065973159D+03
 0.217804780477094D+03 0.116229057531505D+02 0.743271015817180D+02 -.182931848203065D+03
 0.232999532075295D+02 0.227854281632860D+02 -.465472189628386D+01 -.143026114994915D+01
 0.168454936219355D+03 -.317660260538940D+02 -.119152918152940D+03 0.114763091719633D+03
 0.122793475939605D+03 -.164370236034745D+02 0.406052630684433D+02 0.695990176333817D+02
 0.166779751365855D+02 0.137947157409320D+02 0.887527539906287D+01 0.301498903385040D+01
0.122831600827D-05 0.000000000000D+00 0.000000000000D+00 0.255964657218D-06 0.000000000000D+00  7 2 -2 23 -11 11 23 21 0 0.30921497D+00 0.54180114D-02 0.33506648D+05 0.33506648D+05 0.33506648D+05 0.11629075D+01  1  2  2  1  7  1        2 0.168205334661D-03 0.100000000000D+01
-.566383291302D-07 0.000000000000D+00 -.471705689479D-08 0.255964657218D-06 0.000000000000D+00  7 2 -2 23 -11 11 23 21 2 0.30921497D+00 0.54180114D-02 0.33506648D+05 0.33506648D+05 0.33506648D+05 0.11629075D+01  1  2  3  1  7  1        2 -.104889123313D-04 0.100000000000D+01
0.768012166687D-07 0.000000000000D+00 0.000000000000D+00 0.255964657218D-06 0.000000000000D+00  7 2 -2 23 -11 11 23 21 2 0.30921497D+00 0.54180114D-02 0.33506648D+05 0.33506648D+05 0.33506648D+05 0.11629075D+01  1  2 15  1  7  1        2 0.142228988911D-04 0.100000000000D+01
0.267891734990D-05 0.000000000000D+00 0.000000000000D+00 0.255964657218D-06 0.000000000000D+00  7 2 -2 23 -11 11 23 21 2 0.32472069D+00 0.54180114D-02 0.36548540D+05 0.36548540D+05 0.36548540D+05 0.11594626D+01  1  2 12  1  7  1        2 0.435713307116D-03 0.100000000000D+01
-.231340911995D-05 0.000000000000D+00 0.000000000000D+00 0.255964657218D-06 0.000000000000D+00  7 2 -2 23 -11 11 23 21 2 0.30921497D+00 0.54180114D-02 0.33506648D+05 0.33506648D+05 0.33506648D+05 0.11629075D+01  1  2  4  1  7  1        2 -.428422692164D-03 0.100000000000D+01
-.146591362141D-04 0.000000000000D+00 -.252909593476D-05 0.255964657218D-06 0.000000000000D+00  7 2 -2 23 -11 11 23 21 2 0.32479202D+00 0.54180114D-02 0.33506648D+05 0.33506648D+05 0.33506648D+05 0.11629075D+01  1  2  5  1  7  1        2 -.239950694327D-02 0.100000000000D+01
0.147686476881D-04 0.000000000000D+00 0.252604441865D-05 0.255964657218D-06 0.000000000000D+00  7 2 -2 23 -11 11 23 21 2 0.30921497D+00 0.54180114D-02 0.33506648D+05 0.33506648D+05 0.33506648D+05 0.11629075D+01  1  2  6  1  7  1        2 0.273502155221D-02 0.100000000000D+01
0.324600983155D-07 0.000000000000D+00 0.000000000000D+00 0.255964657218D-06 0.000000000000D+00  7 21 -2 23 -11 11 23 -2 2 0.32472069D+00 0.54180114D-02 0.36548540D+05 0.36548540D+05 0.36548540D+05 0.11594626D+01  1  2 12  3  7  1        2 0.105177745883D-05 0.100000000000D+01
-.123514255988D-06 0.000000000000D+00 -.216809380406D-07 0.255964657218D-06 0.000000000000D+00  7 21 -2 23 -11 11 23 -2 2 0.32479202D+00 0.54180114D-02 0.33506648D+05 0.33506648D+05 0.33506648D+05 0.11629075D+01  1  2  5  3  7  1        2 -.404774018323D-05 0.100000000000D+01
  </mgrwgt>
  </event>
  <event>
  9     66 0.25765000E-05 0.21987803E+03 0.75467711E-02 0.10011605E+00
        2 -1    0    0  501    0 0.00000000E+00 0.00000000E+00 0.25707359E+03 0.25707379E+03 0.32000000E+00 0.0000E+00 0.9000E+01
       21 -1    0    0  502  501 0.00000000E+00 0.00000000E+00 -.43510459E+03 0.43510523E+03 0.75000000E+00 0.0000E+00 0.9000E+01
       25  2    1    2    0    0 0.16184823E+02 0.40094768E+02 -.72184349E+02 0.31013244E+03 0.29849960E+03 0.0000E+00 0.0000E+00
       23  2    1    2    0    0 -.15535427E+03 0.47725314E+02 -.33762325E+01 0.18818893E+03 0.94820984E+02 0.0000E+00 0.0000E+00
       23  1    3    3    0    0 0.90005830E+01 -.85682188E+02 0.23361283E+02 0.12760662E+03 0.91188000E+02 0.0000E+00 0.9000E+01
      -11  1    4    4    0    0 -.11126633E+03 -.13550117E+02 0.52406000E+01 0.11221081E+03 0.51099893E-03 0.0000E+00 0.9000E+01
       11  1    4    4    0    0 -.44087944E+02 0.61275431E+02 -.86168324E+01 0.75978123E+02 0.51099893E-03 0.0000E+00 0.9000E+01
       23  1    3    3    0    0 0.71842405E+01 0.12577696E+03 -.95545631E+02 0.18252582E+03 0.91188000E+02 0.0000E+00 0.9000E+01
        2  1    1    2  502    0 0.13916945E+03 -.87820082E+02 -.10247041E+03 0.19385766E+03 0.32000000E+00 0.0000E+00 0.9000E+01
#aMCatNLO 2  0  0  2  1 0.16456155D+03 0.00000000D+00  -5  7  0 0.00000000D+00 0.00000000D+00 0.00000000D+00 0.00000000D+00 0.00000000D+00
  <mgrwgt>
 0.2726304863D-04    2    2    0
 0.232128349499659D+03 0.000000000000000D+00 0.000000000000000D+00 0.232128349499659D+03
 0.232128349499659D+03 0.000000000000000D+00 0.000000000000000D+00 -.232128349499659D+03
 0.159677866475413D+03 0.515246485220070D+02 -.112516143592900D+03 0.432099262184702D+02
 0.905062339374835D+02 -.814731650174984D+02 -.323504939086645D+02 0.225154903886951D+02
 0.553433492118693D+02 -.250501517689901D+02 0.492620140221566D+02 0.293771557818545D+01
 0.158729249374552D+03 0.549986682644815D+02 0.956046234794074D+02 -.686631321853508D+02
 0.000000000000000D+00 0.000000000000000D+00 -.000000000000000D+00 -.000000000000000D+00
 0.299517308005865D+03 0.000000000000000D+00 0.000000000000000D+00 0.299517308005865D+03
 0.373447844643092D+03 0.000000000000000D+00 0.000000000000000D+00 -.373447844643092D+03
 0.132683069388397D+03 0.900058354645642D+01 -.856821879409239D+02 0.432099262184702D+02
 0.114327377782656D+03 -.111266330743378D+03 -.135501160924825D+02 0.225154903886951D+02
 0.755450556439375D+02 -.440879449549691D+02 0.612754303866967D+02 0.293771557818545D+01
 0.170003920498811D+03 0.718424109413809D+01 0.125776955756468D+03 -.686631321853508D+02
 0.180405729335155D+03 0.139169451057753D+03 -.878200821097578D+02 -.739305366372268D+02
-.298650575690D-08 0.000000000000D+00 0.000000000000D+00 0.111798251958D-08 0.000000000000D+00  7 2 21 23 -11 11 23 2 2 0.30651441D-01 0.70010479D-01 0.10020662D+06 0.10020662D+06 0.10020662D+06 0.11216485D+01  1  2 13  4  7  2       -2 -.153112057518D-05 0.100000000000D+01
0.673435865453D-07 0.000000000000D+00 0.000000000000D+00 0.111798251958D-08 0.372852645250D-13  7 2 21 23 -11 11 23 2 2 0.39549831D-01 0.66939203D-01 0.10020662D+06 0.10020662D+06 0.10020662D+06 0.11216485D+01  1  2  1  4  7  2       -2 0.287941692078D-04 0.100000000000D+01
  </mgrwgt>
  </event>
  <event>
  8     66 0.25765000E-05 0.24725091E+03 0.75467711E-02 0.10072953E+00
        2 -1    0    0  501    0 0.00000000E+00 0.00000000E+00 0.23761183E+04 0.23761183E+04 0.32000000E+00 0.0000E+00 0.9000E+01
       -2 -1    0    0    0  501 0.00000000E+00 0.00000000E+00 -.34685704E+02 0.34687180E+02 0.32000000E+00 0.0000E+00 0.9000E+01
       25  2    1    2    0    0 0.16990887E+03 0.51585111E+02 0.18048568E+04 0.18383450E+04 0.30078923E+03 0.0000E+00 0.0000E+00
       23  2    1    2    0    0 -.16990887E+03 -.51585111E+02 0.53657577E+03 0.57246049E+03 0.90925299E+02 0.0000E+00 0.0000E+00
       23  1    3    3    0    0 -.12997566E+02 0.29940559E+02 0.22208466E+03 0.24228541E+03 0.91188000E+02 0.0000E+00 0.9000E+01
      -13  1    4    4    0    0 -.98197335E+01 -.28796793E+02 0.15627706E+03 0.15921122E+03 0.10565837E+00 0.0000E+00 0.9000E+01
       13  1    4    4    0    0 -.16008914E+03 -.22788318E+02 0.38029870E+03 0.41324926E+03 0.10565837E+00 0.0000E+00 0.9000E+01
       23  1    3    3    0    0 0.18290644E+03 0.21644552E+02 0.15827722E+04 0.15960596E+04 0.91188000E+02 0.0000E+00 0.9000E+01
#aMCatNLO 1  0  0  2  2 0.10260106D+03 0.00000000D+00  -5  7  0 0.00000000D+00 0.00000000D+00 0.00000000D+00 0.00000000D+00 0.00000000D+00
  <mgrwgt>
 0.3619816836D-03    4    2    0
 0.287087339903370D+03 0.000000000000000D+00 0.000000000000000D+00 0.287087339903370D+03
 0.287087339903370D+03 0.000000000000000D+00 0.000000000000000D+00 -.287087339903370D+03
 0.111650245274376D+03 -.129975637597831D+02 0.299405590676865D+02 -.555441462699095D+02
 0.312012506793324D+02 -.981953108172803D+01 -.287968011326758D+02 0.691658136760057D+01
 0.184299209453345D+03 -.160089343123179D+03 -.227883110947011D+02 -.884211156962396D+02
 0.247023974399686D+03 0.182906437964691D+03 0.216445531596904D+02 0.137048680598549D+03
 0.000000000000000D+00 0.000000000000000D+00 0.000000000000000D+00 0.000000000000000D+00
 0.485374294723901D+03 0.000000000000000D+00 0.000000000000000D+00 0.485374294723901D+03
 0.305218784345097D+03 0.000000000000000D+00 0.000000000000000D+00 -.305218784345097D+03
 0.114074309530148D+03 -.321311341617194D+02 0.240859872832431D+02 -.555441462699095D+02
 0.348790000958596D+02 -.154208318860630D+02 -.305107111325534D+02 0.691658136760057D+01
 0.215764949569040D+03 -.194000832099534D+03 -.331646936703931D+02 -.884211156962396D+02
 0.218551438010734D+03 0.143441879319400D+03 0.956901855341291D+01 0.137048680598549D+03
 0.207323381863216D+03 0.981109188279172D+02 0.300203989662904D+02 0.180155510378804D+03
0.427407536264D-05 0.000000000000D+00 0.000000000000D+00 0.107201517291D-06 0.000000000000D+00  7 2 -2 23 -13 13 23 21 0 0.36555677D+00 0.53363774D-02 0.61133012D+05 0.61133012D+05 0.61133012D+05 0.11396943D+01  1  2  2  2  7  2       -2 0.376550682443D-03 0.100000000000D+01
-.231006158068D-06 0.000000000000D+00 -.164135747824D-07 0.107201517291D-06 0.000000000000D+00  7 2 -2 23 -13 13 23 21 2 0.36555677D+00 0.53363774D-02 0.61133012D+05 0.61133012D+05 0.61133012D+05 0.11396943D+01  1  2  3  2  7  2       -2 -.264351367129D-04 0.100000000000D+01
0.270588298186D-06 0.000000000000D+00 0.000000000000D+00 0.107201517291D-06 0.000000000000D+00  7 2 -2 23 -13 13 23 21 2 0.36555677D+00 0.53363774D-02 0.61133012D+05 0.61133012D+05 0.61133012D+05 0.11396943D+01  1  2 15  2  7  2       -2 0.309647098384D-04 0.100000000000D+01
-.166894833323D-06 0.000000000000D+00 0.000000000000D+00 0.107201517291D-06 0.000000000000D+00  7 2 -2 23 -13 13 23 21 2 0.36555677D+00 0.53363774D-02 0.61133012D+05 0.61133012D+05 0.61133012D+05 0.11396943D+01  1  2  4  2  7  2       -2 -.190985719708D-04 0.100000000000D+01
  </mgrwgt>
  </event>
  <event>
  8     66 0.25765000E-05 0.20627003E+03 0.75467711E-02 0.10233742E+00
        2 -1    0    0  501    0 0.00000000E+00 0.00000000E+00 0.59473694E+03 0.59473703E+03 0.32000000E+00 0.0000E+00 0.9000E+01
       -2 -1    0    0    0  501 0.00000000E+00 0.00000000E+00 -.13387918E+03 0.13387957E+03 0.32000000E+00 0.0000E+00 0.9000E+01
       25  2    1    2    0    0 0.40789549E+02 -.12254464E+03 0.11239410E+03 0.34571274E+03 0.30033962E+03 0.0000E+00 0.0000E+00
       23  2    1    2    0    0 -.40789549E+02 0.12254464E+03 0.34846365E+03 0.38290386E+03 0.92235947E+02 0.0000E+00 0.0000E+00
       23  1    3    3    0    0 -.34538110E+01 -.14217171E+03 -.28211171E+02 0.17127710E+03 0.91188000E+02 0.0000E+00 0.9000E+01
      -13  1    4    4    0    0 -.50498524E+02 0.12019961E+03 0.23289823E+03 0.26690756E+03 0.10565837E+00 0.0000E+00 0.9000E+01
       13  1    4    4    0    0 0.97089758E+01 0.23450297E+01 0.11556542E+03 0.11599630E+03 0.10565837E+00 0.0000E+00 0.9000E+01
       23  1    3    3    0    0 0.44243360E+02 0.19627068E+02 0.14060527E+03 0.17443564E+03 0.91188000E+02 0.0000E+00 0.9000E+01
#aMCatNLO 1  0  0  1  2 0.10239058D+03 0.00000000D+00  -5  7  0 0.00000000D+00 0.00000000D+00 0.00000000D+00 0.00000000D+00 0.00000000D+00
  <mgrwgt>
 0.1970327121D-03    4    2    0
 0.282175596265162D+03 0.000000000000000D+00 0.000000000000000D+00 0.282175596265162D+03
 0.282175596265162D+03 0.000000000000000D+00 0.000000000000000D+00 -.282175596265162D+03
 0.244168307087478D+03 -.345381058776670D+01 -.142171710270741D+03 -.176290064476367D+03
 0.154408095680366D+03 -.504986016789917D+02 0.120199764152406D+03 0.827270689545419D+02
 0.553866690639548D+02 0.970905241204203D+01 0.234487885281504D+01 0.544786100632706D+02
 0.110388120698524D+03 0.442433598547164D+02 0.196270672655198D+02 0.390843854585542D+02
 0.000000000000000D+00 -.000000000000000D+00 0.000000000000000D+00 -.000000000000000D+00
 0.305184653582127D+03 0.000000000000000D+00 0.000000000000000D+00 0.305184653582127D+03
 0.429206473856401D+03 0.000000000000000D+00 0.000000000000000D+00 -.429206473856401D+03
 0.272306895851364D+03 0.118342839838885D+02 -.186057940098543D+03 -.176290064476367D+03
 0.133320737196373D+03 -.419815894720525D+02 0.957507032568159D+02 0.827270689545419D+02
 0.564686018726265D+02 0.130200612478700D+02 -.715975195974146D+01 0.544786100632706D+02
 0.111468145960043D+03 0.508104894413660D+02 0.775368187008599D+00 0.390843854585542D+02
 0.160826746558122D+03 -.336832452010720D+02 0.966916206144596D+02 -.124021820274274D+03
0.191652368513D-05 0.000000000000D+00 0.000000000000D+00 0.160801774319D-06 0.000000000000D+00  7 2 -2 23 -13 13 23 21 0 0.91498027D-01 0.20596834D-01 0.42547324D+05 0.42547324D+05 0.42547324D+05 0.11535127D+01  1  2  2  1  7  1        2 0.222963759119D-03 0.100000000000D+01
-.937629869335D-07 0.000000000000D+00 -.735995558317D-08 0.160801774319D-06 0.000000000000D+00  7 2 -2 23 -13 13 23 21 2 0.91498027D-01 0.20596834D-01 0.42547324D+05 0.42547324D+05 0.42547324D+05 0.11535127D+01  1  2  3  1  7  1        2 -.145143054976D-04 0.100000000000D+01
0.118574487229D-06 0.000000000000D+00 0.000000000000D+00 0.160801774319D-06 0.000000000000D+00  7 2 -2 23 -13 13 23 21 2 0.91498027D-01 0.20596834D-01 0.42547324D+05 0.42547324D+05 0.42547324D+05 0.11535127D+01  1  2 15  1  7  1        2 0.183550715283D-04 0.100000000000D+01
-.192327088520D-06 0.000000000000D+00 0.000000000000D+00 0.160801774319D-06 0.000000000000D+00  7 2 -2 23 -13 13 23 21 2 0.91498027D-01 0.20596834D-01 0.42547324D+05 0.42547324D+05 0.42547324D+05 0.11535127D+01  1  2  4  1  7  1        2 -.297718130528D-04 0.100000000000D+01
  </mgrwgt>
  </event>
  <event>
  9     66 0.25765000E-05 0.36281090E+03 0.75467711E-02 0.93967324E-01
        2 -1    0    0  501    0 0.00000000E+00 0.00000000E+00 0.12884493E+04 0.12884494E+04 0.32000000E+00 0.0000E+00 0.9000E+01
       21 -1    0    0  502  501 0.00000000E+00 0.00000000E+00 -.63905148E+03 0.63905192E+03 0.75000000E+00 0.0000E+00 0.9000E+01
       25  2    1    2    0    0 -.33994403E+03 -.26633317E+03 0.10421957E+04 0.11674536E+04 0.30046734E+03 0.0000E+00 0.0000E+00
       23  2    1    2    0    0 0.26109993E+03 -.16197602E+02 -.88802613E+01 0.27689874E+03 0.90324524E+02 0.0000E+00 0.0000E+00
       23  1    3    3    0    0 -.32391207E+03 -.20212375E+03 0.64943100E+03 0.75884709E+03 0.91188000E+02 0.0000E+00 0.9000E+01
      -11  1    4    4    0    0 0.99772453E+02 -.33004938E+01 0.40441854E+02 0.10770784E+03 0.51099893E-03 0.0000E+00 0.9000E+01
       11  1    4    4    0    0 0.16132747E+03 -.12897108E+02 -.49322116E+02 0.16919090E+03 0.51099893E-03 0.0000E+00 0.9000E+01
       23  1    3    3    0    0 -.16031955E+02 -.64209422E+02 0.39276475E+03 0.40860650E+03 0.91188000E+02 0.0000E+00 0.9000E+01
        2  1    1    2  502    0 0.78844102E+02 0.28253077E+03 -.38391765E+03 0.48314894E+03 0.32000000E+00 0.0000E+00 0.9000E+01
#aMCatNLO 2  0  0  2  1 0.29332581D+03 0.00000000D+00  -5  7  0 0.00000000D+00 0.00000000D+00 0.00000000D+00 0.00000000D+00 0.00000000D+00
  <mgrwgt>
 0.9720228567D-04    2    2    0
 0.482797252469906D+03 0.000000000000000D+00 0.000000000000000D+00 0.482797252469906D+03
 0.482797252469906D+03 0.000000000000000D+00 0.000000000000000D+00 -.482797252469906D+03
 0.354528457902781D+03 -.292943732163808D+03 -.911514752982653D+02 0.152481324941163D+03
 0.125014026763442D+03 0.109265230573124D+03 0.307160232799142D+02 -.524036467173849D+02
 0.315259110319861D+03 0.185598997077419D+03 0.740777227017755D+02 -.243831519543403D+03
 0.170792909953728D+03 -.192049548673479D+01 -.136422706834244D+02 0.143753841319625D+03
 0.000000000000000D+00 0.000000000000000D+00 0.000000000000000D+00 -.000000000000000D+00
 0.524790831783692D+03 0.000000000000000D+00 0.000000000000000D+00 0.524790831783692D+03
 0.156897907471979D+04 0.000000000000000D+00 0.000000000000000D+00 -.156897907471979D+04
 0.421116189833059D+03 -.323912072561008D+03 -.202123746227237D+03 0.152481324941163D+03
 0.112745633326169D+03 0.997724530391449D+02 -.330049381004890D+01 -.524036467173849D+02
 0.292654572512320D+03 0.161327472846553D+03 -.128971079885498D+02 -.243831519543403D+03
 0.182647999503256D+03 -.160319554527262D+02 -.642094221182144D+02 0.143753841319625D+03
 0.108460551132868D+04 0.788441021280369D+02 0.282530770144050D+03 -.104418824293610D+04
-.299090227690D-06 0.000000000000D+00 0.000000000000D+00 0.676922081030D-06 0.000000000000D+00  7 2 21 23 -11 11 23 2 2 0.18236126D+00 0.96085423D-01 0.28101050D+06 0.28101050D+06 0.28101050D+06 0.10866592D+01  1  2 13  4  7  2       -2 -.743824033089D-05 0.100000000000D+01
0.511453452977D-05 0.000000000000D+00 0.000000000000D+00 0.676922081030D-06 0.127086331988D-10  7 2 21 23 -11 11 23 2 2 0.19822300D+00 0.98315645D-01 0.28101050D+06 0.28101050D+06 0.28101050D+06 0.10866592D+01  1  2  1  4  7  2       -2 0.104640526004D-03 0.100000000000D+01
  </mgrwgt>
  </event>
  <event>
  8     66 0.25765000E-05 0.81744024E+02 0.75467711E-02 0.10543984E+00
        2 -1    0    0  501    0 0.00000000E+00 0.00000000E+00 0.42944623E+03 0.42944635E+03 0.32000000E+00 0.0000E+00 0.9000E+01
       -2 -1    0    0    0  501 0.00000000E+00 0.00000000E+00 -.15952066E+03 0.15952098E+03 0.32000000E+00 0.0000E+00 0.9000E+01
       25  2    1    2    0    0 -.15468852E+03 0.42115610E+02 0.18536339E+03 0.38575345E+03 0.29789910E+03 0.0000E+00 0.0000E+00
       23  2    1    2    0    0 0.15468852E+03 -.42115610E+02 0.84562177E+02 0.20321388E+03 0.91885012E+02 0.0000E+00 0.0000E+00
       23  1    3    3    0    0 -.12940839E+03 0.42790250E+01 -.16900173E+02 0.15926616E+03 0.91188000E+02 0.0000E+00 0.9000E+01
      -13  1    4    4    0    0 0.40176629E+02 0.70345950E+01 0.65483453E+02 0.77147527E+02 0.10565837E+00 0.0000E+00 0.9000E+01
       13  1    4    4    0    0 0.11451190E+03 -.49150205E+02 0.19078724E+02 0.12606635E+03 0.10565837E+00 0.0000E+00 0.9000E+01
       23  1    3    3    0    0 -.25280135E+02 0.37836585E+02 0.20226357E+03 0.22648729E+03 0.91188000E+02 0.0000E+00 0.9000E+01
#aMCatNLO 1  0  0  2  1 0.29332581D+03 0.00000000D+00  -5  7  0 0.00000000D+00 0.00000000D+00 0.00000000D+00 0.00000000D+00 0.00000000D+00
  <mgrwgt>
 0.2371109222D-05    1    2    0
 0.261735889288153D+03 0.000000000000000D+00 0.000000000000000D+00 0.261735889288153D+03
 0.261735889288153D+03 0.000000000000000D+00 0.000000000000000D+00 -.261735889288153D+03
 0.187907649408490D+03 -.129408390022547D+03 0.427902597736871D+01 -.101139467522235D+03
 0.530337273271635D+02 0.401765316260806D+02 0.703466842576098D+01 0.338959581786690D+02
 0.132001737540610D+03 0.114511995937772D+03 -.491502792578661D+02 -.435397697394164D+02
 0.150528664300043D+03 -.252801375413062D+02 0.378365848547364D+02 0.110783279082983D+03
 0.000000000000000D+00 0.000000000000000D+00 -.000000000000000D+00 0.000000000000000D+00
 0.592221330770337D+03 0.000000000000000D+00 0.000000000000000D+00 0.592221330770337D+03
 0.299075535331782D+03 0.000000000000000D+00 0.000000000000000D+00 -.299075535331782D+03
 0.238991332782059D+03 -.194851256858124D+03 0.246049103041073D+02 -.101139467522235D+03
 0.438829085819189D+02 0.253193809591831D+02 0.116491472907993D+02 0.338959581786690D+02
 0.981425959646051D+02 0.792312723969005D+02 -.381924477885155D+02 -.435397697394164D+02
 0.170145399672612D+03 -.744389103228693D+02 0.531047963118066D+02 0.110783279082983D+03
 0.340134629100924D+03 0.164739513824910D+03 -.511664061181977D+02 0.293145795438555D+03
0.143655089453D-07 0.000000000000D+00 0.000000000000D+00 0.170167068438D-07 0.000000000000D+00  7 2 -2 23 -13 13 23 21 2 0.66068685D-01 0.24541674D-01 0.45300982D+05 0.45300982D+05 0.45300982D+05 0.11510847D+01  1  2 14  2  7  2       -2 0.237110922223D-05 0.100000000000D+01
  </mgrwgt>
  </event>
  <event>
  8     66 0.25765000E-05 0.23137395E+03 0.75467711E-02 0.96209919E-01
        2 -1    0    0  501    0 0.00000000E+00 0.00000000E+00 0.18286815E+04 0.18286815E+04 0.32000000E+00 0.0000E+00 0.9000E+01
       -2 -1    0    0    0  501 0.00000000E+00 0.00000000E+00 -.80423579E+02 0.80424215E+02 0.32000000E+00 0.0000E+00 0.9000E+01
       25  2    1    2    0    0 -.20409991E+03 0.94809610E+02 0.15530734E+04 0.15974193E+04 0.29843916E+03 0.0000E+00 0.0000E+00
       23  2    1    2    0    0 0.20409991E+03 -.94809610E+02 0.19518456E+03 0.31168644E+03 0.91683097E+02 0.0000E+00 0.0000E+00
       23  1    3    3    0    0 0.14941298E+00 -.39600881E+02 0.64413525E+03 0.65176202E+03 0.91188000E+02 0.0000E+00 0.9000E+01
      -11  1    4    4    0    0 0.20633977E+03 -.84383622E+02 0.15862393E+03 0.27360235E+03 0.51099893E-03 0.0000E+00 0.9000E+01
       11  1    4    4    0    0 -.22398569E+01 -.10425988E+02 0.36560636E+02 0.38084095E+02 0.51099893E-03 0.0000E+00 0.9000E+01
       23  1    3    3    0    0 -.20424932E+03 0.13441049E+03 0.90893811E+03 0.94565729E+03 0.91188000E+02 0.0000E+00 0.9000E+01
#aMCatNLO 1  0  0  1  2 0.24644026D+03 0.00000000D+00  -5  7  0 0.00000000D+00 0.00000000D+00 0.00000000D+00 0.00000000D+00 0.00000000D+00
  <mgrwgt>
 0.3969315272D-03    7    2    0
 0.383496734205600D+03 0.000000000000000D+00 0.000000000000000D+00 0.383496734205600D+03
 0.383496734205600D+03 0.000000000000000D+00 0.000000000000000D+00 -.383496734205600D+03
 0.154066569873287D+03 0.149412977010499D+00 -.396008814654031D+02 0.117698787043222D+03
 0.319455493992150D+03 0.206339765390259D+03 -.843836220240846D+02 -.228812408305490D+03
 0.114592151302519D+02 -.223985691620323D+01 -.104259883733333D+02 0.419468936101955D+01
 0.282012189415511D+03 -.204249321451066D+03 0.134410491862821D+03 0.106918931901249D+03
 0.000000000000000D+00 0.000000000000000D+00 -.000000000000000D+00 0.000000000000000D+00
 0.744658216382502D+03 0.000000000000000D+00 0.000000000000000D+00 0.744658216382502D+03
 0.447220893936343D+03 0.000000000000000D+00 0.000000000000000D+00 -.447220893936343D+03
 0.149155426262092D+03 -.446281338060161D+01 0.769211704998889D+01 0.117698787043222D+03
 0.302120331200619D+03 0.196885146527686D+03 0.125624602282094D+02 -.228812408305490D+03
 0.877193444016453D+01 -.254758736611362D+01 -.727057175187153D+01 0.419468936101955D+01
 0.345564981727343D+03 -.213795225135733D+03 0.232292593430089D+03 0.106918931901249D+03
 0.386266436688626D+03 0.239204793547622D+02 -.245276598956416D+03 0.297437322446159D+03
0.852371121999D-05 0.000000000000D+00 0.000000000000D+00 0.145772031090D-06 0.000000000000D+00  7 2 -2 23 -11 11 23 21 0 0.28133567D+00 0.12372909D-01 0.88198755D+05 0.88198755D+05 0.88198755D+05 0.11262251D+01  1  2  2  1  7  1        2 0.410724720982D-03 0.100000000000D+01
-.435907864437D-06 0.000000000000D+00 -.327332954295D-07 0.145772031090D-06 0.000000000000D+00  7 2 -2 23 -11 11 23 21 2 0.28133567D+00 0.12372909D-01 0.88198755D+05 0.88198755D+05 0.88198755D+05 0.11262251D+01  1  2  3  1  7  1        2 -.266420266152D-04 0.100000000000D+01
0.540389455487D-06 0.000000000000D+00 0.000000000000D+00 0.145772031090D-06 0.000000000000D+00  7 2 -2 23 -11 11 23 21 2 0.28133567D+00 0.12372909D-01 0.88198755D+05 0.88198755D+05 0.88198755D+05 0.11262251D+01  1  2 15  1  7  1        2 0.330277827730D-04 0.100000000000D+01
0.320077150620D-06 0.000000000000D+00 0.000000000000D+00 0.145772031090D-06 0.000000000000D+00  7 2 -2 23 -11 11 23 21 2 0.55001186D+00 0.12372909D-01 0.18994727D+06 0.18994727D+06 0.18994727D+06 0.10995497D+01  1  2 12  1  7  1        2 0.160434807173D-05 0.100000000000D+01
-.457489070904D-05 0.000000000000D+00 -.218501960186D-05 0.145772031090D-06 0.000000000000D+00  7 2 -2 23 -11 11 23 21 2 0.56367364D+00 0.12372909D-01 0.88198755D+05 0.88198755D+05 0.88198755D+05 0.11262251D+01  1  2  5  1  7  1        2 -.217569346214D-04 0.100000000000D+01
0.232491652491D-07 0.000000000000D+00 0.000000000000D+00 0.145772031090D-06 0.000000000000D+00  7 21 -2 23 -11 11 23 -2 2 0.55001186D+00 0.12372909D-01 0.18994727D+06 0.18994727D+06 0.18994727D+06 0.10995497D+01  1  2 12  3  7  1        2 0.378286985132D-08 0.100000000000D+01
-.212685781087D-06 0.000000000000D+00 -.164285135309D-06 0.145772031090D-06 0.000000000000D+00  7 21 -2 23 -11 11 23 -2 2 0.56367364D+00 0.12372909D-01 0.88198755D+05 0.88198755D+05 0.88198755D+05 0.11262251D+01  1  2  5  3  7  1        2 -.301462459612D-07 0.100000000000D+01
  </mgrwgt>
  </event>
  <event>
  8     66 0.25765000E-05 0.36633687E+03 0.75467711E-02 0.90564265E-01
        2 -1    0    0  501    0 0.00000000E+00 0.00000000E+00 0.10141865E+04 0.10141865E+04 0.32000000E+00 0.0000E+00 0.9000E+01
       -2 -1    0    0    0  501 0.00000000E+00 0.00000000E+00 -.15558237E+03 0.15558269E+03 0.32000000E+00 0.0000E+00 0.9000E+01
       25  2    1    2    0    0 -.17903903E+03 -.25139079E+03 0.68318781E+03 0.80380882E+03 0.29001850E+03 0.0000E+00 0.0000E+00
       23  2    1    2    0    0 0.17903903E+03 0.25139079E+03 0.17541632E+03 0.36596042E+03 0.88903543E+02 0.0000E+00 0.0000E+00
       23  1    3    3    0    0 0.31120902E+02 -.21222734E+02 0.15171412E+03 0.18097332E+03 0.91188000E+02 0.0000E+00 0.9000E+01
      -13  1    4    4    0    0 0.88347327E+02 0.10704781E+03 0.30246985E+02 0.14205413E+03 0.10565837E+00 0.0000E+00 0.9000E+01
       13  1    4    4    0    0 0.90691704E+02 0.14434298E+03 0.14516933E+03 0.22390629E+03 0.10565837E+00 0.0000E+00 0.9000E+01
       23  1    3    3    0    0 -.21015993E+03 -.23016806E+03 0.53147368E+03 0.62283550E+03 0.91188000E+02 0.0000E+00 0.9000E+01
#aMCatNLO 1  0  0  2  1 0.54640932D+03 0.00000000D+00  -5  7  0 0.00000000D+00 0.00000000D+00 0.00000000D+00 0.00000000D+00 0.00000000D+00
  <mgrwgt>
 0.1573282160D-02    5    2    0
 0.397227586051249D+03 0.000000000000000D+00 0.000000000000000D+00 0.397227586051249D+03
 0.397227586051249D+03 0.000000000000000D+00 0.000000000000000D+00 -.397227586051249D+03
 0.102503765834840D+03 0.311209015791216D+02 -.212227343086655D+02 0.278002823670942D+02
 0.176473603260258D+03 0.883473233850648D+02 0.107047758688093D+03 -.108988350103164D+03
 0.172792252352765D+03 0.906917077493397D+02 0.144343031541857D+03 -.282358967266219D+02
 0.342685550654634D+03 -.210159932713526D+03 -.230168055921284D+03 0.109423964462691D+03
 0.000000000000000D+00 -.000000000000000D+00 -.000000000000000D+00 -.000000000000000D+00
 0.652776845175775D+03 0.000000000000000D+00 0.000000000000000D+00 0.652776845175775D+03
 0.919459706915586D+03 0.000000000000000D+00 0.000000000000000D+00 -.919459706915586D+03
 0.128702678915027D+03 0.808718342442837D+02 0.305944266522419D+02 0.278002823670942D+02
 0.309376350336268D+03 0.192892369060167D+03 0.215934711539242D+03 -.108988350103164D+03
 0.324528140322939D+03 0.197704959026952D+03 0.255800698149282D+03 -.282358967266219D+02
 0.201613845206823D+03 -.930377537773467D+02 -.108181623247271D+03 0.109423964462691D+03
 0.608015537310304D+03 -.378431408554057D+03 -.394148213093495D+03 -.266682861739811D+03
0.319280615976D-04 0.000000000000D+00 0.000000000000D+00 0.853020414646D-09 0.000000000000D+00  7 2 -2 23 -13 13 23 21 0 0.15602872D+00 0.23935778D-01 0.13420271D+06 0.13420271D+06 0.13420271D+06 0.11113861D+01  1  2  2  2  7  2       -2 0.147134401870D-02 0.100000000000D+01
-.175964670884D-05 0.000000000000D+00 -.122612163387D-06 0.853020414646D-09 0.000000000000D+00  7 2 -2 23 -13 13 23 21 2 0.15602872D+00 0.23935778D-01 0.13420271D+06 0.13420271D+06 0.13420271D+06 0.11113861D+01  1  2  3  2  7  2       -2 -.100160642899D-03 0.100000000000D+01
0.205048617701D-05 0.000000000000D+00 0.000000000000D+00 0.853020414646D-09 0.000000000000D+00  7 2 -2 23 -13 13 23 21 2 0.15602872D+00 0.23935778D-01 0.13420271D+06 0.13420271D+06 0.13420271D+06 0.11113861D+01  1  2 15  2  7  2       -2 0.116715481985D-03 0.100000000000D+01
0.670230961703D-05 0.000000000000D+00 -.108612587770D-04 0.853020414646D-09 0.000000000000D+00  7 2 -2 23 -13 13 23 21 2 0.15602872D+00 0.88451179D-01 0.13420271D+06 0.13420271D+06 0.13420271D+06 0.11113861D+01  1  2  5  2  7  2       -2 0.297763578863D-04 0.100000000000D+01
0.129607399350D-05 0.000000000000D+00 -.167535076726D-05 0.853020414646D-09 0.000000000000D+00  7 2 21 23 -13 13 23 2 2 0.15602872D+00 0.88451179D-01 0.13420271D+06 0.13420271D+06 0.13420271D+06 0.11113861D+01  1  2  5  4  7  2       -2 0.556069446022D-04 0.100000000000D+01
  </mgrwgt>
  </event>
  <event>
  8     66 -.25765000E-05 0.25204774E+03 0.75467711E-02 0.96169042E-01
        2 -1    0    0  501    0 0.00000000E+00 0.00000000E+00 0.18692671E+04 0.18692671E+04 0.32000000E+00 0.0000E+00 0.9000E+01
       -2 -1    0    0    0  501 0.00000000E+00 0.00000000E+00 -.24273522E+03 0.24273543E+03 0.32000000E+00 0.0000E+00 0.9000E+01
       25  2    1    2    0    0 -.51028933E+02 -.38789521E+03 0.16388753E+04 0.17097967E+04 0.29056091E+03 0.0000E+00 0.0000E+00
       23  2    1    2    0    0 0.51028933E+02 0.38789521E+03 -.12343447E+02 0.40220590E+03 0.92469341E+02 0.0000E+00 0.0000E+00
       23  1    3    3    0    0 0.31921023E+02 -.31300391E+02 0.49471990E+03 0.50503633E+03 0.91188000E+02 0.0000E+00 0.9000E+01
      -13  1    4    4    0    0 0.64698526E+02 0.33645541E+03 0.13819307E+02 0.34289813E+03 0.10565837E+00 0.0000E+00 0.9000E+01
       13  1    4    4    0    0 -.13669592E+02 0.51439795E+02 -.26162754E+02 0.59307766E+02 0.10565837E+00 0.0000E+00 0.9000E+01
       23  1    3    3    0    0 -.82949956E+02 -.35659482E+03 0.11441554E+04 0.12047603E+04 0.91188000E+02 0.0000E+00 0.9000E+01
#aMCatNLO 1  0  0  2  1 0.54640932D+03 0.00000000D+00  -5  7  0 0.00000000D+00 0.00000000D+00 0.00000000D+00 0.00000000D+00 0.00000000D+00
  <mgrwgt>
 -.4447141139D-05    1    2    0
 0.673600190328550D+03 0.000000000000000D+00 0.000000000000000D+00 0.673600190328550D+03
 0.673600190328550D+03 0.000000000000000D+00 0.000000000000000D+00 -.673600190328550D+03
 0.194447939077131D+03 0.319210229090882D+02 -.313003909585538D+02 0.165819430374196D+03
 0.520876403339529D+03 0.646986279474346D+02 0.336455784515473D+03 -.392331263301462D+03
 0.124563513200716D+03 -.136696945195214D+02 0.514394231354136D+02 -.112619687533502D+03
 0.507312525039725D+03 -.829499563370014D+02 -.356594816692333D+03 0.339131520460768D+03
 0.000000000000000D+00 0.000000000000000D+00 -.000000000000000D+00 0.000000000000000D+00
 0.109992697119350D+04 0.000000000000000D+00 0.000000000000000D+00 0.109992697119350D+04
 0.686591850627101D+03 0.000000000000000D+00 0.000000000000000D+00 -.686591850627101D+03
 0.191844995364129D+03 0.136381970762070D+02 -.284106844892957D+02 0.165819430374196D+03
 0.522180804483529D+03 0.153318610094283D+02 0.344258487833390D+03 -.392331263301462D+03
 0.127205110473271D+03 -.255856305525570D+02 0.533228058114112D+02 -.112619687533502D+03
 0.512170012581260D+03 -.131200959690060D+03 -.348968466268606D+03 0.339131520460768D+03
 0.433117898918413D+03 0.127816532156982D+03 -.202021428868996D+02 0.413335120566400D+03
-.530021440713D-06 0.000000000000D+00 0.000000000000D+00 0.604828515879D-08 0.000000000000D+00  7 2 -2 23 -13 13 23 21 2 0.28757957D+00 0.37343898D-01 0.19127626D+06 0.19127626D+06 0.19127626D+06 0.10993161D+01  1  2 14  2  7  2       -2 -.444714113902D-05 0.100000000000D+01
  </mgrwgt>
  </event>
  <event>
  9     66 0.25765000E-05 0.23329292E+03 0.75467711E-02 0.10119550E+00
        2 -1    0    0  502    0 0.00000000E+00 0.00000000E+00 0.12032451E+04 0.12032452E+04 0.32000000E+00 0.0000E+00 0.9000E+01
       -2 -1    0    0    0  501 0.00000000E+00 0.00000000E+00 -.13033374E+04 0.13033374E+04 0.32000000E+00 0.0000E+00 0.9000E+01
       25  2    1    2    0    0 -.14561661E+03 -.27220427E+01 0.83767992E+03 0.90066856E+03 0.29712723E+03 0.0000E+00 0.0000E+00
       23  2    1    2    0    0 0.93380609E+02 -.94255630E+02 -.12574868E+04 0.12677554E+04 0.91250912E+02 0.0000E+00 0.0000E+00
       23  1    3    3    0    0 0.24481327E+02 0.56501006E+02 0.45370577E+03 0.46685744E+03 0.91188000E+02 0.0000E+00 0.9000E+01
      -11  1    4    4    0    0 0.11123551E+03 -.77324288E+02 -.10091061E+04 0.10181589E+04 0.51099893E-03 0.0000E+00 0.9000E+01
       11  1    4    4    0    0 -.17854904E+02 -.16931342E+02 -.24838068E+03 0.24959653E+03 0.51099893E-03 0.0000E+00 0.9000E+01
       23  1    3    3    0    0 -.17009794E+03 -.59223049E+02 0.38397415E+03 0.43381111E+03 0.91188000E+02 0.0000E+00 0.9000E+01
       21  1    1    2  502  501 0.52236004E+02 0.96977672E+02 0.31971459E+03 0.33815862E+03 0.75000000E+00 0.0000E+00 0.9000E+01
#aMCatNLO 2  0  0  1  2 0.11015112D+03 0.00000000D+00  -5  7  0 0.00000000D+00 0.00000000D+00 0.00000000D+00 0.00000000D+00 0.00000000D+00
  <mgrwgt>
 0.6820511981D-03    2    2    0
 0.106227250740636D+04 0.000000000000000D+00 0.000000000000000D+00 0.106227250740636D+04
 0.106227250740636D+04 0.000000000000000D+00 0.000000000000000D+00 -.106227250740636D+04
 0.569332170119837D+03 0.384216447380850D+02 0.823816141928217D+02 0.554581748210278D+03
 0.838994822079335D+03 0.131845885544974D+03 -.390605274068728D+02 -.827649230736967D+03
 0.204460041686633D+03 -.128197378992919D+02 -.758340841552117D+01 -.203916784212327D+03
 0.511757980926909D+03 -.157447792383767D+03 -.357376783704277D+02 0.476984266739016D+03
 0.000000000000000D+00 0.000000000000000D+00 0.000000000000000D+00 0.000000000000000D+00
 0.146388893591986D+04 0.000000000000000D+00 0.000000000000000D+00 0.146388893591986D+04
 0.107127899796975D+04 0.000000000000000D+00 0.000000000000000D+00 -.107127899796975D+04
 0.565391780824669D+03 0.244813271050161D+02 0.565010057901605D+02 0.554581748210278D+03
 0.838663003853573D+03 0.111235513345073D+03 -.773242876725208D+02 -.827649230736967D+03
 0.205396014621476D+03 -.178549040328844D+02 -.169313419688229D+02 -.203916784212327D+03
 0.517947797340976D+03 -.170097940118564D+03 -.592230485303918D+02 0.476984266739016D+03
 0.407769337248922D+03 0.522360037013595D+02 0.969776723815748D+02 0.392609937950109D+03
-.334176542290D-02 0.000000000000D+00 0.000000000000D+00 0.476515466150D-06 0.000000000000D+00  7 2 -2 23 -11 11 23 21 2 0.18552436D+00 0.19882763D+00 0.84722013D+05 0.84722013D+05 0.84722013D+05 0.11276791D+01  1  2 13  1  7  1        2 -.142633958514D-02 0.100000000000D+01
0.505298804843D-02 0.000000000000D+00 0.000000000000D+00 0.476515466150D-06 0.279701628467D-09  7 2 -2 23 -11 11 23 21 2 0.18511458D+00 0.20051339D+00 0.84722013D+05 0.84722013D+05 0.84722013D+05 0.11276791D+01  1  2  1  1  7  1        2 0.210839078328D-02 0.100000000000D+01
  </mgrwgt>
  </event>
  <event>
  8     66 0.25765000E-05 0.22123260E+03 0.75467711E-02 0.91995729E-01
        2 -1    0    0  501    0 0.00000000E+00 0.00000000E+00 0.16610694E+04 0.16610694E+04 0.32000000E+00 0.0000E+00 0.9000E+01
       -2 -1    0    0    0  501 0.00000000E+00 0.00000000E+00 -.49888891E+02 0.49889917E+02 0.32000000E+00 0.0000E+00 0.9000E+01
       25  2    1    2    0    0 -.16117085E+03 0.52828504E+02 0.13021653E+04 0.13469488E+04 0.29978286E+03 0.0000E+00 0.0000E+00
       23  2    1    2    0    0 0.16117085E+03 -.52828504E+02 0.30901520E+03 0.36401052E+03 0.90809534E+02 0.0000E+00 0.0000E+00
       23  1    3    3    0    0 -.62726081E+02 0.67312117E+02 0.21188659E+03 0.24834786E+03 0.91188000E+02 0.0000E+00 0.9000E+01
      -11  1    4    4    0    0 0.11856973E+02 0.10433623E+02 0.89091204E+00 0.15819040E+02 0.51099893E-03 0.0000E+00 0.9000E+01
       11  1    4    4    0    0 0.14931387E+03 -.63262127E+02 0.30812428E+03 0.34819148E+03 0.51099893E-03 0.0000E+00 0.9000E+01
       23  1    3    3    0    0 -.98444764E+02 -.14483613E+02 0.10902787E+04 0.10986010E+04 0.91188000E+02 0.0000E+00 0.9000E+01
#aMCatNLO 1  0  0  2  2 0.55532251D+03 0.00000000D+00  -5  7  0 0.00000000D+00 0.00000000D+00 0.00000000D+00 0.00000000D+00 0.00000000D+00
  <mgrwgt>
 0.3163767565D-03    5    2    0
 0.287871176633333D+03 0.000000000000000D+00 0.000000000000000D+00 0.287871176633333D+03
 0.287871176633333D+03 0.000000000000000D+00 0.000000000000000D+00 -.287871176633333D+03
 0.145074532950257D+03 -.627260813913262D+02 0.673121171517091D+02 -.653137532574762D+02
 0.445169856706850D+02 0.118569733481091D+02 0.104336226839770D+02 -.416210729548699D+02
 0.172468844766720D+03 0.149313871873072D+03 -.632621267573900D+02 -.587262581778432D+02
 0.213681989879005D+03 -.984447638298547D+02 -.144836130782960D+02 0.165661084390189D+03
 0.000000000000000D+00 0.000000000000000D+00 0.000000000000000D+00 -.000000000000000D+00
 0.565227263545873D+03 0.000000000000000D+00 0.000000000000000D+00 0.565227263545873D+03
 0.866439963423809D+03 0.000000000000000D+00 0.000000000000000D+00 -.866439963423809D+03
 0.183164868591079D+03 -.138833053502404D+03 -.411535494533262D+02 -.653137532574762D+02
 0.470433760780530D+02 -.937259831626002D+01 -.198222077405261D+02 -.416210729548699D+02
 0.206849545734272D+03 0.613635099374938D+02 -.188606682858946D+03 -.587262581778432D+02
 0.362856174381670D+03 -.232123334355866D+03 -.204998816360198D+03 0.165661084390189D+03
 0.631753262184607D+03 0.318965476237037D+03 0.454581256412996D+03 -.301212699877936D+03
0.213261794550D-05 0.000000000000D+00 0.000000000000D+00 0.298498729621D-06 0.000000000000D+00  7 2 -2 23 -11 11 23 21 0 0.25554922D+00 0.76752953D-02 0.48943864D+05 0.48943864D+05 0.48943864D+05 0.11481118D+01  1  2  2  2  7  2       -2 0.264521851905D-03 0.100000000000D+01
-.108492152869D-06 0.000000000000D+00 -.818981444190D-08 0.298498729621D-06 0.000000000000D+00  7 2 -2 23 -11 11 23 21 2 0.25554922D+00 0.76752953D-02 0.48943864D+05 0.48943864D+05 0.48943864D+05 0.11481118D+01  1  2  3  2  7  2       -2 -.177384308384D-04 0.100000000000D+01
0.132979537065D-06 0.000000000000D+00 0.000000000000D+00 0.298498729621D-06 0.000000000000D+00  7 2 -2 23 -11 11 23 21 2 0.25554922D+00 0.76752953D-02 0.48943864D+05 0.48943864D+05 0.48943864D+05 0.11481118D+01  1  2 15  2  7  2       -2 0.217421099939D-04 0.100000000000D+01
0.241368276176D-05 0.000000000000D+00 -.112458442548D-05 0.298498729621D-06 0.000000000000D+00  7 2 -2 23 -11 11 23 21 2 0.25554922D+00 0.53379480D-01 0.48943864D+05 0.48943864D+05 0.48943864D+05 0.11481118D+01  1  2  5  2  7  2       -2 0.153880696780D-04 0.100000000000D+01
0.467908233843D-06 0.000000000000D+00 -.266660824907D-06 0.298498729621D-06 0.000000000000D+00  7 2 21 23 -11 11 23 2 2 0.25554922D+00 0.53379480D-01 0.48943864D+05 0.48943864D+05 0.48943864D+05 0.11481118D+01  1  2  5  4  7  2       -2 0.324631557446D-04 0.100000000000D+01
  </mgrwgt>
  </event>
  <event>
  8     66 0.25765000E-05 0.63302349E+03 0.75467711E-02 0.85758167E-01
        2 -1    0    0  501    0 0.00000000E+00 0.00000000E+00 0.18614610E+04 0.18614611E+04 0.32000000E+00 0.0000E+00 0.9000E+01
       -2 -1    0    0    0  501 0.00000000E+00 0.00000000E+00 -.23197042E+03 0.23197064E+03 0.32000000E+00 0.0000E+00 0.9000E+01
       25  2    1    2    0    0 -.58915626E+03 0.18278858E+03 0.93861936E+03 0.11627187E+04 0.30065230E+03 0.0000E+00 0.0000E+00
       23  2    1    2    0    0 0.58915626E+03 -.18278858E+03 0.69087126E+03 0.93071297E+03 0.91688465E+02 0.0000E+00 0.0000E+00
       23  1    3    3    0    0 -.28974016E+03 0.11721186E+03 0.67063080E+03 0.74548569E+03 0.91188000E+02 0.0000E+00 0.9000E+01
      -11  1    4    4    0    0 0.15099160E+03 -.78900667E+02 0.23158511E+03 0.28749860E+03 0.51099893E-03 0.0000E+00 0.9000E+01
       11  1    4    4    0    0 0.43816466E+03 -.10388792E+03 0.45928614E+03 0.64321437E+03 0.51099893E-03 0.0000E+00 0.9000E+01
       23  1    3    3    0    0 -.29941609E+03 0.65576722E+02 0.26798856E+03 0.41723306E+03 0.91188000E+02 0.0000E+00 0.9000E+01
#aMCatNLO 1  0  0  2  1 0.84425729D+03 0.00000000D+00  -5  7  0 0.00000000D+00 0.00000000D+00 0.00000000D+00 0.00000000D+00 0.00000000D+00
  <mgrwgt>
 0.2756395227D-03    3    2    0
 0.657118074658305D+03 0.000000000000000D+00 0.000000000000000D+00 0.657118074658305D+03
 0.657118074658305D+03 0.000000000000000D+00 0.000000000000000D+00 -.657118074658305D+03
 0.355976187895400D+03 -.289740163471761D+03 0.117211862182150D+03 0.143929885846167D+03
 0.170816265217961D+03 0.150991600056923D+03 -.789006672487372D+02 0.124264992241281D+02
 0.455110675968141D+03 0.438164658029143D+03 -.103887917119981D+03 -.659147973588210D+02
 0.332333020235108D+03 -.299416094614305D+03 0.655767221865680D+02 -.904415877114743D+02
 0.000000000000000D+00 0.000000000000000D+00 -.000000000000000D+00 0.000000000000000D+00
 0.151245072728444D+04 0.000000000000000D+00 0.000000000000000D+00 0.151245072728444D+04
 0.102464582449242D+04 0.000000000000000D+00 0.000000000000000D+00 -.102464582449242D+04
 0.588412941096810D+03 -.442322163065836D+03 0.348639971786465D+03 0.143929885846167D+03
 0.107318701308441D+03 0.106054202911196D+03 -.107420581097754D+02 0.124264992241281D+02
 0.330273986629150D+03 0.311272513053381D+03 0.885752129576344D+02 -.659147973588210D+02
 0.536040155244007D+03 -.439716434210392D+03 0.278376675365492D+03 -.904415877114743D+02
 0.975050767498453D+03 0.464711881311650D+03 -.704849801999817D+03 0.487804902792016D+03
0.370691111450D-04 0.000000000000D+00 0.000000000000D+00 0.668617650532D-06 0.000000000000D+00  7 2 -2 23 -11 11 23 21 0 0.28637864D+00 0.35687776D-01 0.40071874D+06 0.40071874D+06 0.40071874D+06 0.10753714D+01  1  2  2  2  7  2       -2 0.273384016268D-03 0.100000000000D+01
-.205590087574D-05 0.000000000000D+00 -.142355147318D-06 0.668617650532D-06 0.000000000000D+00  7 2 -2 23 -11 11 23 21 2 0.28637864D+00 0.35687776D-01 0.40071874D+06 0.40071874D+06 0.40071874D+06 0.10753714D+01  1  2  3  2  7  2       -2 -.175339635816D-04 0.100000000000D+01
0.232036461407D-05 0.000000000000D+00 0.000000000000D+00 0.668617650532D-06 0.000000000000D+00  7 2 -2 23 -11 11 23 21 2 0.28637864D+00 0.35687776D-01 0.40071874D+06 0.40071874D+06 0.40071874D+06 0.10753714D+01  1  2 15  2  7  2       -2 0.197894699688D-04 0.100000000000D+01
  </mgrwgt>
  </event>
  <event>
  9     66 0.25765000E-05 0.15771008E+03 0.75467711E-02 0.10128432E+00
        2 -1    0    0  501    0 0.00000000E+00 0.00000000E+00 0.19344179E+04 0.19344179E+04 0.32000000E+00 0.0000E+00 0.9000E+01
       -2 -1    0    0    0  502 0.00000000E+00 0.00000000E+00 -.70203710E+02 0.70204439E+02 0.32000000E+00 0.0000E+00 0.9000E+01
       25  2    1    2    0    0 -.10817234E+03 -.30794037E+02 0.68318974E+03 0.75475135E+03 0.30041946E+03 0.0000E+00 0.0000E+00
       23  2    1    2    0    0 -.21228728E+02 -.12640931E+03 0.82510388E+03 0.83982523E+03 0.89888953E+02 0.0000E+00 0.0000E+00
       23  1    3    3    0    0 -.30112713E+02 -.15348006E+02 0.60014672E+03 0.60797506E+03 0.91188000E+02 0.0000E+00 0.9000E+01
      -13  1    4    4    0    0 -.54099762E+02 -.10162283E+03 0.62850551E+03 0.63896258E+03 0.10565837E+00 0.0000E+00 0.9000E+01
       13  1    4    4    0    0 0.32871034E+02 -.24786483E+02 0.19659837E+03 0.20086265E+03 0.10565837E+00 0.0000E+00 0.9000E+01
       23  1    3    3    0    0 -.78059632E+02 -.15446031E+02 0.83043023E+02 0.14677630E+03 0.91188000E+02 0.0000E+00 0.9000E+01
       21  1    1    2  501  502 0.12940107E+03 0.15720335E+03 0.35592056E+03 0.41004577E+03 0.75000000E+00 0.0000E+00 0.9000E+01
#aMCatNLO 2  0  0  2  1 0.20361123D+03 0.00000000D+00  -5  7  0 0.00000000D+00 0.00000000D+00 0.00000000D+00 0.00000000D+00 0.00000000D+00
  <mgrwgt>
 0.1956499273D-04    1    2    0
 0.237837807525887D+03 0.000000000000000D+00 0.000000000000000D+00 0.237837807525887D+03
 0.237837807525887D+03 0.000000000000000D+00 0.000000000000000D+00 -.237837807525887D+03
 0.121839217590202D+03 0.194673229533505D+01 0.235995287034239D+02 0.772581133431255D+02
 0.100757578711080D+03 -.231155942745295D+02 -.639815716527251D+02 0.743244068789118D+02
 0.507064234125639D+02 0.454623243763409D+02 -.948995082096389D+01 0.203533601896654D+02
 0.202372395337927D+03 -.242934623971464D+02 0.498719937702651D+02 -.171935880411703D+03
 0.000000000000000D+00 0.000000000000000D+00 0.000000000000000D+00 -.000000000000000D+00
 0.322574716294451D+03 0.000000000000000D+00 0.000000000000000D+00 0.322574716294451D+03
 0.420998860840082D+03 0.000000000000000D+00 0.000000000000000D+00 -.420998860840082D+03
 0.124203075866614D+03 -.301127128501850D+02 -.153480017654064D+02 0.772581133431255D+02
 0.137033342622117D+03 -.540998811281323D+02 -.101622942263105D+03 0.743244068789118D+02
 0.459253372672546D+02 0.328711532109924D+02 -.247863797009626D+02 0.203533601896654D+02
 0.210259563935938D+03 -.780596319355992D+02 -.154460276984818D+02 -.171935880411703D+03
 0.226152257442609D+03 0.129401072702924D+03 0.157203351427956D+03 -.984241445456317D+02
0.293544543989D-06 0.000000000000D+00 0.000000000000D+00 0.476267737106D-07 0.107483631794D-10  7 2 -2 23 -13 13 23 21 2 0.29760228D+00 0.10800610D-01 0.83573521D+05 0.83573521D+05 0.83573521D+05 0.11281739D+01  1  2  1  2  7  2       -2 0.195649927255D-04 0.100000000000D+01
  </mgrwgt>
  </event>
  <event>
  8     66 0.25765000E-05 0.25863044E+03 0.75467711E-02 0.10191553E+00
        2 -1    0    0  501    0 0.00000000E+00 0.00000000E+00 0.10972056E+04 0.10972056E+04 0.32000000E+00 0.0000E+00 0.9000E+01
       -2 -1    0    0    0  501 0.00000000E+00 0.00000000E+00 -.10083590E+03 0.10083641E+03 0.32000000E+00 0.0000E+00 0.9000E+01
       25  2    1    2    0    0 -.14878535E+03 0.48068241E+02 0.95445230E+03 0.10124352E+04 0.29932975E+03 0.0000E+00 0.0000E+00
       23  2    1    2    0    0 0.14878535E+03 -.48068241E+02 0.41917357E+02 0.18560677E+03 0.90802930E+02 0.0000E+00 0.0000E+00
       23  1    3    3    0    0 -.50376887E+02 -.94592565E+02 0.35831513E+03 0.38495528E+03 0.91188000E+02 0.0000E+00 0.9000E+01
      -13  1    4    4    0    0 0.16030291E+03 -.52020807E+02 0.37509487E+02 0.17265619E+03 0.10565837E+00 0.0000E+00 0.9000E+01
       13  1    4    4    0    0 -.11517561E+02 0.39525661E+01 0.44078698E+01 0.12950578E+02 0.10565837E+00 0.0000E+00 0.9000E+01
       23  1    3    3    0    0 -.98408463E+02 0.14266081E+03 0.59613717E+03 0.62747996E+03 0.91188000E+02 0.0000E+00 0.9000E+01
#aMCatNLO 1  0  0  2  1 0.30837857D+02 0.00000000D+00  -5  7  0 0.00000000D+00 0.00000000D+00 0.00000000D+00 0.00000000D+00 0.00000000D+00
  <mgrwgt>
 0.2914847170D-03    4    2    0
 0.332622976961556D+03 0.000000000000000D+00 0.000000000000000D+00 0.332622976961556D+03
 0.332622976961556D+03 0.000000000000000D+00 0.000000000000000D+00 -.332622976961556D+03
 0.156601143661490D+03 -.503768872637314D+02 -.945925651329144D+02 0.687246877277678D+02
 0.254757312446942D+03 0.160303143971181D+03 -.520208826778683D+02 -.191044544657939D+03
 0.167205145943620D+02 -.115177938707483D+02 0.395264182304524D+01 -.114583007147631D+02
 0.237166983220317D+03 -.984084628367017D+02 0.142660805987737D+03 0.133778157644934D+03
 0.000000000000000D+00 -.000000000000000D+00 -.000000000000000D+00 0.000000000000000D+00
 0.389758754918447D+03 0.000000000000000D+00 0.000000000000000D+00 0.389758754918447D+03
 0.337167362225933D+03 0.000000000000000D+00 0.000000000000000D+00 -.337167362225933D+03
 0.153062167752635D+03 -.436457181894817D+02 -.921126724917957D+02 0.687246877277678D+02
 0.261170010404479D+03 0.171517885634567D+03 -.478891553335840D+02 -.191044544657939D+03
 0.163008173467064D+02 -.108000072936520D+02 0.421708825587138D+01 -.114583007147631D+02
 0.235427328095362D+03 -.881356533183012D+02 0.146445507344557D+03 0.133778157644934D+03
 0.609657935451975D+02 -.289365068331321D+02 -.106607677750489D+02 0.525913926925142D+02
0.400849441069D-05 0.000000000000D+00 0.000000000000D+00 0.380552047316D-06 0.000000000000D+00  7 2 -2 23 -13 13 23 21 0 0.16880090D+00 0.15513258D-01 0.66889707D+05 0.66889707D+05 0.66889707D+05 0.11363414D+01  1  2  2  2  7  2       -2 0.339398241304D-03 0.100000000000D+01
-.205552815995D-06 0.000000000000D+00 -.153936739979D-07 0.380552047316D-06 0.000000000000D+00  7 2 -2 23 -13 13 23 21 2 0.16880090D+00 0.15513258D-01 0.66889707D+05 0.66889707D+05 0.66889707D+05 0.11363414D+01  1  2  3  2  7  2       -2 -.224734333211D-04 0.100000000000D+01
0.240410493943D-06 0.000000000000D+00 0.000000000000D+00 0.380552047316D-06 0.000000000000D+00  7 2 -2 23 -13 13 23 21 2 0.16880090D+00 0.15513258D-01 0.66889707D+05 0.66889707D+05 0.66889707D+05 0.11363414D+01  1  2 15  2  7  2       -2 0.262844815780D-04 0.100000000000D+01
-.473097786123D-06 0.000000000000D+00 0.000000000000D+00 0.380552047316D-06 0.000000000000D+00  7 2 -2 23 -13 13 23 21 2 0.16880090D+00 0.15513258D-01 0.66889707D+05 0.66889707D+05 0.66889707D+05 0.11363414D+01  1  2  4  2  7  2       -2 -.517245725840D-04 0.100000000000D+01
  </mgrwgt>
  </event>
  <event>
  8     66 0.25765000E-05 0.15096923E+03 0.75467711E-02 0.10155188E+00
        2 -1    0    0  501    0 0.00000000E+00 0.00000000E+00 0.15042619E+04 0.15042619E+04 0.32000000E+00 0.0000E+00 0.9000E+01
       -2 -1    0    0    0  501 0.00000000E+00 0.00000000E+00 -.55579470E+02 0.55580391E+02 0.32000000E+00 0.0000E+00 0.9000E+01
       25  2    1    2    0    0 -.12484805E+03 -.12363018E+03 0.69928016E+03 0.78047697E+03 0.29879776E+03 0.0000E+00 0.0000E+00
       23  2    1    2    0    0 0.12484805E+03 0.12363018E+03 0.74940223E+03 0.77936532E+03 0.12220940E+03 0.0000E+00 0.0000E+00
       23  1    3    3    0    0 -.60849948E+02 -.35020513E+01 0.69760990E+02 0.12998780E+03 0.91188000E+02 0.0000E+00 0.9000E+01
      -11  1    4    4    0    0 0.19971896E+02 0.66022410E+02 0.11763530E+03 0.13636678E+03 0.51099893E-03 0.0000E+00 0.9000E+01
       11  1    4    4    0    0 0.10487615E+03 0.57607768E+02 0.63176694E+03 0.64299854E+03 0.51099893E-03 0.0000E+00 0.9000E+01
       23  1    3    3    0    0 -.63998102E+02 -.12012813E+03 0.62951917E+03 0.65048917E+03 0.91188000E+02 0.0000E+00 0.9000E+01
#aMCatNLO 1  0  0  2  1 0.95588488D+02 0.00000000D+00  -5  7  0 0.00000000D+00 0.00000000D+00 0.00000000D+00 0.00000000D+00 0.00000000D+00
  <mgrwgt>
 0.1659055361D-03    9    2    0
 0.289148441692049D+03 0.000000000000000D+00 0.000000000000000D+00 0.289148441692049D+03
 0.289148441692049D+03 0.000000000000000D+00 0.000000000000000D+00 -.289148441692049D+03
 0.175859406799169D+03 -.608499503841409D+02 -.350205395097346D+01 -.137463808953949D+03
 0.731362783457490D+02 0.199719012896562D+02 0.660224070768620D+02 -.243121396203672D+02
 0.151732925815212D+03 0.104876153760515D+03 0.576077756683608D+02 0.933017541710185D+02
 0.177568272423968D+03 -.639981046660306D+02 -.120128128794249D+03 0.684741944032974D+02
 0.000000000000000D+00 0.000000000000000D+00 0.000000000000000D+00 -.000000000000000D+00
 0.303135943740313D+03 0.000000000000000D+00 0.000000000000000D+00 0.303135943740313D+03
 0.520046139396128D+03 0.000000000000000D+00 0.000000000000000D+00 -.520046139396128D+03
 0.184484841612772D+03 -.778042926780129D+02 -.277416421582457D+02 -.137463808953949D+03
 0.632938964547692D+02 0.135528065129956D+02 0.568450405147900D+02 -.243121396203672D+02
 0.136052995718615D+03 0.913357100249905D+02 0.382490311884000D+02 0.933017541710185D+02
 0.202311972520204D+03 -.818716234799082D+02 -.145681861776267D+03 0.684741944032974D+02
 0.237038376830081D+03 0.547873996199349D+02 0.783294322313223D+02 -.216910195655814D+03
0.168099688852D-05 0.000000000000D+00 0.000000000000D+00 0.180354704404D-09 0.000000000000D+00  7 2 -2 23 -11 11 23 21 0 0.23142498D+00 0.85507611D-02 0.53395775D+05 0.53395775D+05 0.53395775D+05 0.11447937D+01  1  2  2  2  7  2       -2 0.214344141567D-03 0.100000000000D+01
-.876813659364D-07 0.000000000000D+00 -.645547066856D-08 0.180354704404D-09 0.000000000000D+00  7 2 -2 23 -11 11 23 21 2 0.23142498D+00 0.85507611D-02 0.53395775D+05 0.53395775D+05 0.53395775D+05 0.11447937D+01  1  2  3  2  7  2       -2 -.146523234105D-04 0.100000000000D+01
0.108543162075D-06 0.000000000000D+00 0.000000000000D+00 0.180354704404D-09 0.000000000000D+00  7 2 -2 23 -11 11 23 21 2 0.23142498D+00 0.85507611D-02 0.53395775D+05 0.53395775D+05 0.53395775D+05 0.11447937D+01  1  2 15  2  7  2       -2 0.181385120741D-04 0.100000000000D+01
0.301581211229D-05 0.000000000000D+00 0.000000000000D+00 0.180354704404D-09 0.000000000000D+00  7 2 -2 23 -11 11 23 21 2 0.23142498D+00 0.15436115D-01 0.80218623D+05 0.80218623D+05 0.80218623D+05 0.11296630D+01  1  2 12  2  7  2       -2 0.194942885284D-03 0.100000000000D+01
-.340580443804D-05 0.000000000000D+00 0.000000000000D+00 0.180354704404D-09 0.000000000000D+00  7 2 -2 23 -11 11 23 21 2 0.23142498D+00 0.85507611D-02 0.53395775D+05 0.53395775D+05 0.53395775D+05 0.11447937D+01  1  2  4  2  7  2       -2 -.569139720464D-03 0.100000000000D+01
-.366262808042D-05 0.000000000000D+00 -.550708551448D-06 0.180354704404D-09 0.000000000000D+00  7 2 -2 23 -11 11 23 21 2 0.23142498D+00 0.16062191D-01 0.53395775D+05 0.53395775D+05 0.53395775D+05 0.11447937D+01  1  2  5  2  7  2       -2 -.229912717858D-03 0.100000000000D+01
0.340439210111D-05 0.000000000000D+00 0.456866945118D-06 0.180354704404D-09 0.000000000000D+00  7 2 -2 23 -11 11 23 21 2 0.23142498D+00 0.85507611D-02 0.53395775D+05 0.53395775D+05 0.53395775D+05 0.11447937D+01  1  2  6  2  7  2       -2 0.568903706605D-03 0.100000000000D+01
0.195250647266D-06 0.000000000000D+00 0.000000000000D+00 0.180354704404D-09 0.000000000000D+00  7 2 21 23 -11 11 23 2 2 0.23142498D+00 0.15436115D-01 0.80218623D+05 0.80218623D+05 0.80218623D+05 0.11296630D+01  1  2 12  4  7  2       -2 0.170955627139D-03 0.100000000000D+01
-.220254341575D-06 0.000000000000D+00 -.377827394271D-07 0.180354704404D-09 0.000000000000D+00  7 2 21 23 -11 11 23 2 2 0.23142498D+00 0.16062191D-01 0.53395775D+05 0.53395775D+05 0.53395775D+05 0.11447937D+01  1  2  5  4  7  2       -2 -.187674574874D-03 0.100000000000D+01
  </mgrwgt>
  </event>
  <event>
  8     66 0.25765000E-05 0.24195413E+03 0.75467711E-02 0.93879912E-01
        2 -1    0    0  501    0 0.00000000E+00 0.00000000E+00 0.15591164E+04 0.15591165E+04 0.32000000E+00 0.0000E+00 0.9000E+01
       -2 -1    0    0    0  501 0.00000000E+00 0.00000000E+00 -.42638081E+02 0.42639282E+02 0.32000000E+00 0.0000E+00 0.9000E+01
       25  2    1    2    0    0 -.10927381E+03 -.88853080E+02 0.80649313E+03 0.87205856E+03 0.30036530E+03 0.0000E+00 0.0000E+00
       23  2    1    2    0    0 0.10927381E+03 0.88853080E+02 0.70998521E+03 0.72969719E+03 0.92430218E+02 0.0000E+00 0.0000E+00
       23  1    3    3    0    0 0.58243431E+02 0.16444267E+02 0.34039476E+03 0.35755637E+03 0.91188000E+02 0.0000E+00 0.9000E+01
      -13  1    4    4    0    0 -.13661579E+01 -.88745224E+01 0.70167614E+01 0.11396036E+02 0.10565837E+00 0.0000E+00 0.9000E+01
       13  1    4    4    0    0 0.11063997E+03 0.97727603E+02 0.70296845E+03 0.71830115E+03 0.10565837E+00 0.0000E+00 0.9000E+01
       23  1    3    3    0    0 -.16751724E+03 -.10529735E+03 0.46609837E+03 0.51450219E+03 0.91188000E+02 0.0000E+00 0.9000E+01
#aMCatNLO 1  0  0  1  1 0.42573279D+03 0.00000000D+00  -5  7  0 0.00000000D+00 0.00000000D+00 0.00000000D+00 0.00000000D+00 0.00000000D+00
  <mgrwgt>
 0.3320050774D-03    5    2    0
 0.257834678146287D+03 0.000000000000000D+00 0.000000000000000D+00 0.257834678146287D+03
 0.257834678146287D+03 0.000000000000000D+00 0.000000000000000D+00 -.257834678146287D+03
 0.109598677763339D+03 0.582434282567917D+02 0.164442649372510D+02 0.582306096839891D+01
 0.147629448395312D+02 -.136630340191673D+01 -.887466051773740D+01 -.117182829818990D+02
 0.163877606138246D+03 0.110640119425027D+03 0.977277437441734D+02 0.711612385353924D+02
 0.227430127551459D+03 -.167517244279902D+03 -.105297348163687D+03 -.652660165218923D+02
 0.000000000000000D+00 0.000000000000000D+00 -.000000000000000D+00 0.000000000000000D+00
 0.613512567115385D+03 0.000000000000000D+00 0.000000000000000D+00 0.613512567115385D+03
 0.496666519271149D+03 0.000000000000000D+00 0.000000000000000D+00 -.496666519271149D+03
 0.108470330687753D+03 -.830998368288683D+01 0.578584257274513D+02 0.582306096839891D+01
 0.162308118962530D+02 -.108254203770712D+02 -.298854018332959D+01 -.117182829818990D+02
 0.177584156419037D+03 0.642794591839861D+01 0.162575804634147D+03 0.711612385353924D+02
 0.366417394183643D+03 -.348756105428103D+03 0.748207393156788D+01 -.652660165218923D+02
 0.441476393199848D+03 0.361463563569662D+03 -.224927764109836D+03 0.116846047844236D+03
0.184512134049D-05 0.000000000000D+00 0.000000000000D+00 0.133685003553D-06 0.000000000000D+00  7 2 -2 23 -13 13 23 21 0 0.23986416D+00 0.65597997D-02 0.58541800D+05 0.58541800D+05 0.58541800D+05 0.11413188D+01  1  2  2  1  7  1        2 0.327499173709D-03 0.100000000000D+01
-.102003073137D-06 0.000000000000D+00 -.708575177910D-08 0.133685003553D-06 0.000000000000D+00  7 2 -2 23 -13 13 23 21 2 0.23986416D+00 0.65597997D-02 0.58541800D+05 0.58541800D+05 0.58541800D+05 0.11413188D+01  1  2  3  1  7  1        2 -.235837291543D-04 0.100000000000D+01
0.120440612429D-06 0.000000000000D+00 0.000000000000D+00 0.133685003553D-06 0.000000000000D+00  7 2 -2 23 -13 13 23 21 2 0.23986416D+00 0.65597997D-02 0.58541800D+05 0.58541800D+05 0.58541800D+05 0.11413188D+01  1  2 15  1  7  1        2 0.278466000617D-04 0.100000000000D+01
0.692937798099D-07 0.000000000000D+00 -.491914895535D-06 0.133685003553D-06 0.000000000000D+00  7 2 -2 23 -13 13 23 21 2 0.67272235D+00 0.65597997D-02 0.58541800D+05 0.58541800D+05 0.58541800D+05 0.11413188D+01  1  2  5  1  7  1        2 0.241340530282D-06 0.100000000000D+01
0.354148691792D-07 0.000000000000D+00 -.569868521970D-07 0.133685003553D-06 0.000000000000D+00  7 21 -2 23 -13 13 23 -2 2 0.67272235D+00 0.65597997D-02 0.58541800D+05 0.58541800D+05 0.58541800D+05 0.11413188D+01  1  2  5  3  7  1        2 0.169223475093D-08 0.100000000000D+01
  </mgrwgt>
  </event>
  <event>
  8     66 0.25765000E-05 0.46980749E+03 0.75467711E-02 0.88538091E-01
        2 -1    0    0  501    0 0.00000000E+00 0.00000000E+00 0.29281262E+04 0.29281262E+04 0.32000000E+00 0.0000E+00 0.9000E+01
       -2 -1    0    0    0  501 0.00000000E+00 0.00000000E+00 -.12151962E+03 0.12152004E+03 0.32000000E+00 0.0000E+00 0.9000E+01
       25  2    1    2    0    0 0.39342948E+03 -.14231467E+03 0.55207089E+03 0.75482261E+03 0.29989112E+03 0.0000E+00 0.0000E+00
       23  2    1    2    0    0 -.39342948E+03 0.14231467E+03 0.22545357E+04 0.22948236E+04 0.90797632E+02 0.0000E+00 0.0000E+00
       23  1    3    3    0    0 0.30573597E+03 0.53988469E+01 0.36748884E+03 0.48668976E+03 0.91188000E+02 0.0000E+00 0.9000E+01
      -13  1    4    4    0    0 -.17213724E+03 0.20279866E+02 0.80828541E+03 0.82666064E+03 0.10565837E+00 0.0000E+00 0.9000E+01
       13  1    4    4    0    0 -.22129224E+03 0.12203481E+03 0.14462503E+04 0.14681630E+04 0.10565837E+00 0.0000E+00 0.9000E+01
       23  1    3    3    0    0 0.87693505E+02 -.14771352E+03 0.18458206E+03 0.26813284E+03 0.91188000E+02 0.0000E+00 0.9000E+01
#aMCatNLO 1  0  0  2  2 0.68842053D+03 0.00000000D+00  -5  7  0 0.00000000D+00 0.00000000D+00 0.00000000D+00 0.00000000D+00 0.00000000D+00
  <mgrwgt>
 0.1721587718D-03    5    2    0
 0.596511067523273D+03 0.000000000000000D+00 0.000000000000000D+00 0.596511067523273D+03
 0.596511067523273D+03 0.000000000000000D+00 0.000000000000000D+00 -.596511067523273D+03
 0.379569684964001D+03 0.305735971562094D+03 0.539884689310681D+01 -.205558416380546D+03
 0.211633258193282D+03 -.172137172530054D+03 0.202797286514918D+02 0.121433777890193D+03
 0.350641030056394D+03 -.221292304262635D+03 0.122034943688801D+03 0.243076779129586D+03
 0.251178161832868D+03 0.876935052305953D+02 -.147713519233400D+03 -.158952140639232D+03
 0.000000000000000D+00 -.000000000000000D+00 0.000000000000000D+00 -.000000000000000D+00
 0.994388711861523D+03 0.000000000000000D+00 0.000000000000000D+00 0.994388711861523D+03
 0.107628361411106D+04 0.000000000000000D+00 0.000000000000000D+00 -.107628361411106D+04
 0.613963417436712D+03 0.571129847888802D+03 -.138658181223464D+02 -.205558416380546D+03
 0.144423673265458D+03 -.770267740898863D+02 0.133757639074804D+02 0.121433777890193D+03
 0.272373399760023D+03 -.548718657921653D+02 0.109954657424352D+03 0.243076779129586D+03
 0.346637287471116D+03 0.247382758699261D+03 -.159305195790603D+03 -.158952140639232D+03
 0.693274548039276D+03 -.686613966706011D+03 0.498405925811171D+02 -.818949022495388D+02
0.269162509927D-04 0.000000000000D+00 0.000000000000D+00 0.169178035896D-05 0.000000000000D+00  7 2 -2 23 -13 13 23 21 0 0.45048098D+00 0.18695360D-01 0.22071908D+06 0.22071908D+06 0.22071908D+06 0.10945525D+01  1  2  2  2  7  2       -2 0.153281297783D-03 0.100000000000D+01
-.139168984026D-05 0.000000000000D+00 -.103365491024D-06 0.169178035896D-05 0.000000000000D+00  7 2 -2 23 -13 13 23 21 2 0.45048098D+00 0.18695360D-01 0.22071908D+06 0.22071908D+06 0.22071908D+06 0.10945525D+01  1  2  3  2  7  2       -2 -.949489739480D-05 0.100000000000D+01
0.168825037630D-05 0.000000000000D+00 0.000000000000D+00 0.169178035896D-05 0.000000000000D+00  7 2 -2 23 -13 13 23 21 2 0.45048098D+00 0.18695360D-01 0.22071908D+06 0.22071908D+06 0.22071908D+06 0.10945525D+01  1  2 15  2  7  2       -2 0.115182015676D-04 0.100000000000D+01
0.206271849722D-04 0.000000000000D+00 -.110305347378D-04 0.169178035896D-05 0.000000000000D+00  7 2 -2 23 -13 13 23 21 2 0.45048098D+00 0.93804633D-01 0.22071908D+06 0.22071908D+06 0.22071908D+06 0.10945525D+01  1  2  5  2  7  2       -2 0.623499354503D-05 0.100000000000D+01
0.373506164605D-05 0.000000000000D+00 -.216882857121D-05 0.169178035896D-05 0.000000000000D+00  7 2 21 23 -13 13 23 2 2 0.45048098D+00 0.93804633D-01 0.22071908D+06 0.22071908D+06 0.22071908D+06 0.10945525D+01  1  2  5  4  7  2       -2 0.106191763071D-04 0.100000000000D+01
  </mgrwgt>
  </event>
  <event>
  8     66 0.25765000E-05 0.32041761E+03 0.75467711E-02 0.91173735E-01
        2 -1    0    0  501    0 0.00000000E+00 0.00000000E+00 0.17945603E+04 0.17945604E+04 0.32000000E+00 0.0000E+00 0.9000E+01
       -2 -1    0    0    0  501 0.00000000E+00 0.00000000E+00 -.26287146E+03 0.26287165E+03 0.32000000E+00 0.0000E+00 0.9000E+01
       25  2    1    2    0    0 -.49302345E+03 0.33164739E+03 0.11987667E+04 0.13705758E+04 0.29727788E+03 0.0000E+00 0.0000E+00
       23  2    1    2    0    0 0.49302345E+03 -.33164739E+03 0.33292215E+03 0.68685625E+03 0.88725661E+02 0.0000E+00 0.0000E+00
       23  1    3    3    0    0 -.19167574E+03 0.96801933E+02 0.68649567E+03 0.72505293E+03 0.91188000E+02 0.0000E+00 0.9000E+01
      -11  1    4    4    0    0 0.47408002E+03 -.32031675E+03 0.33755385E+03 0.66430210E+03 0.51099893E-03 0.0000E+00 0.9000E+01
       11  1    4    4    0    0 0.18943435E+02 -.11330638E+02 -.46317009E+01 0.22554151E+02 0.51099893E-03 0.0000E+00 0.9000E+01
       23  1    3    3    0    0 -.30134771E+03 0.23484545E+03 0.51227106E+03 0.64552283E+03 0.91188000E+02 0.0000E+00 0.9000E+01
#aMCatNLO 1  0  0  2  1 0.14202420D+03 0.00000000D+00  -5  7  0 0.00000000D+00 0.00000000D+00 0.00000000D+00 0.00000000D+00 0.00000000D+00
  <mgrwgt>
 0.4725451094D-03    6    2    0
 0.686832528709642D+03 0.000000000000000D+00 0.000000000000000D+00 0.686832528709642D+03
 0.686832528709642D+03 0.000000000000000D+00 0.000000000000000D+00 -.686832528709642D+03
 0.320492494535348D+03 -.191675737467277D+03 0.968019332156903D+02 0.219749823894288D+03
 0.618585247362330D+03 0.474080017028862D+03 -.320316749825649D+03 -.235144690540445D+03
 0.389454165708248D+02 0.189434353255893D+02 -.113306375861007D+02 -.320859530298343D+02
 0.395641898950780D+03 -.301347714887175D+03 0.234845454196059D+03 0.474808196759916D+02
 0.000000000000000D+00 0.000000000000000D+00 0.000000000000000D+00 0.000000000000000D+00
 0.763240238751768D+03 0.000000000000000D+00 0.000000000000000D+00 0.763240238751768D+03
 0.759812839141729D+03 0.000000000000000D+00 0.000000000000000D+00 -.759812839141729D+03
 0.327890878622981D+03 -.213889996794330D+03 0.718210352884278D+02 0.219749823894288D+03
 0.614059293501908D+03 0.431848388917467D+03 -.367808046997465D+03 -.235144690540445D+03
 0.387269379723461D+02 0.162823031963675D+02 -.143231960645231D+02 -.320859530298343D+02
 0.400310421475071D+03 -.328617833138020D+03 0.204179023663346D+03 0.474808196759916D+02
 0.142065546321190D+03 0.943771378185161D+02 0.106131184110214D+03 0.342739961003918D+01
0.673562374964D-04 0.000000000000D+00 0.000000000000D+00 0.309820161977D-07 0.000000000000D+00  7 2 -2 23 -11 11 23 21 0 0.27608622D+00 0.40441780D-01 0.37228165D+06 0.37228165D+06 0.37228165D+06 0.10776832D+01  1  2  2  2  7  2       -2 0.429375055895D-03 0.100000000000D+01
-.367824581810D-05 0.000000000000D+00 -.258665687291D-06 0.309820161977D-07 0.000000000000D+00  7 2 -2 23 -11 11 23 21 2 0.27608622D+00 0.40441780D-01 0.37228165D+06 0.37228165D+06 0.37228165D+06 0.10776832D+01  1  2  3  2  7  2       -2 -.272321524598D-04 0.100000000000D+01
0.409529919322D-05 0.000000000000D+00 0.000000000000D+00 0.309820161977D-07 0.000000000000D+00  7 2 -2 23 -11 11 23 21 2 0.27608622D+00 0.40441780D-01 0.37228165D+06 0.37228165D+06 0.37228165D+06 0.10776832D+01  1  2 15  2  7  2       -2 0.303198365508D-04 0.100000000000D+01
0.513263373614D-04 0.000000000000D+00 0.000000000000D+00 0.309820161977D-07 0.000000000000D+00  7 2 -2 23 -11 11 23 21 2 0.27608622D+00 0.46756771D-01 0.47046149D+06 0.47046149D+06 0.47046149D+06 0.10703845D+01  1  2 12  2  7  2       -2 0.280438147468D-03 0.100000000000D+01
-.412465456894D-04 0.000000000000D+00 0.000000000000D+00 0.309820161977D-07 0.000000000000D+00  7 2 -2 23 -11 11 23 21 2 0.27608622D+00 0.40441780D-01 0.37228165D+06 0.37228165D+06 0.37228165D+06 0.10776832D+01  1  2  4  2  7  2       -2 -.305371711463D-03 0.100000000000D+01
0.113962564709D-05 0.000000000000D+00 0.000000000000D+00 0.309820161977D-07 0.000000000000D+00  7 2 21 23 -11 11 23 2 2 0.27608622D+00 0.46756771D-01 0.47046149D+06 0.47046149D+06 0.47046149D+06 0.10703845D+01  1  2 12  4  7  2       -2 0.650159334008D-04 0.100000000000D+01
  </mgrwgt>
  </event>
  <event>
  8     66 0.25765000E-05 0.32861245E+03 0.75467711E-02 0.95022651E-01
        2 -1    0    0  501    0 0.00000000E+00 0.00000000E+00 0.24030088E+04 0.24030088E+04 0.32000000E+00 0.0000E+00 0.9000E+01
       -2 -1    0    0    0  501 0.00000000E+00 0.00000000E+00 -.53351668E+02 0.53352628E+02 0.32000000E+00 0.0000E+00 0.9000E+01
       25  2    1    2    0    0 0.26788077E+03 0.53275799E+02 0.10668971E+04 0.11414164E+04 0.29993917E+03 0.0000E+00 0.0000E+00
       23  2    1    2    0    0 -.26788077E+03 -.53275799E+02 0.12827601E+04 0.13149451E+04 0.94914803E+02 0.0000E+00 0.0000E+00
       23  1    3    3    0    0 0.26867934E+03 0.49115459E+02 0.95242551E+03 0.99500277E+03 0.91188000E+02 0.0000E+00 0.9000E+01
      -11  1    4    4    0    0 -.14944013E+02 0.90681366E+01 0.25092333E+02 0.30580710E+02 0.51099893E-03 0.0000E+00 0.9000E+01
       11  1    4    4    0    0 -.25293676E+03 -.62343936E+02 0.12576677E+04 0.12843644E+04 0.51099893E-03 0.0000E+00 0.9000E+01
       23  1    3    3    0    0 -.79856466E+00 0.41603409E+01 0.11447156E+03 0.14641358E+03 0.91188000E+02 0.0000E+00 0.9000E+01
#aMCatNLO 1  0  0  1  1 0.26527886D+03 0.00000000D+00  -5  7  0 0.00000000D+00 0.00000000D+00 0.00000000D+00 0.00000000D+00 0.00000000D+00
  <mgrwgt>
 0.4634284351D-03    3    2    0
 0.358058280681930D+03 0.000000000000000D+00 0.000000000000000D+00 0.358058280681930D+03
 0.358058280681930D+03 0.000000000000000D+00 0.000000000000000D+00 -.358058280681930D+03
 0.287960187208165D+03 0.268679335156488D+03 0.491154585165400D+02 0.221464840067410D+01
 0.225646178882408D+02 -.149440127283340D+02 0.906813655018363D+01 -.142691052110823D+02
 0.278970261767386D+03 -.252936757772074D+03 -.623439360087444D+02 0.998029917449983D+02
 0.126621494500068D+03 -.798564656079918D+00 0.416034094202082D+01 -.877485349345902D+02
 0.000000000000000D+00 -.000000000000000D+00 -.000000000000000D+00 -.000000000000000D+00
 0.424155475622971D+03 0.000000000000000D+00 0.000000000000000D+00 0.424155475622971D+03
 0.797563024538668D+03 0.000000000000000D+00 0.000000000000000D+00 -.797563024538668D+03
 0.399016284660347D+03 0.369505492036513D+03 0.119831259558861D+03 0.221464840067410D+01
 0.214597306573222D+02 -.848264752186239D+01 0.135999032121454D+02 -.142691052110823D+02
 0.207523598104205D+03 -.181535031155198D+03 -.122653606691584D+02 0.998029917449983D+02
 0.135672961423597D+03 0.376978657817619D+02 0.311603377674608D+02 -.877485349345902D+02
 0.458045925316166D+03 -.217185679141214D+03 -.152326139869309D+03 -.373407548915697D+03
0.104207669825D-04 0.000000000000D+00 0.000000000000D+00 0.987327223142D-07 0.000000000000D+00  7 2 -2 23 -11 11 23 21 0 0.36969374D+00 0.82080244D-02 0.10798614D+06 0.10798614D+06 0.10798614D+06 0.11189941D+01  1  2  2  1  7  1        2 0.458445274800D-03 0.100000000000D+01
-.573747652769D-06 0.000000000000D+00 -.400184890636D-07 0.987327223142D-07 0.000000000000D+00  7 2 -2 23 -11 11 23 21 2 0.36969374D+00 0.82080244D-02 0.10798614D+06 0.10798614D+06 0.10798614D+06 0.11189941D+01  1  2  3  1  7  1        2 -.316056186895D-04 0.100000000000D+01
0.664208672643D-06 0.000000000000D+00 0.000000000000D+00 0.987327223142D-07 0.000000000000D+00  7 2 -2 23 -11 11 23 21 2 0.36969374D+00 0.82080244D-02 0.10798614D+06 0.10798614D+06 0.10798614D+06 0.11189941D+01  1  2 15  1  7  1        2 0.365887789457D-04 0.100000000000D+01
  </mgrwgt>
  </event>
  <event>
  8     66 0.25765000E-05 0.21047779E+03 0.75467711E-02 0.10308320E+00
        2 -1    0    0  501    0 0.00000000E+00 0.00000000E+00 0.17686773E+04 0.17686773E+04 0.32000000E+00 0.0000E+00 0.9000E+01
       -2 -1    0    0    0  501 0.00000000E+00 0.00000000E+00 -.88166782E+02 0.88167362E+02 0.32000000E+00 0.0000E+00 0.9000E+01
       25  2    1    2    0    0 0.19096381E+03 0.19695188E+02 0.31653126E+03 0.47634025E+03 0.29975476E+03 0.0000E+00 0.0000E+00
       23  2    1    2    0    0 -.19096381E+03 -.19695188E+02 0.13639793E+04 0.13805044E+04 0.92184681E+02 0.0000E+00 0.0000E+00
       23  1    3    3    0    0 0.13708314E+02 0.52387914E+02 0.64289299E+01 0.10624968E+03 0.91188000E+02 0.0000E+00 0.9000E+01
      -13  1    4    4    0    0 -.11444753E+02 -.82333184E+01 0.37718519E+03 0.37744861E+03 0.10565837E+00 0.0000E+00 0.9000E+01
       13  1    4    4    0    0 -.17951906E+03 -.11461870E+02 0.98679407E+03 0.10030558E+04 0.10565837E+00 0.0000E+00 0.9000E+01
       23  1    3    3    0    0 0.17725550E+03 -.32692726E+02 0.31010233E+03 0.37009057E+03 0.91188000E+02 0.0000E+00 0.9000E+01
#aMCatNLO 1  0  0  1  2 0.30163879D+01 0.00000000D+00  -5  7  0 0.00000000D+00 0.00000000D+00 0.00000000D+00 0.00000000D+00 0.00000000D+00
  <mgrwgt>
 0.6245830219D-03   10    2    0
 0.394891315416705D+03 0.000000000000000D+00 0.000000000000000D+00 0.394891315416705D+03
 0.394891315416705D+03 0.000000000000000D+00 0.000000000000000D+00 -.394891315416705D+03
 0.236122266271792D+03 0.137083136558254D+02 0.523879141693256D+02 -.210964598620308D+03
 0.848329334825976D+02 -.114445326659881D+02 -.823331414835171D+01 0.836532235688172D+02
 0.258553766069772D+03 -.179519278402791D+03 -.114618741390820D+02 0.185718884532035D+03
 0.210273665009249D+03 0.177255497412953D+03 -.326927258818919D+02 -.584075094805440D+02
 0.000000000000000D+00 -.000000000000000D+00 0.000000000000000D+00 0.000000000000000D+00
 0.396841276604410D+03 0.000000000000000D+00 0.000000000000000D+00 0.396841276604410D+03
 0.396062430840190D+03 0.000000000000000D+00 0.000000000000000D+00 -.396062430840190D+03
 0.235959077007924D+03 0.140526735738281D+02 0.515547783704977D+02 -.210964598620308D+03
 0.848459163446252D+02 -.113207603635130D+02 -.853276577063547D+01 0.836532235688172D+02
 0.258334206327671D+03 -.179142234271890D+03 -.123740853075983D+02 0.185718884532035D+03
 0.210649191322049D+03 0.177562539752913D+03 -.334355764629341D+02 -.584075094805440D+02
 0.311531644232965D+01 -.115221869133782D+01 0.278764917067015D+01 0.778845764219885D+00
0.398852235251D-05 0.000000000000D+00 0.000000000000D+00 0.633821421709D-06 0.000000000000D+00  7 2 -2 23 -13 13 23 21 0 0.27210425D+00 0.13564167D-01 0.63010328D+05 0.63010328D+05 0.63010328D+05 0.11385640D+01  1  2  2  1  7  1        2 0.180341398553D-03 0.100000000000D+01
-.166277876365D-06 0.000000000000D+00 -.153169760357D-07 0.633821421709D-06 0.000000000000D+00  7 2 -2 23 -13 13 23 21 2 0.27210425D+00 0.13564167D-01 0.63010328D+05 0.63010328D+05 0.63010328D+05 0.11385640D+01  1  2  3  1  7  1        2 -.974614270866D-05 0.100000000000D+01
0.238755325473D-06 0.000000000000D+00 0.000000000000D+00 0.633821421709D-06 0.000000000000D+00  7 2 -2 23 -13 13 23 21 2 0.27210425D+00 0.13564167D-01 0.63010328D+05 0.63010328D+05 0.63010328D+05 0.11385640D+01  1  2 15  1  7  1        2 0.139943059497D-04 0.100000000000D+01
-.921800539784D-04 0.000000000000D+00 0.000000000000D+00 0.633821421709D-06 0.000000000000D+00  7 2 -2 23 -13 13 23 21 2 0.27210425D+00 0.13564167D-01 0.63010328D+05 0.63010328D+05 0.63010328D+05 0.11385640D+01  1  2  4  1  7  1        2 -.540300357815D-02 0.100000000000D+01
-.632839315602D-03 0.000000000000D+00 -.644508998392D-04 0.633821421709D-06 0.000000000000D+00  7 2 -2 23 -13 13 23 21 2 0.27386568D+00 0.13564167D-01 0.63010328D+05 0.63010328D+05 0.63010328D+05 0.11385640D+01  1  2  5  1  7  1        2 -.365794567948D-01 0.100000000000D+01
0.633243345572D-03 0.000000000000D+00 0.644495581543D-04 0.633821421709D-06 0.000000000000D+00  7 2 -2 23 -13 13 23 21 2 0.27210425D+00 0.13564167D-01 0.63010328D+05 0.63010328D+05 0.63010328D+05 0.11385640D+01  1  2  6  1  7  1        2 0.371166636848D-01 0.100000000000D+01
0.921808420168D-04 0.000000000000D+00 0.000000000000D+00 0.633821421709D-06 0.481274368914D-06  7 2 -2 23 -13 13 23 21 2 0.27344789D+00 0.13604394D-01 0.63716561D+05 0.63716561D+05 0.63716561D+05 0.11381484D+01  1  2 11  1  7  1        2 0.531580211928D-02 0.100000000000D+01
0.207646727172D-08 0.000000000000D+00 0.000000000000D+00 0.633821421709D-06 0.000000000000D+00  7 21 -2 23 -13 13 23 -2 2 0.27384978D+00 0.13564167D-01 0.63716561D+05 0.63716561D+05 0.63716561D+05 0.11381484D+01  1  2 12  3  7  1        2 0.328946386801D-07 0.100000000000D+01
-.757283785187D-06 0.000000000000D+00 -.772264839442D-07 0.633821421709D-06 0.000000000000D+00  7 21 -2 23 -13 13 23 -2 2 0.27386568D+00 0.13564167D-01 0.63010328D+05 0.63010328D+05 0.63010328D+05 0.11385640D+01  1  2  5  3  7  1        2 -.120132321926D-04 0.100000000000D+01
0.124078313341D-06 0.000000000000D+00 0.000000000000D+00 0.633821421709D-06 0.441853145329D-09  7 21 -2 23 -13 13 23 -2 2 0.27344789D+00 0.13604394D-01 0.63716561D+05 0.63716561D+05 0.63716561D+05 0.11381484D+01  1  2 11  3  7  1        2 0.196836649372D-05 0.100000000000D+01
  </mgrwgt>
  </event>
  <event>
  8     66 0.25765000E-05 0.96447404E+03 0.75467711E-02 0.78409755E-01
        2 -1    0    0  501    0 0.00000000E+00 0.00000000E+00 0.10116756E+04 0.10116757E+04 0.32000000E+00 0.0000E+00 0.9000E+01
       -2 -1    0    0    0  501 0.00000000E+00 0.00000000E+00 -.93412621E+03 0.93412627E+03 0.32000000E+00 0.0000E+00 0.9000E+01
       25  2    1    2    0    0 -.13187983E+03 0.93096622E+03 0.14571079E+03 0.99854405E+03 0.30293263E+03 0.0000E+00 0.0000E+00
       23  2    1    2    0    0 0.13187983E+03 -.93096622E+03 -.68161392E+02 0.94725788E+03 0.92526334E+02 0.0000E+00 0.0000E+00
       23  1    3    3    0    0 0.58263942E+02 0.33818846E+03 0.93660724E+02 0.36722432E+03 0.91188000E+02 0.0000E+00 0.9000E+01
      -13  1    4    4    0    0 -.97942671E+01 -.15506940E+02 0.61188374E+00 0.18351524E+02 0.10565837E+00 0.0000E+00 0.9000E+01
       13  1    4    4    0    0 0.14167410E+03 -.91545928E+03 -.68773276E+02 0.92890636E+03 0.10565837E+00 0.0000E+00 0.9000E+01
       23  1    3    3    0    0 -.19014378E+03 0.59277777E+03 0.52050071E+02 0.63131973E+03 0.91188000E+02 0.0000E+00 0.9000E+01
#aMCatNLO 1  0  0  2  1 0.24962788D+04 0.00000000D+00  -5  7  0 0.00000000D+00 0.00000000D+00 0.00000000D+00 0.00000000D+00 0.00000000D+00
  <mgrwgt>
 0.5814390566D-03    3    2    0
 0.972127981704377D+03 0.000000000000000D+00 0.000000000000000D+00 0.972127981704377D+03
 0.972127981704377D+03 0.000000000000000D+00 0.000000000000000D+00 -.972127981704377D+03
 0.363780527411666D+03 0.582639420947273D+02 0.338188456755558D+03 0.790879355451006D+02
 0.183405181832840D+02 -.979446458768956D+01 -.155057666043901D+02 -.119468330731747D+00
 0.932389288997200D+03 0.141674298137691D+03 -.915460457848508D+03 -.105878843966565D+03
 0.629745628816603D+03 -.190143775644728D+03 0.592777767697340D+03 0.269103767521962D+02
 0.000000000000000D+00 0.000000000000000D+00 -.000000000000000D+00 0.000000000000000D+00
 0.306943716678924D+04 0.000000000000000D+00 0.000000000000000D+00 0.306943716678924D+04
 0.262942623150693D+04 0.000000000000000D+00 0.000000000000000D+00 -.262942623150693D+04
 0.749493615705028D+03 -.409434921708075D+03 0.616062961048392D+03 0.790879355451006D+02
 0.304899615679376D+02 -.303086928573370D+02 -.331762279529626D+01 -.119468330731747D+00
 0.760635834740375D+03 -.569584408136477D+03 -.492879443169737D+03 -.105878843966565D+03
 0.162348219387043D+04 -.113674987359047D+04 0.115518601921311D+04 0.269103767521962D+02
 0.253476179241241D+04 0.214607789629236D+04 -.127505191429647D+04 0.440010935282310D+03
0.595359633028D-03 0.000000000000D+00 0.000000000000D+00 0.112595487683D-06 0.000000000000D+00  7 2 -2 23 -13 13 23 21 0 0.15564241D+00 0.14371173D+00 0.93021017D+06 0.93021017D+06 0.93021017D+06 0.10499618D+01  1  2  2  2  7  2       -2 0.577357710127D-03 0.100000000000D+01
-.330730224582D-04 0.000000000000D+00 -.228633775262D-05 0.112595487683D-06 0.000000000000D+00  7 2 -2 23 -13 13 23 21 2 0.15564241D+00 0.14371173D+00 0.93021017D+06 0.93021017D+06 0.93021017D+06 0.10499618D+01  1  2  3  2  7  2       -2 -.353579026399D-04 0.100000000000D+01
0.368906262233D-04 0.000000000000D+00 0.000000000000D+00 0.112595487683D-06 0.000000000000D+00  7 2 -2 23 -13 13 23 21 2 0.15564241D+00 0.14371173D+00 0.93021017D+06 0.93021017D+06 0.93021017D+06 0.10499618D+01  1  2 15  2  7  2       -2 0.394392490731D-04 0.100000000000D+01
  </mgrwgt>
  </event>
  <event>
  8     66 0.25765000E-05 0.28709210E+03 0.75467711E-02 0.10040378E+00
        2 -1    0    0  501    0 0.00000000E+00 0.00000000E+00 0.78746781E+03 0.78746787E+03 0.32000000E+00 0.0000E+00 0.9000E+01
       -2 -1    0    0    0  501 0.00000000E+00 0.00000000E+00 -.14882111E+03 0.14882145E+03 0.32000000E+00 0.0000E+00 0.9000E+01
       25  2    1    2    0    0 -.10150119E+03 -.23357595E+03 0.48648257E+03 0.62570290E+03 0.29996433E+03 0.0000E+00 0.0000E+00
       23  2    1    2    0    0 0.10150119E+03 0.23357595E+03 0.15216413E+03 0.31058643E+03 0.91922747E+02 0.0000E+00 0.0000E+00
       23  1    3    3    0    0 -.14362377E+03 -.18476403E+03 0.20953783E+03 0.32708850E+03 0.91188000E+02 0.0000E+00 0.9000E+01
      -11  1    4    4    0    0 0.40585199E+02 0.79699874E+02 0.10616569E+03 0.13881780E+03 0.51099893E-03 0.0000E+00 0.9000E+01
       11  1    4    4    0    0 0.60915994E+02 0.15387608E+03 0.45998438E+02 0.17176863E+03 0.51099893E-03 0.0000E+00 0.9000E+01
       23  1    3    3    0    0 0.42122578E+02 -.48811927E+02 0.27694474E+03 0.29861439E+03 0.91188000E+02 0.0000E+00 0.9000E+01
#aMCatNLO 1  0  0  1  1 0.12259205D+01 0.00000000D+00  -5  7  0 0.00000000D+00 0.00000000D+00 0.00000000D+00 0.00000000D+00 0.00000000D+00
  <mgrwgt>
 0.2236395569D-03   10    2    0
 0.342333205996477D+03 0.000000000000000D+00 0.000000000000000D+00 0.342333205996477D+03
 0.342333205996477D+03 0.000000000000000D+00 0.000000000000000D+00 -.342333205996477D+03
 0.251843561068397D+03 -.143623771305185D+03 -.184764026313310D+03 -.185578771464218D+02
 0.908051819206442D+02 0.405851993834791D+02 0.796998736636070D+02 0.156956297309038D+02
 0.191988949053328D+03 0.609159944219348D+02 0.153876079346079D+03 -.973198355283610D+02
 0.150028719950584D+03 0.421225774997711D+02 -.488119266963765D+02 0.100182082943879D+03
 0.000000000000000D+00 0.000000000000000D+00 -.000000000000000D+00 0.000000000000000D+00
 0.343566829016163D+03 0.000000000000000D+00 0.000000000000000D+00 0.343566829016163D+03
 0.342638456828130D+03 0.000000000000000D+00 0.000000000000000D+00 -.342638456828130D+03
 0.251676982524138D+03 -.143839945857416D+03 -.184368455436414D+03 -.185578771464218D+02
 0.908957050453453D+02 0.405071904355230D+02 0.798426197344567D+02 0.156956297309038D+02
 0.192178724538979D+03 0.607510611816184D+02 0.154177885390444D+03 -.973198355283610D+02
 0.149916097411603D+03 0.419938033367056D+02 -.485762869872638D+02 0.100182082943879D+03
 0.153777632422828D+01 0.587890903569211D+00 -.107576270122323D+01 0.928372188033717D+00
0.119200203115D-05 0.000000000000D+00 0.000000000000D+00 0.546224382572D-06 0.000000000000D+00  7 2 -2 23 -11 11 23 21 0 0.12114893D+00 0.22895587D-01 0.95410307D+05 0.95410307D+05 0.95410307D+05 0.11234003D+01  1  2  2  1  7  1        2 0.832220246936D-04 0.100000000000D+01
-.653712222178D-07 0.000000000000D+00 -.457760166094D-08 0.546224382572D-06 0.000000000000D+00  7 2 -2 23 -11 11 23 21 2 0.12114893D+00 0.22895587D-01 0.95410307D+05 0.95410307D+05 0.95410307D+05 0.11234003D+01  1  2  3  1  7  1        2 -.575992713829D-05 0.100000000000D+01
0.756892421319D-07 0.000000000000D+00 0.000000000000D+00 0.546224382572D-06 0.000000000000D+00  7 2 -2 23 -11 11 23 21 2 0.12114893D+00 0.22895587D-01 0.95410307D+05 0.95410307D+05 0.95410307D+05 0.11234003D+01  1  2 15  1  7  1        2 0.666905872402D-05 0.100000000000D+01
-.100982420088D-03 0.000000000000D+00 0.000000000000D+00 0.546224382572D-06 0.000000000000D+00  7 2 -2 23 -11 11 23 21 2 0.12114893D+00 0.22895587D-01 0.95410307D+05 0.95410307D+05 0.95410307D+05 0.11234003D+01  1  2  4  1  7  1        2 -.889766723369D-02 0.100000000000D+01
-.454517122762D-03 0.000000000000D+00 -.361074639014D-04 0.546224382572D-06 0.000000000000D+00  7 2 -2 23 -11 11 23 21 2 0.12165288D+00 0.22895587D-01 0.95410307D+05 0.95410307D+05 0.95410307D+05 0.11234003D+01  1  2  5  1  7  1        2 -.398403530789D-01 0.100000000000D+01
0.454663403828D-03 0.000000000000D+00 0.361071528014D-04 0.546224382572D-06 0.000000000000D+00  7 2 -2 23 -11 11 23 21 2 0.12114893D+00 0.22895587D-01 0.95410307D+05 0.95410307D+05 0.95410307D+05 0.11234003D+01  1  2  6  1  7  1        2 0.400608706652D-01 0.100000000000D+01
0.100983056657D-03 0.000000000000D+00 0.000000000000D+00 0.546224382572D-06 0.244572628648D-05  7 2 -2 23 -11 11 23 21 2 0.12158549D+00 0.22916002D-01 0.95787386D+05 0.95787386D+05 0.95787386D+05 0.11232591D+01  1  2 11  1  7  1        2 0.884197741025D-02 0.100000000000D+01
0.355919045520D-11 0.000000000000D+00 0.000000000000D+00 0.546224382572D-06 0.000000000000D+00  7 21 -2 23 -11 11 23 -2 2 0.12163939D+00 0.22895587D-01 0.95787386D+05 0.95787386D+05 0.95787386D+05 0.11232591D+01  1  2 12  3  7  1        2 0.327316852296D-09 0.100000000000D+01
-.351344014847D-06 0.000000000000D+00 -.279296903902D-07 0.546224382572D-06 0.000000000000D+00  7 21 -2 23 -11 11 23 -2 2 0.12165288D+00 0.22895587D-01 0.95410307D+05 0.95410307D+05 0.95410307D+05 0.11234003D+01  1  2  5  3  7  1        2 -.323160950081D-04 0.100000000000D+01
0.760997398461D-07 0.000000000000D+00 0.000000000000D+00 0.546224382572D-06 0.164071294953D-08  7 21 -2 23 -11 11 23 -2 2 0.12158549D+00 0.22916002D-01 0.95787386D+05 0.95787386D+05 0.95787386D+05 0.11232591D+01  1  2 11  3  7  1        2 0.699640535911D-05 0.100000000000D+01
  </mgrwgt>
  </event>
  <event>
  9     66 0.25765000E-05 0.15371646E+03 0.75467711E-02 0.10919409E+00
        2 -1    0    0  501    0 0.00000000E+00 0.00000000E+00 0.70418858E+03 0.70418865E+03 0.32000000E+00 0.0000E+00 0.9000E+01
       21 -1    0    0  502  501 0.00000000E+00 0.00000000E+00 -.63681837E+02 0.63686253E+02 0.75000000E+00 0.0000E+00 0.9000E+01
       25  2    1    2    0    0 -.38379646E+01 -.28952857E+01 0.40918306E+03 0.50735386E+03 0.29992341E+03 0.0000E+00 0.0000E+00
       23  2    1    2    0    0 -.11224656E+02 0.15034554E+02 0.16379450E+03 0.19027478E+03 0.94993810E+02 0.0000E+00 0.0000E+00
       23  1    3    3    0    0 -.68160788E+02 0.82110935E+02 0.11509540E+03 0.18152218E+03 0.91188000E+02 0.0000E+00 0.9000E+01
      -13  1    4    4    0    0 0.41678562E+01 0.13221898E+02 -.91669427E+01 0.16620277E+02 0.10565837E+00 0.0000E+00 0.9000E+01
       13  1    4    4    0    0 -.15392512E+02 0.18126554E+01 0.17296144E+03 0.17365451E+03 0.10565837E+00 0.0000E+00 0.9000E+01
       23  1    3    3    0    0 0.64322824E+02 -.85006221E+02 0.29408765E+03 0.32583168E+03 0.91188000E+02 0.0000E+00 0.9000E+01
        2  1    1    2  502    0 0.15062620E+02 -.12139268E+02 0.67529185E+02 0.70246264E+02 0.32000000E+00 0.0000E+00 0.9000E+01
#aMCatNLO 2  0  0  2  2 0.19345396D+02 0.00000000D+00  -5  7  0 0.00000000D+00 0.00000000D+00 0.00000000D+00 0.00000000D+00 0.00000000D+00
  <mgrwgt>
 0.4026231616D-04    1    2    0
 0.198751223622732D+03 0.000000000000000D+00 0.000000000000000D+00 0.198751223622732D+03
 0.198751223622732D+03 0.000000000000000D+00 0.000000000000000D+00 -.198751223622732D+03
 0.147554512799158D+03 -.624278925732689D+02 0.774502825084686D+02 -.596765856229711D+02
 0.420410974510266D+02 0.571547827752861D+01 0.119997304012632D+02 -.398847546468924D+02
 0.548944175482666D+02 -.133574755124892D+02 0.229764488296161D+00 0.532439868358542D+02
 0.153012419447012D+03 0.700698898082295D+02 -.896797773980279D+02 0.463173534340094D+02
 0.000000000000000D+00 0.000000000000000D+00 -.000000000000000D+00 0.000000000000000D+00
 0.220562068227014D+03 0.000000000000000D+00 0.000000000000000D+00 0.220562068227014D+03
 0.203322885001525D+03 0.000000000000000D+00 0.000000000000000D+00 -.203322885001525D+03
 0.152459984019149D+03 -.681087781110138D+02 0.820286221737753D+02 -.596765856229711D+02
 0.422407359314934D+02 0.411957056828434D+01 0.132859044526246D+02 -.398847546468924D+02
 0.554725617369516D+02 -.154473151139592D+02 0.191400816438631D+01 0.532439868358542D+02
 0.147799631872641D+03 0.643739022808132D+02 -.850892667361611D+02 0.463173534340094D+02
 0.259120396683044D+02 0.150626203758755D+02 -.121392680546252D+02 0.172391832254895D+02
0.637224783137D-08 0.000000000000D+00 0.000000000000D+00 0.184073067377D-07 0.156908146919D-11  7 2 21 23 -13 13 23 2 2 0.10833653D+00 0.97975040D-02 0.27137731D+05 0.27137731D+05 0.27137731D+05 0.11713980D+01  1  2  1  4  7  2       -2 0.402623161626D-04 0.100000000000D+01
  </mgrwgt>
  </event>
  <event>
  8     66 0.25765000E-05 0.15441834E+03 0.75467711E-02 0.90390728E-01
        2 -1    0    0  501    0 0.00000000E+00 0.00000000E+00 0.42989620E+03 0.42989632E+03 0.32000000E+00 0.0000E+00 0.9000E+01
       -2 -1    0    0    0  501 0.00000000E+00 0.00000000E+00 -.23688708E+03 0.23688730E+03 0.32000000E+00 0.0000E+00 0.9000E+01
       25  2    1    2    0    0 -.51768541E+02 -.15918606E+02 -.12616013E+03 0.33014559E+03 0.30024381E+03 0.0000E+00 0.0000E+00
       23  2    1    2    0    0 0.51768541E+02 0.15918606E+02 0.31916925E+03 0.33663803E+03 0.92318830E+02 0.0000E+00 0.0000E+00
       23  1    3    3    0    0 -.23186821E+02 -.41859404E+02 0.60074611E+02 0.11922268E+03 0.91188000E+02 0.0000E+00 0.9000E+01
      -11  1    4    4    0    0 -.26925812E+02 0.31044173E+01 0.90184723E+02 0.94169640E+02 0.51099893E-03 0.0000E+00 0.9000E+01
       11  1    4    4    0    0 0.78694353E+02 0.12814189E+02 0.22898453E+03 0.24246839E+03 0.51099893E-03 0.0000E+00 0.9000E+01
       23  1    3    3    0    0 -.28581720E+02 0.25940798E+02 -.18623474E+03 0.21092290E+03 0.91188000E+02 0.0000E+00 0.9000E+01
#aMCatNLO 1  0  0  1  2 0.70939780D+03 0.00000000D+00  -5  7  0 0.00000000D+00 0.00000000D+00 0.00000000D+00 0.00000000D+00 0.00000000D+00
  <mgrwgt>
 0.2663794117D-03    3    2    0
 0.319119048450107D+03 0.000000000000000D+00 0.000000000000000D+00 0.319119048450107D+03
 0.319119048450107D+03 0.000000000000000D+00 0.000000000000000D+00 -.319119048450107D+03
 0.106387859688850D+03 -.231868211543570D+02 -.418594041138548D+02 0.267074326202126D+02
 0.711087276216682D+02 -.269258120924187D+02 0.310441731854544D+01 0.657405079098776D+02
 0.184065861783123D+03 0.786943530276795D+02 0.128141891784729D+02 0.165901286406155D+03
 0.276675647806573D+03 -.285817197809037D+02 0.259407976168365D+02 -.258349226936245D+03
 0.000000000000000D+00 -.000000000000000D+00 0.000000000000000D+00 -.000000000000000D+00
 0.692863020415275D+03 0.000000000000000D+00 0.000000000000000D+00 0.692863020415275D+03
 0.106029212926761D+04 0.000000000000000D+00 0.000000000000000D+00 -.106029212926761D+04
 0.159593158801239D+03 0.798832750821839D+02 -.100300051830188D+03 0.267074326202126D+02
 0.785807939323091D+02 0.310802572119033D+02 -.297849694716190D+02 0.657405079098776D+02
 0.344266177291461D+03 0.283427887854318D+03 -.103269532690425D+03 0.165901286406155D+03
 0.371809896781695D+03 0.222712405898254D+03 -.116542735514794D+03 -.258349226936245D+03
 0.798905122876185D+03 -.617103826046659D+03 0.349897289507026D+03 -.367429108852340D+03
0.402074777067D-05 0.000000000000D+00 0.000000000000D+00 0.344650357477D-06 0.000000000000D+00  7 2 -2 23 -11 11 23 21 0 0.66137902D-01 0.36444192D-01 0.23845025D+05 0.23845025D+05 0.23845025D+05 0.11767031D+01  1  2  2  1  7  1        2 0.251850085942D-03 0.100000000000D+01
-.802655371603D-07 0.000000000000D+00 -.154407301266D-07 0.344650357477D-06 0.000000000000D+00  7 2 -2 23 -11 11 23 21 2 0.66137902D-01 0.36444192D-01 0.23845025D+05 0.23845025D+05 0.23845025D+05 0.11767031D+01  1  2  3  1  7  1        2 -.696142509602D-05 0.100000000000D+01
0.247789301850D-06 0.000000000000D+00 0.000000000000D+00 0.344650357477D-06 0.000000000000D+00  7 2 -2 23 -11 11 23 21 2 0.66137902D-01 0.36444192D-01 0.23845025D+05 0.23845025D+05 0.23845025D+05 0.11767031D+01  1  2 15  1  7  1        2 0.214907508932D-04 0.100000000000D+01
  </mgrwgt>
  </event>
  <event>
  8     66 0.25765000E-05 0.28981705E+03 0.75467711E-02 0.96738736E-01
        2 -1    0    0  501    0 0.00000000E+00 0.00000000E+00 0.20869737E+04 0.20869737E+04 0.32000000E+00 0.0000E+00 0.9000E+01
       -2 -1    0    0    0  501 0.00000000E+00 0.00000000E+00 -.50604334E+02 0.50605346E+02 0.32000000E+00 0.0000E+00 0.9000E+01
       25  2    1    2    0    0 -.12413333E+02 0.20013624E+03 0.74254691E+03 0.82515289E+03 0.29881897E+03 0.0000E+00 0.0000E+00
       23  2    1    2    0    0 0.12413333E+02 -.20013624E+03 0.12938225E+04 0.13124262E+04 0.90979795E+02 0.0000E+00 0.0000E+00
       23  1    3    3    0    0 0.23941416E+02 -.38339374E+02 0.19801496E+03 0.22263934E+03 0.91188000E+02 0.0000E+00 0.9000E+01
      -11  1    4    4    0    0 -.27070768E+02 -.15578022E+02 0.16381896E+03 0.16676976E+03 0.51099893E-03 0.0000E+00 0.9000E+01
       11  1    4    4    0    0 0.39484100E+02 -.18455822E+03 0.11300035E+04 0.11456564E+04 0.51099893E-03 0.0000E+00 0.9000E+01
       23  1    3    3    0    0 -.36354749E+02 0.23847561E+03 0.54453194E+03 0.60251355E+03 0.91188000E+02 0.0000E+00 0.9000E+01
#aMCatNLO 1  0  0  1  1 0.21531311D+03 0.00000000D+00  -5  7  0 0.00000000D+00 0.00000000D+00 0.00000000D+00 0.00000000D+00 0.00000000D+00
  <mgrwgt>
 0.3107365583D-03    7    2    0
 0.324978493746935D+03 0.000000000000000D+00 0.000000000000000D+00 0.324978493746935D+03
 0.324978493746935D+03 0.000000000000000D+00 0.000000000000000D+00 -.324978493746935D+03
 0.111819075678792D+03 0.239414159170585D+02 -.383393744834607D+02 -.463158213763164D+02
 0.352140794598247D+02 -.270707675809249D+02 -.155780222478984D+02 0.162643831000865D+02
 0.227440711930689D+03 0.394841004610068D+02 -.184558215610690D+03 0.126919455974730D+03
 0.275483120424565D+03 -.363547487971404D+02 0.238475612342049D+03 -.968680176985003D+02
 0.000000000000000D+00 -.000000000000000D+00 -.000000000000000D+00 0.000000000000000D+00
 0.453532891768493D+03 0.000000000000000D+00 0.000000000000000D+00 0.453532891768493D+03
 0.446584800305454D+03 0.000000000000000D+00 0.000000000000000D+00 -.446584800305454D+03
 0.123973066876115D+03 0.616452224988094D+02 -.332983663259780D+02 -.463158213763164D+02
 0.275234168616112D+02 -.170388708387512D+02 -.142367552009579D+02 0.162643831000865D+02
 0.244458205323947D+03 0.114942024162443D+03 -.174469472764504D+03 0.126919455974730D+03
 0.288737812849731D+03 0.538657170209490D+02 0.250538110678252D+03 -.968680176985003D+02
 0.215425190162544D+03 -.213414092843451D+03 -.285335163868127D+02 0.694809146303897D+01
0.343832022329D-05 0.000000000000D+00 0.000000000000D+00 0.111991979277D-06 0.000000000000D+00  7 2 -2 23 -11 11 23 21 0 0.32107296D+00 0.77853618D-02 0.83993921D+05 0.83993921D+05 0.83993921D+05 0.11279919D+01  1  2  2  1  7  1        2 0.246061350749D-03 0.100000000000D+01
-.187972450610D-06 0.000000000000D+00 -.132040549879D-07 0.111991979277D-06 0.000000000000D+00  7 2 -2 23 -11 11 23 21 2 0.32107296D+00 0.77853618D-02 0.83993921D+05 0.83993921D+05 0.83993921D+05 0.11279919D+01  1  2  3  1  7  1        2 -.171160382234D-04 0.100000000000D+01
0.218371479555D-06 0.000000000000D+00 0.000000000000D+00 0.111991979277D-06 0.000000000000D+00  7 2 -2 23 -11 11 23 21 2 0.32107296D+00 0.77853618D-02 0.83993921D+05 0.83993921D+05 0.83993921D+05 0.11279919D+01  1  2 15  1  7  1        2 0.198840552369D-04 0.100000000000D+01
-.950071337703D-06 0.000000000000D+00 0.000000000000D+00 0.111991979277D-06 0.000000000000D+00  7 2 -2 23 -11 11 23 21 2 0.32107296D+00 0.77853618D-02 0.83993921D+05 0.83993921D+05 0.83993921D+05 0.11279919D+01  1  2  4  1  7  1        2 -.865097905478D-04 0.100000000000D+01
-.159530645472D-05 0.000000000000D+00 -.101115408664D-05 0.111991979277D-06 0.000000000000D+00  7 2 -2 23 -11 11 23 21 2 0.50478951D+00 0.77853618D-02 0.83993921D+05 0.83993921D+05 0.83993921D+05 0.11279919D+01  1  2  5  1  7  1        2 -.287027069539D-04 0.100000000000D+01
0.194559903460D-05 0.000000000000D+00 0.915797243051D-06 0.111991979277D-06 0.000000000000D+00  7 2 -2 23 -11 11 23 21 2 0.32107296D+00 0.77853618D-02 0.83993921D+05 0.83993921D+05 0.83993921D+05 0.11279919D+01  1  2  6  1  7  1        2 0.177158659875D-03 0.100000000000D+01
-.427328329516D-07 0.000000000000D+00 -.527638368489D-07 0.111991979277D-06 0.000000000000D+00  7 21 -2 23 -11 11 23 -2 2 0.50478951D+00 0.77853618D-02 0.83993921D+05 0.83993921D+05 0.83993921D+05 0.11279919D+01  1  2  5  3  7  1        2 -.389718054160D-07 0.100000000000D+01
  </mgrwgt>
  </event>
  <event>
  8     66 0.25765000E-05 0.34271976E+03 0.75467711E-02 0.95958527E-01
        2 -1    0    0  501    0 0.00000000E+00 0.00000000E+00 0.27881624E+03 0.27881642E+03 0.32000000E+00 0.0000E+00 0.9000E+01
       -2 -1    0    0    0  501 0.00000000E+00 0.00000000E+00 -.46737385E+03 0.46737396E+03 0.32000000E+00 0.0000E+00 0.9000E+01
       25  2    1    2    0    0 0.27530179E+03 -.65102202E+02 -.17805371E+03 0.44923893E+03 0.30013850E+03 0.0000E+00 0.0000E+00
       23  2    1    2    0    0 -.27530179E+03 0.65102202E+02 -.10503905E+02 0.29695146E+03 0.89668649E+02 0.0000E+00 0.0000E+00
       23  1    3    3    0    0 0.24554013E+03 -.11878768E+03 -.18002059E+03 0.33929800E+03 0.91188000E+02 0.0000E+00 0.9000E+01
      -13  1    4    4    0    0 -.25580917E+03 0.44681432E+02 -.31754503E+02 0.26161636E+03 0.10565837E+00 0.0000E+00 0.9000E+01
       13  1    4    4    0    0 -.19492618E+02 0.20420770E+02 0.21250598E+02 0.35335097E+02 0.10565837E+00 0.0000E+00 0.9000E+01
       23  1    3    3    0    0 0.29761657E+02 0.53685479E+02 0.19668851E+01 0.10994092E+03 0.91188000E+02 0.0000E+00 0.9000E+01
#aMCatNLO 1  0  0  2  1 0.18117326D+03 0.00000000D+00  -5  7  0 0.00000000D+00 0.00000000D+00 0.00000000D+00 0.00000000D+00 0.00000000D+00
  <mgrwgt>
 0.2857520733D-03    3    2    0
 0.360986883089173D+03 0.000000000000000D+00 0.000000000000000D+00 0.360986883089173D+03
 0.360986883089173D+03 0.000000000000000D+00 0.000000000000000D+00 -.360986883089173D+03
 0.303662908873680D+03 0.245540131191760D+03 -.118787681094471D+03 -.974445569344753D+02
 0.262098556573135D+03 -.255809497761466D+03 0.446814657692394D+02 0.355066307815797D+02
 0.420700205820181D+02 -.194922901244367D+02 0.204207363314292D+02 0.311918384382592D+02
 0.114142280149514D+03 0.297616566941426D+02 0.536854789938021D+02 0.307460877146364D+02
 0.000000000000000D+00 0.000000000000000D+00 -.000000000000000D+00 0.000000000000000D+00
 0.668310826729685D+03 0.000000000000000D+00 0.000000000000000D+00 0.668310826729685D+03
 0.399889799692466D+03 0.000000000000000D+00 0.000000000000000D+00 -.399889799692466D+03
 0.273751100441710D+03 0.234070537997132D+03 -.483730835757241D+02 -.974445569344753D+02
 0.291611767365717D+03 -.266808247464083D+03 0.112205441587486D+03 0.355066307815797D+02
 0.492185484769381D+02 -.213056211720630D+02 0.315532127602053D+02 0.311918384382592D+02
 0.129777279192678D+03 0.249165056019741D+02 0.834310295362882D+02 0.307460877146364D+02
 0.323841930945108D+03 0.291268250370393D+02 -.178816600308255D+03 0.268421027037219D+03
0.108541211892D-04 0.000000000000D+00 0.000000000000D+00 0.321991092516D-06 0.000000000000D+00  7 2 -2 23 -13 13 23 21 0 0.42894829D-01 0.71903692D-01 0.11745683D+06 0.11745683D+06 0.11745683D+06 0.11160324D+01  1  2  2  2  7  2       -2 0.282554190606D-03 0.100000000000D+01
-.601029690228D-06 0.000000000000D+00 -.416826833223D-07 0.321991092516D-06 0.000000000000D+00  7 2 -2 23 -13 13 23 21 2 0.42894829D-01 0.71903692D-01 0.11745683D+06 0.11745683D+06 0.11745683D+06 0.11160324D+01  1  2  3  2  7  2       -2 -.194875231928D-04 0.100000000000D+01
0.699658049031D-06 0.000000000000D+00 0.000000000000D+00 0.321991092516D-06 0.000000000000D+00  7 2 -2 23 -13 13 23 21 2 0.42894829D-01 0.71903692D-01 0.11745683D+06 0.11745683D+06 0.11745683D+06 0.11160324D+01  1  2 15  2  7  2       -2 0.226854058613D-04 0.100000000000D+01
  </mgrwgt>
  </event>
  <event>
  8     66 0.25765000E-05 0.56194463E+03 0.75467711E-02 0.89179219E-01
        2 -1    0    0  501    0 0.00000000E+00 0.00000000E+00 0.28573747E+04 0.28573747E+04 0.32000000E+00 0.0000E+00 0.9000E+01
       -2 -1    0    0    0  501 0.00000000E+00 0.00000000E+00 -.12117304E+03 0.12117347E+03 0.32000000E+00 0.0000E+00 0.9000E+01
       25  2    1    2    0    0 -.31234302E+03 -.43553603E+03 0.11819294E+04 0.13319417E+04 0.29976957E+03 0.0000E+00 0.0000E+00
       23  2    1    2    0    0 0.31234302E+03 0.43553603E+03 0.15542723E+04 0.16466065E+04 0.91109058E+02 0.0000E+00 0.0000E+00
       23  1    3    3    0    0 -.17336045E+03 -.11692130E+03 0.28072159E+03 0.36172406E+03 0.91188000E+02 0.0000E+00 0.9000E+01
      -11  1    4    4    0    0 0.60712551E+02 0.10005258E+03 0.23935341E+03 0.26643308E+03 0.51099893E-03 0.0000E+00 0.9000E+01
       11  1    4    4    0    0 0.25163047E+03 0.33548345E+03 0.13149189E+04 0.13801734E+04 0.51099893E-03 0.0000E+00 0.9000E+01
       23  1    3    3    0    0 -.13898258E+03 -.31861473E+03 0.90120778E+03 0.97021762E+03 0.91188000E+02 0.0000E+00 0.9000E+01
#aMCatNLO 1  0  0  1  1 0.45105603D+03 0.00000000D+00  -5  7  0 0.00000000D+00 0.00000000D+00 0.00000000D+00 0.00000000D+00 0.00000000D+00
  <mgrwgt>
 0.3171843806D-03    6    2    0
 0.588419448151637D+03 0.000000000000000D+00 0.000000000000000D+00 0.588419448151637D+03
 0.588419448151637D+03 0.000000000000000D+00 0.000000000000000D+00 -.588419448151637D+03
 0.262824140406545D+03 -.173360446443666D+03 -.116921300230112D+03 -.130525256551337D+03
 0.117827998912875D+03 0.607125506177426D+02 0.100052575384682D+03 -.136713453688016D+02
 0.435938900320895D+03 0.251630471072784D+03 0.335483454744186D+03 0.119061674915089D+03
 0.360247856662958D+03 -.138982575246860D+03 -.318614729898756D+03 0.251349270050497D+02
 0.000000000000000D+00 0.000000000000000D+00 -.000000000000000D+00 0.000000000000000D+00
 0.866143811929501D+03 0.000000000000000D+00 0.000000000000000D+00 0.866143811929501D+03
 0.845693527454665D+03 0.000000000000000D+00 0.000000000000000D+00 -.845693527454665D+03
 0.319882029918461D+03 -.269138925034820D+03 -.673547188700591D+02 -.130525256551337D+03
 0.123145002641529D+03 0.211042048582469D+02 0.120550398293371D+03 -.136713453688016D+02
 0.440306712229015D+03 0.107603385182491D+03 0.410019304298721D+03 0.119061674915089D+03
 0.376984204514331D+03 -.260160226667296D+03 -.255903753419475D+03 0.251349270050497D+02
 0.451519390080829D+03 0.400591561661378D+03 -.207311230302558D+03 0.204502844748356D+02
0.329409254749D-04 0.000000000000D+00 0.000000000000D+00 0.249679847672D-05 0.000000000000D+00  7 2 -2 23 -11 11 23 21 0 0.43959614D+00 0.18642041D-01 0.31578176D+06 0.31578176D+06 0.31578176D+06 0.10829084D+01  1  2  2  1  7  1        2 0.204494865255D-03 0.100000000000D+01
-.182533563451D-05 0.000000000000D+00 -.126501827368D-06 0.249679847672D-05 0.000000000000D+00  7 2 -2 23 -11 11 23 21 2 0.43959614D+00 0.18642041D-01 0.31578176D+06 0.31578176D+06 0.31578176D+06 0.10829084D+01  1  2  3  1  7  1        2 -.132884024315D-04 0.100000000000D+01
0.205901353956D-05 0.000000000000D+00 0.000000000000D+00 0.249679847672D-05 0.000000000000D+00  7 2 -2 23 -11 11 23 21 2 0.43959614D+00 0.18642041D-01 0.31578176D+06 0.31578176D+06 0.31578176D+06 0.10829084D+01  1  2 15  1  7  1        2 0.149895723330D-04 0.100000000000D+01
-.132232273098D-04 0.000000000000D+00 -.789267039401D-05 0.249679847672D-05 0.000000000000D+00  7 2 -2 23 -11 11 23 21 2 0.69811831D+00 0.18642041D-01 0.31578176D+06 0.31578176D+06 0.31578176D+06 0.10829084D+01  1  2  5  1  7  1        2 -.487695366343D-05 0.100000000000D+01
0.159158190676D-04 0.000000000000D+00 0.711764004445D-05 0.249679847672D-05 0.000000000000D+00  7 2 -2 23 -11 11 23 21 2 0.43959614D+00 0.18642041D-01 0.31578176D+06 0.31578176D+06 0.31578176D+06 0.10829084D+01  1  2  6  1  7  1        2 0.115866805424D-03 0.100000000000D+01
-.376789741185D-06 0.000000000000D+00 -.418820154907D-06 0.249679847672D-05 0.000000000000D+00  7 21 -2 23 -11 11 23 -2 2 0.69811831D+00 0.18642041D-01 0.31578176D+06 0.31578176D+06 0.31578176D+06 0.10829084D+01  1  2  5  3  7  1        2 -.150629049797D-08 0.100000000000D+01
  </mgrwgt>
  </event>
  <event>
  8     66 0.25765000E-05 0.22203739E+03 0.75467711E-02 0.98013801E-01
        2 -1    0    0  501    0 0.00000000E+00 0.00000000E+00 0.13257773E+04 0.13257773E+04 0.32000000E+00 0.0000E+00 0.9000E+01
       -2 -1    0    0    0  501 0.00000000E+00 0.00000000E+00 -.32731431E+03 0.32731447E+03 0.32000000E+00 0.0000E+00 0.9000E+01
       25  2    1    2    0    0 0.17516056E+03 -.31636081E+02 -.22400329E+03 0.41418357E+03 0.29948037E+03 0.0000E+00 0.0000E+00
       23  2    1    2    0    0 -.17516056E+03 0.31636081E+02 0.12224663E+04 0.12389082E+04 0.93742933E+02 0.0000E+00 0.0000E+00
       23  1    3    3    0    0 0.11028632E+03 -.45700588E+01 0.19821675E+02 0.14454103E+03 0.91188000E+02 0.0000E+00 0.9000E+01
      -11  1    4    4    0    0 -.16063008E+03 0.11649147E+02 0.11685870E+04 0.11796327E+04 0.51099893E-03 0.0000E+00 0.9000E+01
       11  1    4    4    0    0 -.14530475E+02 0.19986934E+02 0.53879300E+02 0.59275553E+02 0.51099893E-03 0.0000E+00 0.9000E+01
       23  1    3    3    0    0 0.64874236E+02 -.27066022E+02 -.24382497E+03 0.26964254E+03 0.91188000E+02 0.0000E+00 0.9000E+01
#aMCatNLO 1  0  0  1  1 0.23375152D+03 0.00000000D+00  -5  7  0 0.00000000D+00 0.00000000D+00 0.00000000D+00 0.00000000D+00 0.00000000D+00
  <mgrwgt>
 0.4130450257D-03    4    2    0
 0.658745806297448D+03 0.000000000000000D+00 0.000000000000000D+00 0.658745806297448D+03
 0.658745806297448D+03 0.000000000000000D+00 0.000000000000000D+00 -.658745806297448D+03
 0.166337586856011D+03 0.110286321615108D+03 -.457005883512279D+01 -.846698487298361D+02
 0.594501130620160D+03 -.160630082788338D+03 0.116491471563484D+02 0.572270799694157D+03
 0.335421062438608D+02 -.145304748466320D+02 0.199869335698194D+02 0.226817256504320D+02
 0.523110788874865D+03 0.648742360198617D+02 -.270660218910450D+02 -.510282676614753D+03
 0.000000000000000D+00 0.000000000000000D+00 -.000000000000000D+00 -.000000000000000D+00
 0.698310338174177D+03 0.000000000000000D+00 0.000000000000000D+00 0.698310338174177D+03
 0.113561398511755D+04 0.000000000000000D+00 0.000000000000000D+00 -.113561398511755D+04
 0.149744626530037D+03 0.832754535179561D+02 0.210175832713343D+01 -.846698487298361D+02
 0.631948956220956D+03 -.265436617672179D+03 0.375368763340838D+02 0.572270799694157D+03
 0.374190947727148D+02 -.205944783226303D+02 0.214847722293407D+02 0.226817256504320D+02
 0.518954556455674D+03 -.241756642886987D+02 -.507025888783759D+01 -.510282676614753D+03
 0.495857089312345D+03 0.226931306765552D+03 -.560531480027204D+02 -.437303646943374D+03
0.487357095900D-04 0.000000000000D+00 0.000000000000D+00 0.513030777262D-06 0.000000000000D+00  7 2 -2 23 -11 11 23 21 0 0.20396575D+00 0.50356063D-01 0.49300602D+05 0.49300602D+05 0.49300602D+05 0.11478339D+01  1  2  2  1  7  1        2 0.398742160483D-03 0.100000000000D+01
0.118567562686D-05 0.000000000000D+00 -.187157957233D-06 0.513030777262D-06 0.000000000000D+00  7 2 -2 23 -11 11 23 21 2 0.20396575D+00 0.50356063D-01 0.49300602D+05 0.49300602D+05 0.49300602D+05 0.11478339D+01  1  2  3  1  7  1        2 0.127811180502D-04 0.100000000000D+01
0.296839701011D-05 0.000000000000D+00 0.000000000000D+00 0.513030777262D-06 0.000000000000D+00  7 2 -2 23 -11 11 23 21 2 0.20396575D+00 0.50356063D-01 0.49300602D+05 0.49300602D+05 0.49300602D+05 0.11478339D+01  1  2 15  1  7  1        2 0.319981550996D-04 0.100000000000D+01
-.282722794089D-05 0.000000000000D+00 0.000000000000D+00 0.513030777262D-06 0.000000000000D+00  7 2 -2 23 -11 11 23 21 2 0.20396575D+00 0.50356063D-01 0.49300602D+05 0.49300602D+05 0.49300602D+05 0.11478339D+01  1  2  4  1  7  1        2 -.304764079220D-04 0.100000000000D+01
  </mgrwgt>
  </event>
  <event>
  8     66 0.25765000E-05 0.28445222E+03 0.75467711E-02 0.95115713E-01
        2 -1    0    0  501    0 0.00000000E+00 0.00000000E+00 0.12205393E+04 0.12205394E+04 0.32000000E+00 0.0000E+00 0.9000E+01
       -2 -1    0    0    0  501 0.00000000E+00 0.00000000E+00 -.10741517E+03 0.10741565E+03 0.32000000E+00 0.0000E+00 0.9000E+01
       25  2    1    2    0    0 0.11256081E+03 -.20402454E+03 0.33087839E+03 0.50376498E+03 0.30000449E+03 0.0000E+00 0.0000E+00
       23  2    1    2    0    0 -.11256081E+03 0.20402454E+03 0.78224577E+03 0.82419005E+03 0.11438899E+03 0.0000E+00 0.0000E+00
       23  1    3    3    0    0 0.40270007E+02 -.23855906E+02 -.78970624E+01 0.10280269E+03 0.91188000E+02 0.0000E+00 0.9000E+01
      -13  1    4    4    0    0 -.57485104E+02 0.18488916E+03 0.67376377E+03 0.70103221E+03 0.10565837E+00 0.0000E+00 0.9000E+01
       13  1    4    4    0    0 -.55075707E+02 0.19135385E+02 0.10848200E+03 0.12315784E+03 0.10565837E+00 0.0000E+00 0.9000E+01
       23  1    3    3    0    0 0.72290804E+02 -.18016864E+03 0.33877545E+03 0.40096229E+03 0.91188000E+02 0.0000E+00 0.9000E+01
#aMCatNLO 1  0  0  1  2 0.31629638D+03 0.00000000D+00  -5  7  0 0.00000000D+00 0.00000000D+00 0.00000000D+00 0.00000000D+00 0.00000000D+00
  <mgrwgt>
 0.2062459307D-03    3    2    0
 0.362083952889075D+03 0.000000000000000D+00 0.000000000000000D+00 0.362083952889075D+03
 0.362083952889075D+03 0.000000000000000D+00 0.000000000000000D+00 -.362083952889075D+03
 0.200654831362596D+03 0.402700328514904D+02 -.238559529099945D+02 -.172500225999990D+03
 0.249882158822818D+03 -.574853240487121D+02 0.184889275627763D+03 0.157963560908228D+03
 0.590939533216843D+02 -.550755403318844D+02 0.191353662342520D+02 0.962382124820591D+01
 0.214536962271052D+03 0.722908315291061D+02 -.180168688952021D+03 0.491284384355637D+01
 0.000000000000000D+00 0.000000000000000D+00 0.000000000000000D+00 -.000000000000000D+00
 0.463966232119331D+03 0.000000000000000D+00 0.000000000000000D+00 0.463966232119331D+03
 0.758372502159152D+03 0.000000000000000D+00 0.000000000000000D+00 -.758372502159152D+03
 0.212203435869284D+03 -.257272044581720D+02 -.793525666342860D+02 -.172500225999990D+03
 0.239921275549674D+03 -.135782589863698D+03 0.119049654247638D+03 0.157963560908228D+03
 0.775170116966593D+02 -.769134130184785D+02 0.772052337312040D+00 0.962382124820591D+01
 0.260587707999565D+03 -.365996830776267D+01 -.244035183557251D+03 0.491284384355637D+01
 0.432109303163301D+03 0.242083175648111D+03 0.203566043606588D+03 -.294406270039821D+03
0.313081671781D-05 0.000000000000D+00 0.000000000000D+00 0.241040516031D-08 0.000000000000D+00  7 2 -2 23 -13 13 23 21 0 0.18777532D+00 0.16525451D-01 0.80913063D+05 0.80913063D+05 0.80913063D+05 0.11293492D+01  1  2  2  1  7  1        2 0.203244036702D-03 0.100000000000D+01
-.161619664593D-06 0.000000000000D+00 -.120231605593D-07 0.241040516031D-08 0.000000000000D+00  7 2 -2 23 -13 13 23 21 2 0.18777532D+00 0.16525451D-01 0.80913063D+05 0.80913063D+05 0.80913063D+05 0.11293492D+01  1  2  3  1  7  1        2 -.133816880850D-04 0.100000000000D+01
0.197875560876D-06 0.000000000000D+00 0.000000000000D+00 0.241040516031D-08 0.000000000000D+00  7 2 -2 23 -13 13 23 21 2 0.18777532D+00 0.16525451D-01 0.80913063D+05 0.80913063D+05 0.80913063D+05 0.11293492D+01  1  2 15  1  7  1        2 0.163835820471D-04 0.100000000000D+01
  </mgrwgt>
  </event>
  <event>
  7     66 0.25765000E-05 0.38859504E+03 0.75467711E-02 0.88283182E-01
        2 -1    0    0  501    0 0.00000000E+00 0.00000000E+00 0.13283457E+04 0.13283458E+04 0.32000000E+00 0.0000E+00 0.9000E+01
       -2 -1    0    0    0  501 0.00000000E+00 0.00000000E+00 -.44914441E+03 0.44914452E+03 0.32000000E+00 0.0000E+00 0.9000E+01
       25  2    1    2    0    0 0.67100797E+03 0.10742473E+03 0.12617446E+03 0.75260901E+03 0.29783980E+03 0.0000E+00 0.0000E+00
       23  1    3    3    0    0 0.34980052E+03 0.15053494E+03 0.13946080E+03 0.41567505E+03 0.91188000E+02 0.0000E+00 0.9000E+01
      -11  1    1    2    0    0 -.66163994E+03 -.10011815E+03 0.75876355E+03 0.10116883E+04 0.51099893E-03 0.0000E+00 0.9000E+01
       11  1    1    2    0    0 -.93680340E+01 -.73065751E+01 -.57366768E+01 0.13193012E+02 0.51099893E-03 0.0000E+00 0.9000E+01
       23  1    3    3    0    0 0.32120745E+03 -.43110217E+02 -.13286340E+02 0.33693396E+03 0.91188000E+02 0.0000E+00 0.9000E+01
#aMCatNLO 1  0  0  2  1 0.36589747D+03 0.00000000D+00  -5  7  0 0.00000000D+00 0.00000000D+00 0.00000000D+00 0.00000000D+00 0.00000000D+00
  <mgrwgt>
 0.4253594634D-03    9    2    0
 0.772411284685387D+03 0.000000000000000D+00 0.000000000000000D+00 0.772411284685387D+03
 0.772411284685387D+03 0.000000000000000D+00 0.000000000000000D+00 -.772411284685387D+03
 0.398909393209300D+03 0.349800524397682D+03 0.150534942271810D+03 -.761070097490472D+02
 0.732226599596657D+03 -.661639940002892D+03 -.100118150472048D+03 0.297262071068457D+03
 0.184449300727836D+02 -.936803397597720D+01 -.730657512772767D+01 -.141091936239350D+02
 0.395241646492033D+03 0.321207449581188D+03 -.431102166720346D+02 -.207045867695475D+03
 0.000000000000000D+00 0.000000000000000D+00 0.000000000000000D+00 -.000000000000000D+00
 0.853651715562576D+03 0.000000000000000D+00 0.000000000000000D+00 0.853651715562576D+03
 0.135283045725911D+04 0.000000000000000D+00 0.000000000000000D+00 -.135283045725911D+04
 0.328503013463458D+03 0.293762053578756D+03 0.866634724369116D+02 -.761070097490472D+02
 0.873663706401098D+03 -.785354680397106D+03 -.241125608272855D+03 0.297262071068457D+03
 0.217194861966921D+02 -.124622243533057D+02 -.108332682094780D+02 -.141091936239350D+02
 0.363677251271444D+03 0.262741778503649D+03 -.109748158286689D+03 -.207045867695475D+03
 0.618918715488997D+03 0.241313072668007D+03 0.275043562332110D+03 -.499178741696537D+03
0.111543114090D-03 0.000000000000D+00 0.000000000000D+00 0.214068125203D-09 0.000000000000D+00  7 2 -2 23 -11 11 23 21 0 0.20436089D+00 0.69099151D-01 0.49653604D+06 0.49653604D+06 0.49653604D+06 0.10687238D+01  1  2  2  2  7  2       -2 0.430573389081D-03 0.100000000000D+01
-.613332912691D-05 0.000000000000D+00 -.428354928082D-06 0.214068125203D-09 0.000000000000D+00  7 2 -2 23 -11 11 23 21 2 0.20436089D+00 0.69099151D-01 0.49653604D+06 0.49653604D+06 0.49653604D+06 0.10687238D+01  1  2  3  2  7  2       -2 -.270415566937D-04 0.100000000000D+01
0.715366107696D-05 0.000000000000D+00 0.000000000000D+00 0.214068125203D-09 0.000000000000D+00  7 2 -2 23 -11 11 23 21 2 0.20436089D+00 0.69099151D-01 0.49653604D+06 0.49653604D+06 0.49653604D+06 0.10687238D+01  1  2 15  2  7  2       -2 0.315401517800D-04 0.100000000000D+01
0.680519077878D-04 0.000000000000D+00 0.000000000000D+00 0.214068125203D-09 0.000000000000D+00  7 2 -2 23 -11 11 23 21 2 0.20436089D+00 0.12228168D+00 0.83037613D+06 0.83037613D+06 0.83037613D+06 0.10532802D+01  1  2 12  2  7  2       -2 0.733350910528D-04 0.100000000000D+01
-.108702108313D-03 0.000000000000D+00 0.000000000000D+00 0.214068125203D-09 0.000000000000D+00  7 2 -2 23 -11 11 23 21 2 0.20436089D+00 0.69099151D-01 0.49653604D+06 0.49653604D+06 0.49653604D+06 0.10687238D+01  1  2  4  2  7  2       -2 -.479262430539D-03 0.100000000000D+01
-.115158313669D-03 0.000000000000D+00 -.345528590908D-04 0.214068125203D-09 0.000000000000D+00  7 2 -2 23 -11 11 23 21 2 0.20436089D+00 0.12828369D+00 0.49653604D+06 0.49653604D+06 0.49653604D+06 0.10687238D+01  1  2  5  2  7  2       -2 -.116056221279D-03 0.100000000000D+01
0.118770250656D-03 0.000000000000D+00 0.288522413938D-04 0.214068125203D-09 0.000000000000D+00  7 2 -2 23 -11 11 23 21 2 0.20436089D+00 0.69099151D-01 0.49653604D+06 0.49653604D+06 0.49653604D+06 0.10687238D+01  1  2  6  2  7  2       -2 0.523652391741D-03 0.100000000000D+01
0.427756158529D-05 0.000000000000D+00 0.000000000000D+00 0.214068125203D-09 0.000000000000D+00  7 2 21 23 -11 11 23 2 2 0.20436089D+00 0.12228168D+00 0.83037613D+06 0.83037613D+06 0.83037613D+06 0.10532802D+01  1  2 12  4  7  2       -2 0.396210402921D-04 0.100000000000D+01
-.584911380173D-05 0.000000000000D+00 -.233062711203D-05 0.214068125203D-09 0.000000000000D+00  7 2 21 23 -11 11 23 2 2 0.20436089D+00 0.12828369D+00 0.49653604D+06 0.49653604D+06 0.49653604D+06 0.10687238D+01  1  2  5  4  7  2       -2 -.510023920348D-04 0.100000000000D+01
  </mgrwgt>
  </event>
  <event>
  8     66 0.25765000E-05 0.18775674E+03 0.75467711E-02 0.10008631E+00
        2 -1    0    0  501    0 0.00000000E+00 0.00000000E+00 0.25056632E+04 0.25056632E+04 0.32000000E+00 0.0000E+00 0.9000E+01
       -2 -1    0    0    0  501 0.00000000E+00 0.00000000E+00 -.86874511E+02 0.86875100E+02 0.32000000E+00 0.0000E+00 0.9000E+01
       25  2    1    2    0    0 0.13124726E+03 0.16561604E+03 0.33771385E+03 0.49870640E+03 0.30000485E+03 0.0000E+00 0.0000E+00
       23  2    1    2    0    0 -.13124726E+03 -.16561604E+03 0.20810748E+04 0.20938319E+04 0.92763898E+02 0.0000E+00 0.0000E+00
       23  1    3    3    0    0 0.17268714E+03 0.13572080E+03 0.30972706E+03 0.39049595E+03 0.91188000E+02 0.0000E+00 0.9000E+01
      -11  1    4    4    0    0 -.21384618E+02 -.56207943E+02 0.98635844E+03 0.98819007E+03 0.51099893E-03 0.0000E+00 0.9000E+01
       11  1    4    4    0    0 -.10986264E+03 -.10940809E+03 0.10947163E+04 0.11056418E+04 0.51099893E-03 0.0000E+00 0.9000E+01
       23  1    3    3    0    0 -.41439877E+02 0.29895233E+02 0.27986790E+02 0.10821044E+03 0.91188000E+02 0.0000E+00 0.9000E+01
#aMCatNLO 1  0  0  2  1 0.87382045D+02 0.00000000D+00  -5  7  0 0.00000000D+00 0.00000000D+00 0.00000000D+00 0.00000000D+00 0.00000000D+00
  <mgrwgt>
 0.2853368511D-03    6    2    0
 0.466560876760725D+03 0.000000000000000D+00 0.000000000000000D+00 0.466560876760725D+03
 0.466560876760725D+03 0.000000000000000D+00 0.000000000000000D+00 -.466560876760725D+03
 0.282076159110616D+03 0.172687137132978D+03 0.135720803955524D+03 -.151692861523145D+03
 0.188751335462193D+03 -.213846176527223D+02 -.562079434080343D+02 0.178914593771574D+03
 0.234193707281782D+03 -.109862642773621D+03 -.109408093396383D+03 0.175518549881627D+03
 0.228100551666859D+03 -.414398767066345D+02 0.298952328488933D+02 -.202740282130056D+03
 0.000000000000000D+00 -.000000000000000D+00 -.000000000000000D+00 0.000000000000000D+00
 0.513754649806233D+03 0.000000000000000D+00 0.000000000000000D+00 0.513754649806233D+03
 0.510878963017842D+03 0.000000000000000D+00 0.000000000000000D+00 -.510878963017842D+03
 0.303876869595243D+03 0.194406786491052D+03 0.152384965334992D+03 -.151692861523145D+03
 0.184784302550915D+03 -.753869027812037D+01 -.455848083649728D+02 0.178914593771574D+03
 0.220819290450243D+03 -.929965762461842D+02 -.964677899036115D+02 0.175518549881627D+03
 0.227723799401156D+03 -.245437355672413D+02 0.428586107559339D+02 -.202740282130056D+03
 0.874293508265172D+02 -.693277843995062D+02 -.531909778223420D+02 0.287568678839153D+01
0.132411507985D-04 0.000000000000D+00 0.000000000000D+00 0.598593600964D-06 0.000000000000D+00  7 2 -2 23 -11 11 23 21 0 0.38548669D+00 0.13365356D-01 0.77710155D+05 0.77710155D+05 0.77710155D+05 0.11308220D+01  1  2  2  2  7  2       -2 0.242281224621D-03 0.100000000000D+01
-.498384157583D-06 0.000000000000D+00 -.508495055414D-07 0.598593600964D-06 0.000000000000D+00  7 2 -2 23 -11 11 23 21 2 0.38548669D+00 0.13365356D-01 0.77710155D+05 0.77710155D+05 0.77710155D+05 0.11308220D+01  1  2  3  2  7  2       -2 -.116612935715D-04 0.100000000000D+01
0.803969248719D-06 0.000000000000D+00 0.000000000000D+00 0.598593600964D-06 0.000000000000D+00  7 2 -2 23 -11 11 23 21 2 0.38548669D+00 0.13365356D-01 0.77710155D+05 0.77710155D+05 0.77710155D+05 0.11308220D+01  1  2 15  2  7  2       -2 0.188114354943D-04 0.100000000000D+01
0.948864444315D-05 0.000000000000D+00 0.000000000000D+00 0.598593600964D-06 0.000000000000D+00  7 2 -2 23 -11 11 23 21 2 0.38548669D+00 0.15247900D-01 0.10067634D+06 0.10067634D+06 0.10067634D+06 0.11214819D+01  1  2 12  2  7  2       -2 0.175255148381D-03 0.100000000000D+01
-.803098034941D-05 0.000000000000D+00 0.000000000000D+00 0.598593600964D-06 0.000000000000D+00  7 2 -2 23 -11 11 23 21 2 0.38548669D+00 0.13365356D-01 0.77710155D+05 0.77710155D+05 0.77710155D+05 0.11308220D+01  1  2  4  2  7  2       -2 -.187910506576D-03 0.100000000000D+01
0.194662785048D-06 0.000000000000D+00 0.000000000000D+00 0.598593600964D-06 0.000000000000D+00  7 2 21 23 -11 11 23 2 2 0.38548669D+00 0.15247900D-01 0.10067634D+06 0.10067634D+06 0.10067634D+06 0.11214819D+01  1  2 12  4  7  2       -2 0.485608427576D-04 0.100000000000D+01
  </mgrwgt>
  </event>
  <event>
  8     66 0.25765000E-05 0.34296520E+03 0.75467711E-02 0.93549298E-01
        2 -1    0    0  501    0 0.00000000E+00 0.00000000E+00 0.28020500E+04 0.28020500E+04 0.32000000E+00 0.0000E+00 0.9000E+01
       -2 -1    0    0    0  502 0.00000000E+00 0.00000000E+00 -.33642205E+03 0.33642221E+03 0.32000000E+00 0.0000E+00 0.9000E+01
       23  2    1    2    0    0 0.10983509E+03 -.29433184E+01 0.17881901E+04 0.17938885E+04 0.91323402E+02 0.0000E+00 0.0000E+00
       23  1    1    2    0    0 -.14955239E+03 0.18442462E+03 0.31276406E+03 0.40313145E+03 0.91188000E+02 0.0000E+00 0.9000E+01
      -13  1    3    3    0    0 0.95559460E+02 -.28439349E+02 0.16283515E+04 0.16314010E+04 0.10565837E+00 0.0000E+00 0.9000E+01
       13  1    3    3    0    0 0.14275626E+02 0.25496031E+02 0.15983855E+03 0.16248758E+03 0.10565837E+00 0.0000E+00 0.9000E+01
       23  1    1    2    0    0 -.31701196E+03 -.34405563E+02 0.43727550E+03 0.54882187E+03 0.91188000E+02 0.0000E+00 0.9000E+01
       21  1    1    2  501  502 0.35672926E+03 -.14707574E+03 -.72601680E+02 0.39263037E+03 0.75000000E+00 0.0000E+00 0.9000E+01
#aMCatNLO 2  0  0  2  1 0.38585884D+03 0.00000000D+00  -5  7  0 0.00000000D+00 0.00000000D+00 0.00000000D+00 0.00000000D+00 0.00000000D+00
  <mgrwgt>
 0.3343975542D-04    1    2    0
 0.486865181397286D+03 0.000000000000000D+00 0.000000000000000D+00 0.486865181397286D+03
 0.486865181397286D+03 0.000000000000000D+00 0.000000000000000D+00 -.486865181397286D+03
 0.238869112251752D+03 -.546357316231520D+02 0.145291479059803D+03 -.156998485300201D+03
 0.395089889472278D+03 0.223672720485094D+03 -.812591325131281D+02 0.315378325598364D+03
 0.429281952132902D+02 0.286700451972228D+02 0.195613893188225D+02 0.252628284358068D+02
 0.296843165857253D+03 -.197707034059164D+03 -.835937358654977D+02 -.183642668733969D+03
 0.000000000000000D+00 0.000000000000000D+00 -.000000000000000D+00 -.000000000000000D+00
 0.555415417901156D+03 0.000000000000000D+00 0.000000000000000D+00 0.555415417901156D+03
 0.169723648549033D+04 0.000000000000000D+00 0.000000000000000D+00 -.169723648549033D+04
 0.298901544808175D+03 -.149552386731730D+03 0.184424622491138D+03 -.156998485300201D+03
 0.330762634163789D+03 0.955595690120890D+02 -.284394210905298D+02 0.315378325598364D+03
 0.386270906843509D+02 0.142755168937470D+02 0.254961026742599D+02 0.252628284358068D+02
 0.379104481943477D+03 -.317011962499332D+03 -.344055626057737D+02 -.183642668733969D+03
 0.120525615179170D+04 0.356729263325226D+03 -.147075741469094D+03 -.114182106758918D+04
0.266720710353D-04 0.000000000000D+00 0.000000000000D+00 0.160182327680D-08 0.987053032885D-13  7 2 -2 23 -13 13 23 21 2 0.43108454D+00 0.51757242D-01 0.30293263D+06 0.30293263D+06 0.30293263D+06 0.10842394D+01  1  2  1  2  7  2       -2 0.334397554241D-04 0.100000000000D+01
  </mgrwgt>
  </event>
  <event>
  8     66 0.25765000E-05 0.23116790E+03 0.75467711E-02 0.89907411E-01
        2 -1    0    0  501    0 0.00000000E+00 0.00000000E+00 0.21398267E+04 0.21398267E+04 0.32000000E+00 0.0000E+00 0.9000E+01
       -2 -1    0    0    0  501 0.00000000E+00 0.00000000E+00 -.10244052E+03 0.10244102E+03 0.32000000E+00 0.0000E+00 0.9000E+01
       25  2    1    2    0    0 -.13463596E+03 -.22884746E+02 0.20514881E+04 0.20778904E+04 0.30062360E+03 0.0000E+00 0.0000E+00
       23  2    1    2    0    0 0.13463596E+03 0.22884746E+02 -.14101982E+02 0.16437728E+03 0.90390645E+02 0.0000E+00 0.0000E+00
       23  1    3    3    0    0 -.30121345E+02 -.12101892E+03 0.11721607E+04 0.11822981E+04 0.91188000E+02 0.0000E+00 0.9000E+01
      -11  1    4    4    0    0 0.37082653E+02 0.15205838E+02 -.46415598E+02 0.61324941E+02 0.51099893E-03 0.0000E+00 0.9000E+01
       11  1    4    4    0    0 0.97553310E+02 0.76789083E+01 0.32313616E+02 0.10305233E+03 0.51099893E-03 0.0000E+00 0.9000E+01
       23  1    3    3    0    0 -.10451462E+03 0.98134173E+02 0.87932747E+03 0.89559236E+03 0.91188000E+02 0.0000E+00 0.9000E+01
#aMCatNLO 1  0  0  1  2 0.73061052D+03 0.00000000D+00  -5  7  0 0.00000000D+00 0.00000000D+00 0.00000000D+00 0.00000000D+00 0.00000000D+00
  <mgrwgt>
 0.3400625261D-03    3    2    0
 0.468193913814875D+03 0.000000000000000D+00 0.000000000000000D+00 0.468193913814875D+03
 0.468193913814875D+03 0.000000000000000D+00 0.000000000000000D+00 -.468193913814875D+03
 0.280743616007482D+03 -.301213453219166D+02 -.121018919590515D+03 0.234411715240726D+03
 0.247839007869950D+03 0.370826529337990D+02 0.152058379454224D+02 -.244576845113617D+03
 0.176460655878251D+03 0.975533101789996D+02 0.767890828729842D+01 -.146842599791810D+03
 0.231344547874065D+03 -.104514617790882D+03 0.981341733577938D+02 0.157007729664702D+03
 0.000000000000000D+00 0.000000000000000D+00 -.000000000000000D+00 -.000000000000000D+00
 0.879933787564215D+03 0.000000000000000D+00 0.000000000000000D+00 0.879933787564215D+03
 0.106030488541580D+04 0.000000000000000D+00 0.000000000000000D+00 -.106030488541580D+04
 0.352816205019155D+03 -.239702391958558D+03 -.613019920342315D+02 0.234411715240726D+03
 0.289778433005934D+03 -.140760736450174D+03 0.658796033962617D+02 -.244576845113617D+03
 0.152258660653267D+03 -.111867584331806D+02 0.386627348498074D+02 -.146842599791810D+03
 0.392839381377739D+03 -.310994127451683D+03 0.156967365185719D+03 0.157007729664702D+03
 0.752545992923923D+03 0.702644014293596D+03 -.200207711397557D+03 -.180371097851588D+03
0.142183599667D-04 0.000000000000D+00 0.000000000000D+00 0.529716747035D-06 0.000000000000D+00  7 2 -2 23 -11 11 23 21 0 0.32920414D+00 0.15760120D-01 0.53438597D+05 0.53438597D+05 0.53438597D+05 0.11447633D+01  1  2  2  1  7  1        2 0.323172294114D-03 0.100000000000D+01
-.311558808492D-06 0.000000000000D+00 -.546022460524D-07 0.529716747035D-06 0.000000000000D+00  7 2 -2 23 -11 11 23 21 2 0.32920414D+00 0.15760120D-01 0.53438597D+05 0.53438597D+05 0.53438597D+05 0.11447633D+01  1  2  3  1  7  1        2 -.928017257975D-05 0.100000000000D+01
0.878606512971D-06 0.000000000000D+00 0.000000000000D+00 0.529716747035D-06 0.000000000000D+00  7 2 -2 23 -11 11 23 21 2 0.32920414D+00 0.15760120D-01 0.53438597D+05 0.53438597D+05 0.53438597D+05 0.11447633D+01  1  2 15  1  7  1        2 0.261704045844D-04 0.100000000000D+01
  </mgrwgt>
  </event>
  <event>
  8     66 0.25765000E-05 0.37558074E+03 0.75467711E-02 0.93584249E-01
        2 -1    0    0  501    0 0.00000000E+00 0.00000000E+00 0.28043918E+03 0.28043936E+03 0.32000000E+00 0.0000E+00 0.9000E+01
       -2 -1    0    0    0  501 0.00000000E+00 0.00000000E+00 -.16784620E+04 0.16784620E+04 0.32000000E+00 0.0000E+00 0.9000E+01
       25  2    1    2    0    0 0.46167883E+03 0.21247186E+03 -.15083355E+03 0.60927065E+03 0.30028043E+03 0.0000E+00 0.0000E+00
       23  2    1    2    0    0 -.46167883E+03 -.21247186E+03 -.12471892E+04 0.13496307E+04 0.87922643E+02 0.0000E+00 0.0000E+00
       23  1    3    3    0    0 0.11790334E+03 -.29366402E+02 -.85252710E+02 0.17420350E+03 0.91188000E+02 0.0000E+00 0.9000E+01
      -13  1    4    4    0    0 -.45020681E+03 -.20531632E+03 -.11560588E+04 0.12575027E+04 0.10565837E+00 0.0000E+00 0.9000E+01
       13  1    4    4    0    0 -.11472021E+02 -.71555409E+01 -.91130415E+02 0.92128024E+02 0.10565837E+00 0.0000E+00 0.9000E+01
       23  1    3    3    0    0 0.34377549E+03 0.24183826E+03 -.65580840E+02 0.43506715E+03 0.91188000E+02 0.0000E+00 0.9000E+01
#aMCatNLO 1  0  0  2  1 0.69319889D+01 0.00000000D+00  -5  7  0 0.00000000D+00 0.00000000D+00 0.00000000D+00 0.00000000D+00 0.00000000D+00
  <mgrwgt>
 0.1051560326D-02   11    2    0
 0.686080677354129D+03 0.000000000000000D+00 0.000000000000000D+00 0.686080677354129D+03
 0.686080677354129D+03 0.000000000000000D+00 0.000000000000000D+00 -.686080677354129D+03
 0.161833911436309D+03 0.117903340860765D+03 -.293664024280796D+02 0.557797469434710D+02
 0.617367810626182D+03 -.450207440263605D+03 -.205316606317753D+03 -.369190148160562D+03
 0.386734158227228D+02 -.114713876124120D+02 -.715525474523584D+01 -.362331710891251D+02
 0.554286216823043D+03 0.343775487015253D+03 0.241838263491068D+03 0.349643572306217D+03
 0.000000000000000D+00 0.000000000000000D+00 -.000000000000000D+00 -.000000000000000D+00
 0.686529796459669D+03 0.000000000000000D+00 0.000000000000000D+00 0.686529796459669D+03
 0.713369386799391D+03 0.000000000000000D+00 0.000000000000000D+00 -.713369386799391D+03
 0.161682468187342D+03 0.117896263675119D+03 -.285492559889026D+02 0.557797469434710D+02
 0.616358190960559D+03 -.450234429029859D+03 -.202200427748094D+03 -.369190148160562D+03
 0.386382651122728D+02 -.114730788687223D+02 -.695997880632878D+01 -.362331710891251D+02
 0.555499940110099D+03 0.343751209534562D+03 0.244641391442242D+03 0.349643572306217D+03
 0.277203188887870D+02 0.600346888989582D-01 -.693172889891692D+01 -.268395903397219D+02
0.343655755157D-03 0.000000000000D+00 0.000000000000D+00 0.509452542151D-06 0.000000000000D+00  7 2 -2 23 -13 13 23 21 0 0.43144505D-01 0.25822493D+00 0.29721468D+06 0.29721468D+06 0.29721468D+06 0.10848517D+01  1  2  2  2  7  2       -2 0.257866866201D-03 0.100000000000D+01
-.178651866276D-04 0.000000000000D+00 -.131972858644D-05 0.509452542151D-06 0.000000000000D+00  7 2 -2 23 -13 13 23 21 2 0.43144505D-01 0.25822493D+00 0.29721468D+06 0.29721468D+06 0.29721468D+06 0.10848517D+01  1  2  3  2  7  2       -2 -.157768475702D-04 0.100000000000D+01
0.212031243461D-04 0.000000000000D+00 0.000000000000D+00 0.509452542151D-06 0.000000000000D+00  7 2 -2 23 -13 13 23 21 2 0.43144505D-01 0.25822493D+00 0.29721468D+06 0.29721468D+06 0.29721468D+06 0.10848517D+01  1  2 15  2  7  2       -2 0.187245992887D-04 0.100000000000D+01
0.711255140692D-02 0.000000000000D+00 0.000000000000D+00 0.509452542151D-06 0.000000000000D+00  7 2 -2 23 -13 13 23 21 2 0.43144505D-01 0.26857849D+00 0.30102810D+06 0.30102810D+06 0.30102810D+06 0.10844420D+01  1  2 12  2  7  2       -2 0.538216812347D-02 0.100000000000D+01
-.843867845249D-02 0.000000000000D+00 0.000000000000D+00 0.509452542151D-06 0.000000000000D+00  7 2 -2 23 -13 13 23 21 2 0.43144505D-01 0.25822493D+00 0.29721468D+06 0.29721468D+06 0.29721468D+06 0.10848517D+01  1  2  4  2  7  2       -2 -.745224477157D-02 0.100000000000D+01
-.162489261300D-01 0.000000000000D+00 -.849839824167D-03 0.509452542151D-06 0.000000000000D+00  7 2 -2 23 -13 13 23 21 2 0.43144505D-01 0.26855978D+00 0.29721468D+06 0.29721468D+06 0.29721468D+06 0.10848517D+01  1  2  5  2  7  2       -2 -.123167717219D-01 0.100000000000D+01
0.162704003153D-01 0.000000000000D+00 0.849185877822D-03 0.509452542151D-06 0.000000000000D+00  7 2 -2 23 -13 13 23 21 2 0.43144505D-01 0.25822493D+00 0.29721468D+06 0.29721468D+06 0.29721468D+06 0.10848517D+01  1  2  6  2  7  2       -2 0.143684827386D-01 0.100000000000D+01
0.128627701825D-02 0.000000000000D+00 0.000000000000D+00 0.509452542151D-06 0.665504910011D-07  7 2 -2 23 -13 13 23 21 2 0.43172748D-01 0.26849577D+00 0.30102810D+06 0.30102810D+06 0.30102810D+06 0.10844420D+01  1  2 11  2  7  2       -2 0.973824979910D-03 0.100000000000D+01
0.171693913007D-03 0.000000000000D+00 0.000000000000D+00 0.509452542151D-06 0.000000000000D+00  7 2 21 23 -13 13 23 2 2 0.43144505D-01 0.26857849D+00 0.30102810D+06 0.30102810D+06 0.30102810D+06 0.10844420D+01  1  2 12  4  7  2       -2 0.953273604760D-03 0.100000000000D+01
-.209789170735D-03 0.000000000000D+00 -.590091830530D-05 0.509452542151D-06 0.000000000000D+00  7 2 21 23 -13 13 23 2 2 0.43144505D-01 0.26855978D+00 0.29721468D+06 0.29721468D+06 0.29721468D+06 0.10848517D+01  1  2  5  4  7  2       -2 -.116737394994D-02 0.100000000000D+01
0.889009989695D-05 0.000000000000D+00 0.000000000000D+00 0.509452542151D-06 0.458966477972D-09  7 2 21 23 -13 13 23 2 2 0.43172748D-01 0.26849577D+00 0.30102810D+06 0.30102810D+06 0.30102810D+06 0.10844420D+01  1  2 11  4  7  2       -2 0.493867044616D-04 0.100000000000D+01
  </mgrwgt>
  </event>
  <event>
  8     66 0.25765000E-05 0.12797823E+03 0.75467711E-02 0.10121535E+00
        2 -1    0    0  501    0 0.00000000E+00 0.00000000E+00 0.22309604E+04 0.22309604E+04 0.32000000E+00 0.0000E+00 0.9000E+01
       -2 -1    0    0    0  501 0.00000000E+00 0.00000000E+00 -.46132734E+02 0.46133844E+02 0.32000000E+00 0.0000E+00 0.9000E+01
       25  2    1    2    0    0 0.59461924E+02 -.15451437E+03 0.19252887E+04 0.19556118E+04 0.30045081E+03 0.0000E+00 0.0000E+00
       23  2    1    2    0    0 -.59461924E+02 0.15451437E+03 0.25953901E+03 0.32148247E+03 0.92628660E+02 0.0000E+00 0.0000E+00
       23  1    3    3    0    0 0.14854363E+03 -.92355631E+02 0.12626803E+04 0.12779951E+04 0.91188000E+02 0.0000E+00 0.9000E+01
      -11  1    4    4    0    0 0.12255631E+02 -.60716095E+01 0.22356251E+02 0.26208145E+02 0.51099893E-03 0.0000E+00 0.9000E+01
       11  1    4    4    0    0 -.71717555E+02 0.16058598E+03 0.23718276E+03 0.29527432E+03 0.51099893E-03 0.0000E+00 0.9000E+01
       23  1    3    3    0    0 -.89081708E+02 -.62158739E+02 0.66260837E+03 0.67761667E+03 0.91188000E+02 0.0000E+00 0.9000E+01
#aMCatNLO 1  0  0  1  2 0.50445815D+02 0.00000000D+00  -5  7  0 0.00000000D+00 0.00000000D+00 0.00000000D+00 0.00000000D+00 0.00000000D+00
  <mgrwgt>
 0.4900590365D-03    9    2    0
 0.320813953605487D+03 0.000000000000000D+00 0.000000000000000D+00 0.320813953605487D+03
 0.320813953605487D+03 0.000000000000000D+00 0.000000000000000D+00 -.320813953605487D+03
 0.235925743786051D+03 0.148543631430172D+03 -.923556312656570D+02 0.129425392300199D+03
 0.168849604568508D+02 0.122556306240251D+02 -.607160945709734D+01 -.990136183751293D+01
 0.240270118472483D+03 -.717175545180965D+02 0.160585979728528D+03 -.163702368093299D+03
 0.148547084495589D+03 -.890817075361010D+02 -.621587390057735D+02 0.441783376306125D+02
 0.000000000000000D+00 0.000000000000000D+00 -.000000000000000D+00 0.000000000000000D+00
 0.365610435834482D+03 0.000000000000000D+00 0.000000000000000D+00 0.365610435834482D+03
 0.336326812321613D+03 0.000000000000000D+00 0.000000000000000D+00 -.336326812321613D+03
 0.224561397971612D+03 0.130501802529819D+03 -.912738597812779D+02 0.129425392300199D+03
 0.159466653615024D+02 0.109692916107919D+02 -.599448175172747D+01 -.990136183751293D+01
 0.247395670749294D+03 -.908242394433519D+02 0.161731599001791D+03 -.163702368093299D+03
 0.155704183454626D+03 -.101002234346298D+03 -.614439951705853D+02 0.441783376306125D+02
 0.583293306190602D+02 0.503553796490392D+02 -.301926229820005D+01 0.292836235128687D+02
0.372882248447D-05 0.000000000000D+00 0.000000000000D+00 0.175822712939D-06 0.000000000000D+00  7 2 -2 23 -11 11 23 21 0 0.34322476D+00 0.70974309D-02 0.69862924D+05 0.69862924D+05 0.69862924D+05 0.11347320D+01  1  2  2  1  7  1        2 0.257226100136D-03 0.100000000000D+01
-.197705048031D-06 0.000000000000D+00 -.143196601619D-07 0.175822712939D-06 0.000000000000D+00  7 2 -2 23 -11 11 23 21 2 0.34322476D+00 0.70974309D-02 0.69862924D+05 0.69862924D+05 0.69862924D+05 0.11347320D+01  1  2  3  1  7  1        2 -.175609369642D-04 0.100000000000D+01
0.236143831322D-06 0.000000000000D+00 0.000000000000D+00 0.175822712939D-06 0.000000000000D+00  7 2 -2 23 -11 11 23 21 2 0.34322476D+00 0.70974309D-02 0.69862924D+05 0.69862924D+05 0.69862924D+05 0.11347320D+01  1  2 15  1  7  1        2 0.209752202972D-04 0.100000000000D+01
0.539864425986D-05 0.000000000000D+00 0.000000000000D+00 0.175822712939D-06 0.000000000000D+00  7 2 -2 23 -11 11 23 21 2 0.39860829D+00 0.70974309D-02 0.84463780D+05 0.84463780D+05 0.84463780D+05 0.11277897D+01  1  2 12  1  7  1        2 0.296449746154D-03 0.100000000000D+01
-.538290407939D-05 0.000000000000D+00 0.000000000000D+00 0.175822712939D-06 0.000000000000D+00  7 2 -2 23 -11 11 23 21 2 0.34322476D+00 0.70974309D-02 0.69862924D+05 0.69862924D+05 0.69862924D+05 0.11347320D+01  1  2  4  1  7  1        2 -.478130630270D-03 0.100000000000D+01
-.119156187701D-04 0.000000000000D+00 -.257784077676D-05 0.175822712939D-06 0.000000000000D+00  7 2 -2 23 -11 11 23 21 2 0.39776732D+00 0.70974309D-02 0.69862924D+05 0.69862924D+05 0.69862924D+05 0.11347320D+01  1  2  5  1  7  1        2 -.670861073170D-03 0.100000000000D+01
0.121907661004D-04 0.000000000000D+00 0.255005751653D-05 0.175822712939D-06 0.000000000000D+00  7 2 -2 23 -11 11 23 21 2 0.34322476D+00 0.70974309D-02 0.69862924D+05 0.69862924D+05 0.69862924D+05 0.11347320D+01  1  2  6  1  7  1        2 0.108283160782D-02 0.100000000000D+01
0.122878115431D-06 0.000000000000D+00 0.000000000000D+00 0.175822712939D-06 0.000000000000D+00  7 21 -2 23 -11 11 23 -2 2 0.39860829D+00 0.70974309D-02 0.84463780D+05 0.84463780D+05 0.84463780D+05 0.11277897D+01  1  2 12  3  7  1        2 0.770929660987D-06 0.100000000000D+01
-.250746118877D-06 0.000000000000D+00 -.580013637883D-07 0.175822712939D-06 0.000000000000D+00  7 21 -2 23 -11 11 23 -2 2 0.39776732D+00 0.70974309D-02 0.69862924D+05 0.69862924D+05 0.69862924D+05 0.11347320D+01  1  2  5  3  7  1        2 -.164192711758D-05 0.100000000000D+01
  </mgrwgt>
  </event>
  <event>
  8     66 0.25765000E-05 0.65793376E+03 0.75467711E-02 0.88978232E-01
        2 -1    0    0  501    0 0.00000000E+00 0.00000000E+00 0.15545817E+04 0.15545817E+04 0.32000000E+00 0.0000E+00 0.9000E+01
       -2 -1    0    0    0  501 0.00000000E+00 0.00000000E+00 -.31172371E+03 0.31172388E+03 0.32000000E+00 0.0000E+00 0.9000E+01
       25  2    1    2    0    0 0.67704505E+02 0.62451789E+03 0.92151329E+03 0.11548758E+04 0.29990824E+03 0.0000E+00 0.0000E+00
       23  2    1    2    0    0 -.67704505E+02 -.62451789E+03 0.32134468E+03 0.71142976E+03 0.90903290E+02 0.0000E+00 0.0000E+00
       23  1    3    3    0    0 0.11260559E+03 0.19420359E+03 0.22995530E+03 0.33405051E+03 0.91188000E+02 0.0000E+00 0.9000E+01
      -13  1    4    4    0    0 0.22577260E+01 -.27236049E+03 0.10290286E+03 0.29116034E+03 0.10565837E+00 0.0000E+00 0.9000E+01
       13  1    4    4    0    0 -.69962231E+02 -.35215740E+03 0.21844181E+03 0.42026942E+03 0.10565837E+00 0.0000E+00 0.9000E+01
       23  1    3    3    0    0 -.44901083E+02 0.43031430E+03 0.69155799E+03 0.82082532E+03 0.91188000E+02 0.0000E+00 0.9000E+01
#aMCatNLO 1  0  0  1  2 0.34155950D+03 0.00000000D+00  -5  7  0 0.00000000D+00 0.00000000D+00 0.00000000D+00 0.00000000D+00 0.00000000D+00
  <mgrwgt>
 0.1898857905D-03    7    2    0
 0.696132285559819D+03 0.000000000000000D+00 0.000000000000000D+00 0.696132285559819D+03
 0.696132285559819D+03 0.000000000000000D+00 0.000000000000000D+00 -.696132285559819D+03
 0.242510344785314D+03 0.112605588217233D+03 0.194203590207730D+03 0.100480364534932D+02
 0.298434936856134D+03 0.225782359553651D+01 -.272360377422559D+03 -.121975975418020D+03
 0.368363289554613D+03 -.699623289304564D+02 -.352157511733871D+03 -.823521253613464D+02
 0.482955999923576D+03 -.449010828823135D+02 0.430314298948700D+03 0.194280064325873D+03
 0.000000000000000D+00 -.000000000000000D+00 0.000000000000000D+00 0.000000000000000D+00
 0.906933715910339D+03 0.000000000000000D+00 0.000000000000000D+00 0.906933715910339D+03
 0.870150032888477D+03 0.000000000000000D+00 0.000000000000000D+00 -.870150032888477D+03
 0.265760295055934D+03 0.172429096168757D+03 0.180223546857984D+03 0.100480364534932D+02
 0.323028522653015D+03 0.754041383681922D+02 -.289453802505966D+03 -.121975975418020D+03
 0.382232498687738D+03 0.183828745625517D+02 -.372802736610607D+03 -.823521253613464D+02
 0.462527960711683D+03 0.663824790695790D+02 0.404308652113976D+03 0.194280064325873D+03
 0.343534471690446D+03 -.332598588169080D+03 0.777243401446142D+02 0.367836830218614D+02
0.253225331253D-04 0.000000000000D+00 0.000000000000D+00 0.214644787107D-05 0.000000000000D+00  7 2 -2 23 -13 13 23 21 0 0.23916643D+00 0.47957510D-01 0.43287683D+06 0.43287683D+06 0.43287683D+06 0.10729634D+01  1  2  2  1  7  1        2 0.156216102254D-03 0.100000000000D+01
-.140135960860D-05 0.000000000000D+00 -.972451947772D-07 0.214644787107D-05 0.000000000000D+00  7 2 -2 23 -13 13 23 21 2 0.23916643D+00 0.47957510D-01 0.43287683D+06 0.43287683D+06 0.43287683D+06 0.10729634D+01  1  2  3  1  7  1        2 -.995263379180D-05 0.100000000000D+01
0.153739701240D-05 0.000000000000D+00 0.000000000000D+00 0.214644787107D-05 0.000000000000D+00  7 2 -2 23 -13 13 23 21 2 0.23916643D+00 0.47957510D-01 0.43287683D+06 0.43287683D+06 0.43287683D+06 0.10729634D+01  1  2 15  1  7  1        2 0.109187886986D-04 0.100000000000D+01
-.995108578731D-05 0.000000000000D+00 0.000000000000D+00 0.214644787107D-05 0.000000000000D+00  7 2 -2 23 -13 13 23 21 2 0.23916643D+00 0.47957510D-01 0.43287683D+06 0.43287683D+06 0.43287683D+06 0.10729634D+01  1  2  4  1  7  1        2 -.706738741891D-04 0.100000000000D+01
-.202213951427D-04 0.000000000000D+00 -.937581451241D-05 0.214644787107D-05 0.000000000000D+00  7 2 -2 23 -13 13 23 21 2 0.34893245D+00 0.47957510D-01 0.43287683D+06 0.43287683D+06 0.43287683D+06 0.10729634D+01  1  2  5  1  7  1        2 -.579448457138D-04 0.100000000000D+01
0.227516720651D-04 0.000000000000D+00 0.874456302925D-05 0.214644787107D-05 0.000000000000D+00  7 2 -2 23 -13 13 23 21 2 0.23916643D+00 0.47957510D-01 0.43287683D+06 0.43287683D+06 0.43287683D+06 0.10729634D+01  1  2  6  1  7  1        2 0.161585262502D-03 0.100000000000D+01
-.627393583346D-06 0.000000000000D+00 -.427995192545D-06 0.214644787107D-05 0.000000000000D+00  7 21 -2 23 -13 13 23 -2 2 0.34893245D+00 0.47957510D-01 0.43287683D+06 0.43287683D+06 0.43287683D+06 0.10729634D+01  1  2  5  3  7  1        2 -.263009243289D-06 0.100000000000D+01
  </mgrwgt>
  </event>
  <event>
  8     66 0.25765000E-05 0.29154123E+03 0.75467711E-02 0.82921350E-01
        2 -1    0    0  501    0 0.00000000E+00 0.00000000E+00 0.18313464E+04 0.18313465E+04 0.32000000E+00 0.0000E+00 0.9000E+01
       -2 -1    0    0    0  501 0.00000000E+00 0.00000000E+00 -.11659402E+03 0.11659446E+03 0.32000000E+00 0.0000E+00 0.9000E+01
       25  2    1    2    0    0 -.20236692E+03 0.82401487E+02 0.16655025E+04 0.17063213E+04 0.29981884E+03 0.0000E+00 0.0000E+00
       23  2    1    2    0    0 0.20236692E+03 -.82401487E+02 0.49249911E+02 0.24161964E+03 0.90620769E+02 0.0000E+00 0.0000E+00
       23  1    3    3    0    0 -.15782190E+03 -.57233291E+02 0.10417862E+04 0.10591587E+04 0.91188000E+02 0.0000E+00 0.9000E+01
      -11  1    4    4    0    0 0.16384384E+03 -.74980722E+02 0.74483780E+02 0.19497371E+03 0.51099893E-03 0.0000E+00 0.9000E+01
       11  1    4    4    0    0 0.38523076E+02 -.74207648E+01 -.25233869E+02 0.46645936E+02 0.51099893E-03 0.0000E+00 0.9000E+01
       23  1    3    3    0    0 -.44545017E+02 0.13963478E+03 0.62371625E+03 0.64716253E+03 0.91188000E+02 0.0000E+00 0.9000E+01
#aMCatNLO 1  0  0  1  1 0.15803866D+04 0.00000000D+00  -5  7  0 0.00000000D+00 0.00000000D+00 0.00000000D+00 0.00000000D+00 0.00000000D+00
  <mgrwgt>
 0.4595293984D-03    3    2    0
 0.462087109389114D+03 0.000000000000000D+00 0.000000000000000D+00 0.462087109389114D+03
 0.462087109389114D+03 0.000000000000000D+00 0.000000000000000D+00 -.462087109389114D+03
 0.299481596259953D+03 -.157821900567123D+03 -.572332908709202D+02 0.230630815963251D+03
 0.272758117099783D+03 0.163843840749859D+03 -.749807217784780D+02 -.204768351201381D+03
 0.145138614390601D+03 0.385230764470024D+02 -.742076475057848D+01 -.139735901681703D+03
 0.206795891027892D+03 -.445450166297384D+02 0.139634777399977D+03 0.113873436919833D+03
 0.000000000000000D+00 -.000000000000000D+00 0.000000000000000D+00 -.000000000000000D+00
 0.139775231566779D+04 0.000000000000000D+00 0.000000000000000D+00 0.139775231566779D+04
 0.220984607902173D+04 0.000000000000000D+00 0.000000000000000D+00 -.220984607902173D+04
 0.553995910113355D+03 0.704858213015276D+02 -.490344157507661D+03 0.230630815963251D+03
 0.784407530672979D+03 0.446638734438863D+03 -.611456406803951D+03 -.204768351201381D+03
 0.329461468106707D+03 0.165479982545287D+03 -.248264198234541D+03 -.139735901681703D+03
 0.162905376262167D+03 0.543511504943521D+02 -.479760677330205D+02 0.113873436919833D+03
 0.177682810953432D+04 -.736955688780030D+03 0.139804083027917D+04 -.812093763353937D+03
0.168909953187D-04 0.000000000000D+00 0.000000000000D+00 0.123042331364D-05 0.000000000000D+00  7 2 -2 23 -11 11 23 21 0 0.28174564D+00 0.17937577D-01 0.84996289D+05 0.84996289D+05 0.84996289D+05 0.11275620D+01  1  2  2  1  7  1        2 0.448865406253D-03 0.100000000000D+01
-.696364165647D-06 0.000000000000D+00 -.648658695249D-07 0.123042331364D-05 0.000000000000D+00  7 2 -2 23 -11 11 23 21 2 0.28174564D+00 0.17937577D-01 0.84996289D+05 0.84996289D+05 0.84996289D+05 0.11275620D+01  1  2  3  1  7  1        2 -.235276314016D-04 0.100000000000D+01
0.101199398119D-05 0.000000000000D+00 0.000000000000D+00 0.123042331364D-05 0.000000000000D+00  7 2 -2 23 -11 11 23 21 2 0.28174564D+00 0.17937577D-01 0.84996289D+05 0.84996289D+05 0.84996289D+05 0.11275620D+01  1  2 15  1  7  1        2 0.341916234993D-04 0.100000000000D+01
  </mgrwgt>
  </event>
  <event>
  8     66 0.25765000E-05 0.21793039E+03 0.75467711E-02 0.81708568E-01
        2 -1    0    0  501    0 0.00000000E+00 0.00000000E+00 0.40483461E+03 0.40483474E+03 0.32000000E+00 0.0000E+00 0.9000E+01
       -2 -1    0    0    0  501 0.00000000E+00 0.00000000E+00 -.12066407E+03 0.12066449E+03 0.32000000E+00 0.0000E+00 0.9000E+01
       25  2    1    2    0    0 0.55703139E+02 -.71582184E+02 0.18555974E+03 0.36359518E+03 0.29923601E+03 0.0000E+00 0.0000E+00
       23  2    1    2    0    0 -.55703139E+02 0.71582184E+02 0.98610802E+02 0.16190405E+03 0.90895450E+02 0.0000E+00 0.0000E+00
       23  1    3    3    0    0 0.44514542E+02 -.15406767E+03 0.14150833E+03 0.23250430E+03 0.91188000E+02 0.0000E+00 0.9000E+01
      -13  1    4    4    0    0 -.57765615E+02 0.14865286E+01 0.37495895E+02 0.68884173E+02 0.10565837E+00 0.0000E+00 0.9000E+01
       13  1    4    4    0    0 0.20624760E+01 0.70095656E+02 0.61114907E+02 0.93019879E+02 0.10565837E+00 0.0000E+00 0.9000E+01
       23  1    3    3    0    0 0.11188597E+02 0.82485487E+02 0.44051407E+02 0.13109088E+03 0.91188000E+02 0.0000E+00 0.9000E+01
#aMCatNLO 1  0  0  2  1 0.18512117D+04 0.00000000D+00  -5  7  0 0.00000000D+00 0.00000000D+00 0.00000000D+00 0.00000000D+00 0.00000000D+00
  <mgrwgt>
 0.1238830695D-03    5    2    0
 0.221018408088190D+03 0.000000000000000D+00 0.000000000000000D+00 0.221018408088190D+03
 0.221018408088190D+03 0.000000000000000D+00 0.000000000000000D+00 -.221018408088190D+03
 0.185433289593385D+03 0.445145546634401D+02 -.154067687449087D+03 0.187578157745042D+02
 0.577855485038734D+02 -.577656870514787D+02 0.148646491022532D+01 0.292296826530094D+00
 0.712945715918829D+02 0.206252707379049D+01 0.700957466829767D+02 0.128548908006239D+02
 0.127523406487239D+03 0.111886053142482D+02 0.824854758558850D+02 -.319050034016581D+02
 0.000000000000000D+00 0.000000000000000D+00 -.000000000000000D+00 -.000000000000000D+00
 0.162985905059227D+04 0.000000000000000D+00 0.000000000000000D+00 0.162985905059227D+04
 0.221483426648332D+04 0.000000000000000D+00 0.000000000000000D+00 -.221483426648332D+04
 0.465264870005654D+03 -.454652469623325D+03 -.330971921793936D+02 0.187578157745042D+02
 0.485382497415028D+03 -.474443640061315D+03 0.102466168879221D+03 0.292296826530094D+00
 0.367714843201760D+03 -.334712704243062D+03 0.151711447530156D+03 0.128548908006239D+02
 0.584893268951947D+03 -.535324254273950D+03 0.214929984565379D+03 -.319050034016581D+02
 0.194143783750121D+04 0.179913306820165D+04 -.436010408795362D+03 -.584975215891047D+03
0.581229364755D-06 0.000000000000D+00 0.000000000000D+00 0.333734861707D-07 0.000000000000D+00  7 2 -2 23 -13 13 23 21 0 0.62282290D-01 0.18563745D-01 0.47493653D+05 0.47493653D+05 0.47493653D+05 0.11492651D+01  1  2  2  2  7  2       -2 0.122452572670D-03 0.100000000000D+01
-.322827477105D-07 0.000000000000D+00 -.223207380187D-08 0.333734861707D-07 0.000000000000D+00  7 2 -2 23 -13 13 23 21 2 0.62282290D-01 0.18563745D-01 0.47493653D+05 0.47493653D+05 0.47493653D+05 0.11492651D+01  1  2  3  2  7  2       -2 -.898320483703D-05 0.100000000000D+01
0.373578997109D-07 0.000000000000D+00 0.000000000000D+00 0.333734861707D-07 0.000000000000D+00  7 2 -2 23 -13 13 23 21 2 0.62282290D-01 0.18563745D-01 0.47493653D+05 0.47493653D+05 0.47493653D+05 0.11492651D+01  1  2 15  2  7  2       -2 0.103954492472D-04 0.100000000000D+01
0.512552087544D-05 0.000000000000D+00 -.129559431042D-05 0.333734861707D-07 0.000000000000D+00  7 2 -2 23 -13 13 23 21 2 0.62282290D-01 0.63811006D+00 0.47493653D+05 0.47493653D+05 0.47493653D+05 0.11492651D+01  1  2  5  2  7  2       -2 0.564664174506D-08 0.100000000000D+01
0.136703126536D-05 0.000000000000D+00 -.444689828840D-06 0.333734861707D-07 0.000000000000D+00  7 2 21 23 -13 13 23 2 2 0.62282290D-01 0.63811006D+00 0.47493653D+05 0.47493653D+05 0.47493653D+05 0.11492651D+01  1  2  5  4  7  2       -2 0.126058138573D-07 0.100000000000D+01
  </mgrwgt>
  </event>
  <event>
  8     66 0.25765000E-05 0.63943780E+03 0.75467711E-02 0.90083454E-01
        2 -1    0    0  501    0 0.00000000E+00 0.00000000E+00 0.21681368E+04 0.21681369E+04 0.32000000E+00 0.0000E+00 0.9000E+01
       -2 -1    0    0    0  501 0.00000000E+00 0.00000000E+00 -.59579640E+03 0.59579648E+03 0.32000000E+00 0.0000E+00 0.9000E+01
       25  2    1    2    0    0 -.55272418E+03 -.28343983E+03 -.32683082E+03 0.76371412E+03 0.30099620E+03 0.0000E+00 0.0000E+00
       23  2    1    2    0    0 0.55272418E+03 0.28343983E+03 0.18991712E+04 0.20002192E+04 0.90461699E+02 0.0000E+00 0.0000E+00
       23  1    3    3    0    0 -.28359896E+03 -.92195825E+02 -.27794033E+03 0.41772541E+03 0.91188000E+02 0.0000E+00 0.9000E+01
      -11  1    4    4    0    0 0.55460653E+03 0.28231281E+03 0.18673074E+04 0.19682799E+04 0.51099893E-03 0.0000E+00 0.9000E+01
       11  1    4    4    0    0 -.18823497E+01 0.11270185E+01 0.31863894E+02 0.31939335E+02 0.51099893E-03 0.0000E+00 0.9000E+01
       23  1    3    3    0    0 -.26912523E+03 -.19124401E+03 -.48890487E+02 0.34598871E+03 0.91188000E+02 0.0000E+00 0.9000E+01
#aMCatNLO 1  0  0  2  2 0.22152010D+03 0.00000000D+00  -5  7  0 0.00000000D+00 0.00000000D+00 0.00000000D+00 0.00000000D+00 0.00000000D+00
  <mgrwgt>
 0.6016376153D-03    4    2    0
 0.113655983515190D+04 0.000000000000000D+00 0.000000000000000D+00 0.113655983515190D+04
 0.113655983515190D+04 0.000000000000000D+00 0.000000000000000D+00 -.113655983515190D+04
 0.700175188922823D+03 -.283598956612134D+03 -.921958245695911D+02 -.626898401321580D+03
 0.110163646397938D+04 0.554606531511641D+03 0.282312813295812D+03 0.909018134815047D+03
 0.167951143409216D+02 -.188234973303088D+01 0.112701852224298D+01 0.166511997903367D+02
 0.454512903060664D+03 -.269125225166476D+03 -.191244007248464D+03 -.298770933283804D+03
 0.000000000000000D+00 0.000000000000000D+00 -.000000000000000D+00 0.000000000000000D+00
 0.159566955509612D+04 0.000000000000000D+00 0.000000000000000D+00 0.159566955509612D+04
 0.116898188041292D+04 0.000000000000000D+00 0.000000000000000D+00 -.116898188041292D+04
 0.697360076783535D+03 -.290496974388360D+03 -.246115346777325D+02 -.626898401321580D+03
 0.112873705638355D+04 0.543597753008073D+03 0.390172853944694D+03 0.909018134815047D+03
 0.170025651887504D+02 -.204916984835228D+01 0.276146183616607D+01 0.166511997903367D+02
 0.440788256100252D+03 -.273544293123123D+03 -.147947573472487D+03 -.298770933283804D+03
 0.480763481052949D+03 0.224926843517628D+02 -.220375207630641D+03 0.426687674683196D+03
0.871751429064D-03 0.000000000000D+00 0.000000000000D+00 0.255975416655D-05 0.000000000000D+00  7 2 -2 23 -11 11 23 21 0 0.33355952D+00 0.91660992D-01 0.40888070D+06 0.40888070D+06 0.40888070D+06 0.10747408D+01  1  2  2  2  7  2       -2 0.616732424111D-03 0.100000000000D+01
-.289502717809D-04 0.000000000000D+00 -.334775502503D-05 0.255975416655D-05 0.000000000000D+00  7 2 -2 23 -11 11 23 21 2 0.33355952D+00 0.91660992D-01 0.40888070D+06 0.40888070D+06 0.40888070D+06 0.10747408D+01  1  2  3  2  7  2       -2 -.236572489783D-04 0.100000000000D+01
0.519768238390D-04 0.000000000000D+00 0.000000000000D+00 0.255975416655D-05 0.000000000000D+00  7 2 -2 23 -11 11 23 21 2 0.33355952D+00 0.91660992D-01 0.40888070D+06 0.40888070D+06 0.40888070D+06 0.10747408D+01  1  2 15  2  7  2       -2 0.424738210394D-04 0.100000000000D+01
-.414986414859D-04 0.000000000000D+00 0.000000000000D+00 0.255975416655D-05 0.000000000000D+00  7 2 -2 23 -11 11 23 21 2 0.33355952D+00 0.91660992D-01 0.40888070D+06 0.40888070D+06 0.40888070D+06 0.10747408D+01  1  2  4  2  7  2       -2 -.339113809129D-04 0.100000000000D+01
  </mgrwgt>
  </event>
  <event>
  8     66 0.25765000E-05 0.29798281E+03 0.75467711E-02 0.90328193E-01
        2 -1    0    0  501    0 0.00000000E+00 0.00000000E+00 0.11526712E+04 0.11526713E+04 0.32000000E+00 0.0000E+00 0.9000E+01
       -2 -1    0    0    0  501 0.00000000E+00 0.00000000E+00 -.53904826E+03 0.53904836E+03 0.32000000E+00 0.0000E+00 0.9000E+01
       25  2    1    2    0    0 -.67080026E+03 -.70121511E+02 0.68488048E+03 0.10072201E+04 0.30090048E+03 0.0000E+00 0.0000E+00
       23  2    1    2    0    0 0.67080026E+03 0.70121511E+02 -.71257516E+02 0.68449950E+03 0.92584606E+02 0.0000E+00 0.0000E+00
       23  1    3    3    0    0 -.14408935E+03 0.61631763E+02 0.11428489E+03 0.21432803E+03 0.91188000E+02 0.0000E+00 0.9000E+01
      -13  1    4    4    0    0 0.12202423E+03 0.34600852E+02 -.42715795E+02 0.13383491E+03 0.10565837E+00 0.0000E+00 0.9000E+01
       13  1    4    4    0    0 0.54877603E+03 0.35520659E+02 -.28541721E+02 0.55066459E+03 0.10565837E+00 0.0000E+00 0.9000E+01
       23  1    3    3    0    0 -.52671091E+03 -.13175327E+03 0.57059559E+03 0.79289210E+03 0.91188000E+02 0.0000E+00 0.9000E+01
#aMCatNLO 1  0  0  1  2 0.77387416D+02 0.00000000D+00  -5  7  0 0.00000000D+00 0.00000000D+00 0.00000000D+00 0.00000000D+00 0.00000000D+00
  <mgrwgt>
 0.2716527324D-03    9    2    0
 0.788254742941326D+03 0.000000000000000D+00 0.000000000000000D+00 0.788254742941326D+03
 0.788254742941326D+03 0.000000000000000D+00 0.000000000000000D+00 -.788254742941326D+03
 0.185507985694522D+03 -.144089353294446D+03 0.616317629125897D+02 0.392140979739924D+02
 0.160241105581124D+03 0.122023674310374D+03 0.346008507373073D+02 -.979296479821679D+02
 0.602016588372680D+03 0.548776589370126D+03 0.355206606621625D+02 -.244962263014727D+03
 0.628743806234326D+03 -.526710910386054D+03 -.131753274312059D+03 0.303677813022903D+03
 0.000000000000000D+00 0.000000000000000D+00 0.000000000000000D+00 0.000000000000000D+00
 0.880309910746223D+03 0.000000000000000D+00 0.000000000000000D+00 0.880309910746223D+03
 0.805637496593614D+03 0.000000000000000D+00 0.000000000000000D+00 -.805637496593614D+03
 0.188484727691133D+03 -.150476908618123D+03 0.550472135681700D+02 0.392140979739924D+02
 0.155044262783969D+03 0.116638802731067D+03 0.290499081887750D+02 -.979296479821679D+02
 0.582733164044485D+03 0.528541824580807D+03 0.146618499785023D+02 -.244962263014727D+03
 0.652145578363424D+03 -.548587678341137D+03 -.154304728005571D+03 0.303677813022903D+03
 0.107539674456825D+03 0.538839596473865D+02 0.555457562701233D+02 0.746724141526090D+02
0.506101414015D-04 0.000000000000D+00 0.000000000000D+00 0.486752780552D-06 0.000000000000D+00  7 2 -2 23 -13 13 23 21 0 0.17733405D+00 0.82930513D-01 0.49605208D+06 0.49605208D+06 0.49605208D+06 0.10687538D+01  1  2  2  1  7  1        2 0.164559508078D-03 0.100000000000D+01
-.276832860938D-05 0.000000000000D+00 -.194356268938D-06 0.486752780552D-06 0.000000000000D+00  7 2 -2 23 -13 13 23 21 2 0.17733405D+00 0.82930513D-01 0.49605208D+06 0.49605208D+06 0.49605208D+06 0.10687538D+01  1  2  3  1  7  1        2 -.102815456986D-04 0.100000000000D+01
0.315202555184D-05 0.000000000000D+00 0.000000000000D+00 0.486752780552D-06 0.000000000000D+00  7 2 -2 23 -13 13 23 21 2 0.17733405D+00 0.82930513D-01 0.49605208D+06 0.49605208D+06 0.49605208D+06 0.10687538D+01  1  2 15  1  7  1        2 0.117065924343D-04 0.100000000000D+01
0.171823589429D-03 0.000000000000D+00 0.000000000000D+00 0.486752780552D-06 0.000000000000D+00  7 2 -2 23 -13 13 23 21 2 0.19984888D+00 0.82930513D-01 0.55340224D+06 0.55340224D+06 0.55340224D+06 0.10654096D+01  1  2 12  1  7  1        2 0.518554547131D-03 0.100000000000D+01
-.174320024076D-03 0.000000000000D+00 0.000000000000D+00 0.486752780552D-06 0.000000000000D+00  7 2 -2 23 -13 13 23 21 2 0.17733405D+00 0.82930513D-01 0.49605208D+06 0.49605208D+06 0.49605208D+06 0.10687538D+01  1  2  4  1  7  1        2 -.647422884565D-03 0.100000000000D+01
-.332684717451D-03 0.000000000000D+00 -.525295910478D-04 0.486752780552D-06 0.000000000000D+00  7 2 -2 23 -13 13 23 21 2 0.20015091D+00 0.82930513D-01 0.49605208D+06 0.49605208D+06 0.49605208D+06 0.10687538D+01  1  2  5  1  7  1        2 -.101302078821D-02 0.100000000000D+01
0.336953979048D-03 0.000000000000D+00 0.521471515424D-04 0.486752780552D-06 0.000000000000D+00  7 2 -2 23 -13 13 23 21 2 0.17733405D+00 0.82930513D-01 0.49605208D+06 0.49605208D+06 0.49605208D+06 0.10687538D+01  1  2  6  1  7  1        2 0.125144382143D-02 0.100000000000D+01
0.324931173867D-05 0.000000000000D+00 0.000000000000D+00 0.486752780552D-06 0.000000000000D+00  7 21 -2 23 -13 13 23 -2 2 0.19984888D+00 0.82930513D-01 0.55340224D+06 0.55340224D+06 0.55340224D+06 0.10654096D+01  1  2 12  3  7  1        2 0.430928179866D-05 0.100000000000D+01
-.611123505771D-05 0.000000000000D+00 -.100391196575D-05 0.486752780552D-06 0.000000000000D+00  7 21 -2 23 -13 13 23 -2 2 0.20015091D+00 0.82930513D-01 0.49605208D+06 0.49605208D+06 0.49605208D+06 0.10687538D+01  1  2  5  3  7  1        2 -.819579997472D-05 0.100000000000D+01
  </mgrwgt>
  </event>
  <event>
  8     66 0.25765000E-05 0.10092908E+04 0.75467711E-02 0.80849082E-01
        2 -1    0    0  501    0 0.00000000E+00 0.00000000E+00 0.16872492E+04 0.16872492E+04 0.32000000E+00 0.0000E+00 0.9000E+01
       -2 -1    0    0    0  501 0.00000000E+00 0.00000000E+00 -.78729984E+03 0.78729991E+03 0.32000000E+00 0.0000E+00 0.9000E+01
       25  2    1    2    0    0 0.98419504E+03 0.17856934E+03 0.10241946E+04 0.14624188E+04 0.29860866E+03 0.0000E+00 0.0000E+00
       23  2    1    2    0    0 -.98419504E+03 -.17856934E+03 -.12424530E+03 0.10121303E+04 0.91891490E+02 0.0000E+00 0.0000E+00
       23  1    3    3    0    0 0.57307832E+03 0.11830321E+03 0.43099178E+03 0.73245039E+03 0.91188000E+02 0.0000E+00 0.9000E+01
      -13  1    4    4    0    0 -.58910844E+03 -.88281165E+02 -.11540212E+03 0.60676188E+03 0.10565837E+00 0.0000E+00 0.9000E+01
       13  1    4    4    0    0 -.39508660E+03 -.90288176E+02 -.88431785E+01 0.40536846E+03 0.10565837E+00 0.0000E+00 0.9000E+01
       23  1    3    3    0    0 0.41111672E+03 0.60266128E+02 0.59320284E+03 0.72996837E+03 0.91188000E+02 0.0000E+00 0.9000E+01
#aMCatNLO 1  0  0  2  1 0.16576285D+04 0.00000000D+00  -5  7  0 0.00000000D+00 0.00000000D+00 0.00000000D+00 0.00000000D+00 0.00000000D+00
  <mgrwgt>
 0.2743288252D-03    5    2    0
 0.115254983445160D+04 0.000000000000000D+00 0.000000000000000D+00 0.115254983445160D+04
 0.115254983445160D+04 0.000000000000000D+00 0.000000000000000D+00 -.115254983445160D+04
 0.618026941906986D+03 0.573078318534127D+03 0.118303213431145D+03 0.176713440623129D+03
 0.696420609881723D+03 -.589108699884903D+03 -.882811625317914D+02 -.360775611606420D+03
 0.438619550502502D+03 -.395086340226032D+03 -.902881786715230D+02 -.167755591984280D+03
 0.552032566611989D+03 0.411116721576808D+03 0.602661277721696D+02 0.351817762967571D+03
 0.000000000000000D+00 0.000000000000000D+00 0.000000000000000D+00 -.000000000000000D+00
 0.153182138954831D+04 0.000000000000000D+00 0.000000000000000D+00 0.153182138954831D+04
 0.754161304816176D+04 0.000000000000000D+00 0.000000000000000D+00 -.754161304816176D+04
 0.350615853170357D+03 0.288594068197399D+03 -.101019233212265D+02 0.176713440623129D+03
 0.127003546630728D+04 -.116664438744459D+04 -.348958331312486D+03 -.360775611606420D+03
 0.825921351029678D+03 -.766473989234239D+03 -.257918132887248D+03 -.167755591984280D+03
 0.392655493468049D+03 0.133667825100509D+03 -.649635236115730D+02 0.351817762967571D+03
 0.623420627373470D+04 0.151085648338092D+04 0.681941911132533D+03 -.600979165861345D+04
0.440478439822D-03 0.000000000000D+00 0.000000000000D+00 0.103680491162D-05 0.000000000000D+00  7 2 -2 23 -13 13 23 21 0 0.25957680D+00 0.12112306D+00 0.10186680D+07 0.10186680D+07 0.10186680D+07 0.10473297D+01  1  2  2  2  7  2       -2 0.272271733799D-03 0.100000000000D+01
-.239468641944D-04 0.000000000000D+00 -.169155318955D-05 0.103680491162D-05 0.000000000000D+00  7 2 -2 23 -13 13 23 21 2 0.25957680D+00 0.12112306D+00 0.10186680D+07 0.10186680D+07 0.10186680D+07 0.10473297D+01  1  2  3  2  7  2       -2 -.162365354846D-04 0.100000000000D+01
0.270619421703D-04 0.000000000000D+00 0.000000000000D+00 0.103680491162D-05 0.000000000000D+00  7 2 -2 23 -13 13 23 21 2 0.25957680D+00 0.12112306D+00 0.10186680D+07 0.10186680D+07 0.10186680D+07 0.10473297D+01  1  2 15  2  7  2       -2 0.183486314018D-04 0.100000000000D+01
-.557684824619D-03 0.000000000000D+00 -.198658924149D-03 0.103680491162D-05 0.000000000000D+00  7 2 -2 23 -13 13 23 21 2 0.25957680D+00 0.80572807D+00 0.10186680D+07 0.10186680D+07 0.10186680D+07 0.10473297D+01  1  2  5  2  7  2       -2 -.532712437991D-07 0.100000000000D+01
-.146100545477D-03 0.000000000000D+00 -.460866246646D-04 0.103680491162D-05 0.000000000000D+00  7 2 21 23 -13 13 23 2 2 0.25957680D+00 0.80572807D+00 0.10186680D+07 0.10186680D+07 0.10186680D+07 0.10473297D+01  1  2  5  4  7  2       -2 -.173329025276D-08 0.100000000000D+01
  </mgrwgt>
  </event>
  <event>
  8     66 -.25765000E-05 0.71843286E+02 0.75467711E-02 0.10501141E+00
        2 -1    0    0  501    0 0.00000000E+00 0.00000000E+00 0.53343396E+04 0.53343396E+04 0.32000000E+00 0.0000E+00 0.9000E+01
       -2 -1    0    0    0  501 0.00000000E+00 0.00000000E+00 -.12098435E+02 0.12102666E+02 0.32000000E+00 0.0000E+00 0.9000E+01
       25  2    1    2    0    0 -.21322848E+02 0.11603006E+03 0.44491420E+04 0.44607736E+04 0.29953062E+03 0.0000E+00 0.0000E+00
       23  2    1    2    0    0 0.21322848E+02 -.11603006E+03 0.87309914E+03 0.88566869E+03 0.90494637E+02 0.0000E+00 0.0000E+00
       23  1    3    3    0    0 0.39982808E+02 0.39658413E+02 0.61302190E+03 0.62232026E+03 0.91188000E+02 0.0000E+00 0.9000E+01
      -11  1    4    4    0    0 0.26134589E+02 -.98954684E+02 0.42247556E+03 0.43469604E+03 0.51099893E-03 0.0000E+00 0.9000E+01
       11  1    4    4    0    0 -.48117419E+01 -.17075377E+02 0.45062358E+03 0.45097265E+03 0.51099893E-03 0.0000E+00 0.9000E+01
       23  1    3    3    0    0 -.61305655E+02 0.76371648E+02 0.38361201E+04 0.38384533E+04 0.91188000E+02 0.0000E+00 0.9000E+01
#aMCatNLO 1  0  0  2  1 0.72608877D+02 0.00000000D+00  -5  7  0 0.00000000D+00 0.00000000D+00 0.00000000D+00 0.00000000D+00 0.00000000D+00
  <mgrwgt>
 -.2576765431D-04    8    2    0
 0.254063959930299D+03 0.000000000000000D+00 0.000000000000000D+00 0.254063959930299D+03
 0.254063959930299D+03 0.000000000000000D+00 0.000000000000000D+00 -.254063959930299D+03
 0.127032968283098D+03 0.399828075262031D+02 0.396584129940943D+02 -.681961074250364D+02
 0.148703609117344D+03 0.261345894523851D+02 -.989546843179824D+02 -.107878251052784D+03
 0.251351676734527D+02 -.481174191065111D+01 -.170753771635058D+02 0.178060464023289D+02
 0.207256174786702D+03 -.613056550679371D+02 0.763716484873939D+02 0.158268312075492D+03
 0.000000000000000D+00 -.000000000000000D+00 0.000000000000000D+00 -.000000000000000D+00
 0.263860172799002D+03 0.000000000000000D+00 0.000000000000000D+00 0.263860172799002D+03
 0.439309713294505D+03 0.000000000000000D+00 0.000000000000000D+00 -.439309713294505D+03
 0.124253254212823D+03 0.444201682265095D+02 0.223552997134415D+02 -.681961074250364D+02
 0.164838704873926D+03 0.316713050278306D+02 -.120544639085029D+03 -.107878251052784D+03
 0.275831898629452D+02 -.388080998134283D+01 -.207054675972822D+02 0.178060464023289D+02
 0.196614274180222D+03 -.541738718748094D+02 0.485618622612657D+02 0.158268312075492D+03
 0.189880462963591D+03 -.180367913981879D+02 0.703329447076042D+02 -.175449540495503D+03
0.102680817299D-04 0.000000000000D+00 0.000000000000D+00 0.195649612973D-06 0.000000000000D+00  7 2 -2 23 -11 11 23 21 0 0.82066795D+00 0.18616239D-02 0.32594369D+05 0.32594369D+05 0.32594369D+05 0.11640085D+01  1  2  2  2  7  2       -2 0.128702881261D-04 0.100000000000D+01
-.489496111818D-06 0.000000000000D+00 -.394321374909D-07 0.195649612973D-06 0.000000000000D+00  7 2 -2 23 -11 11 23 21 2 0.82066795D+00 0.18616239D-02 0.32594369D+05 0.32594369D+05 0.32594369D+05 0.11640085D+01  1  2  3  2  7  2       -2 -.831305187528D-06 0.100000000000D+01
0.646180074148D-06 0.000000000000D+00 0.000000000000D+00 0.195649612973D-06 0.000000000000D+00  7 2 -2 23 -11 11 23 21 2 0.82066795D+00 0.18616239D-02 0.32594369D+05 0.32594369D+05 0.32594369D+05 0.11640085D+01  1  2 15  2  7  2       -2 0.109739962126D-05 0.100000000000D+01
0.195501781595D-04 0.000000000000D+00 0.000000000000D+00 0.195649612973D-06 0.000000000000D+00  7 2 -2 23 -11 11 23 21 2 0.82066795D+00 0.32316935D-02 0.48143260D+05 0.48143260D+05 0.48143260D+05 0.11487438D+01  1  2 12  2  7  2       -2 0.139998668711D-04 0.100000000000D+01
-.218920268854D-04 0.000000000000D+00 0.000000000000D+00 0.195649612973D-06 0.000000000000D+00  7 2 -2 23 -11 11 23 21 2 0.82066795D+00 0.18616239D-02 0.32594369D+05 0.32594369D+05 0.32594369D+05 0.11640085D+01  1  2  4  2  7  2       -2 -.371789582716D-04 0.100000000000D+01
-.233209650687D-04 0.000000000000D+00 -.326071377933D-05 0.195649612973D-06 0.000000000000D+00  7 2 -2 23 -11 11 23 21 2 0.82066795D+00 0.37966762D-02 0.32594369D+05 0.32594369D+05 0.32594369D+05 0.11640085D+01  1  2  5  2  7  2       -2 -.140528121972D-04 0.100000000000D+01
0.119384224830D-05 0.000000000000D+00 0.000000000000D+00 0.195649612973D-06 0.000000000000D+00  7 2 21 23 -11 11 23 2 2 0.82066795D+00 0.32316935D-02 0.48143260D+05 0.48143260D+05 0.48143260D+05 0.11487438D+01  1  2 12  4  7  2       -2 0.149281417021D-04 0.100000000000D+01
-.159884910164D-05 0.000000000000D+00 -.251301777351D-06 0.195649612973D-06 0.000000000000D+00  7 2 21 23 -11 11 23 2 2 0.82066795D+00 0.37966762D-02 0.32594369D+05 0.32594369D+05 0.32594369D+05 0.11640085D+01  1  2  5  4  7  2       -2 -.166002749744D-04 0.100000000000D+01
  </mgrwgt>
  </event>
  <event>
  8     66 0.25765000E-05 0.18369990E+03 0.75467711E-02 0.97441738E-01
        2 -1    0    0  501    0 0.00000000E+00 0.00000000E+00 0.20764981E+04 0.20764981E+04 0.32000000E+00 0.0000E+00 0.9000E+01
       -2 -1    0    0    0  501 0.00000000E+00 0.00000000E+00 -.85103794E+02 0.85104395E+02 0.32000000E+00 0.0000E+00 0.9000E+01
       25  2    1    2    0    0 -.25448504E+02 0.14214027E+03 0.19541916E+04 0.19829524E+04 0.30394689E+03 0.0000E+00 0.0000E+00
       23  2    1    2    0    0 0.25448504E+02 -.14214027E+03 0.37202701E+02 0.17865017E+03 0.98388819E+02 0.0000E+00 0.0000E+00
       23  1    3    3    0    0 0.10331540E+03 0.25318796E+02 0.79352103E+03 0.80579525E+03 0.91188000E+02 0.0000E+00 0.9000E+01
      -11  1    4    4    0    0 -.79204323E+01 -.69525732E+01 0.37967384E+02 0.39402966E+02 0.51099893E-03 0.0000E+00 0.9000E+01
       11  1    4    4    0    0 0.33368936E+02 -.13518769E+03 -.76468299E+00 0.13924720E+03 0.51099893E-03 0.0000E+00 0.9000E+01
       23  1    3    3    0    0 -.12876390E+03 0.11682147E+03 0.11606706E+04 0.11771571E+04 0.91188000E+02 0.0000E+00 0.9000E+01
#aMCatNLO 1  0  0  1  2 0.23311598D+03 0.00000000D+00  -5  7  0 0.00000000D+00 0.00000000D+00 0.00000000D+00 0.00000000D+00 0.00000000D+00
  <mgrwgt>
 0.3082165093D-03    7    2    0
 0.420379047461209D+03 0.000000000000000D+00 0.000000000000000D+00 0.420379047461209D+03
 0.420379047461209D+03 0.000000000000000D+00 0.000000000000000D+00 -.420379047461209D+03
 0.192202476207433D+03 0.103315398300823D+03 0.253187964265017D+02 0.131572898188512D+03
 0.113772551213234D+02 -.792043228605959D+01 -.695257314761940D+01 0.428607199246900D+01
 0.359817992897180D+03 0.333689361876871D+02 -.135187694557301D+03 -.331782744202496D+03
 0.277360370696482D+03 -.128763902202450D+03 0.116821471278418D+03 0.195923774021515D+03
 0.000000000000000D+00 -.000000000000000D+00 0.000000000000000D+00 0.000000000000000D+00
 0.129247875080064D+04 0.000000000000000D+00 0.000000000000000D+00 0.129247875080064D+04
 0.452105595223436D+03 0.000000000000000D+00 0.000000000000000D+00 -.452105595223436D+03
 0.216295643028659D+03 0.145003921929072D+03 -.114450398271127D+02 0.131572898188512D+03
 0.114344188250239D+02 -.559242889135461D+01 -.900556826838679D+01 0.428607199246900D+01
 0.405124386582365D+03 0.111433722681237D+03 -.204030646478905D+03 -.331782744202496D+03
 0.239623193843858D+03 -.760040961449334D+02 0.702942090523069D+02 0.195923774021515D+03
 0.872106703744166D+03 -.174841119574022D+03 0.154187045522097D+03 0.840373155577202D+03
0.909868051180D-05 0.000000000000D+00 0.000000000000D+00 0.109241659562D-08 0.000000000000D+00  7 2 -2 23 -11 11 23 21 0 0.31946130D+00 0.13092940D-01 0.59101347D+05 0.59101347D+05 0.59101347D+05 0.11409614D+01  1  2  2  1  7  1        2 0.298909849489D-03 0.100000000000D+01
-.321151734008D-06 0.000000000000D+00 -.349413289029D-07 0.109241659562D-08 0.000000000000D+00  7 2 -2 23 -11 11 23 21 2 0.31946130D+00 0.13092940D-01 0.59101347D+05 0.59101347D+05 0.59101347D+05 0.11409614D+01  1  2  3  1  7  1        2 -.137345355213D-04 0.100000000000D+01
0.538777840108D-06 0.000000000000D+00 0.000000000000D+00 0.109241659562D-08 0.000000000000D+00  7 2 -2 23 -11 11 23 21 2 0.31946130D+00 0.13092940D-01 0.59101347D+05 0.59101347D+05 0.59101347D+05 0.11409614D+01  1  2 15  1  7  1        2 0.230416423125D-04 0.100000000000D+01
0.500511194582D-07 0.000000000000D+00 0.000000000000D+00 0.109241659562D-08 0.000000000000D+00  7 2 -2 23 -11 11 23 21 2 0.96467952D+00 0.13092940D-01 0.15438240D+06 0.15438240D+06 0.15438240D+06 0.11065663D+01  1  2 12  1  7  1        2 0.477124045353D-11 0.100000000000D+01
-.164860219231D-04 0.000000000000D+00 -.222756655569D-05 0.109241659562D-08 0.000000000000D+00  7 2 -2 23 -11 11 23 21 2 0.98254881D+00 0.13092940D-01 0.59101347D+05 0.59101347D+05 0.59101347D+05 0.11409614D+01  1  2  5  1  7  1        2 -.451513079928D-09 0.100000000000D+01
0.630149524251D-08 0.000000000000D+00 0.000000000000D+00 0.109241659562D-08 0.000000000000D+00  7 21 -2 23 -11 11 23 -2 2 0.96467952D+00 0.13092940D-01 0.15438240D+06 0.15438240D+06 0.15438240D+06 0.11065663D+01  1  2 12  3  7  1        2 0.253892006187D-14 0.100000000000D+01
-.201151100976D-05 0.000000000000D+00 -.286100993494D-06 0.109241659562D-08 0.000000000000D+00  7 21 -2 23 -11 11 23 -2 2 0.98254881D+00 0.13092940D-01 0.59101347D+05 0.59101347D+05 0.59101347D+05 0.11409614D+01  1  2  5  3  7  1        2 -.218239582746D-12 0.100000000000D+01
  </mgrwgt>
  </event>
  <event>
  8     66 0.25765000E-05 0.19883771E+03 0.75467711E-02 0.98141447E-01
        2 -1    0    0  501    0 0.00000000E+00 0.00000000E+00 0.20748624E+04 0.20748625E+04 0.32000000E+00 0.0000E+00 0.9000E+01
       -2 -1    0    0    0  501 0.00000000E+00 0.00000000E+00 -.78367276E+02 0.78367929E+02 0.32000000E+00 0.0000E+00 0.9000E+01
       25  2    1    2    0    0 -.11665612E+03 -.80480509E+02 0.19576244E+04 0.19855183E+04 0.29983955E+03 0.0000E+00 0.0000E+00
       23  2    1    2    0    0 0.11665612E+03 0.80480509E+02 0.38870746E+02 0.16771210E+03 0.80812448E+02 0.0000E+00 0.0000E+00
       23  1    3    3    0    0 -.83276188E+02 -.44173777E+02 0.17348749E+04 0.17398254E+04 0.91188000E+02 0.0000E+00 0.9000E+01
      -11  1    4    4    0    0 -.12389701E+02 0.50789232E+01 0.47253496E+00 0.13398636E+02 0.51099893E-03 0.0000E+00 0.9000E+01
       11  1    4    4    0    0 0.12904582E+03 0.75401586E+02 0.38398211E+02 0.15431347E+03 0.51099893E-03 0.0000E+00 0.9000E+01
       23  1    3    3    0    0 -.33379934E+02 -.36306732E+02 0.22274954E+03 0.24569291E+03 0.91188000E+02 0.0000E+00 0.9000E+01
#aMCatNLO 1  0  0  1  1 0.27572471D+03 0.00000000D+00  -5  7  0 0.00000000D+00 0.00000000D+00 0.00000000D+00 0.00000000D+00 0.00000000D+00
  <mgrwgt>
 0.8714293499D-03    3    2    0
 0.403239441667818D+03 0.000000000000000D+00 0.000000000000000D+00 0.403239441667818D+03
 0.403239441667818D+03 0.000000000000000D+00 0.000000000000000D+00 -.403239441667818D+03
 0.350381866715029D+03 -.832761878503308D+02 -.441737773474989D+02 0.324909149010425D+03
 0.346034318136428D+02 -.123897014596830D+02 0.507892320249933D+01 -.319076374889222D+02
 0.316946434068486D+03 0.129045823413684D+03 0.754015857890322D+02 -.279493861093070D+03
 0.104547150738477D+03 -.333799341036705D+02 -.363067316440326D+02 -.135076504284325D+02
 0.000000000000000D+00 -.000000000000000D+00 -.000000000000000D+00 -.000000000000000D+00
 0.451746009165743D+03 0.000000000000000D+00 0.000000000000000D+00 0.451746009165743D+03
 0.116883853450312D+04 0.000000000000000D+00 0.000000000000000D+00 -.116883853450312D+04
 0.338489935408110D+03 0.785938371349154D+01 0.251487575349508D+02 0.324909149010425D+03
 0.342497613082706D+02 -.328064068840452D+01 0.120077565024704D+02 -.319076374889222D+02
 0.385679807092413D+03 0.222001063977432D+03 0.146108257134965D+03 -.279493861093070D+03
 0.938904769762743D+02 -.712726043374408D+01 -.163375598375381D+02 -.135076504284325D+02
 0.768274562883795D+03 -.219452546568775D+03 -.166927211334848D+03 -.717092525337377D+03
0.219036199902D-04 0.000000000000D+00 0.000000000000D+00 0.157346712210D-07 0.000000000000D+00  7 2 -2 23 -11 11 23 21 0 0.31920966D+00 0.12056556D-01 0.39536436D+05 0.39536436D+05 0.39536436D+05 0.11563743D+01  1  2  2  1  7  1        2 0.829070892590D-03 0.100000000000D+01
-.477237354742D-06 0.000000000000D+00 -.841156681180D-07 0.157346712210D-07 0.000000000000D+00  7 2 -2 23 -11 11 23 21 2 0.31920966D+00 0.12056556D-01 0.39536436D+05 0.39536436D+05 0.39536436D+05 0.11563743D+01  1  2  3  1  7  1        2 -.241550026658D-04 0.100000000000D+01
0.131412561412D-05 0.000000000000D+00 0.000000000000D+00 0.157346712210D-07 0.000000000000D+00  7 2 -2 23 -11 11 23 21 2 0.31920966D+00 0.12056556D-01 0.39536436D+05 0.39536436D+05 0.39536436D+05 0.11563743D+01  1  2 15  1  7  1        2 0.665134600147D-04 0.100000000000D+01
  </mgrwgt>
  </event>
  <event>
  9     66 -.25765000E-05 0.16024052E+03 0.75467711E-02 0.10836819E+00
        4 -1    0    0  501    0 0.00000000E+00 0.00000000E+00 0.37046388E+03 0.37046712E+03 0.15500000E+01 0.0000E+00 0.9000E+01
       -4 -1    0    0    0  502 0.00000000E+00 0.00000000E+00 -.14371391E+03 0.14372227E+03 0.15500000E+01 0.0000E+00 0.9000E+01
       25  2    1    2    0    0 -.17569404E+02 0.52320372E+02 0.78875169E+02 0.31579081E+03 0.30075977E+03 0.0000E+00 0.0000E+00
       23  2    1    2    0    0 -.49737911E+01 -.44256519E+02 0.13964869E+03 0.17307167E+03 0.92025356E+02 0.0000E+00 0.0000E+00
       23  1    3    3    0    0 -.46958170E+02 -.44351463E+02 -.55289537E+02 0.12467681E+03 0.91188000E+02 0.0000E+00 0.9000E+01
      -11  1    4    4    0    0 0.24534045E+02 -.39282595E+02 0.21262474E+02 0.50962089E+02 0.51099893E-03 0.0000E+00 0.9000E+01
       11  1    4    4    0    0 -.29507836E+02 -.49739244E+01 0.11838622E+03 0.12210958E+03 0.51099893E-03 0.0000E+00 0.9000E+01
       23  1    3    3    0    0 0.29388766E+02 0.96671835E+02 0.13416471E+03 0.19111400E+03 0.91188000E+02 0.0000E+00 0.9000E+01
       21  1    1    2  501  502 0.22543195E+02 -.80638524E+01 0.82261068E+01 0.25326917E+02 0.75000000E+00 0.0000E+00 0.9000E+01
#aMCatNLO 2  0  0  2  1 0.23942042D+02 0.00000000D+00  -5  7  0 0.00000000D+00 0.00000000D+00 0.00000000D+00 0.00000000D+00 0.00000000D+00
  <mgrwgt>
 -.4246907958D-05    2    2    0
 0.218323511516748D+03 0.000000000000000D+00 0.000000000000000D+00 0.218323511516748D+03
 0.218323511516748D+03 0.000000000000000D+00 0.000000000000000D+00 -.218323511516748D+03
 0.165650854098054D+03 -.383774361216670D+02 -.474208487388092D+02 -.124110392880826D+03
 0.484073829760298D+02 0.269781626789872D+02 -.401568724726166D+02 -.169677879292696D+01
 0.760327757451436D+02 -.255514351460113D+02 -.638915576584672D+01 0.713252117984252D+02
 0.146556010214269D+03 0.369507085886911D+02 0.939668769772725D+02 0.544819598753276D+02
 0.000000000000000D+00 0.000000000000000D+00 -.000000000000000D+00 -.000000000000000D+00
 0.229016846692430D+03 0.000000000000000D+00 0.000000000000000D+00 0.229016846692430D+03
 0.232476833911598D+03 0.000000000000000D+00 0.000000000000000D+00 -.232476833911598D+03
 0.167005278205013D+03 -.469581703310259D+02 -.443514624613803D+02 -.124110392880826D+03
 0.463456654601096D+02 0.245340450295453D+02 -.392825951682996D+02 -.169677879292696D+01
 0.773481619580635D+02 -.295078361601805D+02 -.497392454150095D+01 0.713252117984252D+02
 0.146603814669919D+03 0.293887661083953D+02 0.966718346083352D+02 0.544819598753276D+02
 0.241907603109227D+02 0.225431953532658D+02 -.806385243715432D+01 -.345998721916838D+01
-.110250581123D-05 0.000000000000D+00 0.000000000000D+00 0.462046816147D-07 0.000000000000D+00  7 4 -4 23 -11 11 23 21 2 0.54332719D-01 0.22589952D-01 0.30281571D+05 0.30281571D+05 0.30281571D+05 0.11669597D+01  1  2 13  2  7  2       -4 -.212379486314D-04 0.100000000000D+01
0.945036634076D-06 0.000000000000D+00 0.000000000000D+00 0.462046816147D-07 0.587186066398D-09  7 4 -4 23 -11 11 23 21 2 0.56993898D-01 0.22110168D-01 0.30281571D+05 0.30281571D+05 0.30281571D+05 0.11669597D+01  1  2  1  2  7  2       -4 0.169910406735D-04 0.100000000000D+01
  </mgrwgt>
  </event>
  <event>
  8     66 0.25765000E-05 0.18647069E+03 0.75467711E-02 0.93779674E-01
        2 -1    0    0  501    0 0.00000000E+00 0.00000000E+00 0.12105626E+04 0.12105627E+04 0.32000000E+00 0.0000E+00 0.9000E+01
       -2 -1    0    0    0  501 0.00000000E+00 0.00000000E+00 -.19140508E+03 0.19140535E+03 0.32000000E+00 0.0000E+00 0.9000E+01
       25  2    1    2    0    0 -.24608123E+03 0.28989097E+03 0.26297051E+03 0.55072657E+03 0.29925494E+03 0.0000E+00 0.0000E+00
       23  2    1    2    0    0 0.24608123E+03 -.28989097E+03 0.75618705E+03 0.85124146E+03 0.90556162E+02 0.0000E+00 0.0000E+00
       23  1    3    3    0    0 -.20019745E+03 0.18877586E+03 0.28364030E+03 0.40556432E+03 0.91188000E+02 0.0000E+00 0.9000E+01
      -13  1    4    4    0    0 0.80538668E+02 -.99002437E+02 0.35365554E+03 0.37597901E+03 0.10565837E+00 0.0000E+00 0.9000E+01
       13  1    4    4    0    0 0.16554256E+03 -.19088853E+03 0.40253151E+03 0.47526245E+03 0.10565837E+00 0.0000E+00 0.9000E+01
       23  1    3    3    0    0 -.45883775E+02 0.10111511E+03 -.20669797E+02 0.14516225E+03 0.91188000E+02 0.0000E+00 0.9000E+01
#aMCatNLO 1  0  0  1  2 0.23379157D+03 0.00000000D+00  -5  7  0 0.00000000D+00 0.00000000D+00 0.00000000D+00 0.00000000D+00 0.00000000D+00
  <mgrwgt>
 0.3062841719D-03    9    2    0
 0.481360630249853D+03 0.000000000000000D+00 0.000000000000000D+00 0.481360630249853D+03
 0.481360630249853D+03 0.000000000000000D+00 0.000000000000000D+00 -.481360630249853D+03
 0.290337467135786D+03 -.200197453666638D+03 0.188775858499747D+03 -.162864444217163D+02
 0.173133920187336D+03 0.805385518275806D+02 -.990023122933409D+02 0.116993325234916D+03
 0.265975070696728D+03 0.165542677286235D+03 -.190888657302820D+03 0.830655207782478D+02
 0.233274802479855D+03 -.458837754471778D+02 0.101115111096414D+03 -.183772401591448D+03
 0.000000000000000D+00 0.000000000000000D+00 -.000000000000000D+00 0.000000000000000D+00
 0.645966623856004D+03 0.000000000000000D+00 0.000000000000000D+00 0.645966623856004D+03
 0.586076252689238D+03 0.000000000000000D+00 0.000000000000000D+00 -.586076252689238D+03
 0.355176440483530D+03 -.219215941900696D+03 0.263655409721173D+03 -.162864444217163D+02
 0.150048937583762D+03 0.710167594921725D+02 -.615131318640490D+02 0.116993325234916D+03
 0.218879383625398D+03 0.151257626838965D+03 -.134645587217395D+03 0.830655207782478D+02
 0.266597374157807D+03 -.606112863461730D+02 0.159100235526575D+03 -.183772401591448D+03
 0.241340740694744D+03 0.575528419157311D+02 -.226596926166304D+03 0.598903711667661D+02
0.104975285404D-04 0.000000000000D+00 0.000000000000D+00 0.442299691276D-06 0.000000000000D+00  7 2 -2 23 -13 13 23 21 0 0.18624043D+00 0.29446959D-01 0.16559162D+06 0.16559162D+06 0.16559162D+06 0.11041786D+01  1  2  2  1  7  1        2 0.257953018836D-03 0.100000000000D+01
-.563188445847D-06 0.000000000000D+00 -.403132736579D-07 0.442299691276D-06 0.000000000000D+00  7 2 -2 23 -13 13 23 21 2 0.18624043D+00 0.29446959D-01 0.16559162D+06 0.16559162D+06 0.16559162D+06 0.11041786D+01  1  2  3  1  7  1        2 -.168727535335D-04 0.100000000000D+01
0.660348488898D-06 0.000000000000D+00 0.000000000000D+00 0.442299691276D-06 0.000000000000D+00  7 2 -2 23 -13 13 23 21 2 0.18624043D+00 0.29446959D-01 0.16559162D+06 0.16559162D+06 0.16559162D+06 0.11041786D+01  1  2 15  1  7  1        2 0.197836041942D-04 0.100000000000D+01
0.242268997115D-05 0.000000000000D+00 0.000000000000D+00 0.442299691276D-06 0.000000000000D+00  7 2 -2 23 -13 13 23 21 2 0.26449524D+00 0.29446959D-01 0.29062331D+06 0.29062331D+06 0.29062331D+06 0.10855736D+01  1  2 12  1  7  1        2 0.360972968724D-04 0.100000000000D+01
-.496507847287D-05 0.000000000000D+00 0.000000000000D+00 0.442299691276D-06 0.000000000000D+00  7 2 -2 23 -13 13 23 21 2 0.18624043D+00 0.29446959D-01 0.16559162D+06 0.16559162D+06 0.16559162D+06 0.11041786D+01  1  2  4  1  7  1        2 -.148750468808D-03 0.100000000000D+01
-.773321959091D-05 0.000000000000D+00 -.397307630466D-05 0.442299691276D-06 0.000000000000D+00  7 2 -2 23 -13 13 23 21 2 0.27896689D+00 0.29446959D-01 0.16559162D+06 0.16559162D+06 0.16559162D+06 0.11041786D+01  1  2  5  1  7  1        2 -.108326591778D-03 0.100000000000D+01
0.890530869512D-05 0.000000000000D+00 0.366944206287D-05 0.442299691276D-06 0.000000000000D+00  7 2 -2 23 -13 13 23 21 2 0.18624043D+00 0.29446959D-01 0.16559162D+06 0.16559162D+06 0.16559162D+06 0.11041786D+01  1  2  6  1  7  1        2 0.266797161519D-03 0.100000000000D+01
0.104826343846D-06 0.000000000000D+00 0.000000000000D+00 0.442299691276D-06 0.000000000000D+00  7 21 -2 23 -13 13 23 -2 2 0.26449524D+00 0.29446959D-01 0.29062331D+06 0.29062331D+06 0.29062331D+06 0.10855736D+01  1  2 12  3  7  1        2 0.422965589110D-06 0.100000000000D+01
-.233366338314D-06 0.000000000000D+00 -.190524139080D-06 0.442299691276D-06 0.000000000000D+00  7 21 -2 23 -13 13 23 -2 2 0.27896689D+00 0.29446959D-01 0.16559162D+06 0.16559162D+06 0.16559162D+06 0.11041786D+01  1  2  5  3  7  1        2 -.820061022533D-06 0.100000000000D+01
  </mgrwgt>
  </event>
  <event>
  8     66 0.25765000E-05 0.11647144E+03 0.75467711E-02 0.10691023E+00
        2 -1    0    0  501    0 0.00000000E+00 0.00000000E+00 0.45100884E+03 0.45100895E+03 0.32000000E+00 0.0000E+00 0.9000E+01
       -2 -1    0    0    0  501 0.00000000E+00 0.00000000E+00 -.91889842E+02 0.91890399E+02 0.32000000E+00 0.0000E+00 0.9000E+01
       25  2    1    2    0    0 -.17082874E+02 0.45480799E+02 0.25585490E+03 0.39674051E+03 0.29930082E+03 0.0000E+00 0.0000E+00
       23  2    1    2    0    0 0.17082874E+02 -.45480799E+02 0.10326410E+03 0.14615884E+03 0.91315956E+02 0.0000E+00 0.0000E+00
       23  1    3    3    0    0 0.61070711E+02 -.70631201E+02 0.74940549E+02 0.15049829E+03 0.91188000E+02 0.0000E+00 0.9000E+01
      -13  1    4    4    0    0 0.34494457E+02 -.36943175E+02 0.10802257E+02 0.51685256E+02 0.10565837E+00 0.0000E+00 0.9000E+01
       13  1    4    4    0    0 -.17411583E+02 -.85376241E+01 0.92461841E+02 0.94473580E+02 0.10565837E+00 0.0000E+00 0.9000E+01
       23  1    3    3    0    0 -.78153585E+02 0.11611200E+03 0.18091435E+03 0.24624222E+03 0.91188000E+02 0.0000E+00 0.9000E+01
#aMCatNLO 1  0  0  1  2 0.16985156D+02 0.00000000D+00  -5  7  0 0.00000000D+00 0.00000000D+00 0.00000000D+00 0.00000000D+00 0.00000000D+00
  <mgrwgt>
 0.5282779590D-03    9    2    0
 0.203576306842127D+03 0.000000000000000D+00 0.000000000000000D+00 0.203576306842127D+03
 0.203576306842127D+03 0.000000000000000D+00 0.000000000000000D+00 -.203576306842127D+03
 0.134575483802063D+03 0.610705836095650D+02 -.706308618352386D+02 -.328172922490231D+02
 0.593895927357853D+02 0.344945280049111D+02 -.369435778433768D+02 -.311837027816007D+02
 0.444176324195095D+02 -.174113665400593D+02 -.853798497933193D+01 0.399608958540105D+02
 0.168769904726897D+03 -.781537450744168D+02 0.116112424657947D+03 0.240400991766133D+02
 0.000000000000000D+00 -.000000000000000D+00 0.000000000000000D+00 0.000000000000000D+00
 0.217253985973557D+03 0.000000000000000D+00 0.000000000000000D+00 0.217253985973557D+03
 0.209095638913948D+03 0.000000000000000D+00 0.000000000000000D+00 -.209095638913948D+03
 0.137251211388487D+03 0.667379666532320D+02 -.706520546059457D+02 -.328172922490231D+02
 0.608860069359356D+02 0.370021841924998D+02 -.369529550430801D+02 -.311837027816007D+02
 0.437312539141152D+02 -.155735282682327D+02 -.854485744318188D+01 0.399608958540105D+02
 0.165638271712012D+03 -.711815850093984D+02 0.116086352767544D+03 0.240400991766133D+02
 0.188428809369549D+02 -.169850375681007D+02 0.635143246640621D-01 0.815834705960888D+01
0.995513434156D-06 0.000000000000D+00 0.000000000000D+00 0.571348845629D-07 0.000000000000D+00  7 2 -2 23 -13 13 23 21 0 0.69386027D-01 0.14136950D-01 0.33763670D+05 0.33763670D+05 0.33763670D+05 0.11626033D+01  1  2  2  1  7  1        2 0.286654615128D-03 0.100000000000D+01
-.546002210070D-07 0.000000000000D+00 -.382303371187D-08 0.571348845629D-07 0.000000000000D+00  7 2 -2 23 -13 13 23 21 2 0.69386027D-01 0.14136950D-01 0.33763670D+05 0.33763670D+05 0.33763670D+05 0.11626033D+01  1  2  3  1  7  1        2 -.212505092452D-04 0.100000000000D+01
0.638487948402D-07 0.000000000000D+00 0.000000000000D+00 0.571348845629D-07 0.000000000000D+00  7 2 -2 23 -13 13 23 21 2 0.69386027D-01 0.14136950D-01 0.33763670D+05 0.33763670D+05 0.33763670D+05 0.11626033D+01  1  2 15  1  7  1        2 0.248500716668D-04 0.100000000000D+01
0.311800042067D-05 0.000000000000D+00 0.000000000000D+00 0.571348845629D-07 0.000000000000D+00  7 2 -2 23 -13 13 23 21 2 0.74942666D-01 0.14136950D-01 0.36901950D+05 0.36901950D+05 0.36901950D+05 0.11590831D+01  1  2 12  1  7  1        2 0.111089924135D-02 0.100000000000D+01
-.301150687117D-05 0.000000000000D+00 0.000000000000D+00 0.571348845629D-07 0.000000000000D+00  7 2 -2 23 -13 13 23 21 2 0.69386027D-01 0.14136950D-01 0.33763670D+05 0.33763670D+05 0.33763670D+05 0.11626033D+01  1  2  4  1  7  1        2 -.117208416793D-02 0.100000000000D+01
-.919439067927D-05 0.000000000000D+00 -.160830314689D-05 0.571348845629D-07 0.000000000000D+00  7 2 -2 23 -13 13 23 21 2 0.75629368D-01 0.14136950D-01 0.33763670D+05 0.33763670D+05 0.33763670D+05 0.11626033D+01  1  2  5  1  7  1        2 -.325855885293D-02 0.100000000000D+01
0.930435552418D-05 0.000000000000D+00 0.160235201386D-05 0.571348845629D-07 0.000000000000D+00  7 2 -2 23 -13 13 23 21 2 0.69386027D-01 0.14136950D-01 0.33763670D+05 0.33763670D+05 0.33763670D+05 0.11626033D+01  1  2  6  1  7  1        2 0.362127276119D-02 0.100000000000D+01
0.410643873364D-07 0.000000000000D+00 0.000000000000D+00 0.571348845629D-07 0.000000000000D+00  7 21 -2 23 -13 13 23 -2 2 0.74942666D-01 0.14136950D-01 0.36901950D+05 0.36901950D+05 0.36901950D+05 0.11590831D+01  1  2 12  3  7  1        2 0.308830482091D-04 0.100000000000D+01
-.127126754328D-06 0.000000000000D+00 -.229387332848D-07 0.571348845629D-07 0.000000000000D+00  7 21 -2 23 -13 13 23 -2 2 0.75629368D-01 0.14136950D-01 0.33763670D+05 0.33763670D+05 0.33763670D+05 0.11626033D+01  1  2  5  3  7  1        2 -.943882484752D-04 0.100000000000D+01
  </mgrwgt>
  </event>
  <event>
  8     66 0.25765000E-05 0.19608632E+03 0.75467711E-02 0.98170309E-01
        2 -1    0    0  501    0 0.00000000E+00 0.00000000E+00 0.76327524E+03 0.76327530E+03 0.32000000E+00 0.0000E+00 0.9000E+01
       -2 -1    0    0    0  501 0.00000000E+00 0.00000000E+00 -.83831720E+02 0.83832331E+02 0.32000000E+00 0.0000E+00 0.9000E+01
       25  2    1    2    0    0 0.59270599E+01 -.13386258E+03 0.54855604E+03 0.63933168E+03 0.29979484E+03 0.0000E+00 0.0000E+00
       23  2    1    2    0    0 -.59270599E+01 0.13386258E+03 0.13088748E+03 0.20777596E+03 0.89916597E+02 0.0000E+00 0.0000E+00
       23  1    3    3    0    0 -.33400542E+01 0.39343264E+01 0.41987528E+03 0.42969423E+03 0.91188000E+02 0.0000E+00 0.9000E+01
      -13  1    4    4    0    0 0.44723189E+01 0.95210981E+02 0.13739918E+03 0.16722344E+03 0.10565837E+00 0.0000E+00 0.9000E+01
       13  1    4    4    0    0 -.10399379E+02 0.38651604E+02 -.65116982E+01 0.40552521E+02 0.10565837E+00 0.0000E+00 0.9000E+01
       23  1    3    3    0    0 0.92671142E+01 -.13779691E+03 0.12868076E+03 0.20963744E+03 0.91188000E+02 0.0000E+00 0.9000E+01
#aMCatNLO 1  0  0  1  2 0.26265983D+03 0.00000000D+00  -5  7  0 0.00000000D+00 0.00000000D+00 0.00000000D+00 0.00000000D+00 0.00000000D+00
  <mgrwgt>
 0.1965325467D-03    5    2    0
 0.252956444702763D+03 0.000000000000000D+00 0.000000000000000D+00 0.252956444702763D+03
 0.252956444702763D+03 0.000000000000000D+00 0.000000000000000D+00 -.252956444702763D+03
 0.155591472352321D+03 -.334005417233116D+01 0.393432463375125D+01 0.125963566369666D+03
 0.954735157088200D+02 0.447233850113230D+01 0.952110590390800D+02 0.548129791111688D+01
 0.766469248899211D+02 -.103993986114255D+02 0.386515295878707D+02 -.653656091849517D+02
 0.178200976454464D+03 0.926711428262432D+01 -.137796913260702D+03 -.660792550958307D+02
 0.000000000000000D+00 0.000000000000000D+00 -.000000000000000D+00 0.000000000000000D+00
 0.622314136767793D+03 0.000000000000000D+00 0.000000000000000D+00 0.622314136767793D+03
 0.336151214337653D+03 0.000000000000000D+00 0.000000000000000D+00 -.336151214337653D+03
 0.177731637091848D+03 -.242862061519856D+02 0.825629675915689D+02 0.125963566369666D+03
 0.154742183900714D+03 -.112513119845978D+02 0.154235232130007D+03 0.548129791111688D+01
 0.107142001427282D+03 -.219487651982101D+02 0.820060809452423D+02 -.653656091849517D+02
 0.130417544723942D+03 -.101265918997005D+02 -.649959137969334D+02 -.660792550958307D+02
 0.388431983961660D+03 0.676128752344940D+02 -.253808366869885D+03 0.286162922430140D+03
0.110062410668D-05 0.000000000000D+00 0.000000000000D+00 0.112698005822D-06 0.000000000000D+00  7 2 -2 23 -13 13 23 21 0 0.11742701D+00 0.12897240D-01 0.38449846D+05 0.38449846D+05 0.38449846D+05 0.11574667D+01  1  2  2  1  7  1        2 0.201842024420D-03 0.100000000000D+01
-.563243363997D-07 0.000000000000D+00 -.422668637064D-08 0.112698005822D-06 0.000000000000D+00  7 2 -2 23 -13 13 23 21 2 0.11742701D+00 0.12897240D-01 0.38449846D+05 0.38449846D+05 0.38449846D+05 0.11574667D+01  1  2  3  1  7  1        2 -.138383922695D-04 0.100000000000D+01
0.698398085849D-07 0.000000000000D+00 0.000000000000D+00 0.112698005822D-06 0.000000000000D+00  7 2 -2 23 -13 13 23 21 2 0.11742701D+00 0.12897240D-01 0.38449846D+05 0.38449846D+05 0.38449846D+05 0.11574667D+01  1  2 15  1  7  1        2 0.171590244822D-04 0.100000000000D+01
-.199208205226D-06 0.000000000000D+00 -.340034269988D-06 0.112698005822D-06 0.000000000000D+00  7 2 -2 23 -13 13 23 21 2 0.32637703D+00 0.12897240D-01 0.38449846D+05 0.38449846D+05 0.38449846D+05 0.11574667D+01  1  2  5  1  7  1        2 -.859886862094D-05 0.100000000000D+01
-.368556923897D-08 0.000000000000D+00 -.389812069802D-07 0.112698005822D-06 0.000000000000D+00  7 21 -2 23 -13 13 23 -2 2 0.32637703D+00 0.12897240D-01 0.38449846D+05 0.38449846D+05 0.38449846D+05 0.11574667D+01  1  2  5  3  7  1        2 -.312413292717D-07 0.100000000000D+01
  </mgrwgt>
  </event>
  <event>
  8     66 0.25765000E-05 0.21804882E+03 0.75467711E-02 0.92554225E-01
        2 -1    0    0  501    0 0.00000000E+00 0.00000000E+00 0.10795912E+03 0.10795959E+03 0.32000000E+00 0.0000E+00 0.9000E+01
       -2 -1    0    0    0  501 0.00000000E+00 0.00000000E+00 -.18094988E+04 0.18094988E+04 0.32000000E+00 0.0000E+00 0.9000E+01
       25  2    1    2    0    0 0.15746134E+03 0.34880665E+03 -.10333803E+04 0.11419153E+04 0.29939220E+03 0.0000E+00 0.0000E+00
       23  2    1    2    0    0 -.15746134E+03 -.34880665E+03 -.66815938E+03 0.77554306E+03 0.92573892E+02 0.0000E+00 0.0000E+00
       23  1    3    3    0    0 0.14197292E+03 0.32387255E+03 -.63828571E+03 0.73537313E+03 0.91188000E+02 0.0000E+00 0.9000E+01
      -13  1    4    4    0    0 -.11850185E+03 -.26569275E+03 -.41969806E+03 0.51066799E+03 0.10565837E+00 0.0000E+00 0.9000E+01
       13  1    4    4    0    0 -.38959491E+02 -.83113901E+02 -.24846131E+03 0.26487506E+03 0.10565837E+00 0.0000E+00 0.9000E+01
       23  1    3    3    0    0 0.15488423E+02 0.24934098E+02 -.39509456E+03 0.40654221E+03 0.91188000E+02 0.0000E+00 0.9000E+01
#aMCatNLO 1  0  0  2  1 0.30725288D+03 0.00000000D+00  -5  7  0 0.00000000D+00 0.00000000D+00 0.00000000D+00 0.00000000D+00 0.00000000D+00
  <mgrwgt>
 0.2427196030D-03    7    2    0
 0.441986848661911D+03 0.000000000000000D+00 0.000000000000000D+00 0.441986848661911D+03
 0.441986848661911D+03 0.000000000000000D+00 0.000000000000000D+00 -.441986848661911D+03
 0.366502909059126D+03 0.141972919146401D+03 0.323872551211383D+03 0.309740505210744D+02
 0.299841465383550D+03 -.118501954269062D+03 -.265692985743136D+03 0.725908294804912D+02
 0.962923416323986D+02 -.389593875524734D+02 -.831136630210819D+02 -.290946764512821D+02
 0.121336981248746D+03 0.154884226751350D+02 0.249340975528353D+02 -.744702035502835D+02
 0.000000000000000D+00 0.000000000000000D+00 0.000000000000000D+00 -.000000000000000D+00
 0.506592086407316D+03 0.000000000000000D+00 0.000000000000000D+00 0.506592086407316D+03
 0.107828499977052D+04 0.000000000000000D+00 0.000000000000000D+00 -.107828499977052D+04
 0.265445666706833D+03 0.106603523534780D+03 0.223209425414167D+03 0.309740505210744D+02
 0.418219718051887D+03 -.158690968129079D+03 -.380072993880109D+03 0.725908294804912D+02
 0.133687486989946D+03 -.518310797330866D+02 -.119747163446925D+03 -.290946764512821D+02
 0.118496385753102D+03 0.206523989784390D+01 -.132689735809431D+02 -.744702035502835D+02
 0.649027828676065D+03 0.101853284429542D+03 0.289879705493810D+03 -.571692913363201D+03
0.139109944188D-03 0.000000000000D+00 0.000000000000D+00 0.264728673714D-06 0.000000000000D+00  7 2 -2 23 -13 13 23 21 0 0.16609134D-01 0.27838446D+00 0.17795787D+06 0.17795787D+06 0.17795787D+06 0.11017416D+01  1  2  2  2  7  2       -2 0.240539304754D-03 0.100000000000D+01
-.770789965891D-05 0.000000000000D+00 -.534218814171D-06 0.264728673714D-06 0.000000000000D+00  7 2 -2 23 -13 13 23 21 2 0.16609134D-01 0.27838446D+00 0.17795787D+06 0.17795787D+06 0.17795787D+06 0.11017416D+01  1  2  3  2  7  2       -2 -.161779483484D-04 0.100000000000D+01
0.893970356151D-05 0.000000000000D+00 0.000000000000D+00 0.264728673714D-06 0.000000000000D+00  7 2 -2 23 -13 13 23 21 2 0.16609134D-01 0.27838446D+00 0.17795787D+06 0.17795787D+06 0.17795787D+06 0.11017416D+01  1  2 15  2  7  2       -2 0.187633556309D-04 0.100000000000D+01
0.203604951814D-04 0.000000000000D+00 0.000000000000D+00 0.264728673714D-06 0.000000000000D+00  7 2 -2 23 -13 13 23 21 2 0.16609134D-01 0.66995557D+00 0.36325424D+06 0.36325424D+06 0.36325424D+06 0.10784576D+01  1  2 12  2  7  2       -2 0.792581619649D-07 0.100000000000D+01
-.100732731726D-03 0.000000000000D+00 -.310860686740D-04 0.264728673714D-06 0.000000000000D+00  7 2 -2 23 -13 13 23 21 2 0.16609134D-01 0.69014045D+00 0.17795787D+06 0.17795787D+06 0.17795787D+06 0.11017416D+01  1  2  5  2  7  2       -2 -.425078182104D-06 0.100000000000D+01
0.195705769442D-05 0.000000000000D+00 0.000000000000D+00 0.264728673714D-06 0.000000000000D+00  7 2 21 23 -13 13 23 2 2 0.16609134D-01 0.66995557D+00 0.36325424D+06 0.36325424D+06 0.36325424D+06 0.10784576D+01  1  2 12  4  7  2       -2 0.285096701002D-07 0.100000000000D+01
-.812439420259D-05 0.000000000000D+00 -.310257211942D-05 0.264728673714D-06 0.000000000000D+00  7 2 21 23 -13 13 23 2 2 0.16609134D-01 0.69014045D+00 0.17795787D+06 0.17795787D+06 0.17795787D+06 0.11017416D+01  1  2  5  4  7  2       -2 -.877986455655D-07 0.100000000000D+01
  </mgrwgt>
  </event>
  <event>
  8     66 0.25765000E-05 0.37979251E+03 0.75467711E-02 0.93202679E-01
        4 -1    0    0  501    0 0.00000000E+00 0.00000000E+00 0.10334646E+04 0.10334658E+04 0.15500000E+01 0.0000E+00 0.9000E+01
       -4 -1    0    0    0  501 0.00000000E+00 0.00000000E+00 -.18004043E+03 0.18004710E+03 0.15500000E+01 0.0000E+00 0.9000E+01
       25  2    1    2    0    0 -.42637348E+02 0.33967047E+03 0.26302043E+03 0.52500010E+03 0.29874970E+03 0.0000E+00 0.0000E+00
       23  2    1    2    0    0 0.42637348E+02 -.33967047E+03 0.59040379E+03 0.68851281E+03 0.90990576E+02 0.0000E+00 0.0000E+00
       23  1    3    3    0    0 -.94251864E+02 0.14194136E+03 0.19431344E+02 0.19422562E+03 0.91188000E+02 0.0000E+00 0.9000E+01
      -13  1    4    4    0    0 0.31349809E+02 -.20126617E+03 0.26131128E+03 0.33132232E+03 0.10565837E+00 0.0000E+00 0.9000E+01
       13  1    4    4    0    0 0.11287540E+02 -.13840430E+03 0.32909250E+03 0.35719049E+03 0.10565837E+00 0.0000E+00 0.9000E+01
       23  1    3    3    0    0 0.51614516E+02 0.19772911E+03 0.24358909E+03 0.33077448E+03 0.91188000E+02 0.0000E+00 0.9000E+01
#aMCatNLO 1  0  0  2  1 0.31026031D+03 0.00000000D+00  -5  7  0 0.00000000D+00 0.00000000D+00 0.00000000D+00 0.00000000D+00 0.00000000D+00
  <mgrwgt>
 0.3688652395D-05    3    2    0
 0.431358515234894D+03 0.000000000000000D+00 0.000000000000000D+00 0.431358515234894D+03
 0.431358515234894D+03 0.000000000000000D+00 0.000000000000000D+00 -.431358515234894D+03
 0.253979129004292D+03 -.942518640328160D+02 0.141941361495156D+03 -.164801039587193D+03
 0.207547273804345D+03 0.313498357622653D+02 -.201266252974370D+03 0.398114816975122D+02
 0.176882702751306D+03 0.112875125482951D+02 -.138404215667265D+03 0.109564390559197D+03
 0.224307924909844D+03 0.516145157222555D+02 0.197729107146480D+03 0.154251673304844D+02
 0.000000000000000D+00 0.000000000000000D+00 0.000000000000000D+00 0.000000000000000D+00
 0.614287412180016D+03 0.000000000000000D+00 0.000000000000000D+00 0.614287412180016D+03
 0.612787373546634D+03 0.000000000000000D+00 0.000000000000000D+00 -.612787373546634D+03
 0.265032212531692D+03 -.165417186325541D+03 0.860499515082100D+02 -.164801039587193D+03
 0.256401121738614D+03 -.322654158780852D+02 -.251228032058691D+03 0.398114816975122D+02
 0.215524628386346D+03 -.425182368748186D+02 -.180661864530180D+03 0.109564390559197D+03
 0.179852887213598D+03 -.380283675357728D+01 0.154205746781757D+03 0.154251673304844D+02
 0.310263935856399D+03 0.244003675832022D+03 0.191634198298904D+03 0.150003863338225D+01
0.672048969227D-05 0.000000000000D+00 0.000000000000D+00 0.205637268376D-06 0.000000000000D+00  7 4 -4 23 -13 13 23 21 0 0.15899516D+00 0.27699130D-01 0.14424235D+06 0.14424235D+06 0.14424235D+06 0.11088958D+01  1  2  2  2  7  2       -4 0.364857191703D-05 0.100000000000D+01
-.366002438906D-06 0.000000000000D+00 -.258084499639D-07 0.205637268376D-06 0.000000000000D+00  7 4 -4 23 -13 13 23 21 2 0.15899516D+00 0.27699130D-01 0.14424235D+06 0.14424235D+06 0.14424235D+06 0.11088958D+01  1  2  3  2  7  2       -4 -.244336002630D-06 0.100000000000D+01
0.426040880406D-06 0.000000000000D+00 0.000000000000D+00 0.205637268376D-06 0.000000000000D+00  7 4 -4 23 -13 13 23 21 2 0.15899516D+00 0.27699130D-01 0.14424235D+06 0.14424235D+06 0.14424235D+06 0.11088958D+01  1  2 15  2  7  2       -4 0.284416480903D-06 0.100000000000D+01
  </mgrwgt>
  </event>
  <event>
  8     66 0.25765000E-05 0.19802954E+03 0.75467711E-02 0.98935849E-01
        2 -1    0    0  501    0 0.00000000E+00 0.00000000E+00 0.19739346E+04 0.19739346E+04 0.32000000E+00 0.0000E+00 0.9000E+01
       -2 -1    0    0    0  501 0.00000000E+00 0.00000000E+00 -.66691224E+02 0.66691992E+02 0.32000000E+00 0.0000E+00 0.9000E+01
       25  2    1    2    0    0 0.48670336E+02 -.28697268E+03 0.97237896E+03 0.10586036E+04 0.30066371E+03 0.0000E+00 0.0000E+00
       23  2    1    2    0    0 -.48670336E+02 0.28697268E+03 0.93486440E+03 0.98202299E+03 0.75336408E+02 0.0000E+00 0.0000E+00
       23  1    3    3    0    0 -.12703432E+02 -.50928824E+02 0.89512404E+02 0.13814067E+03 0.91188000E+02 0.0000E+00 0.9000E+01
      -13  1    4    4    0    0 0.62770124E+00 -.46991403E+01 0.11736183E+02 0.12658005E+02 0.10565837E+00 0.0000E+00 0.9000E+01
       13  1    4    4    0    0 -.49298038E+02 0.29167182E+03 0.92312822E+03 0.96936498E+03 0.10565837E+00 0.0000E+00 0.9000E+01
       23  1    3    3    0    0 0.61373768E+02 -.23604385E+03 0.88286655E+03 0.92046295E+03 0.91188000E+02 0.0000E+00 0.9000E+01
#aMCatNLO 1  0  0  2  1 0.29649622D+02 0.00000000D+00  -5  7  0 0.00000000D+00 0.00000000D+00 0.00000000D+00 0.00000000D+00 0.00000000D+00
  <mgrwgt>
 0.7842779487D-03    9    2    0
 0.362829056664341D+03 0.000000000000000D+00 0.000000000000000D+00 0.362829056664341D+03
 0.362829056664341D+03 0.000000000000000D+00 0.000000000000000D+00 -.362829056664341D+03
 0.153201048003690D+03 -.127034315118560D+02 -.509288238372464D+02 -.111356129134445D+03
 0.474890676274302D+01 0.627799368233559D+00 -.469972279556865D+01 -.265685978712377D+00
 0.299703423539463D+03 -.492981358004681D+02 0.291672398640353D+03 0.481564923894627D+02
 0.268004735022787D+03 0.613737679440905D+02 -.236043852007538D+03 0.634653227236942D+02
 0.000000000000000D+00 0.000000000000000D+00 -.000000000000000D+00 -.000000000000000D+00
 0.371552613721394D+03 0.000000000000000D+00 0.000000000000000D+00 0.371552613721394D+03
 0.389230796801107D+03 0.000000000000000D+00 0.000000000000000D+00 -.389230796801107D+03
 0.151429785696767D+03 -.141747892139005D+02 -.448844795792824D+02 -.111356129134445D+03
 0.456022485186945D+01 0.582836544430981D+00 -.451501530703930D+01 -.265685978712377D+00
 0.312009191980015D+03 -.522526892097509D+02 0.303809717736472D+03 0.481564923894627D+02
 0.258264384271989D+03 0.588319040342017D+02 -.225601863287246D+03 0.634653227236942D+02
 0.345198237218608D+02 0.701273784501874D+01 -.288083595629039D+02 -.176781830797123D+02
0.164067242418D-04 0.000000000000D+00 0.000000000000D+00 0.173633539720D-08 0.000000000000D+00  7 2 -2 23 -13 13 23 21 0 0.30368231D+00 0.10260249D-01 0.11093841D+06 0.11093841D+06 0.11093841D+06 0.11180412D+01  1  2  2  2  7  2       -2 0.880355500702D-03 0.100000000000D+01
-.903370598573D-06 0.000000000000D+00 -.630061410783D-07 0.173633539720D-08 0.000000000000D+00  7 2 -2 23 -13 13 23 21 2 0.30368231D+00 0.10260249D-01 0.11093841D+06 0.11093841D+06 0.11093841D+06 0.11180412D+01  1  2  3  2  7  2       -2 -.605923485151D-04 0.100000000000D+01
0.103968672144D-05 0.000000000000D+00 0.000000000000D+00 0.173633539720D-08 0.000000000000D+00  7 2 -2 23 -13 13 23 21 2 0.30368231D+00 0.10260249D-01 0.11093841D+06 0.11093841D+06 0.11093841D+06 0.11180412D+01  1  2 15  2  7  2       -2 0.697355661910D-04 0.100000000000D+01
0.501419754613D-04 0.000000000000D+00 0.000000000000D+00 0.173633539720D-08 0.000000000000D+00  7 2 -2 23 -13 13 23 21 2 0.30368231D+00 0.11123952D-01 0.12090825D+06 0.12090825D+06 0.12090825D+06 0.11150177D+01  1  2 12  2  7  2       -2 0.294416976184D-02 0.100000000000D+01
-.494787123041D-04 0.000000000000D+00 0.000000000000D+00 0.173633539720D-08 0.000000000000D+00  7 2 -2 23 -13 13 23 21 2 0.30368231D+00 0.10260249D-01 0.11093841D+06 0.11093841D+06 0.11093841D+06 0.11180412D+01  1  2  4  2  7  2       -2 -.331871701907D-02 0.100000000000D+01
-.131693659667D-03 0.000000000000D+00 -.227537026949D-04 0.173633539720D-08 0.000000000000D+00  7 2 -2 23 -13 13 23 21 2 0.30368231D+00 0.11298750D-01 0.11093841D+06 0.11093841D+06 0.11093841D+06 0.11180412D+01  1  2  5  2  7  2       -2 -.760351117458D-02 0.100000000000D+01
0.133372421516D-03 0.000000000000D+00 0.226483533085D-04 0.173633539720D-08 0.000000000000D+00  7 2 -2 23 -13 13 23 21 2 0.30368231D+00 0.10260249D-01 0.11093841D+06 0.11093841D+06 0.11093841D+06 0.11180412D+01  1  2  6  2  7  2       -2 0.894577293033D-02 0.100000000000D+01
0.684738508639D-06 0.000000000000D+00 0.000000000000D+00 0.173633539720D-08 0.000000000000D+00  7 2 21 23 -13 13 23 2 2 0.30368231D+00 0.11123952D-01 0.12090825D+06 0.12090825D+06 0.12090825D+06 0.11150177D+01  1  2 12  4  7  2       -2 0.572999601412D-03 0.100000000000D+01
-.200234443139D-05 0.000000000000D+00 -.358070399550D-06 0.173633539720D-08 0.000000000000D+00  7 2 21 23 -13 13 23 2 2 0.30368231D+00 0.11298750D-01 0.11093841D+06 0.11093841D+06 0.11093841D+06 0.11180412D+01  1  2  5  4  7  2       -2 -.164593486959D-02 0.100000000000D+01
  </mgrwgt>
  </event>
  <event>
  8     66 -.25765000E-05 0.16003195E+03 0.75467711E-02 0.10963580E+00
        2 -1    0    0  501    0 0.00000000E+00 0.00000000E+00 0.55906106E+03 0.55906115E+03 0.32000000E+00 0.0000E+00 0.9000E+01
       -2 -1    0    0    0  501 0.00000000E+00 0.00000000E+00 -.53443116E+03 0.53443125E+03 0.32000000E+00 0.0000E+00 0.9000E+01
       25  2    1    2    0    0 0.44448164E+02 -.74434829E+02 -.48076917E+03 0.57317931E+03 0.29979885E+03 0.0000E+00 0.0000E+00
       23  2    1    2    0    0 -.44448164E+02 0.74434829E+02 0.50539907E+03 0.52031309E+03 0.88211740E+02 0.0000E+00 0.0000E+00
       23  1    3    3    0    0 -.48591732E+01 -.90315111E+02 -.64153797E+02 0.14356668E+03 0.91188000E+02 0.0000E+00 0.9000E+01
      -13  1    4    4    0    0 -.15482193E+02 0.28927655E+02 0.40511146E+03 0.40643796E+03 0.10565837E+00 0.0000E+00 0.9000E+01
       13  1    4    4    0    0 -.28965971E+02 0.45507174E+02 0.10028761E+03 0.11387514E+03 0.10565837E+00 0.0000E+00 0.9000E+01
       23  1    3    3    0    0 0.49307337E+02 0.15880281E+02 -.41661537E+03 0.42961263E+03 0.91188000E+02 0.0000E+00 0.9000E+01
#aMCatNLO 1  0  0  1  2 0.29102277D+01 0.00000000D+00  -5  7  0 0.00000000D+00 0.00000000D+00 0.00000000D+00 0.00000000D+00 0.00000000D+00
  <mgrwgt>
 -.2155936647D-04    1    2    0
 0.546607494236784D+03 0.000000000000000D+00 0.000000000000000D+00 0.546607494236784D+03
 0.546607494236784D+03 0.000000000000000D+00 0.000000000000000D+00 -.546607494236784D+03
 0.145048484673145D+03 -.485917315428011D+01 -.903151108666148D+02 -.674046047936146D+02
 0.397414430925221D+03 -.154821738463912D+02 0.289276315925259D+02 0.396057728533423D+03
 0.111644163811080D+03 -.289659903871880D+02 0.455071978869954D+02 0.977470493387829D+02
 0.439107909064123D+03 0.493073373878593D+02 0.158802813870935D+02 -.426400173078591D+03
 0.000000000000000D+00 -.000000000000000D+00 0.000000000000000D+00 0.000000000000000D+00
 0.769597234800031D+03 0.000000000000000D+00 0.000000000000000D+00 0.769597234800031D+03
 0.757473044285382D+03 0.000000000000000D+00 0.000000000000000D+00 -.757473044285382D+03
 0.170469235137448D+03 0.367588956247408D+02 -.121860213480087D+03 -.674046047936146D+02
 0.409655031884411D+03 0.909735663663050D+02 -.517622549717319D+02 0.396057728533423D+03
 0.100720807019230D+03 -.954188173428815D+00 0.242751897437737D+02 0.977470493387829D+02
 0.473953005850152D+03 0.169743780637860D+03 -.754065099557582D+02 -.426400173078591D+03
 0.372272199194173D+03 -.296522054455477D+03 0.224753788663804D+03 0.121241905146489D+02
-.166846385370D-05 0.000000000000D+00 0.000000000000D+00 0.327773136904D-06 0.000000000000D+00  7 2 -2 23 -13 13 23 21 2 0.86009409D-01 0.82220192D-01 0.25610226D+05 0.25610226D+05 0.25610226D+05 0.11737649D+01  1  2 14  1  7  1        2 -.215593664734D-04 0.100000000000D+01
  </mgrwgt>
  </event>
  <event>
  8     66 0.25765000E-05 0.18533758E+04 0.75467711E-02 0.81501365E-01
        2 -1    0    0  501    0 0.00000000E+00 0.00000000E+00 0.28715775E+04 0.28715775E+04 0.32000000E+00 0.0000E+00 0.9000E+01
       -2 -1    0    0    0  501 0.00000000E+00 0.00000000E+00 -.12072281E+04 0.12072282E+04 0.32000000E+00 0.0000E+00 0.9000E+01
       25  2    1    2    0    0 0.12956461E+04 0.13176758E+04 0.78325438E+03 0.20295015E+04 0.30070006E+03 0.0000E+00 0.0000E+00
       23  2    1    2    0    0 -.12956461E+04 -.13176758E+04 0.88109496E+03 0.20493041E+04 0.91382819E+02 0.0000E+00 0.0000E+00
       23  1    3    3    0    0 0.89780731E+03 0.91155673E+03 0.65224574E+03 0.14390043E+04 0.91188000E+02 0.0000E+00 0.9000E+01
      -13  1    4    4    0    0 -.64707068E+03 -.68226874E+03 0.49522489E+03 0.10627506E+04 0.10565837E+00 0.0000E+00 0.9000E+01
       13  1    4    4    0    0 -.64857544E+03 -.63540704E+03 0.38587006E+03 0.98655356E+03 0.10565837E+00 0.0000E+00 0.9000E+01
       23  1    3    3    0    0 0.39783881E+03 0.40611906E+03 0.13100864E+03 0.59049718E+03 0.91188000E+02 0.0000E+00 0.9000E+01
#aMCatNLO 1  0  0  2  1 0.13719327D+03 0.00000000D+00  -5  7  0 0.00000000D+00 0.00000000D+00 0.00000000D+00 0.00000000D+00 0.00000000D+00
  <mgrwgt>
 0.6495386827D-04    4    2    0
 0.186189397751618D+04 0.000000000000000D+00 0.000000000000000D+00 0.186189397751618D+04
 0.186189397751618D+04 0.000000000000000D+00 0.000000000000000D+00 -.186189397751618D+04
 0.128467414645838D+04 0.897807310774654D+03 0.911556727470825D+03 0.712655355472781D+02
 0.942729845896493D+03 -.647070680156048D+03 -.682268807461215D+03 0.674416161718144D+02
 0.908144478386222D+03 -.648575440187548D+03 -.635406981344977D+03 -.182827806138712D+02
 0.588239484291254D+03 0.397838809568941D+03 0.406119061335367D+03 -.120424371105221D+03
 0.000000000000000D+00 -.000000000000000D+00 -.000000000000000D+00 0.000000000000000D+00
 0.198417219141468D+04 0.000000000000000D+00 0.000000000000000D+00 0.198417219141468D+04
 0.190204077206031D+04 0.000000000000000D+00 0.000000000000000D+00 -.190204077206031D+04
 0.132330524310179D+04 0.904320413540594D+03 0.959138847182005D+03 0.712655355472781D+02
 0.915232197892013D+03 -.642430652027432D+03 -.648370620711632D+03 0.674416161718144D+02
 0.882326398875088D+03 -.644103962817096D+03 -.602740158914452D+03 -.182827806138712D+02
 0.605450522427673D+03 0.400819901258376D+03 0.427897723016938D+03 -.120424371105221D+03
 0.159898601178421D+03 -.186056999544435D+02 -.135925790572858D+03 0.821314193543757D+02
0.338335216679D-02 0.000000000000D+00 0.000000000000D+00 0.949275386720D-05 0.000000000000D+00  7 2 -2 23 -13 13 23 21 0 0.44178115D+00 0.18572741D+00 0.34350020D+07 0.34350020D+07 0.34350020D+07 0.10139490D+01  1  2  2  2  7  2       -2 0.115877860561D-03 0.100000000000D+01
-.187959203911D-03 0.000000000000D+00 -.129929631776D-04 0.949275386720D-05 0.000000000000D+00  7 2 -2 23 -13 13 23 21 2 0.44178115D+00 0.18572741D+00 0.34350020D+07 0.34350020D+07 0.34350020D+07 0.10139490D+01  1  2  3  2  7  2       -2 -.661834047473D-05 0.100000000000D+01
0.214295782371D-03 0.000000000000D+00 0.000000000000D+00 0.949275386720D-05 0.000000000000D+00  7 2 -2 23 -13 13 23 21 2 0.44178115D+00 0.18572741D+00 0.34350020D+07 0.34350020D+07 0.34350020D+07 0.10139490D+01  1  2 15  2  7  2       -2 0.754569300425D-05 0.100000000000D+01
-.147256514401D-02 0.000000000000D+00 0.000000000000D+00 0.949275386720D-05 0.000000000000D+00  7 2 -2 23 -13 13 23 21 2 0.44178115D+00 0.18572741D+00 0.34350020D+07 0.34350020D+07 0.34350020D+07 0.10139490D+01  1  2  4  2  7  2       -2 -.518513448212D-04 0.100000000000D+01
  </mgrwgt>
  </event>
  <event>
  9     66 -.25765000E-05 0.26823817E+03 0.75467711E-02 0.10204229E+00
        2 -1    0    0  501    0 0.00000000E+00 0.00000000E+00 0.50056704E+03 0.50056714E+03 0.32000000E+00 0.0000E+00 0.9000E+01
       -2 -1    0    0    0  502 0.00000000E+00 0.00000000E+00 -.25914829E+03 0.25914849E+03 0.32000000E+00 0.0000E+00 0.9000E+01
       25  2    1    2    0    0 0.20222627E+03 0.84683050E+02 0.33383747E+03 0.49907874E+03 0.29927488E+03 0.0000E+00 0.0000E+00
       23  2    1    2    0    0 -.19318529E+03 -.85496594E+02 -.97858154E+02 0.25002788E+03 0.91145474E+02 0.0000E+00 0.0000E+00
       23  1    3    3    0    0 0.75113173E+02 0.10570372E+03 0.36852730E+02 0.16275331E+03 0.91188000E+02 0.0000E+00 0.9000E+01
      -11  1    4    4    0    0 -.11336256E+03 -.82874162E+02 -.26450776E+02 0.14289451E+03 0.51099893E-03 0.0000E+00 0.9000E+01
       11  1    4    4    0    0 -.79822724E+02 -.26224322E+01 -.71407377E+02 0.10713337E+03 0.51099893E-03 0.0000E+00 0.9000E+01
       23  1    3    3    0    0 0.12711310E+03 -.21020671E+02 0.29698474E+03 0.33632543E+03 0.91188000E+02 0.0000E+00 0.9000E+01
       21  1    1    2  501  502 -.90409837E+01 0.81354458E+00 0.54394290E+01 0.10609012E+02 0.75000000E+00 0.0000E+00 0.9000E+01
#aMCatNLO 2  0  0  2  1 0.90775130D+01 0.00000000D+00  -5  7  0 0.00000000D+00 0.00000000D+00 0.00000000D+00 0.00000000D+00 0.00000000D+00
  <mgrwgt>
 -.5608451581D-04    3    2    0
 0.355454668637894D+03 0.000000000000000D+00 0.000000000000000D+00 0.355454668637894D+03
 0.355454668637894D+03 0.000000000000000D+00 0.000000000000000D+00 -.355454668637894D+03
 0.158430889454642D+03 0.730931893455659D+02 0.105885487593223D+03 -.151902790569312D+02
 0.160699178197621D+03 -.115397523242908D+03 -.826910481863691D+02 -.752982606215631D+02
 0.137604775270712D+03 -.815661339192699D+02 -.246555310808432D+01 -.110796935980369D+03
 0.254174494352813D+03 0.123870467816612D+03 -.207288862987699D+02 0.201285475658863D+03
 0.000000000000000D+00 -.000000000000000D+00 0.000000000000000D+00 0.000000000000000D+00
 0.361259890511499D+03 0.000000000000000D+00 0.000000000000000D+00 0.361259890511499D+03
 0.359050028933230D+03 0.000000000000000D+00 0.000000000000000D+00 -.359050028933230D+03
 0.159252194225712D+03 0.751131730342773D+02 0.105703721223991D+03 -.151902790569312D+02
 0.159339340431763D+03 -.113362562552205D+03 -.828741622473130D+02 -.752982606215631D+02
 0.136581497504684D+03 -.798227241277932D+02 -.262243223025368D+01 -.110796935980369D+03
 0.255794257568999D+03 0.127113097385365D+03 -.210206713298930D+02 0.201285475658863D+03
 0.934262971357117D+01 -.904098373964373D+01 0.813544583468994D+00 0.220986157826887D+01
-.163229020505D-05 0.000000000000D+00 0.000000000000D+00 0.206258201136D-06 0.000000000000D+00  7 2 -2 23 -11 11 23 21 2 0.75769664D-01 0.40185415D-01 0.74457724D+05 0.74457724D+05 0.74457724D+05 0.11323874D+01  1  2 13  2  7  2       -2 -.940236977798D-04 0.100000000000D+01
-.799954657063D-05 0.000000000000D+00 0.000000000000D+00 0.206258201136D-06 0.000000000000D+00  7 2 -2 23 -11 11 23 21 2 0.75769664D-01 0.39468114D-01 0.71951714D+05 0.71951714D+05 0.71951714D+05 0.11336457D+01  1  2  8  2  7  2       -2 -.477635873326D-03 0.100000000000D+01
0.897957390636D-05 0.000000000000D+00 0.000000000000D+00 0.206258201136D-06 0.171194422021D-07  7 2 -2 23 -11 11 23 21 2 0.77007121D-01 0.39867326D-01 0.74457724D+05 0.74457724D+05 0.74457724D+05 0.11323874D+01  1  2  1  2  7  2       -2 0.515575055292D-03 0.100000000000D+01
  </mgrwgt>
  </event>
  <event>
  8     66 0.25765000E-05 0.26902275E+03 0.75467711E-02 0.10201669E+00
        2 -1    0    0  501    0 0.00000000E+00 0.00000000E+00 0.27310878E+04 0.27310878E+04 0.32000000E+00 0.0000E+00 0.9000E+01
       -2 -1    0    0    0  501 0.00000000E+00 0.00000000E+00 -.93562368E+02 0.93562915E+02 0.32000000E+00 0.0000E+00 0.9000E+01
       25  2    1    2    0    0 0.19555341E+03 -.11425699E+03 0.25301753E+04 0.25579881E+04 0.30036673E+03 0.0000E+00 0.0000E+00
       23  2    1    2    0    0 -.19555341E+03 0.11425699E+03 0.10735013E+03 0.26666265E+03 0.91044644E+02 0.0000E+00 0.0000E+00
       23  1    3    3    0    0 0.31941387E+02 -.12017029E+02 0.16283944E+04 0.16313026E+04 0.91188000E+02 0.0000E+00 0.9000E+01
      -11  1    4    4    0    0 -.69448428E+02 0.30177065E+02 0.84367955E+02 0.11336530E+03 0.51099893E-03 0.0000E+00 0.9000E+01
       11  1    4    4    0    0 -.12610498E+03 0.84079921E+02 0.22982178E+02 0.15329735E+03 0.51099893E-03 0.0000E+00 0.9000E+01
       23  1    3    3    0    0 0.16361202E+03 -.10223996E+03 0.90178091E+03 0.92668547E+03 0.91188000E+02 0.0000E+00 0.9000E+01
#aMCatNLO 1  0  0  1  1 0.98119205D+01 0.00000000D+00  -5  7  0 0.00000000D+00 0.00000000D+00 0.00000000D+00 0.00000000D+00 0.00000000D+00
  <mgrwgt>
 0.1291361215D-03    6    2    0
 0.505497615302565D+03 0.000000000000000D+00 0.000000000000000D+00 0.505497615302565D+03
 0.505497615302565D+03 0.000000000000000D+00 0.000000000000000D+00 -.505497615302565D+03
 0.309525189739567D+03 0.319413868298420D+02 -.120170286465426D+02 0.293812747458666D+03
 0.966322566466525D+02 -.694484284599117D+02 0.301770645557570D+02 -.600337703619447D+02
 0.368345361542172D+03 -.126104977213702D+03 0.840799205354127D+02 -.335717749090399D+03
 0.236492422676738D+03 0.163612018843772D+03 -.102239956444627D+03 0.101938771993677D+03
 0.000000000000000D+00 -.000000000000000D+00 0.000000000000000D+00 -.000000000000000D+00
 0.507610269655716D+03 0.000000000000000D+00 0.000000000000000D+00 0.507610269655716D+03
 0.517043774101478D+03 0.000000000000000D+00 0.000000000000000D+00 -.517043774101478D+03
 0.309734587292037D+03 0.327400029774049D+02 -.149139148716340D+02 0.293812747458666D+03
 0.961753354896909D+02 -.691997779546409D+02 0.292751140683054D+02 -.600337703619447D+02
 0.367250776041658D+03 -.125156330175176D+03 0.806388148843860D+02 -.335717749090399D+03
 0.237882144032527D+03 0.164223786639806D+03 -.104459072232223D+03 0.101938771993677D+03
 0.136112009012812D+02 -.260768148739386D+01 0.945905815116529D+01 -.943350444576219D+01
0.128959111634D-04 0.000000000000D+00 0.000000000000D+00 0.151114093357D-05 0.000000000000D+00  7 2 -2 23 -11 11 23 21 0 0.42016739D+00 0.14394254D-01 0.72373238D+05 0.72373238D+05 0.72373238D+05 0.11334307D+01  1  2  2  1  7  1        2 0.155989532226D-03 0.100000000000D+01
-.369884688190D-06 0.000000000000D+00 -.495236944387D-07 0.151114093357D-05 0.000000000000D+00  7 2 -2 23 -11 11 23 21 2 0.42016739D+00 0.14394254D-01 0.72373238D+05 0.72373238D+05 0.72373238D+05 0.11334307D+01  1  2  3  1  7  1        2 -.574777480203D-05 0.100000000000D+01
0.775794293510D-06 0.000000000000D+00 0.000000000000D+00 0.151114093357D-05 0.000000000000D+00  7 2 -2 23 -11 11 23 21 2 0.42016739D+00 0.14394254D-01 0.72373238D+05 0.72373238D+05 0.72373238D+05 0.11334307D+01  1  2 15  1  7  1        2 0.120553540986D-04 0.100000000000D+01
-.213400139107D-05 0.000000000000D+00 0.000000000000D+00 0.151114093357D-05 0.000000000000D+00  7 2 -2 23 -11 11 23 21 2 0.42016739D+00 0.14394254D-01 0.72373238D+05 0.72373238D+05 0.72373238D+05 0.11334307D+01  1  2  4  1  7  1        2 -.331610358978D-04 0.100000000000D+01
0.311615148974D-11 0.000000000000D+00 0.000000000000D+00 0.151114093357D-05 0.107345903634D-06  7 2 -2 23 -11 11 23 21 2 0.42192342D+00 0.14723036D-01 0.74746552D+05 0.74746552D+05 0.74746552D+05 0.11322454D+01  1  2 11  1  7  1        2 0.458362295905D-10 0.100000000000D+01
0.334030858366D-13 0.000000000000D+00 0.000000000000D+00 0.151114093357D-05 0.845931854851D-10  7 21 -2 23 -11 11 23 -2 2 0.42192342D+00 0.14723036D-01 0.74746552D+05 0.74746552D+05 0.74746552D+05 0.11322454D+01  1  2 11  3  7  1        2 0.479953241208D-13 0.100000000000D+01
  </mgrwgt>
  </event>
  <event>
  8     66 0.25765000E-05 0.60436027E+02 0.75467711E-02 0.99352087E-01
        2 -1    0    0  501    0 0.00000000E+00 0.00000000E+00 0.60239135E+03 0.60239143E+03 0.32000000E+00 0.0000E+00 0.9000E+01
       -2 -1    0    0    0  501 0.00000000E+00 0.00000000E+00 -.11658587E+03 0.11658631E+03 0.32000000E+00 0.0000E+00 0.9000E+01
       25  2    1    2    0    0 0.12007088E+03 -.46900243E+02 0.17681264E+03 0.37187598E+03 0.30068652E+03 0.0000E+00 0.0000E+00
       23  2    1    2    0    0 -.12007088E+03 0.46900243E+02 0.30899284E+03 0.34710177E+03 0.91577365E+02 0.0000E+00 0.0000E+00
       23  1    3    3    0    0 0.11449267E+03 0.36862670E+02 -.59407127E+01 0.15105619E+03 0.91188000E+02 0.0000E+00 0.9000E+01
      -13  1    4    4    0    0 -.14479915E+02 -.23590096E+02 0.31427443E+02 0.41879062E+02 0.10565837E+00 0.0000E+00 0.9000E+01
       13  1    4    4    0    0 -.10559096E+03 0.70490339E+02 0.27756539E+03 0.30522270E+03 0.10565837E+00 0.0000E+00 0.9000E+01
       23  1    3    3    0    0 0.55782087E+01 -.83762913E+02 0.18275335E+03 0.22081979E+03 0.91188000E+02 0.0000E+00 0.9000E+01
#aMCatNLO 1  0  0  1  2 0.19442808D+03 0.00000000D+00  -5  7  0 0.00000000D+00 0.00000000D+00 0.00000000D+00 0.00000000D+00 0.00000000D+00
  <mgrwgt>
 0.1713877003D-03    7    2    0
 0.265010394814547D+03 0.000000000000000D+00 0.000000000000000D+00 0.265010394814547D+03
 0.265010394814547D+03 0.000000000000000D+00 0.000000000000000D+00 -.265010394814547D+03
 0.210354138172318D+03 0.114492671464034D+03 0.368626666810324D+02 -.146513426307661D+03
 0.280034240885422D+02 -.144797938721168D+02 -.235902199634913D+02 0.424603958741014D+01
 0.159627017414835D+03 -.105591089207344D+03 0.704904643629247D+02 0.967595008392564D+02
 0.132036209953399D+03 0.557821161542640D+01 -.837629110804659D+02 0.455078858809943D+02
 0.000000000000000D+00 -.000000000000000D+00 -.000000000000000D+00 0.000000000000000D+00
 0.517632724441520D+03 0.000000000000000D+00 0.000000000000000D+00 0.517632724441520D+03
 0.322433013237394D+03 0.000000000000000D+00 0.000000000000000D+00 -.322433013237394D+03
 0.237874982836619D+03 0.115046604335282D+03 0.116478971741823D+03 -.146513426307661D+03
 0.211377459346489D+02 -.144190639727605D+02 -.148615626758883D+02 0.424603958741014D+01
 0.195616231234949D+03 -.105152070626237D+03 0.133590235282814D+03 0.967595008392564D+02
 0.109927783152755D+03 0.587723683078543D+01 -.407842687167038D+02 0.455078858809943D+02
 0.275508994519943D+03 -.135270656706971D+01 -.194423375632045D+03 0.195199711204125D+03
0.147769461620D-05 0.000000000000D+00 0.000000000000D+00 0.136315314952D-06 0.000000000000D+00  7 2 -2 23 -13 13 23 21 0 0.92675632D-01 0.17936328D-01 0.46122522D+05 0.46122522D+05 0.46122522D+05 0.11503918D+01  1  2  2  1  7  1        2 0.212304077329D-03 0.100000000000D+01
-.776822282106D-07 0.000000000000D+00 -.567473641212D-08 0.136315314952D-06 0.000000000000D+00  7 2 -2 23 -13 13 23 21 2 0.92675632D-01 0.17936328D-01 0.46122522D+05 0.46122522D+05 0.46122522D+05 0.11503918D+01  1  2  3  1  7  1        2 -.147702170300D-04 0.100000000000D+01
0.965904552270D-07 0.000000000000D+00 0.000000000000D+00 0.136315314952D-06 0.000000000000D+00  7 2 -2 23 -13 13 23 21 2 0.92675632D-01 0.17936328D-01 0.46122522D+05 0.46122522D+05 0.46122522D+05 0.11503918D+01  1  2 15  1  7  1        2 0.183653587132D-04 0.100000000000D+01
0.142095811329D-07 0.000000000000D+00 0.000000000000D+00 0.136315314952D-06 0.000000000000D+00  7 2 -2 23 -13 13 23 21 2 0.18270206D+00 0.17936328D-01 0.11310081D+06 0.11310081D+06 0.11310081D+06 0.11173608D+01  1  2 12  1  7  1        2 0.104792735853D-05 0.100000000000D+01
-.662646847544D-06 0.000000000000D+00 -.466662186231D-06 0.136315314952D-06 0.000000000000D+00  7 2 -2 23 -13 13 23 21 2 0.20191315D+00 0.17936328D-01 0.46122522D+05 0.46122522D+05 0.46122522D+05 0.11503918D+01  1  2  5  1  7  1        2 -.447283353347D-04 0.100000000000D+01
0.104438493879D-08 0.000000000000D+00 0.000000000000D+00 0.136315314952D-06 0.000000000000D+00  7 21 -2 23 -13 13 23 -2 2 0.18270206D+00 0.17936328D-01 0.11310081D+06 0.11310081D+06 0.11310081D+06 0.11173608D+01  1  2 12  3  7  1        2 0.424265343999D-07 0.100000000000D+01
-.265745317976D-07 0.000000000000D+00 -.393638567435D-07 0.136315314952D-06 0.000000000000D+00  7 21 -2 23 -13 13 23 -2 2 0.20191315D+00 0.17936328D-01 0.46122522D+05 0.46122522D+05 0.46122522D+05 0.11503918D+01  1  2  5  3  7  1        2 -.873537310689D-06 0.100000000000D+01
  </mgrwgt>
  </event>
  <event>
  8     66 0.25765000E-05 0.25361582E+03 0.75467711E-02 0.91547885E-01
        2 -1    0    0  501    0 0.00000000E+00 0.00000000E+00 0.24548503E+04 0.24548503E+04 0.32000000E+00 0.0000E+00 0.9000E+01
       -2 -1    0    0    0  501 0.00000000E+00 0.00000000E+00 -.16366632E+03 0.16366663E+03 0.32000000E+00 0.0000E+00 0.9000E+01
       25  2    1    2    0    0 0.12506219E+03 0.43813936E+03 0.41514732E+03 0.68622043E+03 0.30157012E+03 0.0000E+00 0.0000E+00
       23  2    1    2    0    0 -.12506219E+03 -.43813936E+03 0.18760366E+04 0.19322965E+04 0.81545484E+02 0.0000E+00 0.0000E+00
       23  1    3    3    0    0 0.15707158E+03 0.15476918E+03 0.24432893E+03 0.34152139E+03 0.91188000E+02 0.0000E+00 0.9000E+01
      -11  1    4    4    0    0 -.12977355E+03 -.35400380E+03 0.15908913E+04 0.16349602E+04 0.51099893E-03 0.0000E+00 0.9000E+01
       11  1    4    4    0    0 0.47113656E+01 -.84135560E+02 0.28514536E+03 0.29733629E+03 0.51099893E-03 0.0000E+00 0.9000E+01
       23  1    3    3    0    0 -.32009392E+02 0.28337017E+03 0.17081839E+03 0.34469904E+03 0.91188000E+02 0.0000E+00 0.9000E+01
#aMCatNLO 1  0  0  1  2 0.29451425D+03 0.00000000D+00  -5  7  0 0.00000000D+00 0.00000000D+00 0.00000000D+00 0.00000000D+00 0.00000000D+00
  <mgrwgt>
 0.4324022563D-03    9    2    0
 0.633858620029554D+03 0.000000000000000D+00 0.000000000000000D+00 0.633858620029554D+03
 0.633858620029554D+03 0.000000000000000D+00 0.000000000000000D+00 -.633858620029554D+03
 0.263841967313435D+03 0.157071577647098D+03 0.154769184224817D+03 -.112571539394556D+03
 0.501804681012787D+03 -.129773550837749D+03 -.354003797303548D+03 0.331131506933387D+03
 0.988072232691223D+02 0.471136555934227D+01 -.841355602391133D+02 0.515933901577613D+02
 0.403263368463763D+03 -.320093923686910D+02 0.283370173317844D+03 -.270153357696592D+03
 0.000000000000000D+00 0.000000000000000D+00 -.000000000000000D+00 0.000000000000000D+00
 0.877705881408179D+03 0.000000000000000D+00 0.000000000000000D+00 0.877705881408179D+03
 0.746280261101128D+03 0.000000000000000D+00 0.000000000000000D+00 -.746280261101128D+03
 0.295597963695072D+03 0.139703612311429D+03 0.216502780633762D+03 -.112571539394556D+03
 0.444165214531201D+03 -.159141444410838D+03 -.249617033846658D+03 0.331131506933387D+03
 0.823263756673645D+02 -.911976453056878D+00 -.641476618553016D+02 0.515933901577613D+02
 0.479388699978847D+03 -.594115667192638D+02 0.380769882460035D+03 -.270153357696592D+03
 0.322507888636823D+03 0.797613752717297D+02 -.283507967391836D+03 0.131425620307052D+03
0.531599648667D-04 0.000000000000D+00 0.000000000000D+00 0.384732588051D-08 0.000000000000D+00  7 2 -2 23 -11 11 23 21 0 0.37766930D+00 0.25179460D-01 0.24966348D+06 0.24966348D+06 0.24966348D+06 0.10905031D+01  1  2  2  1  7  1        2 0.348237711084D-03 0.100000000000D+01
-.275011865117D-05 0.000000000000D+00 -.204148262428D-06 0.384732588051D-08 0.000000000000D+00  7 2 -2 23 -11 11 23 21 2 0.37766930D+00 0.25179460D-01 0.24966348D+06 0.24966348D+06 0.24966348D+06 0.10905031D+01  1  2  3  1  7  1        2 -.214237933136D-04 0.100000000000D+01
0.332389027866D-05 0.000000000000D+00 0.000000000000D+00 0.384732588051D-08 0.000000000000D+00  7 2 -2 23 -11 11 23 21 2 0.37766930D+00 0.25179460D-01 0.24966348D+06 0.24966348D+06 0.24966348D+06 0.10905031D+01  1  2 15  1  7  1        2 0.258935512825D-04 0.100000000000D+01
0.111653369834D-04 0.000000000000D+00 0.000000000000D+00 0.384732588051D-08 0.000000000000D+00  7 2 -2 23 -11 11 23 21 2 0.54615390D+00 0.25179460D-01 0.43827187D+06 0.43827187D+06 0.43827187D+06 0.10725785D+01  1  2 12  1  7  1        2 0.162422817422D-04 0.100000000000D+01
-.256060634464D-04 0.000000000000D+00 0.000000000000D+00 0.384732588051D-08 0.000000000000D+00  7 2 -2 23 -11 11 23 21 2 0.37766930D+00 0.25179460D-01 0.24966348D+06 0.24966348D+06 0.24966348D+06 0.10905031D+01  1  2  4  1  7  1        2 -.199474670163D-03 0.100000000000D+01
-.368978142140D-04 0.000000000000D+00 -.163494241189D-04 0.384732588051D-08 0.000000000000D+00  7 2 -2 23 -11 11 23 21 2 0.54643892D+00 0.25179460D-01 0.24966348D+06 0.24966348D+06 0.24966348D+06 0.10905031D+01  1  2  5  1  7  1        2 -.576228512880D-04 0.100000000000D+01
0.411528583877D-04 0.000000000000D+00 0.152940015378D-04 0.384732588051D-08 0.000000000000D+00  7 2 -2 23 -11 11 23 21 2 0.37766930D+00 0.25179460D-01 0.24966348D+06 0.24966348D+06 0.24966348D+06 0.10905031D+01  1  2  6  1  7  1        2 0.320586288881D-03 0.100000000000D+01
0.501002750084D-06 0.000000000000D+00 0.000000000000D+00 0.384732588051D-08 0.000000000000D+00  7 21 -2 23 -11 11 23 -2 2 0.54615390D+00 0.25179460D-01 0.43827187D+06 0.43827187D+06 0.43827187D+06 0.10725785D+01  1  2 12  3  7  1        2 0.236035987834D-07 0.100000000000D+01
-.115766640946D-05 0.000000000000D+00 -.734371183740D-06 0.384732588051D-08 0.000000000000D+00  7 21 -2 23 -11 11 23 -2 2 0.54643892D+00 0.25179460D-01 0.24966348D+06 0.24966348D+06 0.24966348D+06 0.10905031D+01  1  2  5  3  7  1        2 -.598655674657D-07 0.100000000000D+01
  </mgrwgt>
  </event>
  <event>
  8     66 0.25765000E-05 0.26937873E+03 0.75467711E-02 0.92097454E-01
        2 -1    0    0  501    0 0.00000000E+00 0.00000000E+00 0.24440772E+04 0.24440772E+04 0.32000000E+00 0.0000E+00 0.9000E+01
       -2 -1    0    0    0  501 0.00000000E+00 0.00000000E+00 -.16203789E+03 0.16203821E+03 0.32000000E+00 0.0000E+00 0.9000E+01
       25  2    1    2    0    0 -.46106489E+03 -.33760718E+03 0.89889393E+03 0.11067983E+04 0.30072044E+03 0.0000E+00 0.0000E+00
       23  2    1    2    0    0 0.46106489E+03 0.33760718E+03 0.13831453E+04 0.14993171E+04 0.91110913E+02 0.0000E+00 0.0000E+00
       23  1    3    3    0    0 -.23830271E+03 -.57309732E+02 0.25998986E+03 0.36875814E+03 0.91188000E+02 0.0000E+00 0.9000E+01
      -13  1    4    4    0    0 0.34336965E+03 0.25011528E+03 0.11233175E+04 0.12009590E+04 0.10565837E+00 0.0000E+00 0.9000E+01
       13  1    4    4    0    0 0.11769525E+03 0.87491898E+02 0.25982784E+03 0.29835804E+03 0.10565837E+00 0.0000E+00 0.9000E+01
       23  1    3    3    0    0 -.22276218E+03 -.28029745E+03 0.63890406E+03 0.73804018E+03 0.91188000E+02 0.0000E+00 0.9000E+01
#aMCatNLO 1  0  0  2  1 0.53812790D+02 0.00000000D+00  -5  7  0 0.00000000D+00 0.00000000D+00 0.00000000D+00 0.00000000D+00 0.00000000D+00
  <mgrwgt>
 0.2330045028D-03    9    2    0
 0.629311966342186D+03 0.000000000000000D+00 0.000000000000000D+00 0.629311966342186D+03
 0.629311966342186D+03 0.000000000000000D+00 0.000000000000000D+00 -.629311966342186D+03
 0.292159702297396D+03 -.238302710648965D+03 -.573097323857289D+02 -.130266852935559D+03
 0.450002305140941D+03 0.343369949077034D+03 0.250115499470407D+03 0.148463428586521D+03
 0.146682128976879D+03 0.117694944871484D+03 0.874916792544438D+02 -.295854256784346D+01
 0.369779796269156D+03 -.222762183299553D+03 -.280297446339121D+03 -.152380330831185D+02
 0.000000000000000D+00 -.000000000000000D+00 -.000000000000000D+00 -.000000000000000D+00
 0.639649057866487D+03 0.000000000000000D+00 0.000000000000000D+00 0.639649057866487D+03
 0.704046117308852D+03 0.000000000000000D+00 0.000000000000000D+00 -.704046117308852D+03
 0.285745962435309D+03 -.232873070047897D+03 -.462188703541460D+02 -.130266852935559D+03
 0.466473104488784D+03 0.351980579492479D+03 0.267704014246850D+03 0.148463428586521D+03
 0.152388445426929D+03 0.120504825155524D+03 0.932312846621068D+02 -.295854256784346D+01
 0.355166284934795D+03 -.215951042803274D+03 -.266384661852594D+03 -.152380330831185D+02
 0.839213778895219D+02 -.236612917968313D+02 -.483317667022175D+02 -.643970594423655D+02
0.319176424627D-04 0.000000000000D+00 0.000000000000D+00 0.111587695425D-05 0.000000000000D+00  7 2 -2 23 -13 13 23 21 0 0.37601190D+00 0.24928932D-01 0.36146267D+06 0.36146267D+06 0.36146267D+06 0.10786137D+01  1  2  2  2  7  2       -2 0.211851613390D-03 0.100000000000D+01
-.176870556176D-05 0.000000000000D+00 -.122572151165D-06 0.111587695425D-05 0.000000000000D+00  7 2 -2 23 -13 13 23 21 2 0.37601190D+00 0.24928932D-01 0.36146267D+06 0.36146267D+06 0.36146267D+06 0.10786137D+01  1  2  3  2  7  2       -2 -.136580405208D-04 0.100000000000D+01
0.200310780531D-05 0.000000000000D+00 0.000000000000D+00 0.111587695425D-05 0.000000000000D+00  7 2 -2 23 -13 13 23 21 2 0.37601190D+00 0.24928932D-01 0.36146267D+06 0.36146267D+06 0.36146267D+06 0.10786137D+01  1  2 15  2  7  2       -2 0.154681073911D-04 0.100000000000D+01
0.139536892477D-03 0.000000000000D+00 0.000000000000D+00 0.111587695425D-05 0.000000000000D+00  7 2 -2 23 -13 13 23 21 2 0.37601190D+00 0.28078582D-01 0.39536041D+06 0.39536041D+06 0.39536041D+06 0.10757931D+01  1  2 12  2  7  2       -2 0.866852978671D-03 0.100000000000D+01
-.141994331343D-03 0.000000000000D+00 0.000000000000D+00 0.111587695425D-05 0.000000000000D+00  7 2 -2 23 -13 13 23 21 2 0.37601190D+00 0.24928932D-01 0.36146267D+06 0.36146267D+06 0.36146267D+06 0.10786137D+01  1  2  4  2  7  2       -2 -.109648794754D-02 0.100000000000D+01
-.242552209512D-03 0.000000000000D+00 -.333960657781D-04 0.111587695425D-05 0.000000000000D+00  7 2 -2 23 -13 13 23 21 2 0.37601190D+00 0.28342847D-01 0.36146267D+06 0.36146267D+06 0.36146267D+06 0.10786137D+01  1  2  5  2  7  2       -2 -.149681906280D-02 0.100000000000D+01
0.245090223920D-03 0.000000000000D+00 0.331228811866D-04 0.111587695425D-05 0.000000000000D+00  7 2 -2 23 -13 13 23 21 2 0.37601190D+00 0.24928932D-01 0.36146267D+06 0.36146267D+06 0.36146267D+06 0.10786137D+01  1  2  6  2  7  2       -2 0.189260003583D-02 0.100000000000D+01
0.262855569904D-05 0.000000000000D+00 0.000000000000D+00 0.111587695425D-05 0.000000000000D+00  7 2 21 23 -13 13 23 2 2 0.37601190D+00 0.28078582D-01 0.39536041D+06 0.39536041D+06 0.39536041D+06 0.10757931D+01  1  2 12  4  7  2       -2 0.189605590006D-03 0.100000000000D+01
-.469358187960D-05 0.000000000000D+00 -.670298335191D-06 0.111587695425D-05 0.000000000000D+00  7 2 21 23 -13 13 23 2 2 0.37601190D+00 0.28342847D-01 0.36146267D+06 0.36146267D+06 0.36146267D+06 0.10786137D+01  1  2  5  4  7  2       -2 -.336408771675D-03 0.100000000000D+01
  </mgrwgt>
  </event>
  <event>
  8     66 0.25765000E-05 0.25368778E+03 0.75467711E-02 0.93058393E-01
        2 -1    0    0  501    0 0.00000000E+00 0.00000000E+00 0.13116271E+04 0.13116271E+04 0.32000000E+00 0.0000E+00 0.9000E+01
       -2 -1    0    0    0  501 0.00000000E+00 0.00000000E+00 -.56837416E+03 0.56837425E+03 0.32000000E+00 0.0000E+00 0.9000E+01
       25  2    1    2    0    0 -.49433708E+03 -.18315991E+03 0.10865143E+04 0.12444253E+04 0.30027396E+03 0.0000E+00 0.0000E+00
       23  2    1    2    0    0 0.49433708E+03 0.18315991E+03 -.34326135E+03 0.63557603E+03 0.90619129E+02 0.0000E+00 0.0000E+00
       23  1    3    3    0    0 -.31453193E+03 -.20942792E+03 0.83473439E+03 0.92080788E+03 0.91188000E+02 0.0000E+00 0.9000E+01
      -13  1    4    4    0    0 0.56563202E+01 0.27682884E+01 -.23546382E+02 0.24374180E+02 0.10565837E+00 0.0000E+00 0.9000E+01
       13  1    4    4    0    0 0.48868076E+03 0.18039162E+03 -.31971497E+03 0.61120185E+03 0.10565837E+00 0.0000E+00 0.9000E+01
       23  1    3    3    0    0 -.17980515E+03 0.26268008E+02 0.25177987E+03 0.32361745E+03 0.91188000E+02 0.0000E+00 0.9000E+01
#aMCatNLO 1  0  0  2  1 0.31677645D+02 0.00000000D+00  -5  7  0 0.00000000D+00 0.00000000D+00 0.00000000D+00 0.00000000D+00 0.00000000D+00
  <mgrwgt>
 0.3820968993D-03    9    2    0
 0.863420552162895D+03 0.000000000000000D+00 0.000000000000000D+00 0.863420552162895D+03
 0.863420552162895D+03 0.000000000000000D+00 0.000000000000000D+00 -.863420552162895D+03
 0.643198315966021D+03 -.314531932657465D+03 -.209427918787514D+03 0.512443589567296D+03
 0.366696210674460D+02 0.565566353849405D+01 0.276804696289023D+01 -.361249566806753D+02
 0.803021873197970D+03 0.488681419238599D+03 0.180391864233108D+03 -.611141043167475D+03
 0.243951294094352D+03 -.179805150119628D+03 0.262680075915163D+02 0.134822410280854D+03
 0.000000000000000D+00 0.000000000000000D+00 -.000000000000000D+00 -.000000000000000D+00
 0.878639859269259D+03 0.000000000000000D+00 0.000000000000000D+00 0.878639859269259D+03
 0.880208218197475D+03 0.000000000000000D+00 0.000000000000000D+00 -.880208218197475D+03
 0.639678475344641D+03 -.314962555351723D+03 -.197670070351942D+03 0.512443589567296D+03
 0.367227370399774D+02 0.563102795758692D+01 0.344070409473741D+01 -.361249566806753D+02
 0.806135817188018D+03 0.488141273976938D+03 0.195140148994861D+03 -.611141043167475D+03
 0.244594602000221D+03 -.179969140107966D+03 0.307456383655770D+02 0.134822410280854D+03
 0.317164458938762D+02 0.115939352516390D+01 -.316564211032339D+02 -.156835892821550D+01
0.731436700116D-04 0.000000000000D+00 0.000000000000D+00 0.516134337721D-05 0.000000000000D+00  7 2 -2 23 -13 13 23 21 0 0.20178879D+00 0.87442188D-01 0.31317660D+06 0.31317660D+06 0.31317660D+06 0.10831734D+01  1  2  2  2  7  2       -2 0.174098637080D-03 0.100000000000D+01
-.313447314842D-05 0.000000000000D+00 -.280890952015D-06 0.516134337721D-05 0.000000000000D+00  7 2 -2 23 -13 13 23 21 2 0.20178879D+00 0.87442188D-01 0.31317660D+06 0.31317660D+06 0.31317660D+06 0.10831734D+01  1  2  3  2  7  2       -2 -.875344818255D-05 0.100000000000D+01
0.436737099233D-05 0.000000000000D+00 0.000000000000D+00 0.516134337721D-05 0.000000000000D+00  7 2 -2 23 -13 13 23 21 2 0.20178879D+00 0.87442188D-01 0.31317660D+06 0.31317660D+06 0.31317660D+06 0.10831734D+01  1  2 15  2  7  2       -2 0.121964852992D-04 0.100000000000D+01
0.824130673915D-04 0.000000000000D+00 0.000000000000D+00 0.516134337721D-05 0.000000000000D+00  7 2 -2 23 -13 13 23 21 2 0.20178879D+00 0.89898819D-01 0.33116027D+06 0.33116027D+06 0.33116027D+06 0.10813909D+01  1  2 12  2  7  2       -2 0.214487273331D-03 0.100000000000D+01
-.649702594998D-04 0.000000000000D+00 0.000000000000D+00 0.516134337721D-05 0.000000000000D+00  7 2 -2 23 -13 13 23 21 2 0.20178879D+00 0.87442188D-01 0.31317660D+06 0.31317660D+06 0.31317660D+06 0.10831734D+01  1  2  4  2  7  2       -2 -.181438402248D-03 0.100000000000D+01
-.155482606871D-02 0.000000000000D+00 -.250481388343D-03 0.516134337721D-05 0.000000000000D+00  7 2 -2 23 -13 13 23 21 2 0.20178879D+00 0.90536899D-01 0.31317660D+06 0.31317660D+06 0.31317660D+06 0.10831734D+01  1  2  5  2  7  2       -2 -.400455829708D-02 0.100000000000D+01
0.156274387460D-02 0.000000000000D+00 0.250329970733D-03 0.516134337721D-05 0.000000000000D+00  7 2 -2 23 -13 13 23 21 2 0.20178879D+00 0.87442188D-01 0.31317660D+06 0.31317660D+06 0.31317660D+06 0.10831734D+01  1  2  6  2  7  2       -2 0.436417760854D-02 0.100000000000D+01
0.170237682056D-05 0.000000000000D+00 0.000000000000D+00 0.516134337721D-05 0.000000000000D+00  7 2 21 23 -13 13 23 2 2 0.20178879D+00 0.89898819D-01 0.33116027D+06 0.33116027D+06 0.33116027D+06 0.10813909D+01  1  2 12  4  7  2       -2 0.414560395533D-04 0.100000000000D+01
-.952187055005D-05 0.000000000000D+00 -.155148516924D-05 0.516134337721D-05 0.000000000000D+00  7 2 21 23 -13 13 23 2 2 0.20178879D+00 0.90536899D-01 0.31317660D+06 0.31317660D+06 0.31317660D+06 0.10831734D+01  1  2  5  4  7  2       -2 -.229568996987D-03 0.100000000000D+01
  </mgrwgt>
  </event>
  <event>
  8     66 0.25765000E-05 0.11667554E+03 0.75467711E-02 0.10227055E+00
        2 -1    0    0  501    0 0.00000000E+00 0.00000000E+00 0.87593549E+02 0.87594134E+02 0.32000000E+00 0.0000E+00 0.9000E+01
       -2 -1    0    0    0  501 0.00000000E+00 0.00000000E+00 -.17592580E+04 0.17592580E+04 0.32000000E+00 0.0000E+00 0.9000E+01
       25  2    1    2    0    0 0.15833807E+03 -.96540319E+02 -.31209994E+03 0.47143289E+03 0.30075176E+03 0.0000E+00 0.0000E+00
       23  2    1    2    0    0 -.15833807E+03 0.96540319E+02 -.13595645E+04 0.13754193E+04 0.94718215E+02 0.0000E+00 0.0000E+00
       23  1    3    3    0    0 -.31672614E+02 -.21475803E+02 -.19562911E+03 0.21920393E+03 0.91188000E+02 0.0000E+00 0.9000E+01
      -11  1    4    4    0    0 0.11058791E+02 0.16722897E+02 -.17502355E+03 0.17616808E+03 0.51099893E-03 0.0000E+00 0.9000E+01
       11  1    4    4    0    0 -.16939686E+03 0.79817422E+02 -.11845410E+04 0.11992512E+04 0.51099893E-03 0.0000E+00 0.9000E+01
       23  1    3    3    0    0 0.19001069E+03 -.75064516E+02 -.11647084E+03 0.25222896E+03 0.91188000E+02 0.0000E+00 0.9000E+01
#aMCatNLO 1  0  0  2  1 0.66972221D+01 0.00000000D+00  -5  7  0 0.00000000D+00 0.00000000D+00 0.00000000D+00 0.00000000D+00 0.00000000D+00
  <mgrwgt>
 0.5040221578D-03   11    2    0
 0.392556008193237D+03 0.000000000000000D+00 0.000000000000000D+00 0.392556008193237D+03
 0.392556008193237D+03 0.000000000000000D+00 0.000000000000000D+00 -.392556008193237D+03
 0.991081901171191D+02 -.316726143787891D+02 -.214758028999861D+02 0.654350001944661D+01
 0.417466124635403D+02 0.110587910084326D+02 0.167228973455969D+02 -.366173114521186D+02
 0.298918660458775D+03 -.169396863525381D+03 0.798174216478121D+02 -.232994093057587D+03
 0.345338553347039D+03 0.190010686895738D+03 -.750645160934230D+02 0.263067904490259D+03
 0.000000000000000D+00 0.000000000000000D+00 0.000000000000000D+00 -.000000000000000D+00
 0.393693475044973D+03 0.000000000000000D+00 0.000000000000000D+00 0.393693475044973D+03
 0.402553683587826D+03 0.000000000000000D+00 0.000000000000000D+00 -.402553683587826D+03
 0.994046266064900D+02 -.320912924724783D+02 -.222117086627089D+02 0.654350001944661D+01
 0.415774938674759D+02 0.108830543553902D+02 0.164140070127974D+02 -.366173114521186D+02
 0.299052297374770D+03 -.170658028143562D+03 0.776006868239682D+02 -.232994093057587D+03
 0.345106162594093D+03 0.188554488337684D+03 -.776240598734601D+02 0.263067904490259D+03
 0.111065781899704D+02 0.331177792296617D+01 0.582107469940341D+01 -.886020854285300D+01
0.416365594209D-04 0.000000000000D+00 0.000000000000D+00 0.418902174695D-07 0.000000000000D+00  7 2 -2 23 -11 11 23 21 0 0.13475978D-01 0.27065513D+00 0.70205836D+05 0.70205836D+05 0.70205836D+05 0.11345512D+01  1  2  2  2  7  2       -2 0.107980882942D-03 0.100000000000D+01
-.187857325629D-05 0.000000000000D+00 -.159895351334D-06 0.418902174695D-07 0.000000000000D+00  7 2 -2 23 -11 11 23 21 2 0.13475978D-01 0.27065513D+00 0.70205836D+05 0.70205836D+05 0.70205836D+05 0.11345512D+01  1  2  3  2  7  2       -2 -.627116748083D-05 0.100000000000D+01
0.250265940947D-05 0.000000000000D+00 0.000000000000D+00 0.418902174695D-07 0.000000000000D+00  7 2 -2 23 -11 11 23 21 2 0.13475978D-01 0.27065513D+00 0.70205836D+05 0.70205836D+05 0.70205836D+05 0.11345512D+01  1  2 15  2  7  2       -2 0.835452982827D-05 0.100000000000D+01
0.903494830875D-04 0.000000000000D+00 0.000000000000D+00 0.418902174695D-07 0.000000000000D+00  7 2 -2 23 -11 11 23 21 2 0.13475978D-01 0.27793461D+00 0.71937083D+05 0.71937083D+05 0.71937083D+05 0.11336532D+01  1  2 12  2  7  2       -2 0.270734483697D-03 0.100000000000D+01
-.150328054196D-03 0.000000000000D+00 0.000000000000D+00 0.418902174695D-07 0.000000000000D+00  7 2 -2 23 -11 11 23 21 2 0.13475978D-01 0.27065513D+00 0.70205836D+05 0.70205836D+05 0.70205836D+05 0.11345512D+01  1  2  4  2  7  2       -2 -.501834252018D-03 0.100000000000D+01
-.159786191854D-02 0.000000000000D+00 -.150115023088D-03 0.418902174695D-07 0.000000000000D+00  7 2 -2 23 -11 11 23 21 2 0.13475978D-01 0.27786347D+00 0.70205836D+05 0.70205836D+05 0.70205836D+05 0.11345512D+01  1  2  5  2  7  2       -2 -.480509659448D-02 0.100000000000D+01
0.160130626865D-02 0.000000000000D+00 0.150063182855D-03 0.418902174695D-07 0.000000000000D+00  7 2 -2 23 -11 11 23 21 2 0.13475978D-01 0.27065513D+00 0.70205836D+05 0.70205836D+05 0.70205836D+05 0.11345512D+01  1  2  6  2  7  2       -2 0.534557796199D-02 0.100000000000D+01
0.582818902757D-04 0.000000000000D+00 0.000000000000D+00 0.418902174695D-07 0.640353302356D-08  7 2 -2 23 -11 11 23 21 2 0.13515026D-01 0.27754821D+00 0.71937083D+05 0.71937083D+05 0.71937083D+05 0.11336532D+01  1  2 11  2  7  2       -2 0.174998113358D-03 0.100000000000D+01
0.339073730295D-05 0.000000000000D+00 0.000000000000D+00 0.418902174695D-07 0.000000000000D+00  7 2 21 23 -11 11 23 2 2 0.13475978D-01 0.27793461D+00 0.71937083D+05 0.71937083D+05 0.71937083D+05 0.11336532D+01  1  2 12  4  7  2       -2 0.785211170772D-04 0.100000000000D+01
-.753570732940D-05 0.000000000000D+00 -.711495198834D-06 0.418902174695D-07 0.000000000000D+00  7 2 21 23 -11 11 23 2 2 0.13475978D-01 0.27786347D+00 0.70205836D+05 0.70205836D+05 0.70205836D+05 0.11345512D+01  1  2  5  4  7  2       -2 -.175331631930D-03 0.100000000000D+01
0.275257918098D-06 0.000000000000D+00 0.000000000000D+00 0.418902174695D-07 0.291073748653D-10  7 2 21 23 -11 11 23 2 2 0.13515026D-01 0.27754821D+00 0.71937083D+05 0.71937083D+05 0.71937083D+05 0.11336532D+01  1  2 11  4  7  2       -2 0.638871482224D-05 0.100000000000D+01
  </mgrwgt>
  </event>
  <event>
  8     66 0.25765000E-05 0.55594844E+03 0.75467711E-02 0.86653630E-01
        2 -1    0    0  501    0 0.00000000E+00 0.00000000E+00 0.34544890E+04 0.34544890E+04 0.32000000E+00 0.0000E+00 0.9000E+01
       21 -1    0    0  502  501 0.00000000E+00 0.00000000E+00 -.44463972E+03 0.44464035E+03 0.75000000E+00 0.0000E+00 0.9000E+01
       23  2    1    2    0    0 -.98907765E+03 -.13922503E+03 0.15547566E+04 0.18501359E+04 0.89870171E+02 0.0000E+00 0.0000E+00
       23  1    1    2    0    0 0.85870218E+02 -.23831485E+02 0.45560577E+01 0.12758387E+03 0.91188000E+02 0.0000E+00 0.9000E+01
      -13  1    3    3    0    0 -.10437653E+03 -.41658130E+01 0.21392911E+03 0.23807035E+03 0.10565837E+00 0.0000E+00 0.9000E+01
       13  1    3    3    0    0 -.88470112E+03 -.13505921E+03 0.13408275E+04 0.16120656E+04 0.10565837E+00 0.0000E+00 0.9000E+01
       23  1    1    2    0    0 0.83823857E+02 0.17078966E+03 -.45348764E+02 0.21579460E+03 0.91188000E+02 0.0000E+00 0.9000E+01
        2  1    1    2  502    0 0.81938358E+03 -.77331496E+01 0.14958854E+04 0.17056150E+04 0.32000000E+00 0.0000E+00 0.9000E+01
#aMCatNLO 2  0  0  2  2 0.81942007D+03 0.00000000D+00  -5  7  0 0.00000000D+00 0.00000000D+00 0.00000000D+00 0.00000000D+00 0.00000000D+00
  <mgrwgt>
 0.5525126588D-04    1    2    0
 0.679700203247749D+03 0.000000000000000D+00 0.000000000000000D+00 0.679700203247749D+03
 0.679700203247749D+03 0.000000000000000D+00 0.000000000000000D+00 -.679700203247749D+03
 0.252688080744640D+03 0.203954866604855D+03 -.249459397148811D+02 -.115395525417354D+03
 0.830047246671515D+02 -.465494282207580D+02 -.471138052233686D+01 0.685619277949787D+02
 0.575445193024551D+03 -.460831260116598D+03 -.139059789474318D+03 0.315331721883113D+03
 0.448262408059155D+03 0.303425821732501D+03 0.168717109711536D+03 -.268498124260738D+03
 0.000000000000000D+00 0.000000000000000D+00 -.000000000000000D+00 0.000000000000000D+00
 0.147895651323493D+04 0.000000000000000D+00 0.000000000000000D+00 0.147895651323493D+04
 0.103857293523393D+04 0.000000000000000D+00 0.000000000000000D+00 -.103857293523393D+04
 0.171968057202425D+03 0.858702184202911D+02 -.238314845546960D+02 -.115395525417354D+03
 0.124949293653307D+03 -.104375454734000D+03 -.416563207297063D+01 0.685619277949787D+02
 0.948879925954387D+03 -.884702197820928D+03 -.135059395172099D+03 0.315331721883113D+03
 0.341470410997019D+03 0.838238573081063D+02 0.170789661446263D+03 -.268498124260738D+03
 0.930261760661725D+03 0.819383576826530D+03 -.773314964649748D+01 0.440383578000996D+03
0.268117007243D-04 0.000000000000D+00 0.000000000000D+00 0.206170898549D-09 0.246219092258D-15  7 2 21 23 -13 13 23 2 2 0.53145988D+00 0.68406159D-01 0.11634954D+07 0.11634954D+07 0.11634954D+07 0.10435141D+01  1  2  1  4  7  2       -2 0.552512658832D-04 0.100000000000D+01
  </mgrwgt>
  </event>
  <event>
  8     66 0.25765000E-05 0.27609713E+03 0.75467711E-02 0.10069198E+00
        2 -1    0    0  501    0 0.00000000E+00 0.00000000E+00 0.77401180E+03 0.77401187E+03 0.32000000E+00 0.0000E+00 0.9000E+01
       -2 -1    0    0    0  501 0.00000000E+00 0.00000000E+00 -.99624888E+02 0.99625402E+02 0.32000000E+00 0.0000E+00 0.9000E+01
       25  2    1    2    0    0 0.82207980E+02 -.16274129E+03 0.44674717E+03 0.56823635E+03 0.30011104E+03 0.0000E+00 0.0000E+00
       23  2    1    2    0    0 -.82207980E+02 0.16274129E+03 0.22763974E+03 0.30540092E+03 0.90592428E+02 0.0000E+00 0.0000E+00
       23  1    3    3    0    0 0.16534735E+02 -.20783938E+03 0.32288780E+03 0.39502201E+03 0.91188000E+02 0.0000E+00 0.9000E+01
      -11  1    4    4    0    0 0.15478950E+02 0.22259311E+01 0.15729606E+02 0.22180468E+02 0.51099893E-03 0.0000E+00 0.9000E+01
       11  1    4    4    0    0 -.97686929E+02 0.16051536E+03 0.21191014E+03 0.28322045E+03 0.51099893E-03 0.0000E+00 0.9000E+01
       23  1    3    3    0    0 0.65673244E+02 0.45098091E+02 0.12385937E+03 0.17321434E+03 0.91188000E+02 0.0000E+00 0.9000E+01
#aMCatNLO 1  0  0  1  2 0.50833824D+02 0.00000000D+00  -5  7  0 0.00000000D+00 0.00000000D+00 0.00000000D+00 0.00000000D+00 0.00000000D+00
  <mgrwgt>
 0.1464156670D-03    4    2    0
 0.277688841391666D+03 0.000000000000000D+00 0.000000000000000D+00 0.277688841391666D+03
 0.277688841391666D+03 0.000000000000000D+00 0.000000000000000D+00 -.277688841391666D+03
 0.229311779297539D+03 0.165347352751259D+02 -.207839382893624D+03 0.282494996129529D+02
 0.157907730890392D+02 0.154789495699863D+02 0.222593113660458D+01 -.218994646839530D+01
 0.188200788336538D+03 -.976869292307118D+02 0.160515361028950D+03 -.105650112027438D+02
 0.122074342060216D+03 0.656732443855995D+02 0.450980907280698D+02 -.154945419418138D+02
 0.000000000000000D+00 0.000000000000000D+00 -.000000000000000D+00 -.000000000000000D+00
 0.293625810490354D+03 0.000000000000000D+00 0.000000000000000D+00 0.293625810490354D+03
 0.322569925385536D+03 0.000000000000000D+00 0.000000000000000D+00 -.322569925385536D+03
 0.213632829639072D+03 0.525850225801307D+01 -.191044624319076D+03 0.282494996129529D+02
 0.152361753514268D+02 0.146890830869862D+02 0.340235387174877D+01 -.218994646839530D+01
 0.206169301591801D+03 -.107726579650406D+03 0.175468360378621D+03 -.105650112027438D+02
 0.122660938675688D+03 0.594429122009233D+02 0.543775127409067D+02 -.154945419418138D+02
 0.584964906179033D+02 0.283360821044834D+02 -.422036026722003D+02 -.289441148951816D+02
0.191912976010D-05 0.000000000000D+00 0.000000000000D+00 0.261533385249D-06 0.000000000000D+00  7 2 -2 23 -11 11 23 21 0 0.11907878D+00 0.15326951D-01 0.76229626D+05 0.76229626D+05 0.76229626D+05 0.11315254D+01  1  2  2  1  7  1        2 0.264307717525D-03 0.100000000000D+01
-.106614036301D-06 0.000000000000D+00 -.736996359725D-08 0.261533385249D-06 0.000000000000D+00  7 2 -2 23 -11 11 23 21 2 0.11907878D+00 0.15326951D-01 0.76229626D+05 0.76229626D+05 0.76229626D+05 0.11315254D+01  1  2  3  1  7  1        2 -.187995968447D-04 0.100000000000D+01
0.123164365099D-06 0.000000000000D+00 0.000000000000D+00 0.261533385249D-06 0.000000000000D+00  7 2 -2 23 -11 11 23 21 2 0.11907878D+00 0.15326951D-01 0.76229626D+05 0.76229626D+05 0.76229626D+05 0.11315254D+01  1  2 15  1  7  1        2 0.217179696953D-04 0.100000000000D+01
-.685125695387D-06 0.000000000000D+00 0.000000000000D+00 0.261533385249D-06 0.000000000000D+00  7 2 -2 23 -11 11 23 21 2 0.11907878D+00 0.15326951D-01 0.76229626D+05 0.76229626D+05 0.76229626D+05 0.11315254D+01  1  2  4  1  7  1        2 -.120810423355D-03 0.100000000000D+01
  </mgrwgt>
  </event>
  <event>
  8     66 0.25765000E-05 0.32588111E+03 0.75467711E-02 0.93792969E-01
        2 -1    0    0  501    0 0.00000000E+00 0.00000000E+00 0.23769633E+03 0.23769654E+03 0.32000000E+00 0.0000E+00 0.9000E+01
       -2 -1    0    0    0  501 0.00000000E+00 0.00000000E+00 -.59845774E+03 0.59845782E+03 0.32000000E+00 0.0000E+00 0.9000E+01
       25  2    1    2    0    0 0.50991645E+01 -.25475755E+03 -.40163456E+03 0.56236413E+03 0.30002615E+03 0.0000E+00 0.0000E+00
       23  2    1    2    0    0 -.50991645E+01 0.25475755E+03 0.40873150E+02 0.27379023E+03 0.91449805E+02 0.0000E+00 0.0000E+00
       23  1    3    3    0    0 -.11226047E+03 -.11546832E+03 -.14739930E+03 0.23659490E+03 0.91188000E+02 0.0000E+00 0.9000E+01
      -11  1    4    4    0    0 -.31617202E+02 0.76397305E+02 0.43550302E+02 0.93449582E+02 0.51099893E-03 0.0000E+00 0.9000E+01
       11  1    4    4    0    0 0.26518038E+02 0.17836024E+03 -.26771521E+01 0.18034065E+03 0.51099893E-03 0.0000E+00 0.9000E+01
       23  1    3    3    0    0 0.11735963E+03 -.13928923E+03 -.25423526E+03 0.32576923E+03 0.91188000E+02 0.0000E+00 0.9000E+01
#aMCatNLO 1  0  0  1  2 0.33919259D+03 0.00000000D+00  -5  7  0 0.00000000D+00 0.00000000D+00 0.00000000D+00 0.00000000D+00 0.00000000D+00
  <mgrwgt>
 0.2451863063D-03    3    2    0
 0.377162208641652D+03 0.000000000000000D+00 0.000000000000000D+00 0.377162208641652D+03
 0.377162208641652D+03 0.000000000000000D+00 0.000000000000000D+00 -.377162208641652D+03
 0.191766141519878D+03 -.112260466684617D+03 -.115468315130163D+03 -.502360180565189D+02
 0.124415360773929D+03 -.316172023796203D+02 0.763973046936672D+02 0.929676629034851D+02
 0.198623831023216D+03 0.265180378518048D+02 0.178360240452116D+03 0.832817179499364D+02
 0.239519083966281D+03 0.117359631212433D+03 -.139289230015619D+03 -.126013362796903D+03
 0.000000000000000D+00 -.000000000000000D+00 -.000000000000000D+00 -.000000000000000D+00
 0.480856724608431D+03 0.000000000000000D+00 0.000000000000000D+00 0.480856724608431D+03
 0.840807468450575D+03 0.000000000000000D+00 0.000000000000000D+00 -.840807468450575D+03
 0.145134680074360D+03 -.896128388191167D+02 -.468476853738904D+02 -.502360180565189D+02
 0.164581433892135D+03 -.121898473825392D+02 0.135260746918852D+03 0.929676629034851D+02
 0.297679227231985D+03 0.598812303744136D+02 0.279448234973108D+03 0.832817179499364D+02
 0.219682005382093D+03 0.148228702227997D+03 -.457582383524311D+02 -.126013362796903D+03
 0.494586846478432D+03 -.106307246400755D+03 -.322103058165638D+03 -.359950743842144D+03
0.135375218617D-04 0.000000000000D+00 0.000000000000D+00 0.656128438397D-06 0.000000000000D+00  7 2 -2 23 -11 11 23 21 0 0.36568689D-01 0.92070444D-01 0.10619850D+06 0.10619850D+06 0.10619850D+06 0.11195850D+01  1  2  2  1  7  1        2 0.241841532547D-03 0.100000000000D+01
-.732554534464D-06 0.000000000000D+00 -.519876484603D-07 0.656128438397D-06 0.000000000000D+00  7 2 -2 23 -11 11 23 21 2 0.36568689D-01 0.92070444D-01 0.10619850D+06 0.10619850D+06 0.10619850D+06 0.11195850D+01  1  2  3  1  7  1        2 -.164038514038D-04 0.100000000000D+01
0.881923674600D-06 0.000000000000D+00 0.000000000000D+00 0.656128438397D-06 0.000000000000D+00  7 2 -2 23 -11 11 23 21 2 0.36568689D-01 0.92070444D-01 0.10619850D+06 0.10619850D+06 0.10619850D+06 0.11195850D+01  1  2 15  1  7  1        2 0.197486251562D-04 0.100000000000D+01
  </mgrwgt>
  </event>
  <event>
  8     66 0.25765000E-05 0.12608203E+03 0.75467711E-02 0.98848863E-01
        2 -1    0    0  501    0 0.00000000E+00 0.00000000E+00 0.26951179E+04 0.26951179E+04 0.32000000E+00 0.0000E+00 0.9000E+01
       -2 -1    0    0    0  501 0.00000000E+00 0.00000000E+00 -.10324118E+03 0.10324168E+03 0.32000000E+00 0.0000E+00 0.9000E+01
       25  2    1    2    0    0 -.23933804E+03 0.62981512E+02 0.24833954E+04 0.25137291E+04 0.30055261E+03 0.0000E+00 0.0000E+00
       23  2    1    2    0    0 0.23933804E+03 -.62981512E+02 0.10848134E+03 0.28463053E+03 0.89425776E+02 0.0000E+00 0.0000E+00
       23  1    3    3    0    0 -.88279250E+02 -.78749437E+02 0.13282108E+04 0.13365829E+04 0.91188000E+02 0.0000E+00 0.9000E+01
      -11  1    4    4    0    0 0.16798166E+03 -.93859965E+01 0.42168391E+02 0.17344771E+03 0.51099893E-03 0.0000E+00 0.9000E+01
       11  1    4    4    0    0 0.71356380E+02 -.53595516E+02 0.66312950E+02 0.11118282E+03 0.51099893E-03 0.0000E+00 0.9000E+01
       23  1    3    3    0    0 -.15105879E+03 0.14173095E+03 0.11551846E+04 0.11771462E+04 0.91188000E+02 0.0000E+00 0.9000E+01
#aMCatNLO 1  0  0  2  1 0.71780938D+02 0.00000000D+00  -5  7  0 0.00000000D+00 0.00000000D+00 0.00000000D+00 0.00000000D+00 0.00000000D+00
  <mgrwgt>
 0.1702887274D-03    9    2    0
 0.527492066817451D+03 0.000000000000000D+00 0.000000000000000D+00 0.527492066817451D+03
 0.527492066817451D+03 0.000000000000000D+00 0.000000000000000D+00 -.527492066817451D+03
 0.282166293141739D+03 -.882792504016083D+02 -.787494374991271D+02 0.239390613189931D+03
 0.356473407879729D+03 0.167981657386425D+03 -.938599654673945D+01 -.314272742018652D+03
 0.131996792767180D+03 0.713563796014650D+02 -.535955155901069D+02 -.972570876575287D+02
 0.284347639846253D+03 -.151058786586281D+03 0.141730949635973D+03 0.172139216486250D+03
 0.000000000000000D+00 0.000000000000000D+00 0.000000000000000D+00 -.000000000000000D+00
 0.547992602341340D+03 0.000000000000000D+00 0.000000000000000D+00 0.547992602341340D+03
 0.595519840833124D+03 0.000000000000000D+00 0.000000000000000D+00 -.595519840833124D+03
 0.289083656707597D+03 -.107666770680269D+03 -.797126717609380D+02 0.239390613189931D+03
 0.345913914431733D+03 0.144143496073011D+03 -.105703529464038D+02 -.314272742018652D+03
 0.127633832624281D+03 0.625448356948687D+02 -.540333013857265D+02 -.972570876575287D+02
 0.294791891432048D+03 -.170714069549183D+03 0.140754412064209D+03 0.172139216486250D+03
 0.860891479788049D+02 0.716925084615727D+02 0.356191402885927D+01 -.475272384917841D+02
0.137896599197D-04 0.000000000000D+00 0.000000000000D+00 0.390216820088D-06 0.000000000000D+00  7 2 -2 23 -11 11 23 21 0 0.41463356D+00 0.15883298D-01 0.10022711D+06 0.10022711D+06 0.10022711D+06 0.11216412D+01  1  2  2  2  7  2       -2 0.147406443710D-03 0.100000000000D+01
-.523310110201D-06 0.000000000000D+00 -.529559249925D-07 0.390216820088D-06 0.000000000000D+00  7 2 -2 23 -11 11 23 21 2 0.41463356D+00 0.15883298D-01 0.10022711D+06 0.10022711D+06 0.10022711D+06 0.11216412D+01  1  2  3  2  7  2       -2 -.703768700624D-05 0.100000000000D+01
0.801389067346D-06 0.000000000000D+00 0.000000000000D+00 0.390216820088D-06 0.000000000000D+00  7 2 -2 23 -11 11 23 21 2 0.41463356D+00 0.15883298D-01 0.10022711D+06 0.10022711D+06 0.10022711D+06 0.11216412D+01  1  2 15  2  7  2       -2 0.107774058178D-04 0.100000000000D+01
0.257220689107D-04 0.000000000000D+00 0.000000000000D+00 0.390216820088D-06 0.000000000000D+00  7 2 -2 23 -11 11 23 21 2 0.41463356D+00 0.18212245D-01 0.12261564D+06 0.12261564D+06 0.12261564D+06 0.11145275D+01  1  2 12  2  7  2       -2 0.270915160893D-03 0.100000000000D+01
-.262849631349D-04 0.000000000000D+00 0.000000000000D+00 0.390216820088D-06 0.000000000000D+00  7 2 -2 23 -11 11 23 21 2 0.41463356D+00 0.15883298D-01 0.10022711D+06 0.10022711D+06 0.10022711D+06 0.11216412D+01  1  2  4  2  7  2       -2 -.353490864992D-03 0.100000000000D+01
-.447483281040D-04 0.000000000000D+00 -.113921458372D-04 0.390216820088D-06 0.000000000000D+00  7 2 -2 23 -11 11 23 21 2 0.41463356D+00 0.18794049D-01 0.10022711D+06 0.10022711D+06 0.10022711D+06 0.11216412D+01  1  2  5  2  7  2       -2 -.457908491409D-03 0.100000000000D+01
0.461695142497D-04 0.000000000000D+00 0.112327398453D-04 0.390216820088D-06 0.000000000000D+00  7 2 -2 23 -11 11 23 21 2 0.41463356D+00 0.15883298D-01 0.10022711D+06 0.10022711D+06 0.10022711D+06 0.11216412D+01  1  2  6  2  7  2       -2 0.620906388365D-03 0.100000000000D+01
0.544334857737D-06 0.000000000000D+00 0.000000000000D+00 0.390216820088D-06 0.000000000000D+00  7 2 21 23 -11 11 23 2 2 0.41463356D+00 0.18212245D-01 0.12261564D+06 0.12261564D+06 0.12261564D+06 0.11145275D+01  1  2 12  4  7  2       -2 0.745412722796D-04 0.100000000000D+01
-.102215160826D-05 0.000000000000D+00 -.284929624409D-06 0.390216820088D-06 0.000000000000D+00  7 2 21 23 -11 11 23 2 2 0.41463356D+00 0.18794049D-01 0.10022711D+06 0.10022711D+06 0.10022711D+06 0.11216412D+01  1  2  5  4  7  2       -2 -.135820900213D-03 0.100000000000D+01
  </mgrwgt>
  </event>
  <event>
  8     66 0.25765000E-05 0.84434155E+03 0.75467711E-02 0.83577472E-01
        2 -1    0    0  501    0 0.00000000E+00 0.00000000E+00 0.11703466E+04 0.11703466E+04 0.32000000E+00 0.0000E+00 0.9000E+01
       -2 -1    0    0    0  501 0.00000000E+00 0.00000000E+00 -.63072320E+03 0.63072329E+03 0.32000000E+00 0.0000E+00 0.9000E+01
       25  2    1    2    0    0 -.82804687E+03 -.48391312E+02 0.23568381E+03 0.91289772E+03 0.29971994E+03 0.0000E+00 0.0000E+00
       23  2    1    2    0    0 0.82804687E+03 0.48391312E+02 0.30393955E+03 0.88817218E+03 0.92017562E+02 0.0000E+00 0.0000E+00
       23  1    3    3    0    0 -.60701469E+03 -.30939301E+02 0.26892409E+03 0.67086474E+03 0.91188000E+02 0.0000E+00 0.9000E+01
      -11  1    4    4    0    0 0.74693127E+03 0.16310233E+02 0.26601010E+03 0.79305341E+03 0.51099893E-03 0.0000E+00 0.9000E+01
       11  1    4    4    0    0 0.81115604E+02 0.32081080E+02 0.37929444E+02 0.95118766E+02 0.51099893E-03 0.0000E+00 0.9000E+01
       23  1    3    3    0    0 -.22103218E+03 -.17452011E+02 -.33240273E+02 0.24203298E+03 0.91188000E+02 0.0000E+00 0.9000E+01
#aMCatNLO 1  0  0  2  1 0.10346919D+04 0.00000000D+00  -5  7  0 0.00000000D+00 0.00000000D+00 0.00000000D+00 0.00000000D+00 0.00000000D+00
  <mgrwgt>
 0.2583504784D-03    5    2    0
 0.859165204081405D+03 0.000000000000000D+00 0.000000000000000D+00 0.859165204081405D+03
 0.859165204081405D+03 0.000000000000000D+00 0.000000000000000D+00 -.859165204081405D+03
 0.618714862279806D+03 -.607014694723844D+03 -.309393011781886D+02 0.711951507747767D+02
 0.747702161173020D+03 0.746931266247405D+03 0.163102326230364D+02 0.297688030769917D+02
 0.877875007978558D+02 0.811156044082835D+02 0.320810798551725D+02 0.988475255827949D+01
 0.264125883912127D+03 -.221032175931844D+03 -.174520113000203D+02 -.110848706410048D+03
 0.000000000000000D+00 0.000000000000000D+00 -.000000000000000D+00 -.000000000000000D+00
 0.129346999435664D+04 0.000000000000000D+00 0.000000000000000D+00 0.129346999435664D+04
 0.192401639183587D+04 0.000000000000000D+00 0.000000000000000D+00 -.192401639183587D+04
 0.969168000104858D+03 -.920873398329636D+03 0.279096391661082D+03 0.711951507747767D+02
 0.559718832785549D+03 0.488508262919200D+03 0.271585469415886D+03 0.297688030769917D+02
 0.813010969983453D+02 0.476937888852311D+02 0.650957951158669D+02 0.988475255827949D+01
 0.395615316547237D+03 -.351435698003073D+03 0.111363107890731D+03 -.110848706410048D+03
 0.121168313975652D+04 0.736107044528277D+03 -.727140764083566D+03 -.630546397479228D+03
0.119034607034D-03 0.000000000000D+00 0.000000000000D+00 0.218870855978D-05 0.000000000000D+00  7 2 -2 23 -11 11 23 21 0 0.18005333D+00 0.97034349D-01 0.71291266D+06 0.71291266D+06 0.71291266D+06 0.10577892D+01  1  2  2  2  7  2       -2 0.257013568640D-03 0.100000000000D+01
-.661059823123D-05 0.000000000000D+00 -.457124233544D-06 0.218870855978D-05 0.000000000000D+00  7 2 -2 23 -11 11 23 21 2 0.18005333D+00 0.97034349D-01 0.71291266D+06 0.71291266D+06 0.71291266D+06 0.10577892D+01  1  2  3  2  7  2       -2 -.159706226329D-04 0.100000000000D+01
0.737688621283D-05 0.000000000000D+00 0.000000000000D+00 0.218870855978D-05 0.000000000000D+00  7 2 -2 23 -11 11 23 21 2 0.18005333D+00 0.97034349D-01 0.71291266D+06 0.71291266D+06 0.71291266D+06 0.10577892D+01  1  2 15  2  7  2       -2 0.178219068517D-04 0.100000000000D+01
-.982872342836D-05 0.000000000000D+00 -.339404484673D-04 0.218870855978D-05 0.000000000000D+00  7 2 -2 23 -11 11 23 21 2 0.18005333D+00 0.27545421D+00 0.71291266D+06 0.71291266D+06 0.71291266D+06 0.10577892D+01  1  2  5  2  7  2       -2 -.104316057373D-05 0.100000000000D+01
0.704125854293D-06 0.000000000000D+00 -.398710546391D-05 0.218870855978D-05 0.000000000000D+00  7 2 21 23 -11 11 23 2 2 0.18005333D+00 0.27545421D+00 0.71291266D+06 0.71291266D+06 0.71291266D+06 0.10577892D+01  1  2  5  4  7  2       -2 0.528786162378D-06 0.100000000000D+01
  </mgrwgt>
  </event>
  <event>
  8     66 0.25765000E-05 0.22731297E+03 0.75467711E-02 0.10084671E+00
        2 -1    0    0  501    0 0.00000000E+00 0.00000000E+00 0.11497968E+03 0.11498012E+03 0.32000000E+00 0.0000E+00 0.9000E+01
       -2 -1    0    0    0  501 0.00000000E+00 0.00000000E+00 -.87915389E+03 0.87915395E+03 0.32000000E+00 0.0000E+00 0.9000E+01
       25  2    1    2    0    0 -.10657329E+03 -.61360605E+02 -.14629307E+03 0.35737282E+03 0.30197794E+03 0.0000E+00 0.0000E+00
       23  2    1    2    0    0 0.10657329E+03 0.61360605E+02 -.61788113E+03 0.63676125E+03 0.92546231E+02 0.0000E+00 0.0000E+00
       23  1    3    3    0    0 -.18956682E+02 -.14105966E+03 -.39282516E+02 0.17353833E+03 0.91188000E+02 0.0000E+00 0.9000E+01
      -11  1    4    4    0    0 0.30342901E+02 -.97438089E+01 -.49305259E+02 0.58708109E+02 0.51099893E-03 0.0000E+00 0.9000E+01
       11  1    4    4    0    0 0.76230391E+02 0.71104414E+02 -.56857587E+03 0.57805314E+03 0.51099893E-03 0.0000E+00 0.9000E+01
       23  1    3    3    0    0 -.87616609E+02 0.79699056E+02 -.10701056E+03 0.18383449E+03 0.91188000E+02 0.0000E+00 0.9000E+01
#aMCatNLO 1  0  0  2  1 0.12106247D+03 0.00000000D+00  -5  7  0 0.00000000D+00 0.00000000D+00 0.00000000D+00 0.00000000D+00 0.00000000D+00
  <mgrwgt>
 0.1629675002D-03    4    2    0
 0.317938803181422D+03 0.000000000000000D+00 0.000000000000000D+00 0.317938803181422D+03
 0.317938803181422D+03 0.000000000000000D+00 0.000000000000000D+00 -.317938803181422D+03
 0.224102370057436D+03 -.189566824525028D+02 -.141059660873369D+03 0.147137477163519D+03
 0.325312974556669D+02 0.303429005414246D+02 -.974380889446369D+01 -.653084137844940D+01
 0.220437554777146D+03 0.762303905498875D+02 0.711044140530400D+02 -.194231319346064D+03
 0.158806384072595D+03 -.876166086388093D+02 0.796990557147923D+02 0.536246835609937D+02
 0.000000000000000D+00 -.000000000000000D+00 -.000000000000000D+00 0.000000000000000D+00
 0.410434188537118D+03 0.000000000000000D+00 0.000000000000000D+00 0.410434188537118D+03
 0.365869543201705D+03 0.000000000000000D+00 0.000000000000000D+00 -.365869543201705D+03
 0.201923539847252D+03 -.363684774281010D+01 -.103899955499967D+03 0.147137477163519D+03
 0.336024277930575D+02 0.327210604514013D+02 -.397535752013795D+01 -.653084137844940D+01
 0.242444232829092D+03 0.928755576897010D+02 0.111478838355096D+03 -.194231319346064D+03
 0.169329152530237D+03 -.758168986534323D+02 0.108320366248305D+03 0.536246835609937D+02
 0.129004378739184D+03 -.461428717448599D+02 -.111923891583295D+03 0.445646453354127D+02
0.145019876005D-04 0.000000000000D+00 0.000000000000D+00 0.235062341978D-07 0.000000000000D+00  7 2 -2 23 -11 11 23 21 0 0.17689220D-01 0.13525448D+00 0.51671185D+05 0.51671185D+05 0.51671185D+05 0.11460416D+01  1  2  2  2  7  2       -2 0.233448756727D-03 0.100000000000D+01
-.695384597969D-06 0.000000000000D+00 -.556914508469D-07 0.235062341978D-07 0.000000000000D+00  7 2 -2 23 -11 11 23 21 2 0.17689220D-01 0.13525448D+00 0.51671185D+05 0.51671185D+05 0.51671185D+05 0.11460416D+01  1  2  3  2  7  2       -2 -.147024547785D-04 0.100000000000D+01
0.903253077796D-06 0.000000000000D+00 0.000000000000D+00 0.235062341978D-07 0.000000000000D+00  7 2 -2 23 -11 11 23 21 2 0.17689220D-01 0.13525448D+00 0.51671185D+05 0.51671185D+05 0.51671185D+05 0.11460416D+01  1  2 15  2  7  2       -2 0.190973995809D-04 0.100000000000D+01
-.354143290552D-05 0.000000000000D+00 0.000000000000D+00 0.235062341978D-07 0.000000000000D+00  7 2 -2 23 -11 11 23 21 2 0.17689220D-01 0.13525448D+00 0.51671185D+05 0.51671185D+05 0.51671185D+05 0.11460416D+01  1  2  4  2  7  2       -2 -.748762013086D-04 0.100000000000D+01
  </mgrwgt>
  </event>
  <event>
  9     66 -.25765000E-05 0.87495827E+03 0.75467711E-02 0.87849976E-01
        2 -1    0    0  502    0 0.00000000E+00 0.00000000E+00 0.64549525E+03 0.64549533E+03 0.32000000E+00 0.0000E+00 0.9000E+01
       -2 -1    0    0    0  501 0.00000000E+00 0.00000000E+00 -.20704573E+04 0.20704573E+04 0.32000000E+00 0.0000E+00 0.9000E+01
       25  2    1    2    0    0 0.80216986E+03 0.41746149E+03 0.26353896E+02 0.95326320E+03 0.30044236E+03 0.0000E+00 0.0000E+00
       23  2    1    2    0    0 -.75460831E+03 -.27563391E+03 -.13740679E+04 0.15943298E+04 0.91744080E+02 0.0000E+00 0.0000E+00
       23  1    3    3    0    0 0.29050639E+03 0.42502055E+02 -.35225335E+02 0.30944541E+03 0.91188000E+02 0.0000E+00 0.9000E+01
      -13  1    4    4    0    0 -.42230170E+02 -.35704098E+02 -.12193984E+03 0.13389364E+03 0.10565837E+00 0.0000E+00 0.9000E+01
       13  1    4    4    0    0 -.71237814E+03 -.23992981E+03 -.12521281E+04 0.14604361E+04 0.10565837E+00 0.0000E+00 0.9000E+01
       23  1    3    3    0    0 0.51166347E+03 0.37495944E+03 0.61579231E+02 0.64381779E+03 0.91188000E+02 0.0000E+00 0.9000E+01
       21  1    1    2  502  501 -.47561552E+02 -.14182758E+03 -.77247990E+02 0.16835967E+03 0.75000000E+00 0.0000E+00 0.9000E+01
#aMCatNLO 2  0  0  1  2 0.14958999D+03 0.00000000D+00  -5  7  0 0.00000000D+00 0.00000000D+00 0.00000000D+00 0.00000000D+00 0.00000000D+00
  <mgrwgt>
 -.9114912587D-04    2    2    0
 0.107836909641782D+04 0.000000000000000D+00 0.000000000000000D+00 0.107836909641782D+04
 0.107836909641782D+04 0.000000000000000D+00 0.000000000000000D+00 -.107836909641782D+04
 0.334311496256283D+03 0.283050548324937D+03 0.202688934819180D+02 0.151395126193303D+03
 0.852381012298424D+02 -.440684652910415D+02 -.411882376687494D+02 -.602248565453149D+02
 0.974155897983522D+03 -.733464208707931D+03 -.302805659260857D+03 -.565082915013477D+03
 0.763032697366000D+03 0.494482125674035D+03 0.323725003447688D+03 0.473912645365488D+03
 0.000000000000000D+00 -.000000000000000D+00 -.000000000000000D+00 0.000000000000000D+00
 0.116304057885502D+04 0.000000000000000D+00 0.000000000000000D+00 0.116304057885502D+04
 0.114911581194672D+04 0.000000000000000D+00 0.000000000000000D+00 -.114911581194672D+04
 0.342689541192438D+03 0.290506387848653D+03 0.425020550412062D+02 0.151395126193303D+03
 0.817625144670792D+02 -.422292808258444D+02 -.357038270638817D+02 -.602248565453149D+02
 0.940408967995770D+03 -.712379029204689D+03 -.239930083557949D+03 -.565082915013477D+03
 0.797058677927108D+03 0.511663474435854D+03 0.374959435413786D+03 0.473912645365488D+03
 0.150236689219344D+03 -.475615522539729D+02 -.141827579833162D+03 0.139247669082976D+02
-.162758975191D-02 0.000000000000D+00 0.000000000000D+00 0.482620682696D-05 0.000000000000D+00  7 2 -2 23 -13 13 23 21 2 0.10211355D+00 0.29892085D+00 0.90714975D+06 0.90714975D+06 0.90714975D+06 0.10506928D+01  1  2 13  1  7  1        2 -.257896081821D-03 0.100000000000D+01
0.136758765568D-02 0.000000000000D+00 0.000000000000D+00 0.482620682696D-05 0.127537896690D-08  7 2 -2 23 -13 13 23 21 2 0.99306889D-01 0.31853164D+00 0.90714975D+06 0.90714975D+06 0.90714975D+06 0.10506928D+01  1  2  1  1  7  1        2 0.166746955954D-03 0.100000000000D+01
  </mgrwgt>
  </event>
  <event>
  8     66 0.25765000E-05 0.17622254E+03 0.75467711E-02 0.10029905E+00
        2 -1    0    0  501    0 0.00000000E+00 0.00000000E+00 0.48024422E+02 0.48025488E+02 0.32000000E+00 0.0000E+00 0.9000E+01
       -2 -1    0    0    0  501 0.00000000E+00 0.00000000E+00 -.17619999E+04 0.17619999E+04 0.32000000E+00 0.0000E+00 0.9000E+01
       25  2    1    2    0    0 0.19765666E+03 -.34281022E+02 -.10310933E+04 0.10923566E+04 0.29974369E+03 0.0000E+00 0.0000E+00
       23  2    1    2    0    0 -.19765666E+03 0.34281022E+02 -.68288220E+03 0.71766881E+03 0.92071012E+02 0.0000E+00 0.0000E+00
       23  1    3    3    0    0 0.19562646E+03 0.15324495E+01 -.91653303E+03 0.94160507E+03 0.91188000E+02 0.0000E+00 0.9000E+01
      -11  1    4    4    0    0 -.14047730E+03 0.56669415E+02 -.56237636E+03 0.58241949E+03 0.51099893E-03 0.0000E+00 0.9000E+01
       11  1    4    4    0    0 -.57179359E+02 -.22388393E+02 -.12050584E+03 0.13524932E+03 0.51099893E-03 0.0000E+00 0.9000E+01
       23  1    3    3    0    0 0.20301940E+01 -.35813471E+02 -.11456026E+03 0.15075156E+03 0.91188000E+02 0.0000E+00 0.9000E+01
#aMCatNLO 1  0  0  1  2 0.91387723D+02 0.00000000D+00  -5  7  0 0.00000000D+00 0.00000000D+00 0.00000000D+00 0.00000000D+00 0.00000000D+00
  <mgrwgt>
 0.1009997099D-03    9    2    0
 0.290895201151268D+03 0.000000000000000D+00 0.000000000000000D+00 0.290895201151268D+03
 0.290895201151268D+03 0.000000000000000D+00 0.000000000000000D+00 -.290895201151268D+03
 0.229316213256414D+03 0.195626464844752D+03 0.153244953647884D+01 -.774507079956309D+02
 0.155201586185753D+03 -.140477299676898D+03 0.566694149561218D+02 -.337970122731527D+02
 0.657636145844363D+02 -.571793591924419D+02 -.223883932143423D+02 0.235400453447310D+02
 0.131508988275933D+03 0.203019402458818D+01 -.358134712782584D+02 0.877076749240526D+02
 0.000000000000000D+00 -.000000000000000D+00 -.000000000000000D+00 0.000000000000000D+00
 0.470566176876898D+03 0.000000000000000D+00 0.000000000000000D+00 0.470566176876898D+03
 0.306318355493347D+03 0.000000000000000D+00 0.000000000000000D+00 -.306318355493347D+03
 0.234379447850262D+03 0.197995500406045D+03 0.376516119247080D+02 -.774507079956309D+02
 0.164543002114586D+03 -.138843714625861D+03 0.815756361616736D+02 -.337970122731527D+02
 0.624729258094568D+02 -.565241947172657D+02 -.123995216007125D+02 0.235400453447310D+02
 0.127528887672187D+03 0.335362659322275D+01 -.156359456060489D+02 0.877076749240526D+02
 0.187960268923753D+03 -.598121765614191D+01 -.911917808796203D+02 0.164247821383551D+03
0.180211275701D-04 0.000000000000D+00 0.000000000000D+00 0.177106777005D-06 0.000000000000D+00  7 2 -2 23 -11 11 23 21 0 0.73884568D-02 0.27107699D+00 0.69356870D+05 0.69356870D+05 0.69356870D+05 0.11350005D+01  1  2  2  1  7  1        2 0.996476824640D-04 0.100000000000D+01
-.989133789619D-06 0.000000000000D+00 -.692058749410D-07 0.177106777005D-06 0.000000000000D+00  7 2 -2 23 -11 11 23 21 2 0.73884568D-02 0.27107699D+00 0.69356870D+05 0.69356870D+05 0.69356870D+05 0.11350005D+01  1  2  3  1  7  1        2 -.704583420421D-05 0.100000000000D+01
0.110438867652D-05 0.000000000000D+00 0.000000000000D+00 0.177106777005D-06 0.000000000000D+00  7 2 -2 23 -11 11 23 21 2 0.73884568D-02 0.27107699D+00 0.69356870D+05 0.69356870D+05 0.69356870D+05 0.11350005D+01  1  2 15  1  7  1        2 0.786682205524D-05 0.100000000000D+01
0.332121778880D-04 0.000000000000D+00 0.000000000000D+00 0.177106777005D-06 0.000000000000D+00  7 2 -2 23 -11 11 23 21 2 0.12045887D-01 0.27107699D+00 0.97369908D+05 0.97369908D+05 0.97369908D+05 0.11226732D+01  1  2 12  1  7  1        2 0.122590624690D-03 0.100000000000D+01
-.352050793097D-04 0.000000000000D+00 0.000000000000D+00 0.177106777005D-06 0.000000000000D+00  7 2 -2 23 -11 11 23 21 2 0.73884568D-02 0.27107699D+00 0.69356870D+05 0.69356870D+05 0.69356870D+05 0.11350005D+01  1  2  4  1  7  1        2 -.250774116268D-03 0.100000000000D+01
-.392865827223D-04 0.000000000000D+00 -.707946996447D-05 0.177106777005D-06 0.000000000000D+00  7 2 -2 23 -11 11 23 21 2 0.12592818D-01 0.27107699D+00 0.69356870D+05 0.69356870D+05 0.69356870D+05 0.11350005D+01  1  2  5  1  7  1        2 -.141927903906D-03 0.100000000000D+01
0.383752171248D-04 0.000000000000D+00 0.617994583861D-05 0.177106777005D-06 0.000000000000D+00  7 2 -2 23 -11 11 23 21 2 0.73884568D-02 0.27107699D+00 0.69356870D+05 0.69356870D+05 0.69356870D+05 0.11350005D+01  1  2  6  1  7  1        2 0.273355758594D-03 0.100000000000D+01
0.183945904345D-05 0.000000000000D+00 0.000000000000D+00 0.177106777005D-06 0.000000000000D+00  7 21 -2 23 -11 11 23 -2 2 0.12045887D-01 0.27107699D+00 0.97369908D+05 0.97369908D+05 0.97369908D+05 0.11226732D+01  1  2 12  3  7  1        2 0.635044131336D-04 0.100000000000D+01
-.199042558835D-05 0.000000000000D+00 -.420379120080D-06 0.177106777005D-06 0.000000000000D+00  7 21 -2 23 -11 11 23 -2 2 0.12592818D-01 0.27107699D+00 0.69356870D+05 0.69356870D+05 0.69356870D+05 0.11350005D+01  1  2  5  3  7  1        2 -.662177367008D-04 0.100000000000D+01
  </mgrwgt>
  </event>
  <event>
  8     66 0.25765000E-05 0.25632596E+03 0.75467711E-02 0.96410284E-01
        2 -1    0    0  501    0 0.00000000E+00 0.00000000E+00 0.65560483E+03 0.65560491E+03 0.32000000E+00 0.0000E+00 0.9000E+01
       -2 -1    0    0    0  501 0.00000000E+00 0.00000000E+00 -.12468551E+03 0.12468592E+03 0.32000000E+00 0.0000E+00 0.9000E+01
       25  2    1    2    0    0 0.13335875E+03 -.91560606E+02 0.18535221E+03 0.38836357E+03 0.30050444E+03 0.0000E+00 0.0000E+00
       23  2    1    2    0    0 -.13335875E+03 0.91560606E+02 0.34556711E+03 0.39192726E+03 0.89568132E+02 0.0000E+00 0.0000E+00
       23  1    3    3    0    0 0.94127300E+02 -.16317017E+03 0.15981479E+03 0.26332579E+03 0.91188000E+02 0.0000E+00 0.9000E+01
      -13  1    4    4    0    0 0.11172188E+02 0.10089829E+02 0.11552081E+02 0.18975884E+02 0.10565837E+00 0.0000E+00 0.9000E+01
       13  1    4    4    0    0 -.14453094E+03 0.81470776E+02 0.33401503E+03 0.37295138E+03 0.10565837E+00 0.0000E+00 0.9000E+01
       23  1    3    3    0    0 0.39231450E+02 0.71609560E+02 0.25537423E+02 0.12503778E+03 0.91188000E+02 0.0000E+00 0.9000E+01
#aMCatNLO 1  0  0  2  2 0.28441615D+03 0.00000000D+00  -5  7  0 0.00000000D+00 0.00000000D+00 0.00000000D+00 0.00000000D+00 0.00000000D+00
  <mgrwgt>
 0.2709454753D-03    5    2    0
 0.285910149180121D+03 0.000000000000000D+00 0.000000000000000D+00 0.285910149180121D+03
 0.285910149180121D+03 0.000000000000000D+00 0.000000000000000D+00 -.285910149180121D+03
 0.210943783509872D+03 0.941273005019513D+02 -.163170165787303D+03 -.264116783756610D+02
 0.151679447845325D+02 0.111724034557478D+02 0.100897299301350D+02 -.185507410783506D+01
 0.198796115068941D+03 -.144531154119289D+03 0.814708763929189D+02 0.109513182563652D+03
 0.146912454996895D+03 0.392314501615899D+02 0.716095594642487D+02 -.812464300801563D+02
 0.000000000000000D+00 0.000000000000000D+00 0.000000000000000D+00 -.000000000000000D+00
 0.358374848445158D+03 0.000000000000000D+00 0.000000000000000D+00 0.358374848445158D+03
 0.837189239756063D+03 0.000000000000000D+00 0.000000000000000D+00 -.837189239756063D+03
 0.313412803217065D+03 0.858179835320634D+02 -.286094443889163D+03 -.264116783756610D+02
 0.115587329612621D+02 0.107488740435818D+02 0.382422731011403D+01 -.185507410783506D+01
 0.186447053523843D+03 -.150635983693955D+03 -.884121196767282D+01 0.109513182563652D+03
 0.127229198549966D+03 0.348872120007059D+02 0.734286440803267D+01 -.812464300801563D+02
 0.556916299949086D+03 0.191819141176037D+02 0.283768564138689D+03 -.478814391310904D+03
0.263920373585D-05 0.000000000000D+00 0.000000000000D+00 0.112843858749D-06 0.000000000000D+00  7 2 -2 23 -13 13 23 21 0 0.10086232D+00 0.19182424D-01 0.65702997D+05 0.65702997D+05 0.65702997D+05 0.11370059D+01  1  2  2  2  7  2       -2 0.308700480386D-03 0.100000000000D+01
-.144495528057D-06 0.000000000000D+00 -.101352372640D-07 0.112843858749D-06 0.000000000000D+00  7 2 -2 23 -13 13 23 21 2 0.10086232D+00 0.19182424D-01 0.65702997D+05 0.65702997D+05 0.65702997D+05 0.11370059D+01  1  2  3  2  7  2       -2 -.218496386200D-04 0.100000000000D+01
0.171227296185D-06 0.000000000000D+00 0.000000000000D+00 0.112843858749D-06 0.000000000000D+00  7 2 -2 23 -13 13 23 21 2 0.10086232D+00 0.19182424D-01 0.65702997D+05 0.65702997D+05 0.65702997D+05 0.11370059D+01  1  2 15  2  7  2       -2 0.258918361961D-04 0.100000000000D+01
-.120546130979D-05 0.000000000000D+00 -.880461603533D-06 0.112843858749D-06 0.000000000000D+00  7 2 -2 23 -13 13 23 21 2 0.10086232D+00 0.67321829D-01 0.65702997D+05 0.65702997D+05 0.65702997D+05 0.11370059D+01  1  2  5  2  7  2       -2 -.183069578887D-04 0.100000000000D+01
-.149346075753D-06 0.000000000000D+00 -.129382933208D-06 0.112843858749D-06 0.000000000000D+00  7 2 21 23 -13 13 23 2 2 0.10086232D+00 0.67321829D-01 0.65702997D+05 0.65702997D+05 0.65702997D+05 0.11370059D+01  1  2  5  4  7  2       -2 -.234902447956D-04 0.100000000000D+01
  </mgrwgt>
  </event>
  <event>
  8     66 0.25765000E-05 0.21958969E+03 0.75467711E-02 0.10245172E+00
        2 -1    0    0  501    0 0.00000000E+00 0.00000000E+00 0.16771024E+03 0.16771055E+03 0.32000000E+00 0.0000E+00 0.9000E+01
       -2 -1    0    0    0  501 0.00000000E+00 0.00000000E+00 -.49167081E+03 0.49167092E+03 0.32000000E+00 0.0000E+00 0.9000E+01
       25  2    1    2    0    0 -.62176574E+02 0.10666404E+03 -.27956071E+02 0.32561839E+03 0.30000442E+03 0.0000E+00 0.0000E+00
       23  2    1    2    0    0 0.62176574E+02 -.10666404E+03 -.29600450E+03 0.33376307E+03 0.92390366E+02 0.0000E+00 0.0000E+00
       23  1    3    3    0    0 0.20250511E+02 -.41485797E+02 0.54924482E+02 0.11603062E+03 0.91188000E+02 0.0000E+00 0.9000E+01
      -13  1    4    4    0    0 -.57002781E+00 0.11054981E+02 -.73542235E+02 0.74370754E+02 0.10565837E+00 0.0000E+00 0.9000E+01
       13  1    4    4    0    0 0.62746602E+02 -.11771902E+03 -.22246227E+03 0.25939232E+03 0.10565837E+00 0.0000E+00 0.9000E+01
       23  1    3    3    0    0 -.82427086E+02 0.14814983E+03 -.82880554E+02 0.20958777E+03 0.91188000E+02 0.0000E+00 0.9000E+01
#aMCatNLO 1  0  0  2  2 0.85618701D+02 0.00000000D+00  -5  7  0 0.00000000D+00 0.00000000D+00 0.00000000D+00 0.00000000D+00 0.00000000D+00
  <mgrwgt>
 0.2548108379D-03    3    2    0
 0.287155647657835D+03 0.000000000000000D+00 0.000000000000000D+00 0.287155647657835D+03
 0.287155647657835D+03 0.000000000000000D+00 0.000000000000000D+00 -.287155647657835D+03
 0.164199811778420D+03 0.202505107776586D+02 -.414857959030753D+02 0.128511370686025D+03
 0.439026977318588D+02 -.570110083374722D+00 0.110551481169585D+02 -.424841799113494D+02
 0.172327413415225D+03 0.627466848447367D+02 -.117719185717631D+03 -.109095299025005D+03
 0.193881372390165D+03 -.824270855390206D+02 0.148149833503747D+03 0.230681082503295D+02
 0.000000000000000D+00 0.000000000000000D+00 -.000000000000000D+00 0.000000000000000D+00
 0.574328137140836D+03 0.000000000000000D+00 0.000000000000000D+00 0.574328137140836D+03
 0.296782116859496D+03 0.000000000000000D+00 0.000000000000000D+00 -.296782116859496D+03
 0.162444271026581D+03 -.386302174287876D+01 -.392784229924097D+02 0.128511370686025D+03
 0.446227658861020D+02 -.710524039253660D+01 0.116533794047147D+02 -.424841799113494D+02
 0.163316693006748D+03 0.379687522214642D+02 -.115450993066540D+03 -.109095299025005D+03
 0.210274539531549D+03 -.112262699402902D+03 0.150881010520641D+03 0.230681082503295D+02
 0.290451984549351D+03 0.852622093168531D+02 -.780497386640597D+01 0.277546020281340D+03
0.605482276178D-05 0.000000000000D+00 0.000000000000D+00 0.221851678924D-06 0.000000000000D+00  7 2 -2 23 -13 13 23 21 0 0.25801607D-01 0.75641695D-01 0.48219631D+05 0.48219631D+05 0.48219631D+05 0.11486830D+01  1  2  2  2  7  2       -2 0.251346327846D-03 0.100000000000D+01
-.306946073980D-06 0.000000000000D+00 -.232521136767D-07 0.221851678924D-06 0.000000000000D+00  7 2 -2 23 -13 13 23 21 2 0.25801607D-01 0.75641695D-01 0.48219631D+05 0.48219631D+05 0.48219631D+05 0.11486830D+01  1  2  3  2  7  2       -2 -.168125493425D-04 0.100000000000D+01
0.370197501513D-06 0.000000000000D+00 0.000000000000D+00 0.221851678924D-06 0.000000000000D+00  7 2 -2 23 -13 13 23 21 2 0.25801607D-01 0.75641695D-01 0.48219631D+05 0.48219631D+05 0.48219631D+05 0.11486830D+01  1  2 15  2  7  2       -2 0.202770593542D-04 0.100000000000D+01
  </mgrwgt>
  </event>
  <event>
  9     66 0.25765000E-05 0.87351506E+03 0.75467711E-02 0.85655733E-01
        2 -1    0    0  501    0 0.00000000E+00 0.00000000E+00 0.30244676E+04 0.30244676E+04 0.32000000E+00 0.0000E+00 0.9000E+01
       -2 -1    0    0    0  502 0.00000000E+00 0.00000000E+00 -.52458651E+03 0.52458661E+03 0.32000000E+00 0.0000E+00 0.9000E+01
       25  2    1    2    0    0 0.10217774E+04 -.34455151E+02 0.65550104E+03 0.12510917E+04 0.30055403E+03 0.0000E+00 0.0000E+00
       23  2    1    2    0    0 -.66421573E+03 -.40154956E+03 0.85065696E+03 0.11554055E+04 0.94445813E+02 0.0000E+00 0.0000E+00
       23  1    3    3    0    0 0.17370098E+03 -.54671037E+02 0.19306837E+03 0.28062716E+03 0.91188000E+02 0.0000E+00 0.9000E+01
      -11  1    4    4    0    0 -.14805961E+03 -.58196281E+02 0.13559400E+03 0.20903155E+03 0.51099893E-03 0.0000E+00 0.9000E+01
       11  1    4    4    0    0 -.51615612E+03 -.34335328E+03 0.71506296E+03 0.94637395E+03 0.51099893E-03 0.0000E+00 0.9000E+01
       23  1    3    3    0    0 0.84807637E+03 0.20215887E+02 0.46243267E+03 0.97046455E+03 0.91188000E+02 0.0000E+00 0.9000E+01
       21  1    1    2  501  502 -.35756163E+03 0.43600471E+03 0.99372305E+03 0.11425570E+04 0.75000000E+00 0.0000E+00 0.9000E+01
#aMCatNLO 2  0  0  2  1 0.56387093D+03 0.00000000D+00  -5  7  0 0.00000000D+00 0.00000000D+00 0.00000000D+00 0.00000000D+00 0.00000000D+00
  <mgrwgt>
 0.5231911972D-05    1    2    0
 0.895093070581548D+03 0.000000000000000D+00 0.000000000000000D+00 0.895093070581548D+03
 0.895093070581548D+03 0.000000000000000D+00 0.000000000000000D+00 -.895093070581548D+03
 0.166793468516462D+03 0.137460633584253D+03 -.104801606504993D+02 0.223506206425582D+02
 0.182313119260592D+03 -.181359513080247D+03 -.175909263339215D+02 0.611226476332858D+01
 0.690041335291436D+03 -.645803467342867D+03 -.185263457238601D+03 0.157392431173549D+03
 0.751038218094604D+03 0.689702346838861D+03 0.213334544223022D+03 -.185855316579436D+03
 0.000000000000000D+00 -.000000000000000D+00 0.000000000000000D+00 0.000000000000000D+00
 0.145082874431550D+04 0.000000000000000D+00 0.000000000000000D+00 0.145082874431550D+04
 0.109357809112119D+04 0.000000000000000D+00 0.000000000000000D+00 -.109357809112119D+04
 0.204879853461720D+03 0.173700979959224D+03 -.546710373835517D+02 0.223506206425582D+02
 0.159203686024191D+03 -.148059605380333D+03 -.581962809616921D+02 0.611226476332858D+01
 0.639594397320476D+03 -.516156122072219D+03 -.343353277748139D+03 0.157392431173549D+03
 0.873212268407664D+03 0.848076372494682D+03 0.202158865518226D+02 -.185855316579436D+03
 0.667516630222639D+03 -.357561625001354D+03 0.436004709541560D+03 0.357250653194306D+03
0.182884588764D-04 0.000000000000D+00 0.000000000000D+00 0.333701143123D-06 0.664342514595D-11  7 2 -2 23 -11 11 23 21 2 0.46530263D+00 0.80705612D-01 0.14396938D+07 0.14396938D+07 0.14396938D+07 0.10374882D+01  1  2  1  2  7  2       -2 0.523191197174D-05 0.100000000000D+01
  </mgrwgt>
  </event>
  <event>
  7     66 0.25765000E-05 0.15001449E+03 0.75467711E-02 0.99243160E-01
        2 -1    0    0  501    0 0.00000000E+00 0.00000000E+00 0.47215046E+03 0.47215057E+03 0.32000000E+00 0.0000E+00 0.9000E+01
       -2 -1    0    0    0  501 0.00000000E+00 0.00000000E+00 -.25370442E+03 0.25370463E+03 0.32000000E+00 0.0000E+00 0.9000E+01
       25  2    1    2    0    0 -.15815690E+03 -.85216474E+00 0.16192333E+03 0.37591325E+03 0.30012877E+03 0.0000E+00 0.0000E+00
       23  1    3    3    0    0 -.30851063E+01 0.80560077E+02 0.12604535E+03 0.17522022E+03 0.91188000E+02 0.0000E+00 0.9000E+01
      -13  1    1    2    0    0 0.32813431E+02 -.14485072E+03 0.53052818E+02 0.15771196E+03 0.10565837E+00 0.0000E+00 0.9000E+01
       13  1    1    2    0    0 0.12534346E+03 0.14570288E+03 0.34698905E+01 0.19222998E+03 0.10565837E+00 0.0000E+00 0.9000E+01
       23  1    3    3    0    0 -.15507179E+03 -.81412242E+02 0.35877978E+02 0.20069303E+03 0.91188000E+02 0.0000E+00 0.9000E+01
#aMCatNLO 1  0  0  1  2 0.17845979D+02 0.00000000D+00  -5  7  0 0.00000000D+00 0.00000000D+00 0.00000000D+00 0.00000000D+00 0.00000000D+00
  <mgrwgt>
 0.1059034123D-02    9    2    0
 0.346102259056473D+03 0.000000000000000D+00 0.000000000000000D+00 0.346102259056473D+03
 0.346102259056473D+03 0.000000000000000D+00 0.000000000000000D+00 -.346102259056473D+03
 0.143967497293133D+03 -.311948041623523D+01 0.805598922386069D+02 0.768879804474334D+02
 0.148602223736533D+03 0.328588774896252D+02 -.144806053653900D+03 0.584139493171047D+01
 0.200472545216395D+03 0.125379941250252D+03 0.145658659805793D+03 -.570321535732516D+02
 0.199162251866886D+03 -.155119338323642D+03 -.814124983905003D+02 -.256972218058923D+02
 0.000000000000000D+00 -.000000000000000D+00 -.000000000000000D+00 0.000000000000000D+00
 0.372451633865819D+03 0.000000000000000D+00 0.000000000000000D+00 0.372451633865819D+03
 0.349252203266706D+03 0.000000000000000D+00 0.000000000000000D+00 -.349252203266706D+03
 0.145972700121182D+03 -.199949718054292D+01 0.841250159608218D+02 0.768879804474334D+02
 0.145343817988110D+03 0.339943345316830D+02 -.141191673806782D+03 0.584139493171047D+01
 0.205090609263055D+03 0.126946553738214D+03 0.150645491006797D+03 -.570321535732516D+02
 0.196027399385014D+03 -.153592796684130D+03 -.765532204669266D+02 -.256972218058923D+02
 0.292693103751642D+02 -.534859440522404D+01 -.170256126939106D+02 0.231994305991128D+02
0.140225099177D-04 0.000000000000D+00 0.000000000000D+00 0.634242486298D-10 0.000000000000D+00  7 2 -2 23 -13 13 23 21 0 0.72638556D-01 0.39031474D-01 0.10886375D+06 0.10886375D+06 0.10886375D+06 0.11187079D+01  1  2  2  1  7  1        2 0.694355047573D-03 0.100000000000D+01
-.776863430430D-06 0.000000000000D+00 -.538501302958D-07 0.634242486298D-10 0.000000000000D+00  7 2 -2 23 -13 13 23 21 2 0.72638556D-01 0.39031474D-01 0.10886375D+06 0.10886375D+06 0.10886375D+06 0.11187079D+01  1  2  3  1  7  1        2 -.481430823433D-04 0.100000000000D+01
0.917268058311D-06 0.000000000000D+00 0.000000000000D+00 0.634242486298D-10 0.000000000000D+00  7 2 -2 23 -13 13 23 21 2 0.72638556D-01 0.39031474D-01 0.10886375D+06 0.10886375D+06 0.10886375D+06 0.11187079D+01  1  2 15  1  7  1        2 0.568441117607D-04 0.100000000000D+01
0.109938977742D-03 0.000000000000D+00 0.000000000000D+00 0.634242486298D-10 0.000000000000D+00  7 2 -2 23 -13 13 23 21 2 0.78483929D-01 0.39031474D-01 0.11508754D+06 0.11508754D+06 0.11508754D+06 0.11167481D+01  1  2 12  1  7  1        2 0.622440942594D-02 0.100000000000D+01
-.112056383936D-03 0.000000000000D+00 0.000000000000D+00 0.634242486298D-10 0.000000000000D+00  7 2 -2 23 -13 13 23 21 2 0.72638556D-01 0.39031474D-01 0.10886375D+06 0.10886375D+06 0.10886375D+06 0.11187079D+01  1  2  4  1  7  1        2 -.694425752016D-02 0.100000000000D+01
-.216749308113D-03 0.000000000000D+00 -.245257974701D-04 0.634242486298D-10 0.000000000000D+00  7 2 -2 23 -13 13 23 21 2 0.78608082D-01 0.39031474D-01 0.10886375D+06 0.10886375D+06 0.10886375D+06 0.11187079D+01  1  2  5  1  7  1        2 -.122999527005D-01 0.100000000000D+01
0.218082104572D-03 0.000000000000D+00 0.244495043700D-04 0.634242486298D-10 0.000000000000D+00  7 2 -2 23 -13 13 23 21 2 0.72638556D-01 0.39031474D-01 0.10886375D+06 0.10886375D+06 0.10886375D+06 0.11187079D+01  1  2  6  1  7  1        2 0.135147881941D-01 0.100000000000D+01
0.152507415491D-05 0.000000000000D+00 0.000000000000D+00 0.634242486298D-10 0.000000000000D+00  7 21 -2 23 -13 13 23 -2 2 0.78483929D-01 0.39031474D-01 0.11508754D+06 0.11508754D+06 0.11508754D+06 0.11167481D+01  1  2 12  3  7  1        2 0.164033649553D-03 0.100000000000D+01
-.281034481056D-05 0.000000000000D+00 -.323867372220D-06 0.634242486298D-10 0.000000000000D+00  7 21 -2 23 -13 13 23 -2 2 0.78608082D-01 0.39031474D-01 0.10886375D+06 0.10886375D+06 0.10886375D+06 0.11187079D+01  1  2  5  3  7  1        2 -.303043002902D-03 0.100000000000D+01
  </mgrwgt>
  </event>
  <event>
  8     66 0.25765000E-05 0.11138113E+03 0.75467711E-02 0.10316594E+00
        2 -1    0    0  501    0 0.00000000E+00 0.00000000E+00 0.36789971E+04 0.36789971E+04 0.32000000E+00 0.0000E+00 0.9000E+01
       -2 -1    0    0    0  501 0.00000000E+00 0.00000000E+00 -.16643124E+02 0.16646200E+02 0.32000000E+00 0.0000E+00 0.9000E+01
       25  2    1    2    0    0 0.63103000E+02 -.24678848E+02 0.15514730E+04 0.15816519E+04 0.29993865E+03 0.0000E+00 0.0000E+00
       23  2    1    2    0    0 -.63103000E+02 0.24678848E+02 0.21108810E+04 0.21139914E+04 0.92467400E+02 0.0000E+00 0.0000E+00
       23  1    3    3    0    0 0.58396698E+02 0.51823355E+02 0.28049956E+03 0.30510832E+03 0.91188000E+02 0.0000E+00 0.9000E+01
      -11  1    4    4    0    0 -.32934363E+01 -.31376841E+02 0.46369617E+03 0.46476822E+03 0.51099893E-03 0.0000E+00 0.9000E+01
       11  1    4    4    0    0 -.59809564E+02 0.56055689E+02 0.16471848E+04 0.16492232E+04 0.51099893E-03 0.0000E+00 0.9000E+01
       23  1    3    3    0    0 0.47063023E+01 -.76502203E+02 0.12709734E+04 0.12765436E+04 0.91188000E+02 0.0000E+00 0.9000E+01
#aMCatNLO 1  0  0  1  2 0.12007406D+03 0.00000000D+00  -5  7  0 0.00000000D+00 0.00000000D+00 0.00000000D+00 0.00000000D+00 0.00000000D+00
  <mgrwgt>
 0.3130650726D-03    9    2    0
 0.247458512170209D+03 0.000000000000000D+00 0.000000000000000D+00 0.247458512170209D+03
 0.247458512170209D+03 0.000000000000000D+00 0.000000000000000D+00 -.247458512170209D+03
 0.202625596001712D+03 0.583966979048522D+02 0.518233548017922D+02 -.163236167505691D+03
 0.391944969291292D+02 -.329343633562464D+01 -.313768409212658D+02 0.232563049608550D+02
 0.126014903427152D+03 -.598095639135743D+02 0.560556886974718D+02 0.957096218510688D+02
 0.127082027982424D+03 0.470630234434668D+01 -.765022025779982D+02 0.442702406937674D+02
 0.000000000000000D+00 0.000000000000000D+00 -.000000000000000D+00 0.000000000000000D+00
 0.411569343204791D+03 0.000000000000000D+00 0.000000000000000D+00 0.411569343204791D+03
 0.277605501437418D+03 0.000000000000000D+00 0.000000000000000D+00 -.277605501437418D+03
 0.220029483672730D+03 0.547757870706730D+02 0.102231546550614D+03 -.163236167505691D+03
 0.327958687402527D+02 -.391018201678284D+01 -.227908701587110D+02 0.232563049608550D+02
 0.144275231139690D+03 -.621251553347839D+02 0.882919910307006D+02 0.957096218510688D+02
 0.112174038138533D+03 0.265658160603739D+01 -.479671955756364D+02 0.442702406937674D+02
 0.179900222951004D+03 0.860296867485638D+01 -.119765471846967D+03 0.133963841767373D+03
0.680069413007D-05 0.000000000000D+00 0.000000000000D+00 0.150654202723D-06 0.000000000000D+00  7 2 -2 23 -11 11 23 21 0 0.56599979D+00 0.25607183D-02 0.31097422D+05 0.31097422D+05 0.31097422D+05 0.11658910D+01  1  2  2  1  7  1        2 0.275725860080D-03 0.100000000000D+01
-.325086517098D-06 0.000000000000D+00 -.261164561234D-07 0.150654202723D-06 0.000000000000D+00  7 2 -2 23 -11 11 23 21 2 0.56599979D+00 0.25607183D-02 0.31097422D+05 0.31097422D+05 0.31097422D+05 0.11658910D+01  1  2  3  1  7  1        2 -.179159199428D-04 0.100000000000D+01
0.422888200646D-06 0.000000000000D+00 0.000000000000D+00 0.150654202723D-06 0.000000000000D+00  7 2 -2 23 -11 11 23 21 2 0.56599979D+00 0.25607183D-02 0.31097422D+05 0.31097422D+05 0.31097422D+05 0.11658910D+01  1  2 15  1  7  1        2 0.233058916598D-04 0.100000000000D+01
0.812757004969D-06 0.000000000000D+00 0.000000000000D+00 0.150654202723D-06 0.000000000000D+00  7 2 -2 23 -11 11 23 21 2 0.95660228D+00 0.25607183D-02 0.62941077D+05 0.62941077D+05 0.62941077D+05 0.11386050D+01  1  2 12  1  7  1        2 0.244026161712D-08 0.100000000000D+01
-.326203567125D-05 0.000000000000D+00 0.000000000000D+00 0.150654202723D-06 0.000000000000D+00  7 2 -2 23 -11 11 23 21 2 0.56599979D+00 0.25607183D-02 0.31097422D+05 0.31097422D+05 0.31097422D+05 0.11658910D+01  1  2  4  1  7  1        2 -.179774819511D-03 0.100000000000D+01
-.314344541122D-05 0.000000000000D+00 -.119315298469D-05 0.150654202723D-06 0.000000000000D+00  7 2 -2 23 -11 11 23 21 2 0.94399381D+00 0.25607183D-02 0.31097422D+05 0.31097422D+05 0.31097422D+05 0.11658910D+01  1  2  5  1  7  1        2 -.297520503517D-07 0.100000000000D+01
0.384225409499D-05 0.000000000000D+00 0.118989332398D-05 0.150654202723D-06 0.000000000000D+00  7 2 -2 23 -11 11 23 21 2 0.56599979D+00 0.25607183D-02 0.31097422D+05 0.31097422D+05 0.31097422D+05 0.11658910D+01  1  2  6  1  7  1        2 0.211751374312D-03 0.100000000000D+01
0.476393560216D-07 0.000000000000D+00 0.000000000000D+00 0.150654202723D-06 0.000000000000D+00  7 21 -2 23 -11 11 23 -2 2 0.95660228D+00 0.25607183D-02 0.62941077D+05 0.62941077D+05 0.62941077D+05 0.11386050D+01  1  2 12  3  7  1        2 0.420315641317D-12 0.100000000000D+01
-.125284499884D-06 0.000000000000D+00 -.685059817443D-07 0.150654202723D-06 0.000000000000D+00  7 21 -2 23 -11 11 23 -2 2 0.94399381D+00 0.25607183D-02 0.31097422D+05 0.31097422D+05 0.31097422D+05 0.11658910D+01  1  2  5  3  7  1        2 -.262947348432D-11 0.100000000000D+01
  </mgrwgt>
  </event>
  <event>
  8     66 0.25765000E-05 0.13502543E+03 0.75467711E-02 0.10454008E+00
        2 -1    0    0  501    0 0.00000000E+00 0.00000000E+00 0.26590370E+03 0.26590389E+03 0.32000000E+00 0.0000E+00 0.9000E+01
       -2 -1    0    0    0  501 0.00000000E+00 0.00000000E+00 -.16052529E+03 0.16052561E+03 0.32000000E+00 0.0000E+00 0.9000E+01
       25  2    1    2    0    0 0.24032061E+02 -.31327566E+02 0.12122602E+03 0.32634232E+03 0.30040740E+03 0.0000E+00 0.0000E+00
       23  2    1    2    0    0 -.24032061E+02 0.31327566E+02 -.15847610E+02 0.10008718E+03 0.90594374E+02 0.0000E+00 0.0000E+00
       23  1    3    3    0    0 -.35486602E+02 0.31808680E+02 -.49542740E+02 0.11419643E+03 0.91188000E+02 0.0000E+00 0.9000E+01
      -13  1    4    4    0    0 -.21704457E+02 0.19322040E+02 0.36314864E+02 0.46510270E+02 0.10565837E+00 0.0000E+00 0.9000E+01
       13  1    4    4    0    0 -.23276037E+01 0.12005526E+02 -.52162475E+02 0.53576910E+02 0.10565837E+00 0.0000E+00 0.9000E+01
       23  1    3    3    0    0 0.59518663E+02 -.63136246E+02 0.17076876E+03 0.21214589E+03 0.91188000E+02 0.0000E+00 0.9000E+01
#aMCatNLO 1  0  0  2  1 0.15021914D+03 0.00000000D+00  -5  7  0 0.00000000D+00 0.00000000D+00 0.00000000D+00 0.00000000D+00 0.00000000D+00
  <mgrwgt>
 0.5092270424D-03    3    2    0
 0.206601978287050D+03 0.000000000000000D+00 0.000000000000000D+00 0.206601978287050D+03
 0.206601978287050D+03 0.000000000000000D+00 0.000000000000000D+00 -.206601978287050D+03
 0.130486218870792D+03 -.354865416076247D+02 0.318086021736006D+02 -.802516053651774D+02
 0.387374862625369D+02 -.217044929466008D+02 0.193220903579216D+02 0.256157110397409D+02
 0.685947291654547D+02 -.232770897760490D+01 0.120056591526005D+02 -.674957983026294D+02
 0.175385522275316D+03 0.595187435318304D+02 -.631363516841227D+02 0.122131692628066D+03
 0.000000000000000D+00 -.000000000000000D+00 0.000000000000000D+00 0.000000000000000D+00
 0.400282690840152D+03 0.000000000000000D+00 0.000000000000000D+00 0.400282690840152D+03
 0.251094341607837D+03 0.000000000000000D+00 0.000000000000000D+00 -.251094341607837D+03
 0.121864313138049D+03 -.896812979685205D+01 -.386160029873658D+01 -.802516053651774D+02
 0.308729482651670D+02 -.143894373592886D+02 0.948252998915813D+01 0.256157110397409D+02
 0.689794770957516D+02 0.121293616183351D+02 -.744070283143669D+01 -.674957983026294D+02
 0.217945972995477D+03 0.100852227106069D+03 -.118734467382031D+03 0.122131692628066D+03
 0.211714320953544D+03 -.896240215682637D+02 0.120554240523046D+03 0.149188349232315D+03
0.242811753539D-05 0.000000000000D+00 0.000000000000D+00 0.763847431594D-07 0.000000000000D+00  7 2 -2 23 -13 13 23 21 0 0.40908301D-01 0.24696238D-01 0.18231867D+05 0.18231867D+05 0.18231867D+05 0.11879519D+01  1  2  2  2  7  2       -2 0.495148403934D-03 0.100000000000D+01
-.105224379703D-06 0.000000000000D+00 -.932461067393D-08 0.763847431594D-07 0.000000000000D+00  7 2 -2 23 -13 13 23 21 2 0.40908301D-01 0.24696238D-01 0.18231867D+05 0.18231867D+05 0.18231867D+05 0.11879519D+01  1  2  3  2  7  2       -2 -.302816676856D-04 0.100000000000D+01
0.154145595612D-06 0.000000000000D+00 0.000000000000D+00 0.763847431594D-07 0.000000000000D+00  7 2 -2 23 -13 13 23 21 2 0.40908301D-01 0.24696238D-01 0.18231867D+05 0.18231867D+05 0.18231867D+05 0.11879519D+01  1  2 15  2  7  2       -2 0.443603061826D-04 0.100000000000D+01
  </mgrwgt>
  </event>
  <event>
  8     66 0.25765000E-05 0.38265331E+03 0.75467711E-02 0.91837464E-01
        2 -1    0    0  501    0 0.00000000E+00 0.00000000E+00 0.86228468E+03 0.86228474E+03 0.32000000E+00 0.0000E+00 0.9000E+01
       -2 -1    0    0    0  501 0.00000000E+00 0.00000000E+00 -.48169381E+03 0.48169392E+03 0.32000000E+00 0.0000E+00 0.9000E+01
       25  2    1    2    0    0 -.52270762E+03 -.19949648E+03 -.42989648E+02 0.63621156E+03 0.29982483E+03 0.0000E+00 0.0000E+00
       23  2    1    2    0    0 0.52270762E+03 0.19949648E+03 0.42358052E+03 0.70776710E+03 0.92150470E+02 0.0000E+00 0.0000E+00
       23  1    3    3    0    0 -.48606145E+03 -.19514294E+03 -.77155479E+01 0.53170601E+03 0.91188000E+02 0.0000E+00 0.9000E+01
      -13  1    4    4    0    0 0.45241078E+03 0.16918913E+03 0.32172365E+03 0.58035040E+03 0.10565837E+00 0.0000E+00 0.9000E+01
       13  1    4    4    0    0 0.70296847E+02 0.30307351E+02 0.10185687E+03 0.12741670E+03 0.10565837E+00 0.0000E+00 0.9000E+01
       23  1    3    3    0    0 -.36646172E+02 -.43535423E+01 -.35274100E+02 0.10450554E+03 0.91188000E+02 0.0000E+00 0.9000E+01
#aMCatNLO 1  0  0  2  1 0.96482319D+02 0.00000000D+00  -5  7  0 0.00000000D+00 0.00000000D+00 0.00000000D+00 0.00000000D+00 0.00000000D+00
  <mgrwgt>
 0.2926805324D-03    9    2    0
 0.644482200000724D+03 0.000000000000000D+00 0.000000000000000D+00 0.644482200000724D+03
 0.644482200000724D+03 0.000000000000000D+00 0.000000000000000D+00 -.644482200000724D+03
 0.556677903792839D+03 -.486061451317126D+03 -.195142940866647D+03 -.165041011268701D+03
 0.510125929867201D+03 0.452411278029049D+03 0.169189314790608D+03 0.164095934122950D+03
 0.102779285351228D+03 0.702963448269422D+02 0.303071684229411D+02 0.685819286945490D+02
 0.119381280990180D+03 -.366461715388651D+02 -.435354234690256D+01 -.676368515487979D+02
 0.000000000000000D+00 0.000000000000000D+00 0.000000000000000D+00 -.000000000000000D+00
 0.659443074390848D+03 0.000000000000000D+00 0.000000000000000D+00 0.659443074390848D+03
 0.823152899892153D+03 0.000000000000000D+00 0.000000000000000D+00 -.823152899892153D+03
 0.587046274613145D+03 -.504411240976311D+03 -.233749527848326D+03 -.165041011268701D+03
 0.485577845433958D+03 0.436436312049841D+03 0.135579179466963D+03 0.164095934122950D+03
 0.987590970260808D+02 0.670628843522059D+02 0.235042090763612D+02 0.685819286945490D+02
 0.121187114611120D+03 -.405058254145782D+02 -.124739658416377D+02 -.676368515487979D+02
 0.190025642598698D+03 0.414178699888415D+02 0.871401051466398D+02 -.163709825501306D+03
0.339730905110D-04 0.000000000000D+00 0.000000000000D+00 0.185665917194D-05 0.000000000000D+00  7 2 -2 23 -13 13 23 21 0 0.13265920D+00 0.74106753D-01 0.35377884D+06 0.35377884D+06 0.35377884D+06 0.10792932D+01  1  2  2  2  7  2       -2 0.219053607713D-03 0.100000000000D+01
-.187262133901D-05 0.000000000000D+00 -.130465612882D-06 0.185665917194D-05 0.000000000000D+00  7 2 -2 23 -13 13 23 21 2 0.13265920D+00 0.74106753D-01 0.35377884D+06 0.35377884D+06 0.35377884D+06 0.10792932D+01  1  2  3  2  7  2       -2 -.140651454024D-04 0.100000000000D+01
0.209752170288D-05 0.000000000000D+00 0.000000000000D+00 0.185665917194D-05 0.000000000000D+00  7 2 -2 23 -13 13 23 21 2 0.13265920D+00 0.74106753D-01 0.35377884D+06 0.35377884D+06 0.35377884D+06 0.10792932D+01  1  2 15  2  7  2       -2 0.157543584071D-04 0.100000000000D+01
0.110966786158D-03 0.000000000000D+00 0.000000000000D+00 0.185665917194D-05 0.000000000000D+00  7 2 -2 23 -13 13 23 21 2 0.13265920D+00 0.95343939D-01 0.41504552D+06 0.41504552D+06 0.41504552D+06 0.10742735D+01  1  2 12  2  7  2       -2 0.460705618416D-03 0.100000000000D+01
-.111216071130D-03 0.000000000000D+00 0.000000000000D+00 0.185665917194D-05 0.000000000000D+00  7 2 -2 23 -13 13 23 21 2 0.13265920D+00 0.74106753D-01 0.35377884D+06 0.35377884D+06 0.35377884D+06 0.10792932D+01  1  2  4  2  7  2       -2 -.835337170918D-03 0.100000000000D+01
-.141657601012D-03 0.000000000000D+00 -.183751223706D-04 0.185665917194D-05 0.000000000000D+00  7 2 -2 23 -13 13 23 21 2 0.13265920D+00 0.95837502D-01 0.35377884D+06 0.35377884D+06 0.35377884D+06 0.10792932D+01  1  2  5  2  7  2       -2 -.590167421392D-03 0.100000000000D+01
0.142245008377D-03 0.000000000000D+00 0.177838969723D-04 0.185665917194D-05 0.000000000000D+00  7 2 -2 23 -13 13 23 21 2 0.13265920D+00 0.74106753D-01 0.35377884D+06 0.35377884D+06 0.35377884D+06 0.10792932D+01  1  2  6  2  7  2       -2 0.106839363832D-02 0.100000000000D+01
0.377742655948D-05 0.000000000000D+00 0.000000000000D+00 0.185665917194D-05 0.000000000000D+00  7 2 21 23 -13 13 23 2 2 0.13265920D+00 0.95343939D-01 0.41504552D+06 0.41504552D+06 0.41504552D+06 0.10742735D+01  1  2 12  4  7  2       -2 0.144206615171D-03 0.100000000000D+01
-.457223030963D-05 0.000000000000D+00 -.634913311634D-06 0.185665917194D-05 0.000000000000D+00  7 2 21 23 -13 13 23 2 2 0.13265920D+00 0.95837502D-01 0.35377884D+06 0.35377884D+06 0.35377884D+06 0.10792932D+01  1  2  5  4  7  2       -2 -.175863567898D-03 0.100000000000D+01
  </mgrwgt>
  </event>
  <event>
  8     66 0.25765000E-05 0.81808385E+02 0.75467711E-02 0.10678338E+00
        2 -1    0    0  501    0 0.00000000E+00 0.00000000E+00 0.84249733E+03 0.84249739E+03 0.32000000E+00 0.0000E+00 0.9000E+01
       -2 -1    0    0    0  501 0.00000000E+00 0.00000000E+00 -.13378761E+03 0.13378799E+03 0.32000000E+00 0.0000E+00 0.9000E+01
       25  2    1    2    0    0 0.25079546E+02 0.26275926E+01 0.45565927E+02 0.30613327E+03 0.30167108E+03 0.0000E+00 0.0000E+00
       23  2    1    2    0    0 -.25079546E+02 -.26275926E+01 0.66314379E+03 0.67015211E+03 0.93318179E+02 0.0000E+00 0.0000E+00
       23  1    3    3    0    0 -.72793940E+02 0.20807512E+01 0.10754973E+03 0.15869935E+03 0.91188000E+02 0.0000E+00 0.9000E+01
      -11  1    4    4    0    0 0.24923701E+02 -.28890736E+02 0.20298566E+03 0.20654066E+03 0.51099893E-03 0.0000E+00 0.9000E+01
       11  1    4    4    0    0 -.50003247E+02 0.26263143E+02 0.46015812E+03 0.46361145E+03 0.51099893E-03 0.0000E+00 0.9000E+01
       23  1    3    3    0    0 0.97873485E+02 0.54684140E+00 -.61983804E+02 0.14743392E+03 0.91188000E+02 0.0000E+00 0.9000E+01
#aMCatNLO 1  0  0  2  1 0.39794947D+02 0.00000000D+00  -5  7  0 0.00000000D+00 0.00000000D+00 0.00000000D+00 0.00000000D+00 0.00000000D+00
  <mgrwgt>
 0.2225511138D-03    6    2    0
 0.335731919724066D+03 0.000000000000000D+00 0.000000000000000D+00 0.335731919724066D+03
 0.335731919724066D+03 0.000000000000000D+00 0.000000000000000D+00 -.335731919724066D+03
 0.117227928142092D+03 -.727939395615373D+02 0.208075121497355D+01 -.111287299356240D+02
 0.860578250350738D+02 0.249237012432131D+02 -.288907360230150D+02 0.771367858946359D+02
 0.188392198135171D+03 -.500032470190532D+02 0.262631434060386D+02 0.179726299979126D+03
 0.279785888135796D+03 0.978734853373775D+02 0.546841402002807D+00 -.245734355938138D+03
 0.000000000000000D+00 -.000000000000000D+00 -.000000000000000D+00 0.000000000000000D+00
 0.356631375468603D+03 0.000000000000000D+00 0.000000000000000D+00 0.356631375468603D+03
 0.355814012875764D+03 0.000000000000000D+00 0.000000000000000D+00 -.355814012875764D+03
 0.113124047972862D+03 -.659761828809482D+02 0.225688906374877D+01 -.111287299356240D+02
 0.876412427224247D+02 0.300646946029784D+02 -.287579176263810D+02 0.771367858946359D+02
 0.185800465067404D+03 -.389282192619496D+02 0.265492685430380D+02 0.179726299979126D+03
 0.286076292777529D+03 0.114621380142887D+03 0.979525978581335D+00 -.245734355938138D+03
 0.398033398041466D+02 -.397816726029680D+02 -.102776595898716D+01 0.817362592838374D+00
0.195805659293D-05 0.000000000000D+00 0.000000000000D+00 0.186489906329D-07 0.000000000000D+00  7 2 -2 23 -11 11 23 21 0 0.12961501D+00 0.20582744D-01 0.29774607D+05 0.29774607D+05 0.29774607D+05 0.11676399D+01  1  2  2  2  7  2       -2 0.150928822182D-03 0.100000000000D+01
-.501845814815D-07 0.000000000000D+00 -.751945288500D-08 0.186489906329D-07 0.000000000000D+00  7 2 -2 23 -11 11 23 21 2 0.12961501D+00 0.20582744D-01 0.29774607D+05 0.29774607D+05 0.29774607D+05 0.11676399D+01  1  2  3  2  7  2       -2 -.527393918956D-05 0.100000000000D+01
0.124816080804D-06 0.000000000000D+00 0.000000000000D+00 0.186489906329D-07 0.000000000000D+00  7 2 -2 23 -11 11 23 21 2 0.12961501D+00 0.20582744D-01 0.29774607D+05 0.29774607D+05 0.29774607D+05 0.11676399D+01  1  2 15  2  7  2       -2 0.131170252019D-04 0.100000000000D+01
0.272458549025D-05 0.000000000000D+00 0.000000000000D+00 0.186489906329D-07 0.000000000000D+00  7 2 -2 23 -11 11 23 21 2 0.12961501D+00 0.22416667D-01 0.37552026D+05 0.37552026D+05 0.37552026D+05 0.11583953D+01  1  2 12  2  7  2       -2 0.244554176797D-03 0.100000000000D+01
-.214394402445D-05 0.000000000000D+00 0.000000000000D+00 0.186489906329D-07 0.000000000000D+00  7 2 -2 23 -11 11 23 21 2 0.12961501D+00 0.20582744D-01 0.29774607D+05 0.29774607D+05 0.29774607D+05 0.11676399D+01  1  2  4  2  7  2       -2 -.225308851384D-03 0.100000000000D+01
0.385388038401D-07 0.000000000000D+00 0.000000000000D+00 0.186489906329D-07 0.000000000000D+00  7 2 21 23 -11 11 23 2 2 0.12961501D+00 0.22416667D-01 0.37552026D+05 0.37552026D+05 0.37552026D+05 0.11583953D+01  1  2 12  4  7  2       -2 0.445338801892D-04 0.100000000000D+01
  </mgrwgt>
  </event>
  <event>
  8     66 0.25765000E-05 0.17252156E+03 0.75467711E-02 0.98473530E-01
        2 -1    0    0  501    0 0.00000000E+00 0.00000000E+00 0.15752672E+04 0.15752673E+04 0.32000000E+00 0.0000E+00 0.9000E+01
       -2 -1    0    0    0  501 0.00000000E+00 0.00000000E+00 -.28640180E+02 0.28641968E+02 0.32000000E+00 0.0000E+00 0.9000E+01
       25  2    1    2    0    0 -.60192532E+02 -.31811300E+02 0.11314378E+04 0.11725876E+04 0.30029172E+03 0.0000E+00 0.0000E+00
       23  2    1    2    0    0 0.60192532E+02 0.31811300E+02 0.41518926E+03 0.43132162E+03 0.94979594E+02 0.0000E+00 0.0000E+00
       23  1    3    3    0    0 0.31346147E+02 -.83927384E+02 0.25610568E+03 0.28623724E+03 0.91188000E+02 0.0000E+00 0.9000E+01
      -11  1    4    4    0    0 0.27760958E+02 0.35699118E+02 0.62618377E+02 0.77240915E+02 0.51099893E-03 0.0000E+00 0.9000E+01
       11  1    4    4    0    0 0.32431575E+02 -.38878179E+01 0.35257088E+03 0.35408071E+03 0.51099893E-03 0.0000E+00 0.9000E+01
       23  1    3    3    0    0 -.91538679E+02 0.52116084E+02 0.87533211E+03 0.88635036E+03 0.91188000E+02 0.0000E+00 0.9000E+01
#aMCatNLO 1  0  0  2  1 0.29432678D+03 0.00000000D+00  -5  7  0 0.00000000D+00 0.00000000D+00 0.00000000D+00 0.00000000D+00 0.00000000D+00
  <mgrwgt>
 0.4297097877D-03    3    2    0
 0.212408561597555D+03 0.000000000000000D+00 0.000000000000000D+00 0.212408561597555D+03
 0.212408561597555D+03 0.000000000000000D+00 0.000000000000000D+00 -.212408561597555D+03
 0.148295760830950D+03 0.313461465737319D+02 -.839273842197988D+02 -.751664460343216D+02
 0.636512492140429D+02 0.277609580340929D+02 0.356991180372716D+02 -.447926747013223D+02
 0.532409224914443D+02 0.324315751817428D+02 -.388781762599042D+01 0.420437109812869D+02
 0.159629190658672D+03 -.915386797895675D+02 0.521160838085177D+02 0.779154097543570D+02
 0.000000000000000D+00 0.000000000000000D+00 -.000000000000000D+00 0.000000000000000D+00
 0.435565651480721D+03 0.000000000000000D+00 0.000000000000000D+00 0.435565651480721D+03
 0.380654645835759D+03 0.000000000000000D+00 0.000000000000000D+00 -.380654645835759D+03
 0.147386401639064D+03 -.591672603081782D+02 -.652437027022936D+02 -.751664460343216D+02
 0.635989903255416D+02 -.111925338203067D+02 0.437398565408158D+02 -.447926747013223D+02
 0.422204959597645D+02 0.320918943612038D+01 0.214423626813843D+01 0.420437109812869D+02
 0.263609208529367D+03 -.221099249536958D+03 0.788598393003967D+02 0.779154097543570D+02
 0.299405200862742D+03 0.288249854229322D+03 -.595002294070573D+02 0.549110056449620D+02
0.135190268383D-05 0.000000000000D+00 0.000000000000D+00 0.158219780703D-07 0.000000000000D+00  7 2 -2 23 -11 11 23 21 0 0.24234894D+00 0.44063216D-02 0.29763689D+05 0.29763689D+05 0.29763689D+05 0.11676547D+01  1  2  2  2  7  2       -2 0.423437458766D-03 0.100000000000D+01
-.711553439631D-07 0.000000000000D+00 -.519166227008D-08 0.158219780703D-07 0.000000000000D+00  7 2 -2 23 -11 11 23 21 2 0.24234894D+00 0.44063216D-02 0.29763689D+05 0.29763689D+05 0.29763689D+05 0.11676547D+01  1  2  3  2  7  2       -2 -.303864690785D-04 0.100000000000D+01
0.858431222618D-07 0.000000000000D+00 0.000000000000D+00 0.158219780703D-07 0.000000000000D+00  7 2 -2 23 -11 11 23 21 2 0.24234894D+00 0.44063216D-02 0.29763689D+05 0.29763689D+05 0.29763689D+05 0.11676547D+01  1  2 15  2  7  2       -2 0.366587979895D-04 0.100000000000D+01
  </mgrwgt>
  </event>
  <event>
  9     66 0.25765000E-05 0.18161003E+03 0.75467711E-02 0.10292197E+00
        2 -1    0    0  501    0 0.00000000E+00 0.00000000E+00 0.38599355E+04 0.38599355E+04 0.32000000E+00 0.0000E+00 0.9000E+01
       -2 -1    0    0    0  502 0.00000000E+00 0.00000000E+00 -.24256516E+02 0.24258627E+02 0.32000000E+00 0.0000E+00 0.9000E+01
       25  2    1    2    0    0 -.77548155E+02 -.11409439E+03 0.16016913E+04 0.16353218E+04 0.29971844E+03 0.0000E+00 0.0000E+00
       23  2    1    2    0    0 0.70521237E+02 -.16025405E+02 0.13919873E+04 0.13968478E+04 0.91242370E+02 0.0000E+00 0.0000E+00
       23  1    3    3    0    0 -.13883972E+03 -.28935293E+02 0.57337000E+03 0.59764716E+03 0.91188000E+02 0.0000E+00 0.9000E+01
      -13  1    4    4    0    0 0.69954185E+01 -.47843963E+01 0.90224487E+01 0.12379098E+02 0.10565837E+00 0.0000E+00 0.9000E+01
       13  1    4    4    0    0 0.63525818E+02 -.11241009E+02 0.13829649E+04 0.13844687E+04 0.10565837E+00 0.0000E+00 0.9000E+01
       23  1    3    3    0    0 0.61291563E+02 -.85159095E+02 0.10283213E+04 0.10376746E+04 0.91188000E+02 0.0000E+00 0.9000E+01
       21  1    1    2  501  502 0.70269183E+01 0.13011979E+03 0.84200035E+03 0.85202447E+03 0.75000000E+00 0.0000E+00 0.9000E+01
#aMCatNLO 2  0  0  2  1 0.13030939D+03 0.00000000D+00  -5  7  0 0.00000000D+00 0.00000000D+00 0.00000000D+00 0.00000000D+00 0.00000000D+00
  <mgrwgt>
 0.1727756961D-04    1    2    0
 0.231819236226507D+03 0.000000000000000D+00 0.000000000000000D+00 0.231819236226507D+03
 0.231819236226507D+03 0.000000000000000D+00 0.000000000000000D+00 -.231819236226507D+03
 0.196147239846517D+03 -.135904623375463D+03 0.254149542631309D+02 -.105083308857228D+03
 0.214644790257005D+02 0.731737786885802D+01 0.117879872813519D+01 -.201442367571380D+02
 0.122456550810739D+03 0.653283153364446D+02 0.221348767464626D+02 0.101182336814210D+03
 0.123570202770057D+03 0.632589301701605D+02 -.487286297377287D+02 0.240452088001565D+02
 0.000000000000000D+00 0.000000000000000D+00 0.000000000000000D+00 0.000000000000000D+00
 0.308495878274894D+03 0.000000000000000D+00 0.000000000000000D+00 0.308495878274894D+03
 0.303511517654438D+03 0.000000000000000D+00 0.000000000000000D+00 -.303511517654438D+03
 0.198674290467373D+03 -.138839724666503D+03 -.289352968338002D+02 -.105083308857228D+03
 0.218544150819934D+02 0.699534542569105D+01 -.478438359913745D+01 -.201442367571380D+02
 0.119999024759948D+03 0.635259017945297D+02 -.112410169178000D+02 0.101182336814210D+03
 0.141074980606322D+03 0.612915591942720D+02 -.851590953120463D+02 0.240452088001565D+02
 0.130404685013695D+03 0.702691825201002D+01 0.130119792662784D+03 0.498436062045623D+01
0.805700434890D-06 0.000000000000D+00 0.000000000000D+00 0.284074582315D-06 0.120435864651D-09  7 2 -2 23 -13 13 23 21 2 0.59383430D+00 0.37319220D-02 0.65258996D+05 0.65258996D+05 0.65258996D+05 0.11372580D+01  1  2  1  2  7  2       -2 0.172775696100D-04 0.100000000000D+01
  </mgrwgt>
  </event>
  <event>
  8     66 0.25765000E-05 0.21384306E+03 0.75467711E-02 0.10308493E+00
        2 -1    0    0  501    0 0.00000000E+00 0.00000000E+00 0.23754713E+04 0.23754713E+04 0.32000000E+00 0.0000E+00 0.9000E+01
       -2 -1    0    0    0  501 0.00000000E+00 0.00000000E+00 -.42814791E+02 0.42815987E+02 0.32000000E+00 0.0000E+00 0.9000E+01
       25  2    1    2    0    0 0.73654266E+02 -.10775179E+03 0.66334667E+03 0.74158979E+03 0.30478059E+03 0.0000E+00 0.0000E+00
       23  2    1    2    0    0 -.73654266E+02 0.10775179E+03 0.16693098E+04 0.16766975E+04 0.87657525E+02 0.0000E+00 0.0000E+00
       23  1    3    3    0    0 0.65835362E+02 0.24193214E+02 0.89666522E+02 0.14585933E+03 0.91188000E+02 0.0000E+00 0.9000E+01
      -13  1    4    4    0    0 -.90083682E+02 0.83914493E+02 0.11475389E+04 0.11541240E+04 0.10565837E+00 0.0000E+00 0.9000E+01
       13  1    4    4    0    0 0.16429416E+02 0.23837295E+02 0.52177089E+03 0.52257345E+03 0.10565837E+00 0.0000E+00 0.9000E+01
       23  1    3    3    0    0 0.78189041E+01 -.13194500E+03 0.57368015E+03 0.59573046E+03 0.91188000E+02 0.0000E+00 0.9000E+01
#aMCatNLO 1  0  0  2  1 0.70552688D+02 0.00000000D+00  -5  7  0 0.00000000D+00 0.00000000D+00 0.00000000D+00 0.00000000D+00 0.00000000D+00
  <mgrwgt>
 0.2529994444D-03    4    2    0
 0.318915001798688D+03 0.000000000000000D+00 0.000000000000000D+00 0.318915001798688D+03
 0.318915001798688D+03 0.000000000000000D+00 0.000000000000000D+00 -.318915001798688D+03
 0.225089065476059D+03 0.658353621125703D+02 0.241932135529051D+02 -.193468936954685D+03
 0.179028080754981D+03 -.900838359615982D+02 0.839145800032447D+02 0.129978072997468D+03
 0.730921890347982D+02 0.164295696183822D+02 0.238372080059934D+02 0.671142671459088D+02
 0.160620668331538D+03 0.781890423064566D+01 -.131945001562143D+03 -.362340318869173D+01
 0.000000000000000D+00 -.000000000000000D+00 0.000000000000000D+00 0.000000000000000D+00
 0.387088567654126D+03 0.000000000000000D+00 0.000000000000000D+00 0.387088567654126D+03
 0.339649902180517D+03 0.000000000000000D+00 0.000000000000000D+00 -.339649902180517D+03
 0.232546096294649D+03 0.898097515174311D+02 0.163222095281674D+02 -.193468936954685D+03
 0.167757314181726D+03 -.719165953458155D+02 0.779501142731514D+02 0.129978072997468D+03
 0.744421772651862D+02 0.241585350558050D+02 0.212997203128687D+02 0.671142671459088D+02
 0.166974596864145D+03 0.249808207770081D+02 -.137579410511104D+03 -.362340318869173D+01
 0.850182852289377D+02 -.670325120044287D+02 0.220073663969169D+02 0.474386654736089D+02
0.496230438677D-05 0.000000000000D+00 0.000000000000D+00 0.679664910890D-09 0.000000000000D+00  7 2 -2 23 -13 13 23 21 0 0.36545721D+00 0.65869846D-02 0.45728854D+05 0.45728854D+05 0.45728854D+05 0.11507221D+01  1  2  2  2  7  2       -2 0.321831797316D-03 0.100000000000D+01
-.222138187116D-06 0.000000000000D+00 -.190565554499D-07 0.679664910890D-09 0.000000000000D+00  7 2 -2 23 -13 13 23 21 2 0.36545721D+00 0.65869846D-02 0.45728854D+05 0.45728854D+05 0.45728854D+05 0.11507221D+01  1  2  3  2  7  2       -2 -.190769835354D-04 0.100000000000D+01
0.305326096857D-06 0.000000000000D+00 0.000000000000D+00 0.679664910890D-09 0.000000000000D+00  7 2 -2 23 -13 13 23 21 2 0.36545721D+00 0.65869846D-02 0.45728854D+05 0.45728854D+05 0.45728854D+05 0.11507221D+01  1  2 15  2  7  2       -2 0.262210698588D-04 0.100000000000D+01
-.884692721324D-06 0.000000000000D+00 0.000000000000D+00 0.679664910890D-09 0.000000000000D+00  7 2 -2 23 -13 13 23 21 2 0.36545721D+00 0.65869846D-02 0.45728854D+05 0.45728854D+05 0.45728854D+05 0.11507221D+01  1  2  4  2  7  2       -2 -.759764392503D-04 0.100000000000D+01
  </mgrwgt>
  </event>
  <event>
  8     66 0.25765000E-05 0.83311173E+03 0.75467711E-02 0.84180719E-01
        2 -1    0    0  501    0 0.00000000E+00 0.00000000E+00 0.27610585E+04 0.27610585E+04 0.32000000E+00 0.0000E+00 0.9000E+01
       -2 -1    0    0    0  501 0.00000000E+00 0.00000000E+00 -.27146258E+03 0.27146277E+03 0.32000000E+00 0.0000E+00 0.9000E+01
       25  2    1    2    0    0 -.71433889E+03 0.40106985E+03 0.15796416E+04 0.18045830E+04 0.30019202E+03 0.0000E+00 0.0000E+00
       23  2    1    2    0    0 0.71433889E+03 -.40106985E+03 0.90995435E+03 0.12279383E+04 0.93158109E+02 0.0000E+00 0.0000E+00
       23  1    3    3    0    0 -.28669529E+03 0.10850271E+03 0.82348822E+03 0.88341107E+03 0.91188000E+02 0.0000E+00 0.9000E+01
      -11  1    4    4    0    0 0.56684908E+02 -.19374233E+02 0.10309307E+03 0.11923389E+03 0.51099893E-03 0.0000E+00 0.9000E+01
       11  1    4    4    0    0 0.65765398E+03 -.38169561E+03 0.80686128E+03 0.11087044E+04 0.51099893E-03 0.0000E+00 0.9000E+01
       23  1    3    3    0    0 -.42764361E+03 0.29256713E+03 0.75615335E+03 0.92117192E+03 0.91188000E+02 0.0000E+00 0.9000E+01
#aMCatNLO 1  0  0  2  2 0.93601270D+03 0.00000000D+00  -5  7  0 0.00000000D+00 0.00000000D+00 0.00000000D+00 0.00000000D+00 0.00000000D+00
  <mgrwgt>
 0.2352073001D-03    5    2    0
 0.865750756744554D+03 0.000000000000000D+00 0.000000000000000D+00 0.865750756744554D+03
 0.865750756744554D+03 0.000000000000000D+00 0.000000000000000D+00 -.865750756744554D+03
 0.363158776791677D+03 -.286695285210779D+03 0.108502714251448D+03 0.172052376486945D+03
 0.605943598559831D+02 0.566849078508396D+02 -.193742334774360D+02 0.911793537265889D+01
 0.781640155723984D+03 0.657653982734628D+03 -.381695612879938D+03 -.181000086026787D+03
 0.526108221117465D+03 -.427643605374689D+03 0.292567132105926D+03 -.170225832817309D+00
 0.000000000000000D+00 -.000000000000000D+00 0.000000000000000D+00 -.000000000000000D+00
 0.123614887716325D+04 0.000000000000000D+00 0.000000000000000D+00 0.123614887716325D+04
 0.185332730704618D+04 0.000000000000000D+00 0.000000000000000D+00 -.185332730704618D+04
 0.249244447041875D+03 -.134892980431815D+03 0.775203625676920D+02 0.172052376486945D+03
 0.100999388873968D+03 0.967407118381590D+02 -.275494914744589D+02 0.911793537265889D+01
 0.127813262648391D+04 0.116822976596258D+04 -.485902452823582D+03 -.181000086026787D+03
 0.339926681003787D+03 -.212971165641155D+03 0.248753192427482D+03 -.170225832817309D+00
 0.112117304080589D+04 -.917106331727764D+03 0.187178389302867D+03 -.617178429882931D+03
0.142183481502D-03 0.000000000000D+00 0.000000000000D+00 0.150141057937D-05 0.000000000000D+00  7 2 -2 23 -11 11 23 21 0 0.42477825D+00 0.41763490D-01 0.69407515D+06 0.69407515D+06 0.69407515D+06 0.10585870D+01  1  2  2  2  7  2       -2 0.231124029039D-03 0.100000000000D+01
-.788489881706D-05 0.000000000000D+00 -.546022006738D-06 0.150141057937D-05 0.000000000000D+00  7 2 -2 23 -11 11 23 21 2 0.42477825D+00 0.41763490D-01 0.69407515D+06 0.69407515D+06 0.69407515D+06 0.10585870D+01  1  2  3  2  7  2       -2 -.143630017223D-04 0.100000000000D+01
0.852421459017D-05 0.000000000000D+00 0.000000000000D+00 0.150141057937D-05 0.000000000000D+00  7 2 -2 23 -11 11 23 21 2 0.42477825D+00 0.41763490D-01 0.69407515D+06 0.69407515D+06 0.69407515D+06 0.10585870D+01  1  2 15  2  7  2       -2 0.155275687970D-04 0.100000000000D+01
0.614417554585D-05 0.000000000000D+00 -.459462696596D-04 0.150141057937D-05 0.000000000000D+00  7 2 -2 23 -11 11 23 21 2 0.42477825D+00 0.14376504D+00 0.69407515D+06 0.69407515D+06 0.69407515D+06 0.10585870D+01  1  2  5  2  7  2       -2 0.672119223103D-06 0.100000000000D+01
0.245712660899D-05 0.000000000000D+00 -.662622340119D-05 0.150141057937D-05 0.000000000000D+00  7 2 21 23 -11 11 23 2 2 0.42477825D+00 0.14376504D+00 0.69407515D+06 0.69407515D+06 0.69407515D+06 0.10585870D+01  1  2  5  4  7  2       -2 0.224658478316D-05 0.100000000000D+01
  </mgrwgt>
  </event>
  <event>
  8     66 0.25765000E-05 0.31647252E+03 0.75467711E-02 0.92996909E-01
        4 -1    0    0  501    0 0.00000000E+00 0.00000000E+00 0.19071123E+03 0.19071753E+03 0.15500000E+01 0.0000E+00 0.9000E+01
       -4 -1    0    0    0  501 0.00000000E+00 0.00000000E+00 -.67704600E+03 0.67704778E+03 0.15500000E+01 0.0000E+00 0.9000E+01
       25  2    1    2    0    0 0.20980278E+02 0.28057053E+03 -.23363424E+03 0.47093683E+03 0.29670953E+03 0.0000E+00 0.0000E+00
       23  2    1    2    0    0 -.20980278E+02 -.28057053E+03 -.25270053E+03 0.39682848E+03 0.12023015E+03 0.0000E+00 0.0000E+00
       23  1    3    3    0    0 -.40775922E+02 0.14799391E+03 0.25307332E+01 0.17856799E+03 0.91188000E+02 0.0000E+00 0.9000E+01
      -11  1    4    4    0    0 0.12671243E+01 -.11226904E+03 -.18001129E+03 0.21215562E+03 0.51099893E-03 0.0000E+00 0.9000E+01
       11  1    4    4    0    0 -.22247403E+02 -.16830150E+03 -.72689241E+02 0.18467286E+03 0.51099893E-03 0.0000E+00 0.9000E+01
       23  1    3    3    0    0 0.61756201E+02 0.13257663E+03 -.23616497E+03 0.29236884E+03 0.91188000E+02 0.0000E+00 0.9000E+01
#aMCatNLO 1  0  0  2  1 0.40484647D+03 0.00000000D+00  -5  7  0 0.00000000D+00 0.00000000D+00 0.00000000D+00 0.00000000D+00 0.00000000D+00
  <mgrwgt>
 0.2252881356D-04    5    2    0
 0.359337975485924D+03 0.000000000000000D+00 0.000000000000000D+00 0.359337975485924D+03
 0.359337975485924D+03 0.000000000000000D+00 0.000000000000000D+00 -.359337975485924D+03
 0.217324501720483D+03 -.407759221089253D+02 0.147993906414667D+03 0.123894372528981D+03
 0.134351978655524D+03 0.126712404772232D+01 -.112269036317011D+03 -.737869368503118D+02
 0.173793763772445D+03 -.222474025076960D+02 -.168301496259624D+03 0.372012333750484D+02
 0.193205706823396D+03 0.617562005688989D+02 0.132576626161968D+03 -.873086690537181D+02
 0.000000000000000D+00 0.000000000000000D+00 -.000000000000000D+00 -.000000000000000D+00
 0.456584539485022D+03 0.000000000000000D+00 0.000000000000000D+00 0.456584539485022D+03
 0.134043619527375D+04 0.000000000000000D+00 0.000000000000000D+00 -.134043619527375D+04
 0.287271656965136D+03 -.170889305869855D+03 0.172211448941306D+03 0.123894372528981D+03
 0.141928298842069D+03 -.699735327683300D+02 -.990092655985851D+02 -.737869368503118D+02
 0.194444495726231D+03 -.117200019860971D+03 -.150628302447420D+03 0.372012333750484D+02
 0.201216619036162D+03 -.399481476808406D+02 0.151506495693359D+03 -.873086690537181D+02
 0.972159664189170D+03 0.398011006179997D+03 -.740803765886601D+02 -.883851655788724D+03
0.129421550524D-04 0.000000000000D+00 0.000000000000D+00 0.554473053081D-10 0.000000000000D+00  7 4 -4 23 -11 11 23 21 0 0.29340811D-01 0.10416154D+00 0.10015486D+06 0.10015486D+06 0.10015486D+06 0.11216669D+01  1  2  2  2  7  2       -4 0.226179812418D-04 0.100000000000D+01
-.704902496868D-06 0.000000000000D+00 -.497012831488D-07 0.554473053081D-10 0.000000000000D+00  7 4 -4 23 -11 11 23 21 2 0.29340811D-01 0.10416154D+00 0.10015486D+06 0.10015486D+06 0.10015486D+06 0.11216669D+01  1  2  3  2  7  2       -4 -.154990150555D-05 0.100000000000D+01
0.834613395561D-06 0.000000000000D+00 0.000000000000D+00 0.554473053081D-10 0.000000000000D+00  7 4 -4 23 -11 11 23 21 2 0.29340811D-01 0.10416154D+00 0.10015486D+06 0.10015486D+06 0.10015486D+06 0.11216669D+01  1  2 15  2  7  2       -4 0.183510281787D-05 0.100000000000D+01
-.757055374276D-05 0.000000000000D+00 -.419916514821D-05 0.554473053081D-10 0.000000000000D+00  7 4 -4 23 -11 11 23 21 2 0.29340811D-01 0.41447606D+00 0.10015486D+06 0.10015486D+06 0.10015486D+06 0.11216669D+01  1  2  5  2  7  2       -4 -.373520717054D-07 0.100000000000D+01
-.119427440480D-05 0.000000000000D+00 -.691626593343D-06 0.554473053081D-10 0.000000000000D+00  7 4 21 23 -11 11 23 4 2 0.29340811D-01 0.41447606D+00 0.10015486D+06 0.10015486D+06 0.10015486D+06 0.11216669D+01  1  2  5  4  7  2       -4 -.337016923756D-06 0.100000000000D+01
  </mgrwgt>
  </event>
  <event>
  8     66 0.25765000E-05 0.20337892E+03 0.75467711E-02 0.90480441E-01
        2 -1    0    0  501    0 0.00000000E+00 0.00000000E+00 0.17898508E+03 0.17898537E+03 0.32000000E+00 0.0000E+00 0.9000E+01
       -2 -1    0    0    0  501 0.00000000E+00 0.00000000E+00 -.25018261E+03 0.25018281E+03 0.32000000E+00 0.0000E+00 0.9000E+01
       25  2    1    2    0    0 -.27136114E+02 0.53816335E+02 -.90449163E+02 0.31850546E+03 0.29938622E+03 0.0000E+00 0.0000E+00
       23  2    1    2    0    0 0.27136114E+02 -.53816335E+02 0.19251635E+02 0.11066272E+03 0.90791218E+02 0.0000E+00 0.0000E+00
       23  1    3    3    0    0 -.12921018E+03 0.24370804E+02 -.77815018E+02 0.17793154E+03 0.91188000E+02 0.0000E+00 0.9000E+01
      -11  1    4    4    0    0 0.35819128E+02 -.75399219E+02 0.24130374E+02 0.86892618E+02 0.51099893E-03 0.0000E+00 0.9000E+01
       11  1    4    4    0    0 -.86830132E+01 0.21582884E+02 -.48787389E+01 0.23770101E+02 0.51099893E-03 0.0000E+00 0.9000E+01
       23  1    3    3    0    0 0.10207406E+03 0.29445530E+02 -.12634144E+02 0.14057392E+03 0.91188000E+02 0.0000E+00 0.9000E+01
#aMCatNLO 1  0  0  2  2 0.67934225D+03 0.00000000D+00  -5  7  0 0.00000000D+00 0.00000000D+00 0.00000000D+00 0.00000000D+00 0.00000000D+00
  <mgrwgt>
 0.1925912838D-03    5    2    0
 0.211610632347725D+03 0.000000000000000D+00 0.000000000000000D+00 0.211610632347725D+03
 0.211610632347725D+03 0.000000000000000D+00 0.000000000000000D+00 -.211610632347725D+03
 0.167341118614046D+03 -.129210176469659D+03 0.243708044017463D+02 -.489754308249695D+02
 0.921729907716227D+02 0.358191277174615D+02 -.753992188140148D+02 0.390871861302671D+02
 0.232833687125240D+02 -.868301314740252D+01 0.215828839897843D+02 -.948504068987202D+00
 0.140423786597258D+03 0.102074061899600D+03 0.294455304224841D+02 0.108367487636897D+02
 0.000000000000000D+00 -.000000000000000D+00 0.000000000000000D+00 -.000000000000000D+00
 0.683028592132050D+03 0.000000000000000D+00 0.000000000000000D+00 0.683028592132050D+03
 0.808124047569489D+03 0.000000000000000D+00 0.000000000000000D+00 -.808124047569489D+03
 0.116620179590055D+03 0.808881658027380D+01 -.531130225599710D+02 -.489754308249695D+02
 0.283871601050702D+03 0.217641594812848D+03 -.178009589547381D+03 0.390871861302671D+02
 0.148679544767045D+02 0.976364944546481D+01 0.111726254684629D+02 -.948504068987202D+00
 0.385029003518293D+03 0.356137342474859D+03 -.113933491026422D+03 0.108367487636897D+02
 0.690763901065783D+03 -.591631403313446D+03 0.333883477665311D+03 -.125095455437439D+03
0.127208462417D-05 0.000000000000D+00 0.000000000000D+00 0.467736629646D-07 0.000000000000D+00  7 2 -2 23 -11 11 23 21 0 0.27536204D-01 0.38489670D-01 0.41362986D+05 0.41362986D+05 0.41362986D+05 0.11546108D+01  1  2  2  2  7  2       -2 0.187510084479D-03 0.100000000000D+01
-.705360970044D-07 0.000000000000D+00 -.488513990438D-08 0.467736629646D-07 0.000000000000D+00  7 2 -2 23 -11 11 23 21 2 0.27536204D-01 0.38489670D-01 0.41362986D+05 0.41362986D+05 0.41362986D+05 0.11546108D+01  1  2  3  2  7  2       -2 -.138608953499D-04 0.100000000000D+01
0.819173742679D-07 0.000000000000D+00 0.000000000000D+00 0.467736629646D-07 0.000000000000D+00  7 2 -2 23 -11 11 23 21 2 0.27536204D-01 0.38489670D-01 0.41362986D+05 0.41362986D+05 0.41362986D+05 0.11546108D+01  1  2 15  2  7  2       -2 0.160974054461D-04 0.100000000000D+01
0.184013961598D-05 0.000000000000D+00 -.781102758576D-06 0.467736629646D-07 0.000000000000D+00  7 2 -2 23 -11 11 23 21 2 0.27536204D-01 0.33499719D+00 0.41362986D+05 0.41362986D+05 0.41362986D+05 0.11546108D+01  1  2  5  2  7  2       -2 0.109970304727D-05 0.100000000000D+01
0.374641119803D-06 0.000000000000D+00 -.203837770273D-06 0.467736629646D-07 0.000000000000D+00  7 2 21 23 -11 11 23 2 2 0.27536204D-01 0.33499719D+00 0.41362986D+05 0.41362986D+05 0.41362986D+05 0.11546108D+01  1  2  5  4  7  2       -2 0.174498615577D-05 0.100000000000D+01
  </mgrwgt>
  </event>
  <event>
  9     66 0.25765000E-05 0.24383702E+03 0.75467711E-02 0.10237528E+00
        2 -1    0    0  502    0 0.00000000E+00 0.00000000E+00 0.72602324E+03 0.72602331E+03 0.32000000E+00 0.0000E+00 0.9000E+01
       -2 -1    0    0    0  501 0.00000000E+00 0.00000000E+00 -.31933399E+03 0.31933415E+03 0.32000000E+00 0.0000E+00 0.9000E+01
       25  2    1    2    0    0 0.12480801E+03 0.26156392E+02 0.63875752E+03 0.71739956E+03 0.30064891E+03 0.0000E+00 0.0000E+00
       23  2    1    2    0    0 -.15173441E+03 -.50054651E+00 -.23045395E+03 0.29072321E+03 0.91582650E+02 0.0000E+00 0.0000E+00
       23  1    3    3    0    0 -.66160254E+02 -.13115250E+01 0.24005553E+03 0.26518071E+03 0.91188000E+02 0.0000E+00 0.9000E+01
      -13  1    4    4    0    0 -.10004813E+03 -.35916951E+02 -.99729772E+02 0.14575903E+03 0.10565837E+00 0.0000E+00 0.9000E+01
       13  1    4    4    0    0 -.51686283E+02 0.35416405E+02 -.13072418E+03 0.14496419E+03 0.10565837E+00 0.0000E+00 0.9000E+01
       23  1    3    3    0    0 0.19096827E+03 0.27467917E+02 0.39870198E+03 0.45221885E+03 0.91188000E+02 0.0000E+00 0.9000E+01
       21  1    1    2  502  501 0.26926398E+02 -.25655845E+02 -.16143230E+01 0.37234686E+02 0.75000000E+00 0.0000E+00 0.9000E+01
#aMCatNLO 2  0  0  1  2 0.37192113D+02 0.00000000D+00  -5  7  0 0.00000000D+00 0.00000000D+00 0.00000000D+00 0.00000000D+00 0.00000000D+00
  <mgrwgt>
 0.1526816277D-03    2    2    0
 0.460493342628049D+03 0.000000000000000D+00 0.000000000000000D+00 0.460493342628049D+03
 0.460493342628049D+03 0.000000000000000D+00 0.000000000000000D+00 -.460493342628049D+03
 0.181947663221462D+03 -.608173714907521D+02 -.640229787793005D+01 0.145086039006476D+03
 0.201838471930429D+03 -.941238551274735D+02 -.415618364145489D+02 -.173643549839904D+03
 0.214136101577098D+03 -.453942660537530D+02 0.294214401110432D+02 -.207190756236543D+03
 0.323064448527109D+03 0.200335492671979D+03 0.185426941814358D+02 0.235748267069971D+03
 0.000000000000000D+00 0.000000000000000D+00 -.000000000000000D+00 -.000000000000000D+00
 0.472455262703405D+03 0.000000000000000D+00 0.000000000000000D+00 0.472455262703405D+03
 0.490714663038494D+03 0.000000000000000D+00 0.000000000000000D+00 -.490714663038494D+03
 0.183695697860039D+03 -.661602543510139D+02 -.131152503114572D+01 0.145086039006476D+03
 0.203597046488461D+03 -.100048192098599D+03 -.359170460314172D+02 -.173643549839904D+03
 0.216457393221608D+03 -.516862183985064D+02 0.354164995176725D+02 -.207190756236543D+03
 0.317987204469720D+03 0.190968266970933D+03 0.274679166682049D+02 0.235748267069971D+03
 0.414325837020704D+02 0.269263978771858D+02 -.256558451233145D+02 -.182594003350890D+02
-.179025246351D-06 0.000000000000D+00 0.000000000000D+00 0.533045939101D-06 0.000000000000D+00  7 2 -2 23 -13 13 23 21 2 0.10886714D+00 0.46102363D-01 0.59456493D+05 0.59456493D+05 0.59456493D+05 0.11407365D+01  1  2  8  1  7  1        2 -.535474594799D-05 0.100000000000D+01
0.625195401997D-05 0.000000000000D+00 0.000000000000D+00 0.533045939101D-06 0.264433626206D-08  7 2 -2 23 -13 13 23 21 2 0.11169511D+00 0.49127975D-01 0.70813017D+05 0.70813017D+05 0.70813017D+05 0.11342335D+01  1  2  1  1  7  1        2 0.158036373606D-03 0.100000000000D+01
  </mgrwgt>
  </event>
  <event>
  8     66 0.25765000E-05 0.19976108E+03 0.75467711E-02 0.10250193E+00
        2 -1    0    0  501    0 0.00000000E+00 0.00000000E+00 0.64554778E+03 0.64554786E+03 0.32000000E+00 0.0000E+00 0.9000E+01
       -2 -1    0    0    0  501 0.00000000E+00 0.00000000E+00 -.72199209E+02 0.72199918E+02 0.32000000E+00 0.0000E+00 0.9000E+01
       25  2    1    2    0    0 0.33696816E+01 -.79993531E+02 0.41440513E+03 0.51834126E+03 0.30089156E+03 0.0000E+00 0.0000E+00
       23  2    1    2    0    0 -.33696816E+01 0.79993531E+02 0.15894344E+03 0.19940651E+03 0.89942323E+02 0.0000E+00 0.0000E+00
       23  1    3    3    0    0 0.11482966E+03 -.15264522E+02 0.14956452E+03 0.21000870E+03 0.91188000E+02 0.0000E+00 0.9000E+01
      -11  1    4    4    0    0 -.57465901E+01 -.59275848E+01 -.80874489E+01 0.11557093E+02 0.51099893E-03 0.0000E+00 0.9000E+01
       11  1    4    4    0    0 0.23769085E+01 0.85921116E+02 0.16703089E+03 0.18784942E+03 0.51099893E-03 0.0000E+00 0.9000E+01
       23  1    3    3    0    0 -.11145997E+03 -.64729009E+02 0.26484061E+03 0.30833257E+03 0.91188000E+02 0.0000E+00 0.9000E+01
#aMCatNLO 1  0  0  2  1 0.11739491D+03 0.00000000D+00  -5  7  0 0.00000000D+00 0.00000000D+00 0.00000000D+00 0.00000000D+00 0.00000000D+00
  <mgrwgt>
 0.3155063795D-03    7    2    0
 0.215889605581749D+03 0.000000000000000D+00 0.000000000000000D+00 0.215889605581749D+03
 0.215889605581749D+03 0.000000000000000D+00 0.000000000000000D+00 -.215889605581749D+03
 0.150495134777328D+03 0.114829654864404D+03 -.152645223945895D+02 -.302436599543289D+02
 0.299505033763373D+02 -.574659009578323D+01 -.592758469967761D+01 -.287901562065090D+02
 0.904665702564926D+02 0.237690848496861D+01 0.859211167288358D+02 0.282154627836719D+02
 0.160867002753339D+03 -.111459973253590D+03 -.647290096345687D+02 0.308183533771660D+02
 0.000000000000000D+00 -.000000000000000D+00 -.000000000000000D+00 -.000000000000000D+00
 0.281514577068245D+03 0.000000000000000D+00 0.000000000000000D+00 0.281514577068245D+03
 0.283348392523376D+03 0.000000000000000D+00 0.000000000000000D+00 -.283348392523376D+03
 0.177775570156158D+03 0.149092363035611D+03 0.120702244126534D+02 -.302436599543289D+02
 0.288113316513513D+02 0.386578581471131D+00 -.103455020628201D+01 -.287901562065090D+02
 0.108824725798943D+03 0.231776056388387D+02 0.102515887558802D+03 0.282154627836719D+02
 0.132042114223335D+03 -.808880719391212D+02 -.403387840379449D+02 0.308183533771660D+02
 0.117409227761833D+03 -.917684753167993D+02 -.732127777272282D+02 -.183381545513053D+01
0.105819731556D-05 0.000000000000D+00 0.000000000000D+00 0.222258518734D-07 0.000000000000D+00  7 2 -2 23 -11 11 23 21 0 0.99315103D-01 0.11107631D-01 0.39904488D+05 0.39904488D+05 0.39904488D+05 0.11560118D+01  1  2  2  2  7  2       -2 0.298202231459D-03 0.100000000000D+01
-.583578121726D-07 0.000000000000D+00 -.406375632151D-08 0.222258518734D-07 0.000000000000D+00  7 2 -2 23 -11 11 23 21 2 0.99315103D-01 0.11107631D-01 0.39904488D+05 0.39904488D+05 0.39904488D+05 0.11560118D+01  1  2  3  2  7  2       -2 -.219769691634D-04 0.100000000000D+01
0.680145432010D-07 0.000000000000D+00 0.000000000000D+00 0.222258518734D-07 0.000000000000D+00  7 2 -2 23 -11 11 23 21 2 0.99315103D-01 0.11107631D-01 0.39904488D+05 0.39904488D+05 0.39904488D+05 0.11560118D+01  1  2 15  2  7  2       -2 0.256135976135D-04 0.100000000000D+01
-.329242941626D-06 0.000000000000D+00 0.000000000000D+00 0.222258518734D-07 0.000000000000D+00  7 2 -2 23 -11 11 23 21 2 0.99315103D-01 0.11107631D-01 0.39904488D+05 0.39904488D+05 0.39904488D+05 0.11560118D+01  1  2  4  2  7  2       -2 -.123989603208D-03 0.100000000000D+01
-.466483128390D-06 0.000000000000D+00 -.370790928748D-06 0.222258518734D-07 0.000000000000D+00  7 2 -2 23 -11 11 23 21 2 0.99315103D-01 0.18989693D-01 0.39904488D+05 0.39904488D+05 0.39904488D+05 0.11560118D+01  1  2  5  2  7  2       -2 -.753882321173D-04 0.100000000000D+01
0.621407523226D-06 0.000000000000D+00 0.323194514991D-06 0.222258518734D-07 0.000000000000D+00  7 2 -2 23 -11 11 23 21 2 0.99315103D-01 0.11107631D-01 0.39904488D+05 0.39904488D+05 0.39904488D+05 0.11560118D+01  1  2  6  2  7  2       -2 0.234015866384D-03 0.100000000000D+01
-.978916709594D-08 0.000000000000D+00 -.221210918540D-07 0.222258518734D-07 0.000000000000D+00  7 2 21 23 -11 11 23 2 2 0.99315103D-01 0.18989693D-01 0.39904488D+05 0.39904488D+05 0.39904488D+05 0.11560118D+01  1  2  5  4  7  2       -2 -.209705114871D-04 0.100000000000D+01
  </mgrwgt>
  </event>
  <event>
  8     66 0.25765000E-05 0.35195433E+03 0.75467711E-02 0.89569872E-01
        2 -1    0    0  501    0 0.00000000E+00 0.00000000E+00 0.34454709E+03 0.34454724E+03 0.32000000E+00 0.0000E+00 0.9000E+01
       -2 -1    0    0    0  501 0.00000000E+00 0.00000000E+00 -.11770157E+04 0.11770157E+04 0.32000000E+00 0.0000E+00 0.9000E+01
       25  2    1    2    0    0 0.12649652E+02 0.59695395E+03 -.40466336E+03 0.78156427E+03 0.30095889E+03 0.0000E+00 0.0000E+00
       23  2    1    2    0    0 -.12649652E+02 -.59695395E+03 -.42780522E+03 0.73999867E+03 0.89814823E+02 0.0000E+00 0.0000E+00
       23  1    3    3    0    0 -.73285976E+02 0.49003234E+03 -.31144623E+03 0.59229767E+03 0.91188000E+02 0.0000E+00 0.9000E+01
      -11  1    4    4    0    0 -.88545761E+01 -.12782312E+03 -.13918438E+03 0.18918098E+03 0.51099893E-03 0.0000E+00 0.9000E+01
       11  1    4    4    0    0 -.37950757E+01 -.46913083E+03 -.28862084E+03 0.55081769E+03 0.51099893E-03 0.0000E+00 0.9000E+01
       23  1    3    3    0    0 0.85935627E+02 0.10692161E+03 -.93217130E+02 0.18926660E+03 0.91188000E+02 0.0000E+00 0.9000E+01
#aMCatNLO 1  0  0  2  1 0.30218525D+03 0.00000000D+00  -5  7  0 0.00000000D+00 0.00000000D+00 0.00000000D+00 0.00000000D+00 0.00000000D+00
  <mgrwgt>
 0.3886883625D-03    9    2    0
 0.636818238489858D+03 0.000000000000000D+00 0.000000000000000D+00 0.636818238489858D+03
 0.636818238489858D+03 0.000000000000000D+00 0.000000000000000D+00 -.636818238489858D+03
 0.504028430317156D+03 -.732859757046682D+02 0.490032339546870D+03 0.150625093265389D+02
 0.135033940115317D+03 -.885457610117762D+01 -.127823116222232D+03 -.426264287077076D+02
 0.469392971437149D+03 -.379507566169066D+01 -.469130831405353D+03 0.152191346744966D+02
 0.165181135110094D+03 0.859356274675364D+02 0.106921608080714D+03 0.123447847066722D+02
 0.000000000000000D+00 -.000000000000000D+00 -.000000000000000D+00 -.000000000000000D+00
 0.769084727762536D+03 0.000000000000000D+00 0.000000000000000D+00 0.769084727762536D+03
 0.853724369131888D+03 0.000000000000000D+00 0.000000000000000D+00 -.853724369131888D+03
 0.580420672335711D+03 0.231068189311303D+02 0.572548776317189D+03 0.150625093265389D+02
 0.117464398330658D+03 0.135890963811576D+02 -.108610353605693D+03 -.426264287077076D+02
 0.409355954830741D+03 0.743137674172117D+02 -.402266254696325D+03 0.152191346744966D+02
 0.201753168489056D+03 0.118551102813625D+03 0.134841877632998D+03 0.123447847066722D+02
 0.313814902908258D+03 -.229560785543125D+03 -.196514045648169D+03 -.846396413693516D+02
0.146344241869D-03 0.000000000000D+00 0.000000000000D+00 0.341937723029D-06 0.000000000000D+00  7 2 -2 23 -11 11 23 21 0 0.53007259D-01 0.18107935D+00 0.40056123D+06 0.40056123D+06 0.40056123D+06 0.10753837D+01  1  2  2  2  7  2       -2 0.282462590177D-03 0.100000000000D+01
-.812985893614D-05 0.000000000000D+00 -.562000422100D-06 0.341937723029D-06 0.000000000000D+00  7 2 -2 23 -11 11 23 21 2 0.53007259D-01 0.18107935D+00 0.40056123D+06 0.40056123D+06 0.40056123D+06 0.10753837D+01  1  2  3  2  7  2       -2 -.181465985053D-04 0.100000000000D+01
0.912663719622D-05 0.000000000000D+00 0.000000000000D+00 0.341937723029D-06 0.000000000000D+00  7 2 -2 23 -11 11 23 21 2 0.53007259D-01 0.18107935D+00 0.40056123D+06 0.40056123D+06 0.40056123D+06 0.10753837D+01  1  2 15  2  7  2       -2 0.203714999491D-04 0.100000000000D+01
0.464449492358D-04 0.000000000000D+00 0.000000000000D+00 0.341937723029D-06 0.000000000000D+00  7 2 -2 23 -11 11 23 21 2 0.53007259D-01 0.25632515D+00 0.64185390D+06 0.64185390D+06 0.64185390D+06 0.10609280D+01  1  2 12  2  7  2       -2 0.308422082496D-04 0.100000000000D+01
-.649478505628D-04 0.000000000000D+00 0.000000000000D+00 0.341937723029D-06 0.000000000000D+00  7 2 -2 23 -11 11 23 21 2 0.53007259D-01 0.18107935D+00 0.40056123D+06 0.40056123D+06 0.40056123D+06 0.10753837D+01  1  2  4  2  7  2       -2 -.144969620900D-03 0.100000000000D+01
-.117230509708D-03 0.000000000000D+00 -.504245151285D-04 0.341937723029D-06 0.000000000000D+00  7 2 -2 23 -11 11 23 21 2 0.53007259D-01 0.26999143D+00 0.40056123D+06 0.40056123D+06 0.40056123D+06 0.10753837D+01  1  2  5  2  7  2       -2 -.669355421132D-04 0.100000000000D+01
0.130586867138D-03 0.000000000000D+00 0.466527079307D-04 0.341937723029D-06 0.000000000000D+00  7 2 -2 23 -11 11 23 21 2 0.53007259D-01 0.18107935D+00 0.40056123D+06 0.40056123D+06 0.40056123D+06 0.10753837D+01  1  2  6  2  7  2       -2 0.291481988387D-03 0.100000000000D+01
0.199605993019D-05 0.000000000000D+00 0.000000000000D+00 0.341937723029D-06 0.000000000000D+00  7 2 21 23 -11 11 23 2 2 0.53007259D-01 0.25632515D+00 0.64185390D+06 0.64185390D+06 0.64185390D+06 0.10609280D+01  1  2 12  4  7  2       -2 0.955162139029D-05 0.100000000000D+01
-.385664951673D-05 0.000000000000D+00 -.239779478777D-05 0.341937723029D-06 0.000000000000D+00  7 2 21 23 -11 11 23 2 2 0.53007259D-01 0.26999143D+00 0.40056123D+06 0.40056123D+06 0.40056123D+06 0.10753837D+01  1  2  5  4  7  2       -2 -.159697841324D-04 0.100000000000D+01
  </mgrwgt>
  </event>
  <event>
  8     66 0.25765000E-05 0.27107584E+03 0.75467711E-02 0.85633242E-01
        2 -1    0    0  501    0 0.00000000E+00 0.00000000E+00 0.16788669E+04 0.16788669E+04 0.32000000E+00 0.0000E+00 0.9000E+01
       -2 -1    0    0    0  501 0.00000000E+00 0.00000000E+00 -.13727636E+03 0.13727673E+03 0.32000000E+00 0.0000E+00 0.9000E+01
       25  2    1    2    0    0 -.23110447E+03 0.57875552E+02 0.15110542E+04 0.15587837E+04 0.29960500E+03 0.0000E+00 0.0000E+00
       23  2    1    2    0    0 0.23110447E+03 -.57875552E+02 0.30536333E+02 0.25735989E+03 0.92427225E+02 0.0000E+00 0.0000E+00
       23  1    3    3    0    0 -.13463486E+03 0.43675236E+02 0.12870262E+04 0.12979930E+04 0.91188000E+02 0.0000E+00 0.9000E+01
      -13  1    4    4    0    0 0.16802320E+03 -.27489974E+02 0.61198902E+02 0.18092212E+03 0.10565837E+00 0.0000E+00 0.9000E+01
       13  1    4    4    0    0 0.63081265E+02 -.30385578E+02 -.30662569E+02 0.76437776E+02 0.10565837E+00 0.0000E+00 0.9000E+01
       23  1    3    3    0    0 -.96469609E+02 0.14200315E+02 0.22402796E+03 0.26079075E+03 0.91188000E+02 0.0000E+00 0.9000E+01
#aMCatNLO 1  0  0  2  2 0.11919066D+04 0.00000000D+00  -5  7  0 0.00000000D+00 0.00000000D+00 0.00000000D+00 0.00000000D+00 0.00000000D+00
  <mgrwgt>
 0.2703100531D-03    5    2    0
 0.480071969904046D+03 0.000000000000000D+00 0.000000000000000D+00 0.480071969904046D+03
 0.480071969904046D+03 0.000000000000000D+00 0.000000000000000D+00 -.480071969904046D+03
 0.388769106998661D+03 -.134634859556773D+03 0.436752364807255D+02 0.350417030868959D+03
 0.243960261758844D+03 0.168023339815158D+03 -.274899703423503D+02 -.174725693947343D+03
 0.193815776622792D+03 0.630811284425112D+02 -.303855813036942D+02 -.180726431246656D+03
 0.133598794427795D+03 -.964696087008954D+02 0.142003151653191D+02 0.503509432504005D+01
 0.000000000000000D+00 0.000000000000000D+00 -.000000000000000D+00 -.000000000000000D+00
 0.116938227155740D+04 0.000000000000000D+00 0.000000000000000D+00 0.116938227155740D+04
 0.164411731121492D+04 0.000000000000000D+00 0.000000000000000D+00 -.164411731121492D+04
 0.792157131173303D+03 -.695674375446049D+03 0.111547016766251D+03 0.350417030868959D+03
 0.177717599895837D+03 -.323091921558333D+02 -.325473341358180D+01 -.174725693947343D+03
 0.226683062019477D+03 -.136691268205270D+03 -.621810677046181D+01 -.180726431246656D+03
 0.333970766834855D+03 -.318604566682207D+03 0.410731015464082D+02 0.503509432504005D+01
 0.128297102284885D+04 0.118327940248936D+04 -.143147278128616D+03 -.474735039657520D+03
0.101251407462D-04 0.000000000000D+00 0.000000000000D+00 0.538738393610D-06 0.000000000000D+00  7 2 -2 23 -13 13 23 21 0 0.25828724D+00 0.21119471D-01 0.73482109D+05 0.73482109D+05 0.73482109D+05 0.11328717D+01  1  2  2  2  7  2       -2 0.249006863920D-03 0.100000000000D+01
-.339099476666D-06 0.000000000000D+00 -.388832064760D-07 0.538738393610D-06 0.000000000000D+00  7 2 -2 23 -13 13 23 21 2 0.25828724D+00 0.21119471D-01 0.73482109D+05 0.73482109D+05 0.73482109D+05 0.11328717D+01  1  2  3  2  7  2       -2 -.107028340025D-04 0.100000000000D+01
0.583394216074D-06 0.000000000000D+00 0.000000000000D+00 0.538738393610D-06 0.000000000000D+00  7 2 -2 23 -13 13 23 21 2 0.25828724D+00 0.21119471D-01 0.73482109D+05 0.73482109D+05 0.73482109D+05 0.11328717D+01  1  2 15  2  7  2       -2 0.184133915924D-04 0.100000000000D+01
0.252767622445D-04 0.000000000000D+00 -.725363873718D-05 0.538738393610D-06 0.000000000000D+00  7 2 -2 23 -13 13 23 21 2 0.25828724D+00 0.21542889D+00 0.73482109D+05 0.73482109D+05 0.73482109D+05 0.11328717D+01  1  2  5  2  7  2       -2 0.473162560372D-05 0.100000000000D+01
0.578846925038D-05 0.000000000000D+00 -.200033812287D-05 0.538738393610D-06 0.000000000000D+00  7 2 21 23 -13 13 23 2 2 0.25828724D+00 0.21542889D+00 0.73482109D+05 0.73482109D+05 0.73482109D+05 0.11328717D+01  1  2  5  4  7  2       -2 0.886100601355D-05 0.100000000000D+01
  </mgrwgt>
  </event>
  <event>
  8     66 0.25765000E-05 0.16554715E+03 0.75467711E-02 0.10365158E+00
        2 -1    0    0  501    0 0.00000000E+00 0.00000000E+00 0.11231444E+03 0.11231489E+03 0.32000000E+00 0.0000E+00 0.9000E+01
       -2 -1    0    0    0  501 0.00000000E+00 0.00000000E+00 -.61527830E+03 0.61527838E+03 0.32000000E+00 0.0000E+00 0.9000E+01
       25  2    1    2    0    0 -.44650804E+02 0.43008310E+01 -.11208356E+03 0.32377693E+03 0.30042733E+03 0.0000E+00 0.0000E+00
       23  2    1    2    0    0 0.44650804E+02 -.43008310E+01 -.39088030E+03 0.40381635E+03 0.90928765E+02 0.0000E+00 0.0000E+00
       23  1    3    3    0    0 -.31362019E+02 -.87620678E+02 -.13936998E+03 0.19078837E+03 0.91188000E+02 0.0000E+00 0.9000E+01
      -11  1    4    4    0    0 0.19953132E+02 -.29333762E+02 -.34069297E+03 0.34253510E+03 0.51099893E-03 0.0000E+00 0.9000E+01
       11  1    4    4    0    0 0.24697672E+02 0.25032931E+02 -.50187336E+02 0.61281248E+02 0.51099893E-03 0.0000E+00 0.9000E+01
       23  1    3    3    0    0 -.13288786E+02 0.91921509E+02 0.27286423E+02 0.13298856E+03 0.91188000E+02 0.0000E+00 0.9000E+01
#aMCatNLO 1  0  0  1  2 0.12721464D+03 0.00000000D+00  -5  7  0 0.00000000D+00 0.00000000D+00 0.00000000D+00 0.00000000D+00 0.00000000D+00
  <mgrwgt>
 0.2207415951D-03    3    2    0
 0.262877978978349D+03 0.000000000000000D+00 0.000000000000000D+00 0.262877978978349D+03
 0.262877978978349D+03 0.000000000000000D+00 0.000000000000000D+00 -.262877978978349D+03
 0.130703743233365D+03 -.313620187873857D+02 -.876206782754489D+02 -.103565277648167D+02
 0.148110512940365D+03 0.199531321354111D+02 -.293337619026049D+02 -.143798911588670D+03
 0.367954126919934D+02 0.246976723264708D+02 0.250329308810817D+02 -.108295774770476D+02
 0.210146289090975D+03 -.132887856744962D+02 0.919215092969721D+02 0.164985016830534D+03
 0.000000000000000D+00 -.000000000000000D+00 0.000000000000000D+00 -.000000000000000D+00
 0.281437030552883D+03 0.000000000000000D+00 0.000000000000000D+00 0.281437030552883D+03
 0.639172907901632D+03 0.000000000000000D+00 0.000000000000000D+00 -.639172907901632D+03
 0.154187651282372D+03 -.259205344912486D+02 -.121158774706246D+03 -.103565277648167D+02
 0.160163916222544D+03 0.258412372080195D+02 -.656245651049581D+02 -.143798911588670D+03
 0.328353862143420D+02 0.260276349229906D+02 0.168358266749554D+02 -.108295774770476D+02
 0.193740852164364D+03 -.557445811367818D+01 0.443749489187425D+02 0.164985016830534D+03
 0.379682132570894D+03 -.203738795260834D+02 0.125572564217506D+03 -.357735877348749D+03
0.536929817439D-05 0.000000000000D+00 0.000000000000D+00 0.309247961620D-06 0.000000000000D+00  7 2 -2 23 -11 11 23 21 0 0.17279186D-01 0.94658241D-01 0.27405860D+05 0.27405860D+05 0.27405860D+05 0.11709978D+01  1  2  2  1  7  1        2 0.215310564022D-03 0.100000000000D+01
-.220736478897D-06 0.000000000000D+00 -.206195187583D-07 0.309247961620D-06 0.000000000000D+00  7 2 -2 23 -11 11 23 21 2 0.17279186D-01 0.94658241D-01 0.27405860D+05 0.27405860D+05 0.27405860D+05 0.11709978D+01  1  2  3  1  7  1        2 -.121376355091D-04 0.100000000000D+01
0.319505853555D-06 0.000000000000D+00 0.000000000000D+00 0.309247961620D-06 0.000000000000D+00  7 2 -2 23 -11 11 23 21 2 0.17279186D-01 0.94658241D-01 0.27405860D+05 0.27405860D+05 0.27405860D+05 0.11709978D+01  1  2 15  1  7  1        2 0.175686665513D-04 0.100000000000D+01
  </mgrwgt>
  </event>
  <event>
  8     66 0.25765000E-05 0.26873344E+03 0.75467711E-02 0.87417491E-01
        2 -1    0    0  501    0 0.00000000E+00 0.00000000E+00 0.27482444E+04 0.27482444E+04 0.32000000E+00 0.0000E+00 0.9000E+01
       -2 -1    0    0    0  501 0.00000000E+00 0.00000000E+00 -.32071955E+03 0.32071971E+03 0.32000000E+00 0.0000E+00 0.9000E+01
       25  2    1    2    0    0 0.18385420E+03 -.58120706E+03 0.23508792E+04 0.24473243E+04 0.30192603E+03 0.0000E+00 0.0000E+00
       23  2    1    2    0    0 -.18385420E+03 0.58120706E+03 0.76645631E+02 0.62163978E+03 0.94643812E+02 0.0000E+00 0.0000E+00
       23  1    3    3    0    0 0.12775429E+02 -.41410746E+03 0.14452634E+04 0.15062369E+04 0.91188000E+02 0.0000E+00 0.9000E+01
      -11  1    4    4    0    0 -.14687880E+03 0.33899974E+03 0.73028147E+02 0.37659967E+03 0.51099893E-03 0.0000E+00 0.9000E+01
       11  1    4    4    0    0 -.36975393E+02 0.24220733E+03 0.36174848E+01 0.24504011E+03 0.51099893E-03 0.0000E+00 0.9000E+01
       23  1    3    3    0    0 0.17107877E+03 -.16709960E+03 0.90561581E+03 0.94108739E+03 0.91188000E+02 0.0000E+00 0.9000E+01
#aMCatNLO 1  0  0  2  1 0.57946541D+03 0.00000000D+00  -5  7  0 0.00000000D+00 0.00000000D+00 0.00000000D+00 0.00000000D+00 0.00000000D+00
  <mgrwgt>
 0.1599942394D-03    7    2    0
 0.938837563365447D+03 0.000000000000000D+00 0.000000000000000D+00 0.938837563365447D+03
 0.938837563365447D+03 0.000000000000000D+00 0.000000000000000D+00 -.938837563365447D+03
 0.593379714333275D+03 0.127754292101455D+02 -.414107462028611D+03 0.414892796200366D+03
 0.521119560822505D+03 -.146878804366839D+03 0.338999736170943D+03 -.367520601294185D+03
 0.395828732220155D+03 -.369753932633132D+02 0.242207328218798D+03 -.310883926411691D+03
 0.367347119354959D+03 0.171078768420006D+03 -.167099602361130D+03 0.263511731505511D+03
 0.000000000000000D+00 0.000000000000000D+00 0.000000000000000D+00 -.000000000000000D+00
 0.105429557962017D+04 0.000000000000000D+00 0.000000000000000D+00 0.105429557962017D+04
 0.215220483856334D+04 0.000000000000000D+00 0.000000000000000D+00 -.215220483856334D+04
 0.652901293565905D+03 -.167678873870317D+03 -.466596839589228D+03 0.414892796200366D+03
 0.559675198498931D+03 -.303371652954117D+03 0.293480111120099D+03 -.367520601294185D+03
 0.404329331366405D+03 -.152833666641099D+03 0.208507224918207D+03 -.310883926411691D+03
 0.348149911634085D+03 0.674789243520039D+02 -.197234053231397D+03 0.263511731505511D+03
 0.124144468311818D+04 0.556405269113529D+03 0.161843556782319D+03 -.109790925894317D+04
0.158785309686D-03 0.000000000000D+00 0.000000000000D+00 0.469122035496D-07 0.000000000000D+00  7 2 -2 23 -11 11 23 21 0 0.42280684D+00 0.49341483D-01 0.41901412D+06 0.41901412D+06 0.41901412D+06 0.10739767D+01  1  2  2  2  7  2       -2 0.196326171000D-03 0.100000000000D+01
-.733865804321D-05 0.000000000000D+00 -.609777398325D-06 0.469122035496D-07 0.000000000000D+00  7 2 -2 23 -11 11 23 21 2 0.42280684D+00 0.49341483D-01 0.41901412D+06 0.41901412D+06 0.41901412D+06 0.10739767D+01  1  2  3  2  7  2       -2 -.104658436600D-04 0.100000000000D+01
0.100553316391D-04 0.000000000000D+00 0.000000000000D+00 0.469122035496D-07 0.000000000000D+00  7 2 -2 23 -11 11 23 21 2 0.42280684D+00 0.49341483D-01 0.41901412D+06 0.41901412D+06 0.41901412D+06 0.10739767D+01  1  2 15  2  7  2       -2 0.143401597764D-04 0.100000000000D+01
0.341584120747D-05 0.000000000000D+00 0.000000000000D+00 0.469122035496D-07 0.000000000000D+00  7 2 -2 23 -11 11 23 21 2 0.42280684D+00 0.11224433D+00 0.99175700D+06 0.99175700D+06 0.99175700D+06 0.10481033D+01  1  2 12  2  7  2       -2 0.693962247871D-06 0.100000000000D+01
-.134041363210D-03 0.000000000000D+00 -.467503593602D-04 0.469122035496D-07 0.000000000000D+00  7 2 -2 23 -11 11 23 21 2 0.42280684D+00 0.12261850D+00 0.41901412D+06 0.41901412D+06 0.41901412D+06 0.10739767D+01  1  2  5  2  7  2       -2 -.245362446143D-04 0.100000000000D+01
0.305190540653D-06 0.000000000000D+00 0.000000000000D+00 0.469122035496D-07 0.000000000000D+00  7 2 21 23 -11 11 23 2 2 0.42280684D+00 0.11224433D+00 0.99175700D+06 0.99175700D+06 0.99175700D+06 0.10481033D+01  1  2 12  4  7  2       -2 0.538807587055D-06 0.100000000000D+01
-.105207433027D-04 0.000000000000D+00 -.468016449404D-05 0.469122035496D-07 0.000000000000D+00  7 2 21 23 -11 11 23 2 2 0.42280684D+00 0.12261850D+00 0.41901412D+06 0.41901412D+06 0.41901412D+06 0.10739767D+01  1  2  5  4  7  2       -2 -.169027729825D-04 0.100000000000D+01
  </mgrwgt>
  </event>
  <event>
  9     66 0.25765000E-05 0.24187563E+03 0.75467711E-02 0.98687255E-01
        2 -1    0    0  502    0 0.00000000E+00 0.00000000E+00 0.80046252E+03 0.80046258E+03 0.32000000E+00 0.0000E+00 0.9000E+01
       -2 -1    0    0    0  501 0.00000000E+00 0.00000000E+00 -.46232471E+03 0.46232482E+03 0.32000000E+00 0.0000E+00 0.9000E+01
       25  2    1    2    0    0 -.21258005E+03 0.85534610E+02 -.32781124E+03 0.49983572E+03 0.29978173E+03 0.0000E+00 0.0000E+00
       23  2    1    2    0    0 0.80915157E+02 0.70180065E+02 0.13921359E+03 0.19812117E+03 0.91646443E+02 0.0000E+00 0.0000E+00
       23  1    3    3    0    0 0.27468897E+02 -.34639552E+01 -.14048846E+03 0.16976101E+03 0.91188000E+02 0.0000E+00 0.9000E+01
      -13  1    4    4    0    0 0.16975342E+02 0.72604299E+02 0.56521121E+02 0.93563854E+02 0.10565837E+00 0.0000E+00 0.9000E+01
       13  1    4    4    0    0 0.63939815E+02 -.24242337E+01 0.82692474E+02 0.10455732E+03 0.10565837E+00 0.0000E+00 0.9000E+01
       23  1    3    3    0    0 -.24004895E+03 0.88998566E+02 -.18732277E+03 0.33007471E+03 0.91188000E+02 0.0000E+00 0.9000E+01
       21  1    1    2  502  501 0.13166489E+03 -.15571468E+03 0.52673546E+03 0.56483051E+03 0.75000000E+00 0.0000E+00 0.9000E+01
#aMCatNLO 2  0  0  1  2 0.20391838D+03 0.00000000D+00  -5  7  0 0.00000000D+00 0.00000000D+00 0.00000000D+00 0.00000000D+00 0.00000000D+00
  <mgrwgt>
 0.1428286080D-03    2    2    0
 0.320153106423584D+03 0.000000000000000D+00 0.000000000000000D+00 0.320153106423584D+03
 0.320153106423584D+03 0.000000000000000D+00 0.000000000000000D+00 -.320153106423584D+03
 0.150156514014123D+03 0.562688285250710D+02 -.375244548393147D+02 -.982723846373026D+02
 0.104469934394602D+03 0.387985410100240D+02 0.467949211345257D+02 0.849639674445552D+02
 0.152065158951927D+03 0.924209921485173D+02 -.361077810929662D+02 0.115231944016843D+03
 0.233614605486517D+03 -.187488361683612D+03 0.268373147977552D+02 -.101923526824096D+03
 0.000000000000000D+00 0.000000000000000D+00 -.000000000000000D+00 0.000000000000000D+00
 0.105604263371571D+04 0.000000000000000D+00 0.000000000000000D+00 0.105604263371571D+04
 0.350434073909338D+03 0.000000000000000D+00 0.000000000000000D+00 -.350434073909338D+03
 0.136891388334978D+03 0.274688967571222D+02 -.346395509819179D+01 -.982723846373026D+02
 0.113041738019213D+03 0.169752798992990D+02 0.726043982333405D+02 0.849639674445552D+02
 0.131805106938164D+03 0.639398772486030D+02 -.242433300386295D+01 0.115231944016843D+03
 0.290254884468676D+03 -.240048946319659D+03 0.889985655192479D+02 -.101923526824096D+03
 0.734483589864012D+03 0.131664892414635D+03 -.155714675650534D+03 0.705608559806368D+03
-.506241920453D-06 0.000000000000D+00 0.000000000000D+00 0.368095220185D-06 0.000000000000D+00  7 2 -2 23 -13 13 23 21 2 0.12005510D+00 0.64980791D-01 0.12586037D+06 0.12586037D+06 0.12586037D+06 0.11136160D+01  1  2 13  1  7  1        2 -.632031271487D-05 0.100000000000D+01
0.149531279077D-04 0.000000000000D+00 0.000000000000D+00 0.368095220185D-06 0.124976667389D-09  7 2 -2 23 -13 13 23 21 2 0.12314803D+00 0.71126854D-01 0.12586037D+06 0.12586037D+06 0.12586037D+06 0.11136160D+01  1  2  1  1  7  1        2 0.149148920674D-03 0.100000000000D+01
  </mgrwgt>
  </event>
  <event>
  8     66 0.25765000E-05 0.19944038E+03 0.75467711E-02 0.96330549E-01
        2 -1    0    0  501    0 0.00000000E+00 0.00000000E+00 0.14432572E+04 0.14432573E+04 0.32000000E+00 0.0000E+00 0.9000E+01
       -2 -1    0    0    0  501 0.00000000E+00 0.00000000E+00 -.51970070E+02 0.51971056E+02 0.32000000E+00 0.0000E+00 0.9000E+01
       25  2    1    2    0    0 -.85880872E+02 0.12366525E+03 0.11188798E+04 0.11681283E+04 0.29993845E+03 0.0000E+00 0.0000E+00
       23  2    1    2    0    0 0.85880872E+02 -.12366525E+03 0.27240736E+03 0.32710003E+03 0.10059843E+03 0.0000E+00 0.0000E+00
       23  1    3    3    0    0 -.57492666E+02 0.44112672E+02 0.14331726E+03 0.18467924E+03 0.91188000E+02 0.0000E+00 0.9000E+01
      -13  1    4    4    0    0 0.87217307E+02 -.93316109E+02 0.13292188E+03 0.18434476E+03 0.10565837E+00 0.0000E+00 0.9000E+01
       13  1    4    4    0    0 -.13364349E+01 -.30349138E+02 0.13948548E+03 0.14275527E+03 0.10565837E+00 0.0000E+00 0.9000E+01
       23  1    3    3    0    0 -.28388206E+02 0.79552576E+02 0.97556254E+03 0.98344904E+03 0.91188000E+02 0.0000E+00 0.9000E+01
#aMCatNLO 1  0  0  2  1 0.35506532D+03 0.00000000D+00  -5  7  0 0.00000000D+00 0.00000000D+00 0.00000000D+00 0.00000000D+00 0.00000000D+00
  <mgrwgt>
 0.3319611518D-03    5    2    0
 0.273873953798452D+03 0.000000000000000D+00 0.000000000000000D+00 0.273873953798452D+03
 0.273873953798452D+03 0.000000000000000D+00 0.000000000000000D+00 -.273873953798452D+03
 0.140104922943664D+03 -.574927090537590D+02 0.441127336542488D+02 -.778639404619312D+02
 0.165596436313302D+03 0.872173963019140D+02 -.933163545413016D+02 -.105391477250784D+03
 0.353944030914829D+02 -.133641799611286D+01 -.303490456937463D+02 0.181635123976873D+02
 0.206652145248455D+03 -.283882692520421D+02 0.795526665807990D+02 0.165091905315028D+03
 0.000000000000000D+00 -.000000000000000D+00 0.000000000000000D+00 -.000000000000000D+00
 0.417868244187729D+03 0.000000000000000D+00 0.000000000000000D+00 0.417868244187729D+03
 0.670888050898083D+03 0.000000000000000D+00 0.000000000000000D+00 -.670888050898083D+03
 0.125982493036455D+03 -.264297355809112D+02 -.281959759636781D+02 -.778639404619312D+02
 0.275239101515708D+03 0.138680418583638D+03 -.213112507909645D+03 -.105391477250784D+03
 0.599140790198614D+02 0.978986860656994D+01 -.562489302551022D+02 0.181635123976873D+02
 0.191627035674124D+03 0.181067353546770D+02 -.286788840700152D+02 0.165091905315028D+03
 0.435993585839665D+03 -.140147286963973D+03 0.326236298198441D+03 -.253019806710354D+03
0.184852062286D-05 0.000000000000D+00 0.000000000000D+00 0.973280526515D-08 0.000000000000D+00  7 2 -2 23 -13 13 23 21 0 0.22203965D+00 0.79954740D-02 0.39776466D+05 0.39776466D+05 0.39776466D+05 0.11561375D+01  1  2  2  2  7  2       -2 0.281425080745D-03 0.100000000000D+01
-.901361608462D-07 0.000000000000D+00 -.709880591846D-08 0.973280526515D-08 0.000000000000D+00  7 2 -2 23 -13 13 23 21 2 0.22203965D+00 0.79954740D-02 0.39776466D+05 0.39776466D+05 0.39776466D+05 0.11561375D+01  1  2  3  2  7  2       -2 -.183424159476D-04 0.100000000000D+01
0.117775959229D-06 0.000000000000D+00 0.000000000000D+00 0.973280526515D-08 0.000000000000D+00  7 2 -2 23 -13 13 23 21 2 0.22203965D+00 0.79954740D-02 0.39776466D+05 0.39776466D+05 0.39776466D+05 0.11561375D+01  1  2 15  2  7  2       -2 0.239670251375D-04 0.100000000000D+01
0.613968560277D-06 0.000000000000D+00 -.655998524456D-06 0.973280526515D-08 0.000000000000D+00  7 2 -2 23 -13 13 23 21 2 0.22203965D+00 0.31093159D-01 0.39776466D+05 0.39776466D+05 0.39776466D+05 0.11561375D+01  1  2  5  2  7  2       -2 0.142044301149D-04 0.100000000000D+01
0.109795013937D-06 0.000000000000D+00 -.105922409401D-06 0.973280526515D-08 0.000000000000D+00  7 2 21 23 -13 13 23 2 2 0.22203965D+00 0.31093159D-01 0.39776466D+05 0.39776466D+05 0.39776466D+05 0.11561375D+01  1  2  5  4  7  2       -2 0.307070317452D-04 0.100000000000D+01
  </mgrwgt>
  </event>
  <event>
  8     66 -.25765000E-05 0.18518385E+03 0.75467711E-02 0.10549365E+00
        2 -1    0    0  501    0 0.00000000E+00 0.00000000E+00 0.17970565E+04 0.17970565E+04 0.32000000E+00 0.0000E+00 0.9000E+01
       -2 -1    0    0    0  501 0.00000000E+00 0.00000000E+00 -.41649457E+02 0.41650686E+02 0.32000000E+00 0.0000E+00 0.9000E+01
       25  2    1    2    0    0 -.75353036E+01 -.14200504E+03 0.76537066E+03 0.83412124E+03 0.29957267E+03 0.0000E+00 0.0000E+00
       23  2    1    2    0    0 0.75353036E+01 0.14200504E+03 0.99003638E+03 0.10045860E+04 0.93801503E+02 0.0000E+00 0.0000E+00
       23  1    3    3    0    0 -.16992214E+02 0.19573792E+02 0.80081042E+02 0.12409711E+03 0.91188000E+02 0.0000E+00 0.9000E+01
      -11  1    4    4    0    0 0.86014234E-01 0.89805928E+02 0.85366585E+03 0.85837666E+03 0.51099893E-03 0.0000E+00 0.9000E+01
       11  1    4    4    0    0 0.74492894E+01 0.52199117E+02 0.13637053E+03 0.14620930E+03 0.51099893E-03 0.0000E+00 0.9000E+01
       23  1    3    3    0    0 0.94569103E+01 -.16157884E+03 0.68528962E+03 0.71002413E+03 0.91188000E+02 0.0000E+00 0.9000E+01
#aMCatNLO 1  0  0  2  2 0.98180752D+00 0.00000000D+00  -5  7  0 0.00000000D+00 0.00000000D+00 0.00000000D+00 0.00000000D+00 0.00000000D+00
  <mgrwgt>
 -.1396871857D-03   10    2    0
 0.273582863697900D+03 0.000000000000000D+00 0.000000000000000D+00 0.273582863697900D+03
 0.273582863697900D+03 0.000000000000000D+00 0.000000000000000D+00 -.273582863697900D+03
 0.160104016133025D+03 -.169922139479319D+02 0.195737915174699D+02 -.129020060411946D+03
 0.145791875223685D+03 0.860142383305567D-01 0.898059276755183D+02 0.114848416781116D+03
 0.538233947958610D+02 0.744928938649012D+01 0.521991167962049D+02 -.108036160929385D+02
 0.187446441243230D+03 0.945691032311125D+01 -.161578835989193D+03 0.249752597237691D+02
 0.000000000000000D+00 0.000000000000000D+00 0.000000000000000D+00 -.000000000000000D+00
 0.273710322762262D+03 0.000000000000000D+00 0.000000000000000D+00 0.273710322762262D+03
 0.275480557202597D+03 0.000000000000000D+00 0.000000000000000D+00 -.275480557202597D+03
 0.160119119744922D+03 -.172579329732314D+02 0.194645555992944D+02 -.129020060411946D+03
 0.145730697146264D+03 -.155889250530607D+00 0.897064822192292D+02 0.114848416781116D+03
 0.537755058806986D+02 0.736000453537315D+01 0.521624121880951D+02 -.108036160929385D+02
 0.187541285476994D+03 0.914574800509142D+01 -.161706753444378D+03 0.249752597237691D+02
 0.202427171598010D+01 0.908069683297430D+00 0.373303437759339D+00 -.177023444033556D+01
0.890724617498D-06 0.000000000000D+00 0.000000000000D+00 0.469954414817D-07 0.000000000000D+00  7 2 -2 23 -11 11 23 21 0 0.27647033D+00 0.64077055D-02 0.44755415D+05 0.44755415D+05 0.44755415D+05 0.11515526D+01  1  2  2  2  7  2       -2 0.122817560332D-03 0.100000000000D+01
-.455070517003D-07 0.000000000000D+00 -.342061706437D-08 0.469954414817D-07 0.000000000000D+00  7 2 -2 23 -11 11 23 21 2 0.27647033D+00 0.64077055D-02 0.44755415D+05 0.44755415D+05 0.44755415D+05 0.11515526D+01  1  2  3  2  7  2       -2 -.832076524374D-05 0.100000000000D+01
0.561277841570D-07 0.000000000000D+00 0.000000000000D+00 0.469954414817D-07 0.000000000000D+00  7 2 -2 23 -11 11 23 21 2 0.27647033D+00 0.64077055D-02 0.44755415D+05 0.44755415D+05 0.44755415D+05 0.11515526D+01  1  2 15  2  7  2       -2 0.102627196923D-04 0.100000000000D+01
-.128340978268D-03 0.000000000000D+00 0.000000000000D+00 0.469954414817D-07 0.000000000000D+00  7 2 -2 23 -11 11 23 21 2 0.27647033D+00 0.64077055D-02 0.44755415D+05 0.44755415D+05 0.44755415D+05 0.11515526D+01  1  2  4  2  7  2       -2 -.234665861975D-01 0.100000000000D+01
-.255386585154D-03 0.000000000000D+00 -.154469835396D-04 0.469954414817D-07 0.000000000000D+00  7 2 -2 23 -11 11 23 21 2 0.27647033D+00 0.64551181D-02 0.44755415D+05 0.44755415D+05 0.44755415D+05 0.11515526D+01  1  2  5  2  7  2       -2 -.461867856894D-01 0.100000000000D+01
0.255493938475D-03 0.000000000000D+00 0.154465637965D-04 0.469954414817D-07 0.000000000000D+00  7 2 -2 23 -11 11 23 21 2 0.27647033D+00 0.64077055D-02 0.44755415D+05 0.44755415D+05 0.44755415D+05 0.11515526D+01  1  2  6  2  7  2       -2 0.467159484919D-01 0.100000000000D+01
0.128343875793D-03 0.000000000000D+00 0.000000000000D+00 0.469954414817D-07 0.344705135808D-06  7 2 -2 23 -11 11 23 21 2 0.27659913D+00 0.64521522D-02 0.44957630D+05 0.44957630D+05 0.44957630D+05 0.11513785D+01  1  2 11  2  7  2       -2 0.231955877082D-01 0.100000000000D+01
0.136353536131D-11 0.000000000000D+00 0.000000000000D+00 0.469954414817D-07 0.000000000000D+00  7 2 21 23 -11 11 23 2 2 0.27647033D+00 0.64536393D-02 0.44957630D+05 0.44957630D+05 0.44957630D+05 0.11513785D+01  1  2 12  4  7  2       -2 0.392816143921D-08 0.100000000000D+01
-.348828109555D-06 0.000000000000D+00 -.211176335064D-07 0.469954414817D-07 0.000000000000D+00  7 2 21 23 -11 11 23 2 2 0.27647033D+00 0.64551181D-02 0.44755415D+05 0.44755415D+05 0.44755415D+05 0.11515526D+01  1  2  5  4  7  2       -2 -.100497067650D-02 0.100000000000D+01
0.167540509121D-06 0.000000000000D+00 0.000000000000D+00 0.469954414817D-07 0.442243936846D-09  7 2 21 23 -11 11 23 2 2 0.27659913D+00 0.64521522D-02 0.44957630D+05 0.44957630D+05 0.44957630D+05 0.11513785D+01  1  2 11  4  7  2       -2 0.482355734696D-03 0.100000000000D+01
  </mgrwgt>
  </event>
  <event>
  9     66 0.25765000E-05 0.30728357E+03 0.75467711E-02 0.96130184E-01
        2 -1    0    0  502    0 0.00000000E+00 0.00000000E+00 0.79862558E+03 0.79862565E+03 0.32000000E+00 0.0000E+00 0.9000E+01
       -2 -1    0    0    0  501 0.00000000E+00 0.00000000E+00 -.31347655E+03 0.31347672E+03 0.32000000E+00 0.0000E+00 0.9000E+01
       25  2    1    2    0    0 0.12629025E+03 0.64036996E+02 0.29270141E+03 0.44266645E+03 0.30038226E+03 0.0000E+00 0.0000E+00
       23  2    1    2    0    0 -.35483895E+03 -.41458671E+02 -.19169165E+01 0.36856646E+03 0.90598343E+02 0.0000E+00 0.0000E+00
       23  1    3    3    0    0 0.14293760E+03 0.89088217E+02 0.28883619E+03 0.34656812E+03 0.91188000E+02 0.0000E+00 0.9000E+01
      -13  1    4    4    0    0 -.25050708E+03 -.50950097E+02 0.33847962E+02 0.25786703E+03 0.10565837E+00 0.0000E+00 0.9000E+01
       13  1    4    4    0    0 -.10433187E+03 0.94914266E+01 -.35764879E+02 0.11069943E+03 0.10565837E+00 0.0000E+00 0.9000E+01
       23  1    3    3    0    0 -.16647348E+02 -.25051221E+02 0.38652271E+01 0.96098331E+02 0.91188000E+02 0.0000E+00 0.9000E+01
       21  1    1    2  502  501 0.22854870E+03 -.22578325E+02 0.19436454E+03 0.30086945E+03 0.75000000E+00 0.0000E+00 0.9000E+01
#aMCatNLO 2  0  0  1  2 0.22966125D+03 0.00000000D+00  -5  7  0 0.00000000D+00 0.00000000D+00 0.00000000D+00 0.00000000D+00 0.00000000D+00
  <mgrwgt>
 0.3635021677D-04    2    2    0
 0.360832000334850D+03 0.000000000000000D+00 0.000000000000000D+00 0.360832000334850D+03
 0.360832000334850D+03 0.000000000000000D+00 0.000000000000000D+00 -.360832000334850D+03
 0.315680318606033D+03 0.231949336367235D+03 0.802947476966304D+02 0.176326603387975D+03
 0.198492861103142D+03 -.179157783667668D+03 -.579987957652056D+02 -.627538377311395D+02
 0.105511138265389D+03 -.675809356095361D+02 0.586090349076164D+01 -.808150187184893D+02
 0.101979682695135D+03 0.147893829099694D+02 -.281568554221864D+02 -.327577469383463D+02
 0.000000000000000D+00 0.000000000000000D+00 -.000000000000000D+00 0.000000000000000D+00
 0.548829429088341D+03 0.000000000000000D+00 0.000000000000000D+00 0.548829429088341D+03
 0.456152534891731D+03 0.000000000000000D+00 0.000000000000000D+00 -.456152534891731D+03
 0.260334765813059D+03 0.142937600219245D+03 0.890882165505815D+02 0.176326603387975D+03
 0.263225877524638D+03 -.250507280666981D+03 -.509501794056122D+02 -.627538377311395D+02
 0.132311201623162D+03 -.104331673464962D+03 0.949150865224418D+01 -.808150187184893D+02
 0.101454517913098D+03 -.166473483108443D+02 -.250512209426987D+02 -.327577469383463D+02
 0.247655601106115D+03 0.228548702223543D+03 -.225783248545148D+02 0.926768941966102D+02
-.255455813395D-06 0.000000000000D+00 0.000000000000D+00 0.379989095082D-06 0.000000000000D+00  7 2 -2 23 -13 13 23 21 2 0.12904880D+00 0.38149277D-01 0.19254931D+06 0.19254931D+06 0.19254931D+06 0.10990940D+01  1  2 13  1  7  1        2 -.800625782553D-05 0.100000000000D+01
0.207602170325D-05 0.000000000000D+00 0.000000000000D+00 0.379989095082D-06 0.536004216640D-10  7 2 -2 23 -13 13 23 21 2 0.12286535D+00 0.48227123D-01 0.19254931D+06 0.19254931D+06 0.19254931D+06 0.10990940D+01  1  2  1  1  7  1        2 0.443564745998D-04 0.100000000000D+01
  </mgrwgt>
  </event>
  <event>
  8     66 0.25765000E-05 0.38559313E+03 0.75467711E-02 0.91685286E-01
        2 -1    0    0  501    0 0.00000000E+00 0.00000000E+00 0.18338092E+04 0.18338093E+04 0.32000000E+00 0.0000E+00 0.9000E+01
       -2 -1    0    0    0  501 0.00000000E+00 0.00000000E+00 -.20960495E+03 0.20960519E+03 0.32000000E+00 0.0000E+00 0.9000E+01
       25  2    1    2    0    0 0.16587163E+03 -.55434113E+03 0.92581238E+03 0.11318097E+04 0.29842464E+03 0.0000E+00 0.0000E+00
       23  2    1    2    0    0 -.16587163E+03 0.55434113E+03 0.69839192E+03 0.91160472E+03 0.92002184E+02 0.0000E+00 0.0000E+00
       23  1    3    3    0    0 0.14676279E+03 -.12909558E+03 0.31195626E+03 0.37925842E+03 0.91188000E+02 0.0000E+00 0.9000E+01
      -11  1    4    4    0    0 -.14541925E+03 0.53651729E+03 0.64330124E+03 0.85019647E+03 0.51099893E-03 0.0000E+00 0.9000E+01
       11  1    4    4    0    0 -.20452379E+02 0.17823838E+02 0.55090686E+02 0.61408246E+02 0.51099893E-03 0.0000E+00 0.9000E+01
       23  1    3    3    0    0 0.19108837E+02 -.42524555E+03 0.61385611E+03 0.75255133E+03 0.91188000E+02 0.0000E+00 0.9000E+01
#aMCatNLO 1  0  0  1  2 0.71096373D+02 0.00000000D+00  -5  7  0 0.00000000D+00 0.00000000D+00 0.00000000D+00 0.00000000D+00 0.00000000D+00
  <mgrwgt>
 0.6057521993D-03    9    2    0
 0.619980456088618D+03 0.000000000000000D+00 0.000000000000000D+00 0.619980456088618D+03
 0.619980456088618D+03 0.000000000000000D+00 0.000000000000000D+00 -.619980456088618D+03
 0.216378944296525D+03 0.146762793421094D+03 -.129095579634492D+03 0.173092454182849D+02
 0.558445935565211D+03 -.145419251019596D+03 0.536517287577970D+03 -.535191976040532D+02
 0.290363744192373D+02 -.204523791186881D+02 0.178238379768987D+02 0.103499771774075D+02
 0.436099657896261D+03 0.191088367171893D+02 -.425245545920376D+03 0.258599750083609D+02
 0.000000000000000D+00 -.000000000000000D+00 0.000000000000000D+00 0.000000000000000D+00
 0.745384779646259D+03 0.000000000000000D+00 0.000000000000000D+00 0.745384779646259D+03
 0.631158031604818D+03 0.000000000000000D+00 0.000000000000000D+00 -.631158031604818D+03
 0.227134039243428D+03 0.158742179236033D+03 -.133326407712349D+03 0.173092454182849D+02
 0.541256626243679D+03 -.115716036551245D+03 0.526026833750313D+03 -.535191976040532D+02
 0.276379760350287D+02 -.189215921178571D+02 0.172832011926440D+02 0.103499771774075D+02
 0.445968845595111D+03 0.429337061363212D+02 -.433659911067881D+03 0.258599750083609D+02
 0.134545324133830D+03 -.670382567032530D+02 0.236762838372741D+02 0.114226748041441D+03
0.406438157682D-04 0.000000000000D+00 0.000000000000D+00 0.207374390218D-06 0.000000000000D+00  7 2 -2 23 -11 11 23 21 0 0.28212452D+00 0.32246936D-01 0.38070280D+06 0.38070280D+06 0.38070280D+06 0.10769791D+01  1  2  2  1  7  1        2 0.374249401475D-03 0.100000000000D+01
-.225792648998D-05 0.000000000000D+00 -.156082954312D-06 0.207374390218D-06 0.000000000000D+00  7 2 -2 23 -11 11 23 21 2 0.28212452D+00 0.32246936D-01 0.38070280D+06 0.38070280D+06 0.38070280D+06 0.10769791D+01  1  2  3  1  7  1        2 -.241152061285D-04 0.100000000000D+01
0.253340495108D-05 0.000000000000D+00 0.000000000000D+00 0.207374390218D-06 0.000000000000D+00  7 2 -2 23 -11 11 23 21 2 0.28212452D+00 0.32246936D-01 0.38070280D+06 0.38070280D+06 0.38070280D+06 0.10769791D+01  1  2 15  1  7  1        2 0.270573833441D-04 0.100000000000D+01
0.144399058209D-03 0.000000000000D+00 0.000000000000D+00 0.207374390218D-06 0.000000000000D+00  7 2 -2 23 -11 11 23 21 2 0.34139068D+00 0.32246936D-01 0.42707491D+06 0.42707491D+06 0.42707491D+06 0.10733831D+01  1  2 12  1  7  1        2 0.933010438334D-03 0.100000000000D+01
-.145614225695D-03 0.000000000000D+00 0.000000000000D+00 0.207374390218D-06 0.000000000000D+00  7 2 -2 23 -11 11 23 21 2 0.28212452D+00 0.32246936D-01 0.38070280D+06 0.38070280D+06 0.38070280D+06 0.10769791D+01  1  2  4  1  7  1        2 -.155519547844D-02 0.100000000000D+01
-.202895399872D-03 0.000000000000D+00 -.245020439953D-04 0.207374390218D-06 0.000000000000D+00  7 2 -2 23 -11 11 23 21 2 0.34118511D+00 0.32246936D-01 0.38070280D+06 0.38070280D+06 0.38070280D+06 0.10769791D+01  1  2  5  1  7  1        2 -.132963886089D-02 0.100000000000D+01
0.204287234162D-03 0.000000000000D+00 0.240659918775D-04 0.207374390218D-06 0.000000000000D+00  7 2 -2 23 -11 11 23 21 2 0.28212452D+00 0.32246936D-01 0.38070280D+06 0.38070280D+06 0.38070280D+06 0.10769791D+01  1  2  6  1  7  1        2 0.218183753241D-02 0.100000000000D+01
0.398305832385D-05 0.000000000000D+00 0.000000000000D+00 0.207374390218D-06 0.000000000000D+00  7 21 -2 23 -11 11 23 -2 2 0.34139068D+00 0.32246936D-01 0.42707491D+06 0.42707491D+06 0.42707491D+06 0.10733831D+01  1  2 12  3  7  1        2 0.396848138266D-05 0.100000000000D+01
-.532448276570D-05 0.000000000000D+00 -.674203275884D-06 0.207374390218D-06 0.000000000000D+00  7 21 -2 23 -11 11 23 -2 2 0.34118511D+00 0.32246936D-01 0.38070280D+06 0.38070280D+06 0.38070280D+06 0.10769791D+01  1  2  5  3  7  1        2 -.542149218646D-05 0.100000000000D+01
  </mgrwgt>
  </event>
  <event>
  8     66 0.25765000E-05 0.42579817E+03 0.75467711E-02 0.95644004E-01
        2 -1    0    0  501    0 0.00000000E+00 0.00000000E+00 0.12295148E+04 0.12295148E+04 0.32000000E+00 0.0000E+00 0.9000E+01
       -2 -1    0    0    0  501 0.00000000E+00 0.00000000E+00 -.29903874E+03 0.29903891E+03 0.32000000E+00 0.0000E+00 0.9000E+01
       25  2    1    2    0    0 -.35992838E+03 -.17741952E+03 0.99294994E+03 0.11121416E+04 0.29980514E+03 0.0000E+00 0.0000E+00
       23  2    1    2    0    0 0.35992838E+03 0.17741952E+03 -.62473879E+02 0.41641219E+03 0.92032600E+02 0.0000E+00 0.0000E+00
       23  1    3    3    0    0 -.16767373E+03 -.81019950E+02 0.21012719E+03 0.29520739E+03 0.91188000E+02 0.0000E+00 0.9000E+01
      -13  1    4    4    0    0 0.18454681E+03 0.42517152E+02 -.13974663E+02 0.18989612E+03 0.10565837E+00 0.0000E+00 0.9000E+01
       13  1    4    4    0    0 0.17538157E+03 0.13490237E+03 -.48499216E+02 0.22651607E+03 0.10565837E+00 0.0000E+00 0.9000E+01
       23  1    3    3    0    0 -.19225465E+03 -.96399574E+02 0.78282275E+03 0.81693417E+03 0.91188000E+02 0.0000E+00 0.9000E+01
#aMCatNLO 1  0  0  1  1 0.60766460D+02 0.00000000D+00  -5  7  0 0.00000000D+00 0.00000000D+00 0.00000000D+00 0.00000000D+00 0.00000000D+00
  <mgrwgt>
 0.1214596078D-03    4    2    0
 0.606360217313729D+03 0.000000000000000D+00 0.000000000000000D+00 0.606360217313729D+03
 0.606360217313729D+03 0.000000000000000D+00 0.000000000000000D+00 -.606360217313729D+03
 0.210866434044951D+03 -.167673731183272D+03 -.810199504017386D+02 0.383495654579442D+02
 0.250073630131487D+03 0.184546825941894D+03 0.425170301717942D+02 -.163314395162468D+03
 0.322720267221882D+03 0.175381557407667D+03 0.134902493840244D+03 -.234927642802432D+03
 0.429060103229138D+03 -.192254652166289D+03 -.963995736103000D+02 0.359892472506956D+03
 0.000000000000000D+00 0.000000000000000D+00 -.000000000000000D+00 -.000000000000000D+00
 0.619851866378477D+03 0.000000000000000D+00 0.000000000000000D+00 0.619851866378477D+03
 0.679632704896042D+03 0.000000000000000D+00 0.000000000000000D+00 -.679632704896042D+03
 0.219357772591680D+03 -.178436515350490D+03 -.805748215706665D+02 0.383495654579442D+02
 0.241236114449245D+03 0.172255884013006D+03 0.430253607792448D+02 -.163314395162468D+03
 0.314624042759593D+03 0.159437314515895D+03 0.135561918213202D+03 -.234927642802432D+03
 0.439023979895462D+03 -.213971239660767D+03 -.955014157492759D+02 0.359892472506956D+03
 0.852426615785392D+02 0.607145564823555D+02 -.251104167250437D+01 -.597808385175649D+02
0.182845633873D-04 0.000000000000D+00 0.000000000000D+00 0.961817513611D-06 0.000000000000D+00  7 2 -2 23 -13 13 23 21 0 0.18915614D+00 0.46005976D-01 0.18130408D+06 0.18130408D+06 0.18130408D+06 0.11011140D+01  1  2  2  1  7  1        2 0.192209416400D-03 0.100000000000D+01
-.861463581659D-06 0.000000000000D+00 -.702175378435D-07 0.961817513611D-06 0.000000000000D+00  7 2 -2 23 -13 13 23 21 2 0.18915614D+00 0.46005976D-01 0.18130408D+06 0.18130408D+06 0.18130408D+06 0.11011140D+01  1  2  3  1  7  1        2 -.109797268756D-04 0.100000000000D+01
0.115151483891D-05 0.000000000000D+00 0.000000000000D+00 0.961817513611D-06 0.000000000000D+00  7 2 -2 23 -13 13 23 21 2 0.18915614D+00 0.46005976D-01 0.18130408D+06 0.18130408D+06 0.18130408D+06 0.11011140D+01  1  2 15  1  7  1        2 0.146765559145D-04 0.100000000000D+01
-.584104394108D-05 0.000000000000D+00 0.000000000000D+00 0.961817513611D-06 0.000000000000D+00  7 2 -2 23 -13 13 23 21 2 0.18915614D+00 0.46005976D-01 0.18130408D+06 0.18130408D+06 0.18130408D+06 0.11011140D+01  1  2  4  1  7  1        2 -.744466376838D-04 0.100000000000D+01
  </mgrwgt>
  </event>
  <event>
  9     66 -.25765000E-05 0.31330872E+03 0.75467711E-02 0.10007171E+00
        2 -1    0    0  502    0 0.00000000E+00 0.00000000E+00 0.37293586E+04 0.37293586E+04 0.32000000E+00 0.0000E+00 0.9000E+01
       -2 -1    0    0    0  501 0.00000000E+00 0.00000000E+00 -.59282372E+02 0.59283236E+02 0.32000000E+00 0.0000E+00 0.9000E+01
       25  2    1    2    0    0 -.17220437E+03 -.17300123E+03 0.32464201E+04 0.32694915E+04 0.30124332E+03 0.0000E+00 0.0000E+00
       23  2    1    2    0    0 0.16784913E+03 0.16448391E+03 0.28657725E+03 0.38173602E+03 0.91474481E+02 0.0000E+00 0.0000E+00
       23  1    3    3    0    0 0.36547996E+02 -.19748450E+02 0.12921966E+04 0.12960760E+04 0.91188000E+02 0.0000E+00 0.9000E+01
      -13  1    4    4    0    0 0.11470179E+02 -.11036382E+02 0.10200985E+02 0.18906031E+02 0.10565837E+00 0.0000E+00 0.9000E+01
       13  1    4    4    0    0 0.15637896E+03 0.17552029E+03 0.27637627E+03 0.36282999E+03 0.10565837E+00 0.0000E+00 0.9000E+01
       23  1    3    3    0    0 -.20875236E+03 -.15325278E+03 0.19542236E+04 0.19734156E+04 0.91188000E+02 0.0000E+00 0.9000E+01
       21  1    1    2  502  501 0.43552329E+01 0.85173248E+01 0.13707883E+03 0.13741426E+03 0.75000000E+00 0.0000E+00 0.9000E+01
#aMCatNLO 2  0  0  1  2 0.95662362D+01 0.00000000D+00  -5  7  0 0.00000000D+00 0.00000000D+00 0.00000000D+00 0.00000000D+00 0.00000000D+00
  <mgrwgt>
 -.2715152036D-03    3    2    0
 0.460787566896135D+03 0.000000000000000D+00 0.000000000000000D+00 0.460787566896135D+03
 0.460787566896135D+03 0.000000000000000D+00 0.000000000000000D+00 -.460787566896135D+03
 0.181137993864750D+03 0.374040051547715D+02 -.180743923784445D+02 0.150897243897554D+03
 0.357493339480045D+02 0.116390352801733D+02 -.107060279470767D+02 -.320613271882067D+02
 0.380343039640311D+03 0.158170920584543D+03 0.179024621535230D+03 -.295961099755419D+03
 0.324344766339205D+03 -.207213961019488D+03 -.150244201209708D+03 0.177125183046071D+03
 0.000000000000000D+00 0.000000000000000D+00 0.000000000000000D+00 0.000000000000000D+00
 0.478411315699874D+03 0.000000000000000D+00 0.000000000000000D+00 0.478411315699874D+03
 0.462112369608563D+03 0.000000000000000D+00 0.000000000000000D+00 -.462112369608563D+03
 0.181138032517399D+03 0.365479957442503D+02 -.197484498499167D+02 0.150897243897554D+03
 0.357952020732636D+02 0.114699851867482D+02 -.110366312891347D+02 -.320613271882067D+02
 0.377961466665677D+03 0.156379149266080D+03 0.175520538372151D+03 -.295961099755419D+03
 0.326730081450855D+03 -.208752363110920D+03 -.153252782054307D+03 0.177125183046071D+03
 0.188989026012418D+02 0.435523291384217D+01 0.851732482120707D+01 0.162989460913110D+02
-.656868155183D-04 0.000000000000D+00 0.000000000000D+00 0.275715770444D-06 0.000000000000D+00  7 2 -2 23 -13 13 23 21 2 0.57451560D+00 0.90941396D-02 0.10090783D+06 0.10090783D+06 0.10090783D+06 0.11214001D+01  1  2 13  1  7  1        2 -.439101092738D-03 0.100000000000D+01
-.155489590630D-03 0.000000000000D+00 0.000000000000D+00 0.275715770444D-06 0.000000000000D+00  7 2 -2 23 -13 13 23 21 2 0.55260292D+00 0.90941396D-02 0.98162353D+05 0.98162353D+05 0.98162353D+05 0.11223837D+01  1  2  8  1  7  1        2 -.132575035109D-02 0.100000000000D+01
0.222440227450D-03 0.000000000000D+00 0.000000000000D+00 0.275715770444D-06 0.202175541517D-07  7 2 -2 23 -13 13 23 21 2 0.57373833D+00 0.91202860D-02 0.10090783D+06 0.10090783D+06 0.10090783D+06 0.11214001D+01  1  2  1  1  7  1        2 0.149333624023D-02 0.100000000000D+01
  </mgrwgt>
  </event>
  <event>
  8     66 0.25765000E-05 0.21923889E+03 0.75467711E-02 0.99161807E-01
        2 -1    0    0  501    0 0.00000000E+00 0.00000000E+00 0.19482844E+04 0.19482844E+04 0.32000000E+00 0.0000E+00 0.9000E+01
       -2 -1    0    0    0  501 0.00000000E+00 0.00000000E+00 -.59186635E+02 0.59187500E+02 0.32000000E+00 0.0000E+00 0.9000E+01
       25  2    1    2    0    0 0.73303828E+02 -.20777683E+03 0.67907864E+03 0.77430231E+03 0.29975259E+03 0.0000E+00 0.0000E+00
       23  2    1    2    0    0 -.73303828E+02 0.20777683E+03 0.12100191E+04 0.12331696E+04 0.89534028E+02 0.0000E+00 0.0000E+00
       23  1    3    3    0    0 0.10113029E+02 -.70425672E+01 0.50012005E+02 0.10472976E+03 0.91188000E+02 0.0000E+00 0.9000E+01
      -11  1    4    4    0    0 0.17928560E+02 0.66164354E+02 0.30533215E+03 0.31293271E+03 0.51099893E-03 0.0000E+00 0.9000E+01
       11  1    4    4    0    0 -.91232388E+02 0.14161248E+03 0.90468697E+03 0.92023691E+03 0.51099893E-03 0.0000E+00 0.9000E+01
       23  1    3    3    0    0 0.63190799E+02 -.20073427E+03 0.62906663E+03 0.66957255E+03 0.91188000E+02 0.0000E+00 0.9000E+01
#aMCatNLO 1  0  0  2  1 0.11656118D+03 0.00000000D+00  -5  7  0 0.00000000D+00 0.00000000D+00 0.00000000D+00 0.00000000D+00 0.00000000D+00
  <mgrwgt>
 0.2180864368D-03    9    2    0
 0.339578110359642D+03 0.000000000000000D+00 0.000000000000000D+00 0.339578110359642D+03
 0.339578110359642D+03 0.000000000000000D+00 0.000000000000000D+00 -.339578110359642D+03
 0.170453405618281D+03 0.101130285641825D+02 -.704256724836127D+01 -.143482546125592D+03
 0.756841110982666D+02 0.179285599705821D+02 0.661643535188602D+02 0.320769346033453D+02
 0.203646246635327D+03 -.912323877161137D+02 0.141612479612544D+03 0.114430550196440D+03
 0.229372457367410D+03 0.631907991813491D+02 -.200734265883043D+03 -.302493867419356D+01
 0.000000000000000D+00 -.000000000000000D+00 0.000000000000000D+00 -.000000000000000D+00
 0.368232778623919D+03 0.000000000000000D+00 0.000000000000000D+00 0.368232778623919D+03
 0.487922852592209D+03 0.000000000000000D+00 0.000000000000000D+00 -.487922852592209D+03
 0.175044643027439D+03 0.361491609112930D+02 -.207695168776400D+02 -.143482546125592D+03
 0.742165934508886D+02 0.292248164845196D+02 0.602086630922274D+02 0.320769346033453D+02
 0.181437949603295D+03 -.622131121012451D+02 0.126312736573418D+03 0.114430550196440D+03
 0.258386933414093D+03 0.999474989708618D+02 -.220113387168127D+03 -.302493867419356D+01
 0.167069511720413D+03 -.103108364265429D+03 0.543615043801214D+02 -.119690073968290D+03
0.309919475326D-05 0.000000000000D+00 0.000000000000D+00 0.138909076871D-06 0.000000000000D+00  7 2 -2 23 -11 11 23 21 0 0.29973613D+00 0.91057048D-02 0.77945916D+05 0.77945916D+05 0.77945916D+05 0.11307113D+01  1  2  2  2  7  2       -2 0.207790452878D-03 0.100000000000D+01
-.164150243006D-06 0.000000000000D+00 -.119017238893D-07 0.138909076871D-06 0.000000000000D+00  7 2 -2 23 -11 11 23 21 2 0.29973613D+00 0.91057048D-02 0.77945916D+05 0.77945916D+05 0.77945916D+05 0.11307113D+01  1  2  3  2  7  2       -2 -.140708949129D-04 0.100000000000D+01
0.191908013572D-06 0.000000000000D+00 0.000000000000D+00 0.138909076871D-06 0.000000000000D+00  7 2 -2 23 -11 11 23 21 2 0.29973613D+00 0.91057048D-02 0.77945916D+05 0.77945916D+05 0.77945916D+05 0.11307113D+01  1  2 15  2  7  2       -2 0.164502801973D-04 0.100000000000D+01
0.264314324745D-05 0.000000000000D+00 0.000000000000D+00 0.138909076871D-06 0.000000000000D+00  7 2 -2 23 -11 11 23 21 2 0.29973613D+00 0.13336264D-01 0.11659706D+06 0.11659706D+06 0.11659706D+06 0.11162903D+01  1  2 12  2  7  2       -2 0.120852745576D-03 0.100000000000D+01
-.334070008527D-05 0.000000000000D+00 0.000000000000D+00 0.138909076871D-06 0.000000000000D+00  7 2 -2 23 -11 11 23 21 2 0.29973613D+00 0.91057048D-02 0.77945916D+05 0.77945916D+05 0.77945916D+05 0.11307113D+01  1  2  4  2  7  2       -2 -.286363510492D-03 0.100000000000D+01
-.381143755835D-05 0.000000000000D+00 -.119737905713D-05 0.138909076871D-06 0.000000000000D+00  7 2 -2 23 -11 11 23 21 2 0.29973613D+00 0.14288565D-01 0.77945916D+05 0.77945916D+05 0.77945916D+05 0.11307113D+01  1  2  5  2  7  2       -2 -.162053224607D-03 0.100000000000D+01
0.404536294676D-05 0.000000000000D+00 0.108533926858D-05 0.138909076871D-06 0.000000000000D+00  7 2 -2 23 -11 11 23 21 2 0.29973613D+00 0.91057048D-02 0.77945916D+05 0.77945916D+05 0.77945916D+05 0.11307113D+01  1  2  6  2  7  2       -2 0.346766936594D-03 0.100000000000D+01
0.121553737257D-06 0.000000000000D+00 0.000000000000D+00 0.138909076871D-06 0.000000000000D+00  7 2 21 23 -11 11 23 2 2 0.29973613D+00 0.13336264D-01 0.11659706D+06 0.11659706D+06 0.11659706D+06 0.11162903D+01  1  2 12  4  7  2       -2 0.767047379002D-04 0.100000000000D+01
-.150526132702D-06 0.000000000000D+00 -.622805543970D-07 0.138909076871D-06 0.000000000000D+00  7 2 21 23 -11 11 23 2 2 0.29973613D+00 0.14288565D-01 0.77945916D+05 0.77945916D+05 0.77945916D+05 0.11307113D+01  1  2  5  4  7  2       -2 -.879910863323D-04 0.100000000000D+01
  </mgrwgt>
  </event>
  <event>
  8     66 0.25765000E-05 0.68409211E+03 0.75467711E-02 0.90304357E-01
        2 -1    0    0  501    0 0.00000000E+00 0.00000000E+00 0.46821542E+03 0.46821553E+03 0.32000000E+00 0.0000E+00 0.9000E+01
       -2 -1    0    0    0  501 0.00000000E+00 0.00000000E+00 -.15341015E+04 0.15341015E+04 0.32000000E+00 0.0000E+00 0.9000E+01
       25  2    1    2    0    0 0.58975053E+03 -.29364675E+03 0.25821546E+02 0.72393992E+03 0.29897853E+03 0.0000E+00 0.0000E+00
       23  2    1    2    0    0 -.58975053E+03 0.29364675E+03 -.10917076E+04 0.12783771E+04 0.91588569E+02 0.0000E+00 0.0000E+00
       23  1    3    3    0    0 0.67103539E+02 -.32037452E+02 -.49455230E+02 0.12763367E+03 0.91188000E+02 0.0000E+00 0.9000E+01
      -11  1    4    4    0    0 -.40807511E+03 0.21093830E+03 -.83696150E+03 0.95473809E+03 0.51099893E-03 0.0000E+00 0.9000E+01
       11  1    4    4    0    0 -.18167541E+03 0.82708444E+02 -.25474609E+03 0.32363901E+03 0.51099893E-03 0.0000E+00 0.9000E+01
       23  1    3    3    0    0 0.52264699E+03 -.26160930E+03 0.75276775E+02 0.59630625E+03 0.91188000E+02 0.0000E+00 0.9000E+01
#aMCatNLO 1  0  0  2  1 0.11812916D+03 0.00000000D+00  -5  7  0 0.00000000D+00 0.00000000D+00 0.00000000D+00 0.00000000D+00 0.00000000D+00
  <mgrwgt>
 0.8604989257D-04    4    2    0
 0.847519973598865D+03 0.000000000000000D+00 0.000000000000000D+00 0.847519973598865D+03
 0.847519973598865D+03 0.000000000000000D+00 0.000000000000000D+00 -.847519973598865D+03
 0.119672363501791D+03 0.671035388965145D+02 -.320374519680104D+02 0.218389555855169D+02
 0.601509572498784D+03 -.408075113802274D+03 0.210938304432904D+03 -.388321386258731D+03
 0.222117248989806D+03 -.181675413675664D+03 0.827084435277938D+02 -.974137040348324D+02
 0.751740762207349D+03 0.522646988581423D+03 -.261609295992688D+03 0.463896134708046D+03
 0.000000000000000D+00 0.000000000000000D+00 -.000000000000000D+00 0.000000000000000D+00
 0.946392118451475D+03 0.000000000000000D+00 0.000000000000000D+00 0.946392118451475D+03
 0.885608982598105D+03 0.000000000000000D+00 0.000000000000000D+00 -.885608982598105D+03
 0.117599846780066D+03 0.668723397193176D+02 -.237828261166145D+02 0.218389555855169D+02
 0.618459502315013D+03 -.409263857507100D+03 0.253380646293752D+03 -.388321386258731D+03
 0.228772251165491D+03 -.182114762562408D+03 0.983947479613538D+02 -.974137040348324D+02
 0.734319634875697D+03 0.521198964218763D+03 -.209909720404272D+03 0.463896134708046D+03
 0.132849865913313D+03 0.330731613142702D+01 -.118082847734219D+03 0.607831358533697D+02
0.289052249835D-03 0.000000000000D+00 0.000000000000D+00 0.139600755739D-05 0.000000000000D+00  7 2 -2 23 -11 11 23 21 0 0.72033153D-01 0.23601562D+00 0.46798201D+06 0.46798201D+06 0.46798201D+06 0.10705476D+01  1  2  2  2  7  2       -2 0.166642489338D-03 0.100000000000D+01
-.151624483869D-04 0.000000000000D+00 -.111003674857D-05 0.139600755739D-05 0.000000000000D+00  7 2 -2 23 -11 11 23 21 2 0.72033153D-01 0.23601562D+00 0.46798201D+06 0.46798201D+06 0.46798201D+06 0.10705476D+01  1  2  3  2  7  2       -2 -.100182227202D-04 0.100000000000D+01
0.178518658420D-04 0.000000000000D+00 0.000000000000D+00 0.139600755739D-05 0.000000000000D+00  7 2 -2 23 -11 11 23 21 2 0.72033153D-01 0.23601562D+00 0.46798201D+06 0.46798201D+06 0.46798201D+06 0.10705476D+01  1  2 15  2  7  2       -2 0.117951905532D-04 0.100000000000D+01
-.124665253184D-03 0.000000000000D+00 0.000000000000D+00 0.139600755739D-05 0.000000000000D+00  7 2 -2 23 -11 11 23 21 2 0.72033153D-01 0.23601562D+00 0.46798201D+06 0.46798201D+06 0.46798201D+06 0.10705476D+01  1  2  4  2  7  2       -2 -.823695645984D-04 0.100000000000D+01
  </mgrwgt>
  </event>
  <event>
  8     66 0.25765000E-05 0.35114287E+03 0.75467711E-02 0.89432835E-01
        2 -1    0    0  501    0 0.00000000E+00 0.00000000E+00 0.33972463E+03 0.33972478E+03 0.32000000E+00 0.0000E+00 0.9000E+01
       -2 -1    0    0    0  501 0.00000000E+00 0.00000000E+00 -.10171450E+04 0.10171450E+04 0.32000000E+00 0.0000E+00 0.9000E+01
       25  2    1    2    0    0 0.14580666E+03 0.52530936E+03 -.38174499E+03 0.73011117E+03 0.30020590E+03 0.0000E+00 0.0000E+00
       23  2    1    2    0    0 -.14580666E+03 -.52530936E+03 -.29567534E+03 0.62675862E+03 0.90514944E+02 0.0000E+00 0.0000E+00
       23  1    3    3    0    0 0.15766281E+03 0.49083721E+03 -.30933160E+03 0.60809540E+03 0.91188000E+02 0.0000E+00 0.9000E+01
      -11  1    4    4    0    0 0.98991142E+01 -.14267939E+02 -.30535729E+01 0.17632097E+02 0.51099893E-03 0.0000E+00 0.9000E+01
       11  1    4    4    0    0 -.15570577E+03 -.51104142E+03 -.29262177E+03 0.60912652E+03 0.51099893E-03 0.0000E+00 0.9000E+01
       23  1    3    3    0    0 -.11856155E+02 0.34472151E+02 -.72413387E+02 0.12201577E+03 0.91188000E+02 0.0000E+00 0.9000E+01
#aMCatNLO 1  0  0  2  1 0.38817510D+03 0.00000000D+00  -5  7  0 0.00000000D+00 0.00000000D+00 0.00000000D+00 0.00000000D+00 0.00000000D+00
  <mgrwgt>
 0.2827087358D-03    7    2    0
 0.587834440437021D+03 0.000000000000000D+00 0.000000000000000D+00 0.587834440437021D+03
 0.587834440437021D+03 0.000000000000000D+00 0.000000000000000D+00 -.587834440437021D+03
 0.523581744085583D+03 0.157662811566064D+03 0.490837207645249D+03 -.662305335920632D+01
 0.185901895167330D+02 0.989911418581820D+01 -.142679387118519D+02 0.663540575390968D+01
 0.534399990476887D+03 -.155705770381623D+03 -.511041419685949D+03 0.132563289387239D+02
 0.990969567948405D+02 -.118561553702598D+02 0.344721507525522D+02 -.132686813334272D+02
 0.000000000000000D+00 -.000000000000000D+00 -.000000000000000D+00 -.000000000000000D+00
 0.666291066633719D+03 0.000000000000000D+00 0.000000000000000D+00 0.666291066633719D+03
 0.141639704922119D+04 0.000000000000000D+00 0.000000000000000D+00 -.141639704922119D+04
 0.641452538030905D+03 0.339343808819088D+03 0.536607884569957D+03 -.662305335920632D+01
 0.215958315568235D+02 0.161659137953637D+02 -.126891513614009D+02 0.663540575390968D+01
 0.471702504880268D+03 0.119064674627072D+01 -.471514692468552D+03 0.132563289387239D+02
 0.103343317601772D+03 0.197133456316643D+02 0.424254174831445D+02 -.132686813334272D+02
 0.844593923785141D+03 -.376413714992387D+03 -.948294582231486D+02 -.750105982587470D+03
0.956537402731D-04 0.000000000000D+00 0.000000000000D+00 0.168080987422D-05 0.000000000000D+00  7 2 -2 23 -11 11 23 21 0 0.52265343D-01 0.15648385D+00 0.34418503D+06 0.34418503D+06 0.34418503D+06 0.10801646D+01  1  2  2  2  7  2       -2 0.287805225026D-03 0.100000000000D+01
-.531407140248D-05 0.000000000000D+00 -.367335548857D-06 0.168080987422D-05 0.000000000000D+00  7 2 -2 23 -11 11 23 21 2 0.52265343D-01 0.15648385D+00 0.34418503D+06 0.34418503D+06 0.34418503D+06 0.10801646D+01  1  2  3  2  7  2       -2 -.186553742815D-04 0.100000000000D+01
0.613196295284D-05 0.000000000000D+00 0.000000000000D+00 0.168080987422D-05 0.000000000000D+00  7 2 -2 23 -11 11 23 21 2 0.52265343D-01 0.15648385D+00 0.34418503D+06 0.34418503D+06 0.34418503D+06 0.10801646D+01  1  2 15  2  7  2       -2 0.215266328398D-04 0.100000000000D+01
0.291112496437D-04 0.000000000000D+00 0.000000000000D+00 0.168080987422D-05 0.000000000000D+00  7 2 -2 23 -11 11 23 21 2 0.52265343D-01 0.37259905D+00 0.65946483D+06 0.65946483D+06 0.65946483D+06 0.10601161D+01  1  2 12  2  7  2       -2 0.332967620453D-05 0.100000000000D+01
-.894229878429D-04 0.000000000000D+00 -.249916040836D-04 0.168080987422D-05 0.000000000000D+00  7 2 -2 23 -11 11 23 21 2 0.52265343D-01 0.38975550D+00 0.34418503D+06 0.34418503D+06 0.34418503D+06 0.10801646D+01  1  2  5  2  7  2       -2 -.842191182275D-05 0.100000000000D+01
0.276020131911D-05 0.000000000000D+00 0.000000000000D+00 0.168080987422D-05 0.000000000000D+00  7 2 21 23 -11 11 23 2 2 0.52265343D-01 0.37259905D+00 0.65946483D+06 0.65946483D+06 0.65946483D+06 0.10601161D+01  1  2 12  4  7  2       -2 0.221663966124D-05 0.100000000000D+01
-.742994088560D-05 0.000000000000D+00 -.250898320374D-05 0.168080987422D-05 0.000000000000D+00  7 2 21 23 -11 11 23 2 2 0.52265343D-01 0.38975550D+00 0.34418503D+06 0.34418503D+06 0.34418503D+06 0.10801646D+01  1  2  5  4  7  2       -2 -.509215180038D-05 0.100000000000D+01
  </mgrwgt>
  </event>
  <event>
  7     66 0.25765000E-05 0.31954705E+03 0.75467711E-02 0.92201961E-01
        2 -1    0    0  501    0 0.00000000E+00 0.00000000E+00 0.60325148E+03 0.60325156E+03 0.32000000E+00 0.0000E+00 0.9000E+01
       -2 -1    0    0    0  501 0.00000000E+00 0.00000000E+00 -.21685219E+03 0.21685243E+03 0.32000000E+00 0.0000E+00 0.9000E+01
       25  2    1    2    0    0 0.18648883E+03 -.12970592E+03 0.94458559E+02 0.38758013E+03 0.29948994E+03 0.0000E+00 0.0000E+00
       23  1    3    3    0    0 0.19188546E+03 -.10556932E+03 -.21264388E+02 0.23818551E+03 0.91188000E+02 0.0000E+00 0.9000E+01
      -13  1    1    2    0    0 -.49456852E+02 -.57202841E+02 0.12790653E+03 0.14858747E+03 0.10565837E+00 0.0000E+00 0.9000E+01
       13  1    1    2    0    0 -.13703197E+03 0.18690876E+03 0.16403419E+03 0.28393639E+03 0.10565837E+00 0.0000E+00 0.9000E+01
       23  1    3    3    0    0 -.53966349E+01 -.24136601E+02 0.11572295E+03 0.14939462E+03 0.91188000E+02 0.0000E+00 0.9000E+01
#aMCatNLO 1  0  0  1  1 0.45628657D+03 0.00000000D+00  -5  7  0 0.00000000D+00 0.00000000D+00 0.00000000D+00 0.00000000D+00 0.00000000D+00
  <mgrwgt>
 0.5772404800D-03    5    2    0
 0.361685688996061D+03 0.000000000000000D+00 0.000000000000000D+00 0.361685688996061D+03
 0.361685688996061D+03 0.000000000000000D+00 0.000000000000000D+00 -.361685688996061D+03
 0.281403232529247D+03 0.191891763253993D+03 -.105573705092033D+03 -.151341573674662D+03
 0.100127301114681D+03 -.494601205502355D+02 -.571908537011060D+02 0.656382446185514D+02
 0.234283928202458D+03 -.137037416708297D+03 0.186902835383193D+03 0.343079518714588D+02
 0.107556916145735D+03 -.539422599546150D+01 -.241382765900545D+02 0.513953771846523D+02
 0.000000000000000D+00 0.000000000000000D+00 0.000000000000000D+00 0.000000000000000D+00
 0.153544277233675D+04 0.000000000000000D+00 0.000000000000000D+00 0.153544277233675D+04
 0.474612039332376D+03 0.000000000000000D+00 0.000000000000000D+00 -.474612039332376D+03
 0.302897720031922D+03 0.804707201245847D+02 -.232490792800153D+03 -.151341573674662D+03
 0.166075236488717D+03 -.100222598847515D+03 -.115013197931493D+03 0.656382446185514D+02
 0.245429825612328D+03 -.228514602599025D+03 0.827033260364596D+02 0.343079518714588D+02
 0.140853659722658D+03 -.527639339624118D+02 -.780959959929045D+02 0.513953771846523D+02
 0.115479836981350D+04 0.301030415284368D+03 0.342896660688091D+03 0.106083073300438D+04
0.119682107525D-04 0.000000000000D+00 0.000000000000D+00 0.685751059361D-10 0.000000000000D+00  7 2 -2 23 -13 13 23 21 0 0.92807944D-01 0.33361901D-01 0.10211032D+06 0.10211032D+06 0.10211032D+06 0.11209785D+01  1  2  2  1  7  1        2 0.598272136892D-03 0.100000000000D+01
-.652496139042D-06 0.000000000000D+00 -.459610805921D-07 0.685751059361D-10 0.000000000000D+00  7 2 -2 23 -13 13 23 21 2 0.92807944D-01 0.33361901D-01 0.10211032D+06 0.10211032D+06 0.10211032D+06 0.11209785D+01  1  2  3  1  7  1        2 -.409866184249D-04 0.100000000000D+01
0.750900268584D-06 0.000000000000D+00 0.000000000000D+00 0.685751059361D-10 0.000000000000D+00  7 2 -2 23 -13 13 23 21 2 0.92807944D-01 0.33361901D-01 0.10211032D+06 0.10211032D+06 0.10211032D+06 0.11209785D+01  1  2 15  1  7  1        2 0.471678848994D-04 0.100000000000D+01
-.758195299735D-05 0.000000000000D+00 -.475038719368D-05 0.685751059361D-10 0.000000000000D+00  7 2 -2 23 -13 13 23 21 2 0.42395566D+00 0.33361901D-01 0.10211032D+06 0.10211032D+06 0.10211032D+06 0.11209785D+01  1  2  5  1  7  1        2 -.267308404531D-04 0.100000000000D+01
-.144913356792D-05 0.000000000000D+00 -.873724314060D-06 0.685751059361D-10 0.000000000000D+00  7 21 -2 23 -13 13 23 -2 2 0.42395566D+00 0.33361901D-01 0.10211032D+06 0.10211032D+06 0.10211032D+06 0.11209785D+01  1  2  5  3  7  1        2 -.482082902264D-06 0.100000000000D+01
  </mgrwgt>
  </event>
  <event>
  8     66 0.25765000E-05 0.12939342E+03 0.75467711E-02 0.10771335E+00
        2 -1    0    0  501    0 0.00000000E+00 0.00000000E+00 0.69155693E+03 0.69155701E+03 0.32000000E+00 0.0000E+00 0.9000E+01
       -2 -1    0    0    0  501 0.00000000E+00 0.00000000E+00 -.14407181E+03 0.14407217E+03 0.32000000E+00 0.0000E+00 0.9000E+01
       25  2    1    2    0    0 0.89615818E+01 -.48992339E+02 0.30068064E+02 0.30788707E+03 0.30234054E+03 0.0000E+00 0.0000E+00
       23  2    1    2    0    0 -.89615818E+01 0.48992339E+02 0.51741705E+03 0.52774210E+03 0.91163362E+02 0.0000E+00 0.0000E+00
       23  1    3    3    0    0 -.12840561E+02 -.44017596E+02 -.10301582E+03 0.14501703E+03 0.91188000E+02 0.0000E+00 0.9000E+01
      -11  1    4    4    0    0 -.23195731E+02 0.39213384E+02 0.50351534E+03 0.50557238E+03 0.51099893E-03 0.0000E+00 0.9000E+01
       11  1    4    4    0    0 0.14234149E+02 0.97789552E+01 0.13901713E+02 0.22169722E+02 0.51099893E-03 0.0000E+00 0.9000E+01
       23  1    3    3    0    0 0.21802143E+02 -.49747429E+01 0.13308388E+03 0.16287005E+03 0.91188000E+02 0.0000E+00 0.9000E+01
#aMCatNLO 1  0  0  2  1 0.83168654D+02 0.00000000D+00  -5  7  0 0.00000000D+00 0.00000000D+00 0.00000000D+00 0.00000000D+00 0.00000000D+00
  <mgrwgt>
 0.3473955009D-03    3    2    0
 0.315648603630057D+03 0.000000000000000D+00 0.000000000000000D+00 0.315648603630057D+03
 0.315648603630057D+03 0.000000000000000D+00 0.000000000000000D+00 -.315648603630057D+03
 0.281293950389702D+03 -.128405613089488D+02 -.440175961671285D+02 -.262123265649547D+03
 0.232543202055609D+03 -.231957311542933D+02 0.392133838851424D+02 0.228036421219879D+03
 0.172892987197794D+02 0.142341493980531D+02 0.977895519134701D+01 -.825152410951212D+00
 0.100170756095023D+03 0.218021430651889D+02 -.497474290936089D+01 0.349119968406186D+02
 0.000000000000000D+00 0.000000000000000D+00 -.000000000000000D+00 0.000000000000000D+00
 0.134159035490191D+04 0.000000000000000D+00 0.000000000000000D+00 0.134159035490191D+04
 0.320066054655152D+03 0.000000000000000D+00 0.000000000000000D+00 -.320066054655152D+03
 0.278225105947275D+03 -.180601549606686D+02 -.769302563275115D+01 -.262123265649547D+03
 0.240100728730874D+03 -.276048915443038D+02 0.698979291335156D+02 0.228036421219879D+03
 0.184471764278722D+02 0.139007740166377D+02 0.120990050581903D+02 -.825152410951212D+00
 0.999790512189267D+02 0.199350026133726D+02 0.801919484999748D+01 0.349119968406186D+02
 0.102490434723212D+04 0.118292698749621D+02 -.823231034089522D+02 0.102152430024676D+04
0.368929038079D-05 0.000000000000D+00 0.000000000000D+00 0.439486940715D-07 0.000000000000D+00  7 2 -2 23 -11 11 23 21 0 0.10639341D+00 0.22164927D-01 0.16742656D+05 0.16742656D+05 0.16742656D+05 0.11915932D+01  1  2  2  2  7  2       -2 0.319771796200D-03 0.100000000000D+01
-.678069186430D-08 0.000000000000D+00 -.141678464747D-07 0.439486940715D-07 0.000000000000D+00  7 2 -2 23 -11 11 23 21 2 0.10639341D+00 0.22164927D-01 0.16742656D+05 0.16742656D+05 0.16742656D+05 0.11915932D+01  1  2  3  2  7  2       -2 -.834501893498D-06 0.100000000000D+01
0.231235341204D-06 0.000000000000D+00 0.000000000000D+00 0.439486940715D-07 0.000000000000D+00  7 2 -2 23 -11 11 23 21 2 0.10639341D+00 0.22164927D-01 0.16742656D+05 0.16742656D+05 0.16742656D+05 0.11915932D+01  1  2 15  2  7  2       -2 0.284582066166D-04 0.100000000000D+01
  </mgrwgt>
  </event>
  <event>
  7     66 0.25765000E-05 0.24605524E+03 0.75467711E-02 0.89270558E-01
        2 -1    0    0  501    0 0.00000000E+00 0.00000000E+00 0.82246477E+03 0.82246483E+03 0.32000000E+00 0.0000E+00 0.9000E+01
       -2 -1    0    0    0  501 0.00000000E+00 0.00000000E+00 -.68258360E+03 0.68258367E+03 0.32000000E+00 0.0000E+00 0.9000E+01
       23  2    1    2    0    0 0.37105060E+03 -.54458435E+03 0.30842481E+03 0.73328648E+03 0.91282781E+02 0.0000E+00 0.0000E+00
       23  1    1    2    0    0 -.25853585E+03 0.16530236E+03 -.17676479E+03 0.36568661E+03 0.91188000E+02 0.0000E+00 0.9000E+01
      -11  1    3    3    0    0 0.32505163E+03 -.47850260E+03 0.23519978E+03 0.62445355E+03 0.51099893E-03 0.0000E+00 0.9000E+01
       11  1    3    3    0    0 0.45998971E+02 -.66081748E+02 0.73225030E+02 0.10883294E+03 0.51099893E-03 0.0000E+00 0.9000E+01
       23  1    1    2    0    0 -.11251475E+03 0.37928199E+03 0.82211588E+01 0.40607541E+03 0.91188000E+02 0.0000E+00 0.9000E+01
#aMCatNLO 1  0  0  2  1 0.24493524D+03 0.00000000D+00  -5  7  0 0.00000000D+00 0.00000000D+00 0.00000000D+00 0.00000000D+00 0.00000000D+00
  <mgrwgt>
 0.8293997314D-03    9    2    0
 0.749267015339624D+03 0.000000000000000D+00 0.000000000000000D+00 0.749267015339624D+03
 0.749267015339624D+03 0.000000000000000D+00 0.000000000000000D+00 -.749267015339624D+03
 0.383776504443114D+03 -.258535848727941D+03 0.165302356367666D+03 -.211668372508497D+03
 0.605213383922559D+03 0.325051628403514D+03 -.478502596754982D+03 0.177932413713626D+03
 0.102470841518833D+03 0.459989712676337D+02 -.660817484750009D+02 0.633843081715328D+02
 0.407073300794743D+03 -.112514750943207D+03 0.379281988862317D+03 -.296483493766613D+02
 0.000000000000000D+00 0.000000000000000D+00 -.000000000000000D+00 -.000000000000000D+00
 0.855658820970609D+03 0.000000000000000D+00 0.000000000000000D+00 0.855658820970609D+03
 0.914714688390321D+03 0.000000000000000D+00 0.000000000000000D+00 -.914714688390321D+03
 0.436893987999157D+03 -.301930465115865D+03 0.215860139257642D+03 -.211668372508497D+03
 0.519292971763858D+03 0.265591074648771D+03 -.409226865858405D+03 0.177932413713626D+03
 0.907377497081226D+02 0.357826752312134D+02 -.541790444084018D+02 0.633843081715328D+02
 0.471494703112252D+03 -.158970815650481D+03 0.433406574557390D+03 -.296483493766613D+02
 0.251954096777540D+03 0.159527530886363D+03 -.185860803548226D+03 -.590558674197126D+02
0.186109506391D-03 0.000000000000D+00 0.000000000000D+00 0.655521336237D-09 0.000000000000D+00  7 2 -2 23 -11 11 23 21 0 0.12653305D+00 0.10501287D+00 0.47962559D+06 0.47962559D+06 0.47962559D+06 0.10697897D+01  1  2  2  2  7  2       -2 0.560533138866D-03 0.100000000000D+01
-.102615253068D-04 0.000000000000D+00 -.714709508300D-06 0.655521336237D-09 0.000000000000D+00  7 2 -2 23 -11 11 23 21 2 0.12653305D+00 0.10501287D+00 0.47962559D+06 0.47962559D+06 0.47962559D+06 0.10697897D+01  1  2  3  2  7  2       -2 -.353705207836D-04 0.100000000000D+01
0.116202164294D-04 0.000000000000D+00 0.000000000000D+00 0.655521336237D-09 0.000000000000D+00  7 2 -2 23 -11 11 23 21 2 0.12653305D+00 0.10501287D+00 0.47962559D+06 0.47962559D+06 0.47962559D+06 0.10697897D+01  1  2 15  2  7  2       -2 0.400538023772D-04 0.100000000000D+01
0.107321379951D-03 0.000000000000D+00 0.000000000000D+00 0.655521336237D-09 0.000000000000D+00  7 2 -2 23 -11 11 23 21 2 0.12653305D+00 0.13429580D+00 0.68101974D+06 0.68101974D+06 0.68101974D+06 0.10591539D+01  1  2 12  2  7  2       -2 0.189961448357D-03 0.100000000000D+01
-.112418591984D-03 0.000000000000D+00 0.000000000000D+00 0.655521336237D-09 0.000000000000D+00  7 2 -2 23 -11 11 23 21 2 0.12653305D+00 0.10501287D+00 0.47962559D+06 0.47962559D+06 0.47962559D+06 0.10697897D+01  1  2  4  2  7  2       -2 -.387496402860D-03 0.100000000000D+01
-.240928807359D-03 0.000000000000D+00 -.867007095487D-04 0.655521336237D-09 0.000000000000D+00  7 2 -2 23 -11 11 23 21 2 0.12653305D+00 0.14138466D+00 0.47962559D+06 0.47962559D+06 0.47962559D+06 0.10697897D+01  1  2  5  2  7  2       -2 -.384982440830D-03 0.100000000000D+01
0.258878340463D-03 0.000000000000D+00 0.830028730384D-04 0.655521336237D-09 0.000000000000D+00  7 2 -2 23 -11 11 23 21 2 0.12653305D+00 0.10501287D+00 0.47962559D+06 0.47962559D+06 0.47962559D+06 0.10697897D+01  1  2  6  2  7  2       -2 0.892329497612D-03 0.100000000000D+01
0.358867759821D-05 0.000000000000D+00 0.000000000000D+00 0.655521336237D-09 0.000000000000D+00  7 2 21 23 -11 11 23 2 2 0.12653305D+00 0.13429580D+00 0.68101974D+06 0.68101974D+06 0.68101974D+06 0.10591539D+01  1  2 12  4  7  2       -2 0.539080190019D-04 0.100000000000D+01
-.733691811649D-05 0.000000000000D+00 -.333043058662D-05 0.655521336237D-09 0.000000000000D+00  7 2 21 23 -11 11 23 2 2 0.12653305D+00 0.14138466D+00 0.47962559D+06 0.47962559D+06 0.47962559D+06 0.10697897D+01  1  2  5  4  7  2       -2 -.995368103254D-04 0.100000000000D+01
  </mgrwgt>
  </event>
  <event>
  7     66 0.25765000E-05 0.20385281E+03 0.75467711E-02 0.98333002E-01
        2 -1    0    0  501    0 0.00000000E+00 0.00000000E+00 0.60858802E+03 0.60858810E+03 0.32000000E+00 0.0000E+00 0.9000E+01
       -2 -1    0    0    0  501 0.00000000E+00 0.00000000E+00 -.97983691E+02 0.97984214E+02 0.32000000E+00 0.0000E+00 0.9000E+01
       25  2    1    2    0    0 0.94120966E+02 0.18652849E+02 0.37804880E+03 0.49247975E+03 0.30068044E+03 0.0000E+00 0.0000E+00
       23  1    3    3    0    0 0.39780014E+02 -.10749562E+03 0.21850972E+03 0.26305799E+03 0.91188000E+02 0.0000E+00 0.9000E+01
      -11  1    1    2    0    0 -.50388648E+02 -.54277663E+01 -.20270253E+02 0.54583511E+02 0.51099893E-03 0.0000E+00 0.9000E+01
       11  1    1    2    0    0 -.43732318E+02 -.13225083E+02 0.15282578E+03 0.15950906E+03 0.51099893E-03 0.0000E+00 0.9000E+01
       23  1    3    3    0    0 0.54340952E+02 0.12614847E+03 0.15953907E+03 0.22942176E+03 0.91188000E+02 0.0000E+00 0.9000E+01
#aMCatNLO 1  0  0  2  1 0.27621173D+03 0.00000000D+00  -5  7  0 0.00000000D+00 0.00000000D+00 0.00000000D+00 0.00000000D+00 0.00000000D+00
  <mgrwgt>
 0.2977333767D-03    5    2    0
 0.244196467730528D+03 0.000000000000000D+00 0.000000000000000D+00 0.244196467730528D+03
 0.244196467730528D+03 0.000000000000000D+00 0.000000000000000D+00 -.244196467730528D+03
 0.152126473374812D+03 0.397801012419757D+02 -.107495601564640D+03 0.411029408545403D+02
 0.100159670202242D+03 -.503887617699363D+02 -.542779610709509D+01 -.863913841290570D+02
 0.709902715801913D+02 -.437323863706182D+02 -.132250890809181D+02 0.543340966627961D+02
 0.165116520303811D+03 0.543410468985789D+02 0.126148486752653D+03 -.904565338827940D+01
 0.000000000000000D+00 -.000000000000000D+00 -.000000000000000D+00 -.000000000000000D+00
 0.388171553323405D+03 0.000000000000000D+00 0.000000000000000D+00 0.388171553323405D+03
 0.457760114248223D+03 0.000000000000000D+00 0.000000000000000D+00 -.457760114248223D+03
 0.154534247794434D+03 0.102946324780159D+03 -.572554352420597D+02 0.411029408545403D+02
 0.908541684701748D+02 -.110435766857033D+02 0.258659639422083D+02 -.863913841290570D+02
 0.575442468095106D+02 -.172567422450187D+02 0.783269607483848D+01 0.543340966627961D+02
 0.258156083326793D+03 0.141527080364416D+03 0.195493155105066D+03 -.904565338827940D+01
 0.284842921170716D+03 -.216173086213853D+03 -.171936379880053D+03 -.695885609248173D+02
0.140287554494D-05 0.000000000000D+00 0.000000000000D+00 0.195879065672D-09 0.000000000000D+00  7 2 -2 23 -11 11 23 21 0 0.93628973D-01 0.15074461D-01 0.41555969D+05 0.41555969D+05 0.41555969D+05 0.11544295D+01  1  2  2  2  7  2       -2 0.262813235296D-03 0.100000000000D+01
-.748476419539D-07 0.000000000000D+00 -.538741147818D-08 0.195879065672D-09 0.000000000000D+00  7 2 -2 23 -11 11 23 21 2 0.93628973D-01 0.15074461D-01 0.41555969D+05 0.41555969D+05 0.41555969D+05 0.11544295D+01  1  2  3  2  7  2       -2 -.186870632751D-04 0.100000000000D+01
0.924761752759D-07 0.000000000000D+00 0.000000000000D+00 0.195879065672D-09 0.000000000000D+00  7 2 -2 23 -11 11 23 21 2 0.93628973D-01 0.15074461D-01 0.41555969D+05 0.41555969D+05 0.41555969D+05 0.11544295D+01  1  2 15  2  7  2       -2 0.230883444516D-04 0.100000000000D+01
0.212689678725D-06 0.000000000000D+00 -.439781099166D-06 0.195879065672D-09 0.000000000000D+00  7 2 -2 23 -11 11 23 21 2 0.93628973D-01 0.44147141D-01 0.41555969D+05 0.41555969D+05 0.41555969D+05 0.11544295D+01  1  2  5  2  7  2       -2 0.848251256949D-05 0.100000000000D+01
0.488399379596D-07 0.000000000000D+00 -.535218085327D-07 0.195879065672D-09 0.000000000000D+00  7 2 21 23 -11 11 23 2 2 0.93628973D-01 0.44147141D-01 0.41555969D+05 0.41555969D+05 0.41555969D+05 0.11544295D+01  1  2  5  4  7  2       -2 0.220363476493D-04 0.100000000000D+01
  </mgrwgt>
  </event>
  <event>
  8     66 0.25765000E-05 0.11852278E+03 0.75467711E-02 0.10255607E+00
        2 -1    0    0  501    0 0.00000000E+00 0.00000000E+00 0.27364785E+04 0.27364785E+04 0.32000000E+00 0.0000E+00 0.9000E+01
       -2 -1    0    0    0  501 0.00000000E+00 0.00000000E+00 -.20085758E+02 0.20088307E+02 0.32000000E+00 0.0000E+00 0.9000E+01
       25  2    1    2    0    0 -.73821293E+02 0.54108377E+02 0.22821504E+04 0.23035897E+04 0.29989563E+03 0.0000E+00 0.0000E+00
       23  2    1    2    0    0 0.73821293E+02 -.54108377E+02 0.43424227E+03 0.45297713E+03 0.90799975E+02 0.0000E+00 0.0000E+00
       23  1    3    3    0    0 0.77371120E+02 0.60612807E+02 0.83532463E+03 0.84601578E+03 0.91188000E+02 0.0000E+00 0.9000E+01
      -11  1    4    4    0    0 -.30764953E+01 -.43688457E+02 0.89921052E+02 0.10001971E+03 0.51099893E-03 0.0000E+00 0.9000E+01
       11  1    4    4    0    0 0.76897789E+02 -.10419920E+02 0.34432122E+03 0.35295743E+03 0.51099893E-03 0.0000E+00 0.9000E+01
       23  1    3    3    0    0 -.15119241E+03 -.65044294E+01 0.14468258E+04 0.14575739E+04 0.91188000E+02 0.0000E+00 0.9000E+01
#aMCatNLO 1  0  0  1  2 0.85297517D+02 0.00000000D+00  -5  7  0 0.00000000D+00 0.00000000D+00 0.00000000D+00 0.00000000D+00 0.00000000D+00
  <mgrwgt>
 0.2619744300D-03    9    2    0
 0.234452092755335D+03 0.000000000000000D+00 0.000000000000000D+00 0.234452092755335D+03
 0.234452092755335D+03 0.000000000000000D+00 0.000000000000000D+00 -.234452092755335D+03
 0.134418200867070D+03 0.773711201527466D+02 0.606128067452127D+02 0.963321364430262D+01
 0.670715109682388D+02 -.307649520703577D+01 -.436884574650027D+02 -.507980456822141D+02
 0.802702976661668D+02 0.768977886861243D+02 -.104199199298086D+02 -.205298819104143D+02
 0.187144176009194D+03 -.151192413631835D+03 -.650442935040128D+01 0.616947139483259D+02
 0.000000000000000D+00 -.000000000000000D+00 0.000000000000000D+00 0.000000000000000D+00
 0.342853673339360D+03 0.000000000000000D+00 0.000000000000000D+00 0.342853673339360D+03
 0.255696500913637D+03 0.000000000000000D+00 0.000000000000000D+00 -.255696500913637D+03
 0.148264277321750D+03 0.102378297971945D+03 0.556141158788982D+02 0.963321364430262D+01
 0.691811831597856D+02 0.897694146946204D+01 -.460978218586230D+02 -.507980456822141D+02
 0.956761044274639D+02 0.924626832349287D+02 -.135311904929557D+02 -.205298819104143D+02
 0.163477639405419D+03 -.120175061082991D+03 -.127044955075719D+02 0.616947139483259D+02
 0.121950969938578D+03 -.836428615933450D+02 0.167193919802524D+02 0.871571724257229D+02
0.161969339863D-05 0.000000000000D+00 0.000000000000D+00 0.141786034532D-06 0.000000000000D+00  7 2 -2 23 -11 11 23 21 0 0.42099688D+00 0.30903142D-02 0.46688893D+05 0.46688893D+05 0.46688893D+05 0.11499220D+01  1  2  2  1  7  1        2 0.200399138817D-03 0.100000000000D+01
-.892541133735D-07 0.000000000000D+00 -.622004912579D-08 0.141786034532D-06 0.000000000000D+00  7 2 -2 23 -11 11 23 21 2 0.42099688D+00 0.30903142D-02 0.46688893D+05 0.46688893D+05 0.46688893D+05 0.11499220D+01  1  2  3  1  7  1        2 -.146025274275D-04 0.100000000000D+01
0.100407957571D-06 0.000000000000D+00 0.000000000000D+00 0.141786034532D-06 0.000000000000D+00  7 2 -2 23 -11 11 23 21 2 0.42099688D+00 0.30903142D-02 0.46688893D+05 0.46688893D+05 0.46688893D+05 0.11499220D+01  1  2 15  1  7  1        2 0.164273656300D-04 0.100000000000D+01
0.103592120692D-05 0.000000000000D+00 0.000000000000D+00 0.141786034532D-06 0.000000000000D+00  7 2 -2 23 -11 11 23 21 2 0.62774888D+00 0.30903142D-02 0.68919123D+05 0.68919123D+05 0.68919123D+05 0.11352346D+01  1  2 12  1  7  1        2 0.194315165264D-04 0.100000000000D+01
-.124282235412D-05 0.000000000000D+00 0.000000000000D+00 0.141786034532D-06 0.000000000000D+00  7 2 -2 23 -11 11 23 21 2 0.42099688D+00 0.30903142D-02 0.46688893D+05 0.46688893D+05 0.46688893D+05 0.11499220D+01  1  2  4  1  7  1        2 -.203333458007D-03 0.100000000000D+01
-.161537708818D-05 0.000000000000D+00 -.442263637685D-06 0.141786034532D-06 0.000000000000D+00  7 2 -2 23 -11 11 23 21 2 0.62534028D+00 0.30903142D-02 0.46688893D+05 0.46688893D+05 0.46688893D+05 0.11499220D+01  1  2  5  1  7  1        2 -.326594589793D-04 0.100000000000D+01
0.168892524025D-05 0.000000000000D+00 0.409767383347D-06 0.141786034532D-06 0.000000000000D+00  7 2 -2 23 -11 11 23 21 2 0.42099688D+00 0.30903142D-02 0.46688893D+05 0.46688893D+05 0.46688893D+05 0.11499220D+01  1  2  6  1  7  1        2 0.276318661534D-03 0.100000000000D+01
0.492657146108D-07 0.000000000000D+00 0.000000000000D+00 0.141786034532D-06 0.000000000000D+00  7 21 -2 23 -11 11 23 -2 2 0.62774888D+00 0.30903142D-02 0.68919123D+05 0.68919123D+05 0.68919123D+05 0.11352346D+01  1  2 12  3  7  1        2 0.172597505782D-07 0.100000000000D+01
-.614069916148D-07 0.000000000000D+00 -.208843506287D-07 0.141786034532D-06 0.000000000000D+00  7 21 -2 23 -11 11 23 -2 2 0.62534028D+00 0.30903142D-02 0.46688893D+05 0.46688893D+05 0.46688893D+05 0.11499220D+01  1  2  5  3  7  1        2 -.240678816618D-07 0.100000000000D+01
  </mgrwgt>
  </event>
  <event>
  8     66 0.25765000E-05 0.57039622E+03 0.75467711E-02 0.87766364E-01
        2 -1    0    0  501    0 0.00000000E+00 0.00000000E+00 0.12722377E+04 0.12722378E+04 0.32000000E+00 0.0000E+00 0.9000E+01
       -2 -1    0    0    0  501 0.00000000E+00 0.00000000E+00 -.35487599E+03 0.35487614E+03 0.32000000E+00 0.0000E+00 0.9000E+01
       25  2    1    2    0    0 -.46218983E+03 0.27157857E+03 0.66594535E+02 0.61759165E+03 0.29934972E+03 0.0000E+00 0.0000E+00
       23  2    1    2    0    0 0.46218983E+03 -.27157857E+03 0.85076722E+03 0.10095223E+04 0.89196426E+02 0.0000E+00 0.0000E+00
       23  1    3    3    0    0 -.10639124E+03 -.11498161E+01 -.44111711E+02 0.14690647E+03 0.91188000E+02 0.0000E+00 0.9000E+01
      -13  1    4    4    0    0 0.11374288E+03 -.25392153E+02 0.16997814E+03 0.20609411E+03 0.10565837E+00 0.0000E+00 0.9000E+01
       13  1    4    4    0    0 0.34844695E+03 -.24618641E+03 0.68078908E+03 0.80342816E+03 0.10565837E+00 0.0000E+00 0.9000E+01
       23  1    3    3    0    0 -.35579859E+03 0.27272838E+03 0.11070625E+03 0.47068518E+03 0.91188000E+02 0.0000E+00 0.9000E+01
#aMCatNLO 1  0  0  2  1 0.63580900D+03 0.00000000D+00  -5  7  0 0.00000000D+00 0.00000000D+00 0.00000000D+00 0.00000000D+00 0.00000000D+00
  <mgrwgt>
 0.2736973429D-03    3    2    0
 0.671927660560168D+03 0.000000000000000D+00 0.000000000000000D+00 0.671927660560168D+03
 0.671927660560168D+03 0.000000000000000D+00 0.000000000000000D+00 -.671927660560168D+03
 0.207983669981522D+03 -.106391235390930D+03 -.114981605268619D+01 -.153693001109418D+03
 0.133501310761890D+03 0.113742550110994D+03 -.253918433772251D+02 0.651190184147241D+02
 0.508045753453917D+03 0.348447279366257D+03 -.246186724119889D+03 0.275838862330763D+03
 0.494324586923006D+03 -.355798594086321D+03 0.272728383549800D+03 -.187264879636069D+03
 0.000000000000000D+00 -.000000000000000D+00 -.000000000000000D+00 0.000000000000000D+00
 0.118414688675692D+04 0.000000000000000D+00 0.000000000000000D+00 0.118414688675692D+04
 0.972604413105024D+03 0.000000000000000D+00 0.000000000000000D+00 -.972604413105024D+03
 0.179748239872271D+03 -.193038373969277D+02 -.408033472948153D-01 -.153693001109418D+03
 0.201346121368754D+03 0.188951710998029D+03 -.244340938416230D+02 0.651190184147241D+02
 0.725400511563903D+03 0.625488252925353D+03 -.242658751454863D+03 0.275838862330763D+03
 0.380179338498746D+03 -.159378672318109D+03 0.275229689064152D+03 -.187264879636069D+03
 0.670077088558271D+03 -.635757454208345D+03 -.809604042037043D+01 0.211542473651898D+03
0.391118238933D-04 0.000000000000D+00 0.000000000000D+00 0.295202642059D-06 0.000000000000D+00  7 2 -2 23 -13 13 23 21 0 0.19572890D+00 0.54596321D-01 0.32535185D+06 0.32535185D+06 0.32535185D+06 0.10819548D+01  1  2  2  2  7  2       -2 0.271026558440D-03 0.100000000000D+01
-.210197882876D-05 0.000000000000D+00 -.150199702130D-06 0.295202642059D-06 0.000000000000D+00  7 2 -2 23 -13 13 23 21 2 0.19572890D+00 0.54596321D-01 0.32535185D+06 0.32535185D+06 0.32535185D+06 0.10819548D+01  1  2  3  2  7  2       -2 -.170510206461D-04 0.100000000000D+01
0.243122201432D-05 0.000000000000D+00 0.000000000000D+00 0.295202642059D-06 0.000000000000D+00  7 2 -2 23 -13 13 23 21 2 0.19572890D+00 0.54596321D-01 0.32535185D+06 0.32535185D+06 0.32535185D+06 0.10819548D+01  1  2 15  2  7  2       -2 0.197218050888D-04 0.100000000000D+01
  </mgrwgt>
  </event>
  <event>
  8     66 0.25765000E-05 0.13772357E+03 0.75467711E-02 0.96951337E-01
        2 -1    0    0  501    0 0.00000000E+00 0.00000000E+00 0.12456530E+04 0.12456530E+04 0.32000000E+00 0.0000E+00 0.9000E+01
       -2 -1    0    0    0  501 0.00000000E+00 0.00000000E+00 -.13110898E+03 0.13110937E+03 0.32000000E+00 0.0000E+00 0.9000E+01
       25  2    1    2    0    0 0.15993014E+03 0.15289036E+03 0.18360502E+03 0.41559299E+03 0.30008935E+03 0.0000E+00 0.0000E+00
       23  2    1    2    0    0 -.15993014E+03 -.15289036E+03 0.93093899E+03 0.96116941E+03 0.90808185E+02 0.0000E+00 0.0000E+00
       23  1    3    3    0    0 0.10289580E+03 0.18916069E+03 0.19087027E+03 0.30185431E+03 0.91188000E+02 0.0000E+00 0.9000E+01
      -11  1    4    4    0    0 -.82793063E+02 -.19539657E+02 0.32256782E+03 0.33359629E+03 0.51099893E-03 0.0000E+00 0.9000E+01
       11  1    4    4    0    0 -.77137080E+02 -.13335070E+03 0.60837117E+03 0.62757312E+03 0.51099893E-03 0.0000E+00 0.9000E+01
       23  1    3    3    0    0 0.57034339E+02 -.36270330E+02 -.72652487E+01 0.11373868E+03 0.91188000E+02 0.0000E+00 0.9000E+01
#aMCatNLO 1  0  0  2  1 0.19598036D+03 0.00000000D+00  -5  7  0 0.00000000D+00 0.00000000D+00 0.00000000D+00 0.00000000D+00 0.00000000D+00
  <mgrwgt>
 0.1693113773D-03    9    2    0
 0.404124476839793D+03 0.000000000000000D+00 0.000000000000000D+00 0.404124476839793D+03
 0.404124476839793D+03 0.000000000000000D+00 0.000000000000000D+00 -.404124476839793D+03
 0.250972611672833D+03 0.102895803971164D+03 0.189160691738859D+03 -.911190797357343D+02
 0.123435736436589D+03 -.827930627548420D+02 -.195396567360433D+02 0.894421131456179D+02
 0.230080884671806D+03 -.771370798454941D+02 -.133350704948631D+03 0.170893750306950D+03
 0.203759720898357D+03 0.570343386291717D+02 -.362703300541845D+02 -.169216783716834D+03
 0.000000000000000D+00 -.000000000000000D+00 0.000000000000000D+00 -.000000000000000D+00
 0.480508508088961D+03 0.000000000000000D+00 0.000000000000000D+00 0.480508508088961D+03
 0.564304690404837D+03 0.000000000000000D+00 0.000000000000000D+00 -.564304690404837D+03
 0.253612165257525D+03 0.153101369768201D+03 0.155759952830705D+03 -.911190797357343D+02
 0.112922558526716D+03 -.592757025965639D+02 -.351852767780748D+02 0.894421131456179D+02
 0.239085464162233D+03 -.304556041588151D+02 -.164406938585382D+03 0.170893750306950D+03
 0.226049623080797D+03 0.997998406536311D+02 -.647213462855238D+02 -.169216783716834D+03
 0.213143387466528D+03 -.163169903666453D+03 0.108553608818275D+03 -.837961823158766D+02
0.388457376736D-05 0.000000000000D+00 0.000000000000D+00 0.764448591050D-06 0.000000000000D+00  7 2 -2 23 -11 11 23 21 0 0.19163896D+00 0.20170646D-01 0.85988221D+05 0.85988221D+05 0.85988221D+05 0.11271421D+01  1  2  2  2  7  2       -2 0.176202067991D-03 0.100000000000D+01
-.188816166277D-06 0.000000000000D+00 -.149177860984D-07 0.764448591050D-06 0.000000000000D+00  7 2 -2 23 -11 11 23 21 2 0.19163896D+00 0.20170646D-01 0.85988221D+05 0.85988221D+05 0.85988221D+05 0.11271421D+01  1  2  3  2  7  2       -2 -.108808835066D-04 0.100000000000D+01
0.237387137756D-06 0.000000000000D+00 0.000000000000D+00 0.764448591050D-06 0.000000000000D+00  7 2 -2 23 -11 11 23 21 2 0.19163896D+00 0.20170646D-01 0.85988221D+05 0.85988221D+05 0.85988221D+05 0.11271421D+01  1  2 15  2  7  2       -2 0.136798762670D-04 0.100000000000D+01
0.540584980342D-06 0.000000000000D+00 0.000000000000D+00 0.764448591050D-06 0.000000000000D+00  7 2 -2 23 -11 11 23 21 2 0.19163896D+00 0.29465969D-01 0.16755702D+06 0.16755702D+06 0.16755702D+06 0.11037783D+01  1  2 12  2  7  2       -2 0.154335382077D-04 0.100000000000D+01
-.200771488665D-05 0.000000000000D+00 0.000000000000D+00 0.764448591050D-06 0.000000000000D+00  7 2 -2 23 -11 11 23 21 2 0.19163896D+00 0.20170646D-01 0.85988221D+05 0.85988221D+05 0.85988221D+05 0.11271421D+01  1  2  4  2  7  2       -2 -.115698312421D-03 0.100000000000D+01
-.189776440821D-05 0.000000000000D+00 -.138884708956D-05 0.764448591050D-06 0.000000000000D+00  7 2 -2 23 -11 11 23 21 2 0.19163896D+00 0.33469671D-01 0.85988221D+05 0.85988221D+05 0.85988221D+05 0.11271421D+01  1  2  5  2  7  2       -2 -.458865379747D-04 0.100000000000D+01
0.244206129733D-05 0.000000000000D+00 0.122799230031D-05 0.764448591050D-06 0.000000000000D+00  7 2 -2 23 -11 11 23 21 2 0.19163896D+00 0.20170646D-01 0.85988221D+05 0.85988221D+05 0.85988221D+05 0.11271421D+01  1  2  6  2  7  2       -2 0.140728333892D-03 0.100000000000D+01
0.247382790061D-07 0.000000000000D+00 0.000000000000D+00 0.764448591050D-06 0.000000000000D+00  7 2 21 23 -11 11 23 2 2 0.19163896D+00 0.29465969D-01 0.16755702D+06 0.16755702D+06 0.16755702D+06 0.11037783D+01  1  2 12  4  7  2       -2 0.829723436141D-05 0.100000000000D+01
-.445468924160D-07 0.000000000000D+00 -.791038953303D-07 0.764448591050D-06 0.000000000000D+00  7 2 21 23 -11 11 23 2 2 0.19163896D+00 0.33469671D-01 0.85988221D+05 0.85988221D+05 0.85988221D+05 0.11271421D+01  1  2  5  4  7  2       -2 -.125639394728D-04 0.100000000000D+01
  </mgrwgt>
  </event>
  <event>
  8     66 0.25765000E-05 0.12390453E+03 0.75467711E-02 0.10561801E+00
        2 -1    0    0  501    0 0.00000000E+00 0.00000000E+00 0.26715471E+03 0.26715490E+03 0.32000000E+00 0.0000E+00 0.9000E+01
       -2 -1    0    0    0  501 0.00000000E+00 0.00000000E+00 -.21853938E+03 0.21853962E+03 0.32000000E+00 0.0000E+00 0.9000E+01
       25  2    1    2    0    0 0.11728784E+03 -.27428048E+02 0.89851495E+02 0.33520822E+03 0.29963732E+03 0.0000E+00 0.0000E+00
       23  2    1    2    0    0 -.11728784E+03 0.27428048E+02 -.41236164E+02 0.15048630E+03 0.80230739E+02 0.0000E+00 0.0000E+00
       23  1    3    3    0    0 -.30165436E+02 0.23868366E+02 -.45920977E+02 0.10910380E+03 0.91188000E+02 0.0000E+00 0.9000E+01
      -11  1    4    4    0    0 -.98547198E+02 -.27571484E+01 -.54397000E+02 0.11259745E+03 0.51099893E-03 0.0000E+00 0.9000E+01
       11  1    4    4    0    0 -.18740640E+02 0.30185196E+02 0.13160835E+02 0.37888853E+02 0.51099893E-03 0.0000E+00 0.9000E+01
       23  1    3    3    0    0 0.14745327E+03 -.51296413E+02 0.13577247E+03 0.22610441E+03 0.91188000E+02 0.0000E+00 0.9000E+01
#aMCatNLO 1  0  0  2  1 0.64701468D+01 0.00000000D+00  -5  7  0 0.00000000D+00 0.00000000D+00 0.00000000D+00 0.00000000D+00 0.00000000D+00
  <mgrwgt>
 0.2234320812D-03   11    2    0
 0.241627665844684D+03 0.000000000000000D+00 0.000000000000000D+00 0.241627665844684D+03
 0.241627665844684D+03 0.000000000000000D+00 0.000000000000000D+00 -.241627665844684D+03
 0.114274130056368D+03 -.301654358933669D+02 0.238683656583473D+02 -.571285660095040D+02
 0.118638096097675D+03 -.985471984446639D+02 -.275714838108113D+01 -.659988307259607D+02
 0.367561181993081D+02 -.187406397134143D+02 0.301851959332683D+02 0.941565689071748D+01
 0.213586987336017D+03 0.147453274051445D+03 -.512964132105345D+02 0.113711739844747D+03
 0.000000000000000D+00 -.000000000000000D+00 -.000000000000000D+00 -.000000000000000D+00
 0.243595815986578D+03 0.000000000000000D+00 0.000000000000000D+00 0.243595815986578D+03
 0.247026012880215D+03 0.000000000000000D+00 0.000000000000000D+00 -.247026012880215D+03
 0.114312520033672D+03 -.292829687856464D+02 0.251184310267430D+02 -.571285660095040D+02
 0.117857647504998D+03 -.976341979926994D+02 -.146383077598809D+01 -.659988307259607D+02
 0.369448687612024D+02 -.184561143626400D+02 0.305882424426756D+02 0.941565689071748D+01
 0.214183606782748D+03 0.149104698046727D+03 -.489570762233776D+02 0.113711739844747D+03
 0.732318578417291D+01 -.373141690574139D+01 -.528576647005304D+01 -.343019689363784D+01
0.135813158622D-05 0.000000000000D+00 0.000000000000D+00 0.177520156252D-08 0.000000000000D+00  7 2 -2 23 -11 11 23 21 0 0.41100758D-01 0.33621476D-01 0.42825353D+05 0.42825353D+05 0.42825353D+05 0.11532598D+01  1  2  2  2  7  2       -2 0.163880093852D-03 0.100000000000D+01
-.732490156822D-07 0.000000000000D+00 -.521558289536D-08 0.177520156252D-08 0.000000000000D+00  7 2 -2 23 -11 11 23 21 2 0.41100758D-01 0.33621476D-01 0.42825353D+05 0.42825353D+05 0.42825353D+05 0.11532598D+01  1  2  3  2  7  2       -2 -.117554817190D-04 0.100000000000D+01
0.863996682537D-07 0.000000000000D+00 0.000000000000D+00 0.177520156252D-08 0.000000000000D+00  7 2 -2 23 -11 11 23 21 2 0.41100758D-01 0.33621476D-01 0.42825353D+05 0.42825353D+05 0.42825353D+05 0.11532598D+01  1  2 15  2  7  2       -2 0.138659845627D-04 0.100000000000D+01
0.169360108731D-05 0.000000000000D+00 0.000000000000D+00 0.177520156252D-08 0.000000000000D+00  7 2 -2 23 -11 11 23 21 2 0.41100758D-01 0.34507449D-01 0.44175482D+05 0.44175482D+05 0.44175482D+05 0.11520569D+01  1  2 12  2  7  2       -2 0.259020736558D-03 0.100000000000D+01
-.296950900547D-05 0.000000000000D+00 0.000000000000D+00 0.177520156252D-08 0.000000000000D+00  7 2 -2 23 -11 11 23 21 2 0.41100758D-01 0.33621476D-01 0.42825353D+05 0.42825353D+05 0.42825353D+05 0.11532598D+01  1  2  4  2  7  2       -2 -.476566251479D-03 0.100000000000D+01
-.462234610547D-04 0.000000000000D+00 -.583563984260D-05 0.177520156252D-08 0.000000000000D+00  7 2 -2 23 -11 11 23 21 2 0.41100758D-01 0.34620060D-01 0.42825353D+05 0.42825353D+05 0.42825353D+05 0.11532598D+01  1  2  5  2  7  2       -2 -.704175864705D-02 0.100000000000D+01
0.463768932971D-04 0.000000000000D+00 0.583314124018D-05 0.177520156252D-08 0.000000000000D+00  7 2 -2 23 -11 11 23 21 2 0.41100758D-01 0.33621476D-01 0.42825353D+05 0.42825353D+05 0.42825353D+05 0.11532598D+01  1  2  6  2  7  2       -2 0.744286754247D-02 0.100000000000D+01
0.132328692537D-05 0.000000000000D+00 0.000000000000D+00 0.177520156252D-08 0.300301279049D-09  7 2 -2 23 -11 11 23 21 2 0.41435539D-01 0.34372633D-01 0.44175482D+05 0.44175482D+05 0.44175482D+05 0.11520569D+01  1  2 11  2  7  2       -2 0.202014483025D-03 0.100000000000D+01
0.522290998898D-07 0.000000000000D+00 0.000000000000D+00 0.177520156252D-08 0.000000000000D+00  7 2 21 23 -11 11 23 2 2 0.41100758D-01 0.34507449D-01 0.44175482D+05 0.44175482D+05 0.44175482D+05 0.11520569D+01  1  2 12  4  7  2       -2 0.943996395161D-04 0.100000000000D+01
-.241081448520D-06 0.000000000000D+00 -.306642586580D-07 0.177520156252D-08 0.000000000000D+00  7 2 21 23 -11 11 23 2 2 0.41100758D-01 0.34620060D-01 0.42825353D+05 0.42825353D+05 0.42825353D+05 0.11532598D+01  1  2  5  4  7  2       -2 -.434154976684D-03 0.100000000000D+01
0.643552518277D-08 0.000000000000D+00 0.000000000000D+00 0.177520156252D-08 0.119470027764D-11  7 2 21 23 -11 11 23 2 2 0.41435539D-01 0.34372633D-01 0.44175482D+05 0.44175482D+05 0.44175482D+05 0.11520569D+01  1  2 11  4  7  2       -2 0.116189581115D-04 0.100000000000D+01
  </mgrwgt>
  </event>
  <event>
  8     66 0.25765000E-05 0.34851682E+03 0.75467711E-02 0.87246004E-01
        2 -1    0    0  501    0 0.00000000E+00 0.00000000E+00 0.10716049E+04 0.10716049E+04 0.32000000E+00 0.0000E+00 0.9000E+01
       -2 -1    0    0    0  501 0.00000000E+00 0.00000000E+00 -.10275202E+04 0.10275203E+04 0.32000000E+00 0.0000E+00 0.9000E+01
       25  2    1    2    0    0 -.91008843E+03 -.68222839E+02 -.44637134E+03 0.10593480E+04 0.30009246E+03 0.0000E+00 0.0000E+00
       23  2    1    2    0    0 0.91008843E+03 0.68222839E+02 0.49045595E+03 0.10397772E+04 0.87603040E+02 0.0000E+00 0.0000E+00
       23  1    3    3    0    0 -.52218513E+03 -.51325682E+02 -.12472863E+03 0.54697726E+03 0.91188000E+02 0.0000E+00 0.9000E+01
      -13  1    4    4    0    0 0.25950742E+03 0.24685151E+02 0.18555122E+03 0.31997301E+03 0.10565837E+00 0.0000E+00 0.9000E+01
       13  1    4    4    0    0 0.65058101E+03 0.43537688E+02 0.30490472E+03 0.71980420E+03 0.10565837E+00 0.0000E+00 0.9000E+01
       23  1    3    3    0    0 -.38790330E+03 -.16897157E+02 -.32164271E+03 0.51237074E+03 0.91188000E+02 0.0000E+00 0.9000E+01
#aMCatNLO 1  0  0  2  1 0.17548501D+03 0.00000000D+00  -5  7  0 0.00000000D+00 0.00000000D+00 0.00000000D+00 0.00000000D+00 0.00000000D+00
  <mgrwgt>
 0.5257285353D-03    9    2    0
 0.104933111432244D+04 0.000000000000000D+00 0.000000000000000D+00 0.104933111432244D+04
 0.104933111432244D+04 0.000000000000000D+00 0.000000000000000D+00 -.104933111432244D+04
 0.549717976668059D+03 -.522185130874113D+03 -.513256819116005D+02 -.136245976081197D+03
 0.316145321418057D+03 0.259506855095101D+03 0.246851240358810D+02 0.178870626611834D+03
 0.713558720300341D+03 0.650581576756376D+03 0.435377152940517D+02 0.289851904683793D+03
 0.519240210258421D+03 -.387903300977364D+03 -.168971574183322D+02 -.332476555214430D+03
 0.000000000000000D+00 -.000000000000000D+00 -.000000000000000D+00 -.000000000000000D+00
 0.112720793452652D+04 0.000000000000000D+00 0.000000000000000D+00 0.112720793452652D+04
 0.115672913791477D+04 0.000000000000000D+00 0.000000000000000D+00 -.115672913791477D+04
 0.534187130005399D+03 -.508339913143758D+03 -.825864553566359D+01 -.136245976081197D+03
 0.325854854198538D+03 0.267707418188321D+03 0.501938560700843D+02 0.178870626611834D+03
 0.736164119159779D+03 0.669099552395955D+03 0.101139866882461D+03 0.289851904683793D+03
 0.509780159445232D+03 -.374759151199121D+03 0.239891318156186D+02 -.332476555214430D+03
 0.177950809632342D+03 -.537079062413977D+02 -.167064209232500D+03 -.295212033882523D+02
0.412669761669D-03 0.000000000000D+00 0.000000000000D+00 0.957397041305D-06 0.000000000000D+00  7 2 -2 23 -13 13 23 21 0 0.16486229D+00 0.15808005D+00 0.85019171D+06 0.85019171D+06 0.85019171D+06 0.10525883D+01  1  2  2  2  7  2       -2 0.282802697478D-03 0.100000000000D+01
-.224600760783D-04 0.000000000000D+00 -.158476054325D-05 0.957397041305D-06 0.000000000000D+00  7 2 -2 23 -13 13 23 21 2 0.16486229D+00 0.15808005D+00 0.85019171D+06 0.85019171D+06 0.85019171D+06 0.10525883D+01  1  2  3  2  7  2       -2 -.170533287050D-04 0.100000000000D+01
0.255726451412D-04 0.000000000000D+00 0.000000000000D+00 0.957397041305D-06 0.000000000000D+00  7 2 -2 23 -13 13 23 21 2 0.16486229D+00 0.15808005D+00 0.85019171D+06 0.85019171D+06 0.85019171D+06 0.10525883D+01  1  2 15  2  7  2       -2 0.194166182665D-04 0.100000000000D+01
0.469474213910D-03 0.000000000000D+00 0.000000000000D+00 0.957397041305D-06 0.000000000000D+00  7 2 -2 23 -13 13 23 21 2 0.16486229D+00 0.17961127D+00 0.10277062D+07 0.10277062D+07 0.10277062D+07 0.10470748D+01  1  2 12  2  7  2       -2 0.240251502272D-03 0.100000000000D+01
-.413406737497D-03 0.000000000000D+00 0.000000000000D+00 0.957397041305D-06 0.000000000000D+00  7 2 -2 23 -13 13 23 21 2 0.16486229D+00 0.15808005D+00 0.85019171D+06 0.85019171D+06 0.85019171D+06 0.10525883D+01  1  2  4  2  7  2       -2 -.313888562034D-03 0.100000000000D+01
-.135298437752D-02 0.000000000000D+00 -.332305305404D-03 0.957397041305D-06 0.000000000000D+00  7 2 -2 23 -13 13 23 21 2 0.16486229D+00 0.18284737D+00 0.85019171D+06 0.85019171D+06 0.85019171D+06 0.10525883D+01  1  2  5  2  7  2       -2 -.670527590159D-03 0.100000000000D+01
0.139009016197D-02 0.000000000000D+00 0.328816186619D-03 0.957397041305D-06 0.000000000000D+00  7 2 -2 23 -13 13 23 21 2 0.16486229D+00 0.15808005D+00 0.85019171D+06 0.85019171D+06 0.85019171D+06 0.10525883D+01  1  2  6  2  7  2       -2 0.105545788799D-02 0.100000000000D+01
0.938303904196D-05 0.000000000000D+00 0.000000000000D+00 0.957397041305D-06 0.000000000000D+00  7 2 21 23 -13 13 23 2 2 0.16486229D+00 0.17961127D+00 0.10277062D+07 0.10277062D+07 0.10277062D+07 0.10470748D+01  1  2 12  4  7  2       -2 0.374945489597D-04 0.100000000000D+01
-.279329170217D-04 0.000000000000D+00 -.739716408853D-05 0.957397041305D-06 0.000000000000D+00  7 2 21 23 -13 13 23 2 2 0.16486229D+00 0.18284737D+00 0.85019171D+06 0.85019171D+06 0.85019171D+06 0.10525883D+01  1  2  5  4  7  2       -2 -.108225238735D-03 0.100000000000D+01
  </mgrwgt>
  </event>
  <event>
  8     66 0.25765000E-05 0.16018109E+03 0.75467711E-02 0.10544921E+00
        2 -1    0    0  501    0 0.00000000E+00 0.00000000E+00 0.43682310E+03 0.43682322E+03 0.32000000E+00 0.0000E+00 0.9000E+01
       -2 -1    0    0    0  501 0.00000000E+00 0.00000000E+00 -.19434050E+03 0.19434076E+03 0.32000000E+00 0.0000E+00 0.9000E+01
       25  2    1    2    0    0 0.25899294E+01 0.64871101E+02 0.35716899E+03 0.47085272E+03 0.29986269E+03 0.0000E+00 0.0000E+00
       23  2    1    2    0    0 -.25899294E+01 -.64871101E+02 -.11468639E+03 0.16031126E+03 0.91278502E+02 0.0000E+00 0.0000E+00
       23  1    3    3    0    0 0.81031340E+02 0.26446563E+02 0.42609881E+02 0.13189523E+03 0.91188000E+02 0.0000E+00 0.9000E+01
      -13  1    4    4    0    0 -.20993987E+01 -.67024831E+02 -.12923432E+03 0.14559621E+03 0.10565837E+00 0.0000E+00 0.9000E+01
       13  1    4    4    0    0 -.49053067E+00 0.21537300E+01 0.14547933E+02 0.14715050E+02 0.10565837E+00 0.0000E+00 0.9000E+01
       23  1    3    3    0    0 -.78441410E+02 0.38424538E+02 0.31455910E+03 0.33895749E+03 0.91188000E+02 0.0000E+00 0.9000E+01
#aMCatNLO 1  0  0  1  1 0.10346966D+03 0.00000000D+00  -5  7  0 0.00000000D+00 0.00000000D+00 0.00000000D+00 0.00000000D+00 0.00000000D+00
  <mgrwgt>
 0.2902464064D-03    3    2    0
 0.291363243745541D+03 0.000000000000000D+00 0.000000000000000D+00 0.291363243745541D+03
 0.291363243745541D+03 0.000000000000000D+00 0.000000000000000D+00 -.291363243745541D+03
 0.125127938833577D+03 0.810313394500344D+02 0.264465627949311D+02 -.873218621002378D+01
 0.211475393231625D+03 -.209940087589892D+01 -.670249237396992D+02 -.200561945682924D+03
 0.988427922003389D+01 -.490528509655479D+00 0.215382260651094D+01 0.963428283062580D+01
 0.236238876205846D+03 -.784414100644800D+02 0.384245383382572D+02 0.199659849062322D+03
 0.000000000000000D+00 -.000000000000000D+00 -.000000000000000D+00 -.000000000000000D+00
 0.305561276459277D+03 0.000000000000000D+00 0.000000000000000D+00 0.305561276459277D+03
 0.573547126095275D+03 0.000000000000000D+00 0.000000000000000D+00 -.573547126095275D+03
 0.142204855896626D+03 0.103724231966903D+03 0.327414465692897D+02 -.873218621002378D+01
 0.211242856534696D+03 0.337835884017430D+02 -.570711795525531D+02 -.200561945682924D+03
 0.100571816480219D+02 0.120222837251018D+01 0.262338407046083D+01 0.963428283062580D+01
 0.228336410153902D+03 -.390053317112987D+02 0.493638899244529D+02 0.199659849062322D+03
 0.287267098321306D+03 -.997047170298574D+02 -.276575410116504D+02 -.267985849635998D+03
0.320396936675D-05 0.000000000000D+00 0.000000000000D+00 0.916575659380D-06 0.000000000000D+00  7 2 -2 23 -13 13 23 21 0 0.67203583D-01 0.29898568D-01 0.25657980D+05 0.25657980D+05 0.25657980D+05 0.11736886D+01  1  2  2  1  7  1        2 0.279295912674D-03 0.100000000000D+01
-.100536837339D-06 0.000000000000D+00 -.123040859928D-07 0.916575659380D-06 0.000000000000D+00  7 2 -2 23 -13 13 23 21 2 0.67203583D-01 0.29898568D-01 0.25657980D+05 0.25657980D+05 0.25657980D+05 0.11736886D+01  1  2  3  1  7  1        2 -.120727776719D-04 0.100000000000D+01
0.191727782625D-06 0.000000000000D+00 0.000000000000D+00 0.916575659380D-06 0.000000000000D+00  7 2 -2 23 -13 13 23 21 2 0.67203583D-01 0.29898568D-01 0.25657980D+05 0.25657980D+05 0.25657980D+05 0.11736886D+01  1  2 15  1  7  1        2 0.230232714139D-04 0.100000000000D+01
  </mgrwgt>
  </event>
  <event>
  8     66 0.25765000E-05 0.20342700E+03 0.75467711E-02 0.96459147E-01
        2 -1    0    0  501    0 0.00000000E+00 0.00000000E+00 0.63292948E+03 0.63292956E+03 0.32000000E+00 0.0000E+00 0.9000E+01
       -2 -1    0    0    0  501 0.00000000E+00 0.00000000E+00 -.74632323E+02 0.74633009E+02 0.32000000E+00 0.0000E+00 0.9000E+01
       25  2    1    2    0    0 -.42050144E+02 0.46871053E+02 0.47596737E+03 0.56615569E+03 0.30003703E+03 0.0000E+00 0.0000E+00
       23  2    1    2    0    0 0.42050144E+02 -.46871053E+02 0.82329787E+02 0.14140688E+03 0.96190446E+02 0.0000E+00 0.0000E+00
       23  1    3    3    0    0 0.71114511E+02 0.97588568E+02 0.26231566E+03 0.30282926E+03 0.91188000E+02 0.0000E+00 0.9000E+01
      -11  1    4    4    0    0 0.61022045E+02 -.12406442E+02 0.16009087E+02 0.64295417E+02 0.51099893E-03 0.0000E+00 0.9000E+01
       11  1    4    4    0    0 -.18971902E+02 -.34464612E+02 0.66320700E+02 0.77111463E+02 0.51099893E-03 0.0000E+00 0.9000E+01
       23  1    3    3    0    0 -.11316466E+03 -.50717515E+02 0.21365171E+03 0.26332643E+03 0.91188000E+02 0.0000E+00 0.9000E+01
#aMCatNLO 1  0  0  1  2 0.33750875D+03 0.00000000D+00  -5  7  0 0.00000000D+00 0.00000000D+00 0.00000000D+00 0.00000000D+00 0.00000000D+00
  <mgrwgt>
 0.2650220844D-03    5    2    0
 0.217341364829726D+03 0.000000000000000D+00 0.000000000000000D+00 0.217341364829726D+03
 0.217341364829726D+03 0.000000000000000D+00 0.000000000000000D+00 -.217341364829726D+03
 0.156023131074532D+03 0.711145109579462D+02 0.975885682102500D+02 0.380416058045148D+02
 0.840962859695552D+02 0.610220454978677D+02 -.124064420947446D+02 -.565205756488654D+02
 0.403386781251454D+02 -.189719012128979D+02 -.344646115626752D+02 0.891439661929179D+01
 0.154224634490220D+03 -.113164655242916D+03 -.507175145528302D+02 0.956457322505886D+01
 0.000000000000000D+00 0.000000000000000D+00 -.000000000000000D+00 0.000000000000000D+00
 0.733200509797436D+03 0.000000000000000D+00 0.000000000000000D+00 0.733200509797436D+03
 0.337338338075269D+03 0.000000000000000D+00 0.000000000000000D+00 -.337338338075269D+03
 0.219185349375845D+03 -.124925904951849D+02 0.195253008805357D+03 0.380416058045148D+02
 0.683395397221909D+02 0.270550159456474D+02 0.272716579976826D+02 -.565205756488654D+02
 0.403217513775282D+02 -.369453348212971D+02 -.134692019810906D+02 0.891439661929179D+01
 0.222481656161985D+03 -.197105511331208D+03 0.473367967490997D+02 0.956457322505886D+01
 0.520210551235155D+03 0.219488420702042D+03 -.256392261571048D+03 0.395862171722167D+03
0.955580496444D-06 0.000000000000D+00 0.000000000000D+00 0.105361354644D-07 0.000000000000D+00  7 2 -2 23 -11 11 23 21 0 0.97373825D-01 0.11481955D-01 0.41382544D+05 0.41382544D+05 0.41382544D+05 0.11545924D+01  1  2  2  1  7  1        2 0.261889126571D-03 0.100000000000D+01
-.528052564542D-07 0.000000000000D+00 -.366968071647D-08 0.105361354644D-07 0.000000000000D+00  7 2 -2 23 -11 11 23 21 2 0.97373825D-01 0.11481955D-01 0.41382544D+05 0.41382544D+05 0.41382544D+05 0.11545924D+01  1  2  3  1  7  1        2 -.192923319556D-04 0.100000000000D+01
0.615996167181D-07 0.000000000000D+00 0.000000000000D+00 0.105361354644D-07 0.000000000000D+00  7 2 -2 23 -11 11 23 21 2 0.97373825D-01 0.11481955D-01 0.41382544D+05 0.41382544D+05 0.41382544D+05 0.11545924D+01  1  2 15  1  7  1        2 0.225053400715D-04 0.100000000000D+01
-.307615987935D-08 0.000000000000D+00 -.350807618037D-06 0.105361354644D-07 0.000000000000D+00  7 2 -2 23 -11 11 23 21 2 0.39329491D+00 0.11481955D-01 0.41382544D+05 0.41382544D+05 0.41382544D+05 0.11545924D+01  1  2  5  1  7  1        2 -.911701941307D-07 0.100000000000D+01
0.302018966057D-08 0.000000000000D+00 -.585172046347D-07 0.105361354644D-07 0.000000000000D+00  7 21 -2 23 -11 11 23 -2 2 0.39329491D+00 0.11481955D-01 0.41382544D+05 0.41382544D+05 0.41382544D+05 0.11545924D+01  1  2  5  3  7  1        2 0.111199523413D-07 0.100000000000D+01
  </mgrwgt>
  </event>
  <event>
  8     66 0.25765000E-05 0.30261651E+03 0.75467711E-02 0.93270473E-01
        2 -1    0    0  501    0 0.00000000E+00 0.00000000E+00 0.13528189E+04 0.13528189E+04 0.32000000E+00 0.0000E+00 0.9000E+01
       -2 -1    0    0    0  501 0.00000000E+00 0.00000000E+00 -.26498122E+03 0.26498142E+03 0.32000000E+00 0.0000E+00 0.9000E+01
       25  2    1    2    0    0 0.34494454E+03 0.38556050E+03 0.29788543E+03 0.66814538E+03 0.30006481E+03 0.0000E+00 0.0000E+00
       23  2    1    2    0    0 -.34494454E+03 -.38556050E+03 0.78995226E+03 0.94965498E+03 0.10087806E+03 0.0000E+00 0.0000E+00
       23  1    3    3    0    0 0.55756283E+02 0.45419719E+02 0.14868621E+03 0.18866519E+03 0.91188000E+02 0.0000E+00 0.9000E+01
      -11  1    4    4    0    0 -.31512219E+03 -.36246058E+03 0.76855321E+03 0.90628567E+03 0.51099893E-03 0.0000E+00 0.9000E+01
       11  1    4    4    0    0 -.29822344E+02 -.23099917E+02 0.21399048E+02 0.43369316E+02 0.51099893E-03 0.0000E+00 0.9000E+01
       23  1    3    3    0    0 0.28918825E+03 0.34014078E+03 0.14919922E+03 0.47948019E+03 0.91188000E+02 0.0000E+00 0.9000E+01
#aMCatNLO 1  0  0  1  2 0.38410253D+02 0.00000000D+00  -5  7  0 0.00000000D+00 0.00000000D+00 0.00000000D+00 0.00000000D+00 0.00000000D+00
  <mgrwgt>
 0.3968009012D-03    9    2    0
 0.598725142525023D+03 0.000000000000000D+00 0.000000000000000D+00 0.598725142525023D+03
 0.598725142525023D+03 0.000000000000000D+00 0.000000000000000D+00 -.598725142525023D+03
 0.119818044694476D+03 0.557562831236152D+02 0.454197194734016D+02 0.294855636813035D+02
 0.526224880699177D+03 -.315122192393542D+03 -.362460582124329D+03 0.215018499980916D+03
 0.391533624808853D+02 -.298223437133277D+02 -.230999170445467D+02 -.104884432371442D+02
 0.512253997175508D+03 0.289188252983254D+03 0.340140779695474D+03 -.234015620425076D+03
 0.000000000000000D+00 -.000000000000000D+00 0.000000000000000D+00 0.000000000000000D+00
 0.634236687966622D+03 0.000000000000000D+00 0.000000000000000D+00 0.634236687966622D+03
 0.609510328882221D+03 0.000000000000000D+00 0.000000000000000D+00 -.609510328882221D+03
 0.120500674663907D+03 0.589043796928448D+02 0.431976485222719D+02 0.294855636813035D+02
 0.524942011454538D+03 -.301352250144715D+03 -.372180038944340D+03 0.215018499980916D+03
 0.388192629072245D+02 -.288009278405506D+02 -.238208792164524D+02 -.104884432371442D+02
 0.513804214704254D+03 0.302629279738359D+03 0.330653486517176D+03 -.234015620425076D+03
 0.456808531189184D+02 -.313804814459380D+02 0.221497831213439D+02 0.247263590844015D+02
0.165182621801D-04 0.000000000000D+00 0.000000000000D+00 0.500694423361D-07 0.000000000000D+00  7 2 -2 23 -11 11 23 21 0 0.20812600D+00 0.40766360D-01 0.29692869D+06 0.29692869D+06 0.29692869D+06 0.10848827D+01  1  2  2  1  7  1        2 0.183162828495D-03 0.100000000000D+01
-.907784736983D-06 0.000000000000D+00 -.634344761300D-07 0.500694423361D-07 0.000000000000D+00  7 2 -2 23 -11 11 23 21 2 0.20812600D+00 0.40766360D-01 0.29692869D+06 0.29692869D+06 0.29692869D+06 0.10848827D+01  1  2  3  1  7  1        2 -.118473549929D-04 0.100000000000D+01
0.105611799112D-05 0.000000000000D+00 0.000000000000D+00 0.500694423361D-07 0.000000000000D+00  7 2 -2 23 -11 11 23 21 2 0.20812600D+00 0.40766360D-01 0.29692869D+06 0.29692869D+06 0.29692869D+06 0.10848827D+01  1  2 15  1  7  1        2 0.137832288266D-04 0.100000000000D+01
0.603957577140D-04 0.000000000000D+00 0.000000000000D+00 0.500694423361D-07 0.000000000000D+00  7 2 -2 23 -11 11 23 21 2 0.22226946D+00 0.40766360D-01 0.31861898D+06 0.31861898D+06 0.31861898D+06 0.10826224D+01  1  2 12  1  7  1        2 0.695756439473D-03 0.100000000000D+01
-.599552363952D-04 0.000000000000D+00 0.000000000000D+00 0.500694423361D-07 0.000000000000D+00  7 2 -2 23 -11 11 23 21 2 0.20812600D+00 0.40766360D-01 0.29692869D+06 0.29692869D+06 0.29692869D+06 0.10848827D+01  1  2  4  1  7  1        2 -.782466305415D-03 0.100000000000D+01
-.192926926213D-03 0.000000000000D+00 -.290258483491D-04 0.500694423361D-07 0.000000000000D+00  7 2 -2 23 -11 11 23 21 2 0.22247243D+00 0.40766360D-01 0.29692869D+06 0.29692869D+06 0.29692869D+06 0.10848827D+01  1  2  5  1  7  1        2 -.223393286984D-02 0.100000000000D+01
0.194493867975D-03 0.000000000000D+00 0.289614795021D-04 0.500694423361D-07 0.000000000000D+00  7 2 -2 23 -11 11 23 21 2 0.20812600D+00 0.40766360D-01 0.29692869D+06 0.29692869D+06 0.29692869D+06 0.10848827D+01  1  2  6  1  7  1        2 0.253830870247D-02 0.100000000000D+01
0.771809081152D-06 0.000000000000D+00 0.000000000000D+00 0.500694423361D-07 0.000000000000D+00  7 21 -2 23 -11 11 23 -2 2 0.22226946D+00 0.40766360D-01 0.31861898D+06 0.31861898D+06 0.31861898D+06 0.10826224D+01  1  2 12  3  7  1        2 0.332048450203D-05 0.100000000000D+01
-.214336000075D-05 0.000000000000D+00 -.329153446299D-06 0.500694423361D-07 0.000000000000D+00  7 21 -2 23 -11 11 23 -2 2 0.22247243D+00 0.40766360D-01 0.29692869D+06 0.29692869D+06 0.29692869D+06 0.10848827D+01  1  2  5  3  7  1        2 -.928425232548D-05 0.100000000000D+01
  </mgrwgt>
  </event>
  <event>
  8     66 0.25765000E-05 0.31217271E+03 0.75467711E-02 0.99192824E-01
        2 -1    0    0  501    0 0.00000000E+00 0.00000000E+00 0.16879042E+04 0.16879043E+04 0.32000000E+00 0.0000E+00 0.9000E+01
       -2 -1    0    0    0  501 0.00000000E+00 0.00000000E+00 -.61322616E+02 0.61323451E+02 0.32000000E+00 0.0000E+00 0.9000E+01
       25  2    1    2    0    0 0.11972501E+03 -.20797689E+03 0.89866088E+03 0.97730888E+03 0.29992131E+03 0.0000E+00 0.0000E+00
       23  2    1    2    0    0 -.11972501E+03 0.20797689E+03 0.72792073E+03 0.77191884E+03 0.91660416E+02 0.0000E+00 0.0000E+00
       23  1    3    3    0    0 -.67904940E+02 -.63283768E+02 0.29359371E+03 0.32113616E+03 0.91188000E+02 0.0000E+00 0.9000E+01
      -13  1    4    4    0    0 -.80798189E+02 0.12749350E+03 0.57782845E+03 0.59721744E+03 0.10565837E+00 0.0000E+00 0.9000E+01
       13  1    4    4    0    0 -.38926817E+02 0.80483397E+02 0.15009228E+03 0.17470140E+03 0.10565837E+00 0.0000E+00 0.9000E+01
       23  1    3    3    0    0 0.18762995E+03 -.14469312E+03 0.60506717E+03 0.65617271E+03 0.91188000E+02 0.0000E+00 0.9000E+01
#aMCatNLO 1  0  0  2  1 0.53805809D+02 0.00000000D+00  -5  7  0 0.00000000D+00 0.00000000D+00 0.00000000D+00 0.00000000D+00 0.00000000D+00
  <mgrwgt>
 0.3184450229D-03    4    2    0
 0.321725752096881D+03 0.000000000000000D+00 0.000000000000000D+00 0.321725752096881D+03
 0.321725752096881D+03 0.000000000000000D+00 0.000000000000000D+00 -.321725752096881D+03
 0.130835255052009D+03 -.679049402907139D+02 -.632837679543640D+02 -.136636897702278D+02
 0.162847106385918D+03 -.807982445733108D+02 0.127493557859344D+03 0.611245976387928D+02
 0.955085542869176D+02 -.389267617419434D+02 0.804833346040471D+02 -.336009525650101D+02
 0.254260588468916D+03 0.187629946605968D+03 -.144693124509027D+03 -.138599553035549D+02
 0.000000000000000D+00 0.000000000000000D+00 -.000000000000000D+00 0.000000000000000D+00
 0.399005635157585D+03 0.000000000000000D+00 0.000000000000000D+00 0.399005635157585D+03
 0.332352216151045D+03 0.000000000000000D+00 0.000000000000000D+00 -.332352216151045D+03
 0.136779214557066D+03 -.790674884602681D+02 -.628882981268877D+02 -.136636897702278D+02
 0.170545090833761D+03 -.947044674552592D+02 0.127986231349342D+03 0.611245976387928D+02
 0.993332137885996D+02 -.470538657238812D+02 0.807712638797643D+02 -.336009525650101D+02
 0.239039703435173D+03 0.167053748770035D+03 -.143964145311383D+03 -.138599553035549D+02
 0.856606286940290D+02 0.537720728693733D+02 -.190505179083537D+01 0.666534190065397D+02
0.420412427381D-05 0.000000000000D+00 0.000000000000D+00 0.517238936527D-06 0.000000000000D+00  7 2 -2 23 -13 13 23 21 0 0.25967764D+00 0.94343152D-02 0.97451804D+05 0.97451804D+05 0.97451804D+05 0.11226431D+01  1  2  2  2  7  2       -2 0.366104986686D-03 0.100000000000D+01
-.233304439379D-06 0.000000000000D+00 -.161449441828D-07 0.517238936527D-06 0.000000000000D+00  7 2 -2 23 -13 13 23 21 2 0.25967764D+00 0.94343152D-02 0.97451804D+05 0.97451804D+05 0.97451804D+05 0.11226431D+01  1  2  3  2  7  2       -2 -.256056936230D-04 0.100000000000D+01
0.274735038212D-06 0.000000000000D+00 0.000000000000D+00 0.517238936527D-06 0.000000000000D+00  7 2 -2 23 -13 13 23 21 2 0.25967764D+00 0.94343152D-02 0.97451804D+05 0.97451804D+05 0.97451804D+05 0.11226431D+01  1  2 15  2  7  2       -2 0.301527962121D-04 0.100000000000D+01
-.475680937656D-06 0.000000000000D+00 0.000000000000D+00 0.517238936527D-06 0.000000000000D+00  7 2 -2 23 -13 13 23 21 2 0.25967764D+00 0.94343152D-02 0.97451804D+05 0.97451804D+05 0.97451804D+05 0.11226431D+01  1  2  4  2  7  2       -2 -.522070663737D-04 0.100000000000D+01
  </mgrwgt>
  </event>
  <event>
  8     66 0.25765000E-05 0.17678873E+03 0.75467711E-02 0.84419961E-01
        2 -1    0    0  501    0 0.00000000E+00 0.00000000E+00 0.41672435E+03 0.41672447E+03 0.32000000E+00 0.0000E+00 0.9000E+01
       -2 -1    0    0    0  501 0.00000000E+00 0.00000000E+00 -.19028264E+03 0.19028291E+03 0.32000000E+00 0.0000E+00 0.9000E+01
       25  2    1    2    0    0 0.23116272E+02 -.83610798E+02 0.32155915E+03 0.44838286E+03 0.30020288E+03 0.0000E+00 0.0000E+00
       23  2    1    2    0    0 -.23116272E+02 0.83610798E+02 -.95117443E+02 0.15862453E+03 0.92678393E+02 0.0000E+00 0.0000E+00
       23  1    3    3    0    0 0.28785566E+02 -.95349372E+02 0.32933013E+03 0.35594058E+03 0.91188000E+02 0.0000E+00 0.9000E+01
      -11  1    4    4    0    0 -.42576464E+02 0.94838467E+02 -.72473123E+02 0.12672586E+03 0.51099893E-03 0.0000E+00 0.9000E+01
       11  1    4    4    0    0 0.19460192E+02 -.11227669E+02 -.22644320E+02 0.31898665E+02 0.51099893E-03 0.0000E+00 0.9000E+01
       23  1    3    3    0    0 -.56692936E+01 0.11738573E+02 -.77709773E+01 0.92442276E+02 0.91188000E+02 0.0000E+00 0.9000E+01
#aMCatNLO 1  0  0  1  1 0.13505133D+04 0.00000000D+00  -5  7  0 0.00000000D+00 0.00000000D+00 0.00000000D+00 0.00000000D+00 0.00000000D+00
  <mgrwgt>
 0.2113959665D-03    5    2    0
 0.281594617446219D+03 0.000000000000000D+00 0.000000000000000D+00 0.281594617446219D+03
 0.281594617446219D+03 0.000000000000000D+00 0.000000000000000D+00 -.281594617446219D+03
 0.251220147369218D+03 0.287855658202667D+02 -.953493715514186D+02 0.211840033150885D+03
 0.165724884169533D+03 -.425764638535979D+02 0.948384673659174D+02 -.129064507384533D+03
 0.434851059705957D+02 0.194601916259533D+02 -.112276690703412D+02 -.372316374928906D+02
 0.102759097383091D+03 -.566929359262206D+01 0.117385732558423D+02 -.455438882734614D+02
 0.000000000000000D+00 0.000000000000000D+00 0.000000000000000D+00 0.000000000000000D+00
 0.193098075083396D+04 0.000000000000000D+00 0.000000000000000D+00 0.193098075083396D+04
 0.111179807898264D+04 0.000000000000000D+00 0.000000000000000D+00 -.111179807898264D+04
 0.734762057644739D+03 -.496735776745428D+03 -.489834051966663D+03 0.211840033150885D+03
 0.375698758651025D+03 -.331151326792266D+03 -.121781398206911D+03 -.129064507384533D+03
 0.918228601224931D+02 -.526579699792727D+02 -.653634531549163D+02 -.372316374928906D+02
 0.260955252477878D+03 -.199526396162379D+03 -.133781029773212D+03 -.455438882734614D+02
 0.157953990092047D+04 0.108007146967935D+04 0.810759933101702D+03 0.819182671851317D+03
0.215304371482D-05 0.000000000000D+00 0.000000000000D+00 0.189610078702D-06 0.000000000000D+00  7 2 -2 23 -11 11 23 21 0 0.64111469D-01 0.29274283D-01 0.31254255D+05 0.31254255D+05 0.31254255D+05 0.11656891D+01  1  2  2  1  7  1        2 0.204838994615D-03 0.100000000000D+01
-.880979323903D-07 0.000000000000D+00 -.826825477436D-08 0.189610078702D-06 0.000000000000D+00  7 2 -2 23 -11 11 23 21 2 0.64111469D-01 0.29274283D-01 0.31254255D+05 0.31254255D+05 0.31254255D+05 0.11656891D+01  1  2  3  1  7  1        2 -.113891415059D-04 0.100000000000D+01
0.127765343736D-06 0.000000000000D+00 0.000000000000D+00 0.189610078702D-06 0.000000000000D+00  7 2 -2 23 -11 11 23 21 2 0.64111469D-01 0.29274283D-01 0.31254255D+05 0.31254255D+05 0.31254255D+05 0.11656891D+01  1  2 15  1  7  1        2 0.165172727654D-04 0.100000000000D+01
0.560610617044D-05 0.000000000000D+00 -.173723375557D-05 0.189610078702D-06 0.000000000000D+00  7 2 -2 23 -11 11 23 21 2 0.69714893D+00 0.29274283D-01 0.31254255D+05 0.31254255D+05 0.31254255D+05 0.11656891D+01  1  2  5  1  7  1        2 0.142497691806D-05 0.100000000000D+01
0.127526566260D-05 0.000000000000D+00 -.488624721947D-06 0.189610078702D-06 0.000000000000D+00  7 21 -2 23 -11 11 23 -2 2 0.69714893D+00 0.29274283D-01 0.31254255D+05 0.31254255D+05 0.31254255D+05 0.11656891D+01  1  2  5  3  7  1        2 0.386370357453D-08 0.100000000000D+01
  </mgrwgt>
  </event>
  <event>
  8     66 0.25765000E-05 0.16059259E+03 0.75467711E-02 0.99358322E-01
        2 -1    0    0  501    0 0.00000000E+00 0.00000000E+00 0.16633550E+03 0.16633580E+03 0.32000000E+00 0.0000E+00 0.9000E+01
       -2 -1    0    0    0  501 0.00000000E+00 0.00000000E+00 -.82457464E+03 0.82457470E+03 0.32000000E+00 0.0000E+00 0.9000E+01
       25  2    1    2    0    0 -.16112074E+03 0.24042115E+03 -.26296916E+03 0.49250612E+03 0.29941155E+03 0.0000E+00 0.0000E+00
       23  2    1    2    0    0 0.16112074E+03 -.24042115E+03 -.39526998E+03 0.49840438E+03 0.91686145E+02 0.0000E+00 0.0000E+00
       23  1    3    3    0    0 -.10917056E+03 0.50804170E+02 -.22723729E+03 0.27285768E+03 0.91188000E+02 0.0000E+00 0.9000E+01
      -13  1    4    4    0    0 0.47081469E+02 -.13328013E+03 -.13969537E+03 0.19873365E+03 0.10565837E+00 0.0000E+00 0.9000E+01
       13  1    4    4    0    0 0.11403927E+03 -.10714103E+03 -.25557461E+03 0.29967073E+03 0.10565837E+00 0.0000E+00 0.9000E+01
       23  1    3    3    0    0 -.51950177E+02 0.18961698E+03 -.35731870E+02 0.21964844E+03 0.91188000E+02 0.0000E+00 0.9000E+01
#aMCatNLO 1  0  0  1  2 0.67445348D+01 0.00000000D+00  -5  7  0 0.00000000D+00 0.00000000D+00 0.00000000D+00 0.00000000D+00 0.00000000D+00
  <mgrwgt>
 0.8643117731D-04    8    2    0
 0.370346075427460D+03 0.000000000000000D+00 0.000000000000000D+00 0.370346075427460D+03
 0.370346075427460D+03 0.000000000000000D+00 0.000000000000000D+00 -.370346075427460D+03
 0.163092129644854D+03 -.109170558470672D+03 0.508041700105564D+02 -.615184271648266D+02
 0.141724563835981D+03 0.470813807103976D+02 -.133280162002561D+03 -.102758941933326D+02
 0.173780286558642D+03 0.114039354665832D+03 -.107140991710677D+03 -.756004066064266D+02
 0.262095170815443D+03 -.519501769055586D+02 0.189616983702682D+03 0.147394727964586D+03
 0.000000000000000D+00 0.000000000000000D+00 0.000000000000000D+00 -.000000000000000D+00
 0.373201926814070D+03 0.000000000000000D+00 0.000000000000000D+00 0.373201926814070D+03
 0.374365017541907D+03 0.000000000000000D+00 0.000000000000000D+00 -.374365017541907D+03
 0.163705163698688D+03 -.110439479747643D+03 0.500273296294133D+02 -.615184271648266D+02
 0.141998469287769D+03 0.459797124872180D+02 -.133954609171128D+03 -.102758941933326D+02
 0.173411252774609D+03 0.112691244566948D+03 -.107966311911422D+03 -.756004066064266D+02
 0.261607971377745D+03 -.539836639431862D+02 0.188372072080481D+03 0.147394727964586D+03
 0.684408721716659D+01 0.575218663666345D+01 0.352151937265642D+01 -.116309072783642D+01
0.537240902861D-05 0.000000000000D+00 0.000000000000D+00 0.166291132043D-06 0.000000000000D+00  7 2 -2 23 -13 13 23 21 0 0.25590105D-01 0.12685767D+00 0.11075353D+06 0.11075353D+06 0.11075353D+06 0.11181001D+01  1  2  2  1  7  1        2 0.654332509194D-04 0.100000000000D+01
-.294319660063D-06 0.000000000000D+00 -.206314652576D-07 0.166291132043D-06 0.000000000000D+00  7 2 -2 23 -13 13 23 21 2 0.25590105D-01 0.12685767D+00 0.11075353D+06 0.11075353D+06 0.11075353D+06 0.11181001D+01  1  2  3  1  7  1        2 -.448136220673D-05 0.100000000000D+01
0.339546359529D-06 0.000000000000D+00 0.000000000000D+00 0.166291132043D-06 0.000000000000D+00  7 2 -2 23 -13 13 23 21 2 0.25590105D-01 0.12685767D+00 0.11075353D+06 0.11075353D+06 0.11075353D+06 0.11181001D+01  1  2 15  1  7  1        2 0.516999177934D-05 0.100000000000D+01
0.218873125205D-05 0.000000000000D+00 0.000000000000D+00 0.166291132043D-06 0.000000000000D+00  7 2 -2 23 -13 13 23 21 2 0.25925010D-01 0.12685767D+00 0.11298827D+06 0.11298827D+06 0.11298827D+06 0.11173959D+01  1  2 12  1  7  1        2 0.327762034200D-04 0.100000000000D+01
-.358482568237D-05 0.000000000000D+00 0.000000000000D+00 0.166291132043D-06 0.000000000000D+00  7 2 -2 23 -13 13 23 21 2 0.25590105D-01 0.12685767D+00 0.11075353D+06 0.11075353D+06 0.11075353D+06 0.11181001D+01  1  2  4  1  7  1        2 -.545831777844D-04 0.100000000000D+01
0.217665549209D-05 0.000000000000D+00 0.000000000000D+00 0.166291132043D-06 0.243472849669D-07  7 2 -2 23 -13 13 23 21 2 0.25787438D-01 0.12823431D+00 0.11298827D+06 0.11298827D+06 0.11298827D+06 0.11173959D+01  1  2 11  1  7  1        2 0.318920526344D-04 0.100000000000D+01
0.109467448738D-06 0.000000000000D+00 0.000000000000D+00 0.166291132043D-06 0.000000000000D+00  7 21 -2 23 -13 13 23 -2 2 0.25925010D-01 0.12685767D+00 0.11298827D+06 0.11298827D+06 0.11298827D+06 0.11173959D+01  1  2 12  3  7  1        2 0.950335141238D-05 0.100000000000D+01
0.845250644400D-08 0.000000000000D+00 0.000000000000D+00 0.166291132043D-06 0.354699815023D-10  7 21 -2 23 -13 13 23 -2 2 0.25787438D-01 0.12823431D+00 0.11298827D+06 0.11298827D+06 0.11298827D+06 0.11173959D+01  1  2 11  3  7  1        2 0.720867135961D-06 0.100000000000D+01
  </mgrwgt>
  </event>
  <event>
  8     66 -.25765000E-05 0.13808987E+03 0.75467711E-02 0.10596432E+00
        2 -1    0    0  501    0 0.00000000E+00 0.00000000E+00 0.20875157E+04 0.20875157E+04 0.32000000E+00 0.0000E+00 0.9000E+01
       -2 -1    0    0    0  501 0.00000000E+00 0.00000000E+00 -.64736098E+02 0.64736889E+02 0.32000000E+00 0.0000E+00 0.9000E+01
       25  2    1    2    0    0 -.49054835E+02 0.88794342E+02 0.19877706E+04 0.20129509E+04 0.30074672E+03 0.0000E+00 0.0000E+00
       23  2    1    2    0    0 0.49054835E+02 -.88794342E+02 0.35009010E+02 0.13930171E+03 0.88817367E+02 0.0000E+00 0.0000E+00
       23  1    3    3    0    0 -.24751080E+02 -.71403136E+02 0.51227274E+03 0.52578478E+03 0.91188000E+02 0.0000E+00 0.9000E+01
      -13  1    4    4    0    0 0.44734820E+02 -.90732563E+02 0.57470501E+02 0.11634634E+03 0.10565837E+00 0.0000E+00 0.9000E+01
       13  1    4    4    0    0 0.43200148E+01 0.19382208E+01 -.22461492E+02 0.22955370E+02 0.10565837E+00 0.0000E+00 0.9000E+01
       23  1    3    3    0    0 -.24303755E+02 0.16019748E+03 0.14754978E+04 0.14871661E+04 0.91188000E+02 0.0000E+00 0.9000E+01
#aMCatNLO 1  0  0  2  1 0.11074264D+03 0.00000000D+00  -5  7  0 0.00000000D+00 0.00000000D+00 0.00000000D+00 0.00000000D+00 0.00000000D+00
  <mgrwgt>
 -.2447275928D-05    1    2    0
 0.367611884200197D+03 0.000000000000000D+00 0.000000000000000D+00 0.367611884200197D+03
 0.367611884200197D+03 0.000000000000000D+00 0.000000000000000D+00 -.367611884200197D+03
 0.129765688552837D+03 -.247510798259099D+02 -.714031357847313D+02 0.530363915547665D+02
 0.182470460154195D+03 0.447348769389138D+02 -.907326939769223D+02 -.151861245411178D+03
 0.128995210296916D+03 0.431995775850924D+01 0.193835162366143D+01 -.128908281493058D+03
 0.293992409396445D+03 -.243037548715131D+02 0.160197478137992D+03 0.227733135349470D+03
 0.000000000000000D+00 -.000000000000000D+00 0.000000000000000D+00 -.000000000000000D+00
 0.401485334779666D+03 0.000000000000000D+00 0.000000000000000D+00 0.401485334779666D+03
 0.422172688388221D+03 0.000000000000000D+00 0.000000000000000D+00 -.422172688388221D+03
 0.130601231997966D+03 -.112059845557879D+02 -.761774083070001D+02 0.530363915547665D+02
 0.191590564851844D+03 0.641946923787084D+02 -.975917422368167D+02 -.151861245411178D+03
 0.130162121536448D+03 0.178021264695249D+02 -.281374102197524D+01 -.128908281493058D+03
 0.287357544305344D+03 0.593987397163438D+01 0.149537433060418D+03 0.227733135349470D+03
 0.839465604762852D+02 -.767307082640798D+02 0.270454585053739D+02 -.206873536085547D+02
-.368143245819D-07 0.000000000000D+00 0.000000000000D+00 0.632543688371D-07 0.000000000000D+00  7 2 -2 23 -13 13 23 21 2 0.32115632D+00 0.99594625D-02 0.42077641D+05 0.42077641D+05 0.42077641D+05 0.11539441D+01  1  2 14  2  7  2       -2 -.244727592783D-05 0.100000000000D+01
  </mgrwgt>
  </event>
  <event>
  8     66 0.25765000E-05 0.29657868E+03 0.75467711E-02 0.91953245E-01
        2 -1    0    0  501    0 0.00000000E+00 0.00000000E+00 0.22205479E+04 0.22205479E+04 0.32000000E+00 0.0000E+00 0.9000E+01
       -2 -1    0    0    0  501 0.00000000E+00 0.00000000E+00 -.16855583E+03 0.16855613E+03 0.32000000E+00 0.0000E+00 0.9000E+01
       25  2    1    2    0    0 0.35804876E+03 0.44513458E+03 0.11081111E+04 0.12821676E+04 0.29949942E+03 0.0000E+00 0.0000E+00
       23  2    1    2    0    0 -.35804876E+03 -.44513458E+03 0.94388098E+03 0.11069364E+04 0.89740013E+02 0.0000E+00 0.0000E+00
       23  1    3    3    0    0 0.28590184E+03 0.41334127E+03 0.77759347E+03 0.93035354E+03 0.91188000E+02 0.0000E+00 0.9000E+01
      -11  1    4    4    0    0 -.24672935E+03 -.35546524E+03 0.75294192E+03 0.86841951E+03 0.51099893E-03 0.0000E+00 0.9000E+01
       11  1    4    4    0    0 -.11131941E+03 -.89669338E+02 0.19093905E+03 0.23851693E+03 0.51099893E-03 0.0000E+00 0.9000E+01
       23  1    3    3    0    0 0.72146924E+02 0.31793315E+02 0.33051762E+03 0.35181407E+03 0.91188000E+02 0.0000E+00 0.9000E+01
#aMCatNLO 1  0  0  2  1 0.65518635D+02 0.00000000D+00  -5  7  0 0.00000000D+00 0.00000000D+00 0.00000000D+00 0.00000000D+00 0.00000000D+00
  <mgrwgt>
 0.2556763989D-03    9    2    0
 0.611789740434893D+03 0.000000000000000D+00 0.000000000000000D+00 0.611789740434893D+03
 0.611789740434893D+03 0.000000000000000D+00 0.000000000000000D+00 -.611789740434893D+03
 0.512509244278869D+03 0.285901837220737D+03 0.413341265289208D+03 -.419477295001818D+02
 0.432921387759030D+03 -.246729350000203D+03 -.355465242204784D+03 0.137846803363685D+02
 0.145504507497121D+03 -.111319410787019D+03 -.896693377273567D+02 -.271838252559889D+02
 0.132644341334766D+03 0.721469235664838D+02 0.317933146429324D+02 0.553468744198022D+02
 0.000000000000000D+00 -.000000000000000D+00 -.000000000000000D+00 -.000000000000000D+00
 0.645257676677082D+03 0.000000000000000D+00 0.000000000000000D+00 0.645257676677082D+03
 0.645594201404749D+03 0.000000000000000D+00 0.000000000000000D+00 -.645594201404749D+03
 0.539345797129854D+03 0.307062573898115D+03 0.431893043748661D+03 -.419477295001818D+02
 0.411059498567531D+03 -.229750530112267D+03 -.340579781936254D+03 0.137846803363685D+02
 0.138065505246278D+03 -.105614679495122D+03 -.846679565036531D+02 -.271838252559889D+02
 0.136861577471768D+03 0.775687198752432D+02 0.365466446193841D+02 0.553468744198022D+02
 0.655194996664009D+02 -.492660841659697D+02 -.431919499281378D+02 -.336524727667298D+00
0.190099750836D-04 0.000000000000D+00 0.000000000000D+00 0.339828863941D-06 0.000000000000D+00  7 2 -2 23 -11 11 23 21 0 0.34162278D+00 0.25931691D-01 0.36420008D+06 0.36420008D+06 0.36420008D+06 0.10783754D+01  1  2  2  2  7  2       -2 0.157799129601D-03 0.100000000000D+01
-.105587014751D-05 0.000000000000D+00 -.730033097622D-07 0.339828863941D-06 0.000000000000D+00  7 2 -2 23 -11 11 23 21 2 0.34162278D+00 0.25931691D-01 0.36420008D+06 0.36420008D+06 0.36420008D+06 0.10783754D+01  1  2  3  2  7  2       -2 -.101923316724D-04 0.100000000000D+01
0.120145674853D-05 0.000000000000D+00 0.000000000000D+00 0.339828863941D-06 0.000000000000D+00  7 2 -2 23 -11 11 23 21 2 0.34162278D+00 0.25931691D-01 0.36420008D+06 0.36420008D+06 0.36420008D+06 0.10783754D+01  1  2 15  2  7  2       -2 0.115976814953D-04 0.100000000000D+01
0.275060378649D-04 0.000000000000D+00 0.000000000000D+00 0.339828863941D-06 0.000000000000D+00  7 2 -2 23 -11 11 23 21 2 0.34162278D+00 0.28035819D-01 0.40614689D+06 0.40614689D+06 0.40614689D+06 0.10749505D+01  1  2 12  2  7  2       -2 0.228969257908D-03 0.100000000000D+01
-.213820666725D-04 0.000000000000D+00 0.000000000000D+00 0.339828863941D-06 0.000000000000D+00  7 2 -2 23 -11 11 23 21 2 0.34162278D+00 0.25931691D-01 0.36420008D+06 0.36420008D+06 0.36420008D+06 0.10783754D+01  1  2  4  2  7  2       -2 -.206401436656D-03 0.100000000000D+01
-.970537281759D-04 0.000000000000D+00 -.213757699590D-04 0.339828863941D-06 0.000000000000D+00  7 2 -2 23 -11 11 23 21 2 0.34162278D+00 0.29196834D-01 0.36420008D+06 0.36420008D+06 0.36420008D+06 0.10783754D+01  1  2  5  2  7  2       -2 -.760656504276D-03 0.100000000000D+01
0.990409167790D-04 0.000000000000D+00 0.212263246120D-04 0.339828863941D-06 0.000000000000D+00  7 2 -2 23 -11 11 23 21 2 0.34162278D+00 0.25931691D-01 0.36420008D+06 0.36420008D+06 0.36420008D+06 0.10783754D+01  1  2  6  2  7  2       -2 0.956043577268D-03 0.100000000000D+01
0.359281883267D-06 0.000000000000D+00 0.000000000000D+00 0.339828863941D-06 0.000000000000D+00  7 2 21 23 -11 11 23 2 2 0.34162278D+00 0.28035819D-01 0.40614689D+06 0.40614689D+06 0.40614689D+06 0.10749505D+01  1  2 12  4  7  2       -2 0.347146432565D-04 0.100000000000D+01
-.172656309691D-05 0.000000000000D+00 -.401577024206D-06 0.339828863941D-06 0.000000000000D+00  7 2 21 23 -11 11 23 2 2 0.34162278D+00 0.29196834D-01 0.36420008D+06 0.36420008D+06 0.36420008D+06 0.10783754D+01  1  2  5  4  7  2       -2 -.156197617994D-03 0.100000000000D+01
  </mgrwgt>
  </event>
  <event>
  8     66 0.25765000E-05 0.30624536E+03 0.75467711E-02 0.95846735E-01
        2 -1    0    0  501    0 0.00000000E+00 0.00000000E+00 0.51331464E+03 0.51331474E+03 0.32000000E+00 0.0000E+00 0.9000E+01
       -2 -1    0    0    0  501 0.00000000E+00 0.00000000E+00 -.23147437E+03 0.23147459E+03 0.32000000E+00 0.0000E+00 0.9000E+01
       25  2    1    2    0    0 -.23080500E+03 0.11452968E+03 0.25442302E+03 0.46979327E+03 0.29931029E+03 0.0000E+00 0.0000E+00
       23  2    1    2    0    0 0.23080500E+03 -.11452968E+03 0.27417255E+02 0.27499606E+03 0.92103919E+02 0.0000E+00 0.0000E+00
       23  1    3    3    0    0 -.41931639E+02 0.84674837E+00 -.23943718E+02 0.10318688E+03 0.91188000E+02 0.0000E+00 0.9000E+01
      -11  1    4    4    0    0 0.19055513E+03 -.49167073E+02 0.16957372E+02 0.19752522E+03 0.51099893E-03 0.0000E+00 0.9000E+01
       11  1    4    4    0    0 0.40249872E+02 -.65362611E+02 0.10459883E+02 0.77470848E+02 0.51099893E-03 0.0000E+00 0.9000E+01
       23  1    3    3    0    0 -.18887336E+03 0.11368294E+03 0.27836673E+03 0.36660639E+03 0.91188000E+02 0.0000E+00 0.9000E+01
#aMCatNLO 1  0  0  2  1 0.25030990D+03 0.00000000D+00  -5  7  0 0.00000000D+00 0.00000000D+00 0.00000000D+00 0.00000000D+00 0.00000000D+00
  <mgrwgt>
 0.1325847867D-03    6    2    0
 0.344701761766341D+03 0.000000000000000D+00 0.000000000000000D+00 0.344701761766341D+03
 0.344701761766341D+03 0.000000000000000D+00 0.000000000000000D+00 -.344701761766341D+03
 0.121265397380040D+03 -.419316392266507D+02 0.846748374635013D+00 -.680519353633317D+02
 0.206461672297863D+03 0.190555129585817D+03 -.491670732225001D+02 -.624320721047782D+02
 0.794185748924199D+02 0.402498723902886D+02 -.653626109528969D+02 -.203712272563200D+02
 0.282257878962360D+03 -.188873362749455D+03 0.113682935800762D+03 0.150855234724430D+03
 0.000000000000000D+00 -.000000000000000D+00 0.000000000000000D+00 -.000000000000000D+00
 0.471021003465871D+03 0.000000000000000D+00 0.000000000000000D+00 0.471021003465871D+03
 0.516896791018154D+03 0.000000000000000D+00 0.000000000000000D+00 -.516896791018154D+03
 0.122829109483028D+03 -.252943834258077D+02 -.387410254485702D+02 -.680519353633317D+02
 0.262912360767686D+03 0.222547229509498D+03 -.125291166706949D+03 -.624320721047782D+02
 0.112031804205969D+03 0.532989531384068D+02 -.964124465412317D+02 -.203712272563200D+02
 0.235665381636555D+03 -.153572192385040D+03 0.296850238368159D+02 0.150855234724430D+03
 0.254479138390788D+03 -.969796068370562D+02 0.230759614859935D+03 -.458757875522826D+02
0.171241137186D-05 0.000000000000D+00 0.000000000000D+00 0.735032928700D-07 0.000000000000D+00  7 2 -2 23 -11 11 23 21 0 0.78971508D-01 0.35611467D-01 0.93786219D+05 0.93786219D+05 0.93786219D+05 0.11240156D+01  1  2  2  2  7  2       -2 0.914848073454D-04 0.100000000000D+01
-.935153818297D-07 0.000000000000D+00 -.657611055621D-08 0.735032928700D-07 0.000000000000D+00  7 2 -2 23 -11 11 23 21 2 0.78971508D-01 0.35611467D-01 0.93786219D+05 0.93786219D+05 0.93786219D+05 0.11240156D+01  1  2  3  2  7  2       -2 -.631202292416D-05 0.100000000000D+01
0.104695897633D-06 0.000000000000D+00 0.000000000000D+00 0.735032928700D-07 0.000000000000D+00  7 2 -2 23 -11 11 23 21 2 0.78971508D-01 0.35611467D-01 0.93786219D+05 0.93786219D+05 0.93786219D+05 0.11240156D+01  1  2 15  2  7  2       -2 0.706667601625D-05 0.100000000000D+01
-.396379130878D-06 0.000000000000D+00 -.530948825179D-06 0.735032928700D-07 0.000000000000D+00  7 2 -2 23 -11 11 23 21 2 0.78971508D-01 0.70672563D-01 0.93786219D+05 0.93786219D+05 0.93786219D+05 0.11240156D+01  1  2  5  2  7  2       -2 -.695291377919D-05 0.100000000000D+01
0.694815024844D-06 0.000000000000D+00 0.426732449630D-06 0.735032928700D-07 0.000000000000D+00  7 2 -2 23 -11 11 23 21 2 0.78971508D-01 0.35611467D-01 0.93786219D+05 0.93786219D+05 0.93786219D+05 0.11240156D+01  1  2  6  2  7  2       -2 0.468980426435D-04 0.100000000000D+01
0.224708796715D-08 0.000000000000D+00 -.393902666879D-07 0.735032928700D-07 0.000000000000D+00  7 2 21 23 -11 11 23 2 2 0.78971508D-01 0.70672563D-01 0.93786219D+05 0.93786219D+05 0.93786219D+05 0.11240156D+01  1  2  5  4  7  2       -2 0.400197390794D-06 0.100000000000D+01
  </mgrwgt>
  </event>
  <event>
  8     66 0.25765000E-05 0.31464601E+03 0.75467711E-02 0.93889310E-01
        2 -1    0    0  501    0 0.00000000E+00 0.00000000E+00 0.34366881E+03 0.34366896E+03 0.32000000E+00 0.0000E+00 0.9000E+01
       -2 -1    0    0    0  501 0.00000000E+00 0.00000000E+00 -.55386766E+03 0.55386775E+03 0.32000000E+00 0.0000E+00 0.9000E+01
       25  2    1    2    0    0 -.25837908E+03 0.27601938E+03 -.92883351E+02 0.49170394E+03 0.30033148E+03 0.0000E+00 0.0000E+00
       23  2    1    2    0    0 0.25837908E+03 -.27601938E+03 -.11731550E+03 0.40583278E+03 0.89391668E+02 0.0000E+00 0.0000E+00
       23  1    3    3    0    0 -.59109162E+02 -.11808265E+02 0.23265023E+02 0.11175796E+03 0.91188000E+02 0.0000E+00 0.9000E+01
      -13  1    4    4    0    0 0.20965939E+03 -.25710258E+03 -.78996305E+02 0.34102672E+03 0.10565837E+00 0.0000E+00 0.9000E+01
       13  1    4    4    0    0 0.48719688E+02 -.18916801E+02 -.38319193E+02 0.64806057E+02 0.10565837E+00 0.0000E+00 0.9000E+01
       23  1    3    3    0    0 -.19926992E+03 0.28782764E+03 -.11614837E+03 0.37994598E+03 0.91188000E+02 0.0000E+00 0.9000E+01
#aMCatNLO 1  0  0  2  1 0.19191006D+03 0.00000000D+00  -5  7  0 0.00000000D+00 0.00000000D+00 0.00000000D+00 0.00000000D+00 0.00000000D+00
  <mgrwgt>
 0.2161840403D-03    9    2    0
 0.436287920234274D+03 0.000000000000000D+00 0.000000000000000D+00 0.436287920234274D+03
 0.436287920234274D+03 0.000000000000000D+00 0.000000000000000D+00 -.436287920234274D+03
 0.120559319579440D+03 -.591091615408688D+02 -.118082647939717D+02 0.508524345331522D+02
 0.331752714254279D+03 0.209659617860576D+03 -.257102909703421D+03 0.895475110513061D+00
 0.574286252862610D+02 0.487194629595380D+02 -.189164683900052D+02 -.238039525048660D+02
 0.362835181348567D+03 -.199269919279245D+03 0.287827642887398D+03 -.279439571387993D+02
 0.000000000000000D+00 -.000000000000000D+00 -.000000000000000D+00 -.000000000000000D+00
 0.472994972587033D+03 0.000000000000000D+00 0.000000000000000D+00 0.472994972587033D+03
 0.797075438905481D+03 0.000000000000000D+00 0.000000000000000D+00 -.797075438905481D+03
 0.115662273587722D+03 -.484115828001690D+02 0.115264365835584D+02 0.508524345331522D+02
 0.307496096150455D+03 0.238608768497131D+03 -.193955930222252D+03 0.895475110513061D+00
 0.594846311027762D+02 0.540140202829589D+02 -.736741443462764D+01 -.238039525048660D+02
 0.410787504402476D+03 -.164235486205394D+03 0.364248490401150D+03 -.279439571387993D+02
 0.376639906249085D+03 -.799757197745270D+02 -.174451582327829D+03 -.324080466318448D+03
0.147014538050D-04 0.000000000000D+00 0.000000000000D+00 0.227873309758D-06 0.000000000000D+00  7 2 -2 23 -13 13 23 21 0 0.52872144D-01 0.85210428D-01 0.18279112D+06 0.18279112D+06 0.18279112D+06 0.11008391D+01  1  2  2  2  7  2       -2 0.207002850336D-03 0.100000000000D+01
-.816340113590D-06 0.000000000000D+00 -.564574535927D-07 0.227873309758D-06 0.000000000000D+00  7 2 -2 23 -13 13 23 21 2 0.52872144D-01 0.85210428D-01 0.18279112D+06 0.18279112D+06 0.18279112D+06 0.11008391D+01  1  2  3  2  7  2       -2 -.139294791375D-04 0.100000000000D+01
0.948877299090D-06 0.000000000000D+00 0.000000000000D+00 0.227873309758D-06 0.000000000000D+00  7 2 -2 23 -13 13 23 21 2 0.52872144D-01 0.85210428D-01 0.18279112D+06 0.18279112D+06 0.18279112D+06 0.11008391D+01  1  2 15  2  7  2       -2 0.161910046091D-04 0.100000000000D+01
0.141412551957D-04 0.000000000000D+00 0.000000000000D+00 0.227873309758D-06 0.000000000000D+00  7 2 -2 23 -13 13 23 21 2 0.52872144D-01 0.15659347D+00 0.28496300D+06 0.28496300D+06 0.28496300D+06 0.10862080D+01  1  2 12  2  7  2       -2 0.497921625338D-04 0.100000000000D+01
-.174950690362D-04 0.000000000000D+00 0.000000000000D+00 0.227873309758D-06 0.000000000000D+00  7 2 -2 23 -13 13 23 21 2 0.52872144D-01 0.85210428D-01 0.18279112D+06 0.18279112D+06 0.18279112D+06 0.11008391D+01  1  2  4  2  7  2       -2 -.298524101771D-03 0.100000000000D+01
-.194421186756D-04 0.000000000000D+00 -.441718496553D-05 0.227873309758D-06 0.000000000000D+00  7 2 -2 23 -13 13 23 21 2 0.52872144D-01 0.16178686D+00 0.18279112D+06 0.18279112D+06 0.18279112D+06 0.11008391D+01  1  2  5  2  7  2       -2 -.651536597322D-04 0.100000000000D+01
0.190066039050D-04 0.000000000000D+00 0.364250190810D-05 0.227873309758D-06 0.000000000000D+00  7 2 -2 23 -13 13 23 21 2 0.52872144D-01 0.85210428D-01 0.18279112D+06 0.18279112D+06 0.18279112D+06 0.11008391D+01  1  2  6  2  7  2       -2 0.324315917057D-03 0.100000000000D+01
0.939821258103D-06 0.000000000000D+00 0.000000000000D+00 0.227873309758D-06 0.000000000000D+00  7 2 21 23 -13 13 23 2 2 0.52872144D-01 0.15659347D+00 0.28496300D+06 0.28496300D+06 0.28496300D+06 0.10862080D+01  1  2 12  4  7  2       -2 0.279463906341D-04 0.100000000000D+01
-.110255078208D-05 0.000000000000D+00 -.307757433969D-06 0.227873309758D-06 0.000000000000D+00  7 2 21 23 -13 13 23 2 2 0.52872144D-01 0.16178686D+00 0.18279112D+06 0.18279112D+06 0.18279112D+06 0.11008391D+01  1  2  5  4  7  2       -2 -.314570442153D-04 0.100000000000D+01
  </mgrwgt>
  </event>
  <event>
  8     66 0.25765000E-05 0.22059496E+03 0.75467711E-02 0.10422878E+00
        2 -1    0    0  501    0 0.00000000E+00 0.00000000E+00 0.26301748E+03 0.26301768E+03 0.32000000E+00 0.0000E+00 0.9000E+01
       -2 -1    0    0    0  501 0.00000000E+00 0.00000000E+00 -.42267017E+03 0.42267029E+03 0.32000000E+00 0.0000E+00 0.9000E+01
       25  2    1    2    0    0 -.14259474E+03 -.47009676E+02 -.30839793E+03 0.45560001E+03 0.29986483E+03 0.0000E+00 0.0000E+00
       23  2    1    2    0    0 0.14259474E+03 0.47009676E+02 0.14874524E+03 0.23008795E+03 0.90951364E+02 0.0000E+00 0.0000E+00
       23  1    3    3    0    0 -.13725879E+03 0.93686532E+01 -.44863457E+02 0.17104306E+03 0.91188000E+02 0.0000E+00 0.9000E+01
      -13  1    4    4    0    0 0.45608419E+02 -.21128216E+02 0.17456085E+02 0.53209543E+02 0.10565837E+00 0.0000E+00 0.9000E+01
       13  1    4    4    0    0 0.96986318E+02 0.68137892E+02 0.13128916E+03 0.17687841E+03 0.10565837E+00 0.0000E+00 0.9000E+01
       23  1    3    3    0    0 -.53359479E+01 -.56378329E+02 -.26353447E+03 0.28455695E+03 0.91188000E+02 0.0000E+00 0.9000E+01
#aMCatNLO 1  0  0  1  1 0.20510647D+02 0.00000000D+00  -5  7  0 0.00000000D+00 0.00000000D+00 0.00000000D+00 0.00000000D+00 0.00000000D+00
  <mgrwgt>
 0.1488419442D-03    4    2    0
 0.333421281371571D+03 0.000000000000000D+00 0.000000000000000D+00 0.333421281371571D+03
 0.333421281371571D+03 0.000000000000000D+00 0.000000000000000D+00 -.333421281371571D+03
 0.165135822703877D+03 -.137258788964133D+03 0.936865315627416D+01 -.518090592691942D+01
 0.588923348045290D+02 0.456083500143058D+02 -.211283362553491D+02 0.306884166222732D+02
 0.213310024249782D+03 0.969863870373703D+02 0.681380120586404D+02 0.177347169381348D+03
 0.229504380984954D+03 -.533594808754349D+01 -.563783289595655D+02 -.202854680076702D+03
 0.000000000000000D+00 -.000000000000000D+00 0.000000000000000D+00 -.000000000000000D+00
 0.336061715873747D+03 0.000000000000000D+00 0.000000000000000D+00 0.336061715873747D+03
 0.375939813892691D+03 0.000000000000000D+00 0.000000000000000D+00 -.375939813892691D+03
 0.161990418310352D+03 -.133658145932739D+03 0.585683531967867D+01 -.518090592691942D+01
 0.603781832008297D+02 0.469211476614013D+02 -.224087481575327D+02 0.306884166222732D+02
 0.214083124968197D+03 0.101690657045260D+03 0.635497929050534D+02 0.177347169381348D+03
 0.230706193452077D+03 -.270460241986839D+00 -.613188549744978D+02 -.202854680076702D+03
 0.448436098349830D+02 -.146831985319352D+02 0.143209749072984D+02 -.398780980189438D+02
0.530995601950D-05 0.000000000000D+00 0.000000000000D+00 0.772691898087D-06 0.000000000000D+00  7 2 -2 23 -13 13 23 21 0 0.40464252D-01 0.65026204D-01 0.48662134D+05 0.48662134D+05 0.48662134D+05 0.11483329D+01  1  2  2  1  7  1        2 0.184139659673D-03 0.100000000000D+01
-.233795610461D-06 0.000000000000D+00 -.203916292584D-07 0.772691898087D-06 0.000000000000D+00  7 2 -2 23 -13 13 23 21 2 0.40464252D-01 0.65026204D-01 0.48662134D+05 0.48662134D+05 0.48662134D+05 0.11483329D+01  1  2  3  1  7  1        2 -.106912472965D-04 0.100000000000D+01
0.328439023444D-06 0.000000000000D+00 0.000000000000D+00 0.772691898087D-06 0.000000000000D+00  7 2 -2 23 -13 13 23 21 2 0.40464252D-01 0.65026204D-01 0.48662134D+05 0.48662134D+05 0.48662134D+05 0.11483329D+01  1  2 15  1  7  1        2 0.150191990968D-04 0.100000000000D+01
-.866531922039D-06 0.000000000000D+00 0.000000000000D+00 0.772691898087D-06 0.000000000000D+00  7 2 -2 23 -13 13 23 21 2 0.40464252D-01 0.65026204D-01 0.48662134D+05 0.48662134D+05 0.48662134D+05 0.11483329D+01  1  2  4  1  7  1        2 -.396256672680D-04 0.100000000000D+01
  </mgrwgt>
  </event>
  <event>
  8     66 0.25765000E-05 0.35048545E+03 0.75467711E-02 0.89245630E-01
        2 -1    0    0  501    0 0.00000000E+00 0.00000000E+00 0.67871391E+03 0.67871398E+03 0.32000000E+00 0.0000E+00 0.9000E+01
       -2 -1    0    0    0  501 0.00000000E+00 0.00000000E+00 -.75207766E+03 0.75207773E+03 0.32000000E+00 0.0000E+00 0.9000E+01
       25  2    1    2    0    0 0.95627965E+02 -.26378989E+03 0.58198356E+03 0.71214599E+03 0.29952835E+03 0.0000E+00 0.0000E+00
       23  2    1    2    0    0 -.95627965E+02 0.26378989E+03 -.65534732E+03 0.71864572E+03 0.90784060E+02 0.0000E+00 0.0000E+00
       23  1    3    3    0    0 0.14099556E+03 -.25394877E+03 0.47429165E+03 0.56359342E+03 0.91188000E+02 0.0000E+00 0.9000E+01
      -13  1    4    4    0    0 0.16664468E+02 0.21893082E+02 -.48032397E+02 0.55354619E+02 0.10565837E+00 0.0000E+00 0.9000E+01
       13  1    4    4    0    0 -.11229243E+03 0.24189681E+03 -.60731493E+03 0.66329110E+03 0.10565837E+00 0.0000E+00 0.9000E+01
       23  1    3    3    0    0 -.45367592E+02 -.98411206E+01 0.10769191E+03 0.14855257E+03 0.91188000E+02 0.0000E+00 0.9000E+01
#aMCatNLO 1  0  0  1  2 0.68976748D+03 0.00000000D+00  -5  7  0 0.00000000D+00 0.00000000D+00 0.00000000D+00 0.00000000D+00 0.00000000D+00
  <mgrwgt>
 0.4075697987D-03    3    2    0
 0.714454807576700D+03 0.000000000000000D+00 0.000000000000000D+00 0.714454807576700D+03
 0.714454807576700D+03 0.000000000000000D+00 0.000000000000000D+00 -.714454807576700D+03
 0.588687073252203D+03 0.140995557028510D+03 -.253948772512409D+03 0.503852649797444D+03
 0.529606421400721D+02 0.166646424065786D+02 0.218927843372791D+02 -.452529038108165D+02
 0.632984494995833D+03 -.112292607767909D+03 0.241897108782454D+03 -.574060562927381D+03
 0.154277404765293D+03 -.453675916671792D+02 -.984112060732461D+01 0.115460816940754D+03
 0.000000000000000D+00 0.000000000000000D+00 0.000000000000000D+00 -.000000000000000D+00
 0.984726706203088D+03 0.000000000000000D+00 0.000000000000000D+00 0.984726706203088D+03
 0.141483496519782D+04 0.000000000000000D+00 0.000000000000000D+00 -.141483496519782D+04
 0.672315108723447D+03 -.903411113593268D+02 -.426219831735076D+03 0.503852649797444D+03
 0.460443425006983D+02 -.149827882223412D+01 0.836727754896590D+01 -.452529038108165D+02
 0.676609180883169D+03 -.352543609907316D+03 0.629877516697484D+02 -.574060562927381D+03
 0.191714027362131D+03 -.108841316251615D+03 -.571085332625312D+02 0.115460816940754D+03
 0.812879011931466D+03 0.553224316340492D+03 0.411973335778893D+03 -.430108258994736D+03
0.122420649320D-03 0.000000000000D+00 0.000000000000D+00 0.275801192952D-05 0.000000000000D+00  7 2 -2 23 -13 13 23 21 0 0.10441754D+00 0.11570427D+00 0.12284005D+06 0.12284005D+06 0.12284005D+06 0.11144636D+01  1  2  2  1  7  1        2 0.389268407345D-03 0.100000000000D+01
-.260676207609D-05 0.000000000000D+00 -.470127527487D-06 0.275801192952D-05 0.000000000000D+00  7 2 -2 23 -13 13 23 21 2 0.10441754D+00 0.11570427D+00 0.12284005D+06 0.12284005D+06 0.12284005D+06 0.11144636D+01  1  2  3  1  7  1        2 -.102950302548D-04 0.100000000000D+01
0.724078177171D-05 0.000000000000D+00 0.000000000000D+00 0.275801192952D-05 0.000000000000D+00  7 2 -2 23 -13 13 23 21 2 0.10441754D+00 0.11570427D+00 0.12284005D+06 0.12284005D+06 0.12284005D+06 0.11144636D+01  1  2 15  1  7  1        2 0.285964216267D-04 0.100000000000D+01
  </mgrwgt>
  </event>
  <event>
  8     66 0.25765000E-05 0.27552602E+03 0.75467711E-02 0.94239388E-01
        2 -1    0    0  501    0 0.00000000E+00 0.00000000E+00 0.11563216E+04 0.11563217E+04 0.32000000E+00 0.0000E+00 0.9000E+01
       -2 -1    0    0    0  501 0.00000000E+00 0.00000000E+00 -.86029120E+02 0.86029716E+02 0.32000000E+00 0.0000E+00 0.9000E+01
       25  2    1    2    0    0 -.99217656E+02 -.20027277E+03 0.77688597E+03 0.86240888E+03 0.30040629E+03 0.0000E+00 0.0000E+00
       23  2    1    2    0    0 0.99217656E+02 0.20027277E+03 0.29340655E+03 0.37994252E+03 0.91189851E+02 0.0000E+00 0.0000E+00
       23  1    3    3    0    0 -.12690210E+03 -.15633223E+03 0.69499084E+03 0.72929516E+03 0.91188000E+02 0.0000E+00 0.9000E+01
      -13  1    4    4    0    0 0.29980633E+01 0.24522852E+02 0.94259028E+02 0.97442979E+02 0.10565837E+00 0.0000E+00 0.9000E+01
       13  1    4    4    0    0 0.96219592E+02 0.17574992E+03 0.19914752E+03 0.28249954E+03 0.10565837E+00 0.0000E+00 0.9000E+01
       23  1    3    3    0    0 0.27684440E+02 -.43940539E+02 0.81895126E+02 0.13311372E+03 0.91188000E+02 0.0000E+00 0.9000E+01
#aMCatNLO 1  0  0  2  1 0.37122359D+03 0.00000000D+00  -5  7  0 0.00000000D+00 0.00000000D+00 0.00000000D+00 0.00000000D+00 0.00000000D+00
  <mgrwgt>
 0.2815720264D-03    3    2    0
 0.315400903951132D+03 0.000000000000000D+00 0.000000000000000D+00 0.315400903951132D+03
 0.315400903951132D+03 0.000000000000000D+00 0.000000000000000D+00 -.315400903951132D+03
 0.257128880625423D+03 -.126902096374289D+03 -.156332229974815D+03 0.131362482142334D+03
 0.319807749535559D+02 0.299793834702102D+01 0.245226488508408D+02 0.203081763247172D+02
 0.218480276466574D+03 0.962197176106376D+02 0.175750120111397D+03 -.871050654593021D+02
 0.123211875856711D+03 0.276844404166303D+02 -.439405389874223D+02 -.645655930077496D+02
 0.000000000000000D+00 -.000000000000000D+00 0.000000000000000D+00 0.000000000000000D+00
 0.589658440642547D+03 0.000000000000000D+00 0.000000000000000D+00 0.589658440642547D+03
 0.519976077373990D+03 0.000000000000000D+00 0.000000000000000D+00 -.519976077373990D+03
 0.285749360525810D+03 -.282294388670030D+01 -.236798173494068D+03 0.131362482142334D+03
 0.307357168389377D+02 0.173322928278807D+02 0.152267491374932D+02 0.203081763247172D+02
 0.244738791758280D+03 0.202092130694549D+03 0.107091337063140D+03 -.871050654593021D+02
 0.170703637773282D+03 0.948611755844054D+02 -.875049836942690D+02 -.645655930077496D+02
 0.377707011120227D+03 -.311462655220134D+03 0.201985070987704D+03 0.696823632685570D+02
0.276130171463D-05 0.000000000000D+00 0.000000000000D+00 0.362467166395D-06 0.000000000000D+00  7 2 -2 23 -13 13 23 21 0 0.17789569D+00 0.13235298D-01 0.75914587D+05 0.75914587D+05 0.75914587D+05 0.11316771D+01  1  2  2  2  7  2       -2 0.277797815766D-03 0.100000000000D+01
-.149998156713D-06 0.000000000000D+00 -.106041256516D-07 0.362467166395D-06 0.000000000000D+00  7 2 -2 23 -13 13 23 21 2 0.17789569D+00 0.13235298D-01 0.75914587D+05 0.75914587D+05 0.75914587D+05 0.11316771D+01  1  2  3  2  7  2       -2 -.193261755298D-04 0.100000000000D+01
0.179291310839D-06 0.000000000000D+00 0.000000000000D+00 0.362467166395D-06 0.000000000000D+00  7 2 -2 23 -13 13 23 21 2 0.17789569D+00 0.13235298D-01 0.75914587D+05 0.75914587D+05 0.75914587D+05 0.11316771D+01  1  2 15  2  7  2       -2 0.231003861659D-04 0.100000000000D+01
  </mgrwgt>
  </event>
  <event>
  8     66 0.25765000E-05 0.19772167E+03 0.75467711E-02 0.97502530E-01
        2 -1    0    0  501    0 0.00000000E+00 0.00000000E+00 0.16374777E+04 0.16374777E+04 0.32000000E+00 0.0000E+00 0.9000E+01
       -2 -1    0    0    0  501 0.00000000E+00 0.00000000E+00 -.11430903E+03 0.11430948E+03 0.32000000E+00 0.0000E+00 0.9000E+01
       25  2    1    2    0    0 0.25284508E+03 0.10119959E+03 0.13645726E+04 0.14234375E+04 0.29990649E+03 0.0000E+00 0.0000E+00
       23  2    1    2    0    0 -.25284508E+03 -.10119959E+03 0.15859605E+03 0.32834971E+03 0.92134866E+02 0.0000E+00 0.0000E+00
       23  1    3    3    0    0 0.24236566E+03 0.12613225E+03 0.11928464E+04 0.12271301E+04 0.91188000E+02 0.0000E+00 0.9000E+01
      -11  1    4    4    0    0 -.57187586E+02 -.12882388E+02 -.44419116E+01 0.58788660E+02 0.51099893E-03 0.0000E+00 0.9000E+01
       11  1    4    4    0    0 -.19565749E+03 -.88317204E+02 0.16303796E+03 0.26956105E+03 0.51099893E-03 0.0000E+00 0.9000E+01
       23  1    3    3    0    0 0.10479419E+02 -.24932660E+02 0.17172617E+03 0.19630737E+03 0.91188000E+02 0.0000E+00 0.9000E+01
#aMCatNLO 1  0  0  2  1 0.11731952D+03 0.00000000D+00  -5  7  0 0.00000000D+00 0.00000000D+00 0.00000000D+00 0.00000000D+00 0.00000000D+00
  <mgrwgt>
 0.2916613649D-03    9    2    0
 0.432641778237999D+03 0.000000000000000D+00 0.000000000000000D+00 0.432641778237999D+03
 0.432641778237999D+03 0.000000000000000D+00 0.000000000000000D+00 -.432641778237999D+03
 0.384572809804363D+03 0.242365658087482D+03 0.126132252112616D+03 0.254814712003926D+03
 0.126838190730037D+03 -.571875863643680D+02 -.128823881661559D+02 -.112479112143649D+03
 0.258735161743319D+03 -.195657490443241D+03 -.883172039747984D+02 -.144437189940363D+03
 0.951373941982802D+02 0.104794187201273D+02 -.249326599716616D+02 0.210159008008601D+01
 0.000000000000000D+00 -.000000000000000D+00 -.000000000000000D+00 -.000000000000000D+00
 0.476644204317967D+03 0.000000000000000D+00 0.000000000000000D+00 0.476644204317967D+03
 0.522530362720403D+03 0.000000000000000D+00 0.000000000000000D+00 -.522530362720403D+03
 0.418137001710616D+03 0.266710053797501D+03 0.174523667750921D+03 0.254814712003926D+03
 0.122953784260059D+03 -.496119536797879D+02 0.217633805278148D+01 -.112479112143649D+03
 0.238483399656468D+03 -.180577962026567D+03 -.583423491485367D+02 -.144437189940363D+03
 0.936265375274355D+02 0.162042071602198D+02 -.135530134959073D+02 0.210159008008601D+01
 0.125973843883793D+03 -.527243452513650D+02 -.104804643159259D+03 -.458861584024360D+02
0.667796365277D-05 0.000000000000D+00 0.000000000000D+00 0.832124188555D-06 0.000000000000D+00  7 2 -2 23 -11 11 23 21 0 0.25191968D+00 0.17586042D-01 0.10772809D+06 0.10772809D+06 0.10772809D+06 0.11190787D+01  1  2  2  2  7  2       -2 0.231041598128D-03 0.100000000000D+01
-.336579942188D-06 0.000000000000D+00 -.256451387749D-07 0.832124188555D-06 0.000000000000D+00  7 2 -2 23 -11 11 23 21 2 0.25191968D+00 0.17586042D-01 0.10772809D+06 0.10772809D+06 0.10772809D+06 0.11190787D+01  1  2  3  2  7  2       -2 -.145832934908D-04 0.100000000000D+01
0.421849186021D-06 0.000000000000D+00 0.000000000000D+00 0.832124188555D-06 0.000000000000D+00  7 2 -2 23 -11 11 23 21 2 0.25191968D+00 0.17586042D-01 0.10772809D+06 0.10772809D+06 0.10772809D+06 0.11190787D+01  1  2 15  2  7  2       -2 0.182778285854D-04 0.100000000000D+01
0.495242729659D-05 0.000000000000D+00 0.000000000000D+00 0.832124188555D-06 0.000000000000D+00  7 2 -2 23 -11 11 23 21 2 0.25191968D+00 0.21988142D-01 0.15283205D+06 0.15283205D+06 0.15283205D+06 0.11069114D+01  1  2 12  2  7  2       -2 0.143680821094D-03 0.100000000000D+01
-.544720329543D-05 0.000000000000D+00 0.000000000000D+00 0.832124188555D-06 0.000000000000D+00  7 2 -2 23 -11 11 23 21 2 0.25191968D+00 0.17586042D-01 0.10772809D+06 0.10772809D+06 0.10772809D+06 0.11190787D+01  1  2  4  2  7  2       -2 -.236015740703D-03 0.100000000000D+01
-.920454971350D-05 0.000000000000D+00 -.347059323121D-05 0.832124188555D-06 0.000000000000D+00  7 2 -2 23 -11 11 23 21 2 0.25191968D+00 0.23532161D-01 0.10772809D+06 0.10772809D+06 0.10772809D+06 0.11190787D+01  1  2  5  2  7  2       -2 -.246000022388D-03 0.100000000000D+01
0.993325985388D-05 0.000000000000D+00 0.332841136247D-05 0.832124188555D-06 0.000000000000D+00  7 2 -2 23 -11 11 23 21 2 0.25191968D+00 0.17586042D-01 0.10772809D+06 0.10772809D+06 0.10772809D+06 0.11190787D+01  1  2  6  2  7  2       -2 0.430387036220D-03 0.100000000000D+01
0.154140273726D-06 0.000000000000D+00 0.000000000000D+00 0.832124188555D-06 0.000000000000D+00  7 2 21 23 -11 11 23 2 2 0.25191968D+00 0.21988142D-01 0.15283205D+06 0.15283205D+06 0.15283205D+06 0.11069114D+01  1  2 12  4  7  2       -2 0.557733545225D-04 0.100000000000D+01
-.273966310617D-06 0.000000000000D+00 -.131318873867D-06 0.832124188555D-06 0.000000000000D+00  7 2 21 23 -11 11 23 2 2 0.25191968D+00 0.23532161D-01 0.10772809D+06 0.10772809D+06 0.10772809D+06 0.11190787D+01  1  2  5  4  7  2       -2 -.909002170759D-04 0.100000000000D+01
  </mgrwgt>
  </event>
  <event>
  8     66 0.25765000E-05 0.56821150E+03 0.75467711E-02 0.86946511E-01
        2 -1    0    0  501    0 0.00000000E+00 0.00000000E+00 0.23721363E+04 0.23721364E+04 0.32000000E+00 0.0000E+00 0.9000E+01
       -2 -1    0    0    0  501 0.00000000E+00 0.00000000E+00 -.37902410E+03 0.37902424E+03 0.32000000E+00 0.0000E+00 0.9000E+01
       25  2    1    2    0    0 -.53673734E+03 -.83361414E+02 -.61904078E+02 0.62358761E+03 0.29998882E+03 0.0000E+00 0.0000E+00
       23  2    1    2    0    0 0.53673734E+03 0.83361414E+02 0.20550163E+04 0.21275730E+04 0.91862239E+02 0.0000E+00 0.0000E+00
       23  1    3    3    0    0 -.38084870E+03 -.13308756E+02 0.57495397E+02 0.39603513E+03 0.91188000E+02 0.0000E+00 0.9000E+01
      -13  1    4    4    0    0 0.13061511E+03 0.60940454E+02 0.54404929E+03 0.56281763E+03 0.10565837E+00 0.0000E+00 0.9000E+01
       13  1    4    4    0    0 0.40612222E+03 0.22420959E+02 0.15109670E+04 0.15647554E+04 0.10565837E+00 0.0000E+00 0.9000E+01
       23  1    3    3    0    0 -.15588864E+03 -.70052658E+02 -.11939948E+03 0.22755247E+03 0.91188000E+02 0.0000E+00 0.9000E+01
#aMCatNLO 1  0  0  1  2 0.74132053D+03 0.00000000D+00  -5  7  0 0.00000000D+00 0.00000000D+00 0.00000000D+00 0.00000000D+00 0.00000000D+00
  <mgrwgt>
 0.4542467670D-03    3    2    0
 0.948207288059690D+03 0.000000000000000D+00 0.000000000000000D+00 0.948207288059690D+03
 0.948207288059690D+03 0.000000000000000D+00 0.000000000000000D+00 -.948207288059690D+03
 0.514107775643807D+03 -.380848700756308D+03 -.133087560485448D+02 -.332819317014646D+03
 0.244698235146865D+03 0.130614748465881D+03 0.609405054193094D+02 0.197745464085587D+03
 0.682006733568296D+03 0.406122589392691D+03 0.224209081687176D+02 0.547443997039297D+03
 0.455601831760413D+03 -.155888637102264D+03 -.700526575394821D+02 -.412370144110238D+03
 0.000000000000000D+00 0.000000000000000D+00 0.000000000000000D+00 -.000000000000000D+00
 0.108736437049432D+04 0.000000000000000D+00 0.000000000000000D+00 0.108736437049432D+04
 0.300104136759799D+04 0.000000000000000D+00 0.000000000000000D+00 -.300104136759799D+04
 0.590177040828632D+03 -.427149093255434D+03 -.216260589405943D+03 -.332819317014646D+03
 0.228148094607963D+03 0.110789273794088D+03 -.259619205568196D+02 0.197745464085587D+03
 0.688407568165683D+03 0.348663934605254D+03 -.229441737090293D+03 0.547443997039297D+03
 0.529426516043712D+03 -.197188851001596D+03 -.251086849184411D+03 -.412370144110238D+03
 0.205224651844632D+04 0.164884735857689D+03 0.722751096237467D+03 -.191367699710367D+04
0.296404176477D-03 0.000000000000D+00 0.000000000000D+00 0.597674508606D-05 0.000000000000D+00  7 2 -2 23 -13 13 23 21 0 0.36494406D+00 0.58311412D-01 0.32286431D+06 0.32286431D+06 0.32286431D+06 0.10821997D+01  1  2  2  1  7  1        2 0.442187654823D-03 0.100000000000D+01
-.112167937776D-04 0.000000000000D+00 -.113827008268D-05 0.597674508606D-05 0.000000000000D+00  7 2 -2 23 -13 13 23 21 2 0.36494406D+00 0.58311412D-01 0.32286431D+06 0.32286431D+06 0.32286431D+06 0.10821997D+01  1  2  3  1  7  1        2 -.195977340964D-04 0.100000000000D+01
0.181188455217D-04 0.000000000000D+00 0.000000000000D+00 0.597674508606D-05 0.000000000000D+00  7 2 -2 23 -13 13 23 21 2 0.36494406D+00 0.58311412D-01 0.32286431D+06 0.32286431D+06 0.32286431D+06 0.10821997D+01  1  2 15  1  7  1        2 0.316568463063D-04 0.100000000000D+01
  </mgrwgt>
  </event>
  <event>
  8     66 0.25765000E-05 0.27768123E+03 0.75467711E-02 0.96439095E-01
        2 -1    0    0  501    0 0.00000000E+00 0.00000000E+00 0.13960160E+04 0.13960161E+04 0.32000000E+00 0.0000E+00 0.9000E+01
       -2 -1    0    0    0  501 0.00000000E+00 0.00000000E+00 -.14369475E+03 0.14369510E+03 0.32000000E+00 0.0000E+00 0.9000E+01
       25  2    1    2    0    0 0.11258306E+03 0.35356647E+03 0.47214120E+03 0.67101758E+03 0.29943795E+03 0.0000E+00 0.0000E+00
       23  2    1    2    0    0 -.11258306E+03 -.35356647E+03 0.78018010E+03 0.86869361E+03 0.90903248E+02 0.0000E+00 0.0000E+00
       23  1    3    3    0    0 -.69585590E+02 0.14957143E+03 0.18980647E+03 0.26749863E+03 0.91188000E+02 0.0000E+00 0.9000E+01
      -13  1    4    4    0    0 -.63377724E+02 -.26828617E+03 0.64515919E+03 0.70158720E+03 0.10565837E+00 0.0000E+00 0.9000E+01
       13  1    4    4    0    0 -.49205340E+02 -.85280297E+02 0.13502091E+03 0.16710641E+03 0.10565837E+00 0.0000E+00 0.9000E+01
       23  1    3    3    0    0 0.18216865E+03 0.20399504E+03 0.28233472E+03 0.40351895E+03 0.91188000E+02 0.0000E+00 0.9000E+01
#aMCatNLO 1  0  0  1  2 0.38457778D+01 0.00000000D+00  -5  7  0 0.00000000D+00 0.00000000D+00 0.00000000D+00 0.00000000D+00 0.00000000D+00
  <mgrwgt>
 0.2633116950D-03   11    2    0
 0.447884443756042D+03 0.000000000000000D+00 0.000000000000000D+00 0.447884443756042D+03
 0.447884443756042D+03 0.000000000000000D+00 0.000000000000000D+00 -.447884443756042D+03
 0.194438481845983D+03 -.695855904132918D+02 0.149571433493459D+03 -.477211040119169D+02
 0.303979425349815D+03 -.633777434340805D+02 -.268286419695179D+03 0.128098203267453D+03
 0.984693683041210D+02 -.492053209169853D+02 -.852800495565002D+02 -.153819222140074D+01
 0.298881612012165D+03 0.182168654764358D+03 0.203995035758220D+03 -.788389070341359D+02
 0.000000000000000D+00 -.000000000000000D+00 0.000000000000000D+00 0.000000000000000D+00
 0.456261694711582D+03 0.000000000000000D+00 0.000000000000000D+00 0.456261694711582D+03
 0.448330163173246D+03 0.000000000000000D+00 0.000000000000000D+00 -.448330163173246D+03
 0.193797174012014D+03 -.695829333406488D+02 0.148738041302948D+03 -.477211040119169D+02
 0.305133179532077D+03 -.633735746865311D+02 -.269593949491556D+03 0.128098203267453D+03
 0.988357307055131D+02 -.492039705670806D+02 -.857035874932700D+02 -.153819222140074D+01
 0.298011058705819D+03 0.182172739879061D+03 0.202713737446632D+03 -.788389070341359D+02
 0.881471492940510D+01 -.122612848007476D-01 0.384575823524570D+01 0.793153153833558D+01
0.300919948100D-05 0.000000000000D+00 0.000000000000D+00 0.528290904207D-06 0.000000000000D+00  7 2 -2 23 -13 13 23 21 0 0.21477173D+00 0.22106914D-01 0.18101434D+06 0.18101434D+06 0.18101434D+06 0.11011678D+01  1  2  2  1  7  1        2 0.951376102110D-04 0.100000000000D+01
-.166641371467D-06 0.000000000000D+00 -.115561183475D-07 0.528290904207D-06 0.000000000000D+00  7 2 -2 23 -13 13 23 21 2 0.21477173D+00 0.22106914D-01 0.18101434D+06 0.18101434D+06 0.18101434D+06 0.11011678D+01  1  2  3  1  7  1        2 -.638838546565D-05 0.100000000000D+01
0.194173272600D-06 0.000000000000D+00 0.000000000000D+00 0.528290904207D-06 0.000000000000D+00  7 2 -2 23 -13 13 23 21 2 0.21477173D+00 0.22106914D-01 0.18101434D+06 0.18101434D+06 0.18101434D+06 0.11011678D+01  1  2 15  1  7  1        2 0.744385203730D-05 0.100000000000D+01
0.790504210869D-06 0.000000000000D+00 0.000000000000D+00 0.528290904207D-06 0.000000000000D+00  7 2 -2 23 -13 13 23 21 2 0.21889462D+00 0.22106914D-01 0.18268584D+06 0.18268584D+06 0.18268584D+06 0.11008585D+01  1  2 12  1  7  1        2 0.292681780835D-04 0.100000000000D+01
-.169747082285D-03 0.000000000000D+00 0.000000000000D+00 0.528290904207D-06 0.000000000000D+00  7 2 -2 23 -13 13 23 21 2 0.21477173D+00 0.22106914D-01 0.18101434D+06 0.18101434D+06 0.18101434D+06 0.11011678D+01  1  2  4  1  7  1        2 -.650744640275D-02 0.100000000000D+01
-.304908997948D-03 0.000000000000D+00 -.179858390767D-04 0.528290904207D-06 0.000000000000D+00  7 2 -2 23 -13 13 23 21 2 0.21887816D+00 0.22106914D-01 0.18101434D+06 0.18101434D+06 0.18101434D+06 0.11011678D+01  1  2  5  1  7  1        2 -.112996143271D-01 0.100000000000D+01
0.305198126226D-03 0.000000000000D+00 0.179826137623D-04 0.528290904207D-06 0.000000000000D+00  7 2 -2 23 -13 13 23 21 2 0.21477173D+00 0.22106914D-01 0.18101434D+06 0.18101434D+06 0.18101434D+06 0.11011678D+01  1  2  6  1  7  1        2 0.117001153828D-01 0.100000000000D+01
0.168968178520D-03 0.000000000000D+00 0.000000000000D+00 0.528290904207D-06 0.230901030356D-06  7 2 -2 23 -13 13 23 21 2 0.21878883D+00 0.22128914D-01 0.18268584D+06 0.18268584D+06 0.18268584D+06 0.11008585D+01  1  2 11  1  7  1        2 0.625095020528D-02 0.100000000000D+01
0.504146905278D-07 0.000000000000D+00 0.000000000000D+00 0.528290904207D-06 0.000000000000D+00  7 21 -2 23 -13 13 23 -2 2 0.21889462D+00 0.22106914D-01 0.18268584D+06 0.18268584D+06 0.18268584D+06 0.11008585D+01  1  2 12  3  7  1        2 0.735972296141D-06 0.100000000000D+01
-.105029968738D-05 0.000000000000D+00 -.620939763934D-07 0.528290904207D-06 0.000000000000D+00  7 21 -2 23 -13 13 23 -2 2 0.21887816D+00 0.22106914D-01 0.18101434D+06 0.18101434D+06 0.18101434D+06 0.11011678D+01  1  2  5  3  7  1        2 -.153558585739D-04 0.100000000000D+01
0.579859137042D-06 0.000000000000D+00 0.000000000000D+00 0.528290904207D-06 0.782666180714D-09  7 21 -2 23 -13 13 23 -2 2 0.21878883D+00 0.22128914D-01 0.18268584D+06 0.18268584D+06 0.18268584D+06 0.11008585D+01  1  2 11  3  7  1        2 0.846546820309D-05 0.100000000000D+01
  </mgrwgt>
  </event>
  <event>
  8     66 0.25765000E-05 0.28524549E+03 0.75467711E-02 0.94260416E-01
        2 -1    0    0  501    0 0.00000000E+00 0.00000000E+00 0.22379993E+04 0.22379994E+04 0.32000000E+00 0.0000E+00 0.9000E+01
       -2 -1    0    0    0  501 0.00000000E+00 0.00000000E+00 -.83185192E+02 0.83185808E+02 0.32000000E+00 0.0000E+00 0.9000E+01
       25  2    1    2    0    0 -.16639240E+03 -.13038190E+03 0.36830432E+03 0.51999424E+03 0.30010009E+03 0.0000E+00 0.0000E+00
       23  2    1    2    0    0 0.16639240E+03 0.13038190E+03 0.17865098E+04 0.18011909E+04 0.89361814E+02 0.0000E+00 0.0000E+00
       23  1    3    3    0    0 0.10623769E+02 -.11435819E+03 0.24409782E+03 0.28476245E+03 0.91188000E+02 0.0000E+00 0.9000E+01
      -13  1    4    4    0    0 0.51665185E+02 0.17235041E+01 0.60023239E+03 0.60245431E+03 0.10565837E+00 0.0000E+00 0.9000E+01
       13  1    4    4    0    0 0.11472722E+03 0.12865840E+03 0.11862774E+04 0.11987366E+04 0.10565837E+00 0.0000E+00 0.9000E+01
       23  1    3    3    0    0 -.17701617E+03 -.16023713E+02 0.12420650E+03 0.23523178E+03 0.91188000E+02 0.0000E+00 0.9000E+01
#aMCatNLO 1  0  0  1  2 0.35232125D+03 0.00000000D+00  -5  7  0 0.00000000D+00 0.00000000D+00 0.00000000D+00 0.00000000D+00 0.00000000D+00
  <mgrwgt>
 0.3044955358D-03    5    2    0
 0.431473227628096D+03 0.000000000000000D+00 0.000000000000000D+00 0.431473227628096D+03
 0.431473227628096D+03 0.000000000000000D+00 0.000000000000000D+00 -.431473227628096D+03
 0.156441868965665D+03 0.106237694714874D+02 -.114358188185679D+03 -.544807061130454D+02
 0.121697694289247D+03 0.516650963586039D+02 0.172332683234550D+01 0.110172940226737D+03
 0.262220711775055D+03 0.114727307658729D+03 0.128658574079845D+03 0.197596350869486D+03
 0.322586180226224D+03 -.177016173488820D+03 -.160237127265122D+02 -.253288584983177D+03
 0.000000000000000D+00 -.000000000000000D+00 -.000000000000000D+00 0.000000000000000D+00
 0.116809415663630D+04 0.000000000000000D+00 0.000000000000000D+00 0.116809415663630D+04
 0.510252140109324D+03 0.000000000000000D+00 0.000000000000000D+00 -.510252140109324D+03
 0.124683109189075D+03 0.238285129327657D+02 -.607838877161687D+02 -.544807061130454D+02
 0.137181005286437D+03 0.638249081189259D+02 0.510581291941250D+02 0.110172940226737D+03
 0.345445154543141D+03 0.143270028862572D+03 0.244462135616368D+03 0.197596350869486D+03
 0.324788821761984D+03 -.146608271350030D+03 0.107347263060191D+03 -.253288584983177D+03
 0.746248205964987D+03 -.843151785642336D+02 -.342083640154516D+03 0.657842016526977D+03
0.107972859281D-04 0.000000000000D+00 0.000000000000D+00 0.384069068364D-06 0.000000000000D+00  7 2 -2 23 -13 13 23 21 0 0.34430764D+00 0.12797771D-01 0.81364989D+05 0.81364989D+05 0.81364989D+05 0.11291466D+01  1  2  2  1  7  1        2 0.297654075276D-03 0.100000000000D+01
-.474932486428D-06 0.000000000000D+00 -.414644209547D-07 0.384069068364D-06 0.000000000000D+00  7 2 -2 23 -13 13 23 21 2 0.34430764D+00 0.12797771D-01 0.81364989D+05 0.81364989D+05 0.81364989D+05 0.11291466D+01  1  2  3  1  7  1        2 -.166928228647D-04 0.100000000000D+01
0.669745210306D-06 0.000000000000D+00 0.000000000000D+00 0.384069068364D-06 0.000000000000D+00  7 2 -2 23 -13 13 23 21 2 0.34430764D+00 0.12797771D-01 0.81364989D+05 0.81364989D+05 0.81364989D+05 0.11291466D+01  1  2 15  1  7  1        2 0.235400577547D-04 0.100000000000D+01
-.496988864732D-05 0.000000000000D+00 -.246745570721D-05 0.384069068364D-06 0.000000000000D+00  7 2 -2 23 -13 13 23 21 2 0.93566177D+00 0.12797771D-01 0.81364989D+05 0.81364989D+05 0.81364989D+05 0.11291466D+01  1  2  5  1  7  1        2 -.577329988778D-08 0.100000000000D+01
-.412210683768D-06 0.000000000000D+00 -.275482333320D-06 0.384069068364D-06 0.000000000000D+00  7 21 -2 23 -13 13 23 -2 2 0.93566177D+00 0.12797771D-01 0.81364989D+05 0.81364989D+05 0.81364989D+05 0.11291466D+01  1  2  5  3  7  1        2 -.103382708634D-11 0.100000000000D+01
  </mgrwgt>
  </event>
  <event>
  9     66 0.25765000E-05 0.28741920E+03 0.75467711E-02 0.94601389E-01
        2 -1    0    0  501    0 0.00000000E+00 0.00000000E+00 0.17701337E+04 0.17701338E+04 0.32000000E+00 0.0000E+00 0.9000E+01
       21 -1    0    0  502  501 0.00000000E+00 0.00000000E+00 -.34331328E+03 0.34331410E+03 0.75000000E+00 0.0000E+00 0.9000E+01
       25  2    1    2    0    0 0.26215229E+03 0.18244486E+03 0.14456623E+04 0.15107073E+04 0.30047810E+03 0.0000E+00 0.0000E+00
       23  2    1    2    0    0 0.81191626E+02 -.22517400E+03 0.87575542E+01 0.25564885E+03 0.89354509E+02 0.0000E+00 0.0000E+00
       23  1    3    3    0    0 0.12424738E+03 -.22206120E+01 0.28638347E+03 0.32522775E+03 0.91188000E+02 0.0000E+00 0.9000E+01
      -13  1    4    4    0    0 0.56692978E+01 -.14081823E+03 -.81609442E+01 0.14116844E+03 0.10565837E+00 0.0000E+00 0.9000E+01
       13  1    4    4    0    0 0.75522329E+02 -.84355767E+02 0.16918498E+02 0.11448041E+03 0.10565837E+00 0.0000E+00 0.9000E+01
       23  1    3    3    0    0 0.13790491E+03 0.18466547E+03 0.11592789E+04 0.11854796E+04 0.91188000E+02 0.0000E+00 0.9000E+01
        2  1    1    2  502    0 -.34334391E+03 0.42729141E+02 -.27599415E+02 0.34709171E+03 0.32000000E+00 0.0000E+00 0.9000E+01
#aMCatNLO 2  0  0  2  2 0.34599252D+03 0.00000000D+00  -5  7  0 0.00000000D+00 0.00000000D+00 0.00000000D+00 0.00000000D+00 0.00000000D+00
  <mgrwgt>
 0.5740464379D-04    1    2    0
 0.470363181922398D+03 0.000000000000000D+00 0.000000000000000D+00 0.470363181922398D+03
 0.470363181922398D+03 0.000000000000000D+00 0.000000000000000D+00 -.470363181922398D+03
 0.122449797790497D+03 0.747657413418959D+02 0.393737664738325D+01 0.327609923791538D+02
 0.269217252449072D+03 -.879534035726138D+02 -.129166981790268D+03 -.219221391819806D+03
 0.157401615681344D+03 0.163987967912278D+02 -.769977539786204D+02 -.136300014545654D+03
 0.391657697923883D+03 -.321113456050988D+01 0.202227359121505D+03 0.322760413986306D+03
 0.000000000000000D+00 -.000000000000000D+00 0.000000000000000D+00 -.000000000000000D+00
 0.550882327665980D+03 0.000000000000000D+00 0.000000000000000D+00 0.550882327665980D+03
 0.110315979679836D+04 0.000000000000000D+00 0.000000000000000D+00 -.110315979679836D+04
 0.157578159377863D+03 0.124247379167845D+03 -.222061189087053D+01 0.327609923791538D+02
 0.260614572823734D+03 0.566920022707824D+01 -.140818312393913D+03 -.219221391819806D+03
 0.177192587152823D+03 0.755224261985171D+02 -.843556881179613D+02 -.136300014545654D+03
 0.406950409941990D+03 0.137904908129925D+03 0.184665471285292D+03 0.322760413986306D+03
 0.651706395167930D+03 -.343343913723365D+03 0.427291411174531D+02 -.552277469132379D+03
0.116809843692D-05 0.000000000000D+00 0.000000000000D+00 0.242171386416D-06 0.240357979079D-11  7 2 21 23 -13 13 23 2 2 0.27232832D+00 0.52817489D-01 0.25107252D+06 0.25107252D+06 0.25107252D+06 0.10903193D+01  1  2  1  4  7  2       -2 0.574046437919D-04 0.100000000000D+01
  </mgrwgt>
  </event>
  <event>
  8     66 0.25765000E-05 0.22441177E+03 0.75467711E-02 0.96849141E-01
        2 -1    0    0  501    0 0.00000000E+00 0.00000000E+00 0.14686547E+04 0.14686547E+04 0.32000000E+00 0.0000E+00 0.9000E+01
       -2 -1    0    0    0  501 0.00000000E+00 0.00000000E+00 -.65011685E+03 0.65011692E+03 0.32000000E+00 0.0000E+00 0.9000E+01
       25  2    1    2    0    0 0.14055328E+03 0.31548186E+03 0.13796484E+04 0.14534324E+04 0.29958601E+03 0.0000E+00 0.0000E+00
       23  2    1    2    0    0 -.14055328E+03 -.31548186E+03 -.56111058E+03 0.66533931E+03 0.92451523E+02 0.0000E+00 0.0000E+00
       23  1    3    3    0    0 0.16015233E+03 0.30304171E+03 0.96162318E+03 0.10249475E+04 0.91188000E+02 0.0000E+00 0.9000E+01
      -13  1    4    4    0    0 0.10226262E+02 -.49193896E+02 -.60946511E+02 0.78988000E+02 0.10565837E+00 0.0000E+00 0.9000E+01
       13  1    4    4    0    0 -.15077954E+03 -.26628797E+03 -.50016407E+03 0.58635131E+03 0.10565837E+00 0.0000E+00 0.9000E+01
       23  1    3    3    0    0 -.19599055E+02 0.12440156E+02 0.41802525E+03 0.42848482E+03 0.91188000E+02 0.0000E+00 0.9000E+01
#aMCatNLO 1  0  0  2  1 0.20947155D+02 0.00000000D+00  -5  7  0 0.00000000D+00 0.00000000D+00 0.00000000D+00 0.00000000D+00 0.00000000D+00
  <mgrwgt>
 0.4297657791D-03    9    2    0
 0.977137288308961D+03 0.000000000000000D+00 0.000000000000000D+00 0.977137288308961D+03
 0.977137288308961D+03 0.000000000000000D+00 0.000000000000000D+00 -.977137288308961D+03
 0.708449475313055D+03 0.160152333035275D+03 0.303041706666364D+03 0.613271849974738D+03
 0.111162828139528D+03 0.102264720586558D+02 -.491936119626581D+02 -.991593776265221D+02
 0.845198338860067D+03 -.150779749662612D+03 -.266288250680996D+03 -.787855485893671D+03
 0.289463934305271D+03 -.195990554313193D+02 0.124401559772901D+02 0.273743013545455D+03
 0.000000000000000D+00 -.000000000000000D+00 0.000000000000000D+00 -.000000000000000D+00
 0.980142971320182D+03 0.000000000000000D+00 0.000000000000000D+00 0.980142971320182D+03
 0.101438407540179D+04 0.000000000000000D+00 0.000000000000000D+00 -.101438407540179D+04
 0.708855078979917D+03 0.167187076488466D+03 0.300177266186876D+03 0.613271849974738D+03
 0.111469585081403D+03 0.113315005485666D+02 -.496435627474380D+02 -.991593776265221D+02
 0.844826459668840D+03 -.142391368456067D+03 -.269703871854006D+03 -.787855485893671D+03
 0.289235712117709D+03 -.167266992135206D+02 0.112705762368887D+02 0.273743013545455D+03
 0.401402108741059D+02 -.194005093674450D+02 0.789959217767915D+01 -.342411040816109D+02
0.963559972522D-04 0.000000000000D+00 0.000000000000D+00 0.311774253429D-05 0.000000000000D+00  7 2 -2 23 -13 13 23 21 0 0.22594689D+00 0.10001798D+00 0.16202045D+06 0.16202045D+06 0.16202045D+06 0.11049196D+01  1  2  2  2  7  2       -2 0.141618023589D-03 0.100000000000D+01
-.233634743714D-06 0.000000000000D+00 -.370032400565D-06 0.311774253429D-05 0.000000000000D+00  7 2 -2 23 -13 13 23 21 2 0.22594689D+00 0.10001798D+00 0.16202045D+06 0.16202045D+06 0.16202045D+06 0.11049196D+01  1  2  3  2  7  2       -2 -.419216698152D-06 0.100000000000D+01
0.565185706321D-05 0.000000000000D+00 0.000000000000D+00 0.311774253429D-05 0.000000000000D+00  7 2 -2 23 -13 13 23 21 2 0.22594689D+00 0.10001798D+00 0.16202045D+06 0.16202045D+06 0.16202045D+06 0.11049196D+01  1  2 15  2  7  2       -2 0.101412693112D-04 0.100000000000D+01
0.600189707641D-03 0.000000000000D+00 0.000000000000D+00 0.311774253429D-05 0.000000000000D+00  7 2 -2 23 -13 13 23 21 2 0.22594689D+00 0.10398101D+00 0.17045913D+06 0.17045913D+06 0.17045913D+06 0.11031964D+01  1  2 12  2  7  2       -2 0.974264872193D-03 0.100000000000D+01
-.610962474247D-03 0.000000000000D+00 0.000000000000D+00 0.311774253429D-05 0.000000000000D+00  7 2 -2 23 -13 13 23 21 2 0.22594689D+00 0.10001798D+00 0.16202045D+06 0.16202045D+06 0.16202045D+06 0.11049196D+01  1  2  4  2  7  2       -2 -.109626533741D-02 0.100000000000D+01
-.308357027590D-02 0.000000000000D+00 -.290615605474D-03 0.311774253429D-05 0.000000000000D+00  7 2 -2 23 -13 13 23 21 2 0.22594689D+00 0.10399929D+00 0.16202045D+06 0.16202045D+06 0.16202045D+06 0.11049196D+01  1  2  5  2  7  2       -2 -.503374812361D-02 0.100000000000D+01
0.309277896495D-02 0.000000000000D+00 0.290394347146D-03 0.311774253429D-05 0.000000000000D+00  7 2 -2 23 -13 13 23 21 2 0.22594689D+00 0.10001798D+00 0.16202045D+06 0.16202045D+06 0.16202045D+06 0.11049196D+01  1  2  6  2  7  2       -2 0.554945110128D-02 0.100000000000D+01
0.136764132487D-04 0.000000000000D+00 0.000000000000D+00 0.311774253429D-05 0.000000000000D+00  7 2 21 23 -13 13 23 2 2 0.22594689D+00 0.10398101D+00 0.17045913D+06 0.17045913D+06 0.17045913D+06 0.11031964D+01  1  2 12  4  7  2       -2 0.206797071380D-03 0.100000000000D+01
-.211456011749D-04 0.000000000000D+00 -.200779504077D-05 0.311774253429D-05 0.000000000000D+00  7 2 21 23 -13 13 23 2 2 0.22594689D+00 0.10399929D+00 0.16202045D+06 0.16202045D+06 0.16202045D+06 0.11049196D+01  1  2  5  4  7  2       -2 -.322073880934D-03 0.100000000000D+01
  </mgrwgt>
  </event>
  <event>
  8     66 0.25765000E-05 0.10788249E+04 0.75467711E-02 0.81025723E-01
        2 -1    0    0  501    0 0.00000000E+00 0.00000000E+00 0.11029668E+04 0.11029669E+04 0.32000000E+00 0.0000E+00 0.9000E+01
       -2 -1    0    0    0  501 0.00000000E+00 0.00000000E+00 -.10926305E+04 0.10926306E+04 0.32000000E+00 0.0000E+00 0.9000E+01
       25  2    1    2    0    0 -.32373477E+03 0.10170178E+04 0.13590644E+03 0.11170761E+04 0.30043162E+03 0.0000E+00 0.0000E+00
       23  2    1    2    0    0 0.32373477E+03 -.10170178E+04 -.12557010E+03 0.10785213E+04 0.91164662E+02 0.0000E+00 0.0000E+00
       23  1    3    3    0    0 -.71071073E+02 0.25117918E+03 0.12983199E+03 0.30547287E+03 0.91188000E+02 0.0000E+00 0.9000E+01
      -11  1    4    4    0    0 0.31804707E+03 -.94030332E+03 -.13178862E+03 0.10013454E+04 0.51099893E-03 0.0000E+00 0.9000E+01
       11  1    4    4    0    0 0.56876983E+01 -.76714463E+02 0.62185165E+01 0.77175960E+02 0.51099893E-03 0.0000E+00 0.9000E+01
       23  1    3    3    0    0 -.25266370E+03 0.76583860E+03 0.60744501E+01 0.81160326E+03 0.91188000E+02 0.0000E+00 0.9000E+01
#aMCatNLO 1  0  0  2  1 0.14638313D+04 0.00000000D+00  -5  7  0 0.00000000D+00 0.00000000D+00 0.00000000D+00 0.00000000D+00 0.00000000D+00
  <mgrwgt>
 0.4108430940D-03    3    2    0
 0.109778655777216D+04 0.000000000000000D+00 0.000000000000000D+00 0.109778655777216D+04
 0.109778655777216D+04 0.000000000000000D+00 0.000000000000000D+00 -.109778655777216D+04
 0.304865032575753D+03 -.710710731211950D+02 0.251179180732537D+03 0.128395321080436D+03
 0.100197688305306D+04 0.318047070717672D+03 -.940303319400795D+03 -.136504221562816D+03
 0.771475394153367D+02 0.568769826023368D+01 -.767144634722579D+02 0.585525580185173D+01
 0.811583660500172D+03 -.252663695856711D+03 0.765838602140516D+03 0.225364468052780D+01
 0.000000000000000D+00 -.000000000000000D+00 -.000000000000000D+00 0.000000000000000D+00
 0.264102612758832D+04 0.000000000000000D+00 0.000000000000000D+00 0.264102612758832D+04
 0.172474405603749D+04 0.000000000000000D+00 0.000000000000000D+00 -.172474405603749D+04
 0.477390084087009D+03 0.633742400147382D+02 0.446188736150755D+03 0.128395321080436D+03
 0.808473895995424D+03 0.629207223871777D+03 -.488973319751825D+03 -.136504221562816D+03
 0.527651551399394D+02 0.280156479633058D+02 -.443283323127875D+02 0.585525580185173D+01
 0.130018564409292D+04 0.110283735715373D+03 0.129228475054209D+04 0.225364468052780D+01
 0.172695540431052D+04 -.830880847565193D+03 -.120517183462823D+04 0.916282071550827D+03
0.754897237869D-03 0.000000000000D+00 0.000000000000D+00 0.575256030387D-05 0.000000000000D+00  7 2 -2 23 -11 11 23 21 0 0.16968721D+00 0.16809701D+00 0.11638631D+07 0.11638631D+07 0.11638631D+07 0.10435051D+01  1  2  2  2  7  2       -2 0.407224231644D-03 0.100000000000D+01
-.419232554466D-04 0.000000000000D+00 -.289900416243D-05 0.575256030387D-05 0.000000000000D+00  7 2 -2 23 -11 11 23 21 2 0.16968721D+00 0.16809701D+00 0.11638631D+07 0.11638631D+07 0.11638631D+07 0.10435051D+01  1  2  3  2  7  2       -2 -.246257742385D-04 0.100000000000D+01
0.480840563770D-04 0.000000000000D+00 0.000000000000D+00 0.575256030387D-05 0.000000000000D+00  7 2 -2 23 -11 11 23 21 2 0.16968721D+00 0.16809701D+00 0.11638631D+07 0.11638631D+07 0.11638631D+07 0.10435051D+01  1  2 15  2  7  2       -2 0.282446366389D-04 0.100000000000D+01
  </mgrwgt>
  </event>
  <event>
  8     66 0.25765000E-05 0.16231459E+03 0.75467711E-02 0.94726782E-01
        2 -1    0    0  501    0 0.00000000E+00 0.00000000E+00 0.40113158E+04 0.40113158E+04 0.32000000E+00 0.0000E+00 0.9000E+01
       -2 -1    0    0    0  501 0.00000000E+00 0.00000000E+00 -.81005751E+02 0.81006383E+02 0.32000000E+00 0.0000E+00 0.9000E+01
       25  2    1    2    0    0 -.91224021E+02 0.24476443E+03 0.37386220E+04 0.37598253E+04 0.30126531E+03 0.0000E+00 0.0000E+00
       23  2    1    2    0    0 0.91224021E+02 -.24476443E+03 0.19168809E+03 0.33249688E+03 0.74688713E+02 0.0000E+00 0.0000E+00
       23  1    3    3    0    0 0.46589727E+02 0.14823540E+03 0.25024194E+04 0.25088966E+04 0.91188000E+02 0.0000E+00 0.9000E+01
      -13  1    4    4    0    0 0.27049339E+01 -.34846720E+02 0.29502389E+00 0.34952950E+02 0.10565837E+00 0.0000E+00 0.9000E+01
       13  1    4    4    0    0 0.88519087E+02 -.20991771E+03 0.19139306E+03 0.29754393E+03 0.10565837E+00 0.0000E+00 0.9000E+01
       23  1    3    3    0    0 -.13781375E+03 0.96529032E+02 0.12362026E+04 0.12509287E+04 0.91188000E+02 0.0000E+00 0.9000E+01
#aMCatNLO 1  0  0  1  2 0.30980530D+03 0.00000000D+00  -5  7  0 0.00000000D+00 0.00000000D+00 0.00000000D+00 0.00000000D+00 0.00000000D+00
  <mgrwgt>
 0.1112655983D-02    9    2    0
 0.570035936320290D+03 0.000000000000000D+00 0.000000000000000D+00 0.570035936320290D+03
 0.570035936320290D+03 0.000000000000000D+00 0.000000000000000D+00 -.570035936320290D+03
 0.378861519115051D+03 0.465897265770367D+02 0.148235398961018D+03 0.333281357406185D+03
 0.124447024095733D+03 0.270476224516551D+01 -.348463693948538D+02 -.119438170646902D+03
 0.408230573866640D+03 0.885192584426764D+02 -.209918061835062D+03 -.338749095407878D+03
 0.228532755563156D+03 -.137813747264879D+03 0.965290322688982D+02 0.124905908648595D+03
 0.000000000000000D+00 -.000000000000000D+00 -.000000000000000D+00 0.000000000000000D+00
 0.838125855447600D+03 0.000000000000000D+00 0.000000000000000D+00 0.838125855447600D+03
 0.687688836200825D+03 0.000000000000000D+00 0.000000000000000D+00 -.687688836200825D+03
 0.434510094149890D+03 0.915184705854181D+02 0.247045900434196D+03 0.333281357406185D+03
 0.120644263345849D+03 0.162430312633647D+02 -.507204161668343D+01 -.119438170646902D+03
 0.381063698592213D+03 0.132118026504225D+03 -.114032538416675D+03 -.338749095407878D+03
 0.245197705278709D+03 -.111645985497658D+03 0.154079042172744D+03 0.124905908648595D+03
 0.344398930281765D+03 -.128233542855349D+03 -.282020362573582D+03 0.150437019246775D+03
0.491865907243D-03 0.000000000000D+00 0.000000000000D+00 0.177960783421D-08 0.000000000000D+00  7 2 -2 23 -13 13 23 21 0 0.61712556D+00 0.12462473D-01 0.10058844D+06 0.10058844D+06 0.10058844D+06 0.11215130D+01  1  2  2  1  7  1        2 0.975561758626D-03 0.100000000000D+01
-.159049892353D-04 0.000000000000D+00 -.188889459508D-05 0.177960783421D-08 0.000000000000D+00  7 2 -2 23 -13 13 23 21 2 0.61712556D+00 0.12462473D-01 0.10058844D+06 0.10058844D+06 0.10058844D+06 0.11215130D+01  1  2  3  1  7  1        2 -.396780258023D-04 0.100000000000D+01
0.288386677704D-04 0.000000000000D+00 0.000000000000D+00 0.177960783421D-08 0.000000000000D+00  7 2 -2 23 -13 13 23 21 2 0.61712556D+00 0.12462473D-01 0.10058844D+06 0.10058844D+06 0.10058844D+06 0.11215130D+01  1  2 15  1  7  1        2 0.719435509806D-04 0.100000000000D+01
0.105060279219D-06 0.000000000000D+00 0.000000000000D+00 0.177960783421D-08 0.000000000000D+00  7 2 -2 23 -13 13 23 21 2 0.94697688D+00 0.12462473D-01 0.24558567D+06 0.24558567D+06 0.24558567D+06 0.10910416D+01  1  2 12  1  7  1        2 0.472005659327D-10 0.100000000000D+01
-.141982356112D-03 0.000000000000D+00 0.000000000000D+00 0.177960783421D-08 0.000000000000D+00  7 2 -2 23 -13 13 23 21 2 0.61712556D+00 0.12462473D-01 0.10058844D+06 0.10058844D+06 0.10058844D+06 0.11215130D+01  1  2  4  1  7  1        2 -.354202037231D-03 0.100000000000D+01
-.130111430273D-03 0.000000000000D+00 -.891200529368D-04 0.177960783421D-08 0.000000000000D+00  7 2 -2 23 -13 13 23 21 2 0.91478987D+00 0.12462473D-01 0.10058844D+06 0.10058844D+06 0.10058844D+06 0.11215130D+01  1  2  5  1  7  1        2 -.466585512112D-06 0.100000000000D+01
0.184190102003D-03 0.000000000000D+00 0.101379396475D-03 0.177960783421D-08 0.000000000000D+00  7 2 -2 23 -13 13 23 21 2 0.61712556D+00 0.12462473D-01 0.10058844D+06 0.10058844D+06 0.10058844D+06 0.11215130D+01  1  2  6  1  7  1        2 0.459497300607D-03 0.100000000000D+01
0.525935797543D-08 0.000000000000D+00 0.000000000000D+00 0.177960783421D-08 0.000000000000D+00  7 21 -2 23 -13 13 23 -2 2 0.94697688D+00 0.12462473D-01 0.24558567D+06 0.24558567D+06 0.24558567D+06 0.10910416D+01  1  2 12  3  7  1        2 0.552499988923D-14 0.100000000000D+01
-.314480123840D-05 0.000000000000D+00 -.419242064885D-05 0.177960783421D-08 0.000000000000D+00  7 21 -2 23 -13 13 23 -2 2 0.91478987D+00 0.12462473D-01 0.10058844D+06 0.10058844D+06 0.10058844D+06 0.11215130D+01  1  2  5  3  7  1        2 -.260027803652D-10 0.100000000000D+01
  </mgrwgt>
  </event>
  <event>
  9     66 -.25765000E-05 0.43155381E+03 0.75467711E-02 0.96110884E-01
        2 -1    0    0  501    0 0.00000000E+00 0.00000000E+00 0.49511590E+03 0.49511601E+03 0.32000000E+00 0.0000E+00 0.9000E+01
       -2 -1    0    0    0  502 0.00000000E+00 0.00000000E+00 -.94248712E+03 0.94248718E+03 0.32000000E+00 0.0000E+00 0.9000E+01
       25  2    1    2    0    0 -.21365988E+03 -.31538630E+03 0.30862143E+03 0.57499086E+03 0.30041343E+03 0.0000E+00 0.0000E+00
       23  2    1    2    0    0 0.22813941E+03 0.30956260E+03 -.72491596E+03 0.82782878E+03 0.10918214E+03 0.0000E+00 0.0000E+00
       23  1    3    3    0    0 -.20256178E+03 -.30639489E+03 0.18648749E+03 0.42190276E+03 0.91188000E+02 0.0000E+00 0.9000E+01
      -13  1    4    4    0    0 0.22214327E+03 0.31442384E+03 -.72408217E+03 0.82006401E+03 0.10565837E+00 0.0000E+00 0.9000E+01
       13  1    4    4    0    0 0.59961385E+01 -.48612366E+01 -.83379724E+00 0.77647717E+01 0.10565837E+00 0.0000E+00 0.9000E+01
       23  1    3    3    0    0 -.11098100E+02 -.89914127E+01 0.12213394E+03 0.15308809E+03 0.91188000E+02 0.0000E+00 0.9000E+01
       21  1    1    2  501  502 -.14479525E+02 0.58237017E+01 -.31076688E+02 0.34783548E+02 0.75000000E+00 0.0000E+00 0.9000E+01
#aMCatNLO 2  0  0  2  1 0.15606798D+02 0.00000000D+00  -5  7  0 0.00000000D+00 0.00000000D+00 0.00000000D+00 0.00000000D+00 0.00000000D+00
  <mgrwgt>
 -.1914503612D-03    3    2    0
 0.669768284621310D+03 0.000000000000000D+00 0.000000000000000D+00 0.669768284621310D+03
 0.669768284621310D+03 0.000000000000000D+00 0.000000000000000D+00 -.669768284621310D+03
 0.500647658713748D+03 -.207968461447233D+03 -.304220311909382D+03 0.326392321748822D+03
 0.632745556530530D+03 0.215298778772316D+03 0.317177090517143D+03 -.503400504985205D+03
 0.778594014481604D+01 0.591131587064008D+01 -.482750004441810D+01 0.154027657818978D+01
 0.198357413853526D+03 -.132416331957235D+02 -.812927856334281D+01 0.175467906658193D+03
 0.000000000000000D+00 -.000000000000000D+00 0.000000000000000D+00 -.000000000000000D+00
 0.672325321827381D+03 0.000000000000000D+00 0.000000000000000D+00 0.672325321827381D+03
 0.694058648020521D+03 0.000000000000000D+00 0.000000000000000D+00 -.694058648020521D+03
 0.499756245586817D+03 -.202561785072758D+03 -.306394890934203D+03 0.326392321748822D+03
 0.633736798078919D+03 0.222143474395675D+03 0.314424136483477D+03 -.503400504985205D+03
 0.787135387203306D+01 0.599593561401093D+01 -.486153432098193D+01 0.154027657818978D+01
 0.198263085187929D+03 -.110981002960800D+02 -.899141296158137D+01 0.175467906658193D+03
 0.267564871222036D+02 -.144795246408479D+02 0.582370173329010D+01 -.217333261931394D+02
-.244449625311D-03 0.000000000000D+00 0.000000000000D+00 0.234364092575D-07 0.000000000000D+00  7 2 -2 23 -13 13 23 21 2 0.75881396D-01 0.14525842D+00 0.19318514D+06 0.19318514D+06 0.19318514D+06 0.10989836D+01  1  2 13  2  7  2       -2 -.736088483326D-03 0.100000000000D+01
-.626779258064D-03 0.000000000000D+00 0.000000000000D+00 0.234364092575D-07 0.000000000000D+00  7 2 -2 23 -13 13 23 21 2 0.75881396D-01 0.13992236D+00 0.18623869D+06 0.18623869D+06 0.18623869D+06 0.11002111D+01  1  2  8  2  7  2       -2 -.209596083322D-02 0.100000000000D+01
0.876390460621D-03 0.000000000000D+00 0.000000000000D+00 0.234364092575D-07 0.620127336948D-09  7 2 -2 23 -13 13 23 21 2 0.76171096D-01 0.14499690D+00 0.19318514D+06 0.19318514D+06 0.19318514D+06 0.10989836D+01  1  2  1  2  7  2       -2 0.264059895538D-02 0.100000000000D+01
  </mgrwgt>
  </event>
  <event>
  8     66 0.25765000E-05 0.14098761E+03 0.75467711E-02 0.10189248E+00
        2 -1    0    0  501    0 0.00000000E+00 0.00000000E+00 0.15600132E+03 0.15600164E+03 0.32000000E+00 0.0000E+00 0.9000E+01
       -2 -1    0    0    0  501 0.00000000E+00 0.00000000E+00 -.35416176E+03 0.35416190E+03 0.32000000E+00 0.0000E+00 0.9000E+01
       25  2    1    2    0    0 0.11638727E+02 -.79308045E+02 -.22710981E+03 0.38534005E+03 0.30080370E+03 0.0000E+00 0.0000E+00
       23  2    1    2    0    0 -.11638727E+02 0.79308045E+02 0.28949366E+02 0.12482349E+03 0.91200944E+02 0.0000E+00 0.0000E+00
       23  1    3    3    0    0 0.85714605E+02 -.12692930E+03 -.93976257E+02 0.20150640E+03 0.91188000E+02 0.0000E+00 0.9000E+01
      -11  1    4    4    0    0 -.51182022E+02 0.44767321E+02 0.87118706E+01 0.68553695E+02 0.51099893E-03 0.0000E+00 0.9000E+01
       11  1    4    4    0    0 0.39543294E+02 0.34540724E+02 0.20237496E+02 0.56269796E+02 0.51099893E-03 0.0000E+00 0.9000E+01
       23  1    3    3    0    0 -.74075877E+02 0.47621253E+02 -.13313355E+03 0.18383366E+03 0.91188000E+02 0.0000E+00 0.9000E+01
#aMCatNLO 1  0  0  2  1 0.11668547D+03 0.00000000D+00  -5  7  0 0.00000000D+00 0.00000000D+00 0.00000000D+00 0.00000000D+00 0.00000000D+00
  <mgrwgt>
 0.1354960527D-03    9    2    0
 0.235052803270030D+03 0.000000000000000D+00 0.000000000000000D+00 0.235052803270030D+03
 0.235052803270030D+03 0.000000000000000D+00 0.000000000000000D+00 -.235052803270030D+03
 0.179063683352242D+03 0.857146047472288D+02 -.126929297708930D+03 -.170443910954900D+02
 0.780674458972658D+02 -.511820217343985D+02 0.447673209744042D+02 0.383511894584348D+02
 0.695951490624309D+02 0.395432942492009D+02 0.345407241127764D+02 0.456809701156637D+02
 0.143379328228122D+03 -.740758772620313D+02 0.476212526217494D+02 -.669877684786085D+02
 0.000000000000000D+00 0.000000000000000D+00 0.000000000000000D+00 -.000000000000000D+00
 0.278381764532537D+03 0.000000000000000D+00 0.000000000000000D+00 0.278381764532537D+03
 0.336223996738676D+03 0.000000000000000D+00 0.000000000000000D+00 -.336223996738676D+03
 0.208701241251691D+03 0.723109418455481D+02 -.172399458170814D+03 -.170443910954900D+02
 0.733700544927373D+02 -.564166808722099D+02 0.270094295155172D+02 0.383511894584348D+02
 0.607081810721899D+02 0.350391686791153D+02 0.192610715346303D+02 0.456809701156637D+02
 0.141591022761925D+03 -.839262950777882D+02 0.142050079739591D+02 -.669877684786085D+02
 0.130235261692669D+03 0.329928654253347D+02 0.111923949146708D+03 -.578422322061392D+02
0.131112879441D-05 0.000000000000D+00 0.000000000000D+00 0.461158237752D-07 0.000000000000D+00  7 2 -2 23 -11 11 23 21 0 0.24000239D-01 0.54486460D-01 0.45267180D+05 0.45267180D+05 0.45267180D+05 0.11511135D+01  1  2  2  2  7  2       -2 0.116798278530D-03 0.100000000000D+01
-.719611947045D-07 0.000000000000D+00 -.503507979868D-08 0.461158237752D-07 0.000000000000D+00  7 2 -2 23 -11 11 23 21 2 0.24000239D-01 0.54486460D-01 0.45267180D+05 0.45267180D+05 0.45267180D+05 0.11511135D+01  1  2  3  2  7  2       -2 -.849426442933D-05 0.100000000000D+01
0.844214700421D-07 0.000000000000D+00 0.000000000000D+00 0.461158237752D-07 0.000000000000D+00  7 2 -2 23 -11 11 23 21 2 0.24000239D-01 0.54486460D-01 0.45267180D+05 0.45267180D+05 0.45267180D+05 0.11511135D+01  1  2 15  2  7  2       -2 0.996506927095D-05 0.100000000000D+01
0.378924332924D-06 0.000000000000D+00 0.000000000000D+00 0.461158237752D-07 0.000000000000D+00  7 2 -2 23 -11 11 23 21 2 0.24000239D-01 0.81231317D-01 0.76166300D+05 0.76166300D+05 0.76166300D+05 0.11315559D+01  1  2 12  2  7  2       -2 0.186556668632D-04 0.100000000000D+01
-.714387954415D-06 0.000000000000D+00 0.000000000000D+00 0.461158237752D-07 0.000000000000D+00  7 2 -2 23 -11 11 23 21 2 0.24000239D-01 0.54486460D-01 0.45267180D+05 0.45267180D+05 0.45267180D+05 0.11511135D+01  1  2  4  2  7  2       -2 -.843260067436D-04 0.100000000000D+01
-.899523138348D-06 0.000000000000D+00 -.458415073278D-06 0.461158237752D-07 0.000000000000D+00  7 2 -2 23 -11 11 23 21 2 0.24000239D-01 0.89300839D-01 0.45267180D+05 0.45267180D+05 0.45267180D+05 0.11511135D+01  1  2  5  2  7  2       -2 -.371466659832D-04 0.100000000000D+01
0.104644447119D-05 0.000000000000D+00 0.407643182092D-06 0.461158237752D-07 0.000000000000D+00  7 2 -2 23 -11 11 23 21 2 0.24000239D-01 0.54486460D-01 0.45267180D+05 0.45267180D+05 0.45267180D+05 0.11511135D+01  1  2  6  2  7  2       -2 0.123521796509D-03 0.100000000000D+01
0.180151546664D-07 0.000000000000D+00 0.000000000000D+00 0.461158237752D-07 0.000000000000D+00  7 2 21 23 -11 11 23 2 2 0.24000239D-01 0.81231317D-01 0.76166300D+05 0.76166300D+05 0.76166300D+05 0.11315559D+01  1  2 12  4  7  2       -2 0.885591591329D-05 0.100000000000D+01
-.298426794935D-07 0.000000000000D+00 -.256036221449D-07 0.461158237752D-07 0.000000000000D+00  7 2 21 23 -11 11 23 2 2 0.24000239D-01 0.89300839D-01 0.45267180D+05 0.45267180D+05 0.45267180D+05 0.11511135D+01  1  2  5  4  7  2       -2 -.123337372422D-04 0.100000000000D+01
  </mgrwgt>
  </event>
  <event>
  8     66 0.25765000E-05 0.42160035E+03 0.75467711E-02 0.92514376E-01
        2 -1    0    0  501    0 0.00000000E+00 0.00000000E+00 0.41355438E+03 0.41355451E+03 0.32000000E+00 0.0000E+00 0.9000E+01
       -2 -1    0    0    0  501 0.00000000E+00 0.00000000E+00 -.53914969E+03 0.53914978E+03 0.32000000E+00 0.0000E+00 0.9000E+01
       25  2    1    2    0    0 -.33696708E+03 0.14307324E+03 -.27371109E+03 0.54723516E+03 0.30088503E+03 0.0000E+00 0.0000E+00
       23  2    1    2    0    0 0.33696708E+03 -.14307324E+03 0.14811579E+03 0.40546913E+03 0.91924758E+02 0.0000E+00 0.0000E+00
       23  1    3    3    0    0 -.80927680E+02 0.15918799E+03 -.13445001E+03 0.24141699E+03 0.91188000E+02 0.0000E+00 0.9000E+01
      -13  1    4    4    0    0 0.31366943E+03 -.14763664E+03 0.11607891E+03 0.36559460E+03 0.10565837E+00 0.0000E+00 0.9000E+01
       13  1    4    4    0    0 0.23297649E+02 0.45633941E+01 0.32036880E+02 0.39874527E+02 0.10565837E+00 0.0000E+00 0.9000E+01
       23  1    3    3    0    0 -.25603940E+03 -.16114745E+02 -.13926108E+03 0.30581818E+03 0.91188000E+02 0.0000E+00 0.9000E+01
#aMCatNLO 1  0  0  1  1 0.32404681D+03 0.00000000D+00  -5  7  0 0.00000000D+00 0.00000000D+00 0.00000000D+00 0.00000000D+00 0.00000000D+00
  <mgrwgt>
 0.2731988461D-03    7    2    0
 0.472194685113675D+03 0.000000000000000D+00 0.000000000000000D+00 0.472194685113675D+03
 0.472194685113675D+03 0.000000000000000D+00 0.000000000000000D+00 -.472194685113675D+03
 0.225661909136902D+03 -.809276799454860D+02 0.159187988518284D+03 -.103527488240828D+03
 0.384251393478126D+03 0.313669811406526D+03 -.147636838677911D+03 0.165721895557795D+03
 0.444857721034290D+02 0.232972657327278D+02 0.456359509037069D+01 0.376217347934413D+02
 0.289990295508894D+03 -.256039397193767D+03 -.161147449307445D+02 -.998161421104077D+02
 0.000000000000000D+00 0.000000000000000D+00 -.000000000000000D+00 0.000000000000000D+00
 0.661675609676281D+03 0.000000000000000D+00 0.000000000000000D+00 0.661675609676281D+03
 0.660809950289128D+03 0.000000000000000D+00 0.000000000000000D+00 -.660809950289128D+03
 0.267493835000553D+03 -.163163431119376D+03 0.160926860229115D+03 -.103527488240828D+03
 0.297566534520156D+03 0.199973864153935D+03 -.145232742363456D+03 0.165721895557795D+03
 0.390726676987304D+02 0.936355179806128D+01 0.485822292123419D+01 0.376217347934413D+02
 0.394304552382043D+03 -.370148381038533D+03 -.137019149738600D+02 -.998161421104077D+02
 0.324047970363927D+03 0.323974396205913D+03 -.685042581303323D+01 0.865659387153758D+00
0.211488526314D-04 0.000000000000D+00 0.000000000000D+00 0.309605876207D-06 0.000000000000D+00  7 2 -2 23 -13 13 23 21 0 0.63623768D-01 0.82946122D-01 0.17774685D+06 0.17774685D+06 0.17774685D+06 0.11017816D+01  1  2  2  1  7  1        2 0.258386838177D-03 0.100000000000D+01
-.115658724010D-05 0.000000000000D+00 -.812171627253D-07 0.309605876207D-06 0.000000000000D+00  7 2 -2 23 -13 13 23 21 2 0.63623768D-01 0.82946122D-01 0.17774685D+06 0.17774685D+06 0.17774685D+06 0.11017816D+01  1  2  3  1  7  1        2 -.171535113986D-04 0.100000000000D+01
0.135110129945D-05 0.000000000000D+00 0.000000000000D+00 0.309605876207D-06 0.000000000000D+00  7 2 -2 23 -13 13 23 21 2 0.63623768D-01 0.82946122D-01 0.17774685D+06 0.17774685D+06 0.17774685D+06 0.11017816D+01  1  2 15  1  7  1        2 0.200383773373D-04 0.100000000000D+01
-.613810293298D-05 0.000000000000D+00 0.000000000000D+00 0.309605876207D-06 0.000000000000D+00  7 2 -2 23 -13 13 23 21 2 0.63623768D-01 0.82946122D-01 0.17774685D+06 0.17774685D+06 0.17774685D+06 0.11017816D+01  1  2  4  1  7  1        2 -.910350857902D-04 0.100000000000D+01
-.616657916080D-05 0.000000000000D+00 -.733383089849D-05 0.309605876207D-06 0.000000000000D+00  7 2 -2 23 -13 13 23 21 2 0.11826974D+00 0.82946122D-01 0.17774685D+06 0.17774685D+06 0.17774685D+06 0.11017816D+01  1  2  5  1  7  1        2 -.445811550915D-04 0.100000000000D+01
0.995280801527D-05 0.000000000000D+00 0.611956484872D-05 0.309605876207D-06 0.000000000000D+00  7 2 -2 23 -13 13 23 21 2 0.63623768D-01 0.82946122D-01 0.17774685D+06 0.17774685D+06 0.17774685D+06 0.11017816D+01  1  2  6  1  7  1        2 0.147611524508D-03 0.100000000000D+01
-.885580557714D-08 0.000000000000D+00 -.495593878217D-06 0.309605876207D-06 0.000000000000D+00  7 21 -2 23 -13 13 23 -2 2 0.11826974D+00 0.82946122D-01 0.17774685D+06 0.17774685D+06 0.17774685D+06 0.11017816D+01  1  2  5  3  7  1        2 -.681416404532D-07 0.100000000000D+01
  </mgrwgt>
  </event>
  <event>
  8     66 0.25765000E-05 0.66483917E+03 0.75467711E-02 0.83671082E-01
        2 -1    0    0  501    0 0.00000000E+00 0.00000000E+00 0.84175234E+03 0.84175240E+03 0.32000000E+00 0.0000E+00 0.9000E+01
       -2 -1    0    0    0  501 0.00000000E+00 0.00000000E+00 -.83466438E+03 0.83466444E+03 0.32000000E+00 0.0000E+00 0.9000E+01
       25  2    1    2    0    0 0.37527481E+03 -.50809880E+03 -.50181587E+03 0.86037581E+03 0.29905151E+03 0.0000E+00 0.0000E+00
       23  2    1    2    0    0 -.37527481E+03 0.50809880E+03 0.50890383E+03 0.81604102E+03 0.89130662E+02 0.0000E+00 0.0000E+00
       23  1    3    3    0    0 0.75951440E+02 -.29748435E+03 -.20330929E+03 0.37936193E+03 0.91188000E+02 0.0000E+00 0.9000E+01
      -13  1    4    4    0    0 -.31554113E+03 0.44262231E+03 0.47247084E+03 0.72021484E+03 0.10565837E+00 0.0000E+00 0.9000E+01
       13  1    4    4    0    0 -.59733681E+02 0.65476489E+02 0.36432985E+02 0.95826180E+02 0.10565837E+00 0.0000E+00 0.9000E+01
       23  1    3    3    0    0 0.29932337E+03 -.21061446E+03 -.29850657E+03 0.48101388E+03 0.91188000E+02 0.0000E+00 0.9000E+01
#aMCatNLO 1  0  0  1  2 0.12090772D+04 0.00000000D+00  -5  7  0 0.00000000D+00 0.00000000D+00 0.00000000D+00 0.00000000D+00 0.00000000D+00
  <mgrwgt>
 0.3500211148D-03    3    2    0
 0.838200926648314D+03 0.000000000000000D+00 0.000000000000000D+00 0.838200926648314D+03
 0.838200926648314D+03 0.000000000000000D+00 0.000000000000000D+00 -.838200926648314D+03
 0.380224933357221D+03 0.759514404117592D+02 -.297484345078787D+03 -.204915084205451D+03
 0.718224511262045D+03 -.315541486942480D+03 0.442622841348686D+03 0.469430547485086D+03
 0.956721205386318D+02 -.597333213743369D+02 0.654759592760404D+02 0.360275411710402D+02
 0.482280288138731D+03 0.299323367905057D+03 -.210614455545939D+03 -.300543004450675D+03
 0.000000000000000D+00 -.000000000000000D+00 -.000000000000000D+00 -.000000000000000D+00
 0.128344385899507D+04 0.000000000000000D+00 0.000000000000000D+00 0.128344385899507D+04
 0.249544914233277D+04 0.000000000000000D+00 0.000000000000000D+00 -.249544914233277D+04
 0.290305598866116D+03 0.156956638343038D+03 -.966256246248371D+02 -.204915084205451D+03
 0.109648281344859D+04 -.963110135170513D+02 0.986221937472147D+03 0.469430547485086D+03
 0.145641821570307D+03 -.305807582847849D+02 0.137762018314968D+03 0.360275411710402D+02
 0.534497657020244D+03 0.422157891825481D+03 0.939633485001327D+02 -.300543004450675D+03
 0.171196511042258D+04 -.452222758366683D+03 -.112132167966241D+04 -.121200528333770D+04
0.196572767881D-03 0.000000000000D+00 0.000000000000D+00 0.387682310820D-06 0.000000000000D+00  7 2 -2 23 -13 13 23 21 0 0.12950037D+00 0.12840991D+00 0.44201113D+06 0.44201113D+06 0.44201113D+06 0.10723148D+01  1  2  2  1  7  1        2 0.345527721999D-03 0.100000000000D+01
-.102078039039D-04 0.000000000000D+00 -.754891187460D-06 0.387682310820D-06 0.000000000000D+00  7 2 -2 23 -13 13 23 21 2 0.12950037D+00 0.12840991D+00 0.44201113D+06 0.44201113D+06 0.44201113D+06 0.10723148D+01  1  2  3  1  7  1        2 -.206317681212D-04 0.100000000000D+01
0.124309615140D-04 0.000000000000D+00 0.000000000000D+00 0.387682310820D-06 0.000000000000D+00  7 2 -2 23 -13 13 23 21 2 0.12950037D+00 0.12840991D+00 0.44201113D+06 0.44201113D+06 0.44201113D+06 0.10723148D+01  1  2 15  1  7  1        2 0.251251608959D-04 0.100000000000D+01
  </mgrwgt>
  </event>
  <event>
  8     66 0.25765000E-05 0.32251765E+03 0.75467711E-02 0.88972271E-01
        2 -1    0    0  501    0 0.00000000E+00 0.00000000E+00 0.56614897E+03 0.56614906E+03 0.32000000E+00 0.0000E+00 0.9000E+01
       -2 -1    0    0    0  501 0.00000000E+00 0.00000000E+00 -.77235446E+03 0.77235453E+03 0.32000000E+00 0.0000E+00 0.9000E+01
       25  2    1    2    0    0 -.42791514E+03 -.32140539E+03 -.43173923E+03 0.75054085E+03 0.30083221E+03 0.0000E+00 0.0000E+00
       23  2    1    2    0    0 0.42791514E+03 0.32140539E+03 0.22553373E+03 0.58796274E+03 0.91771112E+02 0.0000E+00 0.0000E+00
       23  1    3    3    0    0 -.20439718E+03 -.97611236E+02 -.55081622E+02 0.25031060E+03 0.91188000E+02 0.0000E+00 0.9000E+01
      -11  1    4    4    0    0 0.14353962E+03 0.15983664E+03 0.71291898E+02 0.22634908E+03 0.51099893E-03 0.0000E+00 0.9000E+01
       11  1    4    4    0    0 0.28437552E+03 0.16156875E+03 0.15424183E+03 0.36161366E+03 0.51099893E-03 0.0000E+00 0.9000E+01
       23  1    3    3    0    0 -.22351796E+03 -.22379415E+03 -.37665760E+03 0.50023025E+03 0.91188000E+02 0.0000E+00 0.9000E+01
#aMCatNLO 1  0  0  1  2 0.50424899D+03 0.00000000D+00  -5  7  0 0.00000000D+00 0.00000000D+00 0.00000000D+00 0.00000000D+00 0.00000000D+00
  <mgrwgt>
 0.1052754230D-03    7    2    0
 0.661262268748244D+03 0.000000000000000D+00 0.000000000000000D+00 0.661262268748244D+03
 0.661262268748244D+03 0.000000000000000D+00 0.000000000000000D+00 -.661262268748244D+03
 0.244746688294689D+03 -.204397176022986D+03 -.976112364232363D+02 -.167191819468880D+02
 0.240199580591545D+03 0.143539617382775D+03 0.159836636522456D+03 0.107445178501173D+03
 0.390031853563744D+03 0.284375519232049D+03 0.161568748772829D+03 0.212487529694933D+03
 0.447546415046511D+03 -.223517960591837D+03 -.223794148872049D+03 -.303213526249217D+03
 0.000000000000000D+00 -.000000000000000D+00 -.000000000000000D+00 0.000000000000000D+00
 0.169870100284616D+04 0.000000000000000D+00 0.000000000000000D+00 0.169870100284616D+04
 0.771840427197102D+03 0.000000000000000D+00 0.000000000000000D+00 -.771840427197102D+03
 0.207609671029161D+03 -.185018755417542D+03 -.165847297116013D+02 -.167191819468880D+02
 0.329067140041744D+03 0.167926341967796D+03 0.261804239739197D+03 0.107445178501173D+03
 0.502553212799583D+03 0.322612825916497D+03 0.321449445439715D+03 0.212487529694933D+03
 0.376163277796495D+03 -.188231194846902D+03 -.762504754386870D+02 -.303213526249217D+03
 0.105514812837628D+04 -.117289217619848D+03 -.490418480028624D+03 0.926860575649060D+03
0.376144235150D-04 0.000000000000D+00 0.000000000000D+00 0.413508707771D-06 0.000000000000D+00  7 2 -2 23 -11 11 23 21 0 0.87099853D-01 0.11882378D+00 0.31094682D+06 0.31094682D+06 0.31094682D+06 0.10834022D+01  1  2  2  1  7  1        2 0.133604983748D-03 0.100000000000D+01
-.201586267695D-05 0.000000000000D+00 -.144449290403D-06 0.413508707771D-06 0.000000000000D+00  7 2 -2 23 -11 11 23 21 2 0.87099853D-01 0.11882378D+00 0.31094682D+06 0.31094682D+06 0.31094682D+06 0.10834022D+01  1  2  3  1  7  1        2 -.840443661500D-05 0.100000000000D+01
0.235180071035D-05 0.000000000000D+00 0.000000000000D+00 0.413508707771D-06 0.000000000000D+00  7 2 -2 23 -11 11 23 21 2 0.87099853D-01 0.11882378D+00 0.31094682D+06 0.31094682D+06 0.31094682D+06 0.10834022D+01  1  2 15  1  7  1        2 0.980501312282D-05 0.100000000000D+01
0.634338970522D-06 0.000000000000D+00 0.000000000000D+00 0.413508707771D-06 0.000000000000D+00  7 2 -2 23 -11 11 23 21 2 0.21940843D+00 0.11882378D+00 0.72272032D+06 0.72272032D+06 0.72272032D+06 0.10573829D+01  1  2 12  1  7  1        2 0.658079075409D-06 0.100000000000D+01
-.302254216234D-04 0.000000000000D+00 -.119843674749D-04 0.413508707771D-06 0.000000000000D+00  7 2 -2 23 -11 11 23 21 2 0.23848493D+00 0.11882378D+00 0.31094682D+06 0.31094682D+06 0.31094682D+06 0.10834022D+01  1  2  5  1  7  1        2 -.295398983987D-04 0.100000000000D+01
0.645892620494D-07 0.000000000000D+00 0.000000000000D+00 0.413508707771D-06 0.000000000000D+00  7 21 -2 23 -11 11 23 -2 2 0.21940843D+00 0.11882378D+00 0.72272032D+06 0.72272032D+06 0.72272032D+06 0.10573829D+01  1  2 12  3  7  1        2 0.246719591823D-07 0.100000000000D+01
-.271757578569D-05 0.000000000000D+00 -.134996581185D-05 0.413508707771D-06 0.000000000000D+00  7 21 -2 23 -11 11 23 -2 2 0.23848493D+00 0.11882378D+00 0.31094682D+06 0.31094682D+06 0.31094682D+06 0.10834022D+01  1  2  5  3  7  1        2 -.872989863313D-06 0.100000000000D+01
  </mgrwgt>
  </event>
  <event>
  8     66 0.25765000E-05 0.82421741E+02 0.75467711E-02 0.10910030E+00
        2 -1    0    0  501    0 0.00000000E+00 0.00000000E+00 0.64552468E+03 0.64552476E+03 0.32000000E+00 0.0000E+00 0.9000E+01
       -2 -1    0    0    0  501 0.00000000E+00 0.00000000E+00 -.18686143E+03 0.18686170E+03 0.32000000E+00 0.0000E+00 0.9000E+01
       25  2    1    2    0    0 0.41609907E+02 0.20990166E+02 -.55192792E+02 0.30863117E+03 0.30005830E+03 0.0000E+00 0.0000E+00
       23  2    1    2    0    0 -.41609907E+02 -.20990166E+02 0.51385605E+03 0.52375529E+03 0.89997768E+02 0.0000E+00 0.0000E+00
       23  1    3    3    0    0 -.21166781E+02 0.24813083E+02 -.13922191E+03 0.16959279E+03 0.91188000E+02 0.0000E+00 0.9000E+01
      -13  1    4    4    0    0 0.15454246E+02 0.70602237E+01 0.21955899E+02 0.27762441E+02 0.10565837E+00 0.0000E+00 0.9000E+01
       13  1    4    4    0    0 -.57064153E+02 -.28050390E+02 0.49190015E+03 0.49599285E+03 0.10565837E+00 0.0000E+00 0.9000E+01
       23  1    3    3    0    0 0.62776688E+02 -.38229170E+01 0.84029122E+02 0.13903838E+03 0.91188000E+02 0.0000E+00 0.9000E+01
#aMCatNLO 1  0  0  1  2 0.41823147D+02 0.00000000D+00  -5  7  0 0.00000000D+00 0.00000000D+00 0.00000000D+00 0.00000000D+00 0.00000000D+00
  <mgrwgt>
 0.2911314811D-03    6    2    0
 0.347309389604436D+03 0.000000000000000D+00 0.000000000000000D+00 0.347309389604436D+03
 0.347309389604436D+03 0.000000000000000D+00 0.000000000000000D+00 -.347309389604436D+03
 0.295158619916397D+03 -.211667811142499D+02 0.248130830557502D+02 -.278818288233541D+03
 0.187706931609024D+02 0.154543457855181D+02 0.706027203674716D+01 0.797838811098546D+01
 0.269560023676989D+03 -.570642524771251D+02 -.280504380528702D+02 0.261953145388652D+03
 0.111129442454583D+03 0.627766878058569D+02 -.382291703962717D+01 0.888675473390363D+01
 0.000000000000000D+00 0.000000000000000D+00 -.000000000000000D+00 -.000000000000000D+00
 0.366803567315190D+03 0.000000000000000D+00 0.000000000000000D+00 0.366803567315190D+03
 0.371118287118056D+03 0.000000000000000D+00 0.000000000000000D+00 -.371118287118056D+03
 0.297213004582298D+03 -.215326127075844D+02 0.426266053696581D+02 -.278818288233541D+03
 0.192105920903203D+02 0.154308896415610D+02 0.820242747490833D+01 0.797838811098546D+01
 0.268430174978499D+03 -.573964996737039D+02 -.118722485311769D+02 0.261953145388652D+03
 0.111022958860969D+03 0.626394929039148D+02 0.285754602487518D+01 0.888675473390363D+01
 0.420451239211597D+02 0.858729835812546D+00 -.418143303382646D+02 -.431471980286608D+01
0.355796220096D-05 0.000000000000D+00 0.000000000000D+00 0.770943036009D-06 0.000000000000D+00  7 2 -2 23 -13 13 23 21 0 0.99311517D-01 0.28747939D-01 0.20764114D+05 0.20764114D+05 0.20764114D+05 0.11824601D+01  1  2  2  1  7  1        2 0.215986618697D-03 0.100000000000D+01
-.116682096668D-07 0.000000000000D+00 -.136635116847D-07 0.770943036009D-06 0.000000000000D+00  7 2 -2 23 -13 13 23 21 2 0.99311517D-01 0.28747939D-01 0.20764114D+05 0.20764114D+05 0.20764114D+05 0.11824601D+01  1  2  3  1  7  1        2 -.990381901415D-06 0.100000000000D+01
0.217923830796D-06 0.000000000000D+00 0.000000000000D+00 0.770943036009D-06 0.000000000000D+00  7 2 -2 23 -13 13 23 21 2 0.99311517D-01 0.28747939D-01 0.20764114D+05 0.20764114D+05 0.20764114D+05 0.11824601D+01  1  2 15  1  7  1        2 0.184970808779D-04 0.100000000000D+01
0.497588773244D-05 0.000000000000D+00 0.000000000000D+00 0.770943036009D-06 0.000000000000D+00  7 2 -2 23 -13 13 23 21 2 0.10808651D+00 0.28747939D-01 0.27475282D+05 0.27475282D+05 0.27475282D+05 0.11708949D+01  1  2 12  1  7  1        2 0.374926099986D-03 0.100000000000D+01
-.381984598143D-05 0.000000000000D+00 0.000000000000D+00 0.770943036009D-06 0.000000000000D+00  7 2 -2 23 -13 13 23 21 2 0.99311517D-01 0.28747939D-01 0.20764114D+05 0.20764114D+05 0.20764114D+05 0.11824601D+01  1  2  4  1  7  1        2 -.324223375671D-03 0.100000000000D+01
0.698872192505D-07 0.000000000000D+00 0.000000000000D+00 0.770943036009D-06 0.000000000000D+00  7 21 -2 23 -13 13 23 -2 2 0.10808651D+00 0.28747939D-01 0.27475282D+05 0.27475282D+05 0.27475282D+05 0.11708949D+01  1  2 12  3  7  1        2 0.693543906735D-05 0.100000000000D+01
  </mgrwgt>
  </event>
  <event>
  8     66 0.25765000E-05 0.11894345E+03 0.75467711E-02 0.10420872E+00
        2 -1    0    0  501    0 0.00000000E+00 0.00000000E+00 0.42400741E+03 0.42400753E+03 0.32000000E+00 0.0000E+00 0.9000E+01
       -2 -1    0    0    0  501 0.00000000E+00 0.00000000E+00 -.21457232E+03 0.21457256E+03 0.32000000E+00 0.0000E+00 0.9000E+01
       25  2    1    2    0    0 0.77218771E+02 -.14520680E+03 -.30756714E+02 0.33362907E+03 0.28864274E+03 0.0000E+00 0.0000E+00
       23  2    1    2    0    0 -.77218771E+02 0.14520680E+03 0.24019180E+03 0.30495101E+03 0.90858477E+02 0.0000E+00 0.0000E+00
       23  1    3    3    0    0 0.32823987E+02 -.89587402E+02 0.95114002E+02 0.16268141E+03 0.91188000E+02 0.0000E+00 0.9000E+01
      -13  1    4    4    0    0 -.77150853E+01 0.19590572E+02 -.42397773E+01 0.21477894E+02 0.10565837E+00 0.0000E+00 0.9000E+01
       13  1    4    4    0    0 -.69503685E+02 0.12561623E+03 0.24443158E+03 0.28347312E+03 0.10565837E+00 0.0000E+00 0.9000E+01
       23  1    3    3    0    0 0.44394784E+02 -.55619402E+02 -.12587072E+03 0.17094766E+03 0.91188000E+02 0.0000E+00 0.9000E+01
#aMCatNLO 1  0  0  2  1 0.50418356D+02 0.00000000D+00  -5  7  0 0.00000000D+00 0.00000000D+00 0.00000000D+00 0.00000000D+00 0.00000000D+00
  <mgrwgt>
 0.1244597351D-02    9    2    0
 0.301629519178175D+03 0.000000000000000D+00 0.000000000000000D+00 0.301629519178175D+03
 0.301629519178175D+03 0.000000000000000D+00 0.000000000000000D+00 -.301629519178175D+03
 0.139185480072280D+03 0.328239873271875D+02 -.895874023008951D+02 0.442044084212553D+02
 0.242071092870559D+02 -.771500183183800D+01 0.195904286190535D+02 -.119447893783011D+02
 0.215210857844492D+03 -.695037699506176D+02 0.125616377841084D+03 0.160329239114080D+03
 0.224655591152522D+03 0.443947844552680D+02 -.556194041592420D+02 -.192588858157034D+03
 0.000000000000000D+00 -.000000000000000D+00 0.000000000000000D+00 -.000000000000000D+00
 0.315252894709577D+03 0.000000000000000D+00 0.000000000000000D+00 0.315252894709577D+03
 0.353231151349223D+03 0.000000000000000D+00 0.000000000000000D+00 -.353231151349223D+03
 0.146712030859420D+03 0.417029204431236D+02 -.975500146465224D+02 0.442044084212553D+02
 0.227183317924228D+02 -.625766891759648D+01 0.182834949026816D+02 -.119447893783011D+02
 0.204627234989438D+03 -.564651312662635D+02 0.113923348509455D+03 0.160329239114080D+03
 0.231304672399486D+03 0.585552459101774D+02 -.683184822723845D+02 -.192588858157034D+03
 0.631217760180332D+02 -.375353661694410D+02 0.336616535067707D+02 -.379782566396464D+02
0.130996553746D-04 0.000000000000D+00 0.000000000000D+00 0.152251768813D-08 0.000000000000D+00  7 2 -2 23 -13 13 23 21 0 0.65231936D-01 0.33011154D-01 0.42491116D+05 0.42491116D+05 0.42491116D+05 0.11535640D+01  1  2  2  2  7  2       -2 0.992191627751D-03 0.100000000000D+01
-.599532625624D-06 0.000000000000D+00 -.503061258569D-07 0.152251768813D-08 0.000000000000D+00  7 2 -2 23 -13 13 23 21 2 0.65231936D-01 0.33011154D-01 0.42491116D+05 0.42491116D+05 0.42491116D+05 0.11535640D+01  1  2  3  2  7  2       -2 -.604271225363D-04 0.100000000000D+01
0.807352042937D-06 0.000000000000D+00 0.000000000000D+00 0.152251768813D-08 0.000000000000D+00  7 2 -2 23 -13 13 23 21 2 0.65231936D-01 0.33011154D-01 0.42491116D+05 0.42491116D+05 0.42491116D+05 0.11535640D+01  1  2 15  2  7  2       -2 0.813733210560D-04 0.100000000000D+01
0.225243377545D-04 0.000000000000D+00 0.000000000000D+00 0.152251768813D-08 0.000000000000D+00  7 2 -2 23 -13 13 23 21 2 0.65231936D-01 0.39313720D-01 0.54031397D+05 0.54031397D+05 0.54031397D+05 0.11443450D+01  1  2 12  2  7  2       -2 0.162962201671D-02 0.100000000000D+01
-.233795830044D-04 0.000000000000D+00 0.000000000000D+00 0.152251768813D-08 0.000000000000D+00  7 2 -2 23 -13 13 23 21 2 0.65231936D-01 0.33011154D-01 0.42491116D+05 0.42491116D+05 0.42491116D+05 0.11535640D+01  1  2  4  2  7  2       -2 -.235643710896D-02 0.100000000000D+01
-.380282020200D-04 0.000000000000D+00 -.931719310764D-05 0.152251768813D-08 0.000000000000D+00  7 2 -2 23 -13 13 23 21 2 0.65231936D-01 0.40141540D-01 0.42491116D+05 0.42491116D+05 0.42491116D+05 0.11535640D+01  1  2  5  2  7  2       -2 -.269389511486D-02 0.100000000000D+01
0.392723039948D-04 0.000000000000D+00 0.914181559153D-05 0.152251768813D-08 0.000000000000D+00  7 2 -2 23 -13 13 23 21 2 0.65231936D-01 0.33011154D-01 0.42491116D+05 0.42491116D+05 0.42491116D+05 0.11535640D+01  1  2  6  2  7  2       -2 0.395827053333D-02 0.100000000000D+01
0.580358104349D-06 0.000000000000D+00 0.000000000000D+00 0.152251768813D-08 0.000000000000D+00  7 2 21 23 -13 13 23 2 2 0.65231936D-01 0.39313720D-01 0.54031397D+05 0.54031397D+05 0.54031397D+05 0.11443450D+01  1  2 12  4  7  2       -2 0.481330714728D-03 0.100000000000D+01
-.966419921104D-06 0.000000000000D+00 -.262073616109D-06 0.152251768813D-08 0.000000000000D+00  7 2 21 23 -13 13 23 2 2 0.65231936D-01 0.40141540D-01 0.42491116D+05 0.42491116D+05 0.42491116D+05 0.11535640D+01  1  2  5  4  7  2       -2 -.787431516189D-03 0.100000000000D+01
  </mgrwgt>
  </event>
  <event>
  8     66 0.25765000E-05 0.40910737E+03 0.75467711E-02 0.87564662E-01
        2 -1    0    0  501    0 0.00000000E+00 0.00000000E+00 0.17510735E+04 0.17510735E+04 0.32000000E+00 0.0000E+00 0.9000E+01
       -2 -1    0    0    0  501 0.00000000E+00 0.00000000E+00 -.68612777E+03 0.68612784E+03 0.32000000E+00 0.0000E+00 0.9000E+01
       25  2    1    2    0    0 0.70386909E+03 0.10804315E+03 0.14345217E+04 0.16295700E+04 0.30089985E+03 0.0000E+00 0.0000E+00
       23  2    1    2    0    0 -.70386909E+03 -.10804315E+03 -.36957601E+03 0.80763138E+03 0.92612134E+02 0.0000E+00 0.0000E+00
       23  1    3    3    0    0 0.42897073E+03 0.51929540E+01 0.62385381E+03 0.76259536E+03 0.91188000E+02 0.0000E+00 0.9000E+01
      -13  1    4    4    0    0 -.18229754E+03 -.42320241E+02 -.55250291E+02 0.19513073E+03 0.10565837E+00 0.0000E+00 0.9000E+01
       13  1    4    4    0    0 -.52157154E+03 -.65722905E+02 -.31432572E+03 0.61250065E+03 0.10565837E+00 0.0000E+00 0.9000E+01
       23  1    3    3    0    0 0.27489836E+03 0.10285019E+03 0.81066792E+03 0.86697463E+03 0.91188000E+02 0.0000E+00 0.9000E+01
#aMCatNLO 1  0  0  2  1 0.45689874D+03 0.00000000D+00  -5  7  0 0.00000000D+00 0.00000000D+00 0.00000000D+00 0.00000000D+00 0.00000000D+00
  <mgrwgt>
 0.2022926907D-03    9    2    0
 0.109611143123233D+04 0.000000000000000D+00 0.000000000000000D+00 0.109611143123233D+04
 0.109611143123233D+04 0.000000000000000D+00 0.000000000000000D+00 -.109611143123233D+04
 0.544756656397822D+03 0.428970728571064D+03 0.519295396088066D+01 0.323112535510627D+03
 0.243775289048579D+03 -.182297099972600D+03 -.423202105749507D+02 -.156215103844635D+03
 0.833641940784914D+03 -.521571985609709D+03 -.657229358244819D+02 -.646994625147222D+03
 0.570048976233344D+03 0.274898357011246D+03 0.102850192438552D+03 0.480097193481230D+03
 0.000000000000000D+00 0.000000000000000D+00 -.000000000000000D+00 -.000000000000000D+00
 0.126351958970281D+04 0.000000000000000D+00 0.000000000000000D+00 0.126351958970281D+04
 0.148245523111224D+04 0.000000000000000D+00 0.000000000000000D+00 -.148245523111224D+04
 0.468338284536806D+03 0.325817253992643D+03 0.216079572256652D+02 0.323112535510627D+03
 0.285149311149309D+03 -.236152279873193D+03 -.337501361542223D+02 -.156215103844635D+03
 0.956756931065008D+03 -.703870659751959D+03 -.367134105182259D+02 -.646994625147222D+03
 0.529085179945404D+03 0.162984356993577D+03 0.120659274325256D+03 0.480097193481230D+03
 0.506645114118519D+03 0.451221328638932D+03 -.718036848784730D+02 -.218935641409428D+03
0.234912603811D-03 0.000000000000D+00 0.000000000000D+00 0.120752781270D-05 0.000000000000D+00  7 2 -2 23 -13 13 23 21 0 0.26939593D+00 0.10555813D+00 0.53200650D+06 0.53200650D+06 0.53200650D+06 0.10666111D+01  1  2  2  2  7  2       -2 0.197483858080D-03 0.100000000000D+01
-.104181062866D-04 0.000000000000D+00 -.902126252543D-06 0.120752781270D-05 0.000000000000D+00  7 2 -2 23 -13 13 23 21 2 0.26939593D+00 0.10555813D+00 0.53200650D+06 0.53200650D+06 0.53200650D+06 0.10666111D+01  1  2  3  2  7  2       -2 -.996382953521D-05 0.100000000000D+01
0.146872498411D-04 0.000000000000D+00 0.000000000000D+00 0.120752781270D-05 0.000000000000D+00  7 2 -2 23 -13 13 23 21 2 0.26939593D+00 0.10555813D+00 0.53200650D+06 0.53200650D+06 0.53200650D+06 0.10666111D+01  1  2 15  2  7  2       -2 0.140468190410D-04 0.100000000000D+01
0.497483152399D-04 0.000000000000D+00 0.000000000000D+00 0.120752781270D-05 0.000000000000D+00  7 2 -2 23 -13 13 23 21 2 0.26939593D+00 0.14857331D+00 0.96201846D+06 0.96201846D+06 0.96201846D+06 0.10489852D+01  1  2 12  2  7  2       -2 0.180835675502D-04 0.100000000000D+01
-.141840771071D-03 0.000000000000D+00 0.000000000000D+00 0.120752781270D-05 0.000000000000D+00  7 2 -2 23 -13 13 23 21 2 0.26939593D+00 0.10555813D+00 0.53200650D+06 0.53200650D+06 0.53200650D+06 0.10666111D+01  1  2  4  2  7  2       -2 -.135655869235D-03 0.100000000000D+01
-.156752308476D-03 0.000000000000D+00 -.876927075936D-04 0.120752781270D-05 0.000000000000D+00  7 2 -2 23 -13 13 23 21 2 0.26939593D+00 0.15816805D+00 0.53200650D+06 0.53200650D+06 0.53200650D+06 0.10666111D+01  1  2  5  2  7  2       -2 -.515384980413D-04 0.100000000000D+01
0.183700579920D-03 0.000000000000D+00 0.809803564516D-04 0.120752781270D-05 0.000000000000D+00  7 2 -2 23 -13 13 23 21 2 0.26939593D+00 0.10555813D+00 0.53200650D+06 0.53200650D+06 0.53200650D+06 0.10666111D+01  1  2  6  2  7  2       -2 0.175690400299D-03 0.100000000000D+01
0.211270924771D-05 0.000000000000D+00 0.000000000000D+00 0.120752781270D-05 0.000000000000D+00  7 2 21 23 -13 13 23 2 2 0.26939593D+00 0.14857331D+00 0.96201846D+06 0.96201846D+06 0.96201846D+06 0.10489852D+01  1  2 12  4  7  2       -2 0.630526843074D-05 0.100000000000D+01
-.448386460013D-05 0.000000000000D+00 -.420781513155D-05 0.120752781270D-05 0.000000000000D+00  7 2 21 23 -13 13 23 2 2 0.26939593D+00 0.15816805D+00 0.53200650D+06 0.53200650D+06 0.53200650D+06 0.10666111D+01  1  2  5  4  7  2       -2 -.121590258706D-04 0.100000000000D+01
  </mgrwgt>
  </event>
  <event>
  9     66 0.25765000E-05 0.18926652E+03 0.75467711E-02 0.98600082E-01
        2 -1    0    0  501    0 0.00000000E+00 0.00000000E+00 0.15762495E+04 0.15762495E+04 0.32000000E+00 0.0000E+00 0.9000E+01
       21 -1    0    0  502  501 0.00000000E+00 0.00000000E+00 -.16867354E+03 0.16867521E+03 0.75000000E+00 0.0000E+00 0.9000E+01
       25  2    1    2    0    0 -.25089796E+03 0.67860641E+02 0.83669808E+03 0.92616584E+03 0.30027427E+03 0.0000E+00 0.0000E+00
       23  2    1    2    0    0 0.48350797E+02 0.10064356E+03 -.42491337E+02 0.15119549E+03 0.92669502E+02 0.0000E+00 0.0000E+00
       23  1    3    3    0    0 -.13572580E+03 0.47325875E+02 0.71296408E+03 0.73300359E+03 0.91188000E+02 0.0000E+00 0.9000E+01
      -13  1    4    4    0    0 -.13508145E+02 -.10037783E+01 -.28283383E+02 0.31359822E+02 0.10565837E+00 0.0000E+00 0.9000E+01
       13  1    4    4    0    0 0.61858942E+02 0.10164734E+03 -.14207954E+02 0.11983567E+03 0.10565837E+00 0.0000E+00 0.9000E+01
       23  1    3    3    0    0 -.11517215E+03 0.20534766E+02 0.12373400E+03 0.19316225E+03 0.91188000E+02 0.0000E+00 0.9000E+01
        2  1    1    2  502    0 0.20254716E+03 -.16850420E+03 0.61336921E+03 0.66756341E+03 0.32000000E+00 0.0000E+00 0.9000E+01
#aMCatNLO 2  0  0  2  1 0.26347489D+03 0.00000000D+00  -5  7  0 0.00000000D+00 0.00000000D+00 0.00000000D+00 0.00000000D+00 0.00000000D+00
  <mgrwgt>
 0.2697012119D-04    1    2    0
 0.339309618140135D+03 0.000000000000000D+00 0.000000000000000D+00 0.339309618140135D+03
 0.339309618140135D+03 0.000000000000000D+00 0.000000000000000D+00 -.339309618140135D+03
 0.277038061601841D+03 -.516288027926108D+02 -.226365854279584D+02 0.255454277620223D+03
 0.791043161783686D+02 0.900908864044375D+01 -.197366572850091D+02 -.760709768514250D+02
 0.200100167362416D+03 0.118443530644211D+03 0.545733723802256D+02 -.151766116290988D+03
 0.122376691137645D+03 -.758238164920444D+02 -.122001296672580D+02 -.276171844778099D+02
 0.000000000000000D+00 0.000000000000000D+00 -.000000000000000D+00 0.000000000000000D+00
 0.613103939468301D+03 0.000000000000000D+00 0.000000000000000D+00 0.613103939468301D+03
 0.433650746266810D+03 0.000000000000000D+00 0.000000000000000D+00 -.433650746266810D+03
 0.306974544948301D+03 -.135725802581298D+03 0.473258751784773D+02 0.255454277620223D+03
 0.772675477860999D+02 -.135082414022381D+02 -.100391033765407D+01 -.760709768514250D+02
 0.192851504183492D+03 0.618590386857780D+02 0.101647468953521D+03 -.151766116290988D+03
 0.150878301453662D+03 -.115172153833519D+03 0.205347658474328D+02 -.276171844778099D+02
 0.318782787363556D+03 0.202547159131276D+03 -.168504199641778D+03 0.179453193201491D+03
0.925971536764D-07 0.000000000000D+00 0.000000000000D+00 0.229538013937D-06 0.100548026690D-11  7 2 21 23 -13 13 23 2 2 0.24250001D+00 0.25949902D-01 0.12765076D+06 0.12765076D+06 0.12765076D+06 0.11131241D+01  1  2  1  4  7  2       -2 0.269701211885D-04 0.100000000000D+01
  </mgrwgt>
  </event>
  <event>
  8     66 0.25765000E-05 0.23544191E+03 0.75467711E-02 0.86110000E-01
        2 -1    0    0  501    0 0.00000000E+00 0.00000000E+00 0.79573052E+03 0.79573059E+03 0.32000000E+00 0.0000E+00 0.9000E+01
       -2 -1    0    0    0  501 0.00000000E+00 0.00000000E+00 -.47492705E+03 0.47492715E+03 0.32000000E+00 0.0000E+00 0.9000E+01
       25  2    1    2    0    0 -.11795511E+03 -.64289197E+02 -.40875154E+03 0.52309100E+03 0.29748927E+03 0.0000E+00 0.0000E+00
       23  2    1    2    0    0 0.11795511E+03 0.64289197E+02 0.72955502E+03 0.74756674E+03 0.92514840E+02 0.0000E+00 0.0000E+00
       23  1    3    3    0    0 -.11092929E+03 -.14205915E+03 -.29627149E+03 0.35857796E+03 0.91188000E+02 0.0000E+00 0.9000E+01
      -11  1    4    4    0    0 0.11096318E+03 0.76491867E+02 0.71395031E+03 0.72655962E+03 0.51099893E-03 0.0000E+00 0.9000E+01
       11  1    4    4    0    0 0.69919289E+01 -.12202670E+02 0.15604709E+02 0.21007122E+02 0.51099893E-03 0.0000E+00 0.9000E+01
       23  1    3    3    0    0 -.70258203E+01 0.77769949E+02 -.11248006E+03 0.16451304E+03 0.91188000E+02 0.0000E+00 0.9000E+01
#aMCatNLO 1  0  0  2  1 0.11164201D+04 0.00000000D+00  -5  7  0 0.00000000D+00 0.00000000D+00 0.00000000D+00 0.00000000D+00 0.00000000D+00
  <mgrwgt>
 0.5088702827D-03    3    2    0
 0.614747148427826D+03 0.000000000000000D+00 0.000000000000000D+00 0.614747148427826D+03
 0.614747148427826D+03 0.000000000000000D+00 0.000000000000000D+00 -.614747148427826D+03
 0.447887220753892D+03 -.110929290318849D+03 -.142059146105570D+03 -.399751926484112D+03
 0.564598683112237D+03 0.110963181752609D+03 0.764918666055258D+02 0.548277155835087D+03
 0.176388105668772D+02 0.699192890697887D+01 -.122026697597575D+02 0.106459109102149D+02
 0.199369582422645D+03 -.702582034073889D+01 0.777699492598022D+02 -.159171140261190D+03
 0.000000000000000D+00 -.000000000000000D+00 -.000000000000000D+00 0.000000000000000D+00
 0.161455418366471D+04 0.000000000000000D+00 0.000000000000000D+00 0.161455418366471D+04
 0.122772205792806D+04 0.000000000000000D+00 0.000000000000000D+00 -.122772205792806D+04
 0.441611198431156D+03 0.840197443918805D+02 0.140869723717931D+03 -.399751926484112D+03
 0.876994401894867D+03 0.426913355812819D+03 0.535029277678297D+03 0.548277155835087D+03
 0.183037288905878D+02 0.148693609756101D+02 -.770179439421593D+00 0.106459109102149D+02
 0.323828502643642D+03 0.107642131221922D+03 0.244187156653208D+03 -.159171140261190D+03
 0.118153840973252D+04 -.633444592402231D+03 -.919315978610015D+03 0.386832125736651D+03
0.595080009460D-04 0.000000000000D+00 0.000000000000D+00 0.920497655777D-07 0.000000000000D+00  7 2 -2 23 -11 11 23 21 0 0.12242009D+00 0.73065713D-01 0.55432894D+05 0.55432894D+05 0.55432894D+05 0.11433757D+01  1  2  2  2  7  2       -2 0.467405566414D-03 0.100000000000D+01
0.396522527091D-06 0.000000000000D+00 -.228526392449D-06 0.920497655777D-07 0.000000000000D+00  7 2 -2 23 -11 11 23 21 2 0.12242009D+00 0.73065713D-01 0.55432894D+05 0.55432894D+05 0.55432894D+05 0.11433757D+01  1  2  3  2  7  2       -2 0.407159274313D-05 0.100000000000D+01
0.364162546864D-05 0.000000000000D+00 0.000000000000D+00 0.920497655777D-07 0.000000000000D+00  7 2 -2 23 -11 11 23 21 2 0.12242009D+00 0.73065713D-01 0.55432894D+05 0.55432894D+05 0.55432894D+05 0.11433757D+01  1  2 15  2  7  2       -2 0.373931235133D-04 0.100000000000D+01
  </mgrwgt>
  </event>
  <event>
  9     66 0.25765000E-05 0.16776573E+03 0.75467711E-02 0.10102868E+00
        2 -1    0    0  501    0 0.00000000E+00 0.00000000E+00 0.41586982E+03 0.41586994E+03 0.32000000E+00 0.0000E+00 0.9000E+01
       -2 -1    0    0    0  502 0.00000000E+00 0.00000000E+00 -.28069105E+03 0.28069123E+03 0.32000000E+00 0.0000E+00 0.9000E+01
       25  2    1    2    0    0 -.15533070E+03 0.16062727E+03 0.60366478E+02 0.37884355E+03 0.29991595E+03 0.0000E+00 0.0000E+00
       23  2    1    2    0    0 0.67231204E+02 0.98514355E+01 0.51159963E+02 0.12436689E+03 0.90734199E+02 0.0000E+00 0.0000E+00
       23  1    3    3    0    0 -.76482495E+02 0.81888419E+02 0.15078430E+03 0.20882155E+03 0.91188000E+02 0.0000E+00 0.9000E+01
      -13  1    4    4    0    0 -.20538039E+02 -.24862062E+01 0.23958284E+02 0.31654428E+02 0.10565837E+00 0.0000E+00 0.9000E+01
       13  1    4    4    0    0 0.87769243E+02 0.12337642E+02 0.27201679E+02 0.92712458E+02 0.10565837E+00 0.0000E+00 0.9000E+01
       23  1    3    3    0    0 -.78848209E+02 0.78738851E+02 -.90417820E+02 0.17002200E+03 0.91188000E+02 0.0000E+00 0.9000E+01
       21  1    1    2  501  502 0.88099500E+02 -.17047871E+03 0.23652332E+02 0.19335073E+03 0.75000000E+00 0.0000E+00 0.9000E+01
#aMCatNLO 2  0  0  2  2 0.19189714D+03 0.00000000D+00  -5  7  0 0.00000000D+00 0.00000000D+00 0.00000000D+00 0.00000000D+00 0.00000000D+00
  <mgrwgt>
 0.2868694399D-04    1    2    0
 0.225808595543613D+03 0.000000000000000D+00 0.000000000000000D+00 0.225808595543613D+03
 0.225808595543613D+03 0.000000000000000D+00 0.000000000000000D+00 -.225808595543613D+03
 0.149609997381600D+03 -.456778712358256D+02 0.222793086198944D+02 0.107168393005145D+03
 0.262861099638526D+02 -.155547867421516D+02 -.121294473650163D+02 0.173748292957725D+02
 0.109051084747776D+03 0.106275886770810D+03 -.234737001244174D+02 0.682351655772148D+01
 0.166669998993997D+03 -.450432287928324D+02 0.133238388695393D+02 -.131366738858639D+03
 0.000000000000000D+00 0.000000000000000D+00 -.000000000000000D+00 -.000000000000000D+00
 0.331955535532695D+03 0.000000000000000D+00 0.000000000000000D+00 0.331955535532695D+03
 0.351645114245782D+03 0.000000000000000D+00 0.000000000000000D+00 -.351645114245782D+03
 0.179876628647451D+03 -.764824978507310D+02 0.818884195279209D+02 0.107168393005145D+03
 0.270163461736227D+02 -.205381825138135D+02 -.248622737195707D+01 0.173748292957725D+02
 0.888945707124696D+02 0.877693935635318D+02 0.123376609383876D+02 0.682351655772148D+01
 0.194908489037644D+03 -.788482133836627D+02 0.787388526890507D+02 -.131366738858639D+03
 0.192904615207289D+03 0.880995001846754D+02 -.170478705783402D+03 -.196895787130870D+02
0.478574749927D-06 0.000000000000D+00 0.000000000000D+00 0.129098294705D-06 0.290987335474D-10  7 2 -2 23 -13 13 23 21 2 0.63979859D-01 0.43183169D-01 0.86927794D+05 0.86927794D+05 0.86927794D+05 0.11267492D+01  1  2  1  2  7  2       -2 0.286869439877D-04 0.100000000000D+01
  </mgrwgt>
  </event>
  <event>
  8     66 0.25765000E-05 0.18949634E+03 0.75467711E-02 0.10558256E+00
        4 -1    0    0  501    0 0.00000000E+00 0.00000000E+00 0.17253083E+03 0.17253780E+03 0.15500000E+01 0.0000E+00 0.9000E+01
       -4 -1    0    0    0  501 0.00000000E+00 0.00000000E+00 -.26260778E+03 0.26261236E+03 0.15500000E+01 0.0000E+00 0.9000E+01
       25  2    1    2    0    0 -.49628443E+01 -.42048917E+02 -.53127862E+02 0.30892263E+03 0.30136005E+03 0.0000E+00 0.0000E+00
       23  2    1    2    0    0 0.49628443E+01 0.42048917E+02 -.36949090E+02 0.12622752E+03 0.11302836E+03 0.0000E+00 0.0000E+00
       23  1    3    3    0    0 0.11384410E+03 0.47688774E+01 -.10481498E+02 0.14631587E+03 0.91188000E+02 0.0000E+00 0.9000E+01
      -13  1    4    4    0    0 -.26849471E+02 0.50157861E+01 0.31791708E+02 0.41913912E+02 0.10565837E+00 0.0000E+00 0.9000E+01
       13  1    4    4    0    0 0.31812315E+02 0.37033131E+02 -.68740798E+02 0.84313609E+02 0.10565837E+00 0.0000E+00 0.9000E+01
       23  1    3    3    0    0 -.11880694E+03 -.46817794E+02 -.42646364E+02 0.16260676E+03 0.91188000E+02 0.0000E+00 0.9000E+01
#aMCatNLO 1  0  0  2  2 0.40543884D+02 0.00000000D+00  -5  7  0 0.00000000D+00 0.00000000D+00 0.00000000D+00 0.00000000D+00 0.00000000D+00
  <mgrwgt>
 0.1235671238D-04    4    2    0
 0.212862514117125D+03 0.000000000000000D+00 0.000000000000000D+00 0.212862514117125D+03
 0.212862514117125D+03 0.000000000000000D+00 0.000000000000000D+00 -.212862514117125D+03
 0.147335816055888D+03 0.113842028136237D+03 0.476341090782349D+01 0.202458364906441D+02
 0.495660692624944D+02 -.268481286336201D+02 0.502048004758739D+01 0.413614312022536D+02
 0.716389227693282D+02 0.318122285719887D+02 0.370390758039745D+02 -.524235083948103D+02
 0.157184220146538D+03 -.118806128074606D+03 -.468229667593854D+02 -.918375929808738D+01
 0.000000000000000D+00 -.000000000000000D+00 -.000000000000000D+00 0.000000000000000D+00
 0.278020263154864D+03 0.000000000000000D+00 0.000000000000000D+00 0.278020263154864D+03
 0.220227284627260D+03 0.000000000000000D+00 0.000000000000000D+00 -.220227284627260D+03
 0.158527681860518D+03 0.127776925696414D+03 0.888470238313189D+01 0.202458364906441D+02
 0.474740439468402D+02 -.224270582999200D+02 0.632802604132966D+01 0.413614312022536D+02
 0.758687062558714D+02 0.385325587644212D+02 0.390266354120539D+02 -.524235083948103D+02
 0.145780834928264D+03 -.105003281263724D+03 -.427407297245583D+02 -.918375929808738D+01
 0.705962807906300D+02 -.388791448971904D+02 -.114986341119571D+02 0.577929785276039D+02
0.705871251274D-06 0.000000000000D+00 0.000000000000D+00 0.892307462906D-10 0.000000000000D+00  7 4 -4 23 -13 13 23 21 0 0.26544093D-01 0.40402085D-01 0.35908863D+05 0.35908863D+05 0.35908863D+05 0.11601601D+01  1  2  2  2  7  2       -4 0.141631979351D-04 0.100000000000D+01
-.385704248016D-07 0.000000000000D+00 -.271073146506D-08 0.892307462906D-10 0.000000000000D+00  7 4 -4 23 -13 13 23 21 2 0.26544093D-01 0.40402085D-01 0.35908863D+05 0.35908863D+05 0.35908863D+05 0.11601601D+01  1  2  3  2  7  2       -4 -.104166022931D-05 0.100000000000D+01
0.462086312870D-07 0.000000000000D+00 0.000000000000D+00 0.892307462906D-10 0.000000000000D+00  7 4 -4 23 -13 13 23 21 2 0.26544093D-01 0.40402085D-01 0.35908863D+05 0.35908863D+05 0.35908863D+05 0.11601601D+01  1  2 15  2  7  2       -4 0.124794304730D-05 0.100000000000D+01
-.745284584610D-07 0.000000000000D+00 0.000000000000D+00 0.892307462906D-10 0.000000000000D+00  7 4 -4 23 -13 13 23 21 2 0.26544093D-01 0.40402085D-01 0.35908863D+05 0.35908863D+05 0.35908863D+05 0.11601601D+01  1  2  4  2  7  2       -4 -.201276837187D-05 0.100000000000D+01
  </mgrwgt>
  </event>
  <event>
  8     66 0.25765000E-05 0.21997973E+03 0.75467711E-02 0.98314723E-01
        2 -1    0    0  501    0 0.00000000E+00 0.00000000E+00 0.87204351E+03 0.87204357E+03 0.32000000E+00 0.0000E+00 0.9000E+01
       -2 -1    0    0    0  501 0.00000000E+00 0.00000000E+00 -.81732667E+02 0.81733293E+02 0.32000000E+00 0.0000E+00 0.9000E+01
       25  2    1    2    0    0 0.64534934E+02 0.70151148E+02 0.26596302E+03 0.41257607E+03 0.30066051E+03 0.0000E+00 0.0000E+00
       23  2    1    2    0    0 -.64534934E+02 -.70151148E+02 0.52434782E+03 0.54120079E+03 0.94189792E+02 0.0000E+00 0.0000E+00
       23  1    3    3    0    0 -.42674225E+02 0.12263911E+03 0.17819819E+03 0.23860278E+03 0.91188000E+02 0.0000E+00 0.9000E+01
      -13  1    4    4    0    0 -.14058973E+02 0.21939506E+02 0.65592995E+02 0.70579380E+02 0.10565837E+00 0.0000E+00 0.9000E+01
       13  1    4    4    0    0 -.50475961E+02 -.92090653E+02 0.45875482E+03 0.47062141E+03 0.10565837E+00 0.0000E+00 0.9000E+01
       23  1    3    3    0    0 0.10720916E+03 -.52487959E+02 0.87764831E+02 0.17397329E+03 0.91188000E+02 0.0000E+00 0.9000E+01
#aMCatNLO 1  0  0  2  2 0.23091544D+03 0.00000000D+00  -5  7  0 0.00000000D+00 0.00000000D+00 0.00000000D+00 0.00000000D+00 0.00000000D+00
  <mgrwgt>
 0.3143259800D-03    5    2    0
 0.266973347529459D+03 0.000000000000000D+00 0.000000000000000D+00 0.266973347529459D+03
 0.266973347529459D+03 0.000000000000000D+00 0.000000000000000D+00 -.266973347529459D+03
 0.162454139022354D+03 -.426742195384159D+02 0.122639112217542D+03 -.348519021399769D+02
 0.289879589964777D+02 -.140589250220475D+02 0.219396204616522D+02 0.127004507008441D+02
 0.161643458408056D+03 -.504760195289267D+02 -.920907802689123D+02 0.122882331065517D+03
 0.180861138632031D+03 0.107209164089390D+03 -.524879524102817D+02 -.100730879626384D+03
 0.000000000000000D+00 0.000000000000000D+00 0.000000000000000D+00 -.000000000000000D+00
 0.404230282502191D+03 0.000000000000000D+00 0.000000000000000D+00 0.404230282502191D+03
 0.408463602079732D+03 0.000000000000000D+00 0.000000000000000D+00 -.408463602079732D+03
 0.177607410587380D+03 -.109396155223813D+03 0.100234560362318D+03 -.348519021399769D+02
 0.343261043693833D+02 -.264814904921109D+02 0.177682484924503D+02 0.127004507008441D+02
 0.209483444898699D+03 -.123293147492885D+03 -.116542036106414D+03 0.122882331065517D+03
 0.160322684151442D+03 0.402670322700708D+02 -.749664439024499D+02 -.100730879626384D+03
 0.230954240575019D+03 0.218903760938738D+03 0.735056711540961D+02 -.423331957754070D+01
0.175704708165D-05 0.000000000000D+00 0.000000000000D+00 0.287141285859D-07 0.000000000000D+00  7 2 -2 23 -13 13 23 21 0 0.13416059D+00 0.12574309D-01 0.48391082D+05 0.48391082D+05 0.48391082D+05 0.11485469D+01  1  2  2  2  7  2       -2 0.284168173175D-03 0.100000000000D+01
-.931647173209D-07 0.000000000000D+00 -.674752343466D-08 0.287141285859D-07 0.000000000000D+00  7 2 -2 23 -13 13 23 21 2 0.13416059D+00 0.12574309D-01 0.48391082D+05 0.48391082D+05 0.48391082D+05 0.11485469D+01  1  2  3  2  7  2       -2 -.198765494140D-04 0.100000000000D+01
0.111292803304D-06 0.000000000000D+00 0.000000000000D+00 0.287141285859D-07 0.000000000000D+00  7 2 -2 23 -13 13 23 21 2 0.13416059D+00 0.12574309D-01 0.48391082D+05 0.48391082D+05 0.48391082D+05 0.11485469D+01  1  2 15  2  7  2       -2 0.237441487283D-04 0.100000000000D+01
0.373287907173D-07 0.000000000000D+00 -.537512388261D-06 0.287141285859D-07 0.000000000000D+00  7 2 -2 23 -13 13 23 21 2 0.13416059D+00 0.29324815D-01 0.48391082D+05 0.48391082D+05 0.48391082D+05 0.11485469D+01  1  2  5  2  7  2       -2 0.199424876833D-05 0.100000000000D+01
0.374130197562D-07 0.000000000000D+00 -.496135464881D-07 0.287141285859D-07 0.000000000000D+00  7 2 21 23 -13 13 23 2 2 0.13416059D+00 0.29324815D-01 0.48391082D+05 0.48391082D+05 0.48391082D+05 0.11485469D+01  1  2  5  4  7  2       -2 0.242959587464D-04 0.100000000000D+01
  </mgrwgt>
  </event>
  <event>
  8     66 0.25765000E-05 0.24542110E+03 0.75467711E-02 0.85823430E-01
        2 -1    0    0  501    0 0.00000000E+00 0.00000000E+00 0.57904286E+03 0.57904295E+03 0.32000000E+00 0.0000E+00 0.9000E+01
       -2 -1    0    0    0  501 0.00000000E+00 0.00000000E+00 -.14583240E+03 0.14583275E+03 0.32000000E+00 0.0000E+00 0.9000E+01
       25  2    1    2    0    0 0.13572084E+03 0.13441947E+03 0.34427420E+03 0.49477132E+03 0.29964177E+03 0.0000E+00 0.0000E+00
       23  2    1    2    0    0 -.13572084E+03 -.13441947E+03 0.88936259E+02 0.23010438E+03 0.92464202E+02 0.0000E+00 0.0000E+00
       23  1    3    3    0    0 0.11405689E+03 0.13503443E+03 0.34815614E+03 0.40096287E+03 0.91188000E+02 0.0000E+00 0.9000E+01
      -13  1    4    4    0    0 -.35070753E+02 -.71184718E+02 0.77114623E+02 0.11065215E+03 0.10565837E+00 0.0000E+00 0.9000E+01
       13  1    4    4    0    0 -.10065009E+03 -.63234751E+02 0.11821636E+02 0.11945223E+03 0.10565837E+00 0.0000E+00 0.9000E+01
       23  1    3    3    0    0 0.21663947E+02 -.61495836E+00 -.38819410E+01 0.93808452E+02 0.91188000E+02 0.0000E+00 0.9000E+01
#aMCatNLO 1  0  0  2  1 0.11292684D+04 0.00000000D+00  -5  7  0 0.00000000D+00 0.00000000D+00 0.00000000D+00 0.00000000D+00 0.00000000D+00
  <mgrwgt>
 0.2450328262D-03    3    2    0
 0.290591415428977D+03 0.000000000000000D+00 0.000000000000000D+00 0.290591415428977D+03
 0.290591415428977D+03 0.000000000000000D+00 0.000000000000000D+00 -.290591415428977D+03
 0.240584120493838D+03 0.114056896207538D+03 0.135034428742952D+03 0.135359503439400D+03
 0.805291284161827D+02 -.350706696481081D+02 -.711847263695237D+02 0.137012183983523D+02
 0.140174153496822D+03 -.100650174045864D+03 -.632347446570034D+02 -.742947026459593D+02
 0.119895428451111D+03 0.216639474864335D+02 -.614957716425216D+00 -.747660191917926D+02
 0.000000000000000D+00 -.000000000000000D+00 -.000000000000000D+00 0.000000000000000D+00
 0.239020506062881D+04 0.000000000000000D+00 0.000000000000000D+00 0.239020506062881D+04
 0.816664110773818D+03 0.000000000000000D+00 0.000000000000000D+00 -.816664110773818D+03
 0.804832820777012D+03 0.164507205580153D+03 0.770750155495754D+03 0.135359503439400D+03
 0.327056622035765D+02 -.296061224488199D+02 -.232690096922585D+01 0.137012183983523D+02
 0.168364895988105D+03 -.857605258246240D+02 0.124387168028370D+03 -.742947026459593D+02
 0.264144104905318D+03 0.401971398465972D+02 0.232918632003963D+03 -.747660191917926D+02
 0.193682168752861D+04 -.893376971533067D+02 -.112572905455886D+04 0.157354094985499D+04
0.232124614772D-05 0.000000000000D+00 0.000000000000D+00 0.116754128362D-06 0.000000000000D+00  7 2 -2 23 -13 13 23 21 0 0.89083551D-01 0.22435788D-01 0.60231517D+05 0.60231517D+05 0.60231517D+05 0.11402507D+01  1  2  2  2  7  2       -2 0.241782422562D-03 0.100000000000D+01
-.124482954569D-06 0.000000000000D+00 -.891419640541D-08 0.116754128362D-06 0.000000000000D+00  7 2 -2 23 -13 13 23 21 2 0.89083551D-01 0.22435788D-01 0.60231517D+05 0.60231517D+05 0.60231517D+05 0.11402507D+01  1  2  3  2  7  2       -2 -.168583133554D-04 0.100000000000D+01
0.148484160218D-06 0.000000000000D+00 0.000000000000D+00 0.116754128362D-06 0.000000000000D+00  7 2 -2 23 -13 13 23 21 2 0.89083551D-01 0.22435788D-01 0.60231517D+05 0.60231517D+05 0.60231517D+05 0.11402507D+01  1  2 15  2  7  2       -2 0.201087169721D-04 0.100000000000D+01
  </mgrwgt>
  </event>
  <event>
  8     66 0.25765000E-05 0.30661869E+03 0.75467711E-02 0.98344357E-01
        2 -1    0    0  501    0 0.00000000E+00 0.00000000E+00 0.49895105E+03 0.49895115E+03 0.32000000E+00 0.0000E+00 0.9000E+01
       -2 -1    0    0    0  501 0.00000000E+00 0.00000000E+00 -.28313272E+03 0.28313291E+03 0.32000000E+00 0.0000E+00 0.9000E+01
       25  2    1    2    0    0 -.27987631E+03 -.12389857E+03 0.15535396E+03 0.45630133E+03 0.30065669E+03 0.0000E+00 0.0000E+00
       23  2    1    2    0    0 0.27987631E+03 0.12389857E+03 0.60464362E+02 0.32578272E+03 0.93791453E+02 0.0000E+00 0.0000E+00
       23  1    3    3    0    0 -.16985351E+03 0.35580755E+02 0.76927815E+01 0.19619030E+03 0.91188000E+02 0.0000E+00 0.9000E+01
      -11  1    4    4    0    0 0.67820762E+02 0.74458812E+02 0.38004965E+01 0.10078797E+03 0.51099893E-03 0.0000E+00 0.9000E+01
       11  1    4    4    0    0 0.21205555E+03 0.49439759E+02 0.56663866E+02 0.22499476E+03 0.51099893E-03 0.0000E+00 0.9000E+01
       23  1    3    3    0    0 -.11002280E+03 -.15947933E+03 0.14766118E+03 0.26011103E+03 0.91188000E+02 0.0000E+00 0.9000E+01
#aMCatNLO 1  0  0  2  1 0.94460187D+00 0.00000000D+00  -5  7  0 0.00000000D+00 0.00000000D+00 0.00000000D+00 0.00000000D+00 0.00000000D+00
  <mgrwgt>
 0.4485563453D-04    7    2    0
 0.375858325354146D+03 0.000000000000000D+00 0.000000000000000D+00 0.375858325354146D+03
 0.375858325354146D+03 0.000000000000000D+00 0.000000000000000D+00 -.375858325354146D+03
 0.201907281404150D+03 -.169853509966241D+03 0.355807548781574D+02 -.483228100845082D+02
 0.103768414534023D+03 0.678207623441413D+02 0.744588116316111D+02 -.249822621147994D+02
 0.217815730054015D+03 0.212055551224140D+03 0.494397590911972D+02 -.564319723152965D+01
 0.228225224716104D+03 -.110022803602041D+03 -.159479325600966D+03 0.789482694308373D+02
 0.000000000000000D+00 0.000000000000000D+00 -.000000000000000D+00 0.000000000000000D+00
 0.376451114668803D+03 0.000000000000000D+00 0.000000000000000D+00 0.376451114668803D+03
 0.376235113185304D+03 0.000000000000000D+00 0.000000000000000D+00 -.376235113185304D+03
 0.202051268934744D+03 -.169978237333768D+03 0.358017987338896D+02 -.483228100845082D+02
 0.103808102310240D+03 0.677566704404427D+02 0.745723963387654D+02 -.249822621147994D+02
 0.217739058584704D+03 0.211921068114040D+03 0.496780922315221D+02 -.564319723152965D+01
 0.228118814368406D+03 -.110163705659032D+03 -.159229616699260D+03 0.789482694308373D+02
 0.968983656013413D+00 0.464204438317121D+00 -.822670604916872D+00 0.216001483498412D+00
0.107225383327D-05 0.000000000000D+00 0.000000000000D+00 0.229168328302D-07 0.000000000000D+00  7 2 -2 23 -11 11 23 21 0 0.76761722D-01 0.43558902D-01 0.13272674D+06 0.13272674D+06 0.13272674D+06 0.11117694D+01  1  2  2  2  7  2       -2 0.405464509353D-04 0.100000000000D+01
-.594992053541D-07 0.000000000000D+00 -.411773705068D-08 0.229168328302D-07 0.000000000000D+00  7 2 -2 23 -11 11 23 21 2 0.76761722D-01 0.43558902D-01 0.13272674D+06 0.13272674D+06 0.13272674D+06 0.11117694D+01  1  2  3  2  7  2       -2 -.278096699769D-05 0.100000000000D+01
0.673616884750D-07 0.000000000000D+00 0.000000000000D+00 0.229168328302D-07 0.000000000000D+00  7 2 -2 23 -11 11 23 21 2 0.76761722D-01 0.43558902D-01 0.13272674D+06 0.13272674D+06 0.13272674D+06 0.11117694D+01  1  2 15  2  7  2       -2 0.314845604143D-05 0.100000000000D+01
-.374488376478D-04 0.000000000000D+00 0.000000000000D+00 0.229168328302D-07 0.000000000000D+00  7 2 -2 23 -11 11 23 21 2 0.76761722D-01 0.43558902D-01 0.13272674D+06 0.13272674D+06 0.13272674D+06 0.11117694D+01  1  2  4  2  7  2       -2 -.175034239501D-02 0.100000000000D+01
0.374490738086D-04 0.000000000000D+00 0.000000000000D+00 0.229168328302D-07 0.169284726647D-06  7 2 -2 23 -11 11 23 21 2 0.76882787D-01 0.43602569D-01 0.13307076D+06 0.13307076D+06 0.13307076D+06 0.11116796D+01  1  2 11  2  7  2       -2 0.174359919151D-02 0.100000000000D+01
0.120963365515D-12 0.000000000000D+00 0.000000000000D+00 0.229168328302D-07 0.000000000000D+00  7 2 21 23 -11 11 23 2 2 0.76761722D-01 0.43636875D-01 0.13307076D+06 0.13307076D+06 0.13307076D+06 0.11116796D+01  1  2 12  4  7  2       -2 0.617023011730D-10 0.100000000000D+01
0.209494888729D-07 0.000000000000D+00 0.000000000000D+00 0.229168328302D-07 0.318586470410D-10  7 2 21 23 -11 11 23 2 2 0.76882787D-01 0.43602569D-01 0.13307076D+06 0.13307076D+06 0.13307076D+06 0.11116796D+01  1  2 11  4  7  2       -2 0.106848363402D-04 0.100000000000D+01
  </mgrwgt>
  </event>
  <event>
  8     66 0.25765000E-05 0.33568134E+03 0.75467711E-02 0.93095324E-01
        2 -1    0    0  501    0 0.00000000E+00 0.00000000E+00 0.15432151E+04 0.15432151E+04 0.32000000E+00 0.0000E+00 0.9000E+01
       -2 -1    0    0    0  501 0.00000000E+00 0.00000000E+00 -.14222138E+03 0.14222174E+03 0.32000000E+00 0.0000E+00 0.9000E+01
       25  2    1    2    0    0 0.23105394E+03 -.15505562E+03 0.21163611E+03 0.46041368E+03 0.29960431E+03 0.0000E+00 0.0000E+00
       23  2    1    2    0    0 -.23105394E+03 0.15505562E+03 0.11893576E+04 0.12250232E+04 0.93177977E+02 0.0000E+00 0.0000E+00
       23  1    3    3    0    0 0.13293758E+03 -.18406993E+03 0.52239398E+02 0.25019661E+03 0.91188000E+02 0.0000E+00 0.9000E+01
      -11  1    4    4    0    0 -.23463877E+03 0.13803004E+03 0.10555324E+04 0.10900717E+04 0.51099893E-03 0.0000E+00 0.9000E+01
       11  1    4    4    0    0 0.35848353E+01 0.17025574E+02 0.13382519E+03 0.13495148E+03 0.51099893E-03 0.0000E+00 0.9000E+01
       23  1    3    3    0    0 0.98116362E+02 0.29014315E+02 0.15939671E+03 0.21021706E+03 0.91188000E+02 0.0000E+00 0.9000E+01
#aMCatNLO 1  0  0  2  1 0.38333806D+03 0.00000000D+00  -5  7  0 0.00000000D+00 0.00000000D+00 0.00000000D+00 0.00000000D+00 0.00000000D+00
  <mgrwgt>
 0.2964764467D-03    5    2    0
 0.468485337160223D+03 0.000000000000000D+00 0.000000000000000D+00 0.468485337160223D+03
 0.468485337160223D+03 0.000000000000000D+00 0.000000000000000D+00 -.468485337160223D+03
 0.371947103105283D+03 0.132937577021858D+03 -.184069931606832D+03 -.280134355369394D+03
 0.382565617362989D+03 -.234638774045239D+03 0.138030042760270D+03 0.268791377463024D+03
 0.426522991747076D+02 0.358483529782638D+01 0.170255737460231D+02 0.389422318234965D+02
 0.139805654677467D+03 0.981163617255544D+02 0.290143151005385D+02 -.275992539171267D+02
 0.000000000000000D+00 -.000000000000000D+00 -.000000000000000D+00 -.000000000000000D+00
 0.585005406010843D+03 0.000000000000000D+00 0.000000000000000D+00 0.585005406010843D+03
 0.972217349608684D+03 0.000000000000000D+00 0.000000000000000D+00 -.972217349608684D+03
 0.381878942497214D+03 0.231617621747696D+03 -.734458686142791D+02 -.280134355369394D+03
 0.391584236906221D+03 -.133298229115235D+03 0.251636627122721D+03 0.268791377463024D+03
 0.522582268441316D+02 0.160091538884719D+02 0.309537048715173D+02 0.389422318234965D+02
 0.186633330578959D+03 0.140849050325635D+03 0.769192755073779D+02 -.275992539171267D+02
 0.544868018793000D+03 -.255177596846567D+03 -.286063738887337D+03 -.387211943597841D+03
0.112735738642D-04 0.000000000000D+00 0.000000000000D+00 0.317231975199D-06 0.000000000000D+00  7 2 -2 23 -11 11 23 21 0 0.23741774D+00 0.21880242D-01 0.11268196D+06 0.11268196D+06 0.11268196D+06 0.11174915D+01  1  2  2  2  7  2       -2 0.305160145305D-03 0.100000000000D+01
-.541693766478D-06 0.000000000000D+00 -.432934920387D-07 0.317231975199D-06 0.000000000000D+00  7 2 -2 23 -11 11 23 21 2 0.23741774D+00 0.21880242D-01 0.11268196D+06 0.11268196D+06 0.11268196D+06 0.11174915D+01  1  2  3  2  7  2       -2 -.183108484465D-04 0.100000000000D+01
0.711058172423D-06 0.000000000000D+00 0.000000000000D+00 0.317231975199D-06 0.000000000000D+00  7 2 -2 23 -11 11 23 21 2 0.23741774D+00 0.21880242D-01 0.11268196D+06 0.11268196D+06 0.11268196D+06 0.11174915D+01  1  2 15  2  7  2       -2 0.240358653498D-04 0.100000000000D+01
-.217971281518D-05 0.000000000000D+00 -.342361940224D-05 0.317231975199D-06 0.000000000000D+00  7 2 -2 23 -11 11 23 21 2 0.23741774D+00 0.56229365D-01 0.11268196D+06 0.11268196D+06 0.11268196D+06 0.11174915D+01  1  2  5  2  7  2       -2 -.131721904706D-04 0.100000000000D+01
-.194740666787D-07 0.000000000000D+00 -.357316723330D-06 0.317231975199D-06 0.000000000000D+00  7 2 21 23 -11 11 23 2 2 0.23741774D+00 0.56229365D-01 0.11268196D+06 0.11268196D+06 0.11268196D+06 0.11174915D+01  1  2  5  4  7  2       -2 -.123652502411D-05 0.100000000000D+01
  </mgrwgt>
  </event>
  <event>
  7     66 0.25765000E-05 0.13395717E+03 0.75467711E-02 0.10151442E+00
        4 -1    0    0  501    0 0.00000000E+00 0.00000000E+00 0.11523340E+03 0.11524382E+03 0.15500000E+01 0.0000E+00 0.9000E+01
       -4 -1    0    0    0  501 0.00000000E+00 0.00000000E+00 -.89881748E+03 0.89881882E+03 0.15500000E+01 0.0000E+00 0.9000E+01
       23  2    1    2    0    0 -.27214238E+01 0.18297410E+03 -.51800482E+03 0.55697962E+03 0.91708101E+02 0.0000E+00 0.0000E+00
       23  1    1    2    0    0 -.69011103E+02 -.16024910E+03 -.27531097E+03 0.33845781E+03 0.91188000E+02 0.0000E+00 0.9000E+01
      -13  1    3    3    0    0 0.39915681E+02 0.13363481E+03 -.35041056E+03 0.37714599E+03 0.10565837E+00 0.0000E+00 0.9000E+01
       13  1    3    3    0    0 -.42637105E+02 0.49339293E+02 -.16759426E+03 0.17983364E+03 0.10565837E+00 0.0000E+00 0.9000E+01
       23  1    1    2    0    0 0.71732527E+02 -.22725002E+02 0.97317159E+01 0.11862520E+03 0.91188000E+02 0.0000E+00 0.9000E+01
#aMCatNLO 1  0  0  2  1 0.48383039D+02 0.00000000D+00  -5  7  0 0.00000000D+00 0.00000000D+00 0.00000000D+00 0.00000000D+00 0.00000000D+00
  <mgrwgt>
 0.2935090918D-04    6    2    0
 0.321838088921684D+03 0.000000000000000D+00 0.000000000000000D+00 0.321838088921684D+03
 0.321838088921684D+03 0.000000000000000D+00 0.000000000000000D+00 -.321838088921684D+03
 0.198062518901754D+03 -.690111030310677D+02 -.160249101085032D+03 -.217072179143785D+02
 0.167589849081899D+03 0.399157893173413D+02 0.133634920971108D+03 -.929235985932164D+02
 0.792918876238158D+02 -.426372131662563D+02 0.493391820059030D+02 -.451100500482036D+02
 0.198731922235899D+03 0.717325268799827D+02 -.227250018919786D+02 0.159740866555798D+03
 0.000000000000000D+00 0.000000000000000D+00 0.000000000000000D+00 0.000000000000000D+00
 0.349329054458109D+03 0.000000000000000D+00 0.000000000000000D+00 0.349329054458109D+03
 0.344761150623461D+03 0.000000000000000D+00 0.000000000000000D+00 -.344761150623461D+03
 0.211398678449477D+03 -.717517284948889D+02 -.175369997589665D+03 -.217072179143785D+02
 0.157643673450359D+03 0.377389205949662D+02 0.121624448511543D+03 -.929235985932164D+02
 0.764379310101548D+02 -.436795515103667D+02 0.435882720650288D+02 -.451100500482036D+02
 0.200011731245774D+03 0.690636365984659D+02 -.374501127331981D+02 0.159740866555798D+03
 0.485981909258059D+02 0.862872281182343D+01 0.476073897462905D+02 0.456790383464788D+01
0.106758539557D-04 0.000000000000D+00 0.000000000000D+00 0.276696293510D-09 0.000000000000D+00  7 4 -4 23 -13 13 23 21 0 0.17729120D-01 0.13828052D+00 0.67541034D+05 0.67541034D+05 0.67541034D+05 0.11359822D+01  1  2  2  2  7  2       -4 0.207197515955D-04 0.100000000000D+01
-.560138961697D-06 0.000000000000D+00 -.409980902067D-07 0.276696293510D-09 0.000000000000D+00  7 4 -4 23 -13 13 23 21 2 0.17729120D-01 0.13828052D+00 0.67541034D+05 0.67541034D+05 0.67541034D+05 0.11359822D+01  1  2  3  2  7  2       -4 -.140288080364D-05 0.100000000000D+01
0.659853729985D-06 0.000000000000D+00 0.000000000000D+00 0.276696293510D-09 0.000000000000D+00  7 4 -4 23 -13 13 23 21 2 0.17729120D-01 0.13828052D+00 0.67541034D+05 0.67541034D+05 0.67541034D+05 0.11359822D+01  1  2 15  2  7  2       -4 0.165261871483D-05 0.100000000000D+01
0.114367115208D-04 0.000000000000D+00 0.000000000000D+00 0.276696293510D-09 0.000000000000D+00  7 4 -4 23 -13 13 23 21 2 0.17729120D-01 0.15359615D+00 0.80679047D+05 0.80679047D+05 0.80679047D+05 0.11294547D+01  1  2 12  2  7  2       -4 0.203477359499D-04 0.100000000000D+01
-.842728539969D-05 0.000000000000D+00 0.000000000000D+00 0.276696293510D-09 0.000000000000D+00  7 4 -4 23 -13 13 23 21 2 0.17729120D-01 0.13828052D+00 0.67541034D+05 0.67541034D+05 0.67541034D+05 0.11359822D+01  1  2  4  2  7  2       -4 -.211063284693D-04 0.100000000000D+01
0.193794494466D-06 0.000000000000D+00 0.000000000000D+00 0.276696293510D-09 0.000000000000D+00  7 4 21 23 -13 13 23 4 2 0.17729120D-01 0.15359615D+00 0.80679047D+05 0.80679047D+05 0.80679047D+05 0.11294547D+01  1  2 12  4  7  2       -4 0.914001219126D-05 0.100000000000D+01
  </mgrwgt>
  </event>
  <event>
  8     66 0.25765000E-05 0.32680098E+03 0.75467711E-02 0.79812527E-01
        4 -1    0    0  501    0 0.00000000E+00 0.00000000E+00 0.59345221E+03 0.59345423E+03 0.15500000E+01 0.0000E+00 0.9000E+01
       -4 -1    0    0    0  501 0.00000000E+00 0.00000000E+00 -.18091965E+03 0.18092629E+03 0.15500000E+01 0.0000E+00 0.9000E+01
       25  2    1    2    0    0 0.11939258E+02 -.24884737E+03 0.26167803E+03 0.46964870E+03 0.30004491E+03 0.0000E+00 0.0000E+00
       23  2    1    2    0    0 -.11939258E+02 0.24884737E+03 0.15085452E+03 0.30473182E+03 0.89648421E+02 0.0000E+00 0.0000E+00
       23  1    3    3    0    0 0.12516150E+03 -.12645086E+03 0.13143511E+03 0.23926065E+03 0.91188000E+02 0.0000E+00 0.9000E+01
      -11  1    4    4    0    0 -.35507428E+02 0.40097902E+02 0.19653368E+02 0.57051504E+02 0.51099893E-03 0.0000E+00 0.9000E+01
       11  1    4    4    0    0 0.23568170E+02 0.20874947E+03 0.13120115E+03 0.24768032E+03 0.51099893E-03 0.0000E+00 0.9000E+01
       23  1    3    3    0    0 -.11322224E+03 -.12239650E+03 0.13024292E+03 0.23038804E+03 0.91188000E+02 0.0000E+00 0.9000E+01
#aMCatNLO 1  0  0  1  1 0.23186303D+04 0.00000000D+00  -5  7  0 0.00000000D+00 0.00000000D+00 0.00000000D+00 0.00000000D+00 0.00000000D+00
  <mgrwgt>
 0.9755553924D-05    3    2    0
 0.327674411524508D+03 0.000000000000000D+00 0.000000000000000D+00 0.327674411524508D+03
 0.327674411524508D+03 0.000000000000000D+00 0.000000000000000D+00 -.327674411524508D+03
 0.199981327059047D+03 0.125161495855985D+03 -.126450862935746D+03 0.469670588766529D+01
 0.550423189588746D+02 -.355074283316698D+02 0.400979018834063D+02 -.126900620246928D+02
 0.210077538726577D+03 0.235681703775905D+02 0.208749466034136D+03 -.879802780260306D+00
 0.190247638304517D+03 -.113222237901905D+03 -.122396504981797D+03 0.887315891728785D+01
 0.000000000000000D+00 0.000000000000000D+00 0.000000000000000D+00 -.000000000000000D+00
 0.178317467835936D+04 0.000000000000000D+00 0.000000000000000D+00 0.178317467835936D+04
 0.352823824112538D+04 0.000000000000000D+00 0.000000000000000D+00 -.352823824112538D+04
 0.102462322280919D+04 -.159992654360599D+03 -.100792747203375D+04 0.469670588766529D+01
 0.106056340871561D+03 -.730199065026198D+02 -.758617361996342D+02 -.126900620246928D+02
 0.440061472977661D+02 -.355962493364832D+02 0.258587312185927D+02 -.879802780260306D+00
 0.123478073712532D+04 -.445045891075443D+03 -.114813920729128D+04 0.887315891728785D+01
 0.290194647138090D+04 0.713654701275144D+03 0.220606968430607D+04 -.174506356276602D+04
0.346415044122D-05 0.000000000000D+00 0.000000000000D+00 0.121398013218D-06 0.000000000000D+00  7 4 -4 23 -11 11 23 21 0 0.91301006D-01 0.27834459D-01 0.10679888D+06 0.10679888D+06 0.10679888D+06 0.11193853D+01  1  2  2  1  7  1        4 0.965543414339D-05 0.100000000000D+01
-.192451135281D-06 0.000000000000D+00 -.133032498261D-07 0.121398013218D-06 0.000000000000D+00  7 4 -4 23 -11 11 23 21 2 0.91301006D-01 0.27834459D-01 0.10679888D+06 0.10679888D+06 0.10679888D+06 0.11193853D+01  1  2  3  1  7  1        4 -.672132289543D-06 0.100000000000D+01
0.221118356996D-06 0.000000000000D+00 0.000000000000D+00 0.121398013218D-06 0.000000000000D+00  7 4 -4 23 -11 11 23 21 2 0.91301006D-01 0.27834459D-01 0.10679888D+06 0.10679888D+06 0.10679888D+06 0.11193853D+01  1  2 15  1  7  1        4 0.772252069756D-06 0.100000000000D+01
  </mgrwgt>
  </event>
  <event>
  8     66 0.25765000E-05 0.16920140E+03 0.75467711E-02 0.10428020E+00
        2 -1    0    0  501    0 0.00000000E+00 0.00000000E+00 0.40155423E+03 0.40155436E+03 0.32000000E+00 0.0000E+00 0.9000E+01
       -2 -1    0    0    0  501 0.00000000E+00 0.00000000E+00 -.25916517E+03 0.25916536E+03 0.32000000E+00 0.0000E+00 0.9000E+01
       25  2    1    2    0    0 -.87627522E+01 -.77409356E+01 0.33457480E+03 0.45016932E+03 0.30095749E+03 0.0000E+00 0.0000E+00
       23  2    1    2    0    0 0.87627522E+01 0.77409356E+01 -.19218574E+03 0.21055040E+03 0.85202145E+02 0.0000E+00 0.0000E+00
       23  1    3    3    0    0 0.10409195E+03 -.20908051E+01 0.23949148E+03 0.27660608E+03 0.91188000E+02 0.0000E+00 0.9000E+01
      -11  1    4    4    0    0 0.30927422E+02 0.10042751E+02 -.22821223E+02 0.39726194E+02 0.51099893E-03 0.0000E+00 0.9000E+01
       11  1    4    4    0    0 -.22164669E+02 -.23018150E+01 -.16936451E+03 0.17082420E+03 0.51099893E-03 0.0000E+00 0.9000E+01
       23  1    3    3    0    0 -.11285470E+03 -.56501305E+01 0.95083324E+02 0.17356324E+03 0.91188000E+02 0.0000E+00 0.9000E+01
#aMCatNLO 1  0  0  1  1 0.99555502D+02 0.00000000D+00  -5  7  0 0.00000000D+00 0.00000000D+00 0.00000000D+00 0.00000000D+00 0.00000000D+00
  <mgrwgt>
 0.5089057873D-03    4    2    0
 0.322597235679886D+03 0.000000000000000D+00 0.000000000000000D+00 0.322597235679886D+03
 0.322597235679886D+03 0.000000000000000D+00 0.000000000000000D+00 -.322597235679886D+03
 0.230408246825314D+03 0.104091952633321D+03 -.209080507660608D+01 0.184209670734815D+03
 0.457185761533454D+02 0.309274216322187D+02 0.100427506170754D+02 -.321376096920018D+02
 0.212312073908188D+03 -.221646694547623D+02 -.230181500352196D+01 -.211139398982867D+03
 0.156755574472925D+03 -.112854704810777D+03 -.565013053694734D+01 0.590673379400538D+02
 0.000000000000000D+00 -.000000000000000D+00 0.000000000000000D+00 -.000000000000000D+00
 0.338985798958971D+03 0.000000000000000D+00 0.000000000000000D+00 0.338985798958971D+03
 0.523525792689022D+03 0.000000000000000D+00 0.000000000000000D+00 -.523525792689022D+03
 0.237278668105749D+03 0.112646137912179D+03 -.369264108095995D+02 0.184209670734815D+03
 0.458927674677797D+02 0.326030306389316D+02 0.321909028968371D+01 -.321376096920018D+02
 0.214354052291076D+03 -.143607712074504D+02 -.340819920351843D+02 -.211139398982867D+03
 0.155304661445484D+03 -.107146995249128D+03 -.288939010944387D+02 0.590673379400538D+02
 0.209681442337904D+03 -.237414020945324D+02 0.966832136495388D+02 -.184539993730051D+03
0.926731553890D-05 0.000000000000D+00 0.000000000000D+00 0.690402996282D-08 0.000000000000D+00  7 2 -2 23 -11 11 23 21 0 0.61777599D-01 0.39871589D-01 0.28629113D+05 0.28629113D+05 0.28629113D+05 0.11692253D+01  1  2  2  1  7  1        2 0.530480609055D-03 0.100000000000D+01
-.254171694091D-06 0.000000000000D+00 -.355889318096D-07 0.690402996282D-08 0.000000000000D+00  7 2 -2 23 -11 11 23 21 2 0.61777599D-01 0.39871589D-01 0.28629113D+05 0.28629113D+05 0.28629113D+05 0.11692253D+01  1  2  3  1  7  1        2 -.198902011603D-04 0.100000000000D+01
0.557790532318D-06 0.000000000000D+00 0.000000000000D+00 0.690402996282D-08 0.000000000000D+00  7 2 -2 23 -11 11 23 21 2 0.61777599D-01 0.39871589D-01 0.28629113D+05 0.28629113D+05 0.28629113D+05 0.11692253D+01  1  2 15  1  7  1        2 0.436498876587D-04 0.100000000000D+01
-.579317859550D-06 0.000000000000D+00 0.000000000000D+00 0.690402996282D-08 0.000000000000D+00  7 2 -2 23 -11 11 23 21 2 0.61777599D-01 0.39871589D-01 0.28629113D+05 0.28629113D+05 0.28629113D+05 0.11692253D+01  1  2  4  1  7  1        2 -.453345082480D-04 0.100000000000D+01
  </mgrwgt>
  </event>
  <event>
  8     66 0.25765000E-05 0.65261095E+02 0.75467711E-02 0.10880287E+00
        2 -1    0    0  501    0 0.00000000E+00 0.00000000E+00 0.36446841E+04 0.36446841E+04 0.32000000E+00 0.0000E+00 0.9000E+01
       -2 -1    0    0    0  501 0.00000000E+00 0.00000000E+00 -.14750799E+02 0.14754270E+02 0.32000000E+00 0.0000E+00 0.9000E+01
       25  2    1    2    0    0 0.60074251E+02 -.61009084E+02 0.19442678E+04 0.19691401E+04 0.30000771E+03 0.0000E+00 0.0000E+00
       23  2    1    2    0    0 -.60074251E+02 0.61009084E+02 0.16856655E+04 0.16902982E+04 0.91153242E+02 0.0000E+00 0.0000E+00
       23  1    3    3    0    0 0.85004617E+02 -.65592790E+02 0.44223639E+03 0.46412980E+03 0.91188000E+02 0.0000E+00 0.9000E+01
      -11  1    4    4    0    0 -.59367495E+02 0.67698223E+02 0.87804920E+03 0.88265392E+03 0.51099893E-03 0.0000E+00 0.9000E+01
       11  1    4    4    0    0 -.70675533E+00 -.66891389E+01 0.80761629E+03 0.80764430E+03 0.51099893E-03 0.0000E+00 0.9000E+01
       23  1    3    3    0    0 -.24930366E+02 0.45837063E+01 0.15020314E+04 0.15050103E+04 0.91188000E+02 0.0000E+00 0.9000E+01
#aMCatNLO 1  0  0  1  2 0.60805269D+01 0.00000000D+00  -5  7  0 0.00000000D+00 0.00000000D+00 0.00000000D+00 0.00000000D+00 0.00000000D+00
  <mgrwgt>
 0.6513363180D-03   11    2    0
 0.231880094642814D+03 0.000000000000000D+00 0.000000000000000D+00 0.231880094642814D+03
 0.231880094642814D+03 0.000000000000000D+00 0.000000000000000D+00 -.231880094642814D+03
 0.200892234128692D+03 0.850046168503328D+02 -.655927902466573D+02 -.143227928041298D+03
 0.921976760380186D+02 -.593674954847866D+02 0.676982227977652D+02 0.198207612542865D+02
 0.516027216510078D+02 -.706755334885639D+00 -.668913885781938D+01 0.511624549843810D+02
 0.119067557467910D+03 -.249303660306606D+02 0.458370630671142D+01 0.722447118026304D+02
 0.000000000000000D+00 -.000000000000000D+00 -.000000000000000D+00 0.000000000000000D+00
 0.240681409837309D+03 0.000000000000000D+00 0.000000000000000D+00 0.240681409837309D+03
 0.232952615211783D+03 0.000000000000000D+00 0.000000000000000D+00 -.232952615211783D+03
 0.201249481008004D+03 0.870714599992826D+02 -.639564206673663D+02 -.143227928041298D+03
 0.921462954747380D+02 -.584200432304443D+02 0.684483436028317D+02 0.198207612542865D+02
 0.515454513593587D+02 -.176616116076427D+00 -.626941484978845D+01 0.511624549843810D+02
 0.118858821719947D+03 -.237075222214535D+02 0.555186124900959D+01 0.722447118026304D+02
 0.983397548704471D+01 -.476727843130845D+01 -.377436933468651D+01 0.772879462552575D+01
0.268201097703D-05 0.000000000000D+00 0.000000000000D+00 0.206268842948D-06 0.000000000000D+00  7 2 -2 23 -11 11 23 21 0 0.56072089D+00 0.22696218D-02 0.27602609D+05 0.27602609D+05 0.27602609D+05 0.11707069D+01  1  2  2  1  7  1        2 0.137659077057D-03 0.100000000000D+01
-.128864828817D-06 0.000000000000D+00 -.102996283415D-07 0.206268842948D-06 0.000000000000D+00  7 2 -2 23 -11 11 23 21 2 0.56072089D+00 0.22696218D-02 0.27602609D+05 0.27602609D+05 0.27602609D+05 0.11707069D+01  1  2  3  1  7  1        2 -.906515102800D-05 0.100000000000D+01
0.169779344721D-06 0.000000000000D+00 0.000000000000D+00 0.206268842948D-06 0.000000000000D+00  7 2 -2 23 -11 11 23 21 2 0.56072089D+00 0.22696218D-02 0.27602609D+05 0.27602609D+05 0.27602609D+05 0.11707069D+01  1  2 15  1  7  1        2 0.119433317490D-04 0.100000000000D+01
0.563155953985D-05 0.000000000000D+00 0.000000000000D+00 0.206268842948D-06 0.000000000000D+00  7 2 -2 23 -11 11 23 21 2 0.58327176D+00 0.22696218D-02 0.28577967D+05 0.28577967D+05 0.28577967D+05 0.11692977D+01  1  2 12  1  7  1        2 0.308543467020D-03 0.100000000000D+01
-.101037973065D-04 0.000000000000D+00 0.000000000000D+00 0.206268842948D-06 0.000000000000D+00  7 2 -2 23 -11 11 23 21 2 0.56072089D+00 0.22696218D-02 0.27602609D+05 0.27602609D+05 0.27602609D+05 0.11707069D+01  1  2  4  1  7  1        2 -.710763746641D-03 0.100000000000D+01
-.435460249737D-04 0.000000000000D+00 -.448720633132D-05 0.206268842948D-06 0.000000000000D+00  7 2 -2 23 -11 11 23 21 2 0.58257652D+00 0.22696218D-02 0.27602609D+05 0.27602609D+05 0.27602609D+05 0.11707069D+01  1  2  5  1  7  1        2 -.241333233679D-02 0.100000000000D+01
0.439216298630D-04 0.000000000000D+00 0.453350814657D-05 0.206268842948D-06 0.000000000000D+00  7 2 -2 23 -11 11 23 21 2 0.56072089D+00 0.22696218D-02 0.27602609D+05 0.27602609D+05 0.27602609D+05 0.11707069D+01  1  2  6  1  7  1        2 0.308971976109D-02 0.100000000000D+01
0.429086127666D-05 0.000000000000D+00 0.000000000000D+00 0.206268842948D-06 0.407082039637D-07  7 2 -2 23 -11 11 23 21 2 0.58200379D+00 0.22801195D-02 0.28577967D+05 0.28577967D+05 0.28577967D+05 0.11692977D+01  1  2 11  1  7  1        2 0.236850732135D-03 0.100000000000D+01
0.120591324533D-06 0.000000000000D+00 0.000000000000D+00 0.206268842948D-06 0.000000000000D+00  7 21 -2 23 -11 11 23 -2 2 0.58327176D+00 0.22696218D-02 0.28577967D+05 0.28577967D+05 0.28577967D+05 0.11692977D+01  1  2 12  3  7  1        2 0.178880857218D-06 0.100000000000D+01
-.292705804950D-06 0.000000000000D+00 -.304034809614D-07 0.206268842948D-06 0.000000000000D+00  7 21 -2 23 -11 11 23 -2 2 0.58257652D+00 0.22696218D-02 0.27602609D+05 0.27602609D+05 0.27602609D+05 0.11707069D+01  1  2  5  3  7  1        2 -.442424675441D-06 0.100000000000D+01
0.296404733435D-07 0.000000000000D+00 0.000000000000D+00 0.206268842948D-06 0.269461068935D-09  7 21 -2 23 -11 11 23 -2 2 0.58200379D+00 0.22801195D-02 0.28577967D+05 0.28577967D+05 0.28577967D+05 0.11692977D+01  1  2 11  3  7  1        2 0.447272693830D-07 0.100000000000D+01
  </mgrwgt>
  </event>
  <event>
  8     66 0.25765000E-05 0.29293377E+03 0.75467711E-02 0.97375435E-01
        2 -1    0    0  501    0 0.00000000E+00 0.00000000E+00 0.12513853E+04 0.12513854E+04 0.32000000E+00 0.0000E+00 0.9000E+01
       -2 -1    0    0    0  501 0.00000000E+00 0.00000000E+00 -.10655694E+03 0.10655742E+03 0.32000000E+00 0.0000E+00 0.9000E+01
       25  2    1    2    0    0 -.21516223E+03 -.11831506E+03 0.35633746E+03 0.52706355E+03 0.30087599E+03 0.0000E+00 0.0000E+00
       23  2    1    2    0    0 0.21516223E+03 0.11831506E+03 0.78849095E+03 0.83087926E+03 0.91373542E+02 0.0000E+00 0.0000E+00
       23  1    3    3    0    0 -.11468505E+03 0.57833690E+01 0.30136243E+03 0.33514276E+03 0.91188000E+02 0.0000E+00 0.9000E+01
      -11  1    4    4    0    0 0.26226248E+02 0.46199228E+02 0.25198677E+03 0.25752576E+03 0.51099893E-03 0.0000E+00 0.9000E+01
       11  1    4    4    0    0 0.18893598E+03 0.72115829E+02 0.53650418E+03 0.57335349E+03 0.51099893E-03 0.0000E+00 0.9000E+01
       23  1    3    3    0    0 -.10047718E+03 -.12409843E+03 0.54975035E+02 0.19192079E+03 0.91188000E+02 0.0000E+00 0.9000E+01
#aMCatNLO 1  0  0  2  2 0.17687220D+03 0.00000000D+00  -5  7  0 0.00000000D+00 0.00000000D+00 0.00000000D+00 0.00000000D+00 0.00000000D+00
  <mgrwgt>
 0.3380303330D-03    4    2    0
 0.365163173705608D+03 0.000000000000000D+00 0.000000000000000D+00 0.365163173705608D+03
 0.365163173705608D+03 0.000000000000000D+00 0.000000000000000D+00 -.365163173705608D+03
 0.150749643139110D+03 -.114685050710309D+03 0.578336900481381D+01 0.349870740288048D+02
 0.838305232708183D+02 0.262262482737341D+02 0.461992284665252D+02 0.648488382505151D+02
 0.225072022651501D+03 0.188935979542181D+03 0.721158288515110D+02 0.987922985051667D+02
 0.270674158349787D+03 -.100477177105607D+03 -.124098426322850D+03 -.198628210784487D+03
 0.000000000000000D+00 0.000000000000000D+00 0.000000000000000D+00 0.000000000000000D+00
 0.547540001000004D+03 0.000000000000000D+00 0.000000000000000D+00 0.547540001000004D+03
 0.421237512737746D+03 0.000000000000000D+00 0.000000000000000D+00 -.421237512737746D+03
 0.155500219662727D+03 -.117041460370190D+03 -.306963870263669D+02 0.349870740288048D+02
 0.746791271341462D+02 0.250066112493077D+02 0.273179355168450D+02 0.648488382505151D+02
 0.211200089005129D+03 0.185579126386921D+03 0.201481314594634D+02 0.987922985051667D+02
 0.310059416596774D+03 -.104945574881533D+03 -.193274029992831D+03 -.198628210784487D+03
 0.217338661338975D+03 0.114012976154939D+02 0.176504350042890D+03 0.126302488262258D+03
0.622860326929D-05 0.000000000000D+00 0.000000000000D+00 0.190937066200D-06 0.000000000000D+00  7 2 -2 23 -11 11 23 21 0 0.19252086D+00 0.16393415D-01 0.85810193D+05 0.85810193D+05 0.85810193D+05 0.11272171D+01  1  2  2  2  7  2       -2 0.393297437694D-03 0.100000000000D+01
-.325596661394D-06 0.000000000000D+00 -.239194765830D-07 0.190937066200D-06 0.000000000000D+00  7 2 -2 23 -11 11 23 21 2 0.19252086D+00 0.16393415D-01 0.85810193D+05 0.85810193D+05 0.85810193D+05 0.11272171D+01  1  2  3  2  7  2       -2 -.261231486416D-04 0.100000000000D+01
0.397982492283D-06 0.000000000000D+00 0.000000000000D+00 0.190937066200D-06 0.000000000000D+00  7 2 -2 23 -11 11 23 21 2 0.19252086D+00 0.16393415D-01 0.85810193D+05 0.85810193D+05 0.85810193D+05 0.11272171D+01  1  2 15  2  7  2       -2 0.319307813482D-04 0.100000000000D+01
-.761230235072D-06 0.000000000000D+00 0.000000000000D+00 0.190937066200D-06 0.000000000000D+00  7 2 -2 23 -11 11 23 21 2 0.19252086D+00 0.16393415D-01 0.85810193D+05 0.85810193D+05 0.85810193D+05 0.11272171D+01  1  2  4  2  7  2       -2 -.610747373642D-04 0.100000000000D+01
  </mgrwgt>
  </event>
  <event>
  8     66 0.25765000E-05 0.37501362E+03 0.75467711E-02 0.77269577E-01
        2 -1    0    0  501    0 0.00000000E+00 0.00000000E+00 0.13020478E+04 0.13020478E+04 0.32000000E+00 0.0000E+00 0.9000E+01
       -2 -1    0    0    0  501 0.00000000E+00 0.00000000E+00 -.41226940E+03 0.41226952E+03 0.32000000E+00 0.0000E+00 0.9000E+01
       25  2    1    2    0    0 0.31733100E+03 0.13344145E+03 -.25002680E+03 0.52029412E+03 0.29947785E+03 0.0000E+00 0.0000E+00
       23  2    1    2    0    0 -.31733100E+03 -.13344145E+03 0.11398052E+04 0.11940232E+04 0.89610212E+02 0.0000E+00 0.0000E+00
       23  1    3    3    0    0 0.16689598E+03 0.11559381E+03 -.10804916E+02 0.22281875E+03 0.91188000E+02 0.0000E+00 0.9000E+01
      -11  1    4    4    0    0 -.27717407E+03 -.89825019E+02 0.10125081E+04 0.10535970E+04 0.51099893E-03 0.0000E+00 0.9000E+01
       11  1    4    4    0    0 -.40156937E+02 -.43616428E+02 0.12729710E+03 0.14042622E+03 0.51099893E-03 0.0000E+00 0.9000E+01
       23  1    3    3    0    0 0.15043503E+03 0.17847635E+02 -.23922189E+03 0.29747538E+03 0.91188000E+02 0.0000E+00 0.9000E+01
#aMCatNLO 1  0  0  1  1 0.32631974D+04 0.00000000D+00  -5  7  0 0.00000000D+00 0.00000000D+00 0.00000000D+00 0.00000000D+00 0.00000000D+00
  <mgrwgt>
 0.4494570487D-03    3    2    0
 0.732662679886997D+03 0.000000000000000D+00 0.000000000000000D+00 0.732662679886997D+03
 0.732662679886997D+03 0.000000000000000D+00 0.000000000000000D+00 -.732662679886997D+03
 0.267241691872666D+03 0.166895976820360D+03 0.115593811786405D+03 -.147941455072039D+03
 0.617809416962293D+03 -.277174067700286D+03 -.898250187685199D+02 0.544788470770997D+03
 0.869901697169155D+02 -.401569369635167D+02 -.436164282791415D+02 0.636578135444222D+02
 0.493284081222119D+03 0.150435027843443D+03 0.178476352612561D+02 -.460504829243380D+03
 0.000000000000000D+00 -.000000000000000D+00 -.000000000000000D+00 -.000000000000000D+00
 0.255785499754066D+04 0.000000000000000D+00 0.000000000000000D+00 0.255785499754066D+04
 0.524896113495799D+04 0.000000000000000D+00 0.000000000000000D+00 -.524896113495799D+04
 0.107667750437166D+04 0.666881769448177D+03 0.827225016863504D+03 -.147941455072039D+03
 0.989649953564086D+03 0.320858053379357D+03 0.761355805314445D+03 0.544788470770997D+03
 0.814706701328696D+02 0.225164936820336D+02 0.455868443622650D+02 0.636578135444222D+02
 0.142930061140925D+04 0.865704989107278D+03 0.103589341175101D+04 -.460504829243380D+03
 0.422971739302079D+04 -.187596130561685D+04 -.267006107829123D+04 -.269110613741733D+04
0.849825388596D-04 0.000000000000D+00 0.000000000000D+00 0.972475932407D-06 0.000000000000D+00  7 2 -2 23 -11 11 23 21 0 0.20031506D+00 0.63426073D-01 0.14063521D+06 0.14063521D+06 0.14063521D+06 0.11097681D+01  1  2  2  1  7  1        2 0.430737965429D-03 0.100000000000D+01
-.214653683978D-05 0.000000000000D+00 -.326355325637D-06 0.972475932407D-06 0.000000000000D+00  7 2 -2 23 -11 11 23 21 2 0.20031506D+00 0.63426073D-01 0.14063521D+06 0.14063521D+06 0.14063521D+06 0.11097681D+01  1  2  3  1  7  1        2 -.133994276644D-04 0.100000000000D+01
0.514526206859D-05 0.000000000000D+00 0.000000000000D+00 0.972475932407D-06 0.000000000000D+00  7 2 -2 23 -11 11 23 21 2 0.20031506D+00 0.63426073D-01 0.14063521D+06 0.14063521D+06 0.14063521D+06 0.11097681D+01  1  2 15  1  7  1        2 0.321185109078D-04 0.100000000000D+01
  </mgrwgt>
  </event>
  <event>
  8     66 0.25765000E-05 0.27657692E+03 0.75467711E-02 0.97295979E-01
        2 -1    0    0  501    0 0.00000000E+00 0.00000000E+00 0.59656376E+03 0.59656385E+03 0.32000000E+00 0.0000E+00 0.9000E+01
       -2 -1    0    0    0  501 0.00000000E+00 0.00000000E+00 -.61555024E+03 0.61555032E+03 0.32000000E+00 0.0000E+00 0.9000E+01
       25  2    1    2    0    0 -.77448953E+01 -.36435007E+03 0.42170657E+03 0.63300655E+03 0.30008316E+03 0.0000E+00 0.0000E+00
       23  2    1    2    0    0 0.77448953E+01 0.36435007E+03 -.44069305E+03 0.57910762E+03 0.91347206E+02 0.0000E+00 0.0000E+00
       23  1    3    3    0    0 -.47094476E+02 -.14327479E+03 0.32955214E+03 0.37371837E+03 0.91188000E+02 0.0000E+00 0.9000E+01
      -11  1    4    4    0    0 0.80297207E+01 0.34660488E+01 0.91806226E+00 0.87939040E+01 0.51099893E-03 0.0000E+00 0.9000E+01
       11  1    4    4    0    0 -.28482542E+00 0.36088402E+03 -.44161111E+03 0.57031371E+03 0.51099893E-03 0.0000E+00 0.9000E+01
       23  1    3    3    0    0 0.39349581E+02 -.22107529E+03 0.92154432E+02 0.25928818E+03 0.91188000E+02 0.0000E+00 0.9000E+01
#aMCatNLO 1  0  0  2  1 0.68486597D+01 0.00000000D+00  -5  7  0 0.00000000D+00 0.00000000D+00 0.00000000D+00 0.00000000D+00 0.00000000D+00
  <mgrwgt>
 0.4839689889D-03   11    2    0
 0.605982729475612D+03 0.000000000000000D+00 0.000000000000000D+00 0.605982729475612D+03
 0.605982729475612D+03 0.000000000000000D+00 0.000000000000000D+00 -.605982729475612D+03
 0.378926940119268D+03 -.470944758904782D+02 -.143274785882268D+03 0.335447195062267D+03
 0.880936521411795D+01 0.802972069074448D+01 0.346604876037575D+01 0.105593896369017D+01
 0.563465476637935D+03 -.284825421733208D+00 0.360884023053669D+03 -.432730844916205D+03
 0.260763676979904D+03 0.393495806214669D+02 -.221075285931777D+03 0.962277108902479D+02
 0.000000000000000D+00 0.000000000000000D+00 -.000000000000000D+00 -.000000000000000D+00
 0.608477506541811D+03 0.000000000000000D+00 0.000000000000000D+00 0.608477506541811D+03
 0.610710937479667D+03 0.000000000000000D+00 0.000000000000000D+00 -.610710937479667D+03
 0.379027944048623D+03 -.491907646282391D+02 -.142836896584435D+03 0.335447195062267D+03
 0.876909451586189D+01 0.798110364515397D+01 0.347620427167189D+01 0.105593896369017D+01
 0.563893035050853D+03 -.340278006631159D+01 0.361535325970770D+03 -.432730844916205D+03
 0.260294735625746D+03 0.379084804915298D+02 -.220774257589337D+03 0.962277108902479D+02
 0.720363478039438D+01 0.670396055786696D+01 -.140037606866902D+01 -.223343093785568D+01
0.346573009712D-04 0.000000000000D+00 0.000000000000D+00 0.379069521853D-05 0.000000000000D+00  7 2 -2 23 -11 11 23 21 0 0.91779053D-01 0.94700050D-01 0.15532656D+06 0.15532656D+06 0.15532656D+06 0.11063580D+01  1  2  2  2  7  2       -2 0.207083870688D-03 0.100000000000D+01
-.149213159292D-05 0.000000000000D+00 -.133093161206D-06 0.379069521853D-05 0.000000000000D+00  7 2 -2 23 -11 11 23 21 2 0.91779053D-01 0.94700050D-01 0.15532656D+06 0.15532656D+06 0.15532656D+06 0.11063580D+01  1  2  3  2  7  2       -2 -.109131470064D-04 0.100000000000D+01
0.207553640538D-05 0.000000000000D+00 0.000000000000D+00 0.379069521853D-05 0.000000000000D+00  7 2 -2 23 -11 11 23 21 2 0.91779053D-01 0.94700050D-01 0.15532656D+06 0.15532656D+06 0.15532656D+06 0.11063580D+01  1  2 15  2  7  2       -2 0.151800511540D-04 0.100000000000D+01
0.107161416059D-04 0.000000000000D+00 0.000000000000D+00 0.379069521853D-05 0.000000000000D+00  7 2 -2 23 -11 11 23 21 2 0.91779053D-01 0.95632723D-01 0.15817227D+06 0.15817227D+06 0.15817227D+06 0.11057384D+01  1  2 12  2  7  2       -2 0.764517687245D-04 0.100000000000D+01
-.436160016821D-04 0.000000000000D+00 0.000000000000D+00 0.379069521853D-05 0.000000000000D+00  7 2 -2 23 -11 11 23 21 2 0.91779053D-01 0.94700050D-01 0.15532656D+06 0.15532656D+06 0.15532656D+06 0.11063580D+01  1  2  4  2  7  2       -2 -.318998565843D-03 0.100000000000D+01
-.330169532821D-02 0.000000000000D+00 -.369963025522D-03 0.379069521853D-05 0.000000000000D+00  7 2 -2 23 -11 11 23 21 2 0.91779053D-01 0.95740983D-01 0.15532656D+06 0.15532656D+06 0.15532656D+06 0.11063580D+01  1  2  5  2  7  2       -2 -.235325174336D-01 0.100000000000D+01
0.330556432140D-02 0.000000000000D+00 0.369940920032D-03 0.379069521853D-05 0.000000000000D+00  7 2 -2 23 -11 11 23 21 2 0.91779053D-01 0.94700050D-01 0.15532656D+06 0.15532656D+06 0.15532656D+06 0.11063580D+01  1  2  6  2  7  2       -2 0.241762251733D-01 0.100000000000D+01
0.338060046941D-04 0.000000000000D+00 0.000000000000D+00 0.379069521853D-05 0.527013959798D-06  7 2 -2 23 -11 11 23 21 2 0.92156899D-01 0.95438951D-01 0.15817227D+06 0.15817227D+06 0.15817227D+06 0.11057384D+01  1  2 11  2  7  2       -2 0.241186884292D-03 0.100000000000D+01
0.110141474327D-05 0.000000000000D+00 0.000000000000D+00 0.379069521853D-05 0.000000000000D+00  7 2 21 23 -11 11 23 2 2 0.91779053D-01 0.95632723D-01 0.15817227D+06 0.15817227D+06 0.15817227D+06 0.11057384D+01  1  2 12  4  7  2       -2 0.744636677079D-04 0.100000000000D+01
-.664162062232D-05 0.000000000000D+00 -.746042349804D-06 0.379069521853D-05 0.000000000000D+00  7 2 21 23 -11 11 23 2 2 0.91779053D-01 0.95740983D-01 0.15532656D+06 0.15532656D+06 0.15532656D+06 0.11063580D+01  1  2  5  4  7  2       -2 -.448765861243D-03 0.100000000000D+01
0.676090006822D-07 0.000000000000D+00 0.000000000000D+00 0.379069521853D-05 0.761371131515D-09  7 2 21 23 -11 11 23 2 2 0.92156899D-01 0.95438951D-01 0.15817227D+06 0.15817227D+06 0.15817227D+06 0.11057384D+01  1  2 11  4  7  2       -2 0.457258068420D-05 0.100000000000D+01
  </mgrwgt>
  </event>
</LesHouchesEvents>
