<LesHouchesEvents version="3.0">
  <!--
  <scalesfunctionalform>
    muR  H_T/2 := sum_i mT(i)/2, i=final state
    muF1 H_T/2 := sum_i mT(i)/2, i=final state
    muF2 H_T/2 := sum_i mT(i)/2, i=final state
    QES  H_T/2 := sum_i mT(i)/2, i=final state
  </scalesfunctionalform>
HERWIG6   
  -->
  <header>
      177
  </header>
  <init>
   2212   2212 0.65000000D+04 0.65000000D+04 -1 -1   244800   244800 -4   1
 0.40651414D-03 0.17150316D-05 0.24912036D-05     66
  </init>
  <event>
  8     66 0.24912036E-05 0.24686742E+03 0.75467711E-02 0.93296021E-01
        1 -1    0    0  501    0 0.00000000E+00 0.00000000E+00 0.34719422E+04 0.34719423E+04 0.32000000E+00 0.0000E+00 0.9000E+01
       -1 -1    0    0    0  501 0.00000000E+00 0.00000000E+00 -.11591716E+03 0.11591761E+03 0.32000000E+00 0.0000E+00 0.9000E+01
       25  2    1    2    0    0 0.43470741E+03 -.56190117E+02 0.29025486E+04 0.29507188E+04 0.29970904E+03 0.0000E+00 0.0000E+00
       23  2    1    2    0    0 -.43470741E+03 0.56190117E+02 0.45347652E+03 0.63714105E+03 0.90442839E+02 0.0000E+00 0.0000E+00
       23  1    3    3    0    0 0.23421903E+03 -.14318357E+03 0.17926438E+04 0.18158324E+04 0.91188000E+02 0.0000E+00 0.9000E+01
      -13  1    4    4    0    0 -.26404663E+02 0.25058885E+02 0.53605667E+02 0.64797628E+02 0.10565837E+00 0.0000E+00 0.9000E+01
       13  1    4    4    0    0 -.40830274E+03 0.31131231E+02 0.39987085E+03 0.57234342E+03 0.10565837E+00 0.0000E+00 0.9000E+01
       23  1    3    3    0    0 0.20048837E+03 0.86993449E+02 0.11099048E+04 0.11348865E+04 0.91188000E+02 0.0000E+00 0.9000E+01
#aMCatNLO 1  0  0  1  2 0.14896512D+03 0.00000000D+00  -5  7  0 0.00000000D+00 0.00000000D+00 0.00000000D+00 0.00000000D+00 0.00000000D+00
  <mgrwgt>
 0.1995483847D-03    9    2    0
 0.634396182749300D+03 0.000000000000000D+00 0.000000000000000D+00 0.634396182749300D+03
 0.634396182749300D+03 0.000000000000000D+00 0.000000000000000D+00 -.634396182749300D+03
 0.393125369372126D+03 0.234219033689662D+03 -.143183565390407D+03 0.266218360673230D+03
 0.414425162276120D+02 -.264041416187333D+02 0.250588769002365D+02 -.198079818546098D+02
 0.560779134921843D+03 -.408303264593174D+03 0.311312397908010D+02 -.383135130463567D+03
 0.273445344977019D+03 0.200488372522245D+03 0.869934486993691D+02 0.136724751644947D+03
 0.000000000000000D+00 -.000000000000000D+00 0.000000000000000D+00 0.000000000000000D+00
 0.757101351142961D+03 0.000000000000000D+00 0.000000000000000D+00 0.757101351142961D+03
 0.685629457849218D+03 0.000000000000000D+00 0.000000000000000D+00 -.685629457849218D+03
 0.428050240768911D+03 0.274729830265213D+03 -.169006100721921D+03 0.266218360673230D+03
 0.375316415750840D+02 -.225081344773120D+02 0.225754702391614D+02 -.198079818546098D+02
 0.522242548010954D+03 -.354874898550172D+03 -.292525838932022D+01 -.383135130463567D+03
 0.289682780088128D+03 0.228268994156353D+03 0.692854265344553D+02 0.136724751644947D+03
 0.165223598549101D+03 -.125615791394082D+03 0.800704623376243D+02 0.714718932937427D+02
0.151363020601D-03 0.000000000000D+00 0.000000000000D+00 0.229250380201D-05 0.000000000000D+00  7 1 -1 23 -13 13 23 21 0 0.53414500D+00 0.17833445D-01 0.23617994D+06 0.23617994D+06 0.23617994D+06 0.10923219D+01  1  2  2  1  7  1        1 0.114851118511D-03 0.100000000000D+01
-.768291720565D-05 0.000000000000D+00 -.581273853908D-06 0.229250380201D-05 0.000000000000D+00  7 1 -1 23 -13 13 23 21 2 0.53414500D+00 0.17833445D-01 0.23617994D+06 0.23617994D+06 0.23617994D+06 0.10923219D+01  1  2  3  1  7  1        1 -.695573300774D-05 0.100000000000D+01
0.969978545615D-05 0.000000000000D+00 0.000000000000D+00 0.229250380201D-05 0.000000000000D+00  7 1 -1 23 -13 13 23 21 2 0.53414500D+00 0.17833445D-01 0.23617994D+06 0.23617994D+06 0.23617994D+06 0.10923219D+01  1  2 15  1  7  1        1 0.878170570622D-05 0.100000000000D+01
0.986333992515D-04 0.000000000000D+00 0.000000000000D+00 0.229250380201D-05 0.000000000000D+00  7 1 -1 23 -13 13 23 21 2 0.65584566D+00 0.17833445D-01 0.31714444D+06 0.31714444D+06 0.31714444D+06 0.10827707D+01  1  2 12  1  7  1        1 0.166114730865D-04 0.100000000000D+01
-.103779366145D-03 0.000000000000D+00 0.000000000000D+00 0.229250380201D-05 0.000000000000D+00  7 1 -1 23 -13 13 23 21 2 0.53414500D+00 0.17833445D-01 0.23617994D+06 0.23617994D+06 0.23617994D+06 0.10923219D+01  1  2  4  1  7  1        1 -.939567020309D-04 0.100000000000D+01
-.213383205776D-03 0.000000000000D+00 -.576942872462D-04 0.229250380201D-05 0.000000000000D+00  7 1 -1 23 -13 13 23 21 2 0.64707512D+00 0.17833445D-01 0.23617994D+06 0.23617994D+06 0.23617994D+06 0.10923219D+01  1  2  5  1  7  1        1 -.427413977927D-04 0.100000000000D+01
0.224222265515D-03 0.000000000000D+00 0.581503094377D-04 0.229250380201D-05 0.000000000000D+00  7 1 -1 23 -13 13 23 21 2 0.53414500D+00 0.17833445D-01 0.23617994D+06 0.23617994D+06 0.23617994D+06 0.10923219D+01  1  2  6  1  7  1        1 0.202999742359D-03 0.100000000000D+01
0.287917716602D-05 0.000000000000D+00 0.000000000000D+00 0.229250380201D-05 0.000000000000D+00  7 21 -1 23 -13 13 23 -1 2 0.65584566D+00 0.17833445D-01 0.31714444D+06 0.31714444D+06 0.31714444D+06 0.10827707D+01  1  2 12  3  7  1        1 0.318230765351D-07 0.100000000000D+01
-.529443926857D-05 0.000000000000D+00 -.159862148876D-05 0.229250380201D-05 0.000000000000D+00  7 21 -1 23 -13 13 23 -1 2 0.64707512D+00 0.17833445D-01 0.23617994D+06 0.23617994D+06 0.23617994D+06 0.10923219D+01  1  2  5  3  7  1        1 -.736452090710D-07 0.100000000000D+01
  </mgrwgt>
  </event>
  <event>
  8     66 0.24912036E-05 0.17355862E+03 0.75467711E-02 0.94130456E-01
        1 -1    0    0  501    0 0.00000000E+00 0.00000000E+00 0.14316925E+04 0.14316926E+04 0.32000000E+00 0.0000E+00 0.9000E+01
       -1 -1    0    0    0  501 0.00000000E+00 0.00000000E+00 -.18782478E+03 0.18782506E+03 0.32000000E+00 0.0000E+00 0.9000E+01
       25  2    1    2    0    0 0.58235230E+02 -.46689964E+03 0.66281645E+03 0.86613034E+03 0.29911453E+03 0.0000E+00 0.0000E+00
       23  2    1    2    0    0 -.58235230E+02 0.46689964E+03 0.58105129E+03 0.75338728E+03 0.92656239E+02 0.0000E+00 0.0000E+00
       23  1    3    3    0    0 -.43267807E+02 -.85651577E+02 0.27614613E+03 0.30623559E+03 0.91188000E+02 0.0000E+00 0.9000E+01
      -11  1    4    4    0    0 -.61167107E+02 0.33420596E+03 0.35596990E+03 0.49208699E+03 0.51099893E-03 0.0000E+00 0.9000E+01
       11  1    4    4    0    0 0.29318770E+01 0.13269367E+03 0.22508139E+03 0.26130029E+03 0.51099893E-03 0.0000E+00 0.9000E+01
       23  1    3    3    0    0 0.10150304E+03 -.38124806E+03 0.38667032E+03 0.55989475E+03 0.91188000E+02 0.0000E+00 0.9000E+01
#aMCatNLO 1  0  0  1  2 0.34791130D+02 0.00000000D+00  -5  7  0 0.00000000D+00 0.00000000D+00 0.00000000D+00 0.00000000D+00 0.00000000D+00
  <mgrwgt>
 0.2362806557D-03    9    2    0
 0.518563004003413D+03 0.000000000000000D+00 0.000000000000000D+00 0.518563004003413D+03
 0.518563004003413D+03 0.000000000000000D+00 0.000000000000000D+00 -.518563004003413D+03
 0.147006880655978D+03 -.432678073800753D+02 -.856515769335384D+02 0.639333702343296D+02
 0.341486065135298D+03 -.611671066824059D+02 0.334205960908247D+03 -.343175383016840D+02
 0.138082484341861D+03 0.293187701076551D+01 0.132693674484622D+03 0.380862879653973D+02
 0.410550577873689D+03 0.101503037051716D+03 -.381248058459330D+03 -.677021198980430D+02
 0.000000000000000D+00 -.000000000000000D+00 -.000000000000000D+00 0.000000000000000D+00
 0.583036659281005D+03 0.000000000000000D+00 0.000000000000000D+00 0.583036659281005D+03
 0.523569503984188D+03 0.000000000000000D+00 0.000000000000000D+00 -.523569503984188D+03
 0.143871361997517D+03 -.409701622499334D+02 -.813491698465006D+02 0.639333702343296D+02
 0.350600885292902D+03 -.557003168779158D+02 0.344442683233044D+03 -.343175383016840D+02
 0.142132959324950D+03 0.514529676900627D+01 0.136838367122103D+03 0.380862879653973D+02
 0.401104183925593D+03 0.107914292131478D+03 -.369242797538000D+03 -.677021198980430D+02
 0.688967727242317D+02 -.163891097726351D+02 -.306890829706465D+02 0.594671552968168D+02
0.139201502087D-04 0.000000000000D+00 0.000000000000D+00 0.262036364120D-06 0.000000000000D+00  7 1 -1 23 -11 11 23 21 0 0.22026041D+00 0.28896144D-01 0.25491886D+06 0.25491886D+06 0.25491886D+06 0.10898231D+01  1  2  2  1  7  1        1 0.131401868688D-03 0.100000000000D+01
-.772670803523D-06 0.000000000000D+00 -.534570420612D-07 0.262036364120D-06 0.000000000000D+00  7 1 -1 23 -11 11 23 21 2 0.22026041D+00 0.28896144D-01 0.25491886D+06 0.25491886D+06 0.25491886D+06 0.10898231D+01  1  2  3  1  7  1        1 -.866291655257D-05 0.100000000000D+01
0.854545126149D-06 0.000000000000D+00 0.000000000000D+00 0.262036364120D-06 0.000000000000D+00  7 1 -1 23 -11 11 23 21 2 0.22026041D+00 0.28896144D-01 0.25491886D+06 0.25491886D+06 0.25491886D+06 0.10898231D+01  1  2 15  1  7  1        1 0.958086300722D-05 0.100000000000D+01
0.920573147204D-04 0.000000000000D+00 0.000000000000D+00 0.262036364120D-06 0.000000000000D+00  7 1 -1 23 -11 11 23 21 2 0.24862720D+00 0.28896144D-01 0.27294266D+06 0.27294266D+06 0.27294266D+06 0.10876020D+01  1  2 12  1  7  1        1 0.771036761319D-03 0.100000000000D+01
-.933888191685D-04 0.000000000000D+00 0.000000000000D+00 0.262036364120D-06 0.000000000000D+00  7 1 -1 23 -11 11 23 21 2 0.22026041D+00 0.28896144D-01 0.25491886D+06 0.25491886D+06 0.25491886D+06 0.10898231D+01  1  2  4  1  7  1        1 -.104704298870D-02 0.100000000000D+01
-.135697402611D-03 0.000000000000D+00 -.134589874978D-04 0.262036364120D-06 0.000000000000D+00  7 1 -1 23 -11 11 23 21 2 0.24857309D+00 0.28896144D-01 0.25491886D+06 0.25491886D+06 0.25491886D+06 0.10898231D+01  1  2  5  1  7  1        1 -.114491331204D-02 0.100000000000D+01
0.136424066257D-03 0.000000000000D+00 0.133611768727D-04 0.262036364120D-06 0.000000000000D+00  7 1 -1 23 -11 11 23 21 2 0.22026041D+00 0.28896144D-01 0.25491886D+06 0.25491886D+06 0.25491886D+06 0.10898231D+01  1  2  6  1  7  1        1 0.152953922467D-02 0.100000000000D+01
0.176065428277D-05 0.000000000000D+00 0.000000000000D+00 0.262036364120D-06 0.000000000000D+00  7 21 -1 23 -11 11 23 -1 2 0.24862720D+00 0.28896144D-01 0.27294266D+06 0.27294266D+06 0.27294266D+06 0.10876020D+01  1  2 12  3  7  1        1 0.103207075993D-04 0.100000000000D+01
-.252824783797D-05 0.000000000000D+00 -.257023220409D-06 0.262036364120D-06 0.000000000000D+00  7 21 -1 23 -11 11 23 -1 2 0.24857309D+00 0.28896144D-01 0.25491886D+06 0.25491886D+06 0.25491886D+06 0.10898231D+01  1  2  5  3  7  1        1 -.149795522723D-04 0.100000000000D+01
  </mgrwgt>
  </event>
  <event>
  8     66 0.24912036E-05 0.15980311E+03 0.75467711E-02 0.93516506E-01
        1 -1    0    0  501    0 0.00000000E+00 0.00000000E+00 0.16316375E+03 0.16316406E+03 0.32000000E+00 0.0000E+00 0.9000E+01
       -1 -1    0    0    0  501 0.00000000E+00 0.00000000E+00 -.20142258E+04 0.20142259E+04 0.32000000E+00 0.0000E+00 0.9000E+01
       25  2    1    2    0    0 -.41759304E+03 -.29531566E+03 -.71435306E+03 0.92759300E+03 0.29754530E+03 0.0000E+00 0.0000E+00
       23  2    1    2    0    0 0.41759304E+03 0.29531566E+03 -.11367090E+04 0.12497969E+04 0.91047422E+02 0.0000E+00 0.0000E+00
       23  1    3    3    0    0 -.28871684E+03 -.68498757E+02 -.31787815E+03 0.44430987E+03 0.91188000E+02 0.0000E+00 0.9000E+01
      -11  1    4    4    0    0 0.20517773E+03 0.19225162E+03 -.67510862E+03 0.73132088E+03 0.51099893E-03 0.0000E+00 0.9000E+01
       11  1    4    4    0    0 0.21241531E+03 0.10306404E+03 -.46160042E+03 0.51847604E+03 0.51099893E-03 0.0000E+00 0.9000E+01
       23  1    3    3    0    0 -.12887620E+03 -.22681690E+03 -.39647491E+03 0.48328313E+03 0.91188000E+02 0.0000E+00 0.9000E+01
#aMCatNLO 1  0  0  1  2 0.34791130D+02 0.00000000D+00  -5  7  0 0.00000000D+00 0.00000000D+00 0.00000000D+00 0.00000000D+00 0.00000000D+00
  <mgrwgt>
 0.7837037807D-06    1    2    0
 0.573279167227482D+03 0.000000000000000D+00 0.000000000000000D+00 0.573279167227482D+03
 0.573279167227482D+03 0.000000000000000D+00 0.000000000000000D+00 -.573279167227482D+03
 0.330575107625486D+03 -.288716838714767D+03 -.684987570926332D+02 0.113644875629820D+03
 0.298896910301850D+03 0.205177725240746D+03 0.192251615415006D+03 -.101394183380243D+03
 0.239389021141462D+03 0.212415311937339D+03 0.103064042577705D+03 -.395555536577532D+02
 0.277697295386166D+03 -.128876198463318D+03 -.226816900900077D+03 0.273048614081755D+02
 0.000000000000000D+00 -.000000000000000D+00 0.000000000000000D+00 -.000000000000000D+00
 0.616321001038686D+03 0.000000000000000D+00 0.000000000000000D+00 0.616321001038686D+03
 0.701893346498138D+03 0.000000000000000D+00 0.000000000000000D+00 -.701893346498138D+03
 0.339188981562145D+03 -.286291083154918D+03 -.108886049695229D+03 0.113644875629820D+03
 0.279307337098636D+03 0.207271868821302D+03 0.157385452088526D+03 -.101394183380243D+03
 0.230211706547940D+03 0.214116114644577D+03 0.747467554884737D+02 -.395555536577532D+02
 0.306249231834631D+03 -.126761257459571D+03 -.262029328141050D+03 0.273048614081755D+02
 0.163257090493473D+03 -.833564285139115D+01 0.138783170259280D+03 -.855723454594523D+02
0.166521117933D-05 0.000000000000D+00 0.000000000000D+00 0.584559076297D-07 0.000000000000D+00  7 1 -1 23 -11 11 23 21 2 0.25102141D-01 0.30988092D+00 0.30473180D+06 0.30473180D+06 0.30473180D+06 0.10840494D+01  1  2 14  1  7  1        1 0.783703780738D-06 0.100000000000D+01
  </mgrwgt>
  </event>
  <event>
  9     66 0.24912036E-05 0.21887973E+03 0.75467711E-02 0.10218136E+00
        1 -1    0    0  501    0 0.00000000E+00 0.00000000E+00 0.11007469E+04 0.11007469E+04 0.32000000E+00 0.0000E+00 0.9000E+01
       -1 -1    0    0    0  502 0.00000000E+00 0.00000000E+00 -.10336606E+03 0.10336656E+03 0.32000000E+00 0.0000E+00 0.9000E+01
       25  2    1    2    0    0 -.40904689E+02 0.32099983E+01 0.30276661E+03 0.42716992E+03 0.29853479E+03 0.0000E+00 0.0000E+00
       23  2    1    2    0    0 0.12713357E+03 -.20507512E+02 0.66608731E+03 0.68448291E+03 0.90890292E+02 0.0000E+00 0.0000E+00
       23  1    3    3    0    0 -.11216875E+03 0.74210891E+02 0.13437022E+03 0.21085467E+03 0.91188000E+02 0.0000E+00 0.9000E+01
      -11  1    4    4    0    0 0.13812555E+03 -.97933054E+01 0.63355682E+03 0.64851278E+03 0.51099893E-03 0.0000E+00 0.9000E+01
       11  1    4    4    0    0 -.10991975E+02 -.10714207E+02 0.32530487E+02 0.35970131E+02 0.51099893E-03 0.0000E+00 0.9000E+01
       23  1    3    3    0    0 0.71264057E+02 -.71000893E+02 0.16839639E+03 0.21631525E+03 0.91188000E+02 0.0000E+00 0.9000E+01
       21  1    1    2  501  502 -.86228884E+02 0.17297514E+02 0.28526889E+02 0.92460642E+02 0.75000000E+00 0.0000E+00 0.9000E+01
#aMCatNLO 2  0  0  2  1 0.87946713D+02 0.00000000D+00  -5  7  0 0.00000000D+00 0.00000000D+00 0.00000000D+00 0.00000000D+00 0.00000000D+00
  <mgrwgt>
 0.2500673667D-04    2    2    0
 0.268960718071727D+03 0.000000000000000D+00 0.000000000000000D+00 0.268960718071727D+03
 0.268960718071727D+03 0.000000000000000D+00 0.000000000000000D+00 -.268960718071727D+03
 0.214098038459757D+03 -.144438595685749D+03 0.806842230232070D+02 -.100748533288508D+03
 0.176637768883548D+03 0.108416910609704D+03 -.383375289787521D+01 0.139398627069004D+03
 0.171614365244603D+02 -.135955259582029D+02 -.101919342919368D+02 0.240853750059070D+01
 0.130024192275689D+03 0.496172110342479D+02 -.666585358333950D+02 -.410586312810863D+02
 0.000000000000000D+00 -.000000000000000D+00 0.000000000000000D+00 -.000000000000000D+00
 0.288379227138711D+03 0.000000000000000D+00 0.000000000000000D+00 0.288379227138711D+03
 0.394547910258625D+03 0.000000000000000D+00 0.000000000000000D+00 -.394547910258625D+03
 0.191192578934939D+03 -.112168745888110D+03 0.742108912619682D+02 -.100748533288508D+03
 0.196485503396528D+03 0.138125547907754D+03 -.979330544028145D+01 0.139398627069004D+03
 0.155376570847270D+02 -.109919748420423D+02 -.107142066371116D+02 0.240853750059070D+01
 0.141847647593271D+03 0.712640566808992D+02 -.710008929975536D+02 -.410586312810863D+02
 0.137863750387872D+03 -.862288838585001D+02 0.172975138129785D+02 -.106168683119914D+03
-.188082314270D-05 0.000000000000D+00 0.000000000000D+00 0.565130098794D-07 0.000000000000D+00  7 1 -1 23 -11 11 23 21 2 0.15794199D+00 0.16149378D-01 0.72910342D+05 0.72910342D+05 0.72910342D+05 0.11331588D+01  1  2 13  2  7  2       -1 -.116178433277D-03 0.100000000000D+01
0.252658202347D-05 0.000000000000D+00 0.000000000000D+00 0.565130098794D-07 0.553307112096D-10  7 1 -1 23 -11 11 23 21 2 0.16934514D+00 0.15902459D-01 0.72910342D+05 0.72910342D+05 0.72910342D+05 0.11331588D+01  1  2  1  2  7  2       -1 0.141185169947D-03 0.100000000000D+01
  </mgrwgt>
  </event>
  <event>
  8     66 0.24912036E-05 0.15194437E+03 0.75467711E-02 0.96777264E-01
        1 -1    0    0  501    0 0.00000000E+00 0.00000000E+00 0.24179056E+03 0.24179077E+03 0.32000000E+00 0.0000E+00 0.9000E+01
       -1 -1    0    0    0  501 0.00000000E+00 0.00000000E+00 -.57369924E+03 0.57369933E+03 0.32000000E+00 0.0000E+00 0.9000E+01
       25  2    1    2    0    0 -.46018622E+02 -.24242572E+03 -.38471734E+03 0.54679464E+03 0.30014830E+03 0.0000E+00 0.0000E+00
       23  2    1    2    0    0 0.46018622E+02 0.24242572E+03 0.52808656E+02 0.26869546E+03 0.92306829E+02 0.0000E+00 0.0000E+00
       23  1    3    3    0    0 -.75328123E+02 -.10202489E+03 -.33513569E+03 0.36974935E+03 0.91188000E+02 0.0000E+00 0.9000E+01
      -13  1    4    4    0    0 -.36466735E+01 0.45884210E+02 -.24002978E+02 0.51911589E+02 0.10565837E+00 0.0000E+00 0.9000E+01
       13  1    4    4    0    0 0.49665296E+02 0.19654151E+03 0.76811634E+02 0.21678387E+03 0.10565837E+00 0.0000E+00 0.9000E+01
       23  1    3    3    0    0 0.29309501E+02 -.14040084E+03 -.49581654E+02 0.17704529E+03 0.91188000E+02 0.0000E+00 0.9000E+01
#aMCatNLO 1  0  0  1  2 0.21337716D+03 0.00000000D+00  -5  7  0 0.00000000D+00 0.00000000D+00 0.00000000D+00 0.00000000D+00 0.00000000D+00
  <mgrwgt>
 0.8831155326D-04    7    2    0
 0.372444871179048D+03 0.000000000000000D+00 0.000000000000000D+00 0.372444871179048D+03
 0.372444871179048D+03 0.000000000000000D+00 0.000000000000000D+00 -.372444871179048D+03
 0.255463970481755D+03 -.753281229848199D+02 -.102024886763598D+03 -.202146445031225D+03
 0.461361840023105D+02 -.364674326660713D+01 0.458840128761801D+02 -.314739578398490D+01
 0.271556657956347D+03 0.496653653185626D+02 0.196541712022439D+03 0.180686815798725D+03
 0.171732929917683D+03 0.293095009328645D+02 -.140400838135021D+03 0.246070250164843D+02
 0.000000000000000D+00 0.000000000000000D+00 0.000000000000000D+00 0.000000000000000D+00
 0.745273385282468D+03 0.000000000000000D+00 0.000000000000000D+00 0.745273385282468D+03
 0.419232336449566D+03 0.000000000000000D+00 0.000000000000000D+00 -.419232336449566D+03
 0.293796240096904D+03 -.150114888101306D+03 -.120844174384403D+03 -.202146445031225D+03
 0.457973208952182D+02 -.161643247419945D+02 0.427340977042208D+02 -.314739578398490D+01
 0.254942681621899D+03 -.220223005357334D+02 0.178502279504202D+03 0.180686815798725D+03
 0.180312478613715D+03 -.186246781157825D+02 -.152462960369866D+03 0.246070250164843D+02
 0.389657000504298D+03 0.206926191494816D+03 0.520707575458463D+02 0.326041048832902D+03
0.713217292608D-05 0.000000000000D+00 0.000000000000D+00 0.915926523534D-06 0.000000000000D+00  7 1 -1 23 -13 13 23 21 0 0.37198570D-01 0.88261445D-01 0.82630374D+05 0.82630374D+05 0.82630374D+05 0.11285858D+01  1  2  2  1  7  1        1 0.138109299917D-03 0.100000000000D+01
-.363909206735D-06 0.000000000000D+00 -.273894219804D-07 0.915926523534D-06 0.000000000000D+00  7 1 -1 23 -13 13 23 21 2 0.37198570D-01 0.88261445D-01 0.82630374D+05 0.82630374D+05 0.82630374D+05 0.11285858D+01  1  2  3  1  7  1        1 -.897559502538D-05 0.100000000000D+01
0.441626924786D-06 0.000000000000D+00 0.000000000000D+00 0.915926523534D-06 0.000000000000D+00  7 1 -1 23 -13 13 23 21 2 0.37198570D-01 0.88261445D-01 0.82630374D+05 0.82630374D+05 0.82630374D+05 0.11285858D+01  1  2 15  1  7  1        1 0.108924543700D-04 0.100000000000D+01
0.115941572929D-05 0.000000000000D+00 0.000000000000D+00 0.915926523534D-06 0.000000000000D+00  7 1 -1 23 -13 13 23 21 2 0.74606092D-01 0.88261445D-01 0.17253413D+06 0.17253413D+06 0.17253413D+06 0.11027869D+01  1  2 12  1  7  1        1 0.106007627884D-04 0.100000000000D+01
-.626826105350D-05 0.000000000000D+00 -.234824901953D-05 0.915926523534D-06 0.000000000000D+00  7 1 -1 23 -13 13 23 21 2 0.80838883D-01 0.88261445D-01 0.82630374D+05 0.82630374D+05 0.82630374D+05 0.11285858D+01  1  2  5  1  7  1        1 -.551091762654D-04 0.100000000000D+01
0.872980665802D-07 0.000000000000D+00 0.000000000000D+00 0.915926523534D-06 0.000000000000D+00  7 21 -1 23 -13 13 23 -1 2 0.74606092D-01 0.88261445D-01 0.17253413D+06 0.17253413D+06 0.17253413D+06 0.11027869D+01  1  2 12  3  7  1        1 0.243399772626D-05 0.100000000000D+01
-.379496671550D-06 0.000000000000D+00 -.197401731937D-06 0.915926523534D-06 0.000000000000D+00  7 21 -1 23 -13 13 23 -1 2 0.80838883D-01 0.88261445D-01 0.82630374D+05 0.82630374D+05 0.82630374D+05 0.11285858D+01  1  2  5  3  7  1        1 -.964019025589D-05 0.100000000000D+01
  </mgrwgt>
  </event>
  <event>
  8     66 0.24912036E-05 0.38307204E+03 0.75467711E-02 0.91795111E-01
        1 -1    0    0  501    0 0.00000000E+00 0.00000000E+00 0.21057159E+04 0.21057160E+04 0.32000000E+00 0.0000E+00 0.9000E+01
       -1 -1    0    0    0  501 0.00000000E+00 0.00000000E+00 -.10481379E+03 0.10481428E+03 0.32000000E+00 0.0000E+00 0.9000E+01
       25  2    1    2    0    0 0.19188920E+03 -.25838813E+03 0.17139752E+04 0.17694040E+04 0.29915489E+03 0.0000E+00 0.0000E+00
       23  2    1    2    0    0 -.19188920E+03 0.25838813E+03 0.28692689E+03 0.44112619E+03 0.93163214E+02 0.0000E+00 0.0000E+00
       23  1    3    3    0    0 0.18010865E+03 -.44799536E+02 0.82378498E+03 0.84934272E+03 0.91188000E+02 0.0000E+00 0.9000E+01
      -11  1    4    4    0    0 -.61363706E+02 0.12988458E+03 0.78677243E+02 0.16378528E+03 0.51099893E-03 0.0000E+00 0.9000E+01
       11  1    4    4    0    0 -.13052549E+03 0.12850355E+03 0.20824964E+03 0.27734091E+03 0.51099893E-03 0.0000E+00 0.9000E+01
       23  1    3    3    0    0 0.11780546E+02 -.21358859E+03 0.89019027E+03 0.92006132E+03 0.91188000E+02 0.0000E+00 0.9000E+01
#aMCatNLO 1  0  0  2  1 0.42262614D+03 0.00000000D+00  -5  7  0 0.00000000D+00 0.00000000D+00 0.00000000D+00 0.00000000D+00 0.00000000D+00
  <mgrwgt>
 0.2136234261D-03    3    2    0
 0.469796384154990D+03 0.000000000000000D+00 0.000000000000000D+00 0.469796384154990D+03
 0.469796384154990D+03 0.000000000000000D+00 0.000000000000000D+00 -.469796384154990D+03
 0.243919134647119D+03 0.180108651169660D+03 -.447995358685523D+02 0.129364478365614D+03
 0.217782477294540D+03 -.613637060229653D+02 0.129884577937065D+03 -.163687810828370D+03
 0.209008966883222D+03 -.130525491494348D+03 0.128503552830563D+03 -.100671153850910D+03
 0.268882189485099D+03 0.117805463476542D+02 -.213588594899075D+03 0.134994486313666D+03
 0.000000000000000D+00 0.000000000000000D+00 -.000000000000000D+00 0.000000000000000D+00
 0.943122385746682D+03 0.000000000000000D+00 0.000000000000000D+00 0.943122385746682D+03
 0.619465345868017D+03 0.000000000000000D+00 0.000000000000000D+00 -.619465345868017D+03
 0.203472460781609D+03 0.123594839074678D+03 0.327862538851276D+02 0.129364478365614D+03
 0.302272085670943D+03 -.127056191422483D+03 0.220071439726491D+03 -.163687810828370D+03
 0.310465712519016D+03 -.196144726901991D+03 0.218589852328075D+03 -.100671153850910D+03
 0.214055448561867D+03 -.492233866923176D+02 -.129838478820688D+03 0.134994486313666D+03
 0.532322024081265D+03 0.248829465942114D+03 -.341609067119007D+03 0.323657039878665D+03
0.237073410723D-04 0.000000000000D+00 0.000000000000D+00 0.145467904192D-06 0.000000000000D+00  7 1 -1 23 -11 11 23 21 0 0.32395634D+00 0.16125239D-01 0.14674419D+06 0.14674419D+06 0.14674419D+06 0.11083048D+01  1  2  2  2  7  2       -1 0.211003514380D-03 0.100000000000D+01
-.125038200492D-05 0.000000000000D+00 -.910424320039D-07 0.145467904192D-06 0.000000000000D+00  7 1 -1 23 -11 11 23 21 2 0.32395634D+00 0.16125239D-01 0.14674419D+06 0.14674419D+06 0.14674419D+06 0.11083048D+01  1  2  3  2  7  2       -1 -.136699823685D-04 0.100000000000D+01
0.149002316324D-05 0.000000000000D+00 0.000000000000D+00 0.145467904192D-06 0.000000000000D+00  7 1 -1 23 -11 11 23 21 2 0.32395634D+00 0.16125239D-01 0.14674419D+06 0.14674419D+06 0.14674419D+06 0.11083048D+01  1  2 15  2  7  2       -1 0.162898940404D-04 0.100000000000D+01
  </mgrwgt>
  </event>
  <event>
  9     66 0.24912036E-05 0.24705179E+03 0.75467711E-02 0.10087083E+00
        3 -1    0    0  502    0 0.00000000E+00 0.00000000E+00 0.77109543E+03 0.77109560E+03 0.50000000E+00 0.0000E+00 0.9000E+01
       -3 -1    0    0    0  501 0.00000000E+00 0.00000000E+00 -.19213844E+03 0.19213909E+03 0.50000000E+00 0.0000E+00 0.9000E+01
       25  2    1    2    0    0 -.13230981E+03 -.13271711E+03 0.12508927E+03 0.37552582E+03 0.30042071E+03 0.0000E+00 0.0000E+00
       23  2    1    2    0    0 0.50150766E+02 0.16669499E+03 0.45906082E+03 0.49864633E+03 0.87229598E+02 0.0000E+00 0.0000E+00
       23  1    3    3    0    0 0.39668304E+02 -.53012294E+02 0.12070982E+03 0.16513628E+03 0.91188000E+02 0.0000E+00 0.9000E+01
      -11  1    4    4    0    0 0.55107387E+02 0.74646534E+02 0.15232805E+03 0.17836133E+03 0.51099893E-03 0.0000E+00 0.9000E+01
       11  1    4    4    0    0 -.49566206E+01 0.92048452E+02 0.30673277E+03 0.32028500E+03 0.51099893E-03 0.0000E+00 0.9000E+01
       23  1    3    3    0    0 -.17197811E+03 -.79704814E+02 0.43794487E+01 0.21038954E+03 0.91188000E+02 0.0000E+00 0.9000E+01
       21  1    1    2  502  501 0.82159043E+02 -.33977879E+02 -.51931010E+01 0.89062537E+02 0.75000000E+00 0.0000E+00 0.9000E+01
#aMCatNLO 2  0  0  1  1 0.88907844D+02 0.00000000D+00  -5  7  0 0.00000000D+00 0.00000000D+00 0.00000000D+00 0.00000000D+00 0.00000000D+00
  <mgrwgt>
 0.4548215550D-05    1    2    0
 0.322118382087258D+03 0.000000000000000D+00 0.000000000000000D+00 0.322118382087258D+03
 0.322118382087258D+03 0.000000000000000D+00 0.000000000000000D+00 -.322118382087258D+03
 0.122478629470188D+03 0.546474487897575D+02 -.592071028862555D+02 0.139261854605932D+02
 0.106990636692324D+03 0.684294043298553D+02 0.691370508934102D+02 0.445475157180735D+02
 0.150987042667383D+03 0.144628116938775D+02 0.840173080920411D+02 0.124615432721300D+03
 0.263780455344620D+03 -.137539664813490D+03 -.939472560991958D+02 -.183089133899966D+03
 0.000000000000000D+00 0.000000000000000D+00 -.000000000000000D+00 -.000000000000000D+00
 0.343871154339406D+03 0.000000000000000D+00 0.000000000000000D+00 0.343871154339406D+03
 0.430848951428276D+03 0.000000000000000D+00 0.000000000000000D+00 -.430848951428276D+03
 0.113547644902651D+03 0.396683041441302D+02 -.530122940815090D+02 0.139261854605932D+02
 0.102924294294420D+03 0.551073870125784D+02 0.746465343870584D+02 0.445475157180735D+02
 0.155004811931481D+03 -.495662058161498D+01 0.920484522520993D+02 0.124615432721300D+03
 0.278865937738283D+03 -.171978113816743D+03 -.797048135462802D+02 -.183089133899966D+03
 0.124377416900847D+03 0.821590432416495D+02 -.339778790113684D+02 -.869777970888704D+02
0.129942169526D-05 0.000000000000D+00 0.000000000000D+00 0.405099262808D-07 0.367521571025D-10  7 3 -3 23 -11 11 23 21 2 0.11862975D+00 0.29559729D-01 0.89074890D+05 0.89074890D+05 0.89074890D+05 0.11258687D+01  1  2  1  1  7  1        3 0.454821554983D-05 0.100000000000D+01
  </mgrwgt>
  </event>
  <event>
  8     66 0.24912036E-05 0.22604564E+03 0.75467711E-02 0.97528430E-01
        1 -1    0    0  501    0 0.00000000E+00 0.00000000E+00 0.22243514E+04 0.22243514E+04 0.32000000E+00 0.0000E+00 0.9000E+01
       -1 -1    0    0    0  501 0.00000000E+00 0.00000000E+00 -.10750147E+03 0.10750195E+03 0.32000000E+00 0.0000E+00 0.9000E+01
       25  2    1    2    0    0 0.19031079E+02 -.25569454E+03 0.30442750E+03 0.49915377E+03 0.30122501E+03 0.0000E+00 0.0000E+00
       23  2    1    2    0    0 -.19031079E+02 0.25569454E+03 0.18124224E+04 0.18326996E+04 0.90393012E+02 0.0000E+00 0.0000E+00
       23  1    3    3    0    0 0.86144907E+01 0.28876563E+02 0.63136720E+02 0.11493286E+03 0.91188000E+02 0.0000E+00 0.9000E+01
      -13  1    4    4    0    0 -.55270886E+02 0.13607360E+03 0.97185447E+03 0.98288963E+03 0.10565837E+00 0.0000E+00 0.9000E+01
       13  1    4    4    0    0 0.36239807E+02 0.11962094E+03 0.84056793E+03 0.84980995E+03 0.10565837E+00 0.0000E+00 0.9000E+01
       23  1    3    3    0    0 0.10416588E+02 -.28457110E+03 0.24129078E+03 0.38422091E+03 0.91188000E+02 0.0000E+00 0.9000E+01
#aMCatNLO 1  0  0  2  1 0.10816227D+03 0.00000000D+00  -5  7  0 0.00000000D+00 0.00000000D+00 0.00000000D+00 0.00000000D+00 0.00000000D+00
  <mgrwgt>
 0.1665215693D-03    9    2    0
 0.489000646754990D+03 0.000000000000000D+00 0.000000000000000D+00 0.489000646754990D+03
 0.489000646754990D+03 0.000000000000000D+00 0.000000000000000D+00 -.489000646754990D+03
 0.137377745068999D+03 0.861449073019847D+01 0.288765626029576D+02 -.982309939781723D+02
 0.239963354695276D+03 -.552710106457800D+02 0.136073621246050D+03 0.189766953339593D+03
 0.206825891723989D+03 0.362399317247297D+02 0.119620917556828D+03 0.164786082297240D+03
 0.393834302021716D+03 0.104165881908518D+02 -.284571101405835D+03 -.256322041658661D+03
 0.000000000000000D+00 -.000000000000000D+00 0.000000000000000D+00 -.000000000000000D+00
 0.540574514319372D+03 0.000000000000000D+00 0.000000000000000D+00 0.540574514319372D+03
 0.552171964492954D+03 0.000000000000000D+00 0.000000000000000D+00 -.552171964492954D+03
 0.138264901399751D+03 0.232393668871237D+02 0.247494497682022D+02 -.982309939781723D+02
 0.231456277737242D+03 -.302587208909346D+02 0.129015199624821D+03 0.189766953339593D+03
 0.208351222684265D+03 0.582681409267432D+02 0.113404597914267D+03 0.164786082297240D+03
 0.405891828633486D+03 0.528479600055007D+02 -.296545155567627D+03 -.256322041658661D+03
 0.108782248357582D+03 -.104096746928433D+03 0.293759082603370D+02 -.115974501735819D+02
0.166213747056D-04 0.000000000000D+00 0.000000000000D+00 0.167075365865D-06 0.000000000000D+00  7 1 -1 23 -13 13 23 21 0 0.34220794D+00 0.16538727D-01 0.11119033D+06 0.11119033D+06 0.11119033D+06 0.11179612D+01  1  2  2  2  7  2       -1 0.119897112396D-03 0.100000000000D+01
-.758833885444D-06 0.000000000000D+00 -.638304553779D-07 0.167075365865D-06 0.000000000000D+00  7 1 -1 23 -13 13 23 21 2 0.34220794D+00 0.16538727D-01 0.11119033D+06 0.11119033D+06 0.11119033D+06 0.11179612D+01  1  2  3  2  7  2       -1 -.684135243051D-05 0.100000000000D+01
0.999450683594D-06 0.000000000000D+00 0.000000000000D+00 0.167075365865D-06 0.000000000000D+00  7 1 -1 23 -13 13 23 21 2 0.34220794D+00 0.16538727D-01 0.11119033D+06 0.11119033D+06 0.11119033D+06 0.11179612D+01  1  2 15  2  7  2       -1 0.901066029672D-05 0.100000000000D+01
0.120126320985D-04 0.000000000000D+00 0.000000000000D+00 0.167075365865D-06 0.000000000000D+00  7 1 -1 23 -13 13 23 21 2 0.34220794D+00 0.19447733D-01 0.15217685D+06 0.15217685D+06 0.15217685D+06 0.11070584D+01  1  2 12  2  7  2       -1 0.808788145906D-04 0.100000000000D+01
-.113149587358D-04 0.000000000000D+00 0.000000000000D+00 0.167075365865D-06 0.000000000000D+00  7 1 -1 23 -13 13 23 21 2 0.34220794D+00 0.16538727D-01 0.11119033D+06 0.11119033D+06 0.11119033D+06 0.11179612D+01  1  2  4  2  7  2       -1 -.102011285913D-03 0.100000000000D+01
-.244949690480D-04 0.000000000000D+00 -.100985470387D-04 0.167075365865D-06 0.000000000000D+00  7 1 -1 23 -13 13 23 21 2 0.34220794D+00 0.21131660D-01 0.11119033D+06 0.11119033D+06 0.11119033D+06 0.11179612D+01  1  2  5  2  7  2       -1 -.149290992770D-03 0.100000000000D+01
0.264668773894D-04 0.000000000000D+00 0.980270451606D-05 0.167075365865D-06 0.000000000000D+00  7 1 -1 23 -13 13 23 21 2 0.34220794D+00 0.16538727D-01 0.11119033D+06 0.11119033D+06 0.11119033D+06 0.11179612D+01  1  2  6  2  7  2       -1 0.238615116469D-03 0.100000000000D+01
0.291544424487D-06 0.000000000000D+00 0.000000000000D+00 0.167075365865D-06 0.000000000000D+00  7 1 21 23 -13 13 23 1 2 0.34220794D+00 0.19447733D-01 0.15217685D+06 0.15217685D+06 0.15217685D+06 0.11070584D+01  1  2 12  4  7  2       -1 0.236902069999D-04 0.100000000000D+01
-.653083496509D-06 0.000000000000D+00 -.336772749045D-06 0.167075365865D-06 0.000000000000D+00  7 1 21 23 -13 13 23 1 2 0.34220794D+00 0.21131660D-01 0.11119033D+06 0.11119033D+06 0.11119033D+06 0.11179612D+01  1  2  5  4  7  2       -1 -.474267103815D-04 0.100000000000D+01
  </mgrwgt>
  </event>
  <event>
  8     66 0.24912036E-05 0.27374381E+03 0.75467711E-02 0.91056646E-01
        1 -1    0    0  501    0 0.00000000E+00 0.00000000E+00 0.45145866E+04 0.45145866E+04 0.32000000E+00 0.0000E+00 0.9000E+01
       -1 -1    0    0    0  501 0.00000000E+00 0.00000000E+00 -.95354704E+02 0.95355241E+02 0.32000000E+00 0.0000E+00 0.9000E+01
       25  2    1    2    0    0 0.38884054E+03 0.48013035E+03 0.23368496E+04 0.24359280E+04 0.30192151E+03 0.0000E+00 0.0000E+00
       23  2    1    2    0    0 -.38884054E+03 -.48013035E+03 0.20823822E+04 0.21740139E+04 0.91096064E+02 0.0000E+00 0.0000E+00
       23  1    3    3    0    0 0.49667118E+01 0.60981837E+02 0.30768279E+03 0.32669161E+03 0.91188000E+02 0.0000E+00 0.9000E+01
      -13  1    4    4    0    0 -.32220359E+02 -.43328665E+02 0.10891336E+03 0.12156338E+03 0.10565837E+00 0.0000E+00 0.9000E+01
       13  1    4    4    0    0 -.35662018E+03 -.43680169E+03 0.19734689E+04 0.20524505E+04 0.10565837E+00 0.0000E+00 0.9000E+01
       23  1    3    3    0    0 0.38387383E+03 0.41914851E+03 0.20291669E+04 0.21092363E+04 0.91188000E+02 0.0000E+00 0.9000E+01
#aMCatNLO 1  0  0  1  2 0.81063921D+02 0.00000000D+00  -5  7  0 0.00000000D+00 0.00000000D+00 0.00000000D+00 0.00000000D+00 0.00000000D+00
  <mgrwgt>
 0.2748405691D-04    6    2    0
 0.656116097892240D+03 0.000000000000000D+00 0.000000000000000D+00 0.656116097892240D+03
 0.656116097892240D+03 0.000000000000000D+00 0.000000000000000D+00 -.656116097892240D+03
 0.111495277250546D+03 0.496671181722999D+01 0.609818368798894D+02 -.193000738251216D+02
 0.602681748834002D+02 -.322199224146237D+02 -.433281358799133D+02 -.267731608993691D+02
 0.564276489758134D+03 -.356620616164290D+03 -.436802214933150D+03 0.208210962693609D+02
 0.576192253892400D+03 0.383873826761683D+03 0.419148513933174D+03 0.252521384551298D+02
 0.000000000000000D+00 0.000000000000000D+00 0.000000000000000D+00 -.000000000000000D+00
 0.691114260800748D+03 0.000000000000000D+00 0.000000000000000D+00 0.691114260800748D+03
 0.706047316568910D+03 0.000000000000000D+00 0.000000000000000D+00 -.706047316568910D+03
 0.110239941772119D+03 -.153350173785633D+01 0.588451267369267D+02 -.193000738251216D+02
 0.631097746110593D+02 -.358367723820647D+02 -.445170445127625D+02 -.267731608993691D+02
 0.594707260070639D+03 -.390596463185649D+03 -.447970545993517D+03 0.208210962693609D+02
 0.546676720880335D+03 0.350956691799656D+03 0.408328196176752D+03 0.252521384551298D+02
 0.824278800355061D+02 0.770100455059140D+02 0.253142675926011D+02 -.149330557681616D+02
0.385951755882D-03 0.000000000000D+00 0.000000000000D+00 0.339248152679D-06 0.000000000000D+00  7 1 -1 23 -13 13 23 21 0 0.69455183D+00 0.14669997D-01 0.42467242D+06 0.42467242D+06 0.42467242D+06 0.10735587D+01  1  2  2  1  7  1        1 0.400692601837D-04 0.100000000000D+01
-.214405583606D-04 0.000000000000D+00 -.148215636602D-05 0.339248152679D-06 0.000000000000D+00  7 1 -1 23 -13 13 23 21 2 0.69455183D+00 0.14669997D-01 0.42467242D+06 0.42467242D+06 0.42467242D+06 0.10735587D+01  1  2  3  1  7  1        1 -.256546452821D-05 0.100000000000D+01
0.248453862303D-04 0.000000000000D+00 0.000000000000D+00 0.339248152679D-06 0.000000000000D+00  7 1 -1 23 -13 13 23 21 2 0.69455183D+00 0.14669997D-01 0.42467242D+06 0.42467242D+06 0.42467242D+06 0.10735587D+01  1  2 15  1  7  1        1 0.297286833634D-05 0.100000000000D+01
0.307057147826D-03 0.000000000000D+00 0.000000000000D+00 0.339248152679D-06 0.000000000000D+00  7 1 -1 23 -13 13 23 21 2 0.75640862D+00 0.14669997D-01 0.48107152D+06 0.48107152D+06 0.48107152D+06 0.10696969D+01  1  2 12  1  7  1        1 0.115574355115D-04 0.100000000000D+01
-.205227043922D-03 0.000000000000D+00 0.000000000000D+00 0.339248152679D-06 0.000000000000D+00  7 1 -1 23 -13 13 23 21 2 0.69455183D+00 0.14669997D-01 0.42467242D+06 0.42467242D+06 0.42467242D+06 0.10735587D+01  1  2  4  1  7  1        1 -.245563894632D-04 0.100000000000D+01
0.434162302199D-05 0.000000000000D+00 0.000000000000D+00 0.339248152679D-06 0.000000000000D+00  7 21 -1 23 -13 13 23 -1 2 0.75640862D+00 0.14669997D-01 0.48107152D+06 0.48107152D+06 0.48107152D+06 0.10696969D+01  1  2 12  3  7  1        1 0.634687345337D-08 0.100000000000D+01
  </mgrwgt>
  </event>
  <event>
  8     66 0.24912036E-05 0.95599867E+02 0.75467711E-02 0.99828927E-01
        1 -1    0    0  501    0 0.00000000E+00 0.00000000E+00 0.57034194E+03 0.57034203E+03 0.32000000E+00 0.0000E+00 0.9000E+01
       -1 -1    0    0    0  501 0.00000000E+00 0.00000000E+00 -.24251209E+03 0.24251230E+03 0.32000000E+00 0.0000E+00 0.9000E+01
       25  2    1    2    0    0 -.27661378E+03 -.14068437E+02 0.55793189E+02 0.41195368E+03 0.29979968E+03 0.0000E+00 0.0000E+00
       23  2    1    2    0    0 0.27661378E+03 0.14068437E+02 0.27203666E+03 0.40090065E+03 0.10002141E+03 0.0000E+00 0.0000E+00
       23  1    3    3    0    0 -.58004845E+02 -.33705580E+02 0.12079101E+03 0.16554862E+03 0.91188000E+02 0.0000E+00 0.9000E+01
      -11  1    4    4    0    0 0.97864038E+02 0.44360308E+02 0.14066840E+03 0.17701075E+03 0.51099893E-03 0.0000E+00 0.9000E+01
       11  1    4    4    0    0 0.17874974E+03 -.30291871E+02 0.13136826E+03 0.22388990E+03 0.51099893E-03 0.0000E+00 0.9000E+01
       23  1    3    3    0    0 -.21860894E+03 0.19637143E+02 -.64997818E+02 0.24640506E+03 0.91188000E+02 0.0000E+00 0.9000E+01
#aMCatNLO 1  0  0  1  2 0.76524881D+01 0.00000000D+00  -5  7  0 0.00000000D+00 0.00000000D+00 0.00000000D+00 0.00000000D+00 0.00000000D+00
  <mgrwgt>
 0.5595627385D-04   11    2    0
 0.371907165806130D+03 0.000000000000000D+00 0.000000000000000D+00 0.371907165806130D+03
 0.371907165806130D+03 0.000000000000000D+00 0.000000000000000D+00 -.371907165806130D+03
 0.127677049063356D+03 -.580048447309012D+02 -.337055797112380D+02 0.590385416283293D+02
 0.131442285510065D+03 0.978640378840137D+02 0.443603077809775D+02 0.757090985464936D+02
 0.186771664180517D+03 0.178749744739322D+03 -.302918706878813D+02 0.448841382518999D+02
 0.297923332858323D+03 -.218608937892435D+03 0.196371426181418D+02 -.179631778426723D+03
 0.000000000000000D+00 0.000000000000000D+00 0.000000000000000D+00 0.000000000000000D+00
 0.461969625362689D+03 0.000000000000000D+00 0.000000000000000D+00 0.461969625362689D+03
 0.372089438790020D+03 0.000000000000000D+00 0.000000000000000D+00 -.372089438790020D+03
 0.128373046554859D+03 -.591769385546123D+02 -.343063883770875D+02 0.590385416283293D+02
 0.130345069994454D+03 0.966656812039599D+02 0.437460369234830D+02 0.757090985464936D+02
 0.185287177500325D+03 0.177046609775290D+03 -.311648880392245D+02 0.448841382518999D+02
 0.299848401569192D+03 -.221345295229931D+03 0.182345013210283D+02 -.179631778426723D+03
 0.902053685338808D+02 0.680994280529379D+01 0.349073817180072D+01 0.898801865726691D+02
0.182196329475D-05 0.000000000000D+00 0.000000000000D+00 0.105094689302D-07 0.000000000000D+00  7 1 -1 23 -11 11 23 21 0 0.87744937D-01 0.37309576D-01 0.10228226D+06 0.10228226D+06 0.10228226D+06 0.11209187D+01  1  2  2  1  7  1        1 0.554153185369D-04 0.100000000000D+01
-.984178577428D-07 0.000000000000D+00 -.699681878577D-08 0.105094689302D-07 0.000000000000D+00  7 1 -1 23 -11 11 23 21 2 0.87744937D-01 0.37309576D-01 0.10228226D+06 0.10228226D+06 0.10228226D+06 0.11209187D+01  1  2  3  1  7  1        1 -.376107807201D-05 0.100000000000D+01
0.116747134382D-06 0.000000000000D+00 0.000000000000D+00 0.105094689302D-07 0.000000000000D+00  7 1 -1 23 -11 11 23 21 2 0.87744937D-01 0.37309576D-01 0.10228226D+06 0.10228226D+06 0.10228226D+06 0.11209187D+01  1  2 15  1  7  1        1 0.446153876102D-05 0.100000000000D+01
0.270401483063D-03 0.000000000000D+00 0.000000000000D+00 0.105094689302D-07 0.000000000000D+00  7 1 -1 23 -11 11 23 21 2 0.10901164D+00 0.37309576D-01 0.10484732D+06 0.10484732D+06 0.10484732D+06 0.11200390D+01  1  2 12  1  7  1        1 0.751038954330D-02 0.100000000000D+01
-.267551352006D-03 0.000000000000D+00 0.000000000000D+00 0.105094689302D-07 0.000000000000D+00  7 1 -1 23 -11 11 23 21 2 0.87744937D-01 0.37309576D-01 0.10228226D+06 0.10228226D+06 0.10228226D+06 0.11209187D+01  1  2  4  1  7  1        1 -.102245826748D-01 0.100000000000D+01
-.275780825616D-03 0.000000000000D+00 -.122265104897D-05 0.105094689302D-07 0.000000000000D+00  7 1 -1 23 -11 11 23 21 2 0.10901498D+00 0.37309576D-01 0.10228226D+06 0.10228226D+06 0.10228226D+06 0.11209187D+01  1  2  5  1  7  1        1 -.767549100627D-02 0.100000000000D+01
0.269696605019D-03 0.000000000000D+00 0.119440548836D-05 0.105094689302D-07 0.000000000000D+00  7 1 -1 23 -11 11 23 21 2 0.87744937D-01 0.37309576D-01 0.10228226D+06 0.10228226D+06 0.10228226D+06 0.11209187D+01  1  2  6  1  7  1        1 0.103065643827D-01 0.100000000000D+01
0.315175282698D-05 0.000000000000D+00 0.000000000000D+00 0.105094689302D-07 0.123308575499D-08  7 1 -1 23 -11 11 23 21 2 0.10899359D+00 0.37327861D-01 0.10484732D+06 0.10484732D+06 0.10484732D+06 0.11200390D+01  1  2 11  1  7  1        1 0.874881193748D-04 0.100000000000D+01
0.823435264975D-05 0.000000000000D+00 0.000000000000D+00 0.105094689302D-07 0.000000000000D+00  7 21 -1 23 -11 11 23 -1 2 0.10901164D+00 0.37309576D-01 0.10484732D+06 0.10484732D+06 0.10484732D+06 0.11200390D+01  1  2 12  3  7  1        1 0.475692138528D-03 0.100000000000D+01
-.838287103678D-05 0.000000000000D+00 -.372365322356D-07 0.105094689302D-07 0.000000000000D+00  7 21 -1 23 -11 11 23 -1 2 0.10901498D+00 0.37309576D-01 0.10228226D+06 0.10228226D+06 0.10228226D+06 0.11209187D+01  1  2  5  3  7  1        1 -.485710427076D-03 0.100000000000D+01
0.950790019042D-07 0.000000000000D+00 0.000000000000D+00 0.105094689302D-07 0.371945788593D-10  7 21 -1 23 -11 11 23 -1 2 0.10899359D+00 0.37327861D-01 0.10484732D+06 0.10484732D+06 0.10484732D+06 0.11200390D+01  1  2 11  3  7  1        1 0.549041884065D-05 0.100000000000D+01
  </mgrwgt>
  </event>
  <event>
  8     66 0.24912036E-05 0.48065994E+03 0.75467711E-02 0.94606517E-01
        1 -1    0    0  501    0 0.00000000E+00 0.00000000E+00 0.11870359E+04 0.11870359E+04 0.32000000E+00 0.0000E+00 0.9000E+01
       -1 -1    0    0    0  501 0.00000000E+00 0.00000000E+00 -.22358845E+03 0.22358868E+03 0.32000000E+00 0.0000E+00 0.9000E+01
       25  2    1    2    0    0 -.43083879E+03 -.85007146E+02 0.30248017E+03 0.61178978E+03 0.29990700E+03 0.0000E+00 0.0000E+00
       23  2    1    2    0    0 0.43083879E+03 0.85007146E+02 0.66096727E+03 0.79883482E+03 0.91711879E+02 0.0000E+00 0.0000E+00
       23  1    3    3    0    0 -.17276169E+03 0.70054804E+02 0.17821728E+03 0.27355242E+03 0.91188000E+02 0.0000E+00 0.9000E+01
      -13  1    4    4    0    0 0.40899575E+03 0.79080212E+02 0.57564714E+03 0.71056375E+03 0.10565837E+00 0.0000E+00 0.9000E+01
       13  1    4    4    0    0 0.21843040E+02 0.59269340E+01 0.85320125E+02 0.88271070E+02 0.10565837E+00 0.0000E+00 0.9000E+01
       23  1    3    3    0    0 -.25807710E+03 -.15506195E+03 0.12426289E+03 0.33823736E+03 0.91188000E+02 0.0000E+00 0.9000E+01
#aMCatNLO 1  0  0  1  1 0.39909596D+02 0.00000000D+00  -5  7  0 0.00000000D+00 0.00000000D+00 0.00000000D+00 0.00000000D+00 0.00000000D+00
  <mgrwgt>
 0.3780309427D-03    3    2    0
 0.515177353950424D+03 0.000000000000000D+00 0.000000000000000D+00 0.515177353950424D+03
 0.515177353950424D+03 0.000000000000000D+00 0.000000000000000D+00 -.515177353950424D+03
 0.207867054843896D+03 -.172761692730589D+03 0.700548038350346D+02 -.117975900069344D+02
 0.434543063517297D+03 0.408996264490258D+03 0.790803092614225D+02 0.123677137625069D+03
 0.410687208474887D+02 0.218425257114410D+02 0.592683691127367D+01 0.342697608223511D+02
 0.346875868692166D+03 -.258077097471110D+03 -.155061950007731D+03 -.146149308440486D+03
 0.000000000000000D+00 0.000000000000000D+00 -.000000000000000D+00 -.000000000000000D+00
 0.515964522843040D+03 0.000000000000000D+00 0.000000000000000D+00 0.515964522843040D+03
 0.150893585287235D+04 0.000000000000000D+00 0.000000000000000D+00 -.150893585287235D+04
 0.212516712615950D+03 -.175061378683344D+03 0.778616231567598D+02 -.117975900069344D+02
 0.433330709916903D+03 0.404248609418820D+03 0.951973296311775D+02 0.123677137625069D+03
 0.410806644923279D+02 0.213931320808664D+02 0.745240820679233D+01 0.342697608223511D+02
 0.344199257185588D+03 -.261857585402132D+03 -.142228203647671D+03 -.146149308440486D+03
 0.993773031504622D+03 0.112772225857897D+02 -.382831573470589D+02 -.992971330029310D+03
0.360070368768D-04 0.000000000000D+00 0.000000000000D+00 0.207385077389D-05 0.000000000000D+00  7 1 -1 23 -13 13 23 21 0 0.18262093D+00 0.34398244D-01 0.23103398D+06 0.23103398D+06 0.23103398D+06 0.10930462D+01  1  2  2  1  7  1        1 0.374738308125D-03 0.100000000000D+01
-.198869314046D-05 0.000000000000D+00 -.138276502477D-06 0.207385077389D-05 0.000000000000D+00  7 1 -1 23 -13 13 23 21 2 0.18262093D+00 0.34398244D-01 0.23103398D+06 0.23103398D+06 0.23103398D+06 0.10930462D+01  1  2  3  1  7  1        1 -.247278018026D-04 0.100000000000D+01
0.225349790654D-05 0.000000000000D+00 0.000000000000D+00 0.207385077389D-05 0.000000000000D+00  7 1 -1 23 -13 13 23 21 2 0.18262093D+00 0.34398244D-01 0.23103398D+06 0.23103398D+06 0.23103398D+06 0.10930462D+01  1  2 15  1  7  1        1 0.280204363669D-04 0.100000000000D+01
  </mgrwgt>
  </event>
  <event>
  8     66 0.24912036E-05 0.97076505E+02 0.75467711E-02 0.10627884E+00
        1 -1    0    0  501    0 0.00000000E+00 0.00000000E+00 0.32405054E+03 0.32405070E+03 0.32000000E+00 0.0000E+00 0.9000E+01
       -1 -1    0    0    0  501 0.00000000E+00 0.00000000E+00 -.15595748E+03 0.15595781E+03 0.32000000E+00 0.0000E+00 0.9000E+01
       25  2    1    2    0    0 -.40084457E+02 0.69700037E+02 0.17780438E+03 0.35757346E+03 0.29963232E+03 0.0000E+00 0.0000E+00
       23  2    1    2    0    0 0.40084457E+02 -.69700037E+02 -.97113189E+01 0.12243505E+03 0.91821414E+02 0.0000E+00 0.0000E+00
       23  1    3    3    0    0 -.10232242E+03 0.46274889E+02 0.19563844E+03 0.24331233E+03 0.91188000E+02 0.0000E+00 0.9000E+01
      -11  1    4    4    0    0 -.18037550E+02 0.12069089E+02 -.77854918E+00 0.21716865E+02 0.51099893E-03 0.0000E+00 0.9000E+01
       11  1    4    4    0    0 0.58122007E+02 -.81769126E+02 -.89327697E+01 0.10071818E+03 0.51099893E-03 0.0000E+00 0.9000E+01
       23  1    3    3    0    0 0.62237958E+02 0.23425148E+02 -.17834058E+02 0.11426113E+03 0.91188000E+02 0.0000E+00 0.9000E+01
#aMCatNLO 1  0  0  1  2 0.21993322D+02 0.00000000D+00  -5  7  0 0.00000000D+00 0.00000000D+00 0.00000000D+00 0.00000000D+00 0.00000000D+00
  <mgrwgt>
 0.1672073356D-03    9    2    0
 0.224807080201000D+03 0.000000000000000D+00 0.000000000000000D+00 0.224807080201000D+03
 0.224807080201000D+03 0.000000000000000D+00 0.000000000000000D+00 -.224807080201000D+03
 0.186618960237160D+03 -.102322415583028D+03 0.462748895645447D+02 0.117898867004913D+03
 0.234760151212884D+02 -.180375495334340D+02 0.120690886380431D+02 -.895026213308491D+01
 0.110866438810952D+03 0.581220068429833D+02 -.817691261597691D+02 -.471912023817422D+02
 0.128652746232599D+03 0.622379582734783D+02 0.234251479571814D+02 -.617574024900858D+02
 0.000000000000000D+00 -.000000000000000D+00 -.000000000000000D+00 0.000000000000000D+00
 0.306118708940093D+03 0.000000000000000D+00 0.000000000000000D+00 0.306118708940093D+03
 0.226568007173020D+03 0.000000000000000D+00 0.000000000000000D+00 -.226568007173020D+03
 0.182058582199205D+03 -.933465607248133D+02 0.470781559557215D+02 0.117898867004913D+03
 0.226778953965716D+02 -.169138824958118D+02 0.121696477469472D+02 -.895026213308491D+01
 0.113474250818577D+03 0.635838243857589D+02 -.812803376782089D+02 -.471912023817422D+02
 0.131941023167807D+03 0.685823963849934D+02 0.239929238388532D+02 -.617574024900858D+02
 0.825349645309526D+02 -.219057775501271D+02 -.196038986331303D+01 0.795507017670729D+02
0.102551758626D-05 0.000000000000D+00 0.000000000000D+00 0.107258314187D-06 0.000000000000D+00  7 1 -1 23 -11 11 23 21 0 0.49853967D-01 0.23993496D-01 0.36013576D+05 0.36013576D+05 0.36013576D+05 0.11600450D+01  1  2  2  1  7  1        1 0.139563699030D-03 0.100000000000D+01
-.549849722057D-07 0.000000000000D+00 -.393825755620D-08 0.107258314187D-06 0.000000000000D+00  7 1 -1 23 -11 11 23 21 2 0.49853967D-01 0.23993496D-01 0.36013576D+05 0.36013576D+05 0.36013576D+05 0.11600450D+01  1  2  3  1  7  1        1 -.100698504127D-04 0.100000000000D+01
0.671747121951D-07 0.000000000000D+00 0.000000000000D+00 0.107258314187D-06 0.000000000000D+00  7 1 -1 23 -11 11 23 21 2 0.49853967D-01 0.23993496D-01 0.36013576D+05 0.36013576D+05 0.36013576D+05 0.11600450D+01  1  2 15  1  7  1        1 0.123022578021D-04 0.100000000000D+01
0.110961841138D-04 0.000000000000D+00 0.000000000000D+00 0.107258314187D-06 0.000000000000D+00  7 1 -1 23 -11 11 23 21 2 0.68029381D-01 0.23993496D-01 0.40270154D+05 0.40270154D+05 0.40270154D+05 0.11556553D+01  1  2 12  1  7  1        1 0.134072059153D-02 0.100000000000D+01
-.107100506686D-04 0.000000000000D+00 0.000000000000D+00 0.107258314187D-06 0.000000000000D+00  7 1 -1 23 -11 11 23 21 2 0.49853967D-01 0.23993496D-01 0.36013576D+05 0.36013576D+05 0.36013576D+05 0.11600450D+01  1  2  4  1  7  1        1 -.196141970831D-02 0.100000000000D+01
-.116697637622D-04 0.000000000000D+00 -.534329659858D-06 0.107258314187D-06 0.000000000000D+00  7 1 -1 23 -11 11 23 21 2 0.68130280D-01 0.23993496D-01 0.36013576D+05 0.36013576D+05 0.36013576D+05 0.11600450D+01  1  2  5  1  7  1        1 -.141791789566D-02 0.100000000000D+01
0.113057755875D-04 0.000000000000D+00 0.509287580547D-06 0.107258314187D-06 0.000000000000D+00  7 1 -1 23 -11 11 23 21 2 0.49853967D-01 0.23993496D-01 0.36013576D+05 0.36013576D+05 0.36013576D+05 0.11600450D+01  1  2  6  1  7  1        1 0.207051971471D-02 0.100000000000D+01
0.440058885134D-06 0.000000000000D+00 0.000000000000D+00 0.107258314187D-06 0.000000000000D+00  7 21 -1 23 -11 11 23 -1 2 0.68029381D-01 0.23993496D-01 0.40270154D+05 0.40270154D+05 0.40270154D+05 0.11556553D+01  1  2 12  3  7  1        1 0.186455983693D-03 0.100000000000D+01
-.451649565985D-06 0.000000000000D+00 -.212635607639D-07 0.107258314187D-06 0.000000000000D+00  7 21 -1 23 -11 11 23 -1 2 0.68130280D-01 0.23993496D-01 0.36013576D+05 0.36013576D+05 0.36013576D+05 0.11600450D+01  1  2  5  3  7  1        1 -.192947456773D-03 0.100000000000D+01
  </mgrwgt>
  </event>
  <event>
  8     66 0.24912036E-05 0.39169843E+03 0.75467711E-02 0.95810437E-01
        1 -1    0    0  501    0 0.00000000E+00 0.00000000E+00 0.13755042E+04 0.13755042E+04 0.32000000E+00 0.0000E+00 0.9000E+01
       -1 -1    0    0    0  501 0.00000000E+00 0.00000000E+00 -.12472572E+03 0.12472613E+03 0.32000000E+00 0.0000E+00 0.9000E+01
       25  2    1    2    0    0 0.31410420E+03 0.15671662E+03 0.71741290E+03 0.85522579E+03 0.30579132E+03 0.0000E+00 0.0000E+00
       23  2    1    2    0    0 -.31410420E+03 -.15671662E+03 0.53336555E+03 0.64500455E+03 0.91271632E+02 0.0000E+00 0.0000E+00
       23  1    3    3    0    0 0.24650108E+02 0.58126724E+02 0.63977908E+02 0.12804206E+03 0.91188000E+02 0.0000E+00 0.9000E+01
      -11  1    4    4    0    0 -.91655541E+02 -.25537002E+02 0.21467538E+03 0.23481566E+03 0.51099893E-03 0.0000E+00 0.9000E+01
       11  1    4    4    0    0 -.22244866E+03 -.13117962E+03 0.31869017E+03 0.41018889E+03 0.51099893E-03 0.0000E+00 0.9000E+01
       23  1    3    3    0    0 0.28945409E+03 0.98589899E+02 0.65343499E+03 0.72718373E+03 0.91188000E+02 0.0000E+00 0.9000E+01
#aMCatNLO 1  0  0  1  2 0.11115610D+03 0.00000000D+00  -5  7  0 0.00000000D+00 0.00000000D+00 0.00000000D+00 0.00000000D+00 0.00000000D+00
  <mgrwgt>
 0.2243311901D-03    4    2    0
 0.414199328913837D+03 0.000000000000000D+00 0.000000000000000D+00 0.414199328913837D+03
 0.414199328913837D+03 0.000000000000000D+00 0.000000000000000D+00 -.414199328913837D+03
 0.135285572911249D+03 0.246501084477641D+02 0.581267236181601D+02 -.774634820341575D+02
 0.101118272547343D+03 -.916555405270712D+02 -.255370024021893D+02 0.342349009339834D+02
 0.261669928681744D+03 -.222448661535819D+03 -.131179620082049D+03 -.421859198354228D+02
 0.330324883687340D+03 0.289454093615126D+03 0.985898988660787D+02 0.854145009355969D+02
 0.000000000000000D+00 0.000000000000000D+00 -.000000000000000D+00 -.000000000000000D+00
 0.431440039869582D+03 0.000000000000000D+00 0.000000000000000D+00 0.431440039869582D+03
 0.646237279599258D+03 0.000000000000000D+00 0.000000000000000D+00 -.646237279599258D+03
 0.136199748280632D+03 0.771733292438642D+01 0.646140217861848D+02 -.774634820341575D+02
 0.112283111296445D+03 -.104965570377455D+03 -.204376533825593D+02 0.342349009339834D+02
 0.285590733959891D+03 -.256581784875980D+03 -.118102511240213D+03 -.421859198354228D+02
 0.301749363134636D+03 0.250031073289176D+03 0.113693677167837D+03 0.854145009355969D+02
 0.241854362797236D+03 0.103798949039873D+03 -.397675343312493D+02 -.214797239729676D+03
0.117086756868D-04 0.000000000000D+00 0.000000000000D+00 0.117421892780D-07 0.000000000000D+00  7 1 -1 23 -11 11 23 21 0 0.21161606D+00 0.19188607D-01 0.15342766D+06 0.15342766D+06 0.15342766D+06 0.11067784D+01  1  2  2  1  7  1        1 0.239910733441D-03 0.100000000000D+01
-.648014566942D-06 0.000000000000D+00 -.449643976026D-07 0.117421892780D-07 0.000000000000D+00  7 1 -1 23 -11 11 23 21 2 0.21161606D+00 0.19188607D-01 0.15342766D+06 0.15342766D+06 0.15342766D+06 0.11067784D+01  1  2  3  1  7  1        1 -.162647732633D-04 0.100000000000D+01
0.758375311023D-06 0.000000000000D+00 0.000000000000D+00 0.117421892780D-07 0.000000000000D+00  7 1 -1 23 -11 11 23 21 2 0.21161606D+00 0.19188607D-01 0.15342766D+06 0.15342766D+06 0.15342766D+06 0.11067784D+01  1  2 15  1  7  1        1 0.190347611173D-04 0.100000000000D+01
-.731074656565D-06 0.000000000000D+00 0.000000000000D+00 0.117421892780D-07 0.000000000000D+00  7 1 -1 23 -11 11 23 21 2 0.21161606D+00 0.19188607D-01 0.15342766D+06 0.15342766D+06 0.15342766D+06 0.11067784D+01  1  2  4  1  7  1        1 -.183495312207D-04 0.100000000000D+01
  </mgrwgt>
  </event>
  <event>
  8     66 0.24912036E-05 0.21787831E+03 0.75467711E-02 0.87846882E-01
        1 -1    0    0  501    0 0.00000000E+00 0.00000000E+00 0.16734822E+04 0.16734823E+04 0.32000000E+00 0.0000E+00 0.9000E+01
       -1 -1    0    0    0  501 0.00000000E+00 0.00000000E+00 -.63533083E+02 0.63533889E+02 0.32000000E+00 0.0000E+00 0.9000E+01
       25  2    1    2    0    0 -.12977939E+03 0.17815905E+02 0.40150895E+03 0.51801829E+03 0.29995569E+03 0.0000E+00 0.0000E+00
       23  2    1    2    0    0 0.12977939E+03 -.17815905E+02 0.12084402E+04 0.12189979E+04 0.92021581E+02 0.0000E+00 0.0000E+00
       23  1    3    3    0    0 -.16721927E+03 -.14256851E+02 0.14029795E+03 0.23699010E+03 0.91188000E+02 0.0000E+00 0.9000E+01
      -13  1    4    4    0    0 0.55510832E+01 -.15912431E+02 0.33435527E+02 0.37442831E+02 0.10565837E+00 0.0000E+00 0.9000E+01
       13  1    4    4    0    0 0.12422831E+03 -.19034736E+01 0.11750047E+04 0.11815550E+04 0.10565837E+00 0.0000E+00 0.9000E+01
       23  1    3    3    0    0 0.37439877E+02 0.32072756E+02 0.26121100E+03 0.28102819E+03 0.91188000E+02 0.0000E+00 0.9000E+01
#aMCatNLO 1  0  0  2  2 0.90486824D+03 0.00000000D+00  -5  7  0 0.00000000D+00 0.00000000D+00 0.00000000D+00 0.00000000D+00 0.00000000D+00
  <mgrwgt>
 0.2704309384D-03    5    2    0
 0.326070869150518D+03 0.000000000000000D+00 0.000000000000000D+00 0.326070869150518D+03
 0.326070869150518D+03 0.000000000000000D+00 0.000000000000000D+00 -.326070869150518D+03
 0.284881423804388D+03 -.167219266844200D+03 -.142568511744805D+02 -.211368477487757D+03
 0.171881456750628D+02 0.555092681291076D+01 -.159124492258661D+02 -.337839057823754D+01
 0.246392133085409D+03 0.124228463541729D+03 -.190345539095152D+01 0.212773938606244D+03
 0.103680035736177D+03 0.374398764895601D+02 0.320727557912981D+02 0.197292945975023D+01
 0.000000000000000D+00 -.000000000000000D+00 -.000000000000000D+00 -.000000000000000D+00
 0.668173946107390D+03 0.000000000000000D+00 0.000000000000000D+00 0.668173946107390D+03
 0.241042872714037D+04 0.000000000000000D+00 0.000000000000000D+00 -.241042872714037D+04
 0.372497934985890D+03 -.268644123650560D+02 0.291618124089605D+03 -.211368477487757D+03
 0.125424230141681D+02 0.118986004752511D+02 -.207898025425076D+01 -.337839057823754D+01
 0.490900659639007D+03 0.281645366350768D+03 0.341154798144684D+03 0.212773938606244D+03
 0.239440256503286D+03 0.110698335311166D+03 0.191724727667151D+03 0.197292945975023D+01
 0.196322139910540D+04 -.377377889772129D+03 -.822418669647189D+03 -.174225478103298D+04
0.661071120474D-05 0.000000000000D+00 0.000000000000D+00 0.110591505494D-05 0.000000000000D+00  7 1 -1 23 -13 13 23 21 0 0.25745887D+00 0.97743848D-02 0.47470959D+05 0.47470959D+05 0.47470959D+05 0.11492835D+01  1  2  2  2  7  2       -1 0.253460760966D-03 0.100000000000D+01
-.294676056479D-06 0.000000000000D+00 -.253868716664D-07 0.110591505494D-05 0.000000000000D+00  7 1 -1 23 -13 13 23 21 2 0.25745887D+00 0.97743848D-02 0.47470959D+05 0.47470959D+05 0.47470959D+05 0.11492835D+01  1  2  3  2  7  2       -1 -.149231916207D-04 0.100000000000D+01
0.407899153463D-06 0.000000000000D+00 0.000000000000D+00 0.110591505494D-05 0.000000000000D+00  7 1 -1 23 -13 13 23 21 2 0.25745887D+00 0.97743848D-02 0.47470959D+05 0.47470959D+05 0.47470959D+05 0.11492835D+01  1  2 15  2  7  2       -1 0.206571151446D-04 0.100000000000D+01
0.166916249810D-04 0.000000000000D+00 -.749256831801D-05 0.110591505494D-05 0.000000000000D+00  7 1 -1 23 -13 13 23 21 2 0.25745887D+00 0.16062704D+00 0.47470959D+05 0.47470959D+05 0.47470959D+05 0.11492835D+01  1  2  5  2  7  2       -1 0.476611899095D-05 0.100000000000D+01
0.344168152720D-05 0.000000000000D+00 -.232851579196D-05 0.110591505494D-05 0.000000000000D+00  7 1 21 23 -13 13 23 1 2 0.25745887D+00 0.16062704D+00 0.47470959D+05 0.47470959D+05 0.47470959D+05 0.11492835D+01  1  2  5  4  7  2       -1 0.647013489622D-05 0.100000000000D+01
  </mgrwgt>
  </event>
  <event>
  8     66 0.24912036E-05 0.30007407E+03 0.75467711E-02 0.95113618E-01
        1 -1    0    0  501    0 0.00000000E+00 0.00000000E+00 0.34736329E+03 0.34736343E+03 0.32000000E+00 0.0000E+00 0.9000E+01
       -1 -1    0    0    0  501 0.00000000E+00 0.00000000E+00 -.66712576E+03 0.66712584E+03 0.32000000E+00 0.0000E+00 0.9000E+01
       25  2    1    2    0    0 -.11024184E+03 0.35730167E+03 -.39707263E+03 0.62239020E+03 0.29980851E+03 0.0000E+00 0.0000E+00
       23  2    1    2    0    0 0.11024184E+03 -.35730167E+03 0.77310157E+02 0.39209907E+03 0.89146365E+02 0.0000E+00 0.0000E+00
       23  1    3    3    0    0 0.29109000E+02 0.27953111E+03 -.24305340E+03 0.38259010E+03 0.91188000E+02 0.0000E+00 0.9000E+01
      -11  1    4    4    0    0 0.74400116E+02 -.25702884E+03 0.13419417E+02 0.26791656E+03 0.51099893E-03 0.0000E+00 0.9000E+01
       11  1    4    4    0    0 0.35841720E+02 -.10027283E+03 0.63890740E+02 0.12418251E+03 0.51099893E-03 0.0000E+00 0.9000E+01
       23  1    3    3    0    0 -.13935084E+03 0.77770560E+02 -.15401923E+03 0.23980011E+03 0.91188000E+02 0.0000E+00 0.9000E+01
#aMCatNLO 1  0  0  2  1 0.10227921D+03 0.00000000D+00  -5  7  0 0.00000000D+00 0.00000000D+00 0.00000000D+00 0.00000000D+00 0.00000000D+00
  <mgrwgt>
 0.2039622676D-03    9    2    0
 0.481388731703744D+03 0.000000000000000D+00 0.000000000000000D+00 0.481388731703744D+03
 0.481388731703744D+03 0.000000000000000D+00 0.000000000000000D+00 -.481388731703744D+03
 0.322415308484615D+03 0.291089998212080D+02 0.279531110846147D+03 -.129040319279509D+03
 0.286763570034856D+03 0.744001160132239D+02 -.257028841291386D+03 0.103121979135207D+03
 0.152072198193714D+03 0.358417197545128D+02 -.100272829082232D+03 0.108566497301667D+03
 0.201526386694302D+03 -.139350835588945D+03 0.777705595274711D+02 -.826481571573644D+02
 0.000000000000000D+00 0.000000000000000D+00 -.000000000000000D+00 -.000000000000000D+00
 0.504970929879112D+03 0.000000000000000D+00 0.000000000000000D+00 0.504970929879112D+03
 0.609388664765779D+03 0.000000000000000D+00 0.000000000000000D+00 -.609388664765779D+03
 0.341836635086074D+03 0.299640694484193D+01 0.303111615232133D+03 -.129040319279509D+03
 0.264211138613115D+03 0.527405960203136D+02 -.237469603776776D+03 0.103121979135207D+03
 0.142962736420499D+03 0.242435193932573D+02 -.897992841614721D+02 0.108566497301667D+03
 0.219184450121693D+03 -.155889516291024D+03 0.927055158024098D+02 -.826481571573644D+02
 0.146164634403512D+03 0.759089939326113D+02 -.685482430962946D+02 -.104417734886667D+03
0.168890723185D-04 0.000000000000D+00 0.000000000000D+00 0.499187499705D-06 0.000000000000D+00  7 1 -1 23 -11 11 23 21 0 0.53440523D-01 0.10263475D+00 0.18204373D+06 0.18204373D+06 0.18204373D+06 0.11009769D+01  1  2  2  2  7  2       -1 0.143397688565D-03 0.100000000000D+01
-.921669014144D-06 0.000000000000D+00 -.648584846978D-07 0.499187499705D-06 0.000000000000D+00  7 1 -1 23 -11 11 23 21 2 0.53440523D-01 0.10263475D+00 0.18204373D+06 0.18204373D+06 0.18204373D+06 0.11009769D+01  1  2  3  2  7  2       -1 -.948566528079D-05 0.100000000000D+01
0.106673121586D-05 0.000000000000D+00 0.000000000000D+00 0.499187499705D-06 0.000000000000D+00  7 1 -1 23 -11 11 23 21 2 0.53440523D-01 0.10263475D+00 0.18204373D+06 0.18204373D+06 0.18204373D+06 0.11009769D+01  1  2 15  2  7  2       -1 0.109786215040D-04 0.100000000000D+01
0.270927143159D-04 0.000000000000D+00 0.000000000000D+00 0.499187499705D-06 0.000000000000D+00  7 1 -1 23 -11 11 23 21 2 0.53440523D-01 0.13195602D+00 0.22948877D+06 0.22948877D+06 0.22948877D+06 0.10932671D+01  1  2 12  2  7  2       -1 0.148515212077D-03 0.100000000000D+01
-.280611553808D-04 0.000000000000D+00 0.000000000000D+00 0.499187499705D-06 0.000000000000D+00  7 1 -1 23 -11 11 23 21 2 0.53440523D-01 0.10263475D+00 0.18204373D+06 0.18204373D+06 0.18204373D+06 0.11009769D+01  1  2  4  2  7  2       -1 -.288800776906D-03 0.100000000000D+01
-.413018745164D-04 0.000000000000D+00 -.882489233506D-05 0.499187499705D-06 0.000000000000D+00  7 1 -1 23 -11 11 23 21 2 0.53440523D-01 0.13357997D+00 0.18204373D+06 0.18204373D+06 0.18204373D+06 0.11009769D+01  1  2  5  2  7  2       -1 -.224515488296D-03 0.100000000000D+01
0.424429722235D-04 0.000000000000D+00 0.852709382727D-05 0.499187499705D-06 0.000000000000D+00  7 1 -1 23 -11 11 23 21 2 0.53440523D-01 0.10263475D+00 0.18204373D+06 0.18204373D+06 0.18204373D+06 0.11009769D+01  1  2  6  2  7  2       -1 0.436816060707D-03 0.100000000000D+01
0.920397278653D-06 0.000000000000D+00 0.000000000000D+00 0.499187499705D-06 0.000000000000D+00  7 1 21 23 -11 11 23 1 2 0.53440523D-01 0.13195602D+00 0.22948877D+06 0.22948877D+06 0.22948877D+06 0.10932671D+01  1  2 12  4  7  2       -1 0.325551118657D-04 0.100000000000D+01
-.129183583742D-05 0.000000000000D+00 -.310452727485D-06 0.499187499705D-06 0.000000000000D+00  7 1 21 23 -11 11 23 1 2 0.53440523D-01 0.13357997D+00 0.18204373D+06 0.18204373D+06 0.18204373D+06 0.11009769D+01  1  2  5  4  7  2       -1 -.454984966785D-04 0.100000000000D+01
  </mgrwgt>
  </event>
  <event>
  9     66 0.24912036E-05 0.30812734E+03 0.75467711E-02 0.97819891E-01
        1 -1    0    0  502    0 0.00000000E+00 0.00000000E+00 0.11715131E+04 0.11715131E+04 0.32000000E+00 0.0000E+00 0.9000E+01
       -1 -1    0    0    0  501 0.00000000E+00 0.00000000E+00 -.20632038E+03 0.20632063E+03 0.32000000E+00 0.0000E+00 0.9000E+01
       25  2    1    2    0    0 -.32942691E+03 0.36193681E+02 0.15800743E+03 0.47445575E+03 0.30051596E+03 0.0000E+00 0.0000E+00
       23  2    1    2    0    0 0.20645147E+03 0.13604022E+02 0.69078074E+03 0.72687490E+03 0.91442920E+02 0.0000E+00 0.0000E+00
       23  1    3    3    0    0 -.26441022E+03 0.76306568E+02 0.17627584E+02 0.29045041E+03 0.91188000E+02 0.0000E+00 0.9000E+01
      -13  1    4    4    0    0 0.12636599E+03 -.28579892E+02 0.32059880E+03 0.34578718E+03 0.10565837E+00 0.0000E+00 0.9000E+01
       13  1    4    4    0    0 0.80085477E+02 0.42183914E+02 0.37018194E+03 0.38108772E+03 0.10565837E+00 0.0000E+00 0.9000E+01
       23  1    3    3    0    0 -.65016687E+02 -.40112887E+02 0.14037985E+03 0.18400534E+03 0.91188000E+02 0.0000E+00 0.9000E+01
       21  1    1    2  502  501 0.12297543E+03 -.49797703E+02 0.11640454E+03 0.17650311E+03 0.75000000E+00 0.0000E+00 0.9000E+01
#aMCatNLO 2  0  0  1  2 0.13267543D+03 0.00000000D+00  -5  7  0 0.00000000D+00 0.00000000D+00 0.00000000D+00 0.00000000D+00 0.00000000D+00
  <mgrwgt>
 0.5516632248D-04    1    2    0
 0.419866407836394D+03 0.000000000000000D+00 0.000000000000000D+00 0.419866407836394D+03
 0.419866407836394D+03 0.000000000000000D+00 0.000000000000000D+00 -.419866407836394D+03
 0.354456839320400D+03 -.210028898885945D+03 0.542853822625565D+02 -.265076137180195D+03
 0.190831425328444D+03 0.152518098976637D+03 -.391700007649286D+02 0.107798763524976D+03
 0.180240870551602D+03 0.105494331914793D+03 0.318949151066924D+02 0.142619885504748D+03
 0.114203680472342D+03 -.479835320054847D+02 -.470102966043204D+02 0.146574881504706D+02
 0.000000000000000D+00 0.000000000000000D+00 -.000000000000000D+00 -.000000000000000D+00
 0.485805555108699D+03 0.000000000000000D+00 0.000000000000000D+00 0.485805555108699D+03
 0.497536893069770D+03 0.000000000000000D+00 0.000000000000000D+00 -.497536893069770D+03
 0.392830837359982D+03 -.264410220336698D+03 0.763065679746515D+02 -.265076137180195D+03
 0.168540111727370D+03 0.126366056481171D+03 -.285799862308981D+02 0.107798763524976D+03
 0.168918903849990D+03 0.800854157477919D+02 0.421840078821099D+02 0.142619885504748D+03
 0.119859528345934D+03 -.650166867004542D+02 -.401128867438328D+02 0.146574881504706D+02
 0.133193066895192D+03 0.122975434808190D+03 -.497977028820305D+02 -.117313379610707D+02
0.361318251769D-05 0.000000000000D+00 0.000000000000D+00 0.606470508319D-06 0.233015403249D-09  7 1 -1 23 -13 13 23 21 2 0.18023242D+00 0.31741551D-01 0.14501784D+06 0.14501784D+06 0.14501784D+06 0.11087114D+01  1  2  1  1  7  1        1 0.551663224841D-04 0.100000000000D+01
  </mgrwgt>
  </event>
  <event>
  8     66 0.24912036E-05 0.28660998E+03 0.75467711E-02 0.93411007E-01
        3 -1    0    0  501    0 0.00000000E+00 0.00000000E+00 0.10572984E+03 0.10573102E+03 0.50000000E+00 0.0000E+00 0.9000E+01
       -3 -1    0    0    0  501 0.00000000E+00 0.00000000E+00 -.88202584E+03 0.88202598E+03 0.50000000E+00 0.0000E+00 0.9000E+01
       25  2    1    2    0    0 -.21808112E+02 0.20877608E+03 -.57984757E+03 0.68582714E+03 0.30012099E+03 0.0000E+00 0.0000E+00
       23  2    1    2    0    0 0.21808112E+02 -.20877608E+03 -.19644842E+03 0.30192987E+03 0.92231308E+02 0.0000E+00 0.0000E+00
       23  1    3    3    0    0 -.60580455E+02 -.20509619E+02 -.12917596E+03 0.17056470E+03 0.91188000E+02 0.0000E+00 0.9000E+01
      -13  1    4    4    0    0 0.30120033E+01 -.15608640E+03 -.18955154E+03 0.24556432E+03 0.10565837E+00 0.0000E+00 0.9000E+01
       13  1    4    4    0    0 0.18796109E+02 -.52689688E+02 -.68968781E+01 0.56365548E+02 0.10565837E+00 0.0000E+00 0.9000E+01
       23  1    3    3    0    0 0.38772344E+02 0.22928570E+03 -.45067161E+03 0.51526244E+03 0.91188000E+02 0.0000E+00 0.9000E+01
#aMCatNLO 1  0  0  1  2 0.42147239D+03 0.00000000D+00  -5  7  0 0.00000000D+00 0.00000000D+00 0.00000000D+00 0.00000000D+00 0.00000000D+00
  <mgrwgt>
 0.7664945329D-04    3    2    0
 0.305380265881815D+03 0.000000000000000D+00 0.000000000000000D+00 0.305380265881815D+03
 0.305380265881815D+03 0.000000000000000D+00 0.000000000000000D+00 -.305380265881815D+03
 0.111660283240124D+03 -.605804552086178D+02 -.205096180058354D+02 0.788235531019139D+01
 0.156214793476576D+03 0.301198289618890D+01 -.156086532874215D+03 0.556631972392526D+01
 0.823913530563980D+02 0.187961290228504D+02 -.526895529013445D+02 0.604884419313046D+02
 0.260494101990531D+03 0.387723432895785D+02 0.229285703781395D+03 -.739371169654213D+02
 0.000000000000000D+00 -.000000000000000D+00 -.000000000000000D+00 -.000000000000000D+00
 0.454725554884543D+03 0.000000000000000D+00 0.000000000000000D+00 0.454725554884543D+03
 0.901676032909558D+03 0.000000000000000D+00 0.000000000000000D+00 -.901676032909558D+03
 0.120106792025742D+03 -.581372702181458D+02 0.516557492740254D+02 0.788235531019139D+01
 0.822199823646129D+02 0.552545580804887D+01 -.818450421398975D+02 0.556631972392526D+01
 0.642047037375499D+02 0.203414791775715D+02 -.704390513977629D+01 0.604884419313046D+02
 0.475538194614672D+03 0.465312670172291D+02 0.458464248462184D+03 -.739371169654213D+02
 0.614331915051525D+03 -.142609317847038D+02 -.421231050456535D+03 -.446950478025015D+03
0.161636966439D-04 0.000000000000D+00 0.000000000000D+00 0.394663031546D-06 0.000000000000D+00  7 3 -3 23 -13 13 23 21 0 0.16266231D-01 0.13569638D+00 0.82145281D+05 0.82145281D+05 0.82145281D+05 0.11287997D+01  1  2  2  1  7  1        3 0.758839725054D-04 0.100000000000D+01
-.893589617356D-06 0.000000000000D+00 -.620728511115D-07 0.394663031546D-06 0.000000000000D+00  7 3 -3 23 -13 13 23 21 2 0.16266231D-01 0.13569638D+00 0.82145281D+05 0.82145281D+05 0.82145281D+05 0.11287997D+01  1  2  3  1  7  1        3 -.534541242421D-05 0.100000000000D+01
0.102155461449D-05 0.000000000000D+00 0.000000000000D+00 0.394663031546D-06 0.000000000000D+00  7 3 -3 23 -13 13 23 21 2 0.16266231D-01 0.13569638D+00 0.82145281D+05 0.82145281D+05 0.82145281D+05 0.11287997D+01  1  2 15  1  7  1        3 0.611089321343D-05 0.100000000000D+01
  </mgrwgt>
  </event>
  <event>
  8     66 0.24912036E-05 0.12773955E+03 0.75467711E-02 0.10207402E+00
        1 -1    0    0  501    0 0.00000000E+00 0.00000000E+00 0.25459141E+04 0.25459141E+04 0.32000000E+00 0.0000E+00 0.9000E+01
       -1 -1    0    0    0  501 0.00000000E+00 0.00000000E+00 -.35447042E+02 0.35448486E+02 0.32000000E+00 0.0000E+00 0.9000E+01
       25  2    1    2    0    0 -.80178501E+02 0.12789111E+03 0.21874689E+04 0.22130305E+04 0.29949829E+03 0.0000E+00 0.0000E+00
       23  2    1    2    0    0 0.80178501E+02 -.12789111E+03 0.32299817E+03 0.36833209E+03 0.92498535E+02 0.0000E+00 0.0000E+00
       23  1    3    3    0    0 -.22105460E+01 0.17718599E+03 0.11059937E+04 0.11238048E+04 0.91188000E+02 0.0000E+00 0.9000E+01
      -13  1    4    4    0    0 0.31798335E+02 -.12330425E+03 0.25122303E+03 0.28165243E+03 0.10565837E+00 0.0000E+00 0.9000E+01
       13  1    4    4    0    0 0.48380166E+02 -.45868590E+01 0.71775146E+02 0.86679655E+02 0.10565837E+00 0.0000E+00 0.9000E+01
       23  1    3    3    0    0 -.77967955E+02 -.49294873E+02 0.10814752E+04 0.10892258E+04 0.91188000E+02 0.0000E+00 0.9000E+01
#aMCatNLO 1  0  0  1  2 0.39944024D+02 0.00000000D+00  -5  7  0 0.00000000D+00 0.00000000D+00 0.00000000D+00 0.00000000D+00 0.00000000D+00
  <mgrwgt>
 0.3662678638D-03    9    2    0
 0.300411410363802D+03 0.000000000000000D+00 0.000000000000000D+00 0.300411410363802D+03
 0.300411410363802D+03 0.000000000000000D+00 0.000000000000000D+00 -.300411410363802D+03
 0.207027362433382D+03 -.221054636418129D+01 0.177185986035342D+03 0.560831283861562D+02
 0.160380056130201D+03 0.317983138985239D+02 -.123304408219475D+03 -.975020643431842D+02
 0.725045875875226D+02 0.483801874073842D+02 -.458670533584415D+01 -.538073863128963D+02
 0.160910814576499D+03 -.779679549417268D+02 -.492948724800234D+02 0.952263222699243D+02
 0.000000000000000D+00 -.000000000000000D+00 -.000000000000000D+00 0.000000000000000D+00
 0.352152363917302D+03 0.000000000000000D+00 0.000000000000000D+00 0.352152363917302D+03
 0.308883859068540D+03 0.000000000000000D+00 0.000000000000000D+00 -.308883859068540D+03
 0.217727363829177D+03 0.460281056569179D+01 0.189534826513022D+03 0.560831283861562D+02
 0.154577814928828D+03 0.368504540177880D+02 -.114147677837402D+03 -.975020643431842D+02
 0.739514659167195D+02 0.507294428844102D+02 -.328807000896908D+00 -.538073863128963D+02
 0.155892495427441D+03 -.728862127169498D+02 -.400844898847251D+02 0.952263222699243D+02
 0.588870828836772D+02 -.192964947509402D+02 -.349738517899974D+02 0.432685048487616D+02
0.794183196017D-05 0.000000000000D+00 0.000000000000D+00 0.128026855336D-06 0.000000000000D+00  7 1 -1 23 -13 13 23 21 0 0.39167921D+00 0.54535037D-02 0.63738632D+05 0.63738632D+05 0.63738632D+05 0.11381354D+01  1  2  2  1  7  1        1 0.193839418035D-03 0.100000000000D+01
-.424993734691D-06 0.000000000000D+00 -.304987258594D-07 0.128026855336D-06 0.000000000000D+00  7 1 -1 23 -13 13 23 21 2 0.39167921D+00 0.54535037D-02 0.63738632D+05 0.63738632D+05 0.63738632D+05 0.11381354D+01  1  2  3  1  7  1        1 -.134366756144D-04 0.100000000000D+01
0.499222280987D-06 0.000000000000D+00 0.000000000000D+00 0.128026855336D-06 0.000000000000D+00  7 1 -1 23 -13 13 23 21 2 0.39167921D+00 0.54535037D-02 0.63738632D+05 0.63738632D+05 0.63738632D+05 0.11381354D+01  1  2 15  1  7  1        1 0.157834982061D-04 0.100000000000D+01
0.159895505383D-04 0.000000000000D+00 0.000000000000D+00 0.128026855336D-06 0.000000000000D+00  7 1 -1 23 -13 13 23 21 2 0.46402019D+00 0.54535037D-02 0.74101327D+05 0.74101327D+05 0.74101327D+05 0.11325635D+01  1  2 12  1  7  1        1 0.231551717821D-03 0.100000000000D+01
-.162767677493D-04 0.000000000000D+00 0.000000000000D+00 0.128026855336D-06 0.000000000000D+00  7 1 -1 23 -13 13 23 21 2 0.39167921D+00 0.54535037D-02 0.63738632D+05 0.63738632D+05 0.63738632D+05 0.11381354D+01  1  2  4  1  7  1        1 -.514609111724D-03 0.100000000000D+01
-.263885200946D-04 0.000000000000D+00 -.447565058244D-05 0.128026855336D-06 0.000000000000D+00  7 1 -1 23 -13 13 23 21 2 0.46267833D+00 0.54535037D-02 0.63738632D+05 0.63738632D+05 0.63738632D+05 0.11381354D+01  1  2  5  1  7  1        1 -.394046267563D-03 0.100000000000D+01
0.268224593767D-04 0.000000000000D+00 0.441425688168D-05 0.128026855336D-06 0.000000000000D+00  7 1 -1 23 -13 13 23 21 2 0.39167921D+00 0.54535037D-02 0.63738632D+05 0.63738632D+05 0.63738632D+05 0.11381354D+01  1  2  6  1  7  1        1 0.848023526951D-03 0.100000000000D+01
0.402196546205D-06 0.000000000000D+00 0.000000000000D+00 0.128026855336D-06 0.000000000000D+00  7 21 -1 23 -13 13 23 -1 2 0.46402019D+00 0.54535037D-02 0.74101327D+05 0.74101327D+05 0.74101327D+05 0.11325635D+01  1  2 12  3  7  1        1 0.137183250083D-05 0.100000000000D+01
-.617306043207D-06 0.000000000000D+00 -.111051584802D-06 0.128026855336D-06 0.000000000000D+00  7 21 -1 23 -13 13 23 -1 2 0.46267833D+00 0.54535037D-02 0.63738632D+05 0.63738632D+05 0.63738632D+05 0.11381354D+01  1  2  5  3  7  1        1 -.221007485424D-05 0.100000000000D+01
  </mgrwgt>
  </event>
  <event>
  9     66 0.24912036E-05 0.28447727E+03 0.75467711E-02 0.10064605E+00
        1 -1    0    0  501    0 0.00000000E+00 0.00000000E+00 0.67285513E+03 0.67285520E+03 0.32000000E+00 0.0000E+00 0.9000E+01
       21 -1    0    0  502  501 0.00000000E+00 0.00000000E+00 -.20023343E+03 0.20023483E+03 0.75000000E+00 0.0000E+00 0.9000E+01
       25  2    1    2    0    0 -.20922216E+03 0.12833299E+02 0.37556349E+03 0.52359342E+03 0.29860263E+03 0.0000E+00 0.0000E+00
       23  2    1    2    0    0 0.23128322E+03 0.17755814E+02 0.14510709E+03 0.28841321E+03 0.91208106E+02 0.0000E+00 0.0000E+00
       23  1    3    3    0    0 -.18740724E+03 -.49760589E+02 0.34611971E+03 0.40707702E+03 0.91188000E+02 0.0000E+00 0.9000E+01
      -13  1    4    4    0    0 0.41058566E+02 -.24518522E+02 0.57423203E+02 0.74728837E+02 0.10565837E+00 0.0000E+00 0.9000E+01
       13  1    4    4    0    0 0.19022465E+03 0.42274336E+02 0.87683886E+02 0.21368437E+03 0.10565837E+00 0.0000E+00 0.9000E+01
       23  1    3    3    0    0 -.21814917E+02 0.62593888E+02 0.29443781E+02 0.11651641E+03 0.91188000E+02 0.0000E+00 0.9000E+01
        1  1    1    2  502    0 -.22061056E+02 -.30589113E+02 -.48048885E+02 0.61083400E+02 0.32000000E+00 0.0000E+00 0.9000E+01
#aMCatNLO 2  0  0  2  1 0.37714507D+02 0.00000000D+00  -5  7  0 0.00000000D+00 0.00000000D+00 0.00000000D+00 0.00000000D+00 0.00000000D+00
  <mgrwgt>
 0.1356206867D-04    2    2    0
 0.310980118490072D+03 0.000000000000000D+00 0.000000000000000D+00 0.310980118490072D+03
 0.310980118490072D+03 0.000000000000000D+00 0.000000000000000D+00 -.310980118490072D+03
 0.250806098731007D+03 -.196126223955270D+03 -.618500331281366D+02 0.110894208576298D+03
 0.492408013491505D+02 0.393105570029467D+02 -.269420634031221D+02 0.123879717955254D+02
 0.196747532572093D+03 0.183102862692311D+03 0.323993181016527D+02 -.642901036990556D+02
 0.125165804327894D+03 -.262871957399883D+02 0.563927784296060D+02 -.589920766727674D+02
 0.000000000000000D+00 -.000000000000000D+00 -.000000000000000D+00 -.000000000000000D+00
 0.314598306258387D+03 0.000000000000000D+00 0.000000000000000D+00 0.314598306258387D+03
 0.428255814593106D+03 0.000000000000000D+00 0.000000000000000D+00 -.428255814593106D+03
 0.241268248517401D+03 -.187407242766833D+03 -.497605894400810D+02 0.110894208576298D+03
 0.494005418613500D+02 0.410583660904632D+02 -.245186105839986D+02 0.123879717955254D+02
 0.205197071426841D+03 0.190224850377012D+03 0.422744247454662D+02 -.642901036990556D+02
 0.127236794600521D+03 -.218149172636253D+02 0.625938881268030D+02 -.589920766727674D+02
 0.119751464445381D+03 -.220610564370176D+02 -.305891128481896D+02 -.113657508334719D+03
-.687352055002D-06 0.000000000000D+00 0.000000000000D+00 0.631598195108D-07 0.000000000000D+00  7 1 21 23 -13 13 23 1 2 0.10232568D+00 0.30898938D-01 0.92236687D+05 0.92236687D+05 0.92236687D+05 0.11246135D+01  1  2 13  4  7  2       -1 -.315735228930D-03 0.100000000000D+01
0.724929811348D-06 0.000000000000D+00 0.000000000000D+00 0.631598195108D-07 0.132361901075D-10  7 1 21 23 -13 13 23 1 2 0.10351622D+00 0.30805236D-01 0.92236687D+05 0.92236687D+05 0.92236687D+05 0.11246135D+01  1  2  1  4  7  2       -1 0.329297297599D-03 0.100000000000D+01
  </mgrwgt>
  </event>
  <event>
  8     66 0.24912036E-05 0.41763580E+03 0.75467711E-02 0.87640596E-01
        1 -1    0    0  501    0 0.00000000E+00 0.00000000E+00 0.20811838E+04 0.20811838E+04 0.32000000E+00 0.0000E+00 0.9000E+01
       -1 -1    0    0    0  501 0.00000000E+00 0.00000000E+00 -.30452070E+03 0.30452086E+03 0.32000000E+00 0.0000E+00 0.9000E+01
       25  2    1    2    0    0 -.10522184E+03 0.73098343E+03 0.61855271E+03 0.10090145E+04 0.30015745E+03 0.0000E+00 0.0000E+00
       23  2    1    2    0    0 0.10522184E+03 -.73098343E+03 0.11581104E+04 0.13766901E+04 0.92992791E+02 0.0000E+00 0.0000E+00
       23  1    3    3    0    0 -.10491285E+03 0.21636291E+03 0.30732279E+03 0.40072704E+03 0.91188000E+02 0.0000E+00 0.9000E+01
      -13  1    4    4    0    0 0.92854369E+02 -.56421544E+03 0.96048841E+03 0.11178099E+04 0.10565837E+00 0.0000E+00 0.9000E+01
       13  1    4    4    0    0 0.12367469E+02 -.16676798E+03 0.19762198E+03 0.25888023E+03 0.10565837E+00 0.0000E+00 0.9000E+01
       23  1    3    3    0    0 -.30898769E+00 0.51462052E+03 0.31122992E+03 0.60828751E+03 0.91188000E+02 0.0000E+00 0.9000E+01
#aMCatNLO 1  0  0  2  1 0.38175410D+03 0.00000000D+00  -5  7  0 0.00000000D+00 0.00000000D+00 0.00000000D+00 0.00000000D+00 0.00000000D+00
  <mgrwgt>
 0.1859642818D-03    9    2    0
 0.796092812855910D+03 0.000000000000000D+00 0.000000000000000D+00 0.796092812855910D+03
 0.796092812855910D+03 0.000000000000000D+00 0.000000000000000D+00 -.796092812855910D+03
 0.257512260924699D+03 -.104912849871785D+03 0.216362907199229D+03 0.133303976920479D+02
 0.603133770486841D+03 0.928544724838509D+02 -.564215956712526D+03 0.191856056022189D+03
 0.167381988456347D+03 0.123673650749271D+02 -.166767468766999D+03 0.723807306901429D+01
 0.564157605843933D+03 -.308987686992779D+00 0.514620518280295D+03 -.212424526783251D+03
 0.000000000000000D+00 0.000000000000000D+00 -.000000000000000D+00 -.000000000000000D+00
 0.956180469627811D+03 0.000000000000000D+00 0.000000000000000D+00 0.956180469627811D+03
 0.108358405050449D+04 0.000000000000000D+00 0.000000000000000D+00 -.108358405050449D+04
 0.319249413431799D+03 -.153200521011334D+03 0.264493549055124D+03 0.133303976920479D+02
 0.508957963491747D+03 -.252129974231181D+00 -.471412132639534D+03 0.191856056022189D+03
 0.141797973732013D+03 -.135178159294223D+02 -.140966465179667D+03 0.723807306901429D+01
 0.667306855230948D+03 -.103409719861631D+03 0.617385971620078D+03 -.212424526783251D+03
 0.402452314245793D+03 0.270380186776618D+03 -.269500922856001D+03 -.127403580876676D+03
0.105870436554D-03 0.000000000000D+00 0.000000000000D+00 0.183546638549D-05 0.000000000000D+00  7 1 -1 23 -13 13 23 21 0 0.32018214D+00 0.46849353D-01 0.57671506D+06 0.57671506D+06 0.57671506D+06 0.10641566D+01  1  2  2  2  7  2       -1 0.152364017326D-03 0.100000000000D+01
-.586578332135D-05 0.000000000000D+00 -.406570352695D-06 0.183546638549D-05 0.000000000000D+00  7 1 -1 23 -13 13 23 21 2 0.32018214D+00 0.46849353D-01 0.57671506D+06 0.57671506D+06 0.57671506D+06 0.10641566D+01  1  2  3  2  7  2       -1 -.955971161278D-05 0.100000000000D+01
0.652691464334D-05 0.000000000000D+00 0.000000000000D+00 0.183546638549D-05 0.000000000000D+00  7 1 -1 23 -13 13 23 21 2 0.32018214D+00 0.46849353D-01 0.57671506D+06 0.57671506D+06 0.57671506D+06 0.10641566D+01  1  2 15  2  7  2       -1 0.106371848896D-04 0.100000000000D+01
0.319118376283D-04 0.000000000000D+00 0.000000000000D+00 0.183546638549D-05 0.000000000000D+00  7 1 -1 23 -13 13 23 21 2 0.32018214D+00 0.67100533D-01 0.94706343D+06 0.94706343D+06 0.94706343D+06 0.10494400D+01  1  2 12  2  7  2       -1 0.249280571258D-04 0.100000000000D+01
-.491177876543D-04 0.000000000000D+00 0.000000000000D+00 0.183546638549D-05 0.000000000000D+00  7 1 -1 23 -13 13 23 21 2 0.32018214D+00 0.46849353D-01 0.57671506D+06 0.57671506D+06 0.57671506D+06 0.10641566D+01  1  2  4  2  7  2       -1 -.800493061727D-04 0.100000000000D+01
-.675438824453D-04 0.000000000000D+00 -.375496588800D-04 0.183546638549D-05 0.000000000000D+00  7 1 -1 23 -13 13 23 21 2 0.32018214D+00 0.77518132D-01 0.57671506D+06 0.57671506D+06 0.57671506D+06 0.10641566D+01  1  2  5  2  7  2       -1 -.419918384723D-04 0.100000000000D+01
0.803526426343D-04 0.000000000000D+00 0.332446165273D-04 0.183546638549D-05 0.000000000000D+00  7 1 -1 23 -13 13 23 21 2 0.32018214D+00 0.46849353D-01 0.57671506D+06 0.57671506D+06 0.57671506D+06 0.10641566D+01  1  2  6  2  7  2       -1 0.130954051459D-03 0.100000000000D+01
0.140477889359D-05 0.000000000000D+00 0.000000000000D+00 0.183546638549D-05 0.000000000000D+00  7 1 21 23 -13 13 23 1 2 0.32018214D+00 0.67100533D-01 0.94706343D+06 0.94706343D+06 0.94706343D+06 0.10494400D+01  1  2 12  4  7  2       -1 0.858580162200D-05 0.100000000000D+01
-.212263360038D-05 0.000000000000D+00 -.212915277702D-05 0.183546638549D-05 0.000000000000D+00  7 1 21 23 -13 13 23 1 2 0.32018214D+00 0.77518132D-01 0.57671506D+06 0.57671506D+06 0.57671506D+06 0.10641566D+01  1  2  5  4  7  2       -1 -.990397432696D-05 0.100000000000D+01
  </mgrwgt>
  </event>
  <event>
  9     66 0.24912036E-05 0.22856236E+03 0.75467711E-02 0.10004847E+00
        3 -1    0    0  501    0 0.00000000E+00 0.00000000E+00 0.30875671E+03 0.30875711E+03 0.50000000E+00 0.0000E+00 0.9000E+01
       21 -1    0    0  502  501 0.00000000E+00 0.00000000E+00 -.34327677E+03 0.34327759E+03 0.75000000E+00 0.0000E+00 0.9000E+01
       25  2    1    2    0    0 -.18938206E+03 -.26155392E+02 0.44687164E+02 0.35803462E+03 0.29940303E+03 0.0000E+00 0.0000E+00
       23  2    1    2    0    0 0.62898793E+02 -.64200268E+02 -.40330963E+02 0.13376970E+03 0.90497587E+02 0.0000E+00 0.0000E+00
       23  1    3    3    0    0 -.20736664E+03 -.86998390E+02 0.15397540E+02 0.24315012E+03 0.91188000E+02 0.0000E+00 0.9000E+01
      -13  1    4    4    0    0 -.15226750E+01 -.62836281E+02 -.15695097E+02 0.64784751E+02 0.10565837E+00 0.0000E+00 0.9000E+01
       13  1    4    4    0    0 0.64421468E+02 -.13639866E+01 -.24635865E+02 0.68984948E+02 0.10565837E+00 0.0000E+00 0.9000E+01
       23  1    3    3    0    0 0.17984579E+02 0.60842998E+02 0.29289624E+02 0.11488450E+03 0.91188000E+02 0.0000E+00 0.9000E+01
        3  1    1    2  502    0 0.12648327E+03 0.90355660E+02 -.38876267E+02 0.16023039E+03 0.50000000E+00 0.0000E+00 0.9000E+01
#aMCatNLO 2  0  0  2  1 0.15544183D+03 0.00000000D+00  -5  7  0 0.00000000D+00 0.00000000D+00 0.00000000D+00 0.00000000D+00 0.00000000D+00
  <mgrwgt>
 0.6372975524D-05    1    2    0
 0.233286491563818D+03 0.000000000000000D+00 0.000000000000000D+00 0.233286491563818D+03
 0.233286491563818D+03 0.000000000000000D+00 0.000000000000000D+00 -.233286491563818D+03
 0.183092459229141D+03 -.151128253018850D+03 -.468234553577013D+02 0.132443365409673D+02
 0.558531340882129D+02 0.144176056359352D+02 -.514490682564087D+02 -.162695608653072D+02
 0.901454485686766D+02 0.854526122271469D+02 0.136600153705695D+02 -.252479096418015D+02
 0.137481941241607D+03 0.512580351557681D+02 0.846125082435405D+02 0.282731339661414D+02
 0.000000000000000D+00 0.000000000000000D+00 0.000000000000000D+00 -.000000000000000D+00
 0.306034108130237D+03 0.000000000000000D+00 0.000000000000000D+00 0.306034108130237D+03
 0.346331161827867D+03 0.000000000000000D+00 0.000000000000000D+00 -.346331161827867D+03
 0.243023264038932D+03 -.207366640858148D+03 -.869983869329418D+02 0.132443365409673D+02
 0.649263131142088D+02 -.152276225917905D+01 -.628363646223774D+02 -.162695608653072D+02
 0.692058852120235D+02 0.644215598098895D+02 -.136390555392405D+01 -.252479096418015D+02
 0.114629562868192D+03 0.179845749836452D+02 0.608429971134146D+02 0.282731339661414D+02
 0.160580244724748D+03 0.126483268323793D+03 0.903556599958286D+02 -.402970536976292D+02
0.487441939688D-07 0.000000000000D+00 0.000000000000D+00 0.371688390101D-07 0.129831180666D-11  7 3 21 23 -13 13 23 3 2 0.47501068D-01 0.52811841D-01 0.10127760D+06 0.10127760D+06 0.10127760D+06 0.11212699D+01  1  2  1  4  7  2       -3 0.637297552369D-05 0.100000000000D+01
  </mgrwgt>
  </event>
  <event>
  8     66 0.24912036E-05 0.23994710E+03 0.75467711E-02 0.96630955E-01
        1 -1    0    0  501    0 0.00000000E+00 0.00000000E+00 0.26102691E+04 0.26102691E+04 0.32000000E+00 0.0000E+00 0.9000E+01
       -1 -1    0    0    0  501 0.00000000E+00 0.00000000E+00 -.44447006E+02 0.44448157E+02 0.32000000E+00 0.0000E+00 0.9000E+01
       25  2    1    2    0    0 0.14810606E+03 0.14060848E+03 0.21780257E+04 0.22080574E+04 0.30002576E+03 0.0000E+00 0.0000E+00
       23  2    1    2    0    0 -.14810606E+03 -.14060848E+03 0.38779643E+03 0.44665990E+03 0.86097858E+02 0.0000E+00 0.0000E+00
       23  1    3    3    0    0 0.58117474E+02 0.52716641E+02 0.17238625E+04 0.17280549E+04 0.91188000E+02 0.0000E+00 0.9000E+01
      -13  1    4    4    0    0 -.10980914E+03 -.10306337E+03 0.35006794E+03 0.38108749E+03 0.10565837E+00 0.0000E+00 0.9000E+01
       13  1    4    4    0    0 -.38296922E+02 -.37545113E+02 0.37728492E+02 0.65572403E+02 0.10565837E+00 0.0000E+00 0.9000E+01
       23  1    3    3    0    0 0.89988586E+02 0.87891838E+02 0.45416321E+03 0.48000249E+03 0.91188000E+02 0.0000E+00 0.9000E+01
#aMCatNLO 1  0  0  2  2 0.28032415D+03 0.00000000D+00  -5  7  0 0.00000000D+00 0.00000000D+00 0.00000000D+00 0.00000000D+00 0.00000000D+00
  <mgrwgt>
 0.4766558268D-03    5    2    0
 0.340617382462190D+03 0.000000000000000D+00 0.000000000000000D+00 0.340617382462190D+03
 0.340617382462190D+03 0.000000000000000D+00 0.000000000000000D+00 -.340617382462190D+03
 0.241286566392329D+03 0.581174745513052D+02 0.527166411915879D+02 0.209158482186727D+03
 0.166561604330121D+03 -.109809246130652D+03 -.103063465011939D+03 -.711520883809787D+02
 0.113428648189126D+03 -.382968147022569D+02 -.375450143845457D+02 -.999489074904662D+02
 0.159957946012805D+03 0.899885862816038D+02 0.878918382048969D+02 -.380574863152819D+02
 0.000000000000000D+00 -.000000000000000D+00 0.000000000000000D+00 -.000000000000000D+00
 0.455406355323336D+03 0.000000000000000D+00 0.000000000000000D+00 0.455406355323336D+03
 0.593934553095612D+03 0.000000000000000D+00 0.000000000000000D+00 -.593934553095612D+03
 0.253826935752063D+03 0.106358510927897D+03 -.324570246915339D+02 0.209158482186727D+03
 0.194745457669672D+03 -.746055462808982D+02 -.165218600847859D+03 -.711520883809787D+02
 0.128333244031593D+03 -.147409145165815D+02 -.791349660665209D+02 -.999489074904662D+02
 0.159750616506326D+03 0.121139165547963D+03 0.328928325909555D+02 -.380574863152819D+02
 0.312684654459295D+03 -.138151215678380D+03 0.243917759014958D+03 -.138528197772276D+03
0.263590724863D-04 0.000000000000D+00 0.000000000000D+00 0.455578975022D-07 0.000000000000D+00  7 1 -1 23 -13 13 23 21 0 0.40157996D+00 0.68380910D-02 0.57574613D+05 0.57574613D+05 0.57574613D+05 0.11419456D+01  1  2  2  2  7  2       -1 0.416151788268D-03 0.100000000000D+01
-.124585751488D-05 0.000000000000D+00 -.101225778851D-06 0.455578975022D-07 0.000000000000D+00  7 1 -1 23 -13 13 23 21 2 0.40157996D+00 0.68380910D-02 0.57574613D+05 0.57574613D+05 0.57574613D+05 0.11419456D+01  1  2  3  2  7  2       -1 -.256496134307D-04 0.100000000000D+01
0.159868565659D-05 0.000000000000D+00 0.000000000000D+00 0.455578975022D-07 0.000000000000D+00  7 1 -1 23 -13 13 23 21 2 0.40157996D+00 0.68380910D-02 0.57574613D+05 0.57574613D+05 0.57574613D+05 0.11419456D+01  1  2 15  2  7  2       -1 0.329136105844D-04 0.100000000000D+01
0.232268775512D-05 0.000000000000D+00 -.830101514272D-05 0.455578975022D-07 0.000000000000D+00  7 1 -1 23 -13 13 23 21 2 0.40157996D+00 0.18207693D-01 0.57574613D+05 0.57574613D+05 0.57574613D+05 0.11419456D+01  1  2  5  2  7  2       -1 0.106237459166D-04 0.100000000000D+01
0.742999706352D-06 0.000000000000D+00 -.904523884244D-06 0.455578975022D-07 0.000000000000D+00  7 1 21 23 -13 13 23 1 2 0.40157996D+00 0.18207693D-01 0.57574613D+05 0.57574613D+05 0.57574613D+05 0.11419456D+01  1  2  5  4  7  2       -1 0.426162954993D-04 0.100000000000D+01
  </mgrwgt>
  </event>
  <event>
  8     66 0.24912036E-05 0.33457970E+03 0.75467711E-02 0.99337386E-01
        1 -1    0    0  501    0 0.00000000E+00 0.00000000E+00 0.35707493E+03 0.35707507E+03 0.32000000E+00 0.0000E+00 0.9000E+01
       -1 -1    0    0    0  501 0.00000000E+00 0.00000000E+00 -.49620265E+03 0.49620275E+03 0.32000000E+00 0.0000E+00 0.9000E+01
       25  2    1    2    0    0 0.17416349E+03 0.25192998E+03 -.27172881E+03 0.50747674E+03 0.29982404E+03 0.0000E+00 0.0000E+00
       23  2    1    2    0    0 -.17416349E+03 -.25192998E+03 0.13260109E+03 0.34580109E+03 0.90519087E+02 0.0000E+00 0.0000E+00
       23  1    3    3    0    0 0.71892692E+02 0.79935446E+02 0.19751289E+02 0.14235027E+03 0.91188000E+02 0.0000E+00 0.9000E+01
      -11  1    4    4    0    0 -.40284432E+02 -.86868580E+02 0.84925667E+02 0.12798967E+03 0.51099893E-03 0.0000E+00 0.9000E+01
       11  1    4    4    0    0 -.13387906E+03 -.16506140E+03 0.47675419E+02 0.21781142E+03 0.51099893E-03 0.0000E+00 0.9000E+01
       23  1    3    3    0    0 0.10227080E+03 0.17199454E+03 -.29148010E+03 0.36512647E+03 0.91188000E+02 0.0000E+00 0.9000E+01
#aMCatNLO 1  0  0  2  2 0.42037864D+01 0.00000000D+00  -5  7  0 0.00000000D+00 0.00000000D+00 0.00000000D+00 0.00000000D+00 0.00000000D+00
  <mgrwgt>
 0.1392944141D-03    8    2    0
 0.420929483035244D+03 0.000000000000000D+00 0.000000000000000D+00 0.420929483035244D+03
 0.420929483035244D+03 0.000000000000000D+00 0.000000000000000D+00 -.420929483035244D+03
 0.147545236783136D+03 0.718926919511474D+02 0.799354460979583D+02 0.435443550248411D+02
 0.143760728164716D+03 -.402844320105060D+02 -.868685795444707D+02 0.107229480032155D+03
 0.228644742999352D+03 -.133879057455107D+03 -.165061404325508D+03 0.843181432330139D+02
 0.321908258123283D+03 0.102270797514466D+03 0.171994537772021D+03 -.235091978290010D+03
 0.000000000000000D+00 0.000000000000000D+00 -.000000000000000D+00 0.000000000000000D+00
 0.431107815240035D+03 0.000000000000000D+00 0.000000000000000D+00 0.431107815240035D+03
 0.421369009679351D+03 0.000000000000000D+00 0.000000000000000D+00 -.421369009679351D+03
 0.147569777223634D+03 0.713661773270566D+02 0.804508898958039D+02 0.435443550248411D+02
 0.143602815440670D+03 -.407971172381553D+02 -.863666743575156D+02 0.107229480032155D+03
 0.228548712208912D+03 -.134694736186384D+03 -.164262876566100D+03 0.843181432330139D+02
 0.322148156844931D+03 0.101121736622523D+03 0.173119437789986D+03 -.235091978290010D+03
 0.106073632012375D+02 0.300393947495945D+01 -.294077676217470D+01 0.973880556068353D+01
0.826551808105D-05 0.000000000000D+00 0.000000000000D+00 0.984886392494D-06 0.000000000000D+00  7 1 -1 23 -11 11 23 21 0 0.54934623D-01 0.76338888D-01 0.11194358D+06 0.11194358D+06 0.11194358D+06 0.11177231D+01  1  2  2  2  7  2       -1 0.128151011311D-03 0.100000000000D+01
-.429765754452D-06 0.000000000000D+00 -.317417657921D-07 0.984886392494D-06 0.000000000000D+00  7 1 -1 23 -11 11 23 21 2 0.54934623D-01 0.76338888D-01 0.11194358D+06 0.11194358D+06 0.11194358D+06 0.11177231D+01  1  2  3  2  7  2       -1 -.832438668075D-05 0.100000000000D+01
0.531391206908D-06 0.000000000000D+00 0.000000000000D+00 0.984886392494D-06 0.000000000000D+00  7 1 -1 23 -11 11 23 21 2 0.54934623D-01 0.76338888D-01 0.11194358D+06 0.11194358D+06 0.11194358D+06 0.11177231D+01  1  2 15  2  7  2       -1 0.102928300806D-04 0.100000000000D+01
-.413650065215D-05 0.000000000000D+00 0.000000000000D+00 0.984886392494D-06 0.000000000000D+00  7 1 -1 23 -11 11 23 21 2 0.54934623D-01 0.76338888D-01 0.11194358D+06 0.11194358D+06 0.11194358D+06 0.11177231D+01  1  2  4  2  7  2       -1 -.801223237938D-04 0.100000000000D+01
0.103765392785D-06 0.000000000000D+00 0.000000000000D+00 0.984886392494D-06 0.000000000000D+00  7 1 -1 23 -11 11 23 21 2 0.54934623D-01 0.78186430D-01 0.11194358D+06 0.11194358D+06 0.11194358D+06 0.11177231D+01  1  2  5  2  7  2       -1 0.191612298897D-05 0.100000000000D+01
-.103735730148D-06 0.000000000000D+00 0.000000000000D+00 0.984886392494D-06 0.000000000000D+00  7 1 -1 23 -11 11 23 21 2 0.54934623D-01 0.76338888D-01 0.11194358D+06 0.11194358D+06 0.11194358D+06 0.11177231D+01  1  2  6  2  7  2       -1 -.200931861466D-05 0.100000000000D+01
0.407237860471D-05 0.000000000000D+00 0.000000000000D+00 0.984886392494D-06 0.371168281667D-06  7 1 -1 23 -11 11 23 21 2 0.56262976D-01 0.76418600D-01 0.11336667D+06 0.11336667D+06 0.11336667D+06 0.11172781D+01  1  2 11  2  7  2       -1 0.761702217184D-04 0.100000000000D+01
0.893087187165D-07 0.000000000000D+00 0.000000000000D+00 0.984886392494D-06 0.736256975973D-10  7 1 21 23 -11 11 23 1 2 0.56262976D-01 0.76418600D-01 0.11336667D+06 0.11336667D+06 0.11336667D+06 0.11172781D+01  1  2 11  4  7  2       -1 0.132202571024D-04 0.100000000000D+01
  </mgrwgt>
  </event>
  <event>
  8     66 0.24912036E-05 0.23431045E+03 0.75467711E-02 0.10018350E+00
        1 -1    0    0  501    0 0.00000000E+00 0.00000000E+00 0.65120017E+03 0.65120025E+03 0.32000000E+00 0.0000E+00 0.9000E+01
       -1 -1    0    0    0  501 0.00000000E+00 0.00000000E+00 -.21363432E+03 0.21363456E+03 0.32000000E+00 0.0000E+00 0.9000E+01
       25  2    1    2    0    0 -.12862195E+03 -.52381768E+02 0.56551280E+03 0.65486320E+03 0.29958911E+03 0.0000E+00 0.0000E+00
       23  2    1    2    0    0 0.12862195E+03 0.52381768E+02 -.12794694E+03 0.20997161E+03 0.91816133E+02 0.0000E+00 0.0000E+00
       23  1    3    3    0    0 -.19000975E+03 -.58644347E+02 0.34754830E+03 0.41066768E+03 0.91188000E+02 0.0000E+00 0.9000E+01
      -13  1    4    4    0    0 0.79095703E+02 0.23938092E+02 -.15823503E+02 0.84140103E+02 0.10565837E+00 0.0000E+00 0.9000E+01
       13  1    4    4    0    0 0.49526247E+02 0.28443676E+02 -.11212344E+03 0.12583151E+03 0.10565837E+00 0.0000E+00 0.9000E+01
       23  1    3    3    0    0 0.61387803E+02 0.62625787E+01 0.21796449E+03 0.24419552E+03 0.91188000E+02 0.0000E+00 0.9000E+01
#aMCatNLO 1  0  0  1  2 0.12702758D+03 0.00000000D+00  -5  7  0 0.00000000D+00 0.00000000D+00 0.00000000D+00 0.00000000D+00 0.00000000D+00
  <mgrwgt>
 0.1712509316D-03    3    2    0
 0.372986385788925D+03 0.000000000000000D+00 0.000000000000000D+00 0.372986385788925D+03
 0.372986385788925D+03 0.000000000000000D+00 0.000000000000000D+00 -.372986385788925D+03
 0.272241079447598D+03 -.190009752796464D+03 -.586443471315699D+02 0.162040391219387D+03
 0.106828310343327D+03 0.790957418600528D+02 0.239380861437772D+02 -.676987410679938D+02
 0.211649765736337D+03 0.495262079602490D+02 0.284436822781279D+02 -.203798270355235D+03
 0.155253616050586D+03 0.613878029761619D+02 0.626257870966477D+01 0.109456620203842D+03
 0.000000000000000D+00 -.000000000000000D+00 -.000000000000000D+00 -.000000000000000D+00
 0.387252315444831D+03 0.000000000000000D+00 0.000000000000000D+00 0.387252315444831D+03
 0.831773720425909D+03 0.000000000000000D+00 0.000000000000000D+00 -.831773720425909D+03
 0.242298278954554D+03 -.148421594559498D+03 -.459036656730450D+02 0.162040391219387D+03
 0.122438103164646D+03 0.976264290226450D+02 0.296150286282442D+02 -.676987410679938D+02
 0.224178799523364D+03 0.847524876223071D+02 0.392353794142678D+02 -.203798270355235D+03
 0.167795716358118D+03 0.874985883518043D+02 0.142617114725885D+02 0.109456620203842D+03
 0.462315137870059D+03 -.121455910437258D+03 -.372084538420555D+02 -.444521404981078D+03
0.529237984190D-05 0.000000000000D+00 0.000000000000D+00 0.582323312074D-06 0.000000000000D+00  7 1 -1 23 -13 13 23 21 0 0.10018467D+00 0.32866843D-01 0.54901387D+05 0.54901387D+05 0.54901387D+05 0.11437401D+01  1  2  2  1  7  1        1 0.166577591324D-03 0.100000000000D+01
-.216758434622D-06 0.000000000000D+00 -.203241321085D-07 0.582323312074D-06 0.000000000000D+00  7 1 -1 23 -13 13 23 21 2 0.10018467D+00 0.32866843D-01 0.54901387D+05 0.54901387D+05 0.54901387D+05 0.11437401D+01  1  2  3  1  7  1        1 -.892475444985D-05 0.100000000000D+01
0.330261379460D-06 0.000000000000D+00 0.000000000000D+00 0.582323312074D-06 0.000000000000D+00  7 1 -1 23 -13 13 23 21 2 0.10018467D+00 0.32866843D-01 0.54901387D+05 0.54901387D+05 0.54901387D+05 0.11437401D+01  1  2 15  1  7  1        1 0.135980946766D-04 0.100000000000D+01
  </mgrwgt>
  </event>
  <event>
  8     66 0.24912036E-05 0.49681915E+03 0.75467711E-02 0.89706327E-01
        1 -1    0    0  501    0 0.00000000E+00 0.00000000E+00 0.44912604E+03 0.44912616E+03 0.32000000E+00 0.0000E+00 0.9000E+01
       -1 -1    0    0    0  501 0.00000000E+00 0.00000000E+00 -.58730379E+03 0.58730388E+03 0.32000000E+00 0.0000E+00 0.9000E+01
       25  2    1    2    0    0 0.44783690E+03 -.10734608E+03 -.10647689E+02 0.54964989E+03 0.29986756E+03 0.0000E+00 0.0000E+00
       23  2    1    2    0    0 -.44783690E+03 0.10734608E+03 -.12753006E+03 0.48678014E+03 0.92789660E+02 0.0000E+00 0.0000E+00
       23  1    3    3    0    0 0.37987136E+03 -.12208292E+03 0.61899792E+02 0.41394846E+03 0.91188000E+02 0.0000E+00 0.9000E+01
      -13  1    4    4    0    0 -.39921695E+02 -.16743876E+02 -.86697161E+01 0.44150586E+02 0.10565837E+00 0.0000E+00 0.9000E+01
       13  1    4    4    0    0 -.40791521E+03 0.12408996E+03 -.11886034E+03 0.44262956E+03 0.10565837E+00 0.0000E+00 0.9000E+01
       23  1    3    3    0    0 0.67965539E+02 0.14736843E+02 -.72547481E+02 0.13570143E+03 0.91188000E+02 0.0000E+00 0.9000E+01
#aMCatNLO 1  0  0  2  2 0.48274309D+03 0.00000000D+00  -5  7  0 0.00000000D+00 0.00000000D+00 0.00000000D+00 0.00000000D+00 0.00000000D+00
  <mgrwgt>
 0.2850427414D-03    3    2    0
 0.513588873105139D+03 0.000000000000000D+00 0.000000000000000D+00 0.513588873105139D+03
 0.513588873105139D+03 0.000000000000000D+00 0.000000000000000D+00 -.513588873105139D+03
 0.426003963198891D+03 0.379871363130062D+03 -.122082924187111D+03 0.118142424271703D+03
 0.433815045496576D+02 -.399212182788000D+02 -.167440582095280D+02 -.280851968202342D+01
 0.430627736972243D+03 -.407915683793130D+03 0.124090139823919D+03 -.603877468026262D+02
 0.127164541489487D+03 0.679655389418681D+02 0.147368425727192D+02 -.549461577870532D+02
 0.000000000000000D+00 0.000000000000000D+00 -.000000000000000D+00 0.000000000000000D+00
 0.159007012436446D+04 0.000000000000000D+00 0.000000000000000D+00 0.159007012436446D+04
 0.624453379753681D+03 0.000000000000000D+00 0.000000000000000D+00 -.624453379753681D+03
 0.333114782805385D+03 0.296710468189100D+03 0.256022036881374D+02 0.118142424271703D+03
 0.502822745052385D+02 -.501820157242022D+02 0.147805428579875D+01 -.280851968202342D+01
 0.620692807399801D+03 -.523087068770766D+03 0.328622579380597D+03 -.603877468026262D+02
 0.130870492626209D+03 0.396979925584701D+02 0.649370743681487D+02 -.549461577870532D+02
 0.107956314678151D+04 0.236860623747397D+03 -.420639911722682D+03 0.965616744610780D+03
0.359349143713D-04 0.000000000000D+00 0.000000000000D+00 0.621609654246D-06 0.000000000000D+00  7 1 -1 23 -13 13 23 21 0 0.69096330D-01 0.90354445D-01 0.24682927D+06 0.24682927D+06 0.24682927D+06 0.10908764D+01  1  2  2  2  7  2       -1 0.282297765908D-03 0.100000000000D+01
-.199370913412D-05 0.000000000000D+00 -.137999533066D-06 0.621609654246D-06 0.000000000000D+00  7 1 -1 23 -13 13 23 21 2 0.69096330D-01 0.90354445D-01 0.24682927D+06 0.24682927D+06 0.24682927D+06 0.10908764D+01  1  2  3  2  7  2       -1 -.186381884877D-04 0.100000000000D+01
0.228733653086D-05 0.000000000000D+00 0.000000000000D+00 0.621609654246D-06 0.000000000000D+00  7 1 -1 23 -13 13 23 21 2 0.69096330D-01 0.90354445D-01 0.24682927D+06 0.24682927D+06 0.24682927D+06 0.10908764D+01  1  2 15  2  7  2       -1 0.213831640070D-04 0.100000000000D+01
  </mgrwgt>
  </event>
  <event>
  8     66 0.24912036E-05 0.18758419E+03 0.75467711E-02 0.10239475E+00
        1 -1    0    0  501    0 0.00000000E+00 0.00000000E+00 0.83717694E+02 0.83718306E+02 0.32000000E+00 0.0000E+00 0.9000E+01
       -1 -1    0    0    0  501 0.00000000E+00 0.00000000E+00 -.62064357E+03 0.62064365E+03 0.32000000E+00 0.0000E+00 0.9000E+01
       25  2    1    2    0    0 0.42714968E+01 -.67152870E+02 -.24981997E+03 0.39665211E+03 0.30065782E+03 0.0000E+00 0.0000E+00
       23  2    1    2    0    0 -.42714968E+01 0.67152870E+02 -.28710590E+03 0.30770985E+03 0.87907889E+02 0.0000E+00 0.0000E+00
       23  1    3    3    0    0 -.16375805E+02 -.12785523E+03 -.46197386E+02 0.16451315E+03 0.91188000E+02 0.0000E+00 0.9000E+01
      -13  1    4    4    0    0 -.24650455E+02 -.95511064E+01 -.11773077E+03 0.12066240E+03 0.10565837E+00 0.0000E+00 0.9000E+01
       13  1    4    4    0    0 0.20378958E+02 0.76703977E+02 -.16937513E+03 0.18704745E+03 0.10565837E+00 0.0000E+00 0.9000E+01
       23  1    3    3    0    0 0.20647302E+02 0.60702360E+02 -.20362259E+03 0.23213896E+03 0.91188000E+02 0.0000E+00 0.9000E+01
#aMCatNLO 1  0  0  2  2 0.14081178D+03 0.00000000D+00  -5  7  0 0.00000000D+00 0.00000000D+00 0.00000000D+00 0.00000000D+00 0.00000000D+00
  <mgrwgt>
 0.1294588302D-03    3    2    0
 0.227945372980834D+03 0.000000000000000D+00 0.000000000000000D+00 0.227945372980834D+03
 0.227945372980834D+03 0.000000000000000D+00 0.000000000000000D+00 -.227945372980834D+03
 0.199767691905154D+03 -.163758040866373D+02 -.127855244495945D+03 0.122379528028631D+03
 0.477686209855580D+02 -.246505041068560D+02 -.955120010952595D+01 -.397865350917563D+02
 0.895110178465572D+02 0.203790058247233D+02 0.767040932033808D+02 -.413932424843675D+02
 0.118843415224400D+03 0.206473023687700D+02 0.607023514020906D+02 -.411997504525072D+02
 0.000000000000000D+00 0.000000000000000D+00 -.000000000000000D+00 0.000000000000000D+00
 0.431467126569426D+03 0.000000000000000D+00 0.000000000000000D+00 0.431467126569426D+03
 0.264268616667153D+03 0.000000000000000D+00 0.000000000000000D+00 -.264268616667153D+03
 0.170630477907930D+03 -.239075808613536D+02 -.724650767193141D+02 0.122379528028631D+03
 0.480979982481968D+02 -.265998819252716D+02 0.478490777733473D+01 -.397865350917563D+02
 0.116311114599202D+03 0.161937627991979D+02 0.107483193580869D+03 -.413932424843675D+02
 0.142102241765943D+03 0.153411626549189D+02 0.997247464872831D+02 -.411997504525072D+02
 0.218593910715307D+03 0.189725373325084D+02 -.139527771126172D+03 0.167198509902273D+03
0.196235873331D-05 0.000000000000D+00 0.000000000000D+00 0.941720611701D-08 0.000000000000D+00  7 1 -1 23 -13 13 23 21 0 0.12879699D-01 0.95483680D-01 0.35187829D+05 0.35187829D+05 0.35187829D+05 0.11609629D+01  1  2  2  2  7  2       -1 0.128485256007D-03 0.100000000000D+01
-.103985919104D-06 0.000000000000D+00 -.753597423682D-08 0.941720611701D-08 0.000000000000D+00  7 1 -1 23 -13 13 23 21 2 0.12879699D-01 0.95483680D-01 0.35187829D+05 0.35187829D+05 0.35187829D+05 0.11609629D+01  1  2  3  2  7  2       -1 -.917669052105D-05 0.100000000000D+01
0.115018001369D-06 0.000000000000D+00 0.000000000000D+00 0.941720611701D-08 0.000000000000D+00  7 1 -1 23 -13 13 23 21 2 0.12879699D-01 0.95483680D-01 0.35187829D+05 0.35187829D+05 0.35187829D+05 0.11609629D+01  1  2 15  2  7  2       -1 0.101502646898D-04 0.100000000000D+01
  </mgrwgt>
  </event>
  <event>
  8     66 0.24912036E-05 0.30217692E+03 0.75467711E-02 0.91179616E-01
        1 -1    0    0  501    0 0.00000000E+00 0.00000000E+00 0.29650392E+04 0.29650392E+04 0.32000000E+00 0.0000E+00 0.9000E+01
       -1 -1    0    0    0  501 0.00000000E+00 0.00000000E+00 -.27907146E+03 0.27907164E+03 0.32000000E+00 0.0000E+00 0.9000E+01
       25  2    1    2    0    0 0.52741561E+02 0.65401246E+03 0.24275923E+04 0.25335793E+04 0.30871566E+03 0.0000E+00 0.0000E+00
       23  2    1    2    0    0 -.52741561E+02 -.65401246E+03 0.25837537E+03 0.71053156E+03 0.87082114E+02 0.0000E+00 0.0000E+00
       23  1    3    3    0    0 -.45074786E+01 0.32394957E+03 0.77525905E+03 0.84516595E+03 0.91188000E+02 0.0000E+00 0.9000E+01
      -11  1    4    4    0    0 -.50003852E+02 -.15969873E+03 0.57359911E+02 0.17690175E+03 0.51099893E-03 0.0000E+00 0.9000E+01
       11  1    4    4    0    0 -.27377088E+01 -.49431373E+03 0.20101546E+03 0.53362981E+03 0.51099893E-03 0.0000E+00 0.9000E+01
       23  1    3    3    0    0 0.57249040E+02 0.33006289E+03 0.16523333E+04 0.16884133E+04 0.91188000E+02 0.0000E+00 0.9000E+01
#aMCatNLO 1  0  0  1  2 0.25104558D+02 0.00000000D+00  -5  7  0 0.00000000D+00 0.00000000D+00 0.00000000D+00 0.00000000D+00 0.00000000D+00
  <mgrwgt>
 0.5041134284D-03    9    2    0
 0.909647256007155D+03 0.000000000000000D+00 0.000000000000000D+00 0.909647256007155D+03
 0.909647256007155D+03 0.000000000000000D+00 0.000000000000000D+00 -.909647256007155D+03
 0.362498340900718D+03 -.450747856774851D+01 0.323949571623047D+03 0.134633404079295D+03
 0.230760884775804D+03 -.500038524411159D+02 -.159698729443451D+03 -.158891524310476D+03
 0.654777557632092D+03 -.273770876098927D+01 -.494313733559407D+03 -.429395025290172D+03
 0.571257728705694D+03 0.572490397698537D+02 0.330062891379811D+03 0.453653145521353D+03
 0.000000000000000D+00 -.000000000000000D+00 -.000000000000000D+00 0.000000000000000D+00
 0.927381884261247D+03 0.000000000000000D+00 0.000000000000000D+00 0.927381884261247D+03
 0.918661750290916D+03 0.000000000000000D+00 0.000000000000000D+00 -.918661750290916D+03
 0.364354122890315D+03 0.433640219914100D-01 0.326056007686951D+03 0.134633404079295D+03
 0.229231007451195D+03 -.471238309809651D+02 -.158365661786451D+03 -.158891524310476D+03
 0.651940407992929D+03 0.544368714393577D+01 -.490526833211312D+03 -.429395025290172D+03
 0.573942175116748D+03 0.644191667979703D+02 0.333381708468507D+03 0.453653145521353D+03
 0.265759211009762D+02 -.227823869829324D+02 -.105452211576953D+02 0.872013397033089D+01
0.280531288130D-03 0.000000000000D+00 0.000000000000D+00 0.166242614332D-08 0.000000000000D+00  7 1 -1 23 -11 11 23 21 0 0.45615989D+00 0.42934086D-01 0.45253549D+06 0.45253549D+06 0.45253549D+06 0.10715854D+01  1  2  2  1  7  1        1 0.114849790543D-03 0.100000000000D+01
-.138597350675D-04 0.000000000000D+00 -.107731401200D-05 0.166242614332D-08 0.000000000000D+00  7 1 -1 23 -11 11 23 21 2 0.45615989D+00 0.42934086D-01 0.45253549D+06 0.45253549D+06 0.45253549D+06 0.10715854D+01  1  2  3  1  7  1        1 -.651564444940D-05 0.100000000000D+01
0.173540454161D-04 0.000000000000D+00 0.000000000000D+00 0.166242614332D-08 0.000000000000D+00  7 1 -1 23 -11 11 23 21 2 0.45615989D+00 0.42934086D-01 0.45253549D+06 0.45253549D+06 0.45253549D+06 0.10715854D+01  1  2 15  1  7  1        1 0.815836588069D-05 0.100000000000D+01
0.238426722024D-03 0.000000000000D+00 0.000000000000D+00 0.166242614332D-08 0.000000000000D+00  7 1 -1 23 -11 11 23 21 2 0.46728007D+00 0.42934086D-01 0.46993554D+06 0.46993554D+06 0.46993554D+06 0.10704190D+01  1  2 12  1  7  1        1 0.984742175025D-04 0.100000000000D+01
-.220511179812D-03 0.000000000000D+00 0.000000000000D+00 0.166242614332D-08 0.000000000000D+00  7 1 -1 23 -11 11 23 21 2 0.45615989D+00 0.42934086D-01 0.45253549D+06 0.45253549D+06 0.45253549D+06 0.10715854D+01  1  2  4  1  7  1        1 -.103665217104D-03 0.100000000000D+01
-.747999925835D-02 0.000000000000D+00 -.962412080322D-03 0.166242614332D-08 0.000000000000D+00  7 1 -1 23 -11 11 23 21 2 0.46653184D+00 0.42934086D-01 0.45253549D+06 0.45253549D+06 0.45253549D+06 0.10715854D+01  1  2  5  1  7  1        1 -.313100318822D-02 0.100000000000D+01
0.749998462844D-02 0.000000000000D+00 0.962168891257D-03 0.166242614332D-08 0.000000000000D+00  7 1 -1 23 -11 11 23 21 2 0.45615989D+00 0.42934086D-01 0.45253549D+06 0.45253549D+06 0.45253549D+06 0.10715854D+01  1  2  6  1  7  1        1 0.352584179834D-02 0.100000000000D+01
0.742045097129D-05 0.000000000000D+00 0.000000000000D+00 0.166242614332D-08 0.000000000000D+00  7 21 -1 23 -11 11 23 -1 2 0.46728007D+00 0.42934086D-01 0.46993554D+06 0.46993554D+06 0.46993554D+06 0.10704190D+01  1  2 12  3  7  1        1 0.639898578984D-06 0.100000000000D+01
-.303179336097D-04 0.000000000000D+00 -.392366682078D-05 0.166242614332D-08 0.000000000000D+00  7 21 -1 23 -11 11 23 -1 2 0.46653184D+00 0.42934086D-01 0.45253549D+06 0.45253549D+06 0.45253549D+06 0.10715854D+01  1  2  5  3  7  1        1 -.266659262155D-05 0.100000000000D+01
  </mgrwgt>
  </event>
  <event>
  9     66 0.24912036E-05 0.19849824E+03 0.75467711E-02 0.10577339E+00
        1 -1    0    0  501    0 0.00000000E+00 0.00000000E+00 0.15049944E+04 0.15049944E+04 0.32000000E+00 0.0000E+00 0.9000E+01
       21 -1    0    0  502  501 0.00000000E+00 0.00000000E+00 -.49194553E+02 0.49200270E+02 0.75000000E+00 0.0000E+00 0.9000E+01
       25  2    1    2    0    0 0.21866569E+02 0.85417099E+02 0.56652598E+03 0.64691050E+03 0.29961188E+03 0.0000E+00 0.0000E+00
       23  2    1    2    0    0 -.15630755E+02 -.67586108E+02 0.36031391E+03 0.37798697E+03 0.90751475E+02 0.0000E+00 0.0000E+00
       23  1    3    3    0    0 0.12354450E+03 0.75575409E+02 0.36666938E+03 0.40464376E+03 0.91188000E+02 0.0000E+00 0.9000E+01
      -13  1    4    4    0    0 -.22023496E+02 -.75500971E+02 0.35924860E+03 0.36775671E+03 0.10565837E+00 0.0000E+00 0.9000E+01
       13  1    4    4    0    0 0.63927411E+01 0.79148633E+01 0.10653181E+01 0.10230262E+02 0.10565837E+00 0.0000E+00 0.9000E+01
       23  1    3    3    0    0 -.10167793E+03 0.98416897E+01 0.19985660E+03 0.24226674E+03 0.91188000E+02 0.0000E+00 0.9000E+01
        1  1    1    2  502    0 -.62358139E+01 -.17830991E+02 0.52895996E+03 0.52929724E+03 0.32000000E+00 0.0000E+00 0.9000E+01
#aMCatNLO 2  0  0  2  2 0.18889934D+02 0.00000000D+00  -5  7  0 0.00000000D+00 0.00000000D+00 0.00000000D+00 0.00000000D+00 0.00000000D+00
  <mgrwgt>
 0.4886959581D-04    1    2    0
 0.218532493221624D+03 0.000000000000000D+00 0.000000000000000D+00 0.218532493221624D+03
 0.218532493221624D+03 0.000000000000000D+00 0.000000000000000D+00 -.218532493221624D+03
 0.166466250804973D+03 0.121137137720516D+03 0.686916934223502D+02 0.173390677801581D+01
 0.103944801952947D+03 -.234810023661437D+02 -.796686417823276D+02 0.624985751635797D+02
 0.213161579817432D+02 0.608598445069451D+01 0.703771092099974D+01 -.191783734805895D+02
 0.145337775703585D+03 -.103742119805066D+03 0.393923743897768D+01 -.450541084610060D+02
 0.000000000000000D+00 -.000000000000000D+00 -.000000000000000D+00 0.000000000000000D+00
 0.337337931354989D+03 0.000000000000000D+00 0.000000000000000D+00 0.337337931354989D+03
 0.219488664843204D+03 0.000000000000000D+00 0.000000000000000D+00 -.219488664843204D+03
 0.171152398937847D+03 0.123544496912755D+03 0.755754137801404D+02 0.173390677801581D+01
 0.100456573919102D+03 -.220235368751620D+02 -.755010938304519D+02 0.624985751635797D+02
 0.217100075540132D+02 0.639277862568523D+01 0.791497315708104D+01 -.191783734805895D+02
 0.144154026731038D+03 -.101677924737051D+03 0.984169755292748D+01 -.450541084610060D+02
 0.119353589056192D+03 -.623581392622712D+01 -.178309906596970D+02 0.117849266511785D+03
0.338815553869D-07 0.000000000000D+00 0.000000000000D+00 0.120758465382D-06 0.293522116320D-11  7 1 21 23 -13 13 23 1 2 0.23153782D+00 0.75688278D-02 0.43219894D+05 0.43219894D+05 0.43219894D+05 0.11529040D+01  1  2  1  4  7  2       -1 0.488695958144D-04 0.100000000000D+01
  </mgrwgt>
  </event>
  <event>
  8     66 0.24912036E-05 0.38556968E+03 0.75467711E-02 0.96608062E-01
        1 -1    0    0  501    0 0.00000000E+00 0.00000000E+00 0.26454803E+03 0.26454822E+03 0.32000000E+00 0.0000E+00 0.9000E+01
       -1 -1    0    0    0  501 0.00000000E+00 0.00000000E+00 -.65556957E+03 0.65556965E+03 0.32000000E+00 0.0000E+00 0.9000E+01
       25  2    1    2    0    0 0.24557438E+03 -.21106096E+03 -.59955770E+02 0.44542565E+03 0.29992635E+03 0.0000E+00 0.0000E+00
       23  2    1    2    0    0 -.24557438E+03 0.21106096E+03 -.33106577E+03 0.47469222E+03 0.10428158E+03 0.0000E+00 0.0000E+00
       23  1    3    3    0    0 0.19114089E+03 -.93534952E+01 -.10990459E+02 0.21226957E+03 0.91188000E+02 0.0000E+00 0.9000E+01
      -11  1    4    4    0    0 -.15601087E+01 0.23182431E+02 -.60311232E+02 0.64632065E+02 0.51099893E-03 0.0000E+00 0.9000E+01
       11  1    4    4    0    0 -.24401427E+03 0.18787853E+03 -.27075454E+03 0.41006015E+03 0.51099893E-03 0.0000E+00 0.9000E+01
       23  1    3    3    0    0 0.54433489E+02 -.20170747E+03 -.48965311E+02 0.23315609E+03 0.91188000E+02 0.0000E+00 0.9000E+01
#aMCatNLO 1  0  0  1  2 0.67443252D+02 0.00000000D+00  -5  7  0 0.00000000D+00 0.00000000D+00 0.00000000D+00 0.00000000D+00 0.00000000D+00
  <mgrwgt>
 0.1578749671D-03    4    2    0
 0.416448990691394D+03 0.000000000000000D+00 0.000000000000000D+00 0.416448990691394D+03
 0.416448990691394D+03 0.000000000000000D+00 0.000000000000000D+00 -.416448990691394D+03
 0.229338430204594D+03 0.191140889590724D+03 -.935349525290998D+01 0.875130657543678D+02
 0.430858609026056D+02 -.156010877026790D+01 0.231824305674923D+02 -.362840513631956D+02
 0.325889630220183D+03 -.244014269430602D+03 0.187878533515786D+03 -.106596172742059D+03
 0.234584060055404D+03 0.544334886101464D+02 -.201707468830369D+03 0.553671583508865D+02
 0.000000000000000D+00 -.000000000000000D+00 -.000000000000000D+00 -.000000000000000D+00
 0.432889274951596D+03 0.000000000000000D+00 0.000000000000000D+00 0.432889274951596D+03
 0.493233631959042D+03 0.000000000000000D+00 0.000000000000000D+00 -.493233631959042D+03
 0.242213556899392D+03 0.206616734042567D+03 0.177322804778477D+01 0.875130657543678D+02
 0.442201273584743D+02 0.130518271612983D+01 0.252424994473643D+02 -.362840513631956D+02
 0.319794345395276D+03 -.222823594711911D+03 0.203114068796823D+03 -.106596172742059D+03
 0.229396072247425D+03 0.696608326838362D+02 -.190759410736374D+03 0.553671583508865D+02
 0.904988050100706D+02 -.547591547306225D+02 -.393703855555987D+02 -.603443570074455D+02
0.171170927960D-04 0.000000000000D+00 0.000000000000D+00 0.134113398460D-07 0.000000000000D+00  7 1 -1 23 -11 11 23 21 0 0.40699718D-01 0.10085688D+00 0.14866398D+06 0.14866398D+06 0.14866398D+06 0.11078586D+01  1  2  2  1  7  1        1 0.217941960686D-03 0.100000000000D+01
-.944086905922D-06 0.000000000000D+00 -.657341433705D-07 0.134113398460D-07 0.000000000000D+00  7 1 -1 23 -11 11 23 21 2 0.40699718D-01 0.10085688D+00 0.14866398D+06 0.14866398D+06 0.14866398D+06 0.11078586D+01  1  2  3  1  7  1        1 -.147533799796D-04 0.100000000000D+01
0.108802370327D-05 0.000000000000D+00 0.000000000000D+00 0.134113398460D-07 0.000000000000D+00  7 1 -1 23 -11 11 23 21 2 0.40699718D-01 0.10085688D+00 0.14866398D+06 0.14866398D+06 0.14866398D+06 0.11078586D+01  1  2 15  1  7  1        1 0.170027007264D-04 0.100000000000D+01
-.398769749478D-05 0.000000000000D+00 0.000000000000D+00 0.134113398460D-07 0.000000000000D+00  7 1 -1 23 -11 11 23 21 2 0.40699718D-01 0.10085688D+00 0.14866398D+06 0.14866398D+06 0.14866398D+06 0.11078586D+01  1  2  4  1  7  1        1 -.623163143297D-04 0.100000000000D+01
  </mgrwgt>
  </event>
  <event>
  8     66 0.24912036E-05 0.69206572E+03 0.75467711E-02 0.85508742E-01
        1 -1    0    0  501    0 0.00000000E+00 0.00000000E+00 0.67049272E+03 0.67049280E+03 0.32000000E+00 0.0000E+00 0.9000E+01
       -1 -1    0    0    0  501 0.00000000E+00 0.00000000E+00 -.73331246E+03 0.73331253E+03 0.32000000E+00 0.0000E+00 0.9000E+01
       25  2    1    2    0    0 -.65032095E+03 0.12664339E+03 0.33791685E+02 0.72799884E+03 0.29980751E+03 0.0000E+00 0.0000E+00
       23  2    1    2    0    0 0.65032095E+03 -.12664339E+03 -.96611427E+02 0.67580649E+03 0.91786447E+02 0.0000E+00 0.0000E+00
       23  1    3    3    0    0 -.32846143E+03 -.47653128E+02 -.29715010E+02 0.34547933E+03 0.91188000E+02 0.0000E+00 0.9000E+01
      -13  1    4    4    0    0 0.15089385E+02 -.57140879E+00 0.11812415E+02 0.19171864E+02 0.10565837E+00 0.0000E+00 0.9000E+01
       13  1    4    4    0    0 0.63523157E+03 -.12607198E+03 -.10842384E+03 0.65663462E+03 0.10565837E+00 0.0000E+00 0.9000E+01
       23  1    3    3    0    0 -.32185952E+03 0.17429652E+03 0.63506695E+02 0.38251952E+03 0.91188000E+02 0.0000E+00 0.9000E+01
#aMCatNLO 1  0  0  1  2 0.82903123D+03 0.00000000D+00  -5  7  0 0.00000000D+00 0.00000000D+00 0.00000000D+00 0.00000000D+00 0.00000000D+00
  <mgrwgt>
 0.3027537073D-03    3    2    0
 0.701199523154884D+03 0.000000000000000D+00 0.000000000000000D+00 0.701199523154884D+03
 0.701199523154884D+03 0.000000000000000D+00 0.000000000000000D+00 -.701199523154884D+03
 0.344494693509712D+03 -.328461429581681D+03 -.476531280280955D+02 -.142692388951487D+02
 0.197193812798931D+02 0.150885630036278D+02 -.571242492279277D+00 0.126831757285929D+02
 0.652437126785049D+03 0.635232390631581D+03 -.126072144605937D+03 -.791190789536660D+02
 0.385747844735114D+03 -.321859524053528D+03 0.174296515126312D+03 0.807051421202219D+02
 0.000000000000000D+00 -.000000000000000D+00 0.000000000000000D+00 -.000000000000000D+00
 0.112762353088431D+04 0.000000000000000D+00 0.000000000000000D+00 0.112762353088431D+04
 0.136339768242880D+04 0.000000000000000D+00 0.000000000000000D+00 -.136339768242880D+04
 0.290311327427257D+03 -.211600720362441D+03 -.176031075245324D+03 -.142692388951487D+02
 0.291613111395698D+02 0.240869533699238D+02 -.104564715928244D+02 0.126831757285929D+02
 0.106580850684469D+04 0.951542250236348D+03 -.473556005793597D+03 -.791190789536660D+02
 0.243833909159825D+03 -.205960544136700D+03 0.469750806963757D+02 0.807051421202219D+02
 0.861906158741759D+03 -.558067939107130D+03 0.613068471935370D+03 -.235774151544493D+03
0.115189870273D-03 0.000000000000D+00 0.000000000000D+00 0.360968720598D-05 0.000000000000D+00  7 1 -1 23 -13 13 23 21 0 0.10315274D+00 0.11281731D+00 0.47895496D+06 0.47895496D+06 0.47895496D+06 0.10698328D+01  1  2  2  1  7  1        1 0.300181389971D-03 0.100000000000D+01
-.639809962053D-05 0.000000000000D+00 -.442359432038D-06 0.360968720598D-05 0.000000000000D+00  7 1 -1 23 -13 13 23 21 2 0.10315274D+00 0.11281731D+00 0.47895496D+06 0.47895496D+06 0.47895496D+06 0.10698328D+01  1  2  3  1  7  1        1 -.190832469565D-04 0.100000000000D+01
0.726052845541D-05 0.000000000000D+00 0.000000000000D+00 0.360968720598D-05 0.000000000000D+00  7 1 -1 23 -13 13 23 21 2 0.10315274D+00 0.11281731D+00 0.47895496D+06 0.47895496D+06 0.47895496D+06 0.10698328D+01  1  2 15  1  7  1        1 0.216555642718D-04 0.100000000000D+01
  </mgrwgt>
  </event>
  <event>
  8     66 0.24912036E-05 0.53902250E+03 0.75467711E-02 0.92163883E-01
        1 -1    0    0  502    0 0.00000000E+00 0.00000000E+00 0.74842807E+03 0.74842814E+03 0.32000000E+00 0.0000E+00 0.9000E+01
       -1 -1    0    0    0  501 0.00000000E+00 0.00000000E+00 -.57227086E+03 0.57227095E+03 0.32000000E+00 0.0000E+00 0.9000E+01
       25  2    1    2    0    0 0.42915206E+03 0.39973453E+03 0.20318805E+03 0.68928509E+03 0.29978218E+03 0.0000E+00 0.0000E+00
       23  1    3    3    0    0 0.15549638E+03 0.24740724E+03 0.21675465E+01 0.30611994E+03 0.91188000E+02 0.0000E+00 0.9000E+01
      -11  1    1    2    0    0 -.59232204E+02 -.40878945E+01 -.40169317E+02 0.71684998E+02 0.51099893E-03 0.0000E+00 0.9000E+01
       11  1    1    2    0    0 -.31365353E+03 -.24718516E+03 0.27618025E+02 0.40030213E+03 0.51099893E-03 0.0000E+00 0.9000E+01
       23  1    3    3    0    0 0.27365568E+03 0.15232729E+03 0.20102051E+03 0.38316515E+03 0.91188000E+02 0.0000E+00 0.9000E+01
       21  1    1    2  502  501 -.56266330E+02 -.14846148E+03 -.14479550E+02 0.15942688E+03 0.75000000E+00 0.0000E+00 0.9000E+01
#aMCatNLO 2  0  0  1  2 0.15876621D+03 0.00000000D+00  -5  7  0 0.00000000D+00 0.00000000D+00 0.00000000D+00 0.00000000D+00 0.00000000D+00
  <mgrwgt>
 0.7620108528D-04    1    2    0
 0.567231009200371D+03 0.000000000000000D+00 0.000000000000000D+00 0.567231009200371D+03
 0.567231009200371D+03 0.000000000000000D+00 0.000000000000000D+00 -.567231009200371D+03
 0.272900904343954D+03 0.141112056419229D+03 0.209453492253143D+03 -.487470446678281D+02
 0.836019335547282D+02 -.632537472852983D+02 -.146989343774893D+02 -.526515724040896D+02
 0.453025599466828D+03 -.334734760083736D+03 -.302809024410984D+03 -.386203171819026D+02
 0.324933581035230D+03 0.256876450949805D+03 0.108054466535331D+03 0.140018934253820D+03
 0.000000000000000D+00 -.000000000000000D+00 -.000000000000000D+00 -.000000000000000D+00
 0.634167368431192D+03 0.000000000000000D+00 0.000000000000000D+00 0.634167368431192D+03
 0.675377784540107D+03 0.000000000000000D+00 0.000000000000000D+00 -.675377784540107D+03
 0.309969342644513D+03 0.155496381769092D+03 0.247407241058836D+03 -.487470446678281D+02
 0.793558626990372D+02 -.592322039457268D+02 -.408789479037675D+01 -.526515724040896D+02
 0.401211376020518D+03 -.313653528635091D+03 -.247185159999145D+03 -.386203171819026D+02
 0.354981109897392D+03 0.273655681276036D+03 0.152327289727604D+03 0.140018934253820D+03
 0.164027461709838D+03 -.562663304643103D+02 -.148461475996918D+03 -.412104161089150D+02
0.169481843902D-04 0.000000000000D+00 0.000000000000D+00 0.205216124954D-08 0.517442845554D-12  7 1 -1 23 -11 11 23 21 2 0.11514264D+00 0.88041567D-01 0.39049977D+06 0.39049977D+06 0.39049977D+06 0.10761810D+01  1  2  1  1  7  1        1 0.762010852806D-04 0.100000000000D+01
  </mgrwgt>
  </event>
  <event>
  8     66 0.24912036E-05 0.12609168E+03 0.75467711E-02 0.98413049E-01
        1 -1    0    0  501    0 0.00000000E+00 0.00000000E+00 0.86944111E+03 0.86944117E+03 0.32000000E+00 0.0000E+00 0.9000E+01
       -1 -1    0    0    0  501 0.00000000E+00 0.00000000E+00 -.17527971E+03 0.17528000E+03 0.32000000E+00 0.0000E+00 0.9000E+01
       25  2    1    2    0    0 0.21396986E+03 -.13301847E+03 0.11820899E+03 0.40953480E+03 0.30044695E+03 0.0000E+00 0.0000E+00
       23  2    1    2    0    0 -.21396986E+03 0.13301847E+03 0.57595241E+03 0.63518637E+03 0.90903963E+02 0.0000E+00 0.0000E+00
       23  1    3    3    0    0 0.43609390E+02 0.46264256E+02 -.18353119E+02 0.11266876E+03 0.91188000E+02 0.0000E+00 0.9000E+01
      -11  1    4    4    0    0 -.57775100E+02 0.56248761E+00 0.18542299E+03 0.19421628E+03 0.51099893E-03 0.0000E+00 0.9000E+01
       11  1    4    4    0    0 -.15619476E+03 0.13245598E+03 0.39052941E+03 0.44097008E+03 0.51099893E-03 0.0000E+00 0.9000E+01
       23  1    3    3    0    0 0.17036047E+03 -.17928273E+03 0.13656211E+03 0.29686604E+03 0.91188000E+02 0.0000E+00 0.9000E+01
#aMCatNLO 1  0  0  1  2 0.88156994D+02 0.00000000D+00  -5  7  0 0.00000000D+00 0.00000000D+00 0.00000000D+00 0.00000000D+00 0.00000000D+00
  <mgrwgt>
 0.3131431590D-03    9    2    0
 0.390378748007027D+03 0.000000000000000D+00 0.000000000000000D+00 0.390378748007027D+03
 0.390378748007027D+03 0.000000000000000D+00 0.000000000000000D+00 -.390378748007027D+03
 0.167078077622188D+03 0.436093901636039D+02 0.462642562585715D+02 -.124730398701862D+03
 0.950210256798298D+02 -.577751002795347D+02 0.562487602519191D+00 0.754368392539985D+02
 0.242841517317730D+03 -.156194758820911D+03 0.132455984915827D+03 0.130501386621112D+03
 0.275816875394307D+03 0.170360468936842D+03 -.179282728776918D+03 -.812078271732476D+02
 0.000000000000000D+00 -.000000000000000D+00 0.000000000000000D+00 0.000000000000000D+00
 0.445758547557188D+03 0.000000000000000D+00 0.000000000000000D+00 0.445758547557188D+03
 0.429587984271132D+03 0.000000000000000D+00 0.000000000000000D+00 -.429587984271132D+03
 0.171766408199327D+03 0.621925995418981D+02 0.419863768809988D+02 -.124730398701862D+03
 0.892533374660375D+02 -.476689624591445D+02 -.176395869040435D+01 0.754368392539985D+02
 0.223842736183364D+03 -.130600447686298D+03 0.126564140640864D+03 0.130501386621112D+03
 0.300856248524217D+03 0.201986887111042D+03 -.186563172070633D+03 -.812078271732476D+02
 0.896278014553755D+02 -.859100765074971D+02 0.197766132391739D+02 0.161705632860557D+02
0.666849231209D-05 0.000000000000D+00 0.000000000000D+00 0.636814502174D-06 0.000000000000D+00  7 1 -1 23 -11 11 23 21 0 0.13376020D+00 0.26966136D-01 0.10154698D+06 0.10154698D+06 0.10154698D+06 0.11211753D+01  1  2  2  1  7  1        1 0.185130716536D-03 0.100000000000D+01
-.351913468980D-06 0.000000000000D+00 -.256087663328D-07 0.636814502174D-06 0.000000000000D+00  7 1 -1 23 -11 11 23 21 2 0.13376020D+00 0.26966136D-01 0.10154698D+06 0.10154698D+06 0.10154698D+06 0.11211753D+01  1  2  3  1  7  1        1 -.122810018419D-04 0.100000000000D+01
0.426012495589D-06 0.000000000000D+00 0.000000000000D+00 0.636814502174D-06 0.000000000000D+00  7 1 -1 23 -11 11 23 21 2 0.13376020D+00 0.26966136D-01 0.10154698D+06 0.10154698D+06 0.10154698D+06 0.11211753D+01  1  2 15  1  7  1        1 0.148668940072D-04 0.100000000000D+01
0.609589064090D-05 0.000000000000D+00 0.000000000000D+00 0.636814502174D-06 0.000000000000D+00  7 1 -1 23 -11 11 23 21 2 0.15864496D+00 0.26966136D-01 0.13158981D+06 0.13158981D+06 0.13158981D+06 0.11120678D+01  1  2 12  1  7  1        1 0.155867200904D-03 0.100000000000D+01
-.569487888839D-05 0.000000000000D+00 0.000000000000D+00 0.636814502174D-06 0.000000000000D+00  7 1 -1 23 -11 11 23 21 2 0.13376020D+00 0.26966136D-01 0.10154698D+06 0.10154698D+06 0.10154698D+06 0.11211753D+01  1  2  4  1  7  1        1 -.198738679485D-03 0.100000000000D+01
-.149955090720D-04 0.000000000000D+00 -.455720388851D-05 0.636814502174D-06 0.000000000000D+00  7 1 -1 23 -11 11 23 21 2 0.16337941D+00 0.26966136D-01 0.10154698D+06 0.10154698D+06 0.10154698D+06 0.11211753D+01  1  2  5  1  7  1        1 -.372156851206D-03 0.100000000000D+01
0.156819734557D-04 0.000000000000D+00 0.446753113617D-05 0.636814502174D-06 0.000000000000D+00  7 1 -1 23 -11 11 23 21 2 0.13376020D+00 0.26966136D-01 0.10154698D+06 0.10154698D+06 0.10154698D+06 0.11211753D+01  1  2  6  1  7  1        1 0.547266194309D-03 0.100000000000D+01
0.154146029432D-06 0.000000000000D+00 0.000000000000D+00 0.636814502174D-06 0.000000000000D+00  7 21 -1 23 -11 11 23 -1 2 0.15864496D+00 0.26966136D-01 0.13158981D+06 0.13158981D+06 0.13158981D+06 0.11120678D+01  1  2 12  3  7  1        1 0.520003333087D-05 0.100000000000D+01
-.376671963040D-06 0.000000000000D+00 -.130425959793D-06 0.636814502174D-06 0.000000000000D+00  7 21 -1 23 -11 11 23 -1 2 0.16337941D+00 0.26966136D-01 0.10154698D+06 0.10154698D+06 0.10154698D+06 0.11211753D+01  1  2  5  3  7  1        1 -.120113475319D-04 0.100000000000D+01
  </mgrwgt>
  </event>
  <event>
  8     66 0.24912036E-05 0.12064838E+04 0.75467711E-02 0.82199957E-01
        1 -1    0    0  501    0 0.00000000E+00 0.00000000E+00 0.38031424E+04 0.38031424E+04 0.32000000E+00 0.0000E+00 0.9000E+01
       -1 -1    0    0    0  501 0.00000000E+00 0.00000000E+00 -.10440549E+04 0.10440550E+04 0.32000000E+00 0.0000E+00 0.9000E+01
       25  2    1    2    0    0 -.15440878E+04 0.73419645E+03 0.26019422E+04 0.31277925E+04 0.29955140E+03 0.0000E+00 0.0000E+00
       23  2    1    2    0    0 0.15440878E+04 -.73419645E+03 0.15714526E+03 0.17194049E+04 0.91689307E+02 0.0000E+00 0.0000E+00
       23  1    3    3    0    0 -.12554371E+04 0.50785212E+03 0.20042493E+04 0.24206128E+04 0.91188000E+02 0.0000E+00 0.9000E+01
      -13  1    4    4    0    0 0.95870710E+03 -.44687171E+03 0.14114003E+03 0.10671149E+04 0.10565837E+00 0.0000E+00 0.9000E+01
       13  1    4    4    0    0 0.58538075E+03 -.28732474E+03 0.16005230E+02 0.65229005E+03 0.10565837E+00 0.0000E+00 0.9000E+01
       23  1    3    3    0    0 -.28865079E+03 0.22634433E+03 0.59769295E+03 0.70717971E+03 0.91188000E+02 0.0000E+00 0.9000E+01
#aMCatNLO 1  0  0  1  2 0.94912049D+02 0.00000000D+00  -5  7  0 0.00000000D+00 0.00000000D+00 0.00000000D+00 0.00000000D+00 0.00000000D+00
  <mgrwgt>
 0.8318168985D-04    9    2    0
 0.199265898058167D+04 0.000000000000000D+00 0.000000000000000D+00 0.199265898058167D+04
 0.199265898058167D+04 0.000000000000000D+00 0.000000000000000D+00 -.199265898058167D+04
 0.155653556233104D+04 -.125543705944414D+04 0.507852122085071D+03 0.761873819818711D+03
 0.120018051665061D+04 0.958707591852813D+03 -.446871924359348D+03 -.567114194048141D+03
 0.782275499711977D+03 0.585380253009640D+03 -.287324525760693D+03 -.432122128260502D+03
 0.446326382469704D+03 -.288650785418311D+03 0.226344328034970D+03 0.237362502489932D+03
 0.000000000000000D+00 0.000000000000000D+00 0.000000000000000D+00 0.000000000000000D+00
 0.210913155132376D+04 0.000000000000000D+00 0.000000000000000D+00 0.210913155132376D+04
 0.201265391063573D+04 0.000000000000000D+00 0.000000000000000D+00 -.201265391063573D+04
 0.155409704381086D+04 -.126620426503493D+04 0.472416566305472D+03 0.761873819818711D+03
 0.120406565620352D+04 0.950385486316185D+03 -.474260500945938D+03 -.567114194048141D+03
 0.784991431077659D+03 0.579955284073695D+03 -.305178442239888D+03 -.432122128260502D+03
 0.443293855360913D+03 -.291730134609063D+03 0.216209994749174D+03 0.237362502489932D+03
 0.135337475506535D+03 0.275936292541140D+02 0.908123821311811D+02 0.964776406880312D+02
0.683057400827D-02 0.000000000000D+00 0.000000000000D+00 0.229646800637D-04 0.000000000000D+00  7 1 -1 23 -13 13 23 21 0 0.58509884D+00 0.16062384D+00 0.29672517D+07 0.29672517D+07 0.29672517D+07 0.10177971D+01  1  2  2  1  7  1        1 0.260856407778D-04 0.100000000000D+01
-.369688239729D-03 0.000000000000D+00 -.262312027232D-04 0.229646800637D-04 0.000000000000D+00  7 1 -1 23 -13 13 23 21 2 0.58509884D+00 0.16062384D+00 0.29672517D+07 0.29672517D+07 0.29672517D+07 0.10177971D+01  1  2  3  1  7  1        1 -.146252179364D-05 0.100000000000D+01
0.432105967784D-03 0.000000000000D+00 0.000000000000D+00 0.229646800637D-04 0.000000000000D+00  7 1 -1 23 -13 13 23 21 2 0.58509884D+00 0.16062384D+00 0.29672517D+07 0.29672517D+07 0.29672517D+07 0.10177971D+01  1  2 15  1  7  1        1 0.170945225498D-05 0.100000000000D+01
0.193077160907D-01 0.000000000000D+00 0.000000000000D+00 0.229646800637D-04 0.000000000000D+00  7 1 -1 23 -13 13 23 21 2 0.62212753D+00 0.16062384D+00 0.31352610D+07 0.31352610D+07 0.31352610D+07 0.10163440D+01  1  2 12  1  7  1        1 0.451706563993D-04 0.100000000000D+01
-.198478301304D-01 0.000000000000D+00 0.000000000000D+00 0.229646800637D-04 0.000000000000D+00  7 1 -1 23 -13 13 23 21 2 0.58509884D+00 0.16062384D+00 0.29672517D+07 0.29672517D+07 0.29672517D+07 0.10177971D+01  1  2  4  1  7  1        1 -.785199013725D-04 0.100000000000D+01
-.560110460753D-01 0.000000000000D+00 -.697628630594D-02 0.229646800637D-04 0.000000000000D+00  7 1 -1 23 -13 13 23 21 2 0.62050250D+00 0.16062384D+00 0.29672517D+07 0.29672517D+07 0.29672517D+07 0.10177971D+01  1  2  5  1  7  1        1 -.135397437943D-03 0.100000000000D+01
0.570387118514D-01 0.000000000000D+00 0.714294284816D-02 0.229646800637D-04 0.000000000000D+00  7 1 -1 23 -13 13 23 21 2 0.58509884D+00 0.16062384D+00 0.29672517D+07 0.29672517D+07 0.29672517D+07 0.10177971D+01  1  2  6  1  7  1        1 0.225650562281D-03 0.100000000000D+01
0.264010516545D-03 0.000000000000D+00 0.000000000000D+00 0.229646800637D-04 0.000000000000D+00  7 21 -1 23 -13 13 23 -1 2 0.62212753D+00 0.16062384D+00 0.31352610D+07 0.31352610D+07 0.31352610D+07 0.10163440D+01  1  2 12  3  7  1        1 0.454688930162D-07 0.100000000000D+01
-.557733010033D-03 0.000000000000D+00 -.705105409407D-04 0.229646800637D-04 0.000000000000D+00  7 21 -1 23 -13 13 23 -1 2 0.62050250D+00 0.16062384D+00 0.29672517D+07 0.29672517D+07 0.29672517D+07 0.10177971D+01  1  2  5  3  7  1        1 -.100229644432D-06 0.100000000000D+01
  </mgrwgt>
  </event>
  <event>
  8     66 0.24912036E-05 0.25967202E+03 0.75467711E-02 0.97362930E-01
        1 -1    0    0  501    0 0.00000000E+00 0.00000000E+00 0.11456184E+03 0.11456228E+03 0.32000000E+00 0.0000E+00 0.9000E+01
       -1 -1    0    0    0  501 0.00000000E+00 0.00000000E+00 -.76142289E+03 0.76142295E+03 0.32000000E+00 0.0000E+00 0.9000E+01
       25  2    1    2    0    0 0.24427018E+02 -.19421593E+03 -.29342898E+03 0.46315144E+03 0.30015360E+03 0.0000E+00 0.0000E+00
       23  2    1    2    0    0 -.24427018E+02 0.19421593E+03 -.35343207E+03 0.41283380E+03 0.84858780E+02 0.0000E+00 0.0000E+00
       23  1    3    3    0    0 0.42942205E+02 -.20642203E+03 -.10485283E+03 0.25251427E+03 0.91188000E+02 0.0000E+00 0.9000E+01
      -11  1    4    4    0    0 -.13835062E+01 0.58091554E+01 -.78600692E+02 0.78827210E+02 0.51099893E-03 0.0000E+00 0.9000E+01
       11  1    4    4    0    0 -.23043512E+02 0.18840677E+03 -.27483138E+03 0.33400659E+03 0.51099893E-03 0.0000E+00 0.9000E+01
       23  1    3    3    0    0 -.18515186E+02 0.12206104E+02 -.18857615E+03 0.21063717E+03 0.91188000E+02 0.0000E+00 0.9000E+01
#aMCatNLO 1  0  0  2  1 0.22950693D+03 0.00000000D+00  -5  7  0 0.00000000D+00 0.00000000D+00 0.00000000D+00 0.00000000D+00 0.00000000D+00
  <mgrwgt>
 0.5480783589D-03    3    2    0
 0.295347642781056D+03 0.000000000000000D+00 0.000000000000000D+00 0.295347642781056D+03
 0.295347642781056D+03 0.000000000000000D+00 0.000000000000000D+00 -.295347642781056D+03
 0.259649204160170D+03 0.429422047361859D+02 -.206422033831226D+03 0.121030446080253D+03
 0.308242629346017D+02 -.138350619986935D+01 0.580915541746699D+01 -.302402845454884D+02
 0.194359311620238D+03 -.230435121924169D+02 0.188406774097099D+03 -.418022252237293D+02
 0.105862506847101D+03 -.185151863438996D+02 0.122061043166600D+02 -.489879363110353D+02
 0.000000000000000D+00 0.000000000000000D+00 -.000000000000000D+00 0.000000000000000D+00
 0.160454046167450D+04 0.000000000000000D+00 0.000000000000000D+00 0.160454046167450D+04
 0.327083757071308D+03 0.000000000000000D+00 0.000000000000000D+00 -.327083757071308D+03
 0.196715689532312D+03 0.219223803687326D+02 -.123502435298890D+03 0.121030446080253D+03
 0.353891034185391D+02 -.443324414149707D+01 0.178398480306823D+02 -.302402845454884D+02
 0.281672803215634D+03 -.449691939997032D+02 0.274899824715686D+03 -.418022252237293D+02
 0.119937126121635D+03 -.289153479094307D+02 0.532329562355830D+02 -.489879363110353D+02
 0.129790949645769D+04 0.563954056818984D+02 -.222470193683061D+03 0.127745670460319D+04
0.199066495011D-04 0.000000000000D+00 0.000000000000D+00 0.178091147979D-07 0.000000000000D+00  7 1 -1 23 -11 11 23 21 0 0.17624938D-01 0.11714202D+00 0.67429560D+05 0.67429560D+05 0.67429560D+05 0.11360434D+01  1  2  2  2  7  2       -1 0.543321493476D-03 0.100000000000D+01
-.108364103943D-05 0.000000000000D+00 -.764467756256D-07 0.178091147979D-07 0.000000000000D+00  7 1 -1 23 -11 11 23 21 2 0.17624938D-01 0.11714202D+00 0.67429560D+05 0.67429560D+05 0.67429560D+05 0.11360434D+01  1  2  3  2  7  2       -1 -.381710432821D-04 0.100000000000D+01
0.121868410297D-05 0.000000000000D+00 0.000000000000D+00 0.178091147979D-07 0.000000000000D+00  7 1 -1 23 -11 11 23 21 2 0.17624938D-01 0.11714202D+00 0.67429560D+05 0.67429560D+05 0.67429560D+05 0.11360434D+01  1  2 15  2  7  2       -1 0.429279087345D-04 0.100000000000D+01
  </mgrwgt>
  </event>
  <event>
  8     66 0.24912036E-05 0.21929551E+03 0.75467711E-02 0.89339321E-01
        1 -1    0    0  501    0 0.00000000E+00 0.00000000E+00 0.11489406E+04 0.11489406E+04 0.32000000E+00 0.0000E+00 0.9000E+01
       -1 -1    0    0    0  501 0.00000000E+00 0.00000000E+00 -.12347672E+03 0.12347713E+03 0.32000000E+00 0.0000E+00 0.9000E+01
       25  2    1    2    0    0 -.95506484E+02 0.13980412E+02 0.10812865E+04 0.11283881E+04 0.30783472E+03 0.0000E+00 0.0000E+00
       23  2    1    2    0    0 0.95506484E+02 -.13980412E+02 -.55822614E+02 0.14402970E+03 0.91167161E+02 0.0000E+00 0.0000E+00
       23  1    3    3    0    0 -.63988787E+02 -.11542693E+03 0.57823370E+03 0.60007283E+03 0.91188000E+02 0.0000E+00 0.9000E+01
      -13  1    4    4    0    0 0.32984657E+02 0.26471230E+02 0.11299243E+02 0.43776680E+02 0.10565837E+00 0.0000E+00 0.9000E+01
       13  1    4    4    0    0 0.62521826E+02 -.40451642E+02 -.67121857E+02 0.10025302E+03 0.10565837E+00 0.0000E+00 0.9000E+01
       23  1    3    3    0    0 -.31517697E+02 0.12940734E+03 0.50305279E+03 0.52831524E+03 0.91188000E+02 0.0000E+00 0.9000E+01
#aMCatNLO 1  0  0  2  1 0.77347089D+03 0.00000000D+00  -5  7  0 0.00000000D+00 0.00000000D+00 0.00000000D+00 0.00000000D+00 0.00000000D+00
  <mgrwgt>
 0.2212608942D-03    3    2    0
 0.376653296595887D+03 0.000000000000000D+00 0.000000000000000D+00 0.376653296595887D+03
 0.376653296595887D+03 0.000000000000000D+00 0.000000000000000D+00 -.376653296595887D+03
 0.226449035777386D+03 -.639887865736421D+02 -.115426879840261D+03 0.159831114191456D+03
 0.585618918790146D+02 0.329846197370571D+02 0.264713194709183D+02 -.405065338768911D+02
 0.260710575874033D+03 0.625218751342271D+02 -.404517330325142D+02 -.249849308177822D+03
 0.207585089661341D+03 -.315177082976420D+02 0.129407293401857D+03 0.130524727863257D+03
 0.000000000000000D+00 0.000000000000000D+00 -.000000000000000D+00 0.000000000000000D+00
 0.115984835924777D+04 0.000000000000000D+00 0.000000000000000D+00 0.115984835924777D+04
 0.781075656242633D+03 0.000000000000000D+00 0.000000000000000D+00 -.781075656242633D+03
 0.328651295595344D+03 -.272185514121609D+03 -.809219322381639D+01 0.159831114191456D+03
 0.662869290647208D+02 -.138413583603228D+02 0.506121969178648D+02 -.405065338768911D+02
 0.297576189875996D+03 -.146869961067808D+03 0.674990853280163D+02 -.249849308177822D+03
 0.387174450989363D+03 -.254589075837978D+03 0.244410519485357D+03 0.130524727863257D+03
 0.861235149964978D+03 0.687485909387717D+03 -.354429608507422D+03 0.378772703005137D+03
0.699254900968D-05 0.000000000000D+00 0.000000000000D+00 0.701980258536D-08 0.000000000000D+00  7 1 -1 23 -13 13 23 21 0 0.17676013D+00 0.18996453D-01 0.48090519D+05 0.48090519D+05 0.48090519D+05 0.11487858D+01  1  2  2  2  7  2       -1 0.213999074765D-03 0.100000000000D+01
-.250281818378D-06 0.000000000000D+00 -.268532293776D-07 0.701980258536D-08 0.000000000000D+00  7 1 -1 23 -13 13 23 21 2 0.17676013D+00 0.18996453D-01 0.48090519D+05 0.48090519D+05 0.48090519D+05 0.11487858D+01  1  2  3  2  7  2       -1 -.101084321672D-04 0.100000000000D+01
0.430082339694D-06 0.000000000000D+00 0.000000000000D+00 0.701980258536D-08 0.000000000000D+00  7 1 -1 23 -13 13 23 21 2 0.17676013D+00 0.18996453D-01 0.48090519D+05 0.48090519D+05 0.48090519D+05 0.11487858D+01  1  2 15  2  7  2       -1 0.173702516039D-04 0.100000000000D+01
  </mgrwgt>
  </event>
  <event>
  8     66 0.24912036E-05 0.15327732E+03 0.75467711E-02 0.96274928E-01
        1 -1    0    0  501    0 0.00000000E+00 0.00000000E+00 0.14780905E+04 0.14780906E+04 0.32000000E+00 0.0000E+00 0.9000E+01
       -1 -1    0    0    0  501 0.00000000E+00 0.00000000E+00 -.13578813E+03 0.13578851E+03 0.32000000E+00 0.0000E+00 0.9000E+01
       25  2    1    2    0    0 -.21403401E+01 0.33855125E+03 0.10968309E+04 0.11861017E+04 0.29862634E+03 0.0000E+00 0.0000E+00
       23  2    1    2    0    0 0.21403401E+01 -.33855125E+03 0.24547149E+03 0.42777736E+03 0.90087145E+02 0.0000E+00 0.0000E+00
       23  1    3    3    0    0 -.81874825E+02 0.87433724E+02 0.57592218E+03 0.59527284E+03 0.91188000E+02 0.0000E+00 0.9000E+01
      -13  1    4    4    0    0 0.18793633E+02 -.32650927E+02 0.43656580E+01 0.37925635E+02 0.10565837E+00 0.0000E+00 0.9000E+01
       13  1    4    4    0    0 -.16653293E+02 -.30590032E+03 0.24110583E+03 0.38985173E+03 0.10565837E+00 0.0000E+00 0.9000E+01
       23  1    3    3    0    0 0.79734484E+02 0.25111752E+03 0.52090874E+03 0.59082888E+03 0.91188000E+02 0.0000E+00 0.9000E+01
#aMCatNLO 1  0  0  1  2 0.90472214D+02 0.00000000D+00  -5  7  0 0.00000000D+00 0.00000000D+00 0.00000000D+00 0.00000000D+00 0.00000000D+00
  <mgrwgt>
 0.2924908677D-03    9    2    0
 0.448003888235554D+03 0.000000000000000D+00 0.000000000000000D+00 0.448003888235554D+03
 0.448003888235554D+03 0.000000000000000D+00 0.000000000000000D+00 -.448003888235554D+03
 0.209414089655127D+03 -.818748245120348D+02 0.874337235601415D+02 0.145570830517717D+03
 0.617706820794266D+02 0.187936818636194D+02 -.326505507826802D+02 -.489525915570799D+02
 0.340998109468953D+03 -.166533417308360D+02 -.305900695369679D+03 -.149756941217903D+03
 0.283824895267601D+03 0.797344843792514D+02 0.251117522592218D+03 0.531387022572658D+02
 0.000000000000000D+00 -.000000000000000D+00 -.000000000000000D+00 0.000000000000000D+00
 0.555067235302591D+03 0.000000000000000D+00 0.000000000000000D+00 0.555067235302591D+03
 0.469810447083042D+03 0.000000000000000D+00 0.000000000000000D+00 -.469810447083042D+03
 0.202738048226270D+03 -.611545365888965D+02 0.886381453527596D+02 0.145570830517717D+03
 0.637879095910310D+02 0.251059387501390D+02 -.322836340784852D+02 -.489525915570799D+02
 0.339260923278558D+03 0.175455904724468D+02 -.303912791563386D+03 -.149756941217903D+03
 0.294776918437029D+03 0.108822762883486D+03 0.252808356072438D+03 0.531387022572658D+02
 0.124313882852745D+03 -.903197555171756D+02 -.525007578332666D+01 0.852567882195489D+02
0.125710054627D-04 0.000000000000D+00 0.000000000000D+00 0.108037308273D-06 0.000000000000D+00  7 1 -1 23 -13 13 23 21 0 0.22739858D+00 0.20890513D-01 0.14952781D+06 0.14952781D+06 0.14952781D+06 0.11076600D+01  1  2  2  1  7  1        1 0.191747081029D-03 0.100000000000D+01
-.679994407426D-06 0.000000000000D+00 -.482759709987D-07 0.108037308273D-06 0.000000000000D+00  7 1 -1 23 -13 13 23 21 2 0.22739858D+00 0.20890513D-01 0.14952781D+06 0.14952781D+06 0.14952781D+06 0.11076600D+01  1  2  3  1  7  1        1 -.127255630935D-04 0.100000000000D+01
0.781377007632D-06 0.000000000000D+00 0.000000000000D+00 0.108037308273D-06 0.000000000000D+00  7 1 -1 23 -13 13 23 21 2 0.22739858D+00 0.20890513D-01 0.14952781D+06 0.14952781D+06 0.14952781D+06 0.11076600D+01  1  2 15  1  7  1        1 0.146228591027D-04 0.100000000000D+01
0.193615224237D-04 0.000000000000D+00 0.000000000000D+00 0.108037308273D-06 0.000000000000D+00  7 1 -1 23 -13 13 23 21 2 0.28632828D+00 0.20890513D-01 0.18785502D+06 0.18785502D+06 0.18785502D+06 0.10999211D+01  1  2 12  1  7  1        1 0.197799898238D-03 0.100000000000D+01
-.200283706482D-04 0.000000000000D+00 0.000000000000D+00 0.108037308273D-06 0.000000000000D+00  7 1 -1 23 -13 13 23 21 2 0.22739858D+00 0.20890513D-01 0.14952781D+06 0.14952781D+06 0.14952781D+06 0.11076600D+01  1  2  4  1  7  1        1 -.374815280185D-03 0.100000000000D+01
-.312935902731D-04 0.000000000000D+00 -.671526654724D-05 0.108037308273D-06 0.000000000000D+00  7 1 -1 23 -13 13 23 21 2 0.28724518D+00 0.20890513D-01 0.14952781D+06 0.14952781D+06 0.14952781D+06 0.11076600D+01  1  2  5  1  7  1        1 -.324169842160D-03 0.100000000000D+01
0.321599779909D-04 0.000000000000D+00 0.653607178866D-05 0.108037308273D-06 0.000000000000D+00  7 1 -1 23 -13 13 23 21 2 0.22739858D+00 0.20890513D-01 0.14952781D+06 0.14952781D+06 0.14952781D+06 0.11076600D+01  1  2  6  1  7  1        1 0.601848816018D-03 0.100000000000D+01
0.616783532219D-06 0.000000000000D+00 0.000000000000D+00 0.108037308273D-06 0.000000000000D+00  7 21 -1 23 -13 13 23 -1 2 0.28632828D+00 0.20890513D-01 0.18785502D+06 0.18785502D+06 0.18785502D+06 0.10999211D+01  1  2 12  3  7  1        1 0.363906903541D-05 0.100000000000D+01
-.906574541704D-06 0.000000000000D+00 -.216134702877D-06 0.108037308273D-06 0.000000000000D+00  7 21 -1 23 -13 13 23 -1 2 0.28724518D+00 0.20890513D-01 0.14952781D+06 0.14952781D+06 0.14952781D+06 0.11076600D+01  1  2  5  3  7  1        1 -.545617031020D-05 0.100000000000D+01
  </mgrwgt>
  </event>
  <event>
  8     66 0.24912036E-05 0.19602385E+03 0.75467711E-02 0.10498720E+00
        1 -1    0    0  501    0 0.00000000E+00 0.00000000E+00 0.16735834E+04 0.16735834E+04 0.32000000E+00 0.0000E+00 0.9000E+01
       -1 -1    0    0    0  501 0.00000000E+00 0.00000000E+00 -.34956549E+02 0.34958014E+02 0.32000000E+00 0.0000E+00 0.9000E+01
       25  2    1    2    0    0 -.11767384E+03 0.42167027E+02 0.98569042E+03 0.10376214E+04 0.29907753E+03 0.0000E+00 0.0000E+00
       23  2    1    2    0    0 0.11767384E+03 -.42167027E+02 0.65293640E+03 0.67092002E+03 0.90457361E+02 0.0000E+00 0.0000E+00
       23  1    3    3    0    0 0.67717276E+01 0.19189631E+02 0.74481999E+03 0.75065716E+03 0.91188000E+02 0.0000E+00 0.9000E+01
      -11  1    4    4    0    0 0.86054315E+02 0.46067876E+01 0.25905787E+03 0.27301565E+03 0.51099893E-03 0.0000E+00 0.9000E+01
       11  1    4    4    0    0 0.31619526E+02 -.46773815E+02 0.39387854E+03 0.39790437E+03 0.51099893E-03 0.0000E+00 0.9000E+01
       23  1    3    3    0    0 -.12444557E+03 0.22977396E+02 0.24087044E+03 0.28696425E+03 0.91188000E+02 0.0000E+00 0.9000E+01
#aMCatNLO 1  0  0  1  1 0.47148953D+02 0.00000000D+00  -5  7  0 0.00000000D+00 0.00000000D+00 0.00000000D+00 0.00000000D+00 0.00000000D+00
  <mgrwgt>
 0.1386812063D-03    4    2    0
 0.241875952694735D+03 0.000000000000000D+00 0.000000000000000D+00 0.241875952694735D+03
 0.241875952694735D+03 0.000000000000000D+00 0.000000000000000D+00 -.241875952694735D+03
 0.128261670915922D+03 0.677172757226551D+01 0.191896312510889D+02 0.878732418901146D+02
 0.867373922507319D+02 0.860543152119886D+02 0.460678762394806D+01 -.983908306911152D+01
 0.711442297650394D+02 0.316195264658938D+02 -.467738149717724D+02 0.432887653776330D+02
 0.197608612457776D+03 -.124445569250148D+03 0.229773960967355D+02 -.121322924198636D+03
 0.000000000000000D+00 -.000000000000000D+00 0.000000000000000D+00 -.000000000000000D+00
 0.255593325142868D+03 0.000000000000000D+00 0.000000000000000D+00 0.255593325142868D+03
 0.287230594925267D+03 0.000000000000000D+00 0.000000000000000D+00 -.287230594925267D+03
 0.129000177752141D+03 0.188149991127327D+02 0.158140344059706D+02 0.878732418901146D+02
 0.951032763330747D+02 0.945668737596049D+02 0.222081088327054D+01 -.983908306911152D+01
 0.756791583587720D+02 0.384928111788088D+02 -.487003212466294D+02 0.432887653776330D+02
 0.186261551988341D+03 -.106475346884711D+03 0.179405399801052D+02 -.121322924198636D+03
 0.567797556358065D+02 -.453993371664351D+02 0.127249359772830D+02 -.316372697823989D+02
0.230710363503D-05 0.000000000000D+00 0.000000000000D+00 0.452203524780D-07 0.000000000000D+00  7 1 -1 23 -11 11 23 21 0 0.25747448D+00 0.53780456D-02 0.38425351D+05 0.38425351D+05 0.38425351D+05 0.11574917D+01  1  2  2  1  7  1        1 0.217092720169D-03 0.100000000000D+01
-.121287571556D-06 0.000000000000D+00 -.885988543286D-08 0.452203524780D-07 0.000000000000D+00  7 1 -1 23 -11 11 23 21 2 0.25747448D+00 0.53780456D-02 0.38425351D+05 0.38425351D+05 0.38425351D+05 0.11574917D+01  1  2  3  1  7  1        1 -.152908001221D-04 0.100000000000D+01
0.148309714946D-06 0.000000000000D+00 0.000000000000D+00 0.452203524780D-07 0.000000000000D+00  7 1 -1 23 -11 11 23 21 2 0.25747448D+00 0.53780456D-02 0.38425351D+05 0.38425351D+05 0.38425351D+05 0.11574917D+01  1  2 15  1  7  1        1 0.186974986664D-04 0.100000000000D+01
-.648987117122D-06 0.000000000000D+00 0.000000000000D+00 0.452203524780D-07 0.000000000000D+00  7 1 -1 23 -11 11 23 21 2 0.25747448D+00 0.53780456D-02 0.38425351D+05 0.38425351D+05 0.38425351D+05 0.11574917D+01  1  2  4  1  7  1        1 -.818182123894D-04 0.100000000000D+01
  </mgrwgt>
  </event>
  <event>
  8     66 0.24912036E-05 0.18372345E+03 0.75467711E-02 0.97073112E-01
        3 -1    0    0  501    0 0.00000000E+00 0.00000000E+00 0.66610560E+03 0.66610579E+03 0.50000000E+00 0.0000E+00 0.9000E+01
       -3 -1    0    0    0  501 0.00000000E+00 0.00000000E+00 -.79359989E+02 0.79361564E+02 0.50000000E+00 0.0000E+00 0.9000E+01
       25  2    1    2    0    0 0.41879052E+02 0.54653115E+02 0.27417359E+03 0.41295029E+03 0.30102487E+03 0.0000E+00 0.0000E+00
       23  2    1    2    0    0 -.41879052E+02 -.54653115E+02 0.31257202E+03 0.33251706E+03 0.90141596E+02 0.0000E+00 0.0000E+00
       23  1    3    3    0    0 0.41136202E+02 -.52789474E+02 0.24384089E+03 0.26879834E+03 0.91188000E+02 0.0000E+00 0.9000E+01
      -13  1    4    4    0    0 -.70626142E+02 -.38764789E+02 0.21928413E+03 0.23361572E+03 0.10565837E+00 0.0000E+00 0.9000E+01
       13  1    4    4    0    0 0.28747090E+02 -.15888326E+02 0.93287887E+02 0.98901340E+02 0.10565837E+00 0.0000E+00 0.9000E+01
       23  1    3    3    0    0 0.74284973E+00 0.10744259E+03 0.30332698E+02 0.14415195E+03 0.91188000E+02 0.0000E+00 0.9000E+01
#aMCatNLO 1  0  0  2  1 0.32864099D+03 0.00000000D+00  -5  7  0 0.00000000D+00 0.00000000D+00 0.00000000D+00 0.00000000D+00 0.00000000D+00
  <mgrwgt>
 0.1673672291D-04    5    2    0
 0.229919094790968D+03 0.000000000000000D+00 0.000000000000000D+00 0.229919094790968D+03
 0.229919094790968D+03 0.000000000000000D+00 0.000000000000000D+00 -.229919094790968D+03
 0.124626039489340D+03 0.411362046848121D+02 -.527894709919449D+02 0.523209593883591D+02
 0.989237632252659D+02 -.706262696459489D+02 -.387648265212304D+02 0.574032158622241D+02
 0.413002281421166D+02 0.287472111163705D+02 -.158882976128002D+02 0.250373460372459D+02
 0.194988158725213D+03 0.742853844766188D+00 0.107442595125976D+03 -.134761521287829D+03
 0.000000000000000D+00 -.000000000000000D+00 0.000000000000000D+00 -.000000000000000D+00
 0.360482063707270D+03 0.000000000000000D+00 0.000000000000000D+00 0.360482063707270D+03
 0.629305874332156D+03 0.000000000000000D+00 0.000000000000000D+00 -.629305874332156D+03
 0.198058580491817D+03 0.129035045268968D+03 -.107351871262454D+03 0.523209593883591D+02
 0.933170014263282D+02 -.182601533839671D+02 -.712706135954380D+02 0.574032158622241D+02
 0.742080326156328D+02 0.602115003009353D+02 -.354194669582209D+02 0.250373460372459D+02
 0.199620829129021D+03 0.108233791957961D+03 0.407185797486680D+02 -.134761521287829D+03
 0.424583494376626D+03 -.279220184143897D+03 0.173323372067445D+03 -.268823810624886D+03
0.804955226578D-06 0.000000000000D+00 0.000000000000D+00 0.236470438852D-07 0.000000000000D+00  7 3 -3 23 -13 13 23 21 0 0.10247792D+00 0.12209365D-01 0.33754305D+05 0.33754305D+05 0.33754305D+05 0.11626144D+01  1  2  2  2  7  2       -3 0.148269058952D-04 0.100000000000D+01
-.419843195413D-07 0.000000000000D+00 -.309124001964D-08 0.236470438852D-07 0.000000000000D+00  7 3 -3 23 -13 13 23 21 2 0.10247792D+00 0.12209365D-01 0.33754305D+05 0.33754305D+05 0.33754305D+05 0.11626144D+01  1  2  3  2  7  2       -3 -.104529121730D-05 0.100000000000D+01
0.493315519193D-07 0.000000000000D+00 0.000000000000D+00 0.236470438852D-07 0.000000000000D+00  7 3 -3 23 -13 13 23 21 2 0.10247792D+00 0.12209365D-01 0.33754305D+05 0.33754305D+05 0.33754305D+05 0.11626144D+01  1  2 15  2  7  2       -3 0.122821659420D-05 0.100000000000D+01
0.240095251754D-06 0.000000000000D+00 -.301013822857D-06 0.236470438852D-07 0.000000000000D+00  7 3 -3 23 -13 13 23 21 2 0.10247792D+00 0.51036229D-01 0.33754305D+05 0.33754305D+05 0.33754305D+05 0.11626144D+01  1  2  5  2  7  2       -3 0.442676553027D-06 0.100000000000D+01
0.424910094005D-07 0.000000000000D+00 -.516607387482D-07 0.236470438852D-07 0.000000000000D+00  7 3 21 23 -13 13 23 3 2 0.10247792D+00 0.51036229D-01 0.33754305D+05 0.33754305D+05 0.33754305D+05 0.11626144D+01  1  2  5  4  7  2       -3 0.128421508327D-05 0.100000000000D+01
  </mgrwgt>
  </event>
  <event>
  8     66 0.24912036E-05 0.26214427E+03 0.75467711E-02 0.94487434E-01
        1 -1    0    0  501    0 0.00000000E+00 0.00000000E+00 0.63546209E+03 0.63546217E+03 0.32000000E+00 0.0000E+00 0.9000E+01
       -1 -1    0    0    0  501 0.00000000E+00 0.00000000E+00 -.21164930E+03 0.21164954E+03 0.32000000E+00 0.0000E+00 0.9000E+01
       25  2    1    2    0    0 -.86990168E+02 -.15952006E+03 -.25474090E+02 0.35402278E+03 0.30276932E+03 0.0000E+00 0.0000E+00
       23  2    1    2    0    0 0.86990168E+02 0.15952006E+03 0.44928687E+03 0.49308893E+03 0.90906869E+02 0.0000E+00 0.0000E+00
       23  1    3    3    0    0 -.25970418E+01 -.17473596E+03 -.85906891E+02 0.21502243E+03 0.91188000E+02 0.0000E+00 0.9000E+01
      -13  1    4    4    0    0 0.55778279E+02 0.20357671E+02 0.10900273E+03 0.12412597E+03 0.10565837E+00 0.0000E+00 0.9000E+01
       13  1    4    4    0    0 0.31211888E+02 0.13916239E+03 0.34028415E+03 0.36896296E+03 0.10565837E+00 0.0000E+00 0.9000E+01
       23  1    3    3    0    0 -.84393126E+02 0.15215893E+02 0.60432801E+02 0.13900035E+03 0.91188000E+02 0.0000E+00 0.9000E+01
#aMCatNLO 1  0  0  1  1 0.36670120D+03 0.00000000D+00  -5  7  0 0.00000000D+00 0.00000000D+00 0.00000000D+00 0.00000000D+00 0.00000000D+00
  <mgrwgt>
 0.1673973011D-03    5    2    0
 0.366735930969260D+03 0.000000000000000D+00 0.000000000000000D+00 0.366735930969260D+03
 0.366735930969260D+03 0.000000000000000D+00 0.000000000000000D+00 -.366735930969260D+03
 0.297975240039960D+03 -.259704183503304D+01 -.174735955419032D+03 -.223460496711112D+03
 0.803734536536915D+02 0.557783123659557D+02 0.203575111526245D+02 0.541686594028201D+02
 0.229506035504008D+03 0.312118554045382D+02 0.139162551178737D+03 0.179812749170904D+03
 0.125617132740860D+03 -.843931259354609D+02 0.152158930876707D+02 -.105209118626120D+02
 0.000000000000000D+00 -.000000000000000D+00 -.000000000000000D+00 0.000000000000000D+00
 0.728527798204695D+03 0.000000000000000D+00 0.000000000000000D+00 0.728527798204695D+03
 0.515560658708970D+03 0.000000000000000D+00 0.000000000000000D+00 -.515560658708970D+03
 0.298834138716673D+03 0.127772047261265D+03 -.121351973477253D+03 -.223460496711112D+03
 0.119522092400688D+03 0.994441815381345D+02 0.382379610930074D+02 0.541686594028201D+02
 0.297396262907624D+03 0.146310201931497D+03 0.186293417054352D+03 0.179812749170904D+03
 0.104278447921929D+03 -.341739462357164D+02 0.357798151094150D+02 -.105209118626120D+02
 0.424057514966751D+03 -.339352484495180D+03 -.138959219779521D+03 0.212967139495724D+03
0.499302580814D-05 0.000000000000D+00 0.000000000000D+00 0.455031395527D-07 0.000000000000D+00  7 1 -1 23 -13 13 23 21 0 0.97763423D-01 0.32561456D-01 0.68719616D+05 0.68719616D+05 0.68719616D+05 0.11353418D+01  1  2  2  1  7  1        1 0.164835517955D-03 0.100000000000D+01
-.239371622584D-06 0.000000000000D+00 -.191745337971D-07 0.455031395527D-07 0.000000000000D+00  7 1 -1 23 -13 13 23 21 2 0.97763423D-01 0.32561456D-01 0.68719616D+05 0.68719616D+05 0.68719616D+05 0.11353418D+01  1  2  3  1  7  1        1 -.101862166087D-04 0.100000000000D+01
0.305326072616D-06 0.000000000000D+00 0.000000000000D+00 0.455031395527D-07 0.000000000000D+00  7 1 -1 23 -13 13 23 21 2 0.97763423D-01 0.32561456D-01 0.68719616D+05 0.68719616D+05 0.68719616D+05 0.11353418D+01  1  2 15  1  7  1        1 0.129928413334D-04 0.100000000000D+01
-.959152223459D-07 0.000000000000D+00 -.152508262400D-05 0.455031395527D-07 0.000000000000D+00  7 1 -1 23 -13 13 23 21 2 0.23893782D+00 0.32561456D-01 0.68719616D+05 0.68719616D+05 0.68719616D+05 0.11353418D+01  1  2  5  1  7  1        1 -.833559481141D-06 0.100000000000D+01
0.858390228178D-07 0.000000000000D+00 -.149501673996D-06 0.455031395527D-07 0.000000000000D+00  7 21 -1 23 -13 13 23 -1 2 0.23893782D+00 0.32561456D-01 0.68719616D+05 0.68719616D+05 0.68719616D+05 0.11353418D+01  1  2  5  3  7  1        1 0.588717881261D-06 0.100000000000D+01
  </mgrwgt>
  </event>
  <event>
  9     66 0.24912036E-05 0.39391381E+03 0.75467711E-02 0.93230348E-01
        1 -1    0    0  502    0 0.00000000E+00 0.00000000E+00 0.19861370E+04 0.19861371E+04 0.32000000E+00 0.0000E+00 0.9000E+01
       -1 -1    0    0    0  501 0.00000000E+00 0.00000000E+00 -.38698643E+03 0.38698656E+03 0.32000000E+00 0.0000E+00 0.9000E+01
       25  2    1    2    0    0 -.29977459E+03 0.55064814E+02 0.14306556E+04 0.14934402E+04 0.30114971E+03 0.0000E+00 0.0000E+00
       23  2    1    2    0    0 0.36531256E+03 0.24347346E+03 -.11493052E+03 0.46284906E+03 0.91036411E+02 0.0000E+00 0.0000E+00
       23  1    3    3    0    0 -.17266716E+03 -.35673557E+02 0.10883064E+04 0.11062607E+04 0.91188000E+02 0.0000E+00 0.9000E+01
      -13  1    4    4    0    0 0.31497491E+03 0.16701065E+03 -.84636981E+02 0.36642214E+03 0.10565837E+00 0.0000E+00 0.9000E+01
       13  1    4    4    0    0 0.50337650E+02 0.76462814E+02 -.30293539E+02 0.96426919E+02 0.10565837E+00 0.0000E+00 0.9000E+01
       23  1    3    3    0    0 -.12710743E+03 0.90738371E+02 0.34234916E+03 0.38717948E+03 0.91188000E+02 0.0000E+00 0.9000E+01
       21  1    1    2  502  501 -.65537977E+02 -.29853827E+03 0.28342552E+03 0.41683440E+03 0.75000000E+00 0.0000E+00 0.9000E+01
#aMCatNLO 2  0  0  1  1 0.30564739D+03 0.00000000D+00  -5  7  0 0.00000000D+00 0.00000000D+00 0.00000000D+00 0.00000000D+00 0.00000000D+00
  <mgrwgt>
 0.4400256198D-04    1    2    0
 0.707551184516205D+03 0.000000000000000D+00 0.000000000000000D+00 0.707551184516205D+03
 0.707551184516205D+03 0.000000000000000D+00 0.000000000000000D+00 -.707551184516205D+03
 0.532979082370270D+03 -.196447419905583D+03 -.143997296349283D+03 0.465214617952608D+03
 0.535428074819099D+03 0.289621967343493D+03 0.515215238551190D+02 -.447378890780754D+03
 0.143007363985007D+03 0.434503204615632D+02 0.450911859581977D+02 -.128568894973128D+03
 0.203687847858035D+03 -.136624867899473D+03 0.473845865359667D+02 0.110733167801273D+03
 0.000000000000000D+00 -.000000000000000D+00 -.000000000000000D+00 0.000000000000000D+00
 0.878785159416398D+03 0.000000000000000D+00 0.000000000000000D+00 0.878785159416398D+03
 0.874624994311442D+03 0.000000000000000D+00 0.000000000000000D+00 -.874624994311442D+03
 0.505792884171658D+03 -.172667156494549D+03 -.356735566768951D+02 0.465214617952608D+03
 0.572057593030165D+03 0.314975270814970D+03 0.167010767923165D+03 -.447378890780754D+03
 0.157830121375112D+03 0.503372936146723D+02 0.764626924076165D+02 -.128568894973128D+03
 0.212053853134059D+03 -.127107430503222D+03 0.907383708502893D+02 0.110733167801273D+03
 0.305675702016846D+03 -.655379774318703D+02 -.298538274504176D+03 0.416016510495538D+01
0.338965235575D-04 0.000000000000D+00 0.000000000000D+00 0.121118328995D-05 0.830046574960D-10  7 1 -1 23 -13 13 23 21 2 0.30555940D+00 0.59536355D-01 0.32095038D+06 0.32095038D+06 0.32095038D+06 0.10823895D+01  1  2  1  1  7  1        1 0.440025619817D-04 0.100000000000D+01
  </mgrwgt>
  </event>
  <event>
  8     66 0.24912036E-05 0.73832523E+02 0.75467711E-02 0.10093326E+00
        1 -1    0    0  501    0 0.00000000E+00 0.00000000E+00 0.57715843E+03 0.57715852E+03 0.32000000E+00 0.0000E+00 0.9000E+01
       -1 -1    0    0    0  501 0.00000000E+00 0.00000000E+00 -.13736212E+03 0.13736249E+03 0.32000000E+00 0.0000E+00 0.9000E+01
       25  2    1    2    0    0 -.14580122E+03 -.93062608E+02 0.35865310E+03 0.50213645E+03 0.30592535E+03 0.0000E+00 0.0000E+00
       23  2    1    2    0    0 0.14580122E+03 0.93062608E+02 0.81143213E+02 0.21238457E+03 0.92759577E+02 0.0000E+00 0.0000E+00
       23  1    3    3    0    0 -.12917361E+03 -.81379447E+02 0.57609239E+02 0.18692916E+03 0.91188000E+02 0.0000E+00 0.9000E+01
      -13  1    4    4    0    0 0.14296152E+02 0.31888396E+02 0.54769122E+02 0.64968589E+02 0.10565837E+00 0.0000E+00 0.9000E+01
       13  1    4    4    0    0 0.13150507E+03 0.61174212E+02 0.26374092E+02 0.14741598E+03 0.10565837E+00 0.0000E+00 0.9000E+01
       23  1    3    3    0    0 -.16627608E+02 -.11683162E+02 0.30104386E+03 0.31520728E+03 0.91188000E+02 0.0000E+00 0.9000E+01
#aMCatNLO 1  0  0  1  2 0.12501412D+03 0.00000000D+00  -5  7  0 0.00000000D+00 0.00000000D+00 0.00000000D+00 0.00000000D+00 0.00000000D+00
  <mgrwgt>
 0.1275399768D-03    7    2    0
 0.281566812410446D+03 0.000000000000000D+00 0.000000000000000D+00 0.281566812410446D+03
 0.281566812410446D+03 0.000000000000000D+00 0.000000000000000D+00 -.281566812410446D+03
 0.192189641738352D+03 -.129173608429717D+03 -.813794470780287D+02 -.728915051706084D+02
 0.396603553419960D+02 0.142960227965919D+02 0.318883716913198D+02 0.187536468167916D+02
 0.166448491500035D+03 0.131505310527560D+03 0.611743107277100D+02 -.816649088205989D+02
 0.164835136240508D+03 -.166277248944356D+02 -.116832353410011D+02 0.135802767174416D+03
 0.000000000000000D+00 -.000000000000000D+00 0.000000000000000D+00 0.000000000000000D+00
 0.769949705285294D+03 0.000000000000000D+00 0.000000000000000D+00 0.769949705285294D+03
 0.296535598072350D+03 0.000000000000000D+00 0.000000000000000D+00 -.296535598072350D+03
 0.200364262837549D+03 -.110106061430593D+03 -.119975289908548D+03 -.728915051706084D+02
 0.356847490620055D+02 0.179557655800173D+02 0.244804519795859D+02 0.187536468167916D+02
 0.171255702040289D+03 0.147908638852845D+03 0.279712835124516D+02 -.816649088205989D+02
 0.169538427217313D+03 -.386175486375791D+00 -.445587954907370D+02 0.135802767174416D+03
 0.489642162200487D+03 -.553721675158934D+02 0.112082349907248D+03 0.473414107212945D+03
0.242845380573D-05 0.000000000000D+00 0.000000000000D+00 0.194653867080D-08 0.000000000000D+00  7 1 -1 23 -13 13 23 21 0 0.88793641D-01 0.21132669D-01 0.50904280D+05 0.50904280D+05 0.50904280D+05 0.11466113D+01  1  2  2  1  7  1        1 0.186966053934D-03 0.100000000000D+01
-.126864778182D-06 0.000000000000D+00 -.932590204056D-08 0.194653867080D-08 0.000000000000D+00  7 1 -1 23 -13 13 23 21 2 0.88793641D-01 0.21132669D-01 0.50904280D+05 0.50904280D+05 0.50904280D+05 0.11466113D+01  1  2  3  1  7  1        1 -.128412241091D-04 0.100000000000D+01
0.158903502435D-06 0.000000000000D+00 0.000000000000D+00 0.194653867080D-08 0.000000000000D+00  7 1 -1 23 -13 13 23 21 2 0.88793641D-01 0.21132669D-01 0.50904280D+05 0.50904280D+05 0.50904280D+05 0.11466113D+01  1  2 15  1  7  1        1 0.160841765202D-04 0.100000000000D+01
0.439690785766D-05 0.000000000000D+00 0.000000000000D+00 0.194653867080D-08 0.000000000000D+00  7 1 -1 23 -13 13 23 21 2 0.24048557D+00 0.21132669D-01 0.88218600D+05 0.88218600D+05 0.88218600D+05 0.11262170D+01  1  2 12  1  7  1        1 0.745603591784D-04 0.100000000000D+01
-.783456420916D-05 0.000000000000D+00 -.760290812315D-06 0.194653867080D-08 0.000000000000D+00  7 1 -1 23 -13 13 23 21 2 0.24621819D+00 0.21132669D-01 0.50904280D+05 0.50904280D+05 0.50904280D+05 0.11466113D+01  1  2  5  1  7  1        1 -.132557681983D-03 0.100000000000D+01
0.488939321688D-06 0.000000000000D+00 0.000000000000D+00 0.194653867080D-08 0.000000000000D+00  7 21 -1 23 -13 13 23 -1 2 0.24048557D+00 0.21132669D-01 0.88218600D+05 0.88218600D+05 0.88218600D+05 0.11262170D+01  1  2 12  3  7  1        1 0.640758947275D-05 0.100000000000D+01
-.852761163987D-06 0.000000000000D+00 -.869221546268D-07 0.194653867080D-08 0.000000000000D+00  7 21 -1 23 -13 13 23 -1 2 0.24621819D+00 0.21132669D-01 0.50904280D+05 0.50904280D+05 0.50904280D+05 0.11466113D+01  1  2  5  3  7  1        1 -.110792961650D-04 0.100000000000D+01
  </mgrwgt>
  </event>
  <event>
  8     66 0.24912036E-05 0.26426103E+03 0.75467711E-02 0.90468876E-01
        1 -1    0    0  501    0 0.00000000E+00 0.00000000E+00 0.93419362E+03 0.93419367E+03 0.32000000E+00 0.0000E+00 0.9000E+01
       -1 -1    0    0    0  501 0.00000000E+00 0.00000000E+00 -.81644249E+02 0.81644876E+02 0.32000000E+00 0.0000E+00 0.9000E+01
       25  2    1    2    0    0 0.29840351E+02 -.17651671E+03 0.51876609E+03 0.62549291E+03 0.30012418E+03 0.0000E+00 0.0000E+00
       23  2    1    2    0    0 -.29840351E+02 0.17651671E+03 0.33378328E+03 0.39034564E+03 0.94391997E+02 0.0000E+00 0.0000E+00
       23  1    3    3    0    0 0.72758964E+02 -.19845026E+03 0.43680386E+03 0.49375017E+03 0.91188000E+02 0.0000E+00 0.9000E+01
      -11  1    4    4    0    0 -.92454214E+01 0.17421199E+03 0.25559579E+03 0.30945840E+03 0.51099893E-03 0.0000E+00 0.9000E+01
       11  1    4    4    0    0 -.20594930E+02 0.23047253E+01 0.78187484E+02 0.80887240E+02 0.51099893E-03 0.0000E+00 0.9000E+01
       23  1    3    3    0    0 -.42918613E+02 0.21933551E+02 0.81962237E+02 0.13174273E+03 0.91188000E+02 0.0000E+00 0.9000E+01
#aMCatNLO 1  0  0  1  2 0.64773710D+03 0.00000000D+00  -5  7  0 0.00000000D+00 0.00000000D+00 0.00000000D+00 0.00000000D+00 0.00000000D+00
  <mgrwgt>
 0.2812883988D-03    3    2    0
 0.276173645971509D+03 0.000000000000000D+00 0.000000000000000D+00 0.276173645971509D+03
 0.276173645971509D+03 0.000000000000000D+00 0.000000000000000D+00 -.276173645971509D+03
 0.233863024215585D+03 0.727589641611840D+02 -.198450263583366D+03 0.412345579477151D+02
 0.174621556108262D+03 -.924542147088151D+01 0.174211986761553D+03 -.757586352103332D+01
 0.280795909169230D+02 -.205949295665558D+02 0.230472539986580D+01 0.189473096518098D+02
 0.115783120702248D+03 -.429186131237467D+02 0.219335514219476D+02 -.526060040784916D+02
 0.000000000000000D+00 -.000000000000000D+00 0.000000000000000D+00 -.000000000000000D+00
 0.514377197848770D+03 0.000000000000000D+00 0.000000000000000D+00 0.514377197848770D+03
 0.160756660954840D+04 0.000000000000000D+00 0.000000000000000D+00 -.160756660954840D+04
 0.478138950295993D+03 0.397958535798140D+03 -.245418661601785D+03 0.412345579477151D+02
 0.229188104921089D+03 0.175190483892572D+03 0.147574008831899D+03 -.757586352103332D+01
 0.189856122315520D+02 0.901617424609139D+00 -.800009240528599D+00 0.189473096518098D+02
 0.124951619150735D+03 0.670345008855613D+02 0.605308271112453D+01 -.526060040784916D+02
 0.127067952079780D+04 -.641085138000882D+03 0.925915792992898D+02 -.109318941169963D+04
0.333316665734D-05 0.000000000000D+00 0.000000000000D+00 0.554998370580D-07 0.000000000000D+00  7 1 -1 23 -11 11 23 21 0 0.14372215D+00 0.12560706D-01 0.69833890D+05 0.69833890D+05 0.69833890D+05 0.11347473D+01  1  2  2  1  7  1        1 0.278890058082D-03 0.100000000000D+01
-.184738206947D-06 0.000000000000D+00 -.128002376071D-07 0.554998370580D-07 0.000000000000D+00  7 1 -1 23 -11 11 23 21 2 0.14372215D+00 0.12560706D-01 0.69833890D+05 0.69833890D+05 0.69833890D+05 0.11347473D+01  1  2  3  1  7  1        1 -.199035744778D-04 0.100000000000D+01
0.206998789488D-06 0.000000000000D+00 0.000000000000D+00 0.554998370580D-07 0.000000000000D+00  7 1 -1 23 -11 11 23 21 2 0.14372215D+00 0.12560706D-01 0.69833890D+05 0.69833890D+05 0.69833890D+05 0.11347473D+01  1  2 15  1  7  1        1 0.223019151884D-04 0.100000000000D+01
  </mgrwgt>
  </event>
  <event>
  8     66 0.24912036E-05 0.58446964E+03 0.75467711E-02 0.88143271E-01
        1 -1    0    0  501    0 0.00000000E+00 0.00000000E+00 0.14293494E+04 0.14293494E+04 0.32000000E+00 0.0000E+00 0.9000E+01
       -1 -1    0    0    0  501 0.00000000E+00 0.00000000E+00 -.56810987E+03 0.56810996E+03 0.32000000E+00 0.0000E+00 0.9000E+01
       25  2    1    2    0    0 -.74925417E+03 -.25244867E+03 0.29267176E+02 0.84608442E+03 0.29981684E+03 0.0000E+00 0.0000E+00
       23  2    1    2    0    0 0.74925417E+03 0.25244867E+03 0.83197235E+03 0.11513750E+04 0.91510630E+02 0.0000E+00 0.0000E+00
       23  1    3    3    0    0 -.14033990E+03 -.13665314E+03 0.38753078E+02 0.21951405E+03 0.91188000E+02 0.0000E+00 0.9000E+01
      -11  1    4    4    0    0 0.21997878E+03 0.68009706E+02 0.30414595E+03 0.38147181E+03 0.51099893E-03 0.0000E+00 0.9000E+01
       11  1    4    4    0    0 0.52927540E+03 0.18443897E+03 0.52782640E+03 0.76990317E+03 0.51099893E-03 0.0000E+00 0.9000E+01
       23  1    3    3    0    0 -.60891427E+03 -.11579554E+03 -.94859018E+01 0.62657037E+03 0.91188000E+02 0.0000E+00 0.9000E+01
#aMCatNLO 1  0  0  2  1 0.20480100D+03 0.00000000D+00  -5  7  0 0.00000000D+00 0.00000000D+00 0.00000000D+00 0.00000000D+00 0.00000000D+00
  <mgrwgt>
 0.4088199047D-03    9    2    0
 0.901125757825528D+03 0.000000000000000D+00 0.000000000000000D+00 0.901125757825528D+03
 0.901125757825528D+03 0.000000000000000D+00 0.000000000000000D+00 -.901125757825528D+03
 0.224771473409634D+03 -.140339901338837D+03 -.136653136791715D+03 -.619483350214355D+02
 0.277448473688362D+03 0.219978775029155D+03 0.680097059394691D+02 0.154795587749461D+03
 0.601062254369448D+03 0.529275395614672D+03 0.184438968961103D+03 0.217084444291111D+03
 0.698969314183614D+03 -.608914269304990D+03 -.115795538108857D+03 -.309931697019136D+03
 0.000000000000000D+00 0.000000000000000D+00 -.000000000000000D+00 -.000000000000000D+00
 0.995454051173920D+03 0.000000000000000D+00 0.000000000000000D+00 0.995454051173920D+03
 0.102537113842204D+04 0.000000000000000D+00 0.000000000000000D+00 -.102537113842204D+04
 0.238303773582294D+03 -.165906914567522D+03 -.130808014457518D+03 -.619483350214355D+02
 0.256587696338552D+03 0.190493912876909D+03 0.747505256333961D+02 0.154795587749461D+03
 0.550969633144085D+03 0.465670150680388D+03 0.198980379583143D+03 0.217084444291111D+03
 0.767989490792819D+03 -.689907057013685D+03 -.972789930548649D+02 -.309931697019136D+03
 0.206974595738209D+03 0.199649908023910D+03 -.456438977041568D+02 -.299170872481203D+02
0.212576258941D-03 0.000000000000D+00 0.000000000000D+00 0.767645322551D-05 0.000000000000D+00  7 1 -1 23 -11 11 23 21 0 0.21989992D+00 0.87401529D-01 0.66692360D+06 0.66692360D+06 0.66692360D+06 0.10597793D+01  1  2  2  2  7  2       -1 0.247490845536D-03 0.100000000000D+01
-.116706772291D-04 0.000000000000D+00 -.816348806947D-06 0.767645322551D-05 0.000000000000D+00  7 1 -1 23 -11 11 23 21 2 0.21989992D+00 0.87401529D-01 0.66692360D+06 0.66692360D+06 0.66692360D+06 0.10597793D+01  1  2  3  2  7  2       -1 -.152605897257D-04 0.100000000000D+01
0.139586575174D-04 0.000000000000D+00 0.000000000000D+00 0.767645322551D-05 0.000000000000D+00  7 1 -1 23 -11 11 23 21 2 0.21989992D+00 0.87401529D-01 0.66692360D+06 0.66692360D+06 0.66692360D+06 0.10597793D+01  1  2 15  2  7  2       -1 0.182523551387D-04 0.100000000000D+01
0.175630048793D-03 0.000000000000D+00 0.000000000000D+00 0.767645322551D-05 0.000000000000D+00  7 1 -1 23 -11 11 23 21 2 0.21989992D+00 0.10348129D+00 0.85435062D+06 0.85435062D+06 0.85435062D+06 0.10524453D+01  1  2 12  2  7  2       -1 0.153410416904D-03 0.100000000000D+01
-.158303630538D-03 0.000000000000D+00 0.000000000000D+00 0.767645322551D-05 0.000000000000D+00  7 1 -1 23 -11 11 23 21 2 0.21989992D+00 0.87401529D-01 0.66692360D+06 0.66692360D+06 0.66692360D+06 0.10597793D+01  1  2  4  2  7  2       -1 -.206997992516D-03 0.100000000000D+01
-.440481562779D-03 0.000000000000D+00 -.133420214420D-03 0.767645322551D-05 0.000000000000D+00  7 1 -1 23 -11 11 23 21 2 0.21989992D+00 0.10843055D+00 0.66692360D+06 0.66692360D+06 0.66692360D+06 0.10597793D+01  1  2  5  2  7  2       -1 -.355337539615D-03 0.100000000000D+01
0.461520619505D-03 0.000000000000D+00 0.130378329712D-03 0.767645322551D-05 0.000000000000D+00  7 1 -1 23 -11 11 23 21 2 0.21989992D+00 0.87401529D-01 0.66692360D+06 0.66692360D+06 0.66692360D+06 0.10597793D+01  1  2  6  2  7  2       -1 0.603484843764D-03 0.100000000000D+01
0.440521973397D-05 0.000000000000D+00 0.000000000000D+00 0.767645322551D-05 0.000000000000D+00  7 1 21 23 -11 11 23 1 2 0.21989992D+00 0.10348129D+00 0.85435062D+06 0.85435062D+06 0.85435062D+06 0.10524453D+01  1  2 12  4  7  2       -1 0.256872648071D-04 0.100000000000D+01
-.116003448847D-04 0.000000000000D+00 -.404279513555D-05 0.767645322551D-05 0.000000000000D+00  7 1 21 23 -11 11 23 1 2 0.21989992D+00 0.10843055D+00 0.66692360D+06 0.66692360D+06 0.66692360D+06 0.10597793D+01  1  2  5  4  7  2       -1 -.619096995492D-04 0.100000000000D+01
  </mgrwgt>
  </event>
  <event>
  8     66 0.24912036E-05 0.36747872E+03 0.75467711E-02 0.95159529E-01
        3 -1    0    0  501    0 0.00000000E+00 0.00000000E+00 0.22148498E+03 0.22148554E+03 0.50000000E+00 0.0000E+00 0.9000E+01
       -3 -1    0    0    0  501 0.00000000E+00 0.00000000E+00 -.62190902E+03 0.62190922E+03 0.50000000E+00 0.0000E+00 0.9000E+01
       25  2    1    2    0    0 -.14619132E+03 -.26081596E+03 -.18536470E+03 0.46310284E+03 0.30117653E+03 0.0000E+00 0.0000E+00
       23  2    1    2    0    0 0.14619132E+03 0.26081596E+03 -.21505934E+03 0.38029193E+03 0.94734172E+02 0.0000E+00 0.0000E+00
       23  1    3    3    0    0 0.49146325E+02 -.14860613E+03 -.86386804E+02 0.20069149E+03 0.91188000E+02 0.0000E+00 0.9000E+01
      -13  1    4    4    0    0 0.30214821E+01 -.67071112E+01 0.15058622E+01 0.75095592E+01 0.10565837E+00 0.0000E+00 0.9000E+01
       13  1    4    4    0    0 0.14316984E+03 0.26752307E+03 -.21656520E+03 0.37278237E+03 0.10565837E+00 0.0000E+00 0.9000E+01
       23  1    3    3    0    0 -.19533765E+03 -.11220983E+03 -.98977893E+02 0.26241135E+03 0.91188000E+02 0.0000E+00 0.9000E+01
#aMCatNLO 1  0  0  2  1 0.19441114D+03 0.00000000D+00  -5  7  0 0.00000000D+00 0.00000000D+00 0.00000000D+00 0.00000000D+00 0.00000000D+00
  <mgrwgt>
 0.4597703436D-04    4    2    0
 0.371138558581146D+03 0.000000000000000D+00 0.000000000000000D+00 0.371138558581146D+03
 0.371138558581146D+03 0.000000000000000D+00 0.000000000000000D+00 -.371138558581146D+03
 0.181429271901443D+03 0.491463230291108D+02 -.148606126432504D+03 0.101087822279876D+02
 0.934453042030515D+01 0.302130785657388D+01 -.670745141726969D+01 0.576212140593894D+01
 0.306738620407818D+03 0.143170015372109D+03 0.267523409341308D+03 -.449683600150608D+02
 0.244764694432726D+03 -.195337646257794D+03 -.112209831491535D+03 0.290974563811343D+02
 0.000000000000000D+00 0.000000000000000D+00 0.000000000000000D+00 0.000000000000000D+00
 0.546299440930950D+03 0.000000000000000D+00 0.000000000000000D+00 0.546299440930950D+03
 0.441753397159464D+03 0.000000000000000D+00 0.000000000000000D+00 -.441753397159464D+03
 0.225370015676438D+03 0.451325798003766D+02 -.200841368707813D+03 0.101087822279876D+02
 0.113506932782313D+02 0.281711547835779D+01 -.936483076095354D+01 0.576212140593894D+01
 0.244350464742933D+03 0.137732616262777D+03 0.196760571850800D+03 -.449683600150608D+02
 0.286242979856938D+03 -.200576909260874D+03 -.180394106546979D+03 0.290974563811343D+02
 0.220738684535873D+03 0.148945977193627D+02 0.193839734164945D+03 0.104546043771486D+03
0.174658039914D-04 0.000000000000D+00 0.000000000000D+00 0.207593982638D-07 0.000000000000D+00  7 3 -3 23 -13 13 23 21 0 0.34074671D-01 0.95678369D-01 0.13504061D+06 0.13504061D+06 0.13504061D+06 0.11111706D+01  1  2  2  2  7  2       -3 0.567456027898D-04 0.100000000000D+01
-.970206579720D-06 0.000000000000D+00 -.670732861788D-07 0.207593982638D-07 0.000000000000D+00  7 3 -3 23 -13 13 23 21 2 0.34074671D-01 0.95678369D-01 0.13504061D+06 0.13504061D+06 0.13504061D+06 0.11111706D+01  1  2  3  2  7  2       -3 -.389196864850D-05 0.100000000000D+01
0.110631220387D-05 0.000000000000D+00 0.000000000000D+00 0.207593982638D-07 0.000000000000D+00  7 3 -3 23 -13 13 23 21 2 0.34074671D-01 0.95678369D-01 0.13504061D+06 0.13504061D+06 0.13504061D+06 0.11111706D+01  1  2 15  2  7  2       -3 0.443795424906D-05 0.100000000000D+01
-.282054038989D-05 0.000000000000D+00 0.000000000000D+00 0.207593982638D-07 0.000000000000D+00  7 3 -3 23 -13 13 23 21 2 0.34074671D-01 0.95678369D-01 0.13504061D+06 0.13504061D+06 0.13504061D+06 0.11111706D+01  1  2  4  2  7  2       -3 -.113145540329D-04 0.100000000000D+01
  </mgrwgt>
  </event>
  <event>
  8     66 0.24912036E-05 0.81507463E+03 0.75467711E-02 0.89108147E-01
        1 -1    0    0  501    0 0.00000000E+00 0.00000000E+00 0.22961950E+04 0.22961951E+04 0.32000000E+00 0.0000E+00 0.9000E+01
       -1 -1    0    0    0  501 0.00000000E+00 0.00000000E+00 -.30360294E+03 0.30360311E+03 0.32000000E+00 0.0000E+00 0.9000E+01
       25  2    1    2    0    0 -.67136055E+03 -.41448981E+03 0.12755372E+04 0.15295265E+04 0.29988219E+03 0.0000E+00 0.0000E+00
       23  2    1    2    0    0 0.67136055E+03 0.41448981E+03 0.71705491E+03 0.10702717E+04 0.93738894E+02 0.0000E+00 0.0000E+00
       23  1    3    3    0    0 -.25881641E+03 -.28467476E+03 0.50698995E+03 0.64294612E+03 0.91188000E+02 0.0000E+00 0.9000E+01
      -11  1    4    4    0    0 0.14427091E+03 0.53376232E+02 0.16862989E+03 0.22825240E+03 0.51099893E-03 0.0000E+00 0.9000E+01
       11  1    4    4    0    0 0.52708964E+03 0.36111357E+03 0.54842502E+03 0.84201930E+03 0.51099893E-03 0.0000E+00 0.9000E+01
       23  1    3    3    0    0 -.41254414E+03 -.12981504E+03 0.76854725E+03 0.88658036E+03 0.91188000E+02 0.0000E+00 0.9000E+01
#aMCatNLO 1  0  0  1  2 0.46563656D+02 0.00000000D+00  -5  7  0 0.00000000D+00 0.00000000D+00 0.00000000D+00 0.00000000D+00 0.00000000D+00
  <mgrwgt>
 0.2019848410D-03    4    2    0
 0.834944202341313D+03 0.000000000000000D+00 0.000000000000000D+00 0.834944202341313D+03
 0.834944202341313D+03 0.000000000000000D+00 0.000000000000000D+00 -.834944202341313D+03
 0.396018073133109D+03 -.258816414262177D+03 -.284674760976668D+03 0.221225467658286D+02
 0.154141786898472D+03 0.144270909575747D+03 0.533762323043185D+02 -.982715337399533D+01
 0.656506675815166D+03 0.527089641962425D+03 0.361113572917517D+03 -.150912266501260D+03
 0.463221868835879D+03 -.412544137275995D+03 -.129815044245167D+03 0.138616873109427D+03
 0.000000000000000D+00 0.000000000000000D+00 0.000000000000000D+00 -.000000000000000D+00
 0.836163922518417D+03 0.000000000000000D+00 0.000000000000000D+00 0.836163922518417D+03
 0.144077904632161D+04 0.000000000000000D+00 0.000000000000000D+00 -.144077904632161D+04
 0.406735072926190D+03 -.264780810382312D+03 -.294142624558484D+03 0.221225467658286D+02
 0.150798130665405D+03 0.142005228687268D+03 0.497796976107857D+02 -.982715337399533D+01
 0.640408082412670D+03 0.517453661848124D+03 0.345817448488205D+03 -.150912266501260D+03
 0.472596189817435D+03 -.419497195791660D+03 -.140852307394149D+03 0.138616873109427D+03
 0.606405493018331D+03 0.248191156385791D+02 0.393977858536416D+02 -.604615123803196D+03
0.197498711954D-03 0.000000000000D+00 0.000000000000D+00 0.778586528210D-06 0.000000000000D+00  7 1 -1 23 -11 11 23 21 0 0.35326079D+00 0.46708160D-01 0.66434665D+06 0.66434665D+06 0.66434665D+06 0.10598952D+01  1  2  2  1  7  1        1 0.202427269700D-03 0.100000000000D+01
-.109644118496D-04 0.000000000000D+00 -.758447056508D-06 0.778586528210D-06 0.000000000000D+00  7 1 -1 23 -11 11 23 21 2 0.35326079D+00 0.46708160D-01 0.66434665D+06 0.66434665D+06 0.66434665D+06 0.10598952D+01  1  2  3  1  7  1        1 -.126245511953D-04 0.100000000000D+01
0.121712075136D-04 0.000000000000D+00 0.000000000000D+00 0.778586528210D-06 0.000000000000D+00  7 1 -1 23 -11 11 23 21 2 0.35326079D+00 0.46708160D-01 0.66434665D+06 0.66434665D+06 0.66434665D+06 0.10598952D+01  1  2 15  1  7  1        1 0.140140697441D-04 0.100000000000D+01
-.159104463691D-05 0.000000000000D+00 0.000000000000D+00 0.778586528210D-06 0.000000000000D+00  7 1 -1 23 -11 11 23 21 2 0.35326079D+00 0.46708160D-01 0.66434665D+06 0.66434665D+06 0.66434665D+06 0.10598952D+01  1  2  4  1  7  1        1 -.183194728072D-05 0.100000000000D+01
  </mgrwgt>
  </event>
  <event>
  7     66 0.24912036E-05 0.13604883E+03 0.75467711E-02 0.10480075E+00
        1 -1    0    0  501    0 0.00000000E+00 0.00000000E+00 0.26575931E+04 0.26575932E+04 0.32000000E+00 0.0000E+00 0.9000E+01
       -1 -1    0    0    0  501 0.00000000E+00 0.00000000E+00 -.29619126E+02 0.29620855E+02 0.32000000E+00 0.0000E+00 0.9000E+01
       25  2    1    2    0    0 -.84623088E+02 0.45438335E+02 0.21383591E+04 0.21613954E+04 0.29970804E+03 0.0000E+00 0.0000E+00
       23  1    3    3    0    0 -.42669676E+02 -.24228054E+02 0.17755084E+04 0.17785255E+04 0.91188000E+02 0.0000E+00 0.9000E+01
      -11  1    1    2    0    0 0.70415063E+02 -.95003068E+02 0.43467448E+03 0.45047282E+03 0.51099893E-03 0.0000E+00 0.9000E+01
       11  1    1    2    0    0 0.14208025E+02 0.49564733E+02 0.54940454E+02 0.75345764E+02 0.51099893E-03 0.0000E+00 0.9000E+01
       23  1    3    3    0    0 -.41953411E+02 0.69666389E+02 0.36285068E+03 0.38286990E+03 0.91188000E+02 0.0000E+00 0.9000E+01
#aMCatNLO 1  0  0  1  2 0.49078941D+02 0.00000000D+00  -5  7  0 0.00000000D+00 0.00000000D+00 0.00000000D+00 0.00000000D+00 0.00000000D+00
  <mgrwgt>
 0.1983207241D-03    6    2    0
 0.280567166411315D+03 0.000000000000000D+00 0.000000000000000D+00 0.280567166411315D+03
 0.280567166411315D+03 0.000000000000000D+00 0.000000000000000D+00 -.280567166411315D+03
 0.201892433786382D+03 -.426696867384319D+02 -.242280486001552D+02 0.173313597189779D+03
 0.121546032497843D+03 0.704150652730071D+02 -.950030525708746D+02 -.280994057015535D+02
 0.103519068877810D+03 0.142080394730574D+02 0.495647087673882D+02 -.897645190510414D+02
 0.134176797660596D+03 -.419534180076326D+02 0.696663924036416D+02 -.554496724371846D+02
 0.000000000000000D+00 0.000000000000000D+00 0.000000000000000D+00 -.000000000000000D+00
 0.304264176242619D+03 0.000000000000000D+00 0.000000000000000D+00 0.304264176242619D+03
 0.308253163612954D+03 0.000000000000000D+00 0.000000000000000D+00 -.308253163612954D+03
 0.205977884426585D+03 -.490430778158465D+02 -.408510841513338D+02 0.173313597189779D+03
 0.127563851030864D+03 0.665224684399406D+02 -.105155697333530D+03 -.280994057015535D+02
 0.994215932179416D+02 0.110368839677669D+02 0.412937224019720D+02 -.897645190510414D+02
 0.130313230351093D+03 -.460863453360553D+02 0.588869192666068D+02 -.554496724371846D+02
 0.492407808290895D+02 0.175700707441943D+02 0.458261398162855D+02 -.398898737033518D+01
0.948623273863D-05 0.000000000000D+00 0.000000000000D+00 0.177912209243D-09 0.000000000000D+00  7 1 -1 23 -11 11 23 21 0 0.40886062D+00 0.45569231D-02 0.39114800D+05 0.39114800D+05 0.39114800D+05 0.11567942D+01  1  2  2  1  7  1        1 0.256541434519D-03 0.100000000000D+01
-.448659699144D-06 0.000000000000D+00 -.364296314988D-07 0.177912209243D-09 0.000000000000D+00  7 1 -1 23 -11 11 23 21 2 0.40886062D+00 0.45569231D-02 0.39114800D+05 0.39114800D+05 0.39114800D+05 0.11567942D+01  1  2  3  1  7  1        1 -.162365225253D-04 0.100000000000D+01
0.561139689550D-06 0.000000000000D+00 0.000000000000D+00 0.177912209243D-09 0.000000000000D+00  7 1 -1 23 -11 11 23 21 2 0.40886062D+00 0.45569231D-02 0.39114800D+05 0.39114800D+05 0.39114800D+05 0.11567942D+01  1  2 15  1  7  1        1 0.203070550500D-04 0.100000000000D+01
0.815746898722D-05 0.000000000000D+00 0.000000000000D+00 0.177912209243D-09 0.000000000000D+00  7 1 -1 23 -11 11 23 21 2 0.46182155D+00 0.45569231D-02 0.49614731D+05 0.49614731D+05 0.49614731D+05 0.11475910D+01  1  2 12  1  7  1        1 0.164470397888D-03 0.100000000000D+01
-.628742340544D-05 0.000000000000D+00 0.000000000000D+00 0.177912209243D-09 0.000000000000D+00  7 1 -1 23 -11 11 23 21 2 0.40886062D+00 0.45569231D-02 0.39114800D+05 0.39114800D+05 0.39114800D+05 0.11567942D+01  1  2  4  1  7  1        1 -.227535238720D-03 0.100000000000D+01
0.156729934838D-06 0.000000000000D+00 0.000000000000D+00 0.177912209243D-09 0.000000000000D+00  7 21 -1 23 -11 11 23 -1 2 0.46182155D+00 0.45569231D-02 0.49614731D+05 0.49614731D+05 0.49614731D+05 0.11475910D+01  1  2 12  3  7  1        1 0.773597860267D-06 0.100000000000D+01
  </mgrwgt>
  </event>
  <event>
  8     66 0.24912036E-05 0.98514850E+02 0.75467711E-02 0.10398348E+00
        1 -1    0    0  501    0 0.00000000E+00 0.00000000E+00 0.17086376E+03 0.17086406E+03 0.32000000E+00 0.0000E+00 0.9000E+01
       -1 -1    0    0    0  501 0.00000000E+00 0.00000000E+00 -.51107603E+03 0.51107613E+03 0.32000000E+00 0.0000E+00 0.9000E+01
       25  2    1    2    0    0 -.33457745E+02 0.84420811E+02 -.42152328E+03 0.52715164E+03 0.30325020E+03 0.0000E+00 0.0000E+00
       23  2    1    2    0    0 0.33457745E+02 -.84420811E+02 0.81311007E+02 0.15478855E+03 0.95402937E+02 0.0000E+00 0.0000E+00
       23  1    3    3    0    0 0.21286141E+01 -.82330864E+02 -.17545262E+03 0.21420031E+03 0.91188000E+02 0.0000E+00 0.9000E+01
      -13  1    4    4    0    0 0.27279794E+02 -.38819276E+02 -.13559945E+02 0.49345787E+02 0.10565837E+00 0.0000E+00 0.9000E+01
       13  1    4    4    0    0 0.61779510E+01 -.45601535E+02 0.94870952E+02 0.10544276E+03 0.10565837E+00 0.0000E+00 0.9000E+01
       23  1    3    3    0    0 -.35586360E+02 0.16675168E+03 -.24607067E+03 0.31295133E+03 0.91188000E+02 0.0000E+00 0.9000E+01
#aMCatNLO 1  0  0  1  2 0.50579083D+02 0.00000000D+00  -5  7  0 0.00000000D+00 0.00000000D+00 0.00000000D+00 0.00000000D+00 0.00000000D+00
  <mgrwgt>
 0.1422794288D-03    9    2    0
 0.295507203611521D+03 0.000000000000000D+00 0.000000000000000D+00 0.295507203611521D+03
 0.295507203611521D+03 0.000000000000000D+00 0.000000000000000D+00 -.295507203611521D+03
 0.146156605356866D+03 0.212860706567457D+01 -.823308248942300D+02 -.791429481990540D+02
 0.491316679567897D+02 0.272798170274728D+02 -.388192666642380D+02 0.127591894262378D+02
 0.176276624399080D+03 0.617793442937403D+01 -.456015597050765D+02 0.170163977351803D+03
 0.219449509510307D+03 -.355863585225214D+02 0.166751651263545D+03 -.103780218578987D+03
 0.000000000000000D+00 -.000000000000000D+00 0.000000000000000D+00 0.000000000000000D+00
 0.338877995294921D+03 0.000000000000000D+00 0.000000000000000D+00 0.338877995294921D+03
 0.311710365385416D+03 0.000000000000000D+00 0.000000000000000D+00 -.311710365385416D+03
 0.153738301443984D+03 0.265086377150347D+01 -.951292839167203D+02 -.791429481990540D+02
 0.527258411597366D+02 0.274571983899728D+02 -.431661866251911D+02 0.127591894262378D+02
 0.180841866328874D+03 0.679984404613862D+01 -.608421198683422D+02 0.170163977351803D+03
 0.205868731909614D+03 -.348456813764424D+02 0.148600565796977D+03 -.103780218578987D+03
 0.574136198381280D+02 -.206222483117252D+01 0.505370246132766D+02 0.271676299095054D+02
0.275998720101D-05 0.000000000000D+00 0.000000000000D+00 0.264619344987D-08 0.000000000000D+00  7 1 -1 23 -13 13 23 21 0 0.26286763D-01 0.78627113D-01 0.41963071D+05 0.41963071D+05 0.41963071D+05 0.11540501D+01  1  2  2  1  7  1        1 0.106937271563D-03 0.100000000000D+01
-.128301760954D-06 0.000000000000D+00 -.105990775732D-07 0.264619344987D-08 0.000000000000D+00  7 1 -1 23 -13 13 23 21 2 0.26286763D-01 0.78627113D-01 0.41963071D+05 0.41963071D+05 0.41963071D+05 0.11540501D+01  1  2  3  1  7  1        1 -.662070122887D-05 0.100000000000D+01
0.170269606744D-06 0.000000000000D+00 0.000000000000D+00 0.264619344987D-08 0.000000000000D+00  7 1 -1 23 -13 13 23 21 2 0.26286763D-01 0.78627113D-01 0.41963071D+05 0.41963071D+05 0.41963071D+05 0.11540501D+01  1  2 15  1  7  1        1 0.878635013441D-05 0.100000000000D+01
0.438111192258D-05 0.000000000000D+00 0.000000000000D+00 0.264619344987D-08 0.000000000000D+00  7 1 -1 23 -13 13 23 21 2 0.30787511D-01 0.78627113D-01 0.55827675D+05 0.55827675D+05 0.55827675D+05 0.11431076D+01  1  2 12  1  7  1        1 0.180404857212D-03 0.100000000000D+01
-.444718997538D-05 0.000000000000D+00 0.000000000000D+00 0.264619344987D-08 0.000000000000D+00  7 1 -1 23 -13 13 23 21 2 0.26286763D-01 0.78627113D-01 0.41963071D+05 0.41963071D+05 0.41963071D+05 0.11540501D+01  1  2  4  1  7  1        1 -.229486453779D-03 0.100000000000D+01
-.840983616810D-05 0.000000000000D+00 -.226579724058D-05 0.264619344987D-08 0.000000000000D+00  7 1 -1 23 -13 13 23 21 2 0.31638973D-01 0.78627113D-01 0.41963071D+05 0.41963071D+05 0.41963071D+05 0.11540501D+01  1  2  5  1  7  1        1 -.342172183071D-03 0.100000000000D+01
0.871796504833D-05 0.000000000000D+00 0.222743692143D-05 0.264619344987D-08 0.000000000000D+00  7 1 -1 23 -13 13 23 21 2 0.26286763D-01 0.78627113D-01 0.41963071D+05 0.41963071D+05 0.41963071D+05 0.11540501D+01  1  2  6  1  7  1        1 0.449869444342D-03 0.100000000000D+01
0.104233015468D-06 0.000000000000D+00 0.000000000000D+00 0.264619344987D-08 0.000000000000D+00  7 21 -1 23 -13 13 23 -1 2 0.30787511D-01 0.78627113D-01 0.55827675D+05 0.55827675D+05 0.55827675D+05 0.11431076D+01  1  2 12  3  7  1        1 0.278118227730D-04 0.100000000000D+01
-.204034430632D-06 0.000000000000D+00 -.611326600853D-07 0.264619344987D-08 0.000000000000D+00  7 21 -1 23 -13 13 23 -1 2 0.31638973D-01 0.78627113D-01 0.41963071D+05 0.41963071D+05 0.41963071D+05 0.11540501D+01  1  2  5  3  7  1        1 -.532509791349D-04 0.100000000000D+01
  </mgrwgt>
  </event>
  <event>
  8     66 0.24912036E-05 0.81736226E+02 0.75467711E-02 0.99744755E-01
        1 -1    0    0  501    0 0.00000000E+00 0.00000000E+00 0.77253538E+03 0.77253545E+03 0.32000000E+00 0.0000E+00 0.9000E+01
       -1 -1    0    0    0  501 0.00000000E+00 0.00000000E+00 -.13058839E+03 0.13058878E+03 0.32000000E+00 0.0000E+00 0.9000E+01
       25  2    1    2    0    0 0.11233338E+03 -.13591970E+03 0.16298490E+03 0.38445016E+03 0.30024139E+03 0.0000E+00 0.0000E+00
       23  2    1    2    0    0 -.11233338E+03 0.13591970E+03 0.47896209E+03 0.51867408E+03 0.92331791E+02 0.0000E+00 0.0000E+00
       23  1    3    3    0    0 0.44438962E+02 -.10677931E+03 0.21127211E+03 0.25754184E+03 0.91188000E+02 0.0000E+00 0.9000E+01
      -13  1    4    4    0    0 -.80771483E+02 0.14017211E+03 0.43707778E+03 0.46605713E+03 0.10565837E+00 0.0000E+00 0.9000E+01
       13  1    4    4    0    0 -.31561898E+02 -.42524061E+01 0.41884313E+02 0.52616948E+02 0.10565837E+00 0.0000E+00 0.9000E+01
       23  1    3    3    0    0 0.67894419E+02 -.29140389E+02 -.48287214E+02 0.12690832E+03 0.91188000E+02 0.0000E+00 0.9000E+01
#aMCatNLO 1  0  0  2  1 0.17106665D+03 0.00000000D+00  -5  7  0 0.00000000D+00 0.00000000D+00 0.00000000D+00 0.00000000D+00 0.00000000D+00
  <mgrwgt>
 0.1648637787D-03    9    2    0
 0.317622984976166D+03 0.000000000000000D+00 0.000000000000000D+00 0.317622984976166D+03
 0.317622984976166D+03 0.000000000000000D+00 0.000000000000000D+00 -.317622984976166D+03
 0.152644462635716D+03 0.444389620739361D+02 -.106779310049208D+03 0.401053391028296D+02
 0.220901644981941D+03 -.807715482262234D+02 0.140172294229230D+03 0.150416826463599D+03
 0.324787186657829D+02 -.315618333977438D+02 -.425259468505243D+01 0.637442367503163D+01
 0.229221143668892D+03 0.678944195500311D+02 -.291403894949696D+02 -.196896589241461D+03
 0.000000000000000D+00 0.000000000000000D+00 0.000000000000000D+00 -.000000000000000D+00
 0.377537496962657D+03 0.000000000000000D+00 0.000000000000000D+00 0.377537496962657D+03
 0.479474139134414D+03 0.000000000000000D+00 0.000000000000000D+00 -.479474139134414D+03
 0.184262655025921D+03 0.365441481512657D+02 -.150643823984082D+03 0.401053391028296D+02
 0.195473706414049D+03 -.905285576479100D+02 0.859612032608562D+02 0.150416826463599D+03
 0.362683756401625D+02 -.331727982269725D+02 -.132033045931578D+02 0.637442367503163D+01
 0.241871574182392D+03 0.568552068032816D+02 -.904755528190015D+02 -.196896589241461D+03
 0.199135324834546D+03 0.303020009203353D+02 0.168361478135385D+03 -.101936642171756D+03
0.359025789092D-05 0.000000000000D+00 0.000000000000D+00 0.311325992339D-06 0.000000000000D+00  7 1 -1 23 -13 13 23 21 0 0.11885163D+00 0.20090557D-01 0.52502914D+05 0.52502914D+05 0.52502914D+05 0.11454341D+01  1  2  2  2  7  2       -1 0.195295345877D-03 0.100000000000D+01
-.173597949548D-06 0.000000000000D+00 -.137875356377D-07 0.311325992339D-06 0.000000000000D+00  7 1 -1 23 -13 13 23 21 2 0.11885163D+00 0.20090557D-01 0.52502914D+05 0.52502914D+05 0.52502914D+05 0.11454341D+01  1  2  3  2  7  2       -1 -.123894229231D-04 0.100000000000D+01
0.218075156229D-06 0.000000000000D+00 0.000000000000D+00 0.311325992339D-06 0.000000000000D+00  7 1 -1 23 -13 13 23 21 2 0.11885163D+00 0.20090557D-01 0.52502914D+05 0.52502914D+05 0.52502914D+05 0.11454341D+01  1  2 15  2  7  2       -1 0.155636938488D-04 0.100000000000D+01
0.283291568108D-06 0.000000000000D+00 0.000000000000D+00 0.311325992339D-06 0.000000000000D+00  7 1 -1 23 -13 13 23 21 2 0.11885163D+00 0.31445651D-01 0.10625345D+06 0.10625345D+06 0.10625345D+06 0.11195667D+01  1  2 12  2  7  2       -1 0.920260758437D-05 0.100000000000D+01
-.201803563235D-05 0.000000000000D+00 0.000000000000D+00 0.311325992339D-06 0.000000000000D+00  7 1 -1 23 -13 13 23 21 2 0.11885163D+00 0.20090557D-01 0.52502914D+05 0.52502914D+05 0.52502914D+05 0.11454341D+01  1  2  4  2  7  2       -1 -.144024148835D-03 0.100000000000D+01
-.161411611600D-05 0.000000000000D+00 -.122837702063D-05 0.311325992339D-06 0.000000000000D+00  7 1 -1 23 -13 13 23 21 2 0.11885163D+00 0.35643746D-01 0.52502914D+05 0.52502914D+05 0.52502914D+05 0.11454341D+01  1  2  5  2  7  2       -1 -.450896728528D-04 0.100000000000D+01
0.213522638274D-05 0.000000000000D+00 0.105088153166D-05 0.311325992339D-06 0.000000000000D+00  7 1 -1 23 -13 13 23 21 2 0.11885163D+00 0.20090557D-01 0.52502914D+05 0.52502914D+05 0.52502914D+05 0.11454341D+01  1  2  6  2  7  2       -1 0.152387875325D-03 0.100000000000D+01
0.146719587016D-07 0.000000000000D+00 0.000000000000D+00 0.311325992339D-06 0.000000000000D+00  7 1 21 23 -13 13 23 1 2 0.11885163D+00 0.31445651D-01 0.10625345D+06 0.10625345D+06 0.10625345D+06 0.11195667D+01  1  2 12  4  7  2       -1 0.511230262199D-05 0.100000000000D+01
-.380097250497D-07 0.000000000000D+00 -.775057098912D-07 0.311325992339D-06 0.000000000000D+00  7 1 21 23 -13 13 23 1 2 0.11885163D+00 0.35643746D-01 0.52502914D+05 0.52502914D+05 0.52502914D+05 0.11454341D+01  1  2  5  4  7  2       -1 -.111948019455D-04 0.100000000000D+01
  </mgrwgt>
  </event>
  <event>
  8     66 0.24912036E-05 0.21448606E+03 0.75467711E-02 0.98088032E-01
        1 -1    0    0  501    0 0.00000000E+00 0.00000000E+00 0.13478451E+04 0.13478452E+04 0.32000000E+00 0.0000E+00 0.9000E+01
       -1 -1    0    0    0  501 0.00000000E+00 0.00000000E+00 -.10489723E+03 0.10489772E+03 0.32000000E+00 0.0000E+00 0.9000E+01
       25  2    1    2    0    0 -.28800645E+03 -.37809579E+02 0.50884442E+03 0.65806956E+03 0.29959242E+03 0.0000E+00 0.0000E+00
       23  2    1    2    0    0 0.28800645E+03 0.37809579E+02 0.73410347E+03 0.79467332E+03 0.90666981E+02 0.0000E+00 0.0000E+00
       23  1    3    3    0    0 -.17856305E+03 -.13769665E+03 0.30294482E+03 0.38850476E+03 0.91188000E+02 0.0000E+00 0.9000E+01
      -13  1    4    4    0    0 0.35406962E+02 0.29433402E+02 0.66975191E+02 0.81275245E+02 0.10565837E+00 0.0000E+00 0.9000E+01
       13  1    4    4    0    0 0.25259949E+03 0.83761777E+01 0.66712827E+03 0.71339807E+03 0.10565837E+00 0.0000E+00 0.9000E+01
       23  1    3    3    0    0 -.10944340E+03 0.99887074E+02 0.20589959E+03 0.26956480E+03 0.91188000E+02 0.0000E+00 0.9000E+01
#aMCatNLO 1  0  0  2  1 0.28114284D+02 0.00000000D+00  -5  7  0 0.00000000D+00 0.00000000D+00 0.00000000D+00 0.00000000D+00 0.00000000D+00
  <mgrwgt>
 0.1679858842D-03    9    2    0
 0.376012771103439D+03 0.000000000000000D+00 0.000000000000000D+00 0.376012771103439D+03
 0.376012771103439D+03 0.000000000000000D+00 0.000000000000000D+00 -.376012771103439D+03
 0.249795893169471D+03 -.178563046796903D+03 -.137696652992803D+03 -.568999734052713D+02
 0.463084365267035D+02 0.354066669825439D+02 0.294334302396052D+02 -.495100101648753D+01
 0.275493996013277D+03 0.252599784482040D+03 0.837614918438097D+01 0.109636357308293D+03
 0.180427216497425D+03 -.109443404667681D+03 0.998870735688173D+02 -.477853828865346D+02
 0.000000000000000D+00 -.000000000000000D+00 -.000000000000000D+00 -.000000000000000D+00
 0.387814363194071D+03 0.000000000000000D+00 0.000000000000000D+00 0.387814363194071D+03
 0.393400371424966D+03 0.000000000000000D+00 0.000000000000000D+00 -.393400371424966D+03
 0.241636275327744D+03 -.172216438125477D+03 -.131060023180672D+03 -.568999734052713D+02
 0.480508806427573D+02 0.366252719070216D+02 0.307077217848538D+02 -.495100101648753D+01
 0.282439446805959D+03 0.259805224933981D+03 0.159108568351277D+02 0.109636357308293D+03
 0.180424278642125D+03 -.104783182209813D+03 0.104760254332947D+03 -.477853828865346D+02
 0.286638532004511D+02 -.194308765057126D+02 -.203188097722561D+02 -.558600823089521D+01
0.443342270920D-05 0.000000000000D+00 0.000000000000D+00 0.643358739214D-06 0.000000000000D+00  7 1 -1 23 -13 13 23 21 0 0.20736083D+00 0.16138076D-01 0.12816221D+06 0.12816221D+06 0.12816221D+06 0.11129849D+01  1  2  2  2  7  2       -1 0.125558046792D-03 0.100000000000D+01
-.245579390403D-06 0.000000000000D+00 -.170255105503D-07 0.643358739214D-06 0.000000000000D+00  7 1 -1 23 -13 13 23 21 2 0.20736083D+00 0.16138076D-01 0.12816221D+06 0.12816221D+06 0.12816221D+06 0.11129849D+01  1  2  3  2  7  2       -1 -.861540860609D-05 0.100000000000D+01
0.287437642579D-06 0.000000000000D+00 0.000000000000D+00 0.643358739214D-06 0.000000000000D+00  7 1 -1 23 -13 13 23 21 2 0.20736083D+00 0.16138076D-01 0.12816221D+06 0.12816221D+06 0.12816221D+06 0.11129849D+01  1  2 15  2  7  2       -1 0.100838785190D-04 0.100000000000D+01
0.102527484115D-04 0.000000000000D+00 0.000000000000D+00 0.643358739214D-06 0.000000000000D+00  7 1 -1 23 -13 13 23 21 2 0.20736083D+00 0.17127757D-01 0.13876521D+06 0.13876521D+06 0.13876521D+06 0.11102300D+01  1  2 12  2  7  2       -1 0.325053850325D-03 0.100000000000D+01
-.894282461753D-05 0.000000000000D+00 0.000000000000D+00 0.643358739214D-06 0.000000000000D+00  7 1 -1 23 -13 13 23 21 2 0.20736083D+00 0.16138076D-01 0.12816221D+06 0.12816221D+06 0.12816221D+06 0.11129849D+01  1  2  4  2  7  2       -1 -.313731897641D-03 0.100000000000D+01
-.426365800224D-04 0.000000000000D+00 -.767085314527D-05 0.643358739214D-06 0.000000000000D+00  7 1 -1 23 -13 13 23 21 2 0.20736083D+00 0.17434064D-01 0.12816221D+06 0.12816221D+06 0.12816221D+06 0.11129849D+01  1  2  5  2  7  2       -1 -.132318131536D-02 0.100000000000D+01
0.431232235944D-04 0.000000000000D+00 0.764802499554D-05 0.643358739214D-06 0.000000000000D+00  7 1 -1 23 -13 13 23 21 2 0.20736083D+00 0.16138076D-01 0.12816221D+06 0.12816221D+06 0.12816221D+06 0.11129849D+01  1  2  6  2  7  2       -1 0.151284760121D-02 0.100000000000D+01
0.118806171417D-06 0.000000000000D+00 0.000000000000D+00 0.643358739214D-06 0.000000000000D+00  7 1 21 23 -13 13 23 1 2 0.20736083D+00 0.17127757D-01 0.13876521D+06 0.13876521D+06 0.13876521D+06 0.11102300D+01  1  2 12  4  7  2       -1 0.469310362121D-04 0.100000000000D+01
-.536443841841D-06 0.000000000000D+00 -.993110962381D-07 0.643358739214D-06 0.000000000000D+00  7 1 21 23 -13 13 23 1 2 0.20736083D+00 0.17434064D-01 0.12816221D+06 0.12816221D+06 0.12816221D+06 0.11129849D+01  1  2  5  4  7  2       -1 -.206959907207D-03 0.100000000000D+01
  </mgrwgt>
  </event>
  <event>
  7     66 0.24912036E-05 0.31077546E+03 0.75467711E-02 0.92580181E-01
        1 -1    0    0  501    0 0.00000000E+00 0.00000000E+00 0.21949728E+03 0.21949751E+03 0.32000000E+00 0.0000E+00 0.9000E+01
       -1 -1    0    0    0  501 0.00000000E+00 0.00000000E+00 -.52490107E+03 0.52490117E+03 0.32000000E+00 0.0000E+00 0.9000E+01
       25  2    1    2    0    0 0.22267245E+03 0.43522459E+02 -.93727169E+02 0.38764224E+03 0.30000750E+03 0.0000E+00 0.0000E+00
       23  1    3    3    0    0 -.35999254E+01 -.61623286E+02 -.19639081E+02 0.11185407E+03 0.91188000E+02 0.0000E+00 0.9000E+01
      -13  1    1    2    0    0 -.22799130E+03 -.53761040E+02 -.23433124E+03 0.33133280E+03 0.10565837E+00 0.0000E+00 0.9000E+01
       13  1    1    2    0    0 0.53188484E+01 0.10238581E+02 0.22654616E+02 0.25423640E+02 0.10565837E+00 0.0000E+00 0.9000E+01
       23  1    3    3    0    0 0.22627238E+03 0.10514575E+03 -.74088087E+02 0.27578817E+03 0.91188000E+02 0.0000E+00 0.9000E+01
#aMCatNLO 1  0  0  2  2 0.44116529D+03 0.00000000D+00  -5  7  0 0.00000000D+00 0.00000000D+00 0.00000000D+00 0.00000000D+00 0.00000000D+00
  <mgrwgt>
 0.5324889848D-03    3    2    0
 0.339432585763963D+03 0.000000000000000D+00 0.000000000000000D+00 0.339432585763963D+03
 0.339432585763963D+03 0.000000000000000D+00 0.000000000000000D+00 -.339432585763963D+03
 0.113816589547144D+03 -.359844597841237D+01 -.616229972731698D+02 0.287857969449229D+02
 0.257899002278437D+03 -.227993265318284D+03 -.537607645188675D+02 -.107892291402428D+03
 0.380654182580584D+02 0.531583409612427D+01 0.102373326498035D+02 0.362755426594927D+02
 0.269084161444287D+03 0.226275877200572D+03 0.105146429142234D+03 0.428309517980124D+02
 0.000000000000000D+00 0.000000000000000D+00 0.000000000000000D+00 0.000000000000000D+00
 0.823778328687936D+03 0.000000000000000D+00 0.000000000000000D+00 0.823778328687936D+03
 0.520944632634597D+03 0.000000000000000D+00 0.000000000000000D+00 -.520944632634597D+03
 0.168805975230458D+03 -.549636107012649D+02 -.127791178578301D+03 0.287857969449229D+02
 0.426024059907684D+03 -.352292684844789D+03 -.213882250972374D+03 -.107892291402428D+03
 0.380235820794367D+02 -.851294153263035D+01 -.757678199323441D+01 0.362755426594927D+02
 0.176766497476848D+03 0.145244864849178D+03 0.762947739321675D+00 0.428309517980124D+02
 0.535102846628107D+03 0.270524372229506D+03 0.348487263804589D+03 0.302833696053339D+03
0.200420470386D-04 0.000000000000D+00 0.000000000000D+00 0.524379026441D-09 0.000000000000D+00  7 1 -1 23 -13 13 23 21 0 0.33768838D-01 0.80754036D-01 0.96581388D+05 0.96581388D+05 0.96581388D+05 0.11229638D+01  1  2  2  2  7  2       -1 0.526651208149D-03 0.100000000000D+01
-.110291448551D-05 0.000000000000D+00 -.769667378203D-07 0.524379026441D-09 0.000000000000D+00  7 1 -1 23 -13 13 23 21 2 0.33768838D-01 0.80754036D-01 0.96581388D+05 0.96581388D+05 0.96581388D+05 0.11229638D+01  1  2  3  2  7  2       -1 -.365472226812D-04 0.100000000000D+01
0.127908569528D-05 0.000000000000D+00 0.000000000000D+00 0.524379026441D-09 0.000000000000D+00  7 1 -1 23 -13 13 23 21 2 0.33768838D-01 0.80754036D-01 0.96581388D+05 0.96581388D+05 0.96581388D+05 0.11229638D+01  1  2 15  2  7  2       -1 0.423849993337D-04 0.100000000000D+01
  </mgrwgt>
  </event>
  <event>
  8     66 -.24912036E-05 0.14478793E+03 0.75467711E-02 0.10324336E+00
        1 -1    0    0  501    0 0.00000000E+00 0.00000000E+00 0.94350132E+03 0.94350137E+03 0.32000000E+00 0.0000E+00 0.9000E+01
       -1 -1    0    0    0  501 0.00000000E+00 0.00000000E+00 -.54295079E+03 0.54295089E+03 0.32000000E+00 0.0000E+00 0.9000E+01
       25  2    1    2    0    0 0.13305630E+03 0.15973513E+03 -.46620440E+03 0.59175469E+03 0.29934559E+03 0.0000E+00 0.0000E+00
       23  2    1    2    0    0 -.13305630E+03 -.15973513E+03 0.86675493E+03 0.89469757E+03 0.77461846E+02 0.0000E+00 0.0000E+00
       23  1    3    3    0    0 0.49959689E+02 0.12416011E+03 -.72118328E+02 0.17727946E+03 0.91188000E+02 0.0000E+00 0.9000E+01
      -13  1    4    4    0    0 -.44790205E+02 -.66384549E+02 0.19562567E+03 0.21138232E+03 0.10565837E+00 0.0000E+00 0.9000E+01
       13  1    4    4    0    0 -.88266098E+02 -.93350584E+02 0.67112926E+03 0.68331525E+03 0.10565837E+00 0.0000E+00 0.9000E+01
       23  1    3    3    0    0 0.83096615E+02 0.35575021E+02 -.39408607E+03 0.41447523E+03 0.91188000E+02 0.0000E+00 0.9000E+01
#aMCatNLO 1  0  0  2  2 0.44116529D+03 0.00000000D+00  -5  7  0 0.00000000D+00 0.00000000D+00 0.00000000D+00 0.00000000D+00 0.00000000D+00
  <mgrwgt>
 -.5806463016D-04    1    2    0
 0.715733818706544D+03 0.000000000000000D+00 0.000000000000000D+00 0.715733818706544D+03
 0.715733818706544D+03 0.000000000000000D+00 0.000000000000000D+00 -.715733818706544D+03
 0.204269022304176D+03 0.499596887776563D+02 0.124160112455879D+03 -.124494490244699D+03
 0.164761540083187D+03 -.447901242914307D+02 -.663844988378543D+02 0.143990653066749D+03
 0.521768879423582D+03 -.882661793830551D+02 -.933506347331018D+02 0.505704957566154D+03
 0.540668195602141D+03 0.830966148968295D+02 0.355750211150771D+02 -.525201120388204D+03
 0.000000000000000D+00 0.000000000000000D+00 0.000000000000000D+00 0.000000000000000D+00
 0.756380118021738D+03 0.000000000000000D+00 0.000000000000000D+00 0.756380118021738D+03
 0.739772686544375D+03 0.000000000000000D+00 0.000000000000000D+00 -.739772686544375D+03
 0.199112123293808D+03 0.498023499906060D+02 0.115547540573976D+03 -.124494490244699D+03
 0.167782870832671D+03 -.449198332151739D+02 -.734846389266833D+02 0.143990653066749D+03
 0.526301922243178D+03 -.886749793244421D+02 -.115727945163161D+03 0.505704957566154D+03
 0.539576859045314D+03 0.826752653903638D+02 0.125107597217249D+02 -.525201120388204D+03
 0.633790291511416D+02 0.111719715864622D+01 0.611542837941439D+02 0.166074314773624D+02
-.138245576962D-04 0.000000000000D+00 0.000000000000D+00 0.209412863458D-07 0.000000000000D+00  7 1 -1 23 -13 13 23 21 2 0.14515406D+00 0.83530903D-01 0.62225078D+05 0.62225078D+05 0.62225078D+05 0.11390322D+01  1  2 14  2  7  2       -1 -.580646301616D-04 0.100000000000D+01
  </mgrwgt>
  </event>
  <event>
  8     66 0.24912036E-05 0.14236077E+03 0.75467711E-02 0.10202733E+00
        1 -1    0    0  501    0 0.00000000E+00 0.00000000E+00 0.90189307E+03 0.90189312E+03 0.32000000E+00 0.0000E+00 0.9000E+01
       -1 -1    0    0    0  501 0.00000000E+00 0.00000000E+00 -.72618626E+02 0.72619331E+02 0.32000000E+00 0.0000E+00 0.9000E+01
       25  2    1    2    0    0 -.92703877E+02 -.11709404E+03 0.49189428E+03 0.59552261E+03 0.30063627E+03 0.0000E+00 0.0000E+00
       23  2    1    2    0    0 0.92703877E+02 0.11709404E+03 0.33738016E+03 0.37898984E+03 0.86619338E+02 0.0000E+00 0.0000E+00
       23  1    3    3    0    0 0.48213581E+02 0.18974212E+02 0.85727901E+02 0.13545883E+03 0.91188000E+02 0.0000E+00 0.9000E+01
      -11  1    4    4    0    0 0.49468048E+02 0.17840349E+01 0.96412090E+02 0.10837694E+03 0.51099893E-03 0.0000E+00 0.9000E+01
       11  1    4    4    0    0 0.43235829E+02 0.11531000E+03 0.24096807E+03 0.27061290E+03 0.51099893E-03 0.0000E+00 0.9000E+01
       23  1    3    3    0    0 -.14091746E+03 -.13606825E+03 0.40616638E+03 0.46006378E+03 0.91188000E+02 0.0000E+00 0.9000E+01
#aMCatNLO 1  0  0  2  1 0.49629616D+02 0.00000000D+00  -5  7  0 0.00000000D+00 0.00000000D+00 0.00000000D+00 0.00000000D+00 0.00000000D+00
  <mgrwgt>
 0.1867092751D-03    9    2    0
 0.255919139628949D+03 0.000000000000000D+00 0.000000000000000D+00 0.255919139628949D+03
 0.255919139628949D+03 0.000000000000000D+00 0.000000000000000D+00 -.255919139628949D+03
 0.119010948515386D+03 0.482135811895381D+02 0.189742119645340D+02 -.562475278722249D+02
 0.501380981793489D+02 0.494680476120900D+02 0.178403497321870D+01 0.797235057585673D+01
 0.124818692894315D+03 0.432358293040151D+02 0.115310003840654D+03 0.203463061637187D+02
 0.217870539668848D+03 -.140917458105643D+03 -.136068250778407D+03 0.279288711326494D+02
 0.000000000000000D+00 -.000000000000000D+00 -.000000000000000D+00 -.000000000000000D+00
 0.276175850900668D+03 0.000000000000000D+00 0.000000000000000D+00 0.276175850900668D+03
 0.289432562605734D+03 0.000000000000000D+00 0.000000000000000D+00 -.289432562605734D+03
 0.124573932454501D+03 0.595113096797818D+02 0.223166514432386D+02 -.562475278722249D+02
 0.550218421767574D+02 0.543454786310554D+02 0.322702574844634D+01 0.797235057585673D+01
 0.132596098818176D+03 0.551750039135423D+02 0.118842215523072D+03 0.203463061637187D+02
 0.202046906638213D+03 -.121441235780990D+03 -.130306199189880D+03 0.279288711326494D+02
 0.513696334187537D+02 -.475905564433895D+02 -.140796935248770D+02 -.132567117050661D+02
0.131871483785D-05 0.000000000000D+00 0.000000000000D+00 0.427826857286D-08 0.000000000000D+00  7 1 -1 23 -11 11 23 21 0 0.13875284D+00 0.11172155D-01 0.60910856D+05 0.60910856D+05 0.60910856D+05 0.11398306D+01  1  2  2  2  7  2       -1 0.140153362884D-03 0.100000000000D+01
-.731447021342D-07 0.000000000000D+00 -.506421220294D-08 0.427826857286D-08 0.000000000000D+00  7 1 -1 23 -11 11 23 21 2 0.13875284D+00 0.11172155D-01 0.60910856D+05 0.60910856D+05 0.60910856D+05 0.11398306D+01  1  2  3  2  7  2       -1 -.100998773680D-04 0.100000000000D+01
0.832739359127D-07 0.000000000000D+00 0.000000000000D+00 0.427826857286D-08 0.000000000000D+00  7 1 -1 23 -11 11 23 21 2 0.13875284D+00 0.11172155D-01 0.60910856D+05 0.60910856D+05 0.60910856D+05 0.11398306D+01  1  2 15  2  7  2       -1 0.114985298474D-04 0.100000000000D+01
0.144789302424D-05 0.000000000000D+00 0.000000000000D+00 0.427826857286D-08 0.000000000000D+00  7 1 -1 23 -11 11 23 21 2 0.13875284D+00 0.13030236D-01 0.74626329D+05 0.74626329D+05 0.74626329D+05 0.11323044D+01  1  2 12  2  7  2       -1 0.155487243246D-03 0.100000000000D+01
-.133994666520D-05 0.000000000000D+00 0.000000000000D+00 0.427826857286D-08 0.000000000000D+00  7 1 -1 23 -11 11 23 21 2 0.13875284D+00 0.11172155D-01 0.60910856D+05 0.60910856D+05 0.60910856D+05 0.11398306D+01  1  2  4  2  7  2       -1 -.185020877839D-03 0.100000000000D+01
-.359065858182D-05 0.000000000000D+00 -.958789977570D-06 0.427826857286D-08 0.000000000000D+00  7 1 -1 23 -11 11 23 21 2 0.13875284D+00 0.13637939D-01 0.60910856D+05 0.60910856D+05 0.60910856D+05 0.11398306D+01  1  2  5  2  7  2       -1 -.364480900152D-03 0.100000000000D+01
0.372627886637D-05 0.000000000000D+00 0.940034078170D-06 0.427826857286D-08 0.000000000000D+00  7 1 -1 23 -11 11 23 21 2 0.13875284D+00 0.11172155D-01 0.60910856D+05 0.60910856D+05 0.60910856D+05 0.11398306D+01  1  2  6  2  7  2       -1 0.514527484438D-03 0.100000000000D+01
0.337104687930D-07 0.000000000000D+00 0.000000000000D+00 0.427826857286D-08 0.000000000000D+00  7 1 21 23 -11 11 23 1 2 0.13875284D+00 0.13030236D-01 0.74626329D+05 0.74626329D+05 0.74626329D+05 0.11323044D+01  1  2 12  4  7  2       -1 0.484814864502D-04 0.100000000000D+01
-.915408626558D-07 0.000000000000D+00 -.273776131771D-07 0.427826857286D-08 0.000000000000D+00  7 1 21 23 -11 11 23 1 2 0.13875284D+00 0.13637939D-01 0.60910856D+05 0.60910856D+05 0.60910856D+05 0.11398306D+01  1  2  5  4  7  2       -1 -.123837176453D-03 0.100000000000D+01
  </mgrwgt>
  </event>
  <event>
  8     66 0.24912036E-05 0.20969009E+03 0.75467711E-02 0.10275420E+00
        1 -1    0    0  501    0 0.00000000E+00 0.00000000E+00 0.55140927E+03 0.55140936E+03 0.32000000E+00 0.0000E+00 0.9000E+01
       -1 -1    0    0    0  501 0.00000000E+00 0.00000000E+00 -.38042626E+03 0.38042640E+03 0.32000000E+00 0.0000E+00 0.9000E+01
       25  2    1    2    0    0 -.51976474E+02 0.12124700E+03 -.29241495E+03 0.43943837E+03 0.30032846E+03 0.0000E+00 0.0000E+00
       23  2    1    2    0    0 0.51976474E+02 -.12124700E+03 0.46339795E+03 0.49239739E+03 0.10156348E+03 0.0000E+00 0.0000E+00
       23  1    3    3    0    0 -.62880328E+02 0.84122751E+01 0.19298829E+01 0.11110211E+03 0.91188000E+02 0.0000E+00 0.9000E+01
      -13  1    4    4    0    0 -.58675970E+00 -.10878895E+03 0.25765646E+03 0.27968239E+03 0.10565837E+00 0.0000E+00 0.9000E+01
       13  1    4    4    0    0 0.52563233E+02 -.12458050E+02 0.20574149E+03 0.21271500E+03 0.10565837E+00 0.0000E+00 0.9000E+01
       23  1    3    3    0    0 0.10903854E+02 0.11283473E+03 -.29434483E+03 0.32833626E+03 0.91188000E+02 0.0000E+00 0.9000E+01
#aMCatNLO 1  0  0  2  1 0.95904905D+02 0.00000000D+00  -5  7  0 0.00000000D+00 0.00000000D+00 0.00000000D+00 0.00000000D+00 0.00000000D+00
  <mgrwgt>
 0.1641430198D-03    4    2    0
 0.458007284566446D+03 0.000000000000000D+00 0.000000000000000D+00 0.458007284566446D+03
 0.458007284566446D+03 0.000000000000000D+00 0.000000000000000D+00 -.458007284566446D+03
 0.112660803526730D+03 -.628803278097460D+02 0.841227548681999D+01 -.187750713170742D+02
 0.236418987634353D+03 -.586806024628572D+00 -.108789041681673D+03 0.209901257220448D+03
 0.177985249250110D+03 0.525632801962262D+02 -.124579601638508D+02 0.169589651082231D+03
 0.388949528721699D+03 0.109038536381483D+02 0.112834726358704D+03 -.360715836985605D+03
 0.000000000000000D+00 0.000000000000000D+00 0.000000000000000D+00 0.000000000000000D+00
 0.594723601340057D+03 0.000000000000000D+00 0.000000000000000D+00 0.594723601340057D+03
 0.477643469028171D+03 0.000000000000000D+00 0.000000000000000D+00 -.477643469028171D+03
 0.113346723126402D+03 -.645682758731133D+02 -.326538624140249D+01 -.187750713170742D+02
 0.248992861084570D+03 -.421212772127354D+01 -.133869955809416D+03 0.209901257220448D+03
 0.179461717865515D+03 0.498936703613938D+02 -.309270121886608D+02 0.169589651082231D+03
 0.379220110122133D+03 0.516674181083269D+01 0.731439013443824D+02 -.360715836985605D+03
 0.151345658169607D+03 0.137199914221603D+02 0.949184528950966D+02 0.117080132311886D+03
0.124585398515D-04 0.000000000000D+00 0.000000000000D+00 0.196832325792D-07 0.000000000000D+00  7 1 -1 23 -13 13 23 21 0 0.84832212D-01 0.58527135D-01 0.43969934D+05 0.43969934D+05 0.43969934D+05 0.11522374D+01  1  2  2  2  7  2       -1 0.182297184843D-03 0.100000000000D+01
-.178498417732D-06 0.000000000000D+00 -.478440734387D-07 0.196832325792D-07 0.000000000000D+00  7 1 -1 23 -13 13 23 21 2 0.84832212D-01 0.58527135D-01 0.43969934D+05 0.43969934D+05 0.43969934D+05 0.11522374D+01  1  2  3  2  7  2       -1 -.346761685199D-05 0.100000000000D+01
0.749514687797D-06 0.000000000000D+00 0.000000000000D+00 0.196832325792D-07 0.000000000000D+00  7 1 -1 23 -13 13 23 21 2 0.84832212D-01 0.58527135D-01 0.43969934D+05 0.43969934D+05 0.43969934D+05 0.11522374D+01  1  2 15  2  7  2       -1 0.145605198928D-04 0.100000000000D+01
-.150551678513D-05 0.000000000000D+00 0.000000000000D+00 0.196832325792D-07 0.000000000000D+00  7 1 -1 23 -13 13 23 21 2 0.84832212D-01 0.58527135D-01 0.43969934D+05 0.43969934D+05 0.43969934D+05 0.11522374D+01  1  2  4  2  7  2       -1 -.292470680772D-04 0.100000000000D+01
  </mgrwgt>
  </event>
  <event>
  8     66 0.24912036E-05 0.28874708E+03 0.75467711E-02 0.92504860E-01
        1 -1    0    0  501    0 0.00000000E+00 0.00000000E+00 0.12494171E+04 0.12494171E+04 0.32000000E+00 0.0000E+00 0.9000E+01
       -1 -1    0    0    0  501 0.00000000E+00 0.00000000E+00 -.24133702E+03 0.24133723E+03 0.32000000E+00 0.0000E+00 0.9000E+01
       25  2    1    2    0    0 -.16222206E+03 -.15316242E+03 0.11521171E+04 0.12112104E+04 0.29980346E+03 0.0000E+00 0.0000E+00
       23  2    1    2    0    0 0.16222206E+03 0.15316242E+03 -.14403703E+03 0.27954396E+03 0.87312280E+02 0.0000E+00 0.0000E+00
       23  1    3    3    0    0 -.18471220E+03 -.12009319E+03 0.52990393E+03 0.58108037E+03 0.91188000E+02 0.0000E+00 0.9000E+01
      -13  1    4    4    0    0 0.16967024E+03 0.12607445E+03 -.12445815E+03 0.24530104E+03 0.10565837E+00 0.0000E+00 0.9000E+01
       13  1    4    4    0    0 -.74481849E+01 0.27087968E+02 -.19578877E+02 0.34242912E+02 0.10565837E+00 0.0000E+00 0.9000E+01
       23  1    3    3    0    0 0.22490142E+02 -.33069235E+02 0.62221318E+03 0.63013005E+03 0.91188000E+02 0.0000E+00 0.9000E+01
#aMCatNLO 1  0  0  1  1 0.47698802D+03 0.00000000D+00  -5  7  0 0.00000000D+00 0.00000000D+00 0.00000000D+00 0.00000000D+00 0.00000000D+00
  <mgrwgt>
 0.4466813315D-03    5    2    0
 0.549118189065268D+03 0.000000000000000D+00 0.000000000000000D+00 0.549118189065268D+03
 0.549118189065268D+03 0.000000000000000D+00 0.000000000000000D+00 -.549118189065268D+03
 0.302359775183795D+03 -.184712201096512D+03 -.120093185821126D+03 0.185917217574406D+03
 0.447215199835510D+03 0.169670503085835D+03 0.126074597654822D+03 -.394104746447807D+03
 0.644526373502119D+02 -.744844420475811D+01 0.270878229749674D+02 -.580078700419466D+02
 0.284208765761020D+03 0.224901422154358D+02 -.330692348086633D+02 0.266195398915348D+03
 0.000000000000000D+00 0.000000000000000D+00 -.000000000000000D+00 0.000000000000000D+00
 0.124633561676516D+04 0.000000000000000D+00 0.000000000000000D+00 0.124633561676516D+04
 0.686496338989256D+03 0.000000000000000D+00 0.000000000000000D+00 -.686496338989256D+03
 0.356149326460388D+03 -.288149592337323D+03 -.305236308360214D+02 0.185917217574406D+03
 0.467710741222272D+03 0.259556291603760D+02 0.250521638979322D+03 -.394104746447807D+03
 0.804161718906874D+02 -.302041687082262D+02 0.467926907475327D+02 -.580078700419466D+02
 0.293071124410884D+03 -.681879147864675D+02 0.454516280548032D+02 0.266195398915348D+03
 0.735484591770184D+03 0.360586046671640D+03 -.312242326945637D+03 0.559839277775903D+03
0.505795685248D-04 0.000000000000D+00 0.000000000000D+00 0.376782633212D-06 0.000000000000D+00  7 1 -1 23 -13 13 23 21 0 0.19221803D+00 0.37128791D-01 0.83374877D+05 0.83374877D+05 0.83374877D+05 0.11282602D+01  1  2  2  1  7  1        1 0.432725693881D-03 0.100000000000D+01
-.139846188139D-05 0.000000000000D+00 -.194238861041D-06 0.376782633212D-06 0.000000000000D+00  7 1 -1 23 -13 13 23 21 2 0.19221803D+00 0.37128791D-01 0.83374877D+05 0.83374877D+05 0.83374877D+05 0.11282602D+01  1  2  3  1  7  1        1 -.152302393546D-04 0.100000000000D+01
0.307069709654D-05 0.000000000000D+00 0.000000000000D+00 0.376782633212D-06 0.000000000000D+00  7 1 -1 23 -13 13 23 21 2 0.19221803D+00 0.37128791D-01 0.83374877D+05 0.83374877D+05 0.83374877D+05 0.11282602D+01  1  2 15  1  7  1        1 0.334420640192D-04 0.100000000000D+01
-.617328136005D-05 0.000000000000D+00 -.138300283012D-04 0.376782633212D-06 0.000000000000D+00  7 1 -1 23 -13 13 23 21 2 0.46426516D+00 0.37128791D-01 0.83374877D+05 0.83374877D+05 0.83374877D+05 0.11282602D+01  1  2  5  1  7  1        1 -.430031217368D-05 0.100000000000D+01
0.271212830267D-06 0.000000000000D+00 -.133550239945D-05 0.376782633212D-06 0.000000000000D+00  7 21 -1 23 -13 13 23 -1 2 0.46426516D+00 0.37128791D-01 0.83374877D+05 0.83374877D+05 0.83374877D+05 0.11282602D+01  1  2  5  3  7  1        1 0.441251710604D-07 0.100000000000D+01
  </mgrwgt>
  </event>
  <event>
  8     66 0.24912036E-05 0.13287096E+03 0.75467711E-02 0.10156984E+00
        1 -1    0    0  501    0 0.00000000E+00 0.00000000E+00 0.11696786E+04 0.11696786E+04 0.32000000E+00 0.0000E+00 0.9000E+01
       -1 -1    0    0    0  501 0.00000000E+00 0.00000000E+00 -.82572534E+02 0.82573154E+02 0.32000000E+00 0.0000E+00 0.9000E+01
       25  2    1    2    0    0 -.55436249E+02 0.22068783E+03 0.67971683E+03 0.77677248E+03 0.29930623E+03 0.0000E+00 0.0000E+00
       23  2    1    2    0    0 0.55436249E+02 -.22068783E+03 0.40738922E+03 0.47547930E+03 0.91314255E+02 0.0000E+00 0.0000E+00
       23  1    3    3    0    0 -.62152354E+02 0.18624258E+03 0.63197488E+03 0.66802448E+03 0.91188000E+02 0.0000E+00 0.9000E+01
      -11  1    4    4    0    0 0.30082138E+02 -.35014991E+02 0.15105073E+03 0.15794717E+03 0.51099893E-03 0.0000E+00 0.9000E+01
       11  1    4    4    0    0 0.25354111E+02 -.18567284E+03 0.25633849E+03 0.31753213E+03 0.51099893E-03 0.0000E+00 0.9000E+01
       23  1    3    3    0    0 0.67161045E+01 0.34445258E+02 0.47741955E+02 0.10874800E+03 0.91188000E+02 0.0000E+00 0.9000E+01
#aMCatNLO 1  0  0  2  1 0.17116789D+02 0.00000000D+00  -5  7  0 0.00000000D+00 0.00000000D+00 0.00000000D+00 0.00000000D+00 0.00000000D+00
  <mgrwgt>
 0.1084310198D-03    9    2    0
 0.310779247321210D+03 0.000000000000000D+00 0.000000000000000D+00 0.310779247321210D+03
 0.310779247321210D+03 0.000000000000000D+00 0.000000000000000D+00 -.310779247321210D+03
 0.240542341182384D+03 -.621523537038806D+02 0.186242575243483D+03 0.104862551243262D+03
 0.540278348330446D+02 0.300821381708932D+02 -.350149910372422D+02 0.280717349388291D+02
 0.191394791798055D+03 0.253541110231438D+02 -.185672842117825D+03 -.389195462658051D+02
 0.135593526828937D+03 0.671610450984358D+01 0.344452579115843D+02 -.940147399162860D+02
 0.000000000000000D+00 -.000000000000000D+00 -.000000000000000D+00 -.000000000000000D+00
 0.317433099850720D+03 0.000000000000000D+00 0.000000000000000D+00 0.317433099850720D+03
 0.322103578298985D+03 0.000000000000000D+00 0.000000000000000D+00 -.322103578298985D+03
 0.243745034488629D+03 -.581948269111355D+02 0.191607927710207D+03 0.104862551243262D+03
 0.537640649810872D+02 0.309629980755402D+02 -.338207795739363D+02 0.280717349388291D+02
 0.187766943799184D+03 0.284525662024281D+02 -.181472161993641D+03 -.389195462658051D+02
 0.136518092051829D+03 0.893976152928537D+01 0.374599446842128D+02 -.940147399162860D+02
 0.177425428289755D+02 -.101604988961182D+02 -.137749308268427D+02 -.467047844826537D+01
0.176338570333D-05 0.000000000000D+00 0.000000000000D+00 0.187657395448D-06 0.000000000000D+00  7 1 -1 23 -11 11 23 21 0 0.17995060D+00 0.12703518D-01 0.75007087D+05 0.75007087D+05 0.75007087D+05 0.11321178D+01  1  2  2  2  7  2       -1 0.972893282507D-04 0.100000000000D+01
-.960624025390D-07 0.000000000000D+00 -.677186541089D-08 0.187657395448D-06 0.000000000000D+00  7 1 -1 23 -11 11 23 21 2 0.17995060D+00 0.12703518D-01 0.75007087D+05 0.75007087D+05 0.75007087D+05 0.11321178D+01  1  2  3  2  7  2       -1 -.679288926760D-05 0.100000000000D+01
0.112508583187D-06 0.000000000000D+00 0.000000000000D+00 0.187657395448D-06 0.000000000000D+00  7 1 -1 23 -11 11 23 21 2 0.17995060D+00 0.12703518D-01 0.75007087D+05 0.75007087D+05 0.75007087D+05 0.11321178D+01  1  2 15  2  7  2       -1 0.795585293563D-05 0.100000000000D+01
0.402826394987D-05 0.000000000000D+00 0.000000000000D+00 0.187657395448D-06 0.000000000000D+00  7 1 -1 23 -11 11 23 21 2 0.17995060D+00 0.13298451D-01 0.79998936D+05 0.79998936D+05 0.79998936D+05 0.11297629D+01  1  2 12  2  7  2       -1 0.263992792121D-03 0.100000000000D+01
-.362959649793D-05 0.000000000000D+00 0.000000000000D+00 0.187657395448D-06 0.000000000000D+00  7 1 -1 23 -11 11 23 21 2 0.17995060D+00 0.12703518D-01 0.75007087D+05 0.75007087D+05 0.75007087D+05 0.11321178D+01  1  2  4  2  7  2       -1 -.256660737655D-03 0.100000000000D+01
-.249135338195D-04 0.000000000000D+00 -.407557010448D-05 0.187657395448D-06 0.000000000000D+00  7 1 -1 23 -11 11 23 21 2 0.17995060D+00 0.13453836D-01 0.75007087D+05 0.75007087D+05 0.75007087D+05 0.11321178D+01  1  2  5  2  7  2       -1 -.161160393536D-02 0.100000000000D+01
0.251127527259D-04 0.000000000000D+00 0.406886871564D-05 0.187657395448D-06 0.000000000000D+00  7 1 -1 23 -11 11 23 21 2 0.17995060D+00 0.12703518D-01 0.75007087D+05 0.75007087D+05 0.75007087D+05 0.11321178D+01  1  2  6  2  7  2       -1 0.177580555934D-02 0.100000000000D+01
0.532896671800D-07 0.000000000000D+00 0.000000000000D+00 0.187657395448D-06 0.000000000000D+00  7 1 21 23 -11 11 23 1 2 0.17995060D+00 0.13298451D-01 0.79998936D+05 0.79998936D+05 0.79998936D+05 0.11297629D+01  1  2 12  4  7  2       -1 0.465093347078D-04 0.100000000000D+01
-.241760828378D-06 0.000000000000D+00 -.403148201597D-07 0.187657395448D-06 0.000000000000D+00  7 1 21 23 -11 11 23 1 2 0.17995060D+00 0.13453836D-01 0.75007087D+05 0.75007087D+05 0.75007087D+05 0.11321178D+01  1  2  5  4  7  2       -1 -.208064285276D-03 0.100000000000D+01
  </mgrwgt>
  </event>
  <event>
  8     66 0.24912036E-05 0.22692136E+03 0.75467711E-02 0.10145747E+00
       21 -1    0    0  501  502 0.00000000E+00 0.00000000E+00 0.16881428E+03 0.16881594E+03 0.75000000E+00 0.0000E+00 0.9000E+01
       -3 -1    0    0    0  501 0.00000000E+00 0.00000000E+00 -.87947977E+03 0.87947992E+03 0.50000000E+00 0.0000E+00 0.9000E+01
       25  2    1    2    0    0 -.15072381E+03 0.85990244E+02 -.47668030E+03 0.58991113E+03 0.30109641E+03 0.0000E+00 0.0000E+00
       23  1    3    3    0    0 -.15743065E+02 0.31718165E+02 -.38098992E+03 0.39334776E+03 0.91188000E+02 0.0000E+00 0.9000E+01
      -11  1    1    2    0    0 0.76542338E+01 0.62050872E+02 -.20435836E+03 0.21370830E+03 0.51099893E-03 0.0000E+00 0.9000E+01
       11  1    1    2    0    0 0.35389800E+02 -.12296594E+03 0.71537363E+01 0.12815708E+03 0.51099893E-03 0.0000E+00 0.9000E+01
       23  1    3    3    0    0 -.13498075E+03 0.54272079E+02 -.95690375E+02 0.19656337E+03 0.91188000E+02 0.0000E+00 0.9000E+01
       -3  1    1    2    0  502 0.10767978E+03 -.25075175E+02 -.36780574E+02 0.11651935E+03 0.50000000E+00 0.0000E+00 0.9000E+01
#aMCatNLO 2  0  0  1  2 0.11056084D+03 0.00000000D+00  -5  7  0 0.00000000D+00 0.00000000D+00 0.00000000D+00 0.00000000D+00 0.00000000D+00
  <mgrwgt>
 0.2633947478D-04    2    2    0
 0.316963276565362D+03 0.000000000000000D+00 0.000000000000000D+00 0.316963276565362D+03
 0.316963276565362D+03 0.000000000000000D+00 0.000000000000000D+00 -.316963276565362D+03
 0.169228378962891D+03 0.129009386966609D+02 0.250479880177864D+02 -.139746760175016D+03
 0.957247021547876D+02 0.237684142078007D+02 0.582981891851577D+02 -.721082673928640D+02
 0.206851674806114D+03 0.691005725170239D+02 -.130816081241230D+03 0.144567904932601D+03
 0.162121797206933D+03 -.105769925421485D+03 0.474699040382862D+02 0.672871226352796D+02
 0.000000000000000D+00 0.000000000000000D+00 -.000000000000000D+00 0.000000000000000D+00
 0.421230042368903D+03 0.000000000000000D+00 0.000000000000000D+00 0.421230042368903D+03
 0.352466086810841D+03 0.000000000000000D+00 0.000000000000000D+00 -.352466086810841D+03
 0.170582266045996D+03 -.157432608689107D+02 0.317183054904717D+02 -.139746760175016D+03
 0.954383170279564D+02 0.765440556370861D+01 0.620506261547311D+02 -.721082673928640D+02
 0.193062066010963D+03 0.353900070322992D+02 -.122965969268224D+03 0.144567904932601D+03
 0.184412940419707D+03 -.134980929628610D+03 0.542722121744040D+02 0.672871226352796D+02
 0.130200539675120D+03 0.107679777901513D+03 -.250751745513824D+02 0.687639555580615D+02
-.892671445927D-06 0.000000000000D+00 0.000000000000D+00 0.387864453283D-10 0.000000000000D+00  7 21 -3 23 -11 11 23 -3 2 0.26787360D-01 0.12167574D+00 0.81384756D+05 0.81384756D+05 0.81384756D+05 0.11291378D+01  1  2 13  3  7  1        3 -.501545649082D-04 0.100000000000D+01
0.175028312991D-05 0.000000000000D+00 0.000000000000D+00 0.387864453283D-10 0.904947961557D-15  7 21 -3 23 -11 11 23 -3 2 0.25971533D-01 0.13530454D+00 0.81384756D+05 0.81384756D+05 0.81384756D+05 0.11291378D+01  1  2  1  3  7  1        3 0.764940396916D-04 0.100000000000D+01
  </mgrwgt>
  </event>
  <event>
  8     66 0.24912036E-05 0.40310414E+03 0.75467711E-02 0.91793962E-01
        1 -1    0    0  501    0 0.00000000E+00 0.00000000E+00 0.78416080E+03 0.78416087E+03 0.32000000E+00 0.0000E+00 0.9000E+01
       -1 -1    0    0    0  501 0.00000000E+00 0.00000000E+00 -.53156266E+03 0.53156276E+03 0.32000000E+00 0.0000E+00 0.9000E+01
       25  2    1    2    0    0 -.31041828E+03 -.16729637E+03 -.37105679E+03 0.59327376E+03 0.29990502E+03 0.0000E+00 0.0000E+00
       23  2    1    2    0    0 0.31041828E+03 0.16729637E+03 0.62365494E+03 0.72244987E+03 0.92955607E+02 0.0000E+00 0.0000E+00
       23  1    3    3    0    0 -.27001115E+03 -.51721277E+02 -.32158306E+03 0.43279559E+03 0.91188000E+02 0.0000E+00 0.9000E+01
      -13  1    4    4    0    0 0.13500721E+02 -.11126652E+02 0.21000633E+02 0.27333306E+02 0.10565837E+00 0.0000E+00 0.9000E+01
       13  1    4    4    0    0 0.29691756E+03 0.17842302E+03 0.60265430E+03 0.69511656E+03 0.10565837E+00 0.0000E+00 0.9000E+01
       23  1    3    3    0    0 -.40407136E+02 -.11557509E+03 -.49473736E+02 0.16047816E+03 0.91188000E+02 0.0000E+00 0.9000E+01
#aMCatNLO 1  0  0  1  2 0.41301073D+03 0.00000000D+00  -5  7  0 0.00000000D+00 0.00000000D+00 0.00000000D+00 0.00000000D+00 0.00000000D+00
  <mgrwgt>
 0.2529525140D-03    5    2    0
 0.645624278931577D+03 0.000000000000000D+00 0.000000000000000D+00 0.645624278931577D+03
 0.645624278931577D+03 0.000000000000000D+00 0.000000000000000D+00 -.645624278931577D+03
 0.503908149454287D+03 -.270011148757001D+03 -.517212767419853D+02 -.412343377322285D+03
 0.237424541565262D+02 0.135003547009556D+02 -.111268966649431D+02 0.160510660995094D+02
 0.590399785997486D+03 0.296917929911735D+03 0.178423268049752D+03 0.478097048329367D+03
 0.173198168254853D+03 -.404071358556902D+02 -.115575094642824D+03 -.818047371065919D+02
 0.000000000000000D+00 -.000000000000000D+00 0.000000000000000D+00 0.000000000000000D+00
 0.264293158178746D+04 0.000000000000000D+00 0.000000000000000D+00 0.264293158178746D+04
 0.699547054150810D+03 0.000000000000000D+00 0.000000000000000D+00 -.699547054150810D+03
 0.463075261536228D+03 -.140054182429130D+03 -.128379171462532D+03 -.412343377322285D+03
 0.304548775769915D+02 0.207841619877202D+02 -.154234061013426D+02 0.160510660995094D+02
 0.672669938331923D+03 0.466667180797322D+03 0.782930436303143D+02 0.478097048329367D+03
 0.189491885726657D+03 0.833630544538396D+01 -.144327455498554D+03 -.818047371065919D+02
 0.198678667276647D+04 -.355733465801296D+03 0.209836989432114D+03 0.194338452763665D+04
0.610430004352D-04 0.000000000000D+00 0.000000000000D+00 0.256962336628D-05 0.000000000000D+00  7 1 -1 23 -13 13 23 21 0 0.12064014D+00 0.81778883D-01 0.16249295D+06 0.16249295D+06 0.16249295D+06 0.11048206D+01  1  2  2  1  7  1        1 0.266654246995D-03 0.100000000000D+01
-.247647242221D-05 0.000000000000D+00 -.234421194662D-06 0.256962336628D-05 0.000000000000D+00  7 1 -1 23 -13 13 23 21 2 0.12064014D+00 0.81778883D-01 0.16249295D+06 0.16249295D+06 0.16249295D+06 0.11048206D+01  1  2  3  1  7  1        1 -.132047329279D-04 0.100000000000D+01
0.382355669344D-05 0.000000000000D+00 0.000000000000D+00 0.256962336628D-05 0.000000000000D+00  7 1 -1 23 -13 13 23 21 2 0.12064014D+00 0.81778883D-01 0.16249295D+06 0.16249295D+06 0.16249295D+06 0.11048206D+01  1  2 15  1  7  1        1 0.203874852466D-04 0.100000000000D+01
-.205125281545D-03 0.000000000000D+00 -.217324776583D-04 0.256962336628D-05 0.000000000000D+00  7 1 -1 23 -13 13 23 21 2 0.49916960D+00 0.81778883D-01 0.16249295D+06 0.16249295D+06 0.16249295D+06 0.11048206D+01  1  2  5  1  7  1        1 -.202672307947D-04 0.100000000000D+01
-.347805509612D-04 0.000000000000D+00 -.369875086904D-05 0.256962336628D-05 0.000000000000D+00  7 21 -1 23 -13 13 23 -1 2 0.49916960D+00 0.81778883D-01 0.16249295D+06 0.16249295D+06 0.16249295D+06 0.11048206D+01  1  2  5  3  7  1        1 -.617254560587D-06 0.100000000000D+01
  </mgrwgt>
  </event>
  <event>
  8     66 0.24912036E-05 0.12065687E+03 0.75467711E-02 0.10021459E+00
        1 -1    0    0  501    0 0.00000000E+00 0.00000000E+00 0.20155221E+03 0.20155246E+03 0.32000000E+00 0.0000E+00 0.9000E+01
       -1 -1    0    0    0  501 0.00000000E+00 0.00000000E+00 -.43693367E+03 0.43693378E+03 0.32000000E+00 0.0000E+00 0.9000E+01
       25  2    1    2    0    0 0.20192710E+03 0.62694776E+01 -.14323026E+03 0.38931228E+03 0.30039188E+03 0.0000E+00 0.0000E+00
       23  2    1    2    0    0 -.20192710E+03 -.62694776E+01 -.92151195E+02 0.24917397E+03 0.11305736E+03 0.0000E+00 0.0000E+00
       23  1    3    3    0    0 0.19769061E+03 -.77528912E+02 -.12876940E+03 0.26455457E+03 0.91188000E+02 0.0000E+00 0.9000E+01
      -13  1    4    4    0    0 -.13675059E+02 0.20717900E+02 0.16823172E+02 0.29987812E+02 0.10565837E+00 0.0000E+00 0.9000E+01
       13  1    4    4    0    0 -.18825204E+03 -.26987377E+02 -.10897437E+03 0.21918616E+03 0.10565837E+00 0.0000E+00 0.9000E+01
       23  1    3    3    0    0 0.42364827E+01 0.83798390E+02 -.14460866E+02 0.12475771E+03 0.91188000E+02 0.0000E+00 0.9000E+01
#aMCatNLO 1  0  0  2  1 0.56294174D+02 0.00000000D+00  -5  7  0 0.00000000D+00 0.00000000D+00 0.00000000D+00 0.00000000D+00 0.00000000D+00
  <mgrwgt>
 0.2508736646D-03    9    2    0
 0.296757585589348D+03 0.000000000000000D+00 0.000000000000000D+00 0.296757585589348D+03
 0.296757585589348D+03 0.000000000000000D+00 0.000000000000000D+00 -.296757585589348D+03
 0.233531670276758D+03 0.197690742128356D+03 -.775289076388337D+02 -.336069730163454D+02
 0.389316263483061D+02 -.136750452773519D+02 0.207178275063468D+02 0.299906033651168D+02
 0.192576196957191D+03 -.188252251524833D+03 -.269873113442628D+02 -.303045616489249D+02
 0.128475677596441D+03 0.423655467382846D+01 0.837983914767498D+02 0.339209313001536D+02
 0.000000000000000D+00 -.000000000000000D+00 0.000000000000000D+00 -.000000000000000D+00
 0.325416180740104D+03 0.000000000000000D+00 0.000000000000000D+00 0.325416180740104D+03
 0.327081530705269D+03 0.000000000000000D+00 0.000000000000000D+00 -.327081530705269D+03
 0.253633028789588D+03 0.220720613405142D+03 -.785330766729300D+02 -.336069730163454D+02
 0.377249235448149D+02 -.100512390369892D+02 0.205598190672894D+02 0.299906033651168D+02
 0.175713455672614D+03 -.170841993127844D+03 -.277464489941330D+02 -.303045616489249D+02
 0.129107501760205D+03 0.164133554047058D+02 0.832674477262898D+02 0.339209313001536D+02
 0.563188016781513D+02 -.562407366450145D+02 0.245225887348380D+01 -.166534996516550D+01
0.329755202513D-05 0.000000000000D+00 0.000000000000D+00 0.130790178882D-08 0.000000000000D+00  7 1 -1 23 -13 13 23 21 0 0.31008061D-01 0.67220593D-01 0.81230292D+05 0.81230292D+05 0.81230292D+05 0.11292069D+01  1  2  2  2  7  2       -1 0.139086127169D-03 0.100000000000D+01
-.182833896280D-06 0.000000000000D+00 -.126634680419D-07 0.130790178882D-08 0.000000000000D+00  7 1 -1 23 -13 13 23 21 2 0.31008061D-01 0.67220593D-01 0.81230292D+05 0.81230292D+05 0.81230292D+05 0.11292069D+01  1  2  3  2  7  2       -1 -.983322340147D-05 0.100000000000D+01
0.217520826722D-06 0.000000000000D+00 0.000000000000D+00 0.130790178882D-08 0.000000000000D+00  7 1 -1 23 -13 13 23 21 2 0.31008061D-01 0.67220593D-01 0.81230292D+05 0.81230292D+05 0.81230292D+05 0.11292069D+01  1  2 15  2  7  2       -1 0.116987655306D-04 0.100000000000D+01
0.315564893179D-05 0.000000000000D+00 0.000000000000D+00 0.130790178882D-08 0.000000000000D+00  7 1 -1 23 -13 13 23 21 2 0.31008061D-01 0.77025016D-01 0.98667694D+05 0.98667694D+05 0.98667694D+05 0.11222004D+01  1  2 12  2  7  2       -1 0.128225656243D-03 0.100000000000D+01
-.258039809803D-05 0.000000000000D+00 0.000000000000D+00 0.130790178882D-08 0.000000000000D+00  7 1 -1 23 -13 13 23 21 2 0.31008061D-01 0.67220593D-01 0.81230292D+05 0.81230292D+05 0.81230292D+05 0.11292069D+01  1  2  4  2  7  2       -1 -.138779687350D-03 0.100000000000D+01
-.932474405107D-05 0.000000000000D+00 -.251679697187D-05 0.130790178882D-08 0.000000000000D+00  7 1 -1 23 -13 13 23 21 2 0.31008061D-01 0.80194589D-01 0.81230292D+05 0.81230292D+05 0.81230292D+05 0.11292069D+01  1  2  5  2  7  2       -1 -.354904489201D-03 0.100000000000D+01
0.965682224270D-05 0.000000000000D+00 0.247810772234D-05 0.130790178882D-08 0.000000000000D+00  7 1 -1 23 -13 13 23 21 2 0.31008061D-01 0.67220593D-01 0.81230292D+05 0.81230292D+05 0.81230292D+05 0.11292069D+01  1  2  6  2  7  2       -1 0.519365896548D-03 0.100000000000D+01
0.665089276524D-07 0.000000000000D+00 0.000000000000D+00 0.130790178882D-08 0.000000000000D+00  7 1 21 23 -13 13 23 1 2 0.31008061D-01 0.77025016D-01 0.98667694D+05 0.98667694D+05 0.98667694D+05 0.11222004D+01  1  2 12  4  7  2       -1 0.214160897705D-04 0.100000000000D+01
-.218829774593D-06 0.000000000000D+00 -.653569024880D-07 0.130790178882D-08 0.000000000000D+00  7 1 21 23 -13 13 23 1 2 0.31008061D-01 0.80194589D-01 0.81230292D+05 0.81230292D+05 0.81230292D+05 0.11292069D+01  1  2  5  4  7  2       -1 -.654014706844D-04 0.100000000000D+01
  </mgrwgt>
  </event>
  <event>
  9     66 0.24912036E-05 0.33946643E+03 0.75467711E-02 0.98169355E-01
        3 -1    0    0  502    0 0.00000000E+00 0.00000000E+00 0.22029030E+03 0.22029087E+03 0.50000000E+00 0.0000E+00 0.9000E+01
       -3 -1    0    0    0  501 0.00000000E+00 0.00000000E+00 -.77529928E+03 0.77529944E+03 0.50000000E+00 0.0000E+00 0.9000E+01
       25  2    1    2    0    0 -.17712333E+03 0.24502022E+03 -.31961135E+03 0.53278646E+03 0.30050360E+03 0.0000E+00 0.0000E+00
       23  2    1    2    0    0 0.13901188E+03 -.29125300E+03 -.17628056E+03 0.37862936E+03 0.90181745E+02 0.0000E+00 0.0000E+00
       23  1    3    3    0    0 -.11891197E+03 0.12132383E+03 -.31386426E+03 0.36835520E+03 0.91188000E+02 0.0000E+00 0.9000E+01
      -13  1    4    4    0    0 0.13355408E+03 -.28489382E+03 -.14537033E+03 0.34660312E+03 0.10565837E+00 0.0000E+00 0.9000E+01
       13  1    4    4    0    0 0.54577962E+01 -.63591792E+01 -.30910225E+02 0.32026237E+02 0.10565837E+00 0.0000E+00 0.9000E+01
       23  1    3    3    0    0 -.58211365E+02 0.12369639E+03 -.57470899E+01 0.16443126E+03 0.91188000E+02 0.0000E+00 0.9000E+01
       21  1    1    2  502  501 0.38111458E+02 0.46232781E+02 -.59117072E+02 0.84174485E+02 0.75000000E+00 0.0000E+00 0.9000E+01
#aMCatNLO 2  0  0  1  2 0.59916219D+02 0.00000000D+00  -5  7  0 0.00000000D+00 0.00000000D+00 0.00000000D+00 0.00000000D+00 0.00000000D+00
  <mgrwgt>
 0.2023960225D-04    1    2    0
 0.381175832954743D+03 0.000000000000000D+00 0.000000000000000D+00 0.381175832954743D+03
 0.381175832954743D+03 0.000000000000000D+00 0.000000000000000D+00 -.381175832954743D+03
 0.237632115996056D+03 -.107103952096070D+03 0.135648063183741D+03 -.135211381209814D+03
 0.309214790039117D+03 0.149228743441145D+03 -.265879574035507D+03 0.515035981326483D+02
 0.180688084027886D+02 0.636094500330037D+01 -.526297924290368D+01 -.160723758433667D+02
 0.197435951471523D+03 -.484857363483755D+02 0.135494490094671D+03 0.997801589205329D+02
 0.000000000000000D+00 0.000000000000000D+00 0.000000000000000D+00 -.000000000000000D+00
 0.405406045654847D+03 0.000000000000000D+00 0.000000000000000D+00 0.405406045654847D+03
 0.421279827263335D+03 0.000000000000000D+00 0.000000000000000D+00 -.421279827263335D+03
 0.235492880428925D+03 -.118911969916970D+03 0.121323827793686D+03 -.135211381209814D+03
 0.318832346769870D+03 0.133554256064992D+03 -.284894200385160D+03 0.515035981326483D+02
 0.181257050513366D+02 0.545762037848763D+01 -.635879691151760D+01 -.160723758433667D+02
 0.192251634634087D+03 -.582113648737925D+02 0.123696388632821D+03 0.997801589205329D+02
 0.619833060339631D+02 0.381114583472832D+02 0.462327808701708D+02 -.158737816084888D+02
0.899918295050D-05 0.000000000000D+00 0.000000000000D+00 0.371030632074D-06 0.684748557675D-09  7 3 -3 23 -13 13 23 21 2 0.33890684D-01 0.11927621D+00 0.13692935D+06 0.13692935D+06 0.13692935D+06 0.11106901D+01  1  2  1  1  7  1        3 0.202396022520D-04 0.100000000000D+01
  </mgrwgt>
  </event>
  <event>
  8     66 0.24912036E-05 0.28039248E+03 0.75467711E-02 0.98998559E-01
        1 -1    0    0  501    0 0.00000000E+00 0.00000000E+00 0.17255009E+03 0.17255038E+03 0.32000000E+00 0.0000E+00 0.9000E+01
       -1 -1    0    0    0  502 0.00000000E+00 0.00000000E+00 -.12644376E+04 0.12644377E+04 0.32000000E+00 0.0000E+00 0.9000E+01
       25  2    1    2    0    0 -.64560140E+02 -.21396092E+03 -.76800889E+03 0.85437155E+03 0.30027621E+03 0.0000E+00 0.0000E+00
       23  1    3    3    0    0 0.71183313E+02 -.16835305E+03 -.40290750E+03 0.45172947E+03 0.91188000E+02 0.0000E+00 0.9000E+01
      -11  1    1    2    0    0 -.68874981E+01 0.11021224E+03 0.71948084E+02 0.13179796E+03 0.51099893E-03 0.0000E+00 0.9000E+01
       11  1    1    2    0    0 -.48956737E+02 0.64206000E+02 -.96859141E+02 0.12609863E+03 0.51099893E-03 0.0000E+00 0.9000E+01
       23  1    3    3    0    0 -.13574345E+03 -.45607869E+02 -.36510139E+03 0.40264208E+03 0.91188000E+02 0.0000E+00 0.9000E+01
       21  1    1    2  501  502 0.12040438E+03 0.39542676E+02 -.29896761E+03 0.32471993E+03 0.75000000E+00 0.0000E+00 0.9000E+01
#aMCatNLO 2  0  0  2  1 0.12673136D+03 0.00000000D+00  -5  7  0 0.00000000D+00 0.00000000D+00 0.00000000D+00 0.00000000D+00 0.00000000D+00
  <mgrwgt>
 0.2793176475D-04    2    2    0
 0.384823837488017D+03 0.000000000000000D+00 0.000000000000000D+00 0.384823837488017D+03
 0.384823837488017D+03 0.000000000000000D+00 0.000000000000000D+00 -.384823837488017D+03
 0.240219739115102D+03 0.108073552637926D+03 -.156237719110616D+03 -.115326293896308D+03
 0.269178421913325D+03 0.343119804381158D+02 0.123742798772201D+03 0.236574365843353D+03
 0.780853633462205D+02 -.365690351459238D+02 0.682743118845221D+02 -.993216865052517D+01
 0.182164150601386D+03 -.105816497930118D+03 -.357793915461078D+02 -.111315903296520D+03
 0.000000000000000D+00 0.000000000000000D+00 0.000000000000000D+00 -.000000000000000D+00
 0.421455216926169D+03 0.000000000000000D+00 0.000000000000000D+00 0.421455216926169D+03
 0.517678237329208D+03 0.000000000000000D+00 0.000000000000000D+00 -.517678237329208D+03
 0.234574548244748D+03 0.711833123859978D+02 -.168353049613386D+03 -.115326293896308D+03
 0.261077780420069D+03 -.688750156898045D+01 0.110212246039278D+03 0.236574365843353D+03
 0.813499843370974D+02 -.489567332233223D+02 0.642059985487647D+02 -.993216865052517D+01
 0.203009469244624D+03 -.135743453146526D+03 -.456078705940162D+02 -.111315903296520D+03
 0.159121672008839D+03 0.120404375552831D+03 0.395426756193592D+02 -.962230204030385D+02
-.159147567688D-04 0.000000000000D+00 0.000000000000D+00 0.429724567051D-09 0.000000000000D+00  7 1 -1 23 -11 11 23 21 2 0.24238845D-01 0.19958815D+00 0.11969401D+06 0.11969401D+06 0.11969401D+06 0.11153711D+01  1  2 13  2  7  2       -1 -.737414800912D-04 0.100000000000D+01
0.225011054563D-04 0.000000000000D+00 0.000000000000D+00 0.429724567051D-09 0.180868466783D-12  7 1 -1 23 -11 11 23 21 2 0.26546140D-01 0.19452850D+00 0.11969401D+06 0.11969401D+06 0.11969401D+06 0.11153711D+01  1  2  1  2  7  2       -1 0.101673244840D-03 0.100000000000D+01
  </mgrwgt>
  </event>
  <event>
  9     66 -.24912036E-05 0.56503502E+03 0.75467711E-02 0.92826368E-01
        1 -1    0    0  502    0 0.00000000E+00 0.00000000E+00 0.12499375E+04 0.12499375E+04 0.32000000E+00 0.0000E+00 0.9000E+01
       -1 -1    0    0    0  501 0.00000000E+00 0.00000000E+00 -.30393911E+03 0.30393928E+03 0.32000000E+00 0.0000E+00 0.9000E+01
       25  2    1    2    0    0 -.44347770E+03 0.32159538E+03 0.70629231E+03 0.94266602E+03 0.29945673E+03 0.0000E+00 0.0000E+00
       23  2    1    2    0    0 0.40419079E+03 -.30023610E+03 0.19358612E+03 0.54696678E+03 0.90471893E+02 0.0000E+00 0.0000E+00
       23  1    3    3    0    0 -.19208552E+02 0.32421844E+02 0.75571799E+02 0.12428392E+03 0.91188000E+02 0.0000E+00 0.9000E+01
      -13  1    4    4    0    0 0.10614007E+03 -.34973008E+02 0.55281056E+02 0.12467891E+03 0.10565837E+00 0.0000E+00 0.9000E+01
       13  1    4    4    0    0 0.29805072E+03 -.26526309E+03 0.13830506E+03 0.42228787E+03 0.10565837E+00 0.0000E+00 0.9000E+01
       23  1    3    3    0    0 -.42426915E+03 0.28917354E+03 0.63072051E+03 0.81838210E+03 0.91188000E+02 0.0000E+00 0.9000E+01
       21  1    1    2  502  501 0.39286910E+02 -.21359282E+02 0.46119942E+02 0.64244002E+02 0.75000000E+00 0.0000E+00 0.9000E+01
#aMCatNLO 2  0  0  1  2 0.44717785D+02 0.00000000D+00  -5  7  0 0.00000000D+00 0.00000000D+00 0.00000000D+00 0.00000000D+00 0.00000000D+00
  <mgrwgt>
 -.3168061581D-04    3    2    0
 0.593132575159994D+03 0.000000000000000D+00 0.000000000000000D+00 0.593132575159994D+03
 0.593132575159994D+03 0.000000000000000D+00 0.000000000000000D+00 -.593132575159994D+03
 0.975202033776349D+02 -.159609758493350D+02 0.306562206040716D+02 0.618151297587815D+00
 0.118772739940779D+03 0.110001984894381D+03 -.370724620471442D+02 -.251427848517104D+02
 0.440012889019379D+03 0.312370770747771D+03 -.273048707149861D+03 -.146561412416137D+03
 0.529959317982196D+03 -.406411779792817D+03 0.279464948592934D+03 0.171086045970259D+03
 0.000000000000000D+00 0.000000000000000D+00 -.000000000000000D+00 0.000000000000000D+00
 0.620965110851585D+03 0.000000000000000D+00 0.000000000000000D+00 0.620965110851585D+03
 0.611791610915033D+03 0.000000000000000D+00 0.000000000000000D+00 -.611791610915033D+03
 0.986700455852704D+02 -.192085518350794D+02 0.324218441358862D+02 0.618151297587815D+00
 0.114546528324415D+03 0.106139804910233D+03 -.349726941297658D+02 -.251427848517104D+02
 0.425063891384422D+03 0.298050983741458D+03 -.265263407277001D+03 -.146561412416137D+03
 0.548827232901635D+03 -.424269146888858D+03 0.289173539769683D+03 0.171086045970259D+03
 0.456490235708759D+02 0.392869100722465D+02 -.213592824988029D+02 0.917349993655263D+01
-.302603023646D-04 0.000000000000D+00 0.000000000000D+00 0.538127802267D-06 0.000000000000D+00  7 1 -1 23 -13 13 23 21 2 0.19507290D+00 0.45333522D-01 0.34551828D+06 0.34551828D+06 0.34551828D+06 0.10800419D+01  1  2 13  1  7  1        1 -.195734179483D-03 0.100000000000D+01
-.328526409674D-05 0.000000000000D+00 0.000000000000D+00 0.538127802267D-06 0.000000000000D+00  7 1 -1 23 -13 13 23 21 2 0.18367810D+00 0.45333522D-01 0.31926458D+06 0.31926458D+06 0.31926458D+06 0.10825578D+01  1  2  8  1  7  1        1 -.241579402328D-04 0.100000000000D+01
0.298795081655D-04 0.000000000000D+00 0.000000000000D+00 0.538127802267D-06 0.168038509628D-08  7 1 -1 23 -13 13 23 21 2 0.19229713D+00 0.46759645D-01 0.34551828D+06 0.34551828D+06 0.34551828D+06 0.10800419D+01  1  2  1  1  7  1        1 0.188211503906D-03 0.100000000000D+01
  </mgrwgt>
  </event>
  <event>
  8     66 0.24912036E-05 0.29649668E+03 0.75467711E-02 0.93433645E-01
        1 -1    0    0  501    0 0.00000000E+00 0.00000000E+00 0.11218426E+04 0.11218427E+04 0.32000000E+00 0.0000E+00 0.9000E+01
       -1 -1    0    0    0  501 0.00000000E+00 0.00000000E+00 -.20937448E+03 0.20937473E+03 0.32000000E+00 0.0000E+00 0.9000E+01
       25  2    1    2    0    0 0.87161861E+02 -.22773879E+03 0.98684217E+03 0.10604765E+04 0.30214373E+03 0.0000E+00 0.0000E+00
       23  2    1    2    0    0 -.87161861E+02 0.22773879E+03 -.74374009E+02 0.27074090E+03 0.91142718E+02 0.0000E+00 0.0000E+00
       23  1    3    3    0    0 0.83807371E+02 -.22614633E+03 0.89339204E+03 0.92985506E+03 0.91188000E+02 0.0000E+00 0.9000E+01
      -11  1    4    4    0    0 -.31612557E+01 0.61620750E+01 -.28560238E+02 0.29387955E+02 0.51099893E-03 0.0000E+00 0.9000E+01
       11  1    4    4    0    0 -.84000605E+02 0.22157671E+03 -.45813771E+02 0.24135294E+03 0.51099893E-03 0.0000E+00 0.9000E+01
       23  1    3    3    0    0 0.33544894E+01 -.15924583E+01 0.93450134E+02 0.13062147E+03 0.91188000E+02 0.0000E+00 0.9000E+01
#aMCatNLO 1  0  0  1  1 0.43293146D+03 0.00000000D+00  -5  7  0 0.00000000D+00 0.00000000D+00 0.00000000D+00 0.00000000D+00 0.00000000D+00
  <mgrwgt>
 0.2215455639D-03    5    2    0
 0.484649788311668D+03 0.000000000000000D+00 0.000000000000000D+00 0.484649788311668D+03
 0.484649788311668D+03 0.000000000000000D+00 0.000000000000000D+00 -.484649788311668D+03
 0.436033879619411D+03 0.838073712869646D+02 -.226146329903201D+03 0.351631134601640D+03
 0.672465640634520D+02 -.316125572656259D+01 0.616207499214881D+01 -.668889802012437D+02
 0.374597140125264D+03 -.840006049677609D+02 0.221576713181237D+03 -.290121829462860D+03
 0.914219928152086D+02 0.335448940735888D+01 -.159245827018573D+01 0.537967506246267D+01
 0.000000000000000D+00 0.000000000000000D+00 -.000000000000000D+00 0.000000000000000D+00
 0.971316267518044D+03 0.000000000000000D+00 0.000000000000000D+00 0.971316267518044D+03
 0.637162516081777D+03 0.000000000000000D+00 0.000000000000000D+00 -.637162516081777D+03
 0.370628865094627D+03 0.489557854684833D+01 -.733626797955603D+02 0.351631134601640D+03
 0.767425684762780D+02 -.172469943555757D+02 0.334339248320115D+02 -.668889802012437D+02
 0.515410603955811D+03 -.171065623277143D+03 0.390146084527348D+03 -.290121829462860D+03
 0.988070153580675D+02 -.152546656137385D+02 0.344373229680347D+02 0.537967506246267D+01
 0.546889730715036D+03 0.198671704699609D+03 -.384654652531834D+03 0.334153751436267D+03
0.164539810249D-04 0.000000000000D+00 0.000000000000D+00 0.158645859557D-06 0.000000000000D+00  7 1 -1 23 -11 11 23 21 0 0.17259120D+00 0.32211481D-01 0.87910279D+05 0.87910279D+05 0.87910279D+05 0.11263434D+01  1  2  2  1  7  1        1 0.219602918880D-03 0.100000000000D+01
-.645740305960D-06 0.000000000000D+00 -.631876195682D-07 0.158645859557D-06 0.000000000000D+00  7 1 -1 23 -11 11 23 21 2 0.17259120D+00 0.32211481D-01 0.87910279D+05 0.87910279D+05 0.87910279D+05 0.11263434D+01  1  2  3  1  7  1        1 -.109336866613D-04 0.100000000000D+01
0.928444589529D-06 0.000000000000D+00 0.000000000000D+00 0.158645859557D-06 0.000000000000D+00  7 1 -1 23 -11 11 23 21 2 0.17259120D+00 0.32211481D-01 0.87910279D+05 0.87910279D+05 0.87910279D+05 0.11263434D+01  1  2 15  1  7  1        1 0.157204407570D-04 0.100000000000D+01
-.145915515932D-05 0.000000000000D+00 -.463418446031D-05 0.158645859557D-06 0.000000000000D+00  7 1 -1 23 -11 11 23 21 2 0.38515546D+00 0.32211481D-01 0.87910279D+05 0.87910279D+05 0.87910279D+05 0.11263434D+01  1  2  5  1  7  1        1 -.296577315574D-05 0.100000000000D+01
0.165566496711D-06 0.000000000000D+00 -.403655334259D-06 0.158645859557D-06 0.000000000000D+00  7 21 -1 23 -11 11 23 -1 2 0.38515546D+00 0.32211481D-01 0.87910279D+05 0.87910279D+05 0.87910279D+05 0.11263434D+01  1  2  5  3  7  1        1 0.121664103734D-06 0.100000000000D+01
  </mgrwgt>
  </event>
  <event>
  8     66 0.24912036E-05 0.65283361E+03 0.75467711E-02 0.86100797E-01
        1 -1    0    0  501    0 0.00000000E+00 0.00000000E+00 0.11558451E+04 0.11558451E+04 0.32000000E+00 0.0000E+00 0.9000E+01
       -1 -1    0    0    0  501 0.00000000E+00 0.00000000E+00 -.38525010E+03 0.38525024E+03 0.32000000E+00 0.0000E+00 0.9000E+01
       25  2    1    2    0    0 0.57198672E+02 0.61889241E+03 0.28602044E+03 0.74735949E+03 0.30073079E+03 0.0000E+00 0.0000E+00
       23  2    1    2    0    0 -.57198672E+02 -.61889241E+03 0.48457452E+03 0.79373585E+03 0.94364330E+02 0.0000E+00 0.0000E+00
       23  1    3    3    0    0 0.10896212E+03 0.51996757E+03 0.26832040E+03 0.60212133E+03 0.91188000E+02 0.0000E+00 0.9000E+01
      -11  1    4    4    0    0 -.48952589E+02 -.59829117E+03 0.44110850E+03 0.74493314E+03 0.51099893E-03 0.0000E+00 0.9000E+01
       11  1    4    4    0    0 -.82460833E+01 -.20601242E+02 0.43466023E+02 0.48802707E+02 0.51099893E-03 0.0000E+00 0.9000E+01
       23  1    3    3    0    0 -.51763443E+02 0.98924846E+02 0.17700037E+02 0.14523816E+03 0.91188000E+02 0.0000E+00 0.9000E+01
#aMCatNLO 1  0  0  2  1 0.77178008D+03 0.00000000D+00  -5  7  0 0.00000000D+00 0.00000000D+00 0.00000000D+00 0.00000000D+00 0.00000000D+00
  <mgrwgt>
 0.2914646221D-03    5    2    0
 0.667300206488589D+03 0.000000000000000D+00 0.000000000000000D+00 0.667300206488589D+03
 0.667300206488589D+03 0.000000000000000D+00 0.000000000000000D+00 -.667300206488589D+03
 0.540356521336719D+03 0.108962115011859D+03 0.519967566992742D+03 -.378273125520627D+02
 0.605497349790500D+03 -.489525888021050D+02 -.598291171171515D+03 0.792360975257432D+02
 0.312564913959097D+02 -.824608333937861D+01 -.206012422243842D+02 0.220127050303876D+02
 0.157490050454049D+03 -.517634428703752D+02 0.989248464031571D+02 -.634214900040681D+02
 0.000000000000000D+00 0.000000000000000D+00 -.000000000000000D+00 -.000000000000000D+00
 0.106301699142824D+04 0.000000000000000D+00 0.000000000000000D+00 0.106301699142824D+04
 0.128051204042082D+04 0.000000000000000D+00 0.000000000000000D+00 -.128051204042082D+04
 0.812261190375008D+03 -.126369090505846D+03 0.796274410888130D+03 -.378273125520627D+02
 0.454409990235017D+03 -.233357443112062D+03 -.381777924739605D+03 0.792360975257432D+02
 0.301288050555608D+02 -.189260231996257D+02 -.806172172481575D+01 0.220127050303876D+02
 0.244888295319912D+03 -.121770053286096D+03 0.181120939068507D+03 -.634214900040681D+02
 0.801840750863565D+03 0.500422610103629D+03 -.587555703492215D+03 -.217495048992580D+03
0.707526880838D-04 0.000000000000D+00 0.000000000000D+00 0.208339260960D-06 0.000000000000D+00  7 1 -1 23 -11 11 23 21 0 0.17782233D+00 0.59269260D-01 0.42619173D+06 0.42619173D+06 0.42619173D+06 0.10734475D+01  1  2  2  2  7  2       -1 0.285353021380D-03 0.100000000000D+01
-.392840904416D-05 0.000000000000D+00 -.271708951852D-06 0.208339260960D-06 0.000000000000D+00  7 1 -1 23 -11 11 23 21 2 0.17782233D+00 0.59269260D-01 0.42619173D+06 0.42619173D+06 0.42619173D+06 0.10734475D+01  1  2  3  2  7  2       -1 -.182565152795D-04 0.100000000000D+01
0.442513448072D-05 0.000000000000D+00 0.000000000000D+00 0.208339260960D-06 0.000000000000D+00  7 1 -1 23 -11 11 23 21 2 0.17782233D+00 0.59269260D-01 0.42619173D+06 0.42619173D+06 0.42619173D+06 0.10734475D+01  1  2 15  2  7  2       -1 0.205649499206D-04 0.100000000000D+01
0.124453561825D-05 0.000000000000D+00 -.213640062399D-04 0.208339260960D-06 0.000000000000D+00  7 1 -1 23 -11 11 23 21 2 0.17782233D+00 0.16807321D+00 0.42619173D+06 0.42619173D+06 0.42619173D+06 0.10734475D+01  1  2  5  2  7  2       -1 0.504860599418D-06 0.100000000000D+01
0.131774459524D-05 0.000000000000D+00 -.250668972674D-05 0.208339260960D-06 0.000000000000D+00  7 1 21 23 -11 11 23 1 2 0.17782233D+00 0.16807321D+00 0.42619173D+06 0.42619173D+06 0.42619173D+06 0.10734475D+01  1  2  5  4  7  2       -1 0.329830550468D-05 0.100000000000D+01
  </mgrwgt>
  </event>
  <event>
  7     66 0.24912036E-05 0.55738858E+03 0.75467711E-02 0.85581827E-01
        1 -1    0    0  501    0 0.00000000E+00 0.00000000E+00 0.22683187E+04 0.22683187E+04 0.32000000E+00 0.0000E+00 0.9000E+01
       -1 -1    0    0    0  501 0.00000000E+00 0.00000000E+00 -.39397210E+03 0.39397223E+03 0.32000000E+00 0.0000E+00 0.9000E+01
       25  2    1    2    0    0 -.23376491E+03 -.41369762E+03 0.19739908E+04 0.20523884E+04 0.29977804E+03 0.0000E+00 0.0000E+00
       23  1    3    3    0    0 -.14448080E+03 -.39759445E+03 0.14861187E+04 0.15478437E+04 0.91188000E+02 0.0000E+00 0.9000E+01
      -13  1    1    2    0    0 0.18201683E+02 -.43924548E+02 -.92495773E+02 0.10400070E+03 0.10565837E+00 0.0000E+00 0.9000E+01
       13  1    1    2    0    0 0.21556323E+03 0.45762216E+03 -.71484157E+01 0.50590183E+03 0.10565837E+00 0.0000E+00 0.9000E+01
       23  1    3    3    0    0 -.89284113E+02 -.16103161E+02 0.48787205E+03 0.50454470E+03 0.91188000E+02 0.0000E+00 0.9000E+01
#aMCatNLO 1  0  0  1  1 0.94976770D+03 0.00000000D+00  -5  7  0 0.00000000D+00 0.00000000D+00 0.00000000D+00 0.00000000D+00 0.00000000D+00
  <mgrwgt>
 0.1855399763D-02    3    2    0
 0.945333004831287D+03 0.000000000000000D+00 0.000000000000000D+00 0.945333004831287D+03
 0.945333004831287D+03 0.000000000000000D+00 0.000000000000000D+00 -.945333004831287D+03
 0.706264049384642D+03 -.144480894285674D+03 -.397594625774939D+03 0.558155391311855D+03
 0.238142808102673D+03 0.182019513796408D+02 -.439236021045707D+02 -.233348244465560D+03
 0.719458832391207D+03 0.215563086566298D+03 0.457621444286135D+03 -.511601584189495D+03
 0.226800319784053D+03 -.892841436602653D+02 -.161032164066252D+02 0.186794437343201D+03
 0.000000000000000D+00 0.000000000000000D+00 0.000000000000000D+00 -.000000000000000D+00
 0.151290453208280D+04 0.000000000000000D+00 0.000000000000000D+00 0.151290453208280D+04
 0.155354823742959D+04 0.000000000000000D+00 0.000000000000000D+00 -.155354823742959D+04
 0.890397226922512D+03 -.519197188057599D+03 -.450986484753026D+03 0.558155391311855D+03
 0.260562280353860D+03 -.988378523687423D+02 -.606001459336472D+02 -.233348244465560D+03
 0.665503389419737D+03 -.109470105177054D+03 0.411308736178168D+03 -.511601584189495D+03
 0.299352935520780D+03 -.212765686495612D+03 -.336976184410193D+02 0.186794437343201D+03
 0.950636937295498D+03 0.940270832099007D+03 0.133975512949525D+03 -.406437053467860D+02
0.260520216058D-02 0.000000000000D+00 0.000000000000D+00 0.425512590030D-09 0.000000000000D+00  7 1 -1 23 -13 13 23 21 0 0.34897212D+00 0.60611105D-01 0.31068203D+06 0.31068203D+06 0.31068203D+06 0.10834295D+01  1  2  2  1  7  1        1 0.180804458112D-02 0.100000000000D+01
-.956234545622D-04 0.000000000000D+00 -.100046622621D-04 0.425512590030D-09 0.000000000000D+00  7 1 -1 23 -13 13 23 21 2 0.34897212D+00 0.60611105D-01 0.31068203D+06 0.31068203D+06 0.31068203D+06 0.10834295D+01  1  2  3  1  7  1        1 -.778992763129D-04 0.100000000000D+01
0.153753212103D-03 0.000000000000D+00 0.000000000000D+00 0.425512590030D-09 0.000000000000D+00  7 1 -1 23 -13 13 23 21 2 0.34897212D+00 0.60611105D-01 0.31068203D+06 0.31068203D+06 0.31068203D+06 0.10834295D+01  1  2 15  1  7  1        1 0.125254457794D-03 0.100000000000D+01
  </mgrwgt>
  </event>
  <event>
  8     66 0.24912036E-05 0.22775056E+03 0.75467711E-02 0.10019843E+00
        1 -1    0    0  501    0 0.00000000E+00 0.00000000E+00 0.10639433E+04 0.10639434E+04 0.32000000E+00 0.0000E+00 0.9000E+01
       -1 -1    0    0    0  501 0.00000000E+00 0.00000000E+00 -.96655650E+02 0.96656180E+02 0.32000000E+00 0.0000E+00 0.9000E+01
       25  2    1    2    0    0 -.17344803E+03 0.98846262E+01 0.87916450E+03 0.94500590E+03 0.29987334E+03 0.0000E+00 0.0000E+00
       23  2    1    2    0    0 0.17344803E+03 -.98846262E+01 0.88123189E+02 0.21559366E+03 0.92374254E+02 0.0000E+00 0.0000E+00
       23  1    3    3    0    0 -.12191751E+03 -.16057102E+02 0.17453687E+03 0.23216391E+03 0.91188000E+02 0.0000E+00 0.9000E+01
      -13  1    4    4    0    0 0.97838717E+02 0.38053468E+02 0.31252389E+02 0.10953175E+03 0.10565837E+00 0.0000E+00 0.9000E+01
       13  1    4    4    0    0 0.75609317E+02 -.47938094E+02 0.56870799E+02 0.10606191E+03 0.10565837E+00 0.0000E+00 0.9000E+01
       23  1    3    3    0    0 -.51530522E+02 0.25941729E+02 0.70462762E+03 0.71284199E+03 0.91188000E+02 0.0000E+00 0.9000E+01
#aMCatNLO 1  0  0  1  2 0.14740354D+03 0.00000000D+00  -5  7  0 0.00000000D+00 0.00000000D+00 0.00000000D+00 0.00000000D+00 0.00000000D+00
  <mgrwgt>
 0.1722355119D-03    3    2    0
 0.320681258789203D+03 0.000000000000000D+00 0.000000000000000D+00 0.320681258789203D+03
 0.320681258789203D+03 0.000000000000000D+00 0.000000000000000D+00 -.320681258789203D+03
 0.156887817976807D+03 -.121917512074809D+03 -.160571024586619D+02 -.343048946310108D+02
 0.151072884824077D+03 0.978387467156773D+02 0.380535783512612D+02 -.108639409722433D+03
 0.106156724858998D+03 0.756092881950402D+02 -.479382046278087D+02 -.570474741639865D+02
 0.227245089918524D+03 -.515305228359090D+02 0.259417287352094D+02 0.199991778517430D+03
 0.000000000000000D+00 0.000000000000000D+00 -.000000000000000D+00 -.000000000000000D+00
 0.337596104874651D+03 0.000000000000000D+00 0.000000000000000D+00 0.337596104874651D+03
 0.964028198763037D+03 0.000000000000000D+00 0.000000000000000D+00 -.964028198763037D+03
 0.179707644952292D+03 -.150738134975824D+03 0.898750124699457D+01 -.343048946310108D+02
 0.143775014572808D+03 0.725927138436774D+02 0.599919275184800D+02 -.108639409722433D+03
 0.885808675852676D+02 0.589350922102002D+02 -.334486277722003D+02 -.570474741639865D+02
 0.246019812964650D+03 -.920533188937829D+02 0.611553107525099D+02 0.199991778517430D+03
 0.643540963562670D+03 0.111263647815729D+03 -.966861117457842D+02 -.626432093888387D+03
0.326258002610D-05 0.000000000000D+00 0.000000000000D+00 0.270044140390D-06 0.000000000000D+00  7 1 -1 23 -13 13 23 21 0 0.16368363D+00 0.14870144D-01 0.51870317D+05 0.51870317D+05 0.51870317D+05 0.11458952D+01  1  2  2  1  7  1        1 0.168411193343D-03 0.100000000000D+01
-.155448383291D-06 0.000000000000D+00 -.125291663573D-07 0.270044140390D-06 0.000000000000D+00  7 1 -1 23 -13 13 23 21 2 0.16368363D+00 0.14870144D-01 0.51870317D+05 0.51870317D+05 0.51870317D+05 0.11458952D+01  1  2  3  1  7  1        1 -.105362427037D-04 0.100000000000D+01
0.211871166995D-06 0.000000000000D+00 0.000000000000D+00 0.270044140390D-06 0.000000000000D+00  7 1 -1 23 -13 13 23 21 2 0.16368363D+00 0.14870144D-01 0.51870317D+05 0.51870317D+05 0.51870317D+05 0.11458952D+01  1  2 15  1  7  1        1 0.143605613009D-04 0.100000000000D+01
  </mgrwgt>
  </event>
  <event>
  8     66 0.24912036E-05 0.21360239E+03 0.75467711E-02 0.96749981E-01
        1 -1    0    0  501    0 0.00000000E+00 0.00000000E+00 0.10880970E+04 0.10880971E+04 0.32000000E+00 0.0000E+00 0.9000E+01
       -1 -1    0    0    0  501 0.00000000E+00 0.00000000E+00 -.17830119E+03 0.17830148E+03 0.32000000E+00 0.0000E+00 0.9000E+01
       25  2    1    2    0    0 -.20206547E+03 -.27558528E+03 0.25227944E+03 0.51989732E+03 0.29978426E+03 0.0000E+00 0.0000E+00
       23  2    1    2    0    0 0.20206547E+03 0.27558528E+03 0.65751640E+03 0.74650124E+03 0.90324805E+02 0.0000E+00 0.0000E+00
       23  1    3    3    0    0 -.18346403E+02 -.14458333E+02 -.12825775E+02 0.95002030E+02 0.91188000E+02 0.0000E+00 0.9000E+01
      -11  1    4    4    0    0 -.71029356E+01 0.63814387E+01 0.40062350E+02 0.41184540E+02 0.51099893E-03 0.0000E+00 0.9000E+01
       11  1    4    4    0    0 0.20916841E+03 0.26920385E+03 0.61745405E+03 0.70531670E+03 0.51099893E-03 0.0000E+00 0.9000E+01
       23  1    3    3    0    0 -.18371907E+03 -.26112695E+03 0.26510521E+03 0.42489529E+03 0.91188000E+02 0.0000E+00 0.9000E+01
#aMCatNLO 1  0  0  2  1 0.53383440D+02 0.00000000D+00  -5  7  0 0.00000000D+00 0.00000000D+00 0.00000000D+00 0.00000000D+00 0.00000000D+00
  <mgrwgt>
 0.3520873517D-03    9    2    0
 0.440464760920906D+03 0.000000000000000D+00 0.000000000000000D+00 0.440464760920906D+03
 0.440464760920906D+03 0.000000000000000D+00 0.000000000000000D+00 -.440464760920906D+03
 0.149818193863066D+03 -.183464026212366D+02 -.144583329472719D+02 -.116553017925906D+03
 0.178305779867919D+02 -.710293561174136D+01 0.638143865303940D+01 0.150583882854713D+02
 0.376255879820121D+03 0.209168406260296D+03 0.269203845279870D+03 0.159205384985161D+03
 0.337024870171833D+03 -.183719068027318D+03 -.261126950985638D+03 -.577107553447260D+02
 0.000000000000000D+00 0.000000000000000D+00 -.000000000000000D+00 -.000000000000000D+00
 0.463385570167497D+03 0.000000000000000D+00 0.000000000000000D+00 0.463385570167497D+03
 0.473491560649354D+03 0.000000000000000D+00 0.000000000000000D+00 -.473491560649354D+03
 0.150295014387527D+03 -.249303406192329D+02 -.819830072146291D+01 -.116553017925906D+03
 0.184416876756848D+02 -.789868315501238D+01 0.713803831512627D+01 0.150583882854713D+02
 0.379001025136724D+03 0.192599443288688D+03 0.284957675613945D+03 0.159205384985161D+03
 0.334807803725033D+03 -.198457855086205D+03 -.247113258574493D+03 -.577107553447260D+02
 0.543315998918823D+02 0.386874355717621D+02 -.367841546331155D+02 -.101059904818572D+02
0.127578631475D-04 0.000000000000D+00 0.000000000000D+00 0.127300249890D-05 0.000000000000D+00  7 1 -1 23 -11 11 23 21 0 0.16739957D+00 0.27430978D-01 0.15079301D+06 0.15079301D+06 0.15079301D+06 0.11073712D+01  1  2  2  2  7  2       -1 0.231990356229D-03 0.100000000000D+01
-.695089124453D-06 0.000000000000D+00 -.489935537089D-07 0.127300249890D-05 0.000000000000D+00  7 1 -1 23 -11 11 23 21 2 0.16739957D+00 0.27430978D-01 0.15079301D+06 0.15079301D+06 0.15079301D+06 0.11073712D+01  1  2  3  2  7  2       -1 -.154995454212D-04 0.100000000000D+01
0.810214363200D-06 0.000000000000D+00 0.000000000000D+00 0.127300249890D-05 0.000000000000D+00  7 1 -1 23 -11 11 23 21 2 0.16739957D+00 0.27430978D-01 0.15079301D+06 0.15079301D+06 0.15079301D+06 0.11073712D+01  1  2 15  2  7  2       -1 0.180666822160D-04 0.100000000000D+01
0.209044050112D-04 0.000000000000D+00 0.000000000000D+00 0.127300249890D-05 0.000000000000D+00  7 1 -1 23 -11 11 23 21 2 0.16739957D+00 0.30156265D-01 0.17332919D+06 0.17332919D+06 0.17332919D+06 0.11026314D+01  1  2 12  2  7  2       -1 0.393087032633D-03 0.100000000000D+01
-.183022465064D-04 0.000000000000D+00 0.000000000000D+00 0.127300249890D-05 0.000000000000D+00  7 1 -1 23 -11 11 23 21 2 0.16739957D+00 0.27430978D-01 0.15079301D+06 0.15079301D+06 0.15079301D+06 0.11073712D+01  1  2  4  2  7  2       -1 -.408115292061D-03 0.100000000000D+01
-.633418994563D-04 0.000000000000D+00 -.141827316533D-04 0.127300249890D-05 0.000000000000D+00  7 1 -1 23 -11 11 23 21 2 0.16739957D+00 0.30991235D-01 0.15079301D+06 0.15079301D+06 0.15079301D+06 0.11073712D+01  1  2  5  2  7  2       -1 -.115191404717D-02 0.100000000000D+01
0.646952812175D-04 0.000000000000D+00 0.140777806277D-04 0.127300249890D-05 0.000000000000D+00  7 1 -1 23 -11 11 23 21 2 0.16739957D+00 0.27430978D-01 0.15079301D+06 0.15079301D+06 0.15079301D+06 0.11073712D+01  1  2  6  2  7  2       -1 0.144261708965D-02 0.100000000000D+01
0.323935065406D-06 0.000000000000D+00 0.000000000000D+00 0.127300249890D-05 0.000000000000D+00  7 1 21 23 -11 11 23 1 2 0.16739957D+00 0.30156265D-01 0.17332919D+06 0.17332919D+06 0.17332919D+06 0.11026314D+01  1  2 12  4  7  2       -1 0.652861820294D-04 0.100000000000D+01
-.115124423347D-05 0.000000000000D+00 -.272919919075D-06 0.127300249890D-05 0.000000000000D+00  7 1 21 23 -11 11 23 1 2 0.16739957D+00 0.30991235D-01 0.15079301D+06 0.15079301D+06 0.15079301D+06 0.11073712D+01  1  2  5  4  7  2       -1 -.223431106357D-03 0.100000000000D+01
  </mgrwgt>
  </event>
  <event>
  8     66 0.24912036E-05 0.12232543E+03 0.75467711E-02 0.10641517E+00
        1 -1    0    0  501    0 0.00000000E+00 0.00000000E+00 0.77636378E+03 0.77636384E+03 0.32000000E+00 0.0000E+00 0.9000E+01
       -1 -1    0    0    0  501 0.00000000E+00 0.00000000E+00 -.58004352E+02 0.58005235E+02 0.32000000E+00 0.0000E+00 0.9000E+01
       25  2    1    2    0    0 -.29287468E+02 0.34160568E+02 0.44831921E+03 0.54153245E+03 0.30040403E+03 0.0000E+00 0.0000E+00
       23  2    1    2    0    0 0.29287468E+02 -.34160568E+02 0.27004021E+03 0.29283663E+03 0.10395612E+03 0.0000E+00 0.0000E+00
       23  1    3    3    0    0 -.91053286E+02 0.10115133E+03 0.17718700E+03 0.24131469E+03 0.91188000E+02 0.0000E+00 0.9000E+01
      -13  1    4    4    0    0 0.17935643E+02 0.26006181E+02 0.18707875E+03 0.18972738E+03 0.10565837E+00 0.0000E+00 0.9000E+01
       13  1    4    4    0    0 0.11351825E+02 -.60166749E+02 0.82961461E+02 0.10310925E+03 0.10565837E+00 0.0000E+00 0.9000E+01
       23  1    3    3    0    0 0.61765818E+02 -.66990765E+02 0.27113221E+03 0.30021777E+03 0.91188000E+02 0.0000E+00 0.9000E+01
#aMCatNLO 1  0  0  1  2 0.12078568D+02 0.00000000D+00  -5  7  0 0.00000000D+00 0.00000000D+00 0.00000000D+00 0.00000000D+00 0.00000000D+00
  <mgrwgt>
 0.2039508409D-03    9    2    0
 0.212209504626274D+03 0.000000000000000D+00 0.000000000000000D+00 0.212209504626274D+03
 0.212209504626274D+03 0.000000000000000D+00 0.000000000000000D+00 -.212209504626274D+03
 0.174501799261525D+03 -.910537447884616D+02 0.101151871903643D+03 -.601094083475817D+02
 0.563424239938589D+02 0.179360377711882D+02 0.260052840453854D+02 0.466528937183226D+02
 0.622852018940234D+02 0.113523432055684D+02 -.601669160711790D+02 -.114242237900851D+02
 0.131289584103141D+03 0.617653638117049D+02 -.669902398778489D+02 0.248807384193442D+02
 0.000000000000000D+00 0.000000000000000D+00 -.000000000000000D+00 0.000000000000000D+00
 0.218861084732864D+03 0.000000000000000D+00 0.000000000000000D+00 0.218861084732864D+03
 0.217850530441150D+03 0.000000000000000D+00 0.000000000000000D+00 -.217850530441150D+03
 0.177235233928189D+03 -.960562069295943D+02 0.101277544105208D+03 -.601094083475817D+02
 0.558735405278097D+02 0.163400838022253D+02 0.260453777119078D+02 0.466528937183226D+02
 0.619444417812830D+02 0.958552870879367D+01 -.601225300346027D+02 -.114242237900851D+02
 0.129537630602303D+03 0.580558361139566D+02 -.668970488652249D+02 0.248807384193442D+02
 0.121207683344304D+02 0.120747583046187D+02 -.303342917288462D+00 0.101055429171391D+01
0.382766140361D-06 0.000000000000D+00 0.000000000000D+00 0.103601202142D-08 0.000000000000D+00  7 1 -1 23 -13 13 23 21 0 0.11944065D+00 0.89238195D-02 0.37162590D+05 0.37162590D+05 0.37162590D+05 0.11588057D+01  1  2  2  1  7  1        1 0.724977720680D-04 0.100000000000D+01
-.210262831949D-07 0.000000000000D+00 -.146992276363D-08 0.103601202142D-08 0.000000000000D+00  7 1 -1 23 -13 13 23 21 2 0.11944065D+00 0.89238195D-02 0.37162590D+05 0.37162590D+05 0.37162590D+05 0.11588057D+01  1  2  3  1  7  1        1 -.534779694737D-05 0.100000000000D+01
0.249264592429D-07 0.000000000000D+00 0.000000000000D+00 0.103601202142D-08 0.000000000000D+00  7 1 -1 23 -13 13 23 21 2 0.11944065D+00 0.89238195D-02 0.37162590D+05 0.37162590D+05 0.37162590D+05 0.11588057D+01  1  2 15  1  7  1        1 0.633976254444D-05 0.100000000000D+01
0.804775780901D-06 0.000000000000D+00 0.000000000000D+00 0.103601202142D-08 0.000000000000D+00  7 1 -1 23 -13 13 23 21 2 0.12472635D+00 0.89238195D-02 0.39514230D+05 0.39514230D+05 0.39514230D+05 0.11563963D+01  1  2 12  1  7  1        1 0.190728280867D-03 0.100000000000D+01
-.653238139358D-06 0.000000000000D+00 0.000000000000D+00 0.103601202142D-08 0.000000000000D+00  7 1 -1 23 -13 13 23 21 2 0.11944065D+00 0.89238195D-02 0.37162590D+05 0.37162590D+05 0.37162590D+05 0.11588057D+01  1  2  4  1  7  1        1 -.166143720941D-03 0.100000000000D+01
-.585941321805D-05 0.000000000000D+00 -.952095427959D-06 0.103601202142D-08 0.000000000000D+00  7 1 -1 23 -13 13 23 21 2 0.12568727D+00 0.89238195D-02 0.37162590D+05 0.37162590D+05 0.37162590D+05 0.11588057D+01  1  2  5  1  7  1        1 -.137739182042D-02 0.100000000000D+01
0.590151443872D-05 0.000000000000D+00 0.950859670995D-06 0.103601202142D-08 0.000000000000D+00  7 1 -1 23 -13 13 23 21 2 0.11944065D+00 0.89238195D-02 0.37162590D+05 0.37162590D+05 0.37162590D+05 0.11588057D+01  1  2  6  1  7  1        1 0.150098334582D-02 0.100000000000D+01
0.100711699280D-07 0.000000000000D+00 0.000000000000D+00 0.103601202142D-08 0.000000000000D+00  7 21 -1 23 -13 13 23 -1 2 0.12472635D+00 0.89238195D-02 0.39514230D+05 0.39514230D+05 0.39514230D+05 0.11563963D+01  1  2 12  3  7  1        1 0.442876266331D-05 0.100000000000D+01
-.510929645394D-07 0.000000000000D+00 -.844342343525D-08 0.103601202142D-08 0.000000000000D+00  7 21 -1 23 -13 13 23 -1 2 0.12568727D+00 0.89238195D-02 0.37162590D+05 0.37162590D+05 0.37162590D+05 0.11588057D+01  1  2  5  3  7  1        1 -.221437447230D-04 0.100000000000D+01
  </mgrwgt>
  </event>
  <event>
  8     66 0.24912036E-05 0.86301467E+03 0.75467711E-02 0.85508359E-01
        1 -1    0    0  501    0 0.00000000E+00 0.00000000E+00 0.20874082E+04 0.20874082E+04 0.32000000E+00 0.0000E+00 0.9000E+01
       -1 -1    0    0    0  501 0.00000000E+00 0.00000000E+00 -.69357323E+03 0.69357331E+03 0.32000000E+00 0.0000E+00 0.9000E+01
       25  2    1    2    0    0 0.53542214E+03 -.10467673E+04 0.56072566E+03 0.13370017E+04 0.30126679E+03 0.0000E+00 0.0000E+00
       23  2    1    2    0    0 -.53542214E+03 0.10467673E+04 0.83310933E+03 0.14439798E+04 0.92778469E+02 0.0000E+00 0.0000E+00
       23  1    3    3    0    0 0.15222353E+03 -.43933285E+03 0.11762850E+03 0.48819778E+03 0.91188000E+02 0.0000E+00 0.9000E+01
      -11  1    4    4    0    0 -.36945735E+03 0.71287206E+03 0.51535656E+03 0.95408474E+03 0.51099893E-03 0.0000E+00 0.9000E+01
       11  1    4    4    0    0 -.16596479E+03 0.33389526E+03 0.31775277E+03 0.48989507E+03 0.51099893E-03 0.0000E+00 0.9000E+01
       23  1    3    3    0    0 0.38319861E+03 -.60743448E+03 0.44309716E+03 0.84880396E+03 0.91188000E+02 0.0000E+00 0.9000E+01
#aMCatNLO 1  0  0  2  1 0.63673676D+02 0.00000000D+00  -5  7  0 0.00000000D+00 0.00000000D+00 0.00000000D+00 0.00000000D+00 0.00000000D+00
  <mgrwgt>
 0.1970562954D-03    9    2    0
 0.120323339427261D+04 0.000000000000000D+00 0.000000000000000D+00 0.120323339427261D+04
 0.120323339427261D+04 0.000000000000000D+00 0.000000000000000D+00 -.120323339427261D+04
 0.496044366883372D+03 0.152223529541811D+03 -.439332849284086D+03 -.146831219999308D+03
 0.804070959163690D+03 -.369457348906784D+03 0.712872062809681D+03 0.429510974790705D+02
 0.382093046197751D+03 -.165964790398796D+03 0.333895262247883D+03 0.834550067340311D+02
 0.724258416300402D+03 0.383198609763769D+03 -.607434475773479D+03 0.204251157862065D+02
 0.000000000000000D+00 -.000000000000000D+00 0.000000000000000D+00 -.000000000000000D+00
 0.121052402002630D+04 0.000000000000000D+00 0.000000000000000D+00 0.121052402002630D+04
 0.135120282335253D+04 0.000000000000000D+00 0.000000000000000D+00 -.135120282335253D+04
 0.505754006287779D+03 0.163497021111968D+03 -.446297188488978D+03 -.146831219999308D+03
 0.786122449537791D+03 -.351562498537674D+03 0.701817297104159D+03 0.429510974790705D+02
 0.373847649524801D+03 -.157457997725745D+03 0.328640085592796D+03 0.834550067340311D+02
 0.741584919542718D+03 0.399694117175594D+03 -.617624780015765D+03 0.204251157862065D+02
 0.154417818485737D+03 -.541706420241429D+02 0.334645858077873D+02 -.140678803326228D+03
0.521965116976D-03 0.000000000000D+00 0.000000000000D+00 0.940865647773D-06 0.000000000000D+00  7 1 -1 23 -11 11 23 21 0 0.32113973D+00 0.10670358D+00 0.14084658D+07 0.14084658D+07 0.14084658D+07 0.10381036D+01  1  2  2  2  7  2       -1 0.132342281903D-03 0.100000000000D+01
-.289913846382D-04 0.000000000000D+00 -.200448348576D-05 0.940865647773D-06 0.000000000000D+00  7 1 -1 23 -11 11 23 21 2 0.32113973D+00 0.10670358D+00 0.14084658D+07 0.14084658D+07 0.14084658D+07 0.10381036D+01  1  2  3  2  7  2       -1 -.792150165930D-05 0.100000000000D+01
0.321380192536D-04 0.000000000000D+00 0.000000000000D+00 0.940865647773D-06 0.000000000000D+00  7 1 -1 23 -11 11 23 21 2 0.32113973D+00 0.10670358D+00 0.14084658D+07 0.14084658D+07 0.14084658D+07 0.10381036D+01  1  2 15  2  7  2       -1 0.878127678346D-05 0.100000000000D+01
0.565242979449D-02 0.000000000000D+00 0.000000000000D+00 0.940865647773D-06 0.000000000000D+00  7 1 -1 23 -11 11 23 21 2 0.32113973D+00 0.12012478D+00 0.14863388D+07 0.14863388D+07 0.14863388D+07 0.10365953D+01  1  2 12  2  7  2       -1 0.114984226367D-02 0.100000000000D+01
-.570808661025D-02 0.000000000000D+00 0.000000000000D+00 0.940865647773D-06 0.000000000000D+00  7 1 -1 23 -11 11 23 21 2 0.32113973D+00 0.10670358D+00 0.14084658D+07 0.14084658D+07 0.14084658D+07 0.10381036D+01  1  2  4  2  7  2       -1 -.155965705394D-02 0.100000000000D+01
-.745837909446D-02 0.000000000000D+00 -.546294931347D-03 0.940865647773D-06 0.000000000000D+00  7 1 -1 23 -11 11 23 21 2 0.32113973D+00 0.12016618D+00 0.14084658D+07 0.14084658D+07 0.14084658D+07 0.10381036D+01  1  2  5  2  7  2       -1 -.152667177810D-02 0.100000000000D+01
0.747429948734D-02 0.000000000000D+00 0.542461078992D-03 0.940865647773D-06 0.000000000000D+00  7 1 -1 23 -11 11 23 21 2 0.32113973D+00 0.10670358D+00 0.14084658D+07 0.14084658D+07 0.14084658D+07 0.10381036D+01  1  2  6  2  7  2       -1 0.204225070758D-02 0.100000000000D+01
0.106100523409D-03 0.000000000000D+00 0.000000000000D+00 0.940865647773D-06 0.000000000000D+00  7 1 21 23 -11 11 23 1 2 0.32113973D+00 0.12012478D+00 0.14863388D+07 0.14863388D+07 0.14863388D+07 0.10365953D+01  1  2 12  4  7  2       -1 0.135587628090D-03 0.100000000000D+01
-.137861472282D-03 0.000000000000D+00 -.102795044473D-04 0.940865647773D-06 0.000000000000D+00  7 1 21 23 -11 11 23 1 2 0.32113973D+00 0.12016618D+00 0.14084658D+07 0.14084658D+07 0.14084658D+07 0.10381036D+01  1  2  5  4  7  2       -1 -.177497528910D-03 0.100000000000D+01
  </mgrwgt>
  </event>
  <event>
  8     66 0.24912036E-05 0.25232766E+03 0.75467711E-02 0.10033279E+00
        1 -1    0    0  501    0 0.00000000E+00 0.00000000E+00 0.52182220E+03 0.52182229E+03 0.32000000E+00 0.0000E+00 0.9000E+01
       -1 -1    0    0    0  501 0.00000000E+00 0.00000000E+00 -.20503746E+03 0.20503771E+03 0.32000000E+00 0.0000E+00 0.9000E+01
       25  2    1    2    0    0 0.18248921E+03 -.10002387E+03 0.33931364E+03 0.49850774E+03 0.30011520E+03 0.0000E+00 0.0000E+00
       23  2    1    2    0    0 -.18248921E+03 0.10002387E+03 -.22528901E+02 0.22835226E+03 0.91269485E+02 0.0000E+00 0.0000E+00
       23  1    3    3    0    0 0.15140642E+03 -.48703214E+02 0.51108995E+02 0.19032416E+03 0.91188000E+02 0.0000E+00 0.9000E+01
      -11  1    4    4    0    0 -.13314431E+03 0.50914330E+02 -.53367657E+02 0.15220967E+03 0.51099893E-03 0.0000E+00 0.9000E+01
       11  1    4    4    0    0 -.49344895E+02 0.49109536E+02 0.30838756E+02 0.76142590E+02 0.51099893E-03 0.0000E+00 0.9000E+01
       23  1    3    3    0    0 0.31082793E+02 -.51320651E+02 0.28820465E+03 0.30818358E+03 0.91188000E+02 0.0000E+00 0.9000E+01
#aMCatNLO 1  0  0  1  2 0.11037067D+03 0.00000000D+00  -5  7  0 0.00000000D+00 0.00000000D+00 0.00000000D+00 0.00000000D+00 0.00000000D+00
  <mgrwgt>
 0.1807811062D-03    4    2    0
 0.327098184996413D+03 0.000000000000000D+00 0.000000000000000D+00 0.327098184996413D+03
 0.327098184996413D+03 0.000000000000000D+00 0.000000000000000D+00 -.327098184996413D+03
 0.186715298739827D+03 0.151406415524910D+03 -.487032144275958D+02 -.353757781797165D+02
 0.194958558193093D+03 -.133144313564088D+03 0.509143300550379D+02 -.133000609672754D+03
 0.696667817914132D+02 -.493448945919482D+02 0.491095358244024D+02 -.260678997881330D+01
 0.202855731268494D+03 0.310827926311256D+02 -.513206514518444D+02 0.170983177831283D+03
 0.000000000000000D+00 -.000000000000000D+00 -.000000000000000D+00 -.000000000000000D+00
 0.356152385998697D+03 0.000000000000000D+00 0.000000000000000D+00 0.356152385998697D+03
 0.456371376769049D+03 0.000000000000000D+00 0.000000000000000D+00 -.456371376769049D+03
 0.185831877340211D+03 0.156980336392424D+03 -.179989887518190D+02 -.353757781797165D+02
 0.202153155362980D+03 -.127202866657378D+03 0.836430915499327D+02 -.133000609672754D+03
 0.773164374455345D+02 -.471457829478887D+02 0.612234538024945D+02 -.260678997881330D+01
 0.198139993883382D+03 0.370823507642075D+02 -.182717813204551D+02 0.170983177831283D+03
 0.149082298735638D+03 -.197140375513644D+02 -.108595775280153D+03 -.100218990770352D+03
0.472565805502D-05 0.000000000000D+00 0.000000000000D+00 0.102310734575D-05 0.000000000000D+00  7 1 -1 23 -11 11 23 21 0 0.80280365D-01 0.31544251D-01 0.63669250D+05 0.63669250D+05 0.63669250D+05 0.11381760D+01  1  2  2  1  7  1        1 0.217574652547D-03 0.100000000000D+01
-.241035851854D-06 0.000000000000D+00 -.181477712256D-07 0.102310734575D-05 0.000000000000D+00  7 1 -1 23 -11 11 23 21 2 0.80280365D-01 0.31544251D-01 0.63669250D+05 0.63669250D+05 0.63669250D+05 0.11381760D+01  1  2  3  1  7  1        1 -.143762802416D-04 0.100000000000D+01
0.297014310890D-06 0.000000000000D+00 0.000000000000D+00 0.102310734575D-05 0.000000000000D+00  7 1 -1 23 -11 11 23 21 2 0.80280365D-01 0.31544251D-01 0.63669250D+05 0.63669250D+05 0.63669250D+05 0.11381760D+01  1  2 15  1  7  1        1 0.177150450287D-04 0.100000000000D+01
-.672867086322D-06 0.000000000000D+00 0.000000000000D+00 0.102310734575D-05 0.000000000000D+00  7 1 -1 23 -11 11 23 21 2 0.80280365D-01 0.31544251D-01 0.63669250D+05 0.63669250D+05 0.63669250D+05 0.11381760D+01  1  2  4  1  7  1        1 -.401323111226D-04 0.100000000000D+01
  </mgrwgt>
  </event>
  <event>
  7     66 0.24912036E-05 0.54777959E+03 0.75467711E-02 0.86674862E-01
        1 -1    0    0  501    0 0.00000000E+00 0.00000000E+00 0.22437201E+04 0.22437202E+04 0.32000000E+00 0.0000E+00 0.9000E+01
       -1 -1    0    0    0  501 0.00000000E+00 0.00000000E+00 -.14930543E+03 0.14930577E+03 0.32000000E+00 0.0000E+00 0.9000E+01
       23  2    1    2    0    0 -.36535195E+03 0.34189877E+03 0.13323273E+04 0.14250953E+04 0.73647267E+02 0.0000E+00 0.0000E+00
       23  1    1    2    0    0 0.24238602E+02 -.17945665E+03 0.32475463E+03 0.38284856E+03 0.91188000E+02 0.0000E+00 0.9000E+01
      -13  1    3    3    0    0 -.48923002E+02 0.78189460E+02 0.20224978E+03 0.22228818E+03 0.10565837E+00 0.0000E+00 0.9000E+01
       13  1    3    3    0    0 -.31642895E+03 0.26370931E+03 0.11300775E+04 0.12028072E+04 0.10565837E+00 0.0000E+00 0.9000E+01
       23  1    1    2    0    0 0.34111335E+03 -.16244212E+03 0.43733280E+03 0.58508204E+03 0.91188000E+02 0.0000E+00 0.9000E+01
#aMCatNLO 1  0  0  2  2 0.80031969D+03 0.00000000D+00  -5  7  0 0.00000000D+00 0.00000000D+00 0.00000000D+00 0.00000000D+00 0.00000000D+00
  <mgrwgt>
 0.8339442858D-03    5    2    0
 0.578791873595756D+03 0.000000000000000D+00 0.000000000000000D+00 0.578791873595756D+03
 0.578791873595756D+03 0.000000000000000D+00 0.000000000000000D+00 -.578791873595756D+03
 0.203869188898006D+03 0.242386017335936D+02 -.179456651159316D+03 -.213353082615338D+02
 0.935963745442676D+02 -.489224511204940D+02 0.781890777769946D+02 0.159167591103461D+02
 0.441867466855509D+03 -.316429499682402D+03 0.263709690505575D+03 0.159926324066749D+03
 0.418250716893730D+03 0.341113349069303D+03 -.162442117123254D+03 -.154507774915562D+03
 0.000000000000000D+00 0.000000000000000D+00 0.000000000000000D+00 -.000000000000000D+00
 0.108503514109381D+04 0.000000000000000D+00 0.000000000000000D+00 0.108503514109381D+04
 0.112351566222928D+04 0.000000000000000D+00 0.000000000000000D+00 -.112351566222928D+04
 0.315059897390816D+03 -.995076716364557D+02 -.283884686988904D+03 -.213353082615338D+02
 0.104773447544146D+03 -.962266529490622D+02 0.382696139506245D+02 0.159167591103461D+02
 0.586798344410345D+03 -.561729992660512D+03 0.567034674322454D+02 0.159926324066749D+03
 0.400674862707047D+03 0.145828499326652D+03 -.327240722612712D+03 -.154507774915562D+03
 0.801244251270732D+03 0.611635817919378D+03 0.516152328218745D+03 -.384805211354712D+02
0.194435190445D-03 0.000000000000D+00 0.000000000000D+00 0.654195748459D-11 0.000000000000D+00  7 1 -1 23 -13 13 23 21 0 0.34518774D+00 0.22970094D-01 0.30006248D+06 0.30006248D+06 0.30006248D+06 0.10845452D+01  1  2  2  2  7  2       -1 0.765984324254D-03 0.100000000000D+01
-.107621247371D-04 0.000000000000D+00 -.746682327268D-06 0.654195748459D-11 0.000000000000D+00  7 1 -1 23 -13 13 23 21 2 0.34518774D+00 0.22970094D-01 0.30006248D+06 0.30006248D+06 0.30006248D+06 0.10845452D+01  1  2  3  2  7  2       -1 -.498698804452D-04 0.100000000000D+01
0.123732450392D-04 0.000000000000D+00 0.000000000000D+00 0.654195748459D-11 0.000000000000D+00  7 1 -1 23 -13 13 23 21 2 0.34518774D+00 0.22970094D-01 0.30006248D+06 0.30006248D+06 0.30006248D+06 0.10845452D+01  1  2 15  2  7  2       -1 0.573355416236D-04 0.100000000000D+01
0.123864199500D-03 0.000000000000D+00 -.802664100085D-04 0.654195748459D-11 0.000000000000D+00  7 1 -1 23 -13 13 23 21 2 0.34518774D+00 0.11441440D+00 0.30006248D+06 0.30006248D+06 0.30006248D+06 0.10845452D+01  1  2  5  2  7  2       -1 0.277218381405D-04 0.100000000000D+01
0.220120113957D-04 0.000000000000D+00 -.157038187245D-04 0.654195748459D-11 0.000000000000D+00  7 1 21 23 -13 13 23 1 2 0.34518774D+00 0.11441440D+00 0.30006248D+06 0.30006248D+06 0.30006248D+06 0.10845452D+01  1  2  5  4  7  2       -1 0.327724622061D-04 0.100000000000D+01
  </mgrwgt>
  </event>
  <event>
  8     66 0.24912036E-05 0.17097800E+03 0.75467711E-02 0.96322662E-01
        1 -1    0    0  501    0 0.00000000E+00 0.00000000E+00 0.40655549E+03 0.40655562E+03 0.32000000E+00 0.0000E+00 0.9000E+01
       -1 -1    0    0    0  501 0.00000000E+00 0.00000000E+00 -.29651465E+03 0.29651482E+03 0.32000000E+00 0.0000E+00 0.9000E+01
       25  2    1    2    0    0 0.24732665E+03 0.10770701E+03 0.90133160E+01 0.40067896E+03 0.29612686E+03 0.0000E+00 0.0000E+00
       23  2    1    2    0    0 -.24732665E+03 -.10770701E+03 0.10102752E+03 0.30239148E+03 0.91993340E+02 0.0000E+00 0.0000E+00
       23  1    3    3    0    0 0.19803307E+03 -.21722831E+02 -.49886597E+02 0.22470626E+03 0.91188000E+02 0.0000E+00 0.9000E+01
      -13  1    4    4    0    0 -.21950618E+03 -.11297353E+03 0.62647784E+02 0.25469735E+03 0.10565837E+00 0.0000E+00 0.9000E+01
       13  1    4    4    0    0 -.27820464E+02 0.52665205E+01 0.38379738E+02 0.47694128E+02 0.10565837E+00 0.0000E+00 0.9000E+01
       23  1    3    3    0    0 0.49293575E+02 0.12942984E+03 0.58899913E+02 0.17597270E+03 0.91188000E+02 0.0000E+00 0.9000E+01
#aMCatNLO 1  0  0  2  1 0.18025047D+03 0.00000000D+00  -5  7  0 0.00000000D+00 0.00000000D+00 0.00000000D+00 0.00000000D+00 0.00000000D+00
  <mgrwgt>
 0.4625296813D-03    9    2    0
 0.347202770792849D+03 0.000000000000000D+00 0.000000000000000D+00 0.347202770792849D+03
 0.347202770792849D+03 0.000000000000000D+00 0.000000000000000D+00 -.347202770792849D+03
 0.235415591204770D+03 0.198033071737583D+03 -.217228309951384D+02 -.861177702337071D+02
 0.247948123103580D+03 -.219506435700904D+03 -.112973689111694D+03 0.230682033320255D+02
 0.422070431020484D+02 -.278202110872878D+02 0.526667602538901D+01 0.313006783651810D+02
 0.168834784175299D+03 0.492935750506085D+02 0.129429844081443D+03 0.317488885365007D+02
 0.000000000000000D+00 0.000000000000000D+00 0.000000000000000D+00 -.000000000000000D+00
 0.398312034659859D+03 0.000000000000000D+00 0.000000000000000D+00 0.398312034659859D+03
 0.563809882479763D+03 0.000000000000000D+00 0.000000000000000D+00 -.563809882479763D+03
 0.216384346817922D+03 0.162904427844978D+03 -.674745229126809D+02 -.861177702337071D+02
 0.314125063919331D+03 -.263209117279222D+03 -.169892243373408D+03 0.230682033320255D+02
 0.469193433138959D+02 -.347500241004166D+02 -.375874126632678D+01 0.313006783651810D+02
 0.139989733876298D+03 0.252816494017938D+02 0.981566122427739D+02 0.317488885365007D+02
 0.244703429212175D+03 0.109773064132867D+03 0.142968895309642D+03 -.165497847819904D+03
0.131224923546D-04 0.000000000000D+00 0.000000000000D+00 0.109561802143D-07 0.000000000000D+00  7 1 -1 23 -13 13 23 21 0 0.62547021D-01 0.45617662D-01 0.10893581D+06 0.10893581D+06 0.10893581D+06 0.11186845D+01  1  2  2  2  7  2       -1 0.447590013407D-03 0.100000000000D+01
-.726753211670D-06 0.000000000000D+00 -.503938258731D-07 0.109561802143D-07 0.000000000000D+00  7 1 -1 23 -13 13 23 21 2 0.62547021D-01 0.45617662D-01 0.10893581D+06 0.10893581D+06 0.10893581D+06 0.11186845D+01  1  2  3  2  7  2       -1 -.310217457962D-04 0.100000000000D+01
0.826452787922D-06 0.000000000000D+00 0.000000000000D+00 0.109561802143D-07 0.000000000000D+00  7 1 -1 23 -13 13 23 21 2 0.62547021D-01 0.45617662D-01 0.10893581D+06 0.10893581D+06 0.10893581D+06 0.11186845D+01  1  2 15  2  7  2       -1 0.352774613002D-04 0.100000000000D+01
0.514961571475D-05 0.000000000000D+00 0.000000000000D+00 0.109561802143D-07 0.000000000000D+00  7 1 -1 23 -13 13 23 21 2 0.62547021D-01 0.75702045D-01 0.18633523D+06 0.18633523D+06 0.18633523D+06 0.11001937D+01  1  2 12  2  7  2       -1 0.815160400032D-04 0.100000000000D+01
-.951167316340D-05 0.000000000000D+00 0.000000000000D+00 0.109561802143D-07 0.000000000000D+00  7 1 -1 23 -13 13 23 21 2 0.62547021D-01 0.45617662D-01 0.10893581D+06 0.10893581D+06 0.10893581D+06 0.11186845D+01  1  2  4  2  7  2       -1 -.406009498456D-03 0.100000000000D+01
-.104185108213D-04 0.000000000000D+00 -.432052447409D-05 0.109561802143D-07 0.000000000000D+00  7 1 -1 23 -13 13 23 21 2 0.62547021D-01 0.82250383D-01 0.10893581D+06 0.10893581D+06 0.10893581D+06 0.11186845D+01  1  2  5  2  7  2       -1 -.146390770486D-03 0.100000000000D+01
0.115544930284D-04 0.000000000000D+00 0.366509922530D-05 0.109561802143D-07 0.000000000000D+00  7 1 -1 23 -13 13 23 21 2 0.62547021D-01 0.45617662D-01 0.10893581D+06 0.10893581D+06 0.10893581D+06 0.11186845D+01  1  2  6  2  7  2       -1 0.493208065371D-03 0.100000000000D+01
0.293349868254D-06 0.000000000000D+00 0.000000000000D+00 0.109561802143D-07 0.000000000000D+00  7 1 21 23 -13 13 23 1 2 0.62547021D-01 0.75702045D-01 0.18633523D+06 0.18633523D+06 0.18633523D+06 0.11001937D+01  1  2 12  4  7  2       -1 0.363294832213D-04 0.100000000000D+01
-.443032568172D-06 0.000000000000D+00 -.279219019923D-06 0.109561802143D-07 0.000000000000D+00  7 1 21 23 -13 13 23 1 2 0.62547021D-01 0.82250383D-01 0.10893581D+06 0.10893581D+06 0.10893581D+06 0.11186845D+01  1  2  5  4  7  2       -1 -.479693672273D-04 0.100000000000D+01
  </mgrwgt>
  </event>
  <event>
  9     66 0.24912036E-05 0.41606840E+03 0.75467711E-02 0.96560393E-01
        1 -1    0    0  502    0 0.00000000E+00 0.00000000E+00 0.66972605E+03 0.66972612E+03 0.32000000E+00 0.0000E+00 0.9000E+01
       -1 -1    0    0    0  501 0.00000000E+00 0.00000000E+00 -.28562953E+03 0.28562971E+03 0.32000000E+00 0.0000E+00 0.9000E+01
       25  2    1    2    0    0 -.28176765E+03 -.25066407E+03 0.22081099E+03 0.52970462E+03 0.29933927E+03 0.0000E+00 0.0000E+00
       23  2    1    2    0    0 0.27517044E+03 0.23880370E+03 0.16742383E+03 0.41144278E+03 0.92241211E+02 0.0000E+00 0.0000E+00
       23  1    3    3    0    0 -.16880988E+03 -.32200479E+02 0.17847242E+03 0.26401005E+03 0.91188000E+02 0.0000E+00 0.9000E+01
      -13  1    4    4    0    0 0.95398165E+02 0.29692808E+02 0.39214677E+02 0.10733254E+03 0.10565837E+00 0.0000E+00 0.9000E+01
       13  1    4    4    0    0 0.17977228E+03 0.20911089E+03 0.12820915E+03 0.30411024E+03 0.10565837E+00 0.0000E+00 0.9000E+01
       23  1    3    3    0    0 -.11295777E+03 -.21846359E+03 0.42338567E+02 0.26569457E+03 0.91188000E+02 0.0000E+00 0.9000E+01
       21  1    1    2  502  501 0.65972065E+01 0.11860373E+02 -.41382979E+01 0.14208434E+02 0.75000000E+00 0.0000E+00 0.9000E+01
#aMCatNLO 2  0  0  1  1 0.13571720D+02 0.00000000D+00  -5  7  0 0.00000000D+00 0.00000000D+00 0.00000000D+00 0.00000000D+00 0.00000000D+00
  <mgrwgt>
 0.2267618837D-04    2    2    0
 0.428616364837438D+03 0.000000000000000D+00 0.000000000000000D+00 0.428616364837438D+03
 0.428616364837438D+03 0.000000000000000D+00 0.000000000000000D+00 -.428616364837438D+03
 0.207280437326907D+03 -.167208154542505D+03 -.293209115833257D+02 0.763652116663492D+02
 0.101224049018321D+03 0.961725648390656D+02 0.310849782468672D+02 -.555607769302672D+01
 0.280091532155618D+03 0.181911232901911D+03 0.212956310713613D+03 0.302976181160045D+01
 0.268636711174030D+03 -.110875643198472D+03 -.214720377377155D+03 -.738388957849229D+02
 0.000000000000000D+00 0.000000000000000D+00 0.000000000000000D+00 -.000000000000000D+00
 0.431909260502106D+03 0.000000000000000D+00 0.000000000000000D+00 0.431909260502106D+03
 0.442885979775600D+03 0.000000000000000D+00 0.000000000000000D+00 -.442885979775600D+03
 0.208998910198056D+03 -.168809883357003D+03 -.322004790045737D+02 0.763652116663492D+02
 0.100066515650281D+03 0.953980539260616D+02 0.296925725085797D+02 -.555607769302672D+01
 0.275780266806833D+03 0.179772390600801D+03 0.209111127587908D+03 0.302976181160045D+01
 0.272494464108932D+03 -.112957767620515D+03 -.218463593830796D+03 -.738388957849229D+02
 0.174550835136038D+02 0.659720645065600D+01 0.118603727388825D+02 -.109767192734932D+02
-.292756911474D-05 0.000000000000D+00 0.000000000000D+00 0.110616496212D-06 0.000000000000D+00  7 1 -1 23 -13 13 23 21 2 0.10224736D+00 0.42526407D-01 0.17311291D+06 0.17311291D+06 0.17311291D+06 0.11026737D+01  1  2  8  1  7  1        1 -.683540070109D-04 0.100000000000D+01
0.419006058413D-05 0.000000000000D+00 0.000000000000D+00 0.110616496212D-06 0.389047141160D-08  7 1 -1 23 -13 13 23 21 2 0.10303288D+00 0.43942208D-01 0.17896917D+06 0.17896917D+06 0.17896917D+06 0.11015506D+01  1  2  1  1  7  1        1 0.910301953844D-04 0.100000000000D+01
  </mgrwgt>
  </event>
  <event>
  8     66 0.24912036E-05 0.31275122E+03 0.75467711E-02 0.96116923E-01
        1 -1    0    0  501    0 0.00000000E+00 0.00000000E+00 0.85397242E+03 0.85397248E+03 0.32000000E+00 0.0000E+00 0.9000E+01
       -1 -1    0    0    0  501 0.00000000E+00 0.00000000E+00 -.17183842E+03 0.17183871E+03 0.32000000E+00 0.0000E+00 0.9000E+01
       25  2    1    2    0    0 0.24763948E+03 0.10139616E+03 0.61396089E+03 0.73488145E+03 0.30248351E+03 0.0000E+00 0.0000E+00
       23  2    1    2    0    0 -.24763948E+03 -.10139616E+03 0.68173112E+02 0.29092975E+03 0.91575369E+02 0.0000E+00 0.0000E+00
       23  1    3    3    0    0 0.17378575E+03 0.11616784E+03 0.19665427E+03 0.30113885E+03 0.91188000E+02 0.0000E+00 0.9000E+01
      -11  1    4    4    0    0 -.18350915E+03 -.11078587E+03 0.71669778E+02 0.22602140E+03 0.51099893E-03 0.0000E+00 0.9000E+01
       11  1    4    4    0    0 -.64130333E+02 0.93897101E+01 -.34966656E+01 0.64908342E+02 0.51099893E-03 0.0000E+00 0.9000E+01
       23  1    3    3    0    0 0.73853733E+02 -.14771677E+02 0.41730662E+03 0.43374260E+03 0.91188000E+02 0.0000E+00 0.9000E+01
#aMCatNLO 1  0  0  2  1 0.22254822D+03 0.00000000D+00  -5  7  0 0.00000000D+00 0.00000000D+00 0.00000000D+00 0.00000000D+00 0.00000000D+00
  <mgrwgt>
 0.1796513037D-03    4    2    0
 0.383073689718146D+03 0.000000000000000D+00 0.000000000000000D+00 0.383073689718146D+03
 0.383073689718146D+03 0.000000000000000D+00 0.000000000000000D+00 -.383073689718146D+03
 0.228111513466905D+03 0.173785751651795D+03 0.116167835322809D+03 -.481225429450748D+01
 0.238814224701020D+03 -.183509151744110D+03 -.110785868848881D+03 -.105276381060071D+03
 0.900204063452183D+02 -.641303326738851D+02 0.938971006447402D+01 -.624724526059299D+02
 0.209201234923149D+03 0.738537327661994D+02 -.147716765384024D+02 0.172561087960508D+03
 0.000000000000000D+00 0.000000000000000D+00 -.000000000000000D+00 0.000000000000000D+00
 0.531335444300908D+03 0.000000000000000D+00 0.000000000000000D+00 0.531335444300908D+03
 0.492407257599209D+03 0.000000000000000D+00 0.000000000000000D+00 -.492407257599209D+03
 0.199083518803984D+03 0.115635117003948D+03 0.133881880922940D+03 -.481225429450748D+01
 0.290299626910626D+03 -.255533178120600D+03 -.888456631182906D+02 -.105276381060071D+03
 0.112356052508766D+03 -.916782174364606D+02 0.177814411234139D+02 -.624724526059299D+02
 0.196076268474987D+03 0.186865555969841D+02 0.203353802071579D+01 0.172561087960508D+03
 0.225927235201754D+03 0.212889722956129D+03 -.648511969487793D+02 0.389281867016993D+02
0.852231869058D-05 0.000000000000D+00 0.000000000000D+00 0.387704001684D-07 0.000000000000D+00  7 1 -1 23 -11 11 23 21 0 0.13138040D+00 0.26436707D-01 0.97813325D+05 0.97813325D+05 0.97813325D+05 0.11225108D+01  1  2  2  2  7  2       -1 0.251830277713D-03 0.100000000000D+01
-.449781945552D-06 0.000000000000D+00 -.327279477499D-07 0.387704001684D-07 0.000000000000D+00  7 1 -1 23 -11 11 23 21 2 0.13138040D+00 0.26436707D-01 0.97813325D+05 0.97813325D+05 0.97813325D+05 0.11225108D+01  1  2  3  2  7  2       -1 -.167468560555D-04 0.100000000000D+01
0.523379136530D-06 0.000000000000D+00 0.000000000000D+00 0.387704001684D-07 0.000000000000D+00  7 1 -1 23 -11 11 23 21 2 0.13138040D+00 0.26436707D-01 0.97813325D+05 0.97813325D+05 0.97813325D+05 0.11225108D+01  1  2 15  2  7  2       -1 0.194871207006D-04 0.100000000000D+01
-.201215803169D-05 0.000000000000D+00 0.000000000000D+00 0.387704001684D-07 0.000000000000D+00  7 1 -1 23 -11 11 23 21 2 0.13138040D+00 0.26436707D-01 0.97813325D+05 0.97813325D+05 0.97813325D+05 0.11225108D+01  1  2  4  2  7  2       -1 -.749192386461D-04 0.100000000000D+01
  </mgrwgt>
  </event>
  <event>
  8     66 0.24912036E-05 0.26921416E+03 0.75467711E-02 0.92211462E-01
        1 -1    0    0  501    0 0.00000000E+00 0.00000000E+00 0.23765273E+03 0.23765295E+03 0.32000000E+00 0.0000E+00 0.9000E+01
       -1 -1    0    0    0  501 0.00000000E+00 0.00000000E+00 -.35752515E+03 0.35752530E+03 0.32000000E+00 0.0000E+00 0.9000E+01
       25  2    1    2    0    0 -.18666478E+03 -.63965632E+02 -.46815378E+02 0.36731300E+03 0.30625449E+03 0.0000E+00 0.0000E+00
       23  2    1    2    0    0 0.18666478E+03 0.63965632E+02 -.73057040E+02 0.22786525E+03 0.87463707E+02 0.0000E+00 0.0000E+00
       23  1    3    3    0    0 -.89237553E+02 -.12916121E+03 0.52087635E+02 0.18887650E+03 0.91188000E+02 0.0000E+00 0.9000E+01
      -13  1    4    4    0    0 0.17726331E+03 0.38754410E+02 -.82532281E+02 0.19933834E+03 0.10565837E+00 0.0000E+00 0.9000E+01
       13  1    4    4    0    0 0.94014685E+01 0.25211222E+02 0.94752406E+01 0.28526911E+02 0.10565837E+00 0.0000E+00 0.9000E+01
       23  1    3    3    0    0 -.97427225E+02 0.65195573E+02 -.98903013E+02 0.17843650E+03 0.91188000E+02 0.0000E+00 0.9000E+01
#aMCatNLO 1  0  0  2  1 0.51585565D+03 0.00000000D+00  -5  7  0 0.00000000D+00 0.00000000D+00 0.00000000D+00 0.00000000D+00 0.00000000D+00
  <mgrwgt>
 0.3651360718D-03    3    2    0
 0.291490886634731D+03 0.000000000000000D+00 0.000000000000000D+00 0.291490886634731D+03
 0.291490886634731D+03 0.000000000000000D+00 0.000000000000000D+00 -.291490886634731D+03
 0.203538186442191D+03 -.892375536101681D+02 -.129161205319885D+03 0.920140427443713D+02
 0.186538647657149D+03 0.177263554214312D+03 0.387544315621749D+02 -.432711618905747D+02
 0.310717845544572D+02 0.940122505755664D+01 0.252112010178233D+02 0.155392440631672D+02
 0.161833154615666D+03 -.974272256617006D+02 0.651955727398870D+02 -.642821249169638D+02
 0.000000000000000D+00 -.000000000000000D+00 -.000000000000000D+00 0.000000000000000D+00
 0.726202586533860D+03 0.000000000000000D+00 0.000000000000000D+00 0.726202586533860D+03
 0.586642025904102D+03 0.000000000000000D+00 0.000000000000000D+00 -.586642025904102D+03
 0.134706222398089D+03 -.344551067369267D+02 -.132957348930898D+02 0.920140427443713D+02
 0.347128305001134D+03 0.263696857228087D+03 0.221561806658164D+03 -.432711618905747D+02
 0.652129797571728D+02 0.249956143445505D+02 0.581935038152305D+02 0.155392440631672D+02
 0.231396321962447D+03 -.337393350517919D+02 0.199896153440158D+03 -.642821249169638D+02
 0.534400783319121D+03 -.220498029783919D+03 -.466355729020463D+03 0.139560560629758D+03
0.726930796901D-05 0.000000000000D+00 0.000000000000D+00 0.419903985032D-09 0.000000000000D+00  7 1 -1 23 -13 13 23 21 0 0.36561987D-01 0.55003897D-01 0.72476265D+05 0.72476265D+05 0.72476265D+05 0.11333784D+01  1  2  2  2  7  2       -1 0.360416616611D-03 0.100000000000D+01
-.400746933163D-06 0.000000000000D+00 -.279160566537D-07 0.419903985032D-09 0.000000000000D+00  7 1 -1 23 -13 13 23 21 2 0.36561987D-01 0.55003897D-01 0.72476265D+05 0.72476265D+05 0.72476265D+05 0.11333784D+01  1  2  3  2  7  2       -1 -.255230047097D-04 0.100000000000D+01
0.474848991687D-06 0.000000000000D+00 0.000000000000D+00 0.419903985032D-09 0.000000000000D+00  7 1 -1 23 -13 13 23 21 2 0.36561987D-01 0.55003897D-01 0.72476265D+05 0.72476265D+05 0.72476265D+05 0.11333784D+01  1  2 15  2  7  2       -1 0.302424598875D-04 0.100000000000D+01
  </mgrwgt>
  </event>
  <event>
  8     66 0.24912036E-05 0.26293133E+03 0.75467711E-02 0.95688302E-01
        1 -1    0    0  501    0 0.00000000E+00 0.00000000E+00 0.10648346E+04 0.10648347E+04 0.32000000E+00 0.0000E+00 0.9000E+01
       -1 -1    0    0    0  501 0.00000000E+00 0.00000000E+00 -.32985025E+03 0.32985041E+03 0.32000000E+00 0.0000E+00 0.9000E+01
       25  2    1    2    0    0 0.18197685E+02 -.19759294E+03 0.99341954E+03 0.10562200E+04 0.29890505E+03 0.0000E+00 0.0000E+00
       23  2    1    2    0    0 -.18197685E+02 0.19759294E+03 -.25843517E+03 0.33846505E+03 0.91628212E+02 0.0000E+00 0.0000E+00
       23  1    3    3    0    0 -.64500733E+02 -.10591324E+03 0.22495526E+03 0.27257674E+03 0.91188000E+02 0.0000E+00 0.9000E+01
      -11  1    4    4    0    0 -.53932496E+02 0.88390010E+02 -.11696924E+03 0.15621559E+03 0.51099893E-03 0.0000E+00 0.9000E+01
       11  1    4    4    0    0 0.35734811E+02 0.10920293E+03 -.14146593E+03 0.18224946E+03 0.51099893E-03 0.0000E+00 0.9000E+01
       23  1    3    3    0    0 0.82698417E+02 -.91679702E+02 0.76846428E+03 0.78364328E+03 0.91188000E+02 0.0000E+00 0.9000E+01
#aMCatNLO 1  0  0  1  2 0.32341381D+03 0.00000000D+00  -5  7  0 0.00000000D+00 0.00000000D+00 0.00000000D+00 0.00000000D+00 0.00000000D+00
  <mgrwgt>
 0.2768512780D-03    6    2    0
 0.592651761619590D+03 0.000000000000000D+00 0.000000000000000D+00 0.592651761619590D+03
 0.592651761619590D+03 0.000000000000000D+00 0.000000000000000D+00 -.592651761619590D+03
 0.181236372986184D+03 -.645007327332677D+02 -.105913240195402D+03 0.956734685133222D+02
 0.256341188542797D+03 -.539324958968016D+02 0.883900101211558D+02 -.234497967881722D+03
 0.302163833089812D+03 0.357348113193572D+02 0.109202932473188D+03 -.279465069063656D+03
 0.445562128620388D+03 0.826984173107121D+02 -.916797023989418D+02 0.418289568432056D+03
 0.000000000000000D+00 0.000000000000000D+00 -.000000000000000D+00 0.000000000000000D+00
 0.107750261433270D+04 0.000000000000000D+00 0.000000000000000D+00 0.107750261433270D+04
 0.670771822444615D+03 0.000000000000000D+00 0.000000000000000D+00 -.670771822444615D+03
 0.192636584315818D+03 -.110530942080059D+03 -.861574171989290D+02 0.956734685133222D+02
 0.288746808490761D+03 -.121042229633469D+03 0.117193007975313D+03 -.234497967881722D+03
 0.316001561821586D+03 -.403720104846307D+02 0.141867413511195D+03 -.279465069063656D+03
 0.431248811630335D+03 -.252521320645301D+02 -.453481306747736D+02 0.418289568432056D+03
 0.519640670518814D+03 0.297197314262689D+03 -.127554873612805D+03 0.406730791888085D+03
0.249884255044D-04 0.000000000000D+00 0.000000000000D+00 0.511156702804D-06 0.000000000000D+00  7 1 -1 23 -11 11 23 21 0 0.16382073D+00 0.50746208D-01 0.69132882D+05 0.69132882D+05 0.69132882D+05 0.11351201D+01  1  2  2  1  7  1        1 0.168254870868D-03 0.100000000000D+01
-.273377793949D-06 0.000000000000D+00 -.959621335404D-07 0.511156702804D-06 0.000000000000D+00  7 1 -1 23 -11 11 23 21 2 0.16382073D+00 0.50746208D-01 0.69132882D+05 0.69132882D+05 0.69132882D+05 0.11351201D+01  1  2  3  1  7  1        1 -.237178662002D-05 0.100000000000D+01
0.149329051999D-05 0.000000000000D+00 0.000000000000D+00 0.511156702804D-06 0.000000000000D+00  7 1 -1 23 -11 11 23 21 2 0.16382073D+00 0.50746208D-01 0.69132882D+05 0.69132882D+05 0.69132882D+05 0.11351201D+01  1  2 15  1  7  1        1 0.129555748620D-04 0.100000000000D+01
-.105402039507D-04 0.000000000000D+00 -.749650501330D-05 0.511156702804D-06 0.000000000000D+00  7 1 -1 23 -11 11 23 21 2 0.31176965D+00 0.50746208D-01 0.69132882D+05 0.69132882D+05 0.69132882D+05 0.11351201D+01  1  2  5  1  7  1        1 -.208888991841D-04 0.100000000000D+01
0.137422902233D-04 0.000000000000D+00 0.617359808441D-05 0.511156702804D-06 0.000000000000D+00  7 1 -1 23 -11 11 23 21 2 0.16382073D+00 0.50746208D-01 0.69132882D+05 0.69132882D+05 0.69132882D+05 0.11351201D+01  1  2  6  1  7  1        1 0.119226143460D-03 0.100000000000D+01
-.307963708803D-06 0.000000000000D+00 -.524054790179D-06 0.511156702804D-06 0.000000000000D+00  7 21 -1 23 -11 11 23 -1 2 0.31176965D+00 0.50746208D-01 0.69132882D+05 0.69132882D+05 0.69132882D+05 0.11351201D+01  1  2  5  3  7  1        1 -.324625400742D-06 0.100000000000D+01
  </mgrwgt>
  </event>
  <event>
  8     66 0.24912036E-05 0.12496201E+03 0.75467711E-02 0.10487407E+00
        3 -1    0    0  501    0 0.00000000E+00 0.00000000E+00 0.95884188E+02 0.95885491E+02 0.50000000E+00 0.0000E+00 0.9000E+01
       -3 -1    0    0    0  501 0.00000000E+00 0.00000000E+00 -.56541802E+03 0.56541824E+03 0.50000000E+00 0.0000E+00 0.9000E+01
       25  2    1    2    0    0 -.84761432E+01 -.61492387E+02 -.19115294E+03 0.36159548E+03 0.30059722E+03 0.0000E+00 0.0000E+00
       23  2    1    2    0    0 0.84761432E+01 0.61492387E+02 -.27838089E+03 0.29970825E+03 0.92064950E+02 0.0000E+00 0.0000E+00
       23  1    3    3    0    0 0.82015618E+02 0.26899558E+02 -.15861560E+03 0.20229757E+03 0.91188000E+02 0.0000E+00 0.9000E+01
      -13  1    4    4    0    0 0.45416375E+02 0.11457210E+02 -.92226525E+02 0.10343915E+03 0.10565837E+00 0.0000E+00 0.9000E+01
       13  1    4    4    0    0 -.36940231E+02 0.50035177E+02 -.18615437E+03 0.19626910E+03 0.10565837E+00 0.0000E+00 0.9000E+01
       23  1    3    3    0    0 -.90491761E+02 -.88391945E+02 -.32537341E+02 0.15929791E+03 0.91188000E+02 0.0000E+00 0.9000E+01
#aMCatNLO 1  0  0  1  2 0.49255133D+02 0.00000000D+00  -5  7  0 0.00000000D+00 0.00000000D+00 0.00000000D+00 0.00000000D+00 0.00000000D+00
  <mgrwgt>
 0.2528966437D-04    9    2    0
 0.232841472516930D+03 0.000000000000000D+00 0.000000000000000D+00 0.232841472516930D+03
 0.232841472516930D+03 0.000000000000000D+00 0.000000000000000D+00 -.232841472516930D+03
 0.127350050838514D+03 0.820156165733653D+02 0.268995511652341D+02 -.212752647403454D+02
 0.539018980740201D+02 0.454164585550750D+02 0.114571723363351D+02 -.266738281908076D+02
 0.910227383203707D+02 -.369403129644142D+02 0.500352314950798D+02 -.664607235791455D+02
 0.193408257800955D+03 -.904917621640261D+02 -.883919549966490D+02 0.114409816510299D+03
 0.000000000000000D+00 0.000000000000000D+00 -.000000000000000D+00 0.000000000000000D+00
 0.274869946047899D+03 0.000000000000000D+00 0.000000000000000D+00 0.274869946047899D+03
 0.249031557460483D+03 0.000000000000000D+00 0.000000000000000D+00 -.249031557460483D+03
 0.130374512720388D+03 0.811917366345255D+02 0.404663716631053D+02 -.212752647403454D+02
 0.551209792457303D+02 0.450679401202856D+02 0.171962209793274D+02 -.266738281908076D+02
 0.970497830433298D+02 -.375415330237632D+02 0.599355145829207D+02 -.664607235791455D+02
 0.185735274925171D+03 -.917037876932983D+02 -.684335459866809D+02 0.114409816510299D+03
 0.556209535737640D+02 0.298564396225042D+01 -.491645612386725D+02 0.258383885874160D+02
0.115289009761D-05 0.000000000000D+00 0.000000000000D+00 0.584707201297D-07 0.000000000000D+00  7 3 -3 23 -13 13 23 21 0 0.14751531D-01 0.86987504D-01 0.38129076D+05 0.38129076D+05 0.38129076D+05 0.11577957D+01  1  2  2  1  7  1        3 0.208024812705D-04 0.100000000000D+01
-.616374296516D-07 0.000000000000D+00 -.442740153774D-08 0.584707201297D-07 0.000000000000D+00  7 3 -3 23 -13 13 23 21 2 0.14751531D-01 0.86987504D-01 0.38129076D+05 0.38129076D+05 0.38129076D+05 0.11577957D+01  1  2  3  1  7  1        3 -.149085559586D-05 0.100000000000D+01
0.718859983213D-07 0.000000000000D+00 0.000000000000D+00 0.584707201297D-07 0.000000000000D+00  7 3 -3 23 -13 13 23 21 2 0.14751531D-01 0.86987504D-01 0.38129076D+05 0.38129076D+05 0.38129076D+05 0.11577957D+01  1  2 15  1  7  1        3 0.173874289481D-05 0.100000000000D+01
0.148287917019D-05 0.000000000000D+00 0.000000000000D+00 0.584707201297D-07 0.000000000000D+00  7 3 -3 23 -13 13 23 21 2 0.17857641D-01 0.86987504D-01 0.49096842D+05 0.49096842D+05 0.49096842D+05 0.11479924D+01  1  2 12  1  7  1        3 0.256114823194D-04 0.100000000000D+01
-.150534587318D-05 0.000000000000D+00 0.000000000000D+00 0.584707201297D-07 0.000000000000D+00  7 3 -3 23 -13 13 23 21 2 0.14751531D-01 0.86987504D-01 0.38129076D+05 0.38129076D+05 0.38129076D+05 0.11577957D+01  1  2  4  1  7  1        3 -.364105598079D-04 0.100000000000D+01
-.286533305689D-05 0.000000000000D+00 -.795453547437D-06 0.584707201297D-07 0.000000000000D+00  7 3 -3 23 -13 13 23 21 2 0.18567960D-01 0.86987504D-01 0.38129076D+05 0.38129076D+05 0.38129076D+05 0.11577957D+01  1  2  5  1  7  1        3 -.468526036597D-04 0.100000000000D+01
0.298947736326D-05 0.000000000000D+00 0.774851906089D-06 0.584707201297D-07 0.000000000000D+00  7 3 -3 23 -13 13 23 21 2 0.14751531D-01 0.86987504D-01 0.38129076D+05 0.38129076D+05 0.38129076D+05 0.11577957D+01  1  2  6  1  7  1        3 0.723079966328D-04 0.100000000000D+01
0.409705870196D-07 0.000000000000D+00 0.000000000000D+00 0.584707201297D-07 0.000000000000D+00  7 21 -3 23 -13 13 23 -3 2 0.17857641D-01 0.86987504D-01 0.49096842D+05 0.49096842D+05 0.49096842D+05 0.11479924D+01  1  2 12  3  7  1        3 0.122663311914D-04 0.100000000000D+01
-.795567307370D-07 0.000000000000D+00 -.253117999264D-07 0.584707201297D-07 0.000000000000D+00  7 21 -3 23 -13 13 23 -3 2 0.18567960D-01 0.86987504D-01 0.38129076D+05 0.38129076D+05 0.38129076D+05 0.11577957D+01  1  2  5  3  7  1        3 -.226833508734D-04 0.100000000000D+01
  </mgrwgt>
  </event>
  <event>
  8     66 0.24912036E-05 0.26284760E+03 0.75467711E-02 0.99080889E-01
        1 -1    0    0  501    0 0.00000000E+00 0.00000000E+00 0.27628253E+03 0.27628271E+03 0.32000000E+00 0.0000E+00 0.9000E+01
       -1 -1    0    0    0  501 0.00000000E+00 0.00000000E+00 -.36468536E+03 0.36468550E+03 0.32000000E+00 0.0000E+00 0.9000E+01
       25  2    1    2    0    0 0.19245508E+03 0.95348666E+02 -.15170929E+03 0.39890001E+03 0.29995863E+03 0.0000E+00 0.0000E+00
       23  2    1    2    0    0 -.19245508E+03 -.95348666E+02 0.63306462E+02 0.24206821E+03 0.91972720E+02 0.0000E+00 0.0000E+00
       23  1    3    3    0    0 0.16608199E+03 0.44159362E+02 -.20152000E+03 0.28010505E+03 0.91188000E+02 0.0000E+00 0.9000E+01
      -13  1    4    4    0    0 -.13963589E+03 -.97712054E+02 0.77651206E+02 0.18728467E+03 0.10565837E+00 0.0000E+00 0.9000E+01
       13  1    4    4    0    0 -.52819194E+02 0.23633884E+01 -.14344744E+02 0.54783535E+02 0.10565837E+00 0.0000E+00 0.9000E+01
       23  1    3    3    0    0 0.26373098E+02 0.51189303E+02 0.49810707E+02 0.11879496E+03 0.91188000E+02 0.0000E+00 0.9000E+01
#aMCatNLO 1  0  0  2  1 0.14318250D+03 0.00000000D+00  -5  7  0 0.00000000D+00 0.00000000D+00 0.00000000D+00 0.00000000D+00 0.00000000D+00
  <mgrwgt>
 0.1539546927D-03    7    2    0
 0.317421325284248D+03 0.000000000000000D+00 0.000000000000000D+00 0.317421325284248D+03
 0.317421325284248D+03 0.000000000000000D+00 0.000000000000000D+00 -.317421325284248D+03
 0.254745790912324D+03 0.166081985803847D+03 0.441593626211456D+02 -.164459391121000D+03
 0.199905016315665D+03 -.139636004649169D+03 -.977121854023843D+02 0.104480287986173D+03
 0.533144163092358D+02 -.528190788930018D+02 0.236351956058865D+01 -.685460914830864D+01
 0.126877427031272D+03 0.263730977383230D+02 0.511893032206500D+02 0.668337122831362D+02
 0.000000000000000D+00 0.000000000000000D+00 -.000000000000000D+00 -.000000000000000D+00
 0.394605512324655D+03 0.000000000000000D+00 0.000000000000000D+00 0.394605512324655D+03
 0.399447922490039D+03 0.000000000000000D+00 0.000000000000000D+00 -.399447922490039D+03
 0.261834444429438D+03 0.152290266900306D+03 0.100014040140452D+03 -.164459391121000D+03
 0.191080622555521D+03 -.150074584481913D+03 -.554372873715252D+02 0.104480287986173D+03
 0.580268918013732D+02 -.557916820217263D+02 0.144021777082072D+02 -.685460914830864D+01
 0.139847115394065D+03 0.192520550383980D+02 0.800286050065491D+02 0.668337122831362D+02
 0.143264360634298D+03 0.343239445649357D+02 -.139007535483683D+03 -.484241016538379D+01
0.365205203012D-05 0.000000000000D+00 0.000000000000D+00 0.419549249201D-06 0.000000000000D+00  7 1 -1 23 -13 13 23 21 0 0.42505029D-01 0.56105465D-01 0.69088858D+05 0.69088858D+05 0.69088858D+05 0.11351436D+01  1  2  2  2  7  2       -1 0.143705798665D-03 0.100000000000D+01
-.194111963363D-06 0.000000000000D+00 -.140248414030D-07 0.419549249201D-06 0.000000000000D+00  7 1 -1 23 -13 13 23 21 2 0.42505029D-01 0.56105465D-01 0.69088858D+05 0.69088858D+05 0.69088858D+05 0.11351436D+01  1  2  3  2  7  2       -1 -.984217956608D-05 0.100000000000D+01
0.236224591761D-06 0.000000000000D+00 0.000000000000D+00 0.419549249201D-06 0.000000000000D+00  7 1 -1 23 -13 13 23 21 2 0.42505029D-01 0.56105465D-01 0.69088858D+05 0.69088858D+05 0.69088858D+05 0.11351436D+01  1  2 15  2  7  2       -1 0.119774423469D-04 0.100000000000D+01
-.137068089950D-05 0.000000000000D+00 0.000000000000D+00 0.419549249201D-06 0.000000000000D+00  7 1 -1 23 -13 13 23 21 2 0.42505029D-01 0.56105465D-01 0.69088858D+05 0.69088858D+05 0.69088858D+05 0.11351436D+01  1  2  4  2  7  2       -1 -.694984858580D-04 0.100000000000D+01
-.229958265410D-05 0.000000000000D+00 -.143158889986D-05 0.419549249201D-06 0.000000000000D+00  7 1 -1 23 -13 13 23 21 2 0.42505029D-01 0.85224794D-01 0.69088858D+05 0.69088858D+05 0.69088858D+05 0.11351436D+01  1  2  5  2  7  2       -1 -.520903787183D-04 0.100000000000D+01
0.276913702651D-05 0.000000000000D+00 0.131499256471D-05 0.419549249201D-06 0.000000000000D+00  7 1 -1 23 -13 13 23 21 2 0.42505029D-01 0.56105465D-01 0.69088858D+05 0.69088858D+05 0.69088858D+05 0.11351436D+01  1  2  6  2  7  2       -1 0.140405276345D-03 0.100000000000D+01
-.612485156878D-07 0.000000000000D+00 -.703992576983D-07 0.419549249201D-06 0.000000000000D+00  7 1 21 23 -13 13 23 1 2 0.42505029D-01 0.85224794D-01 0.69088858D+05 0.69088858D+05 0.69088858D+05 0.11351436D+01  1  2  5  4  7  2       -1 -.107027804739D-04 0.100000000000D+01
  </mgrwgt>
  </event>
  <event>
  8     66 0.24912036E-05 0.31312202E+03 0.75467711E-02 0.94589673E-01
        1 -1    0    0  501    0 0.00000000E+00 0.00000000E+00 0.87699882E+03 0.87699887E+03 0.32000000E+00 0.0000E+00 0.9000E+01
       -1 -1    0    0    0  501 0.00000000E+00 0.00000000E+00 -.33393633E+03 0.33393649E+03 0.32000000E+00 0.0000E+00 0.9000E+01
       25  2    1    2    0    0 0.40881275E+03 0.23790430E+03 0.45156321E+03 0.71956883E+03 0.30023933E+03 0.0000E+00 0.0000E+00
       23  2    1    2    0    0 -.40881275E+03 -.23790430E+03 0.91499276E+02 0.49136653E+03 0.96657317E+02 0.0000E+00 0.0000E+00
       23  1    3    3    0    0 0.23498465E+03 0.64404097E+02 0.94675929E+02 0.27684735E+03 0.91188000E+02 0.0000E+00 0.9000E+01
      -13  1    4    4    0    0 -.28036150E+02 -.21317761E+02 -.18385364E+02 0.39730410E+02 0.10565837E+00 0.0000E+00 0.9000E+01
       13  1    4    4    0    0 -.38077660E+03 -.21658653E+03 0.10988464E+03 0.45163612E+03 0.10565837E+00 0.0000E+00 0.9000E+01
       23  1    3    3    0    0 0.17382810E+03 0.17350020E+03 0.35688728E+03 0.44272148E+03 0.91188000E+02 0.0000E+00 0.9000E+01
#aMCatNLO 1  0  0  1  2 0.77041471D+01 0.00000000D+00  -5  7  0 0.00000000D+00 0.00000000D+00 0.00000000D+00 0.00000000D+00 0.00000000D+00
  <mgrwgt>
 0.4774205126D-03   11    2    0
 0.541167161320406D+03 0.000000000000000D+00 0.000000000000000D+00 0.541167161320406D+03
 0.541167161320406D+03 0.000000000000000D+00 0.000000000000000D+00 -.541167161320406D+03
 0.262238102786794D+03 0.234984646514372D+03 0.644040973430801D+02 -.329833193774705D+02
 0.536755095475829D+02 -.280357294120235D+02 -.213175282754452D+02 -.405045823303247D+02
 0.450164453257325D+03 -.380777016626466D+03 -.216586767441898D+03 -.103668079728447D+03
 0.316256257049111D+03 0.173828099524118D+03 0.173500198374263D+03 0.177155981436242D+03
 0.000000000000000D+00 -.000000000000000D+00 0.000000000000000D+00 0.000000000000000D+00
 0.560852739362318D+03 0.000000000000000D+00 0.000000000000000D+00 0.560852739362318D+03
 0.541935169839694D+03 0.000000000000000D+00 0.000000000000000D+00 -.541935169839694D+03
 0.263574277914994D+03 0.236685839580597D+03 0.636243869855130D+02 -.329833193774705D+02
 0.535586785545623D+02 -.276887880619203D+02 -.214765424223486D+02 -.405045823303247D+02
 0.448354270983266D+03 -.377869983852701D+03 -.217919152112687D+03 -.103668079728447D+03
 0.316874514225716D+03 0.175876506365868D+03 0.172561349008642D+03 0.177155981436242D+03
 0.204261675234731D+02 -.700357403184356D+01 0.320995854088070D+01 0.189175695226237D+02
0.129407325935D-04 0.000000000000D+00 0.000000000000D+00 0.118157437477D-06 0.000000000000D+00  7 1 -1 23 -13 13 23 21 0 0.13492291D+00 0.51374837D-01 0.24771572D+06 0.24771572D+06 0.24771572D+06 0.10907591D+01  1  2  2  1  7  1        1 0.113577540811D-03 0.100000000000D+01
-.712804403975D-06 0.000000000000D+00 -.496958205322D-07 0.118157437477D-06 0.000000000000D+00  7 1 -1 23 -13 13 23 21 2 0.13492291D+00 0.51374837D-01 0.24771572D+06 0.24771572D+06 0.24771572D+06 0.10907591D+01  1  2  3  1  7  1        1 -.744323426456D-05 0.100000000000D+01
0.814771237418D-06 0.000000000000D+00 0.000000000000D+00 0.118157437477D-06 0.000000000000D+00  7 1 -1 23 -13 13 23 21 2 0.13492291D+00 0.51374837D-01 0.24771572D+06 0.24771572D+06 0.24771572D+06 0.10907591D+01  1  2 15  1  7  1        1 0.850799063293D-05 0.100000000000D+01
0.143933018454D-03 0.000000000000D+00 0.000000000000D+00 0.118157437477D-06 0.000000000000D+00  7 1 -1 23 -13 13 23 21 2 0.13992473D+00 0.51374837D-01 0.25159214D+06 0.25159214D+06 0.25159214D+06 0.10902518D+01  1  2 12  1  7  1        1 0.141243646343D-02 0.100000000000D+01
-.151706602887D-03 0.000000000000D+00 0.000000000000D+00 0.118157437477D-06 0.000000000000D+00  7 1 -1 23 -13 13 23 21 2 0.13492291D+00 0.51374837D-01 0.24771572D+06 0.24771572D+06 0.24771572D+06 0.10907591D+01  1  2  4  1  7  1        1 -.158414815968D-02 0.100000000000D+01
-.791976155477D-03 0.000000000000D+00 -.439708740704D-04 0.118157437477D-06 0.000000000000D+00  7 1 -1 23 -13 13 23 21 2 0.13992091D+00 0.51374837D-01 0.24771572D+06 0.24771572D+06 0.24771572D+06 0.10907591D+01  1  2  5  1  7  1        1 -.778348992540D-02 0.100000000000D+01
0.793079913348D-03 0.000000000000D+00 0.439418022328D-04 0.118157437477D-06 0.000000000000D+00  7 1 -1 23 -13 13 23 21 2 0.13492291D+00 0.51374837D-01 0.24771572D+06 0.24771572D+06 0.24771572D+06 0.10907591D+01  1  2  6  1  7  1        1 0.828148585032D-02 0.100000000000D+01
0.606616532390D-05 0.000000000000D+00 0.000000000000D+00 0.118157437477D-06 0.126287037260D-07  7 1 -1 23 -13 13 23 21 2 0.13983089D+00 0.51447746D-01 0.25159214D+06 0.25159214D+06 0.25159214D+06 0.10902518D+01  1  2 11  1  7  1        1 0.594411057586D-04 0.100000000000D+01
0.375642380938D-05 0.000000000000D+00 0.000000000000D+00 0.118157437477D-06 0.000000000000D+00  7 21 -1 23 -13 13 23 -1 2 0.13992473D+00 0.51374837D-01 0.25159214D+06 0.25159214D+06 0.25159214D+06 0.10902518D+01  1  2 12  3  7  1        1 0.553704783751D-04 0.100000000000D+01
-.534061467022D-05 0.000000000000D+00 -.284178741565D-06 0.118157437477D-06 0.000000000000D+00  7 21 -1 23 -13 13 23 -1 2 0.13992091D+00 0.51374837D-01 0.24771572D+06 0.24771572D+06 0.24771572D+06 0.10907591D+01  1  2  5  3  7  1        1 -.788898245073D-04 0.100000000000D+01
0.388457661678D-07 0.000000000000D+00 0.000000000000D+00 0.118157437477D-06 0.802358847500D-10  7 21 -1 23 -13 13 23 -1 2 0.13983089D+00 0.51447746D-01 0.25159214D+06 0.25159214D+06 0.25159214D+06 0.10902518D+01  1  2 11  3  7  1        1 0.572227151405D-06 0.100000000000D+01
  </mgrwgt>
  </event>
  <event>
  8     66 0.24912036E-05 0.28147004E+03 0.75467711E-02 0.92911687E-01
        1 -1    0    0  501    0 0.00000000E+00 0.00000000E+00 0.45894144E+03 0.45894155E+03 0.32000000E+00 0.0000E+00 0.9000E+01
       -1 -1    0    0    0  501 0.00000000E+00 0.00000000E+00 -.27956091E+03 0.27956109E+03 0.32000000E+00 0.0000E+00 0.9000E+01
       25  2    1    2    0    0 -.12360654E+03 0.16707097E+03 0.30763447E+03 0.47757540E+03 0.30041306E+03 0.0000E+00 0.0000E+00
       23  2    1    2    0    0 0.12360654E+03 -.16707097E+03 -.12825394E+03 0.26092725E+03 0.91883994E+02 0.0000E+00 0.0000E+00
       23  1    3    3    0    0 0.98430181E+01 0.15076570E+03 0.70279023E+02 0.18995150E+03 0.91188000E+02 0.0000E+00 0.9000E+01
      -13  1    4    4    0    0 0.10978687E+03 -.79962727E+02 -.98752275E+02 0.16792623E+03 0.10565837E+00 0.0000E+00 0.9000E+01
       13  1    4    4    0    0 0.13819664E+02 -.87108247E+02 -.29501664E+02 0.93001017E+02 0.10565837E+00 0.0000E+00 0.9000E+01
       23  1    3    3    0    0 -.13344956E+03 0.16305276E+02 0.23735544E+03 0.28762389E+03 0.91188000E+02 0.0000E+00 0.9000E+01
#aMCatNLO 1  0  0  1  2 0.46396001D+03 0.00000000D+00  -5  7  0 0.00000000D+00 0.00000000D+00 0.00000000D+00 0.00000000D+00 0.00000000D+00
  <mgrwgt>
 0.1412486568D-03    5    2    0
 0.358192956928978D+03 0.000000000000000D+00 0.000000000000000D+00 0.358192956928978D+03
 0.358192956928978D+03 0.000000000000000D+00 0.000000000000000D+00 -.358192956928978D+03
 0.178218185239761D+03 0.984301782973241D+01 0.150765697632151D+03 0.248855304072071D+02
 0.197837905546658D+03 0.109787001131200D+03 -.799627178561914D+02 -.143849278784280D+03
 0.103259192635321D+03 0.138195369385691D+02 -.871082564870645D+02 -.536994684730276D+02
 0.237070630436215D+03 -.133449555899501D+03 0.163052767111049D+02 0.172663216850100D+03
 0.000000000000000D+00 -.000000000000000D+00 0.000000000000000D+00 0.000000000000000D+00
 0.119836285385257D+04 0.000000000000000D+00 0.000000000000000D+00 0.119836285385257D+04
 0.496494893322855D+03 0.000000000000000D+00 0.000000000000000D+00 -.496494893322855D+03
 0.203764444449924D+03 0.121416982743507D+03 0.133578906103475D+03 0.248855304072071D+02
 0.313862195046495D+03 0.259250365777745D+03 -.102985971456077D+03 -.143849278784280D+03
 0.140457694898249D+03 0.850072228306096D+02 -.980739680469331D+02 -.536994684730276D+02
 0.195418837637935D+03 -.712296147900788D+01 -.315400166544540D+01 0.172663216850100D+03
 0.841354575142819D+03 -.458551609872854D+03 0.706350350649807D+02 0.701867960529711D+03
0.437338299899D-05 0.000000000000D+00 0.000000000000D+00 0.421351556417D-06 0.000000000000D+00  7 1 -1 23 -13 13 23 21 0 0.70606398D-01 0.43009393D-01 0.79225382D+05 0.79225382D+05 0.79225382D+05 0.11301171D+01  1  2  2  1  7  1        1 0.141128951205D-03 0.100000000000D+01
-.225801436676D-06 0.000000000000D+00 -.167949422543D-07 0.421351556417D-06 0.000000000000D+00  7 1 -1 23 -13 13 23 21 2 0.70606398D-01 0.43009393D-01 0.79225382D+05 0.79225382D+05 0.79225382D+05 0.11301171D+01  1  2  3  1  7  1        1 -.930619598056D-05 0.100000000000D+01
0.277929015417D-06 0.000000000000D+00 0.000000000000D+00 0.421351556417D-06 0.000000000000D+00  7 1 -1 23 -13 13 23 21 2 0.70606398D-01 0.43009393D-01 0.79225382D+05 0.79225382D+05 0.79225382D+05 0.11301171D+01  1  2 15  1  7  1        1 0.114545856050D-04 0.100000000000D+01
-.512766577937D-06 0.000000000000D+00 -.159602677484D-05 0.421351556417D-06 0.000000000000D+00  7 1 -1 23 -13 13 23 21 2 0.27642539D+00 0.43009393D-01 0.79225382D+05 0.79225382D+05 0.79225382D+05 0.11301171D+01  1  2  5  1  7  1        1 -.189032629089D-05 0.100000000000D+01
-.590631062342D-07 0.000000000000D+00 -.259217554997D-06 0.421351556417D-06 0.000000000000D+00  7 21 -1 23 -13 13 23 -1 2 0.27642539D+00 0.43009393D-01 0.79225382D+05 0.79225382D+05 0.79225382D+05 0.11301171D+01  1  2  5  3  7  1        1 -.138357749665D-06 0.100000000000D+01
  </mgrwgt>
  </event>
  <event>
  8     66 0.24912036E-05 0.30105294E+03 0.75467711E-02 0.96619948E-01
        1 -1    0    0  501    0 0.00000000E+00 0.00000000E+00 0.18051188E+04 0.18051188E+04 0.32000000E+00 0.0000E+00 0.9000E+01
       -1 -1    0    0    0  501 0.00000000E+00 0.00000000E+00 -.69278160E+02 0.69278899E+02 0.32000000E+00 0.0000E+00 0.9000E+01
       25  2    1    2    0    0 0.21885471E+03 0.77024975E+02 0.59012861E+03 0.70191405E+03 0.30100055E+03 0.0000E+00 0.0000E+00
       23  2    1    2    0    0 -.21885471E+03 -.77024975E+02 0.11457120E+04 0.11724836E+04 0.90728597E+02 0.0000E+00 0.0000E+00
       23  1    3    3    0    0 0.19075323E+03 0.14177132E+03 0.47531543E+03 0.53919006E+03 0.91188000E+02 0.0000E+00 0.9000E+01
      -11  1    4    4    0    0 -.76925798E+02 -.32201229E+02 0.63729805E+03 0.64273113E+03 0.51099893E-03 0.0000E+00 0.9000E+01
       11  1    4    4    0    0 -.14192891E+03 -.44823747E+02 0.50841393E+03 0.52975250E+03 0.51099893E-03 0.0000E+00 0.9000E+01
       23  1    3    3    0    0 0.28101478E+02 -.64746344E+02 0.11481317E+03 0.16272399E+03 0.91188000E+02 0.0000E+00 0.9000E+01
#aMCatNLO 1  0  0  2  2 0.21357004D+03 0.00000000D+00  -5  7  0 0.00000000D+00 0.00000000D+00 0.00000000D+00 0.00000000D+00 0.00000000D+00
  <mgrwgt>
 0.2578490170D-03    3    2    0
 0.353632611837414D+03 0.000000000000000D+00 0.000000000000000D+00 0.353632611837414D+03
 0.353632611837414D+03 0.000000000000000D+00 0.000000000000000D+00 -.353632611837414D+03
 0.262397693539579D+03 0.190753231928863D+03 0.141771319302680D+03 -.636505755100605D+02
 0.139248906327523D+03 -.769257981263267D+02 -.322012286824230D+02 0.111515740446725D+03
 0.156152615431296D+03 -.141928912294840D+03 -.448237465898697D+02 0.472298094690752D+02
 0.149466008376429D+03 0.281014784923031D+02 -.647463440303869D+02 -.950949744057394D+02
 0.000000000000000D+00 -.000000000000000D+00 0.000000000000000D+00 0.000000000000000D+00
 0.730511504820239D+03 0.000000000000000D+00 0.000000000000000D+00 0.730511504820239D+03
 0.400981595407880D+03 0.000000000000000D+00 0.000000000000000D+00 -.400981595407880D+03
 0.312880048054086D+03 0.270245866803612D+03 0.111778570572045D+03 -.636505755100605D+02
 0.127158121490510D+03 -.401133246735225D+02 -.460906571579389D+02 0.111515740446725D+03
 0.127796203119325D+03 -.102692491129593D+03 -.596277359525675D+02 0.472298094690752D+02
 0.170972947923918D+03 0.723801548795793D+02 -.814527875531255D+02 -.950949744057394D+02
 0.392685779640280D+03 -.199820205880075D+03 0.753926100915872D+02 0.329529909412359D+03
0.936899903601D-05 0.000000000000D+00 0.000000000000D+00 0.188670625150D-06 0.000000000000D+00  7 1 -1 23 -11 11 23 21 0 0.27771064D+00 0.10658237D-01 0.90632875D+05 0.90632875D+05 0.90632875D+05 0.11252442D+01  1  2  2  2  7  2       -1 0.254656573749D-03 0.100000000000D+01
-.504101409985D-06 0.000000000000D+00 -.359794232124D-07 0.188670625150D-06 0.000000000000D+00  7 1 -1 23 -11 11 23 21 2 0.27771064D+00 0.10658237D-01 0.90632875D+05 0.90632875D+05 0.90632875D+05 0.11252442D+01  1  2  3  2  7  2       -1 -.173489487377D-04 0.100000000000D+01
0.596862945308D-06 0.000000000000D+00 0.000000000000D+00 0.188670625150D-06 0.000000000000D+00  7 1 -1 23 -11 11 23 21 2 0.27771064D+00 0.10658237D-01 0.90632875D+05 0.90632875D+05 0.90632875D+05 0.11252442D+01  1  2 15  2  7  2       -1 0.205413919431D-04 0.100000000000D+01
  </mgrwgt>
  </event>
  <event>
  8     66 0.24912036E-05 0.55061263E+03 0.75467711E-02 0.91854019E-01
        1 -1    0    0  502    0 0.00000000E+00 0.00000000E+00 0.54792991E+03 0.54793000E+03 0.32000000E+00 0.0000E+00 0.9000E+01
       -1 -1    0    0    0  501 0.00000000E+00 0.00000000E+00 -.89730725E+03 0.89730731E+03 0.32000000E+00 0.0000E+00 0.9000E+01
       23  2    1    2    0    0 0.12811466E+02 0.17891959E+03 -.18207117E+03 0.27147974E+03 0.91514962E+02 0.0000E+00 0.0000E+00
       23  1    1    2    0    0 0.35854608E+03 0.19799141E+03 0.12629103E+03 0.43820151E+03 0.91188000E+02 0.0000E+00 0.9000E+01
      -13  1    3    3    0    0 -.24481727E+02 0.28632520E+02 -.80154348E+01 0.38515381E+02 0.10565837E+00 0.0000E+00 0.9000E+01
       13  1    3    3    0    0 0.37293193E+02 0.15028707E+03 -.17405573E+03 0.23296436E+03 0.10565837E+00 0.0000E+00 0.9000E+01
       23  1    1    2    0    0 -.21536358E+03 -.44612653E+03 -.21550793E+03 0.54787706E+03 0.91188000E+02 0.0000E+00 0.9000E+01
       21  1    1    2  502  501 -.15599397E+03 0.69215529E+02 -.78089278E+02 0.18767899E+03 0.75000000E+00 0.0000E+00 0.9000E+01
#aMCatNLO 2  0  0  1  2 0.17066021D+03 0.00000000D+00  -5  7  0 0.00000000D+00 0.00000000D+00 0.00000000D+00 0.00000000D+00 0.00000000D+00
  <mgrwgt>
 0.4935744167D-03    1    2    0
 0.608015377029462D+03 0.000000000000000D+00 0.000000000000000D+00 0.608015377029462D+03
 0.608015377029462D+03 0.000000000000000D+00 0.000000000000000D+00 -.608015377029462D+03
 0.446555986675991D+03 0.299581169065454D+03 0.224062961706920D+03 0.226150193952309D+03
 0.428233040814889D+02 -.296203360241794D+02 0.309254918916453D+02 0.291577657142085D+00
 0.205938039790334D+03 0.113736576587253D+02 0.161851102145682D+03 -.126827981448793D+03
 0.520713423511110D+03 -.281334490699999D+03 -.416839555744247D+03 -.996137901606584D+02
 0.000000000000000D+00 -.000000000000000D+00 0.000000000000000D+00 -.000000000000000D+00
 0.682194986794337D+03 0.000000000000000D+00 0.000000000000000D+00 0.682194986794337D+03
 0.720703705741999D+03 0.000000000000000D+00 0.000000000000000D+00 -.720703705741999D+03
 0.476609362390173D+03 0.358504856130842D+03 0.197918141866543D+03 0.226150193952309D+03
 0.376829797911666D+02 -.244817906027029D+02 0.286454861591966D+02 0.291577657142085D+00
 0.200202804282722D+03 0.372967666931373D+02 0.150348851537110D+03 -.126827981448793D+03
 0.513452613852584D+03 -.215325865028648D+03 -.446128008521706D+03 -.996137901606584D+02
 0.174950932219691D+03 -.155993967192628D+03 0.692155289588559D+02 -.385087189476618D+02
0.202209644440D-03 0.000000000000D+00 0.000000000000D+00 0.180070246752D-09 0.388007986415D-13  7 1 -1 23 -13 13 23 21 2 0.84296824D-01 0.13804712D+00 0.41375992D+06 0.41375992D+06 0.41375992D+06 0.10743703D+01  1  2  1  1  7  1        1 0.493574416692D-03 0.100000000000D+01
  </mgrwgt>
  </event>
  <event>
  8     66 0.24912036E-05 0.52819963E+03 0.75467711E-02 0.91067192E-01
        1 -1    0    0  501    0 0.00000000E+00 0.00000000E+00 0.32017999E+03 0.32018015E+03 0.32000000E+00 0.0000E+00 0.9000E+01
       -1 -1    0    0    0  501 0.00000000E+00 0.00000000E+00 -.10429467E+04 0.10429467E+04 0.32000000E+00 0.0000E+00 0.9000E+01
       25  2    1    2    0    0 -.15589854E+03 -.47217105E+03 -.15234986E+03 0.60044373E+03 0.30012054E+03 0.0000E+00 0.0000E+00
       23  2    1    2    0    0 0.15589854E+03 0.47217105E+03 -.57041683E+03 0.76268316E+03 0.95186073E+02 0.0000E+00 0.0000E+00
       23  1    3    3    0    0 -.38845673E+02 -.49749130E+02 0.33243368E+02 0.11577709E+03 0.91188000E+02 0.0000E+00 0.9000E+01
      -13  1    4    4    0    0 0.44150697E+02 0.10310202E+03 -.75188398E+02 0.13502821E+03 0.10565837E+00 0.0000E+00 0.9000E+01
       13  1    4    4    0    0 0.11174784E+03 0.36906903E+03 -.49522843E+03 0.62765496E+03 0.10565837E+00 0.0000E+00 0.9000E+01
       23  1    3    3    0    0 -.11705287E+03 -.42242192E+03 -.18559323E+03 0.48466664E+03 0.91188000E+02 0.0000E+00 0.9000E+01
#aMCatNLO 1  0  0  1  2 0.29057561D+03 0.00000000D+00  -5  7  0 0.00000000D+00 0.00000000D+00 0.00000000D+00 0.00000000D+00 0.00000000D+00
  <mgrwgt>
 0.1585135376D-03    7    2    0
 0.577867464234195D+03 0.000000000000000D+00 0.000000000000000D+00 0.577867464234195D+03
 0.577867464234195D+03 0.000000000000000D+00 0.000000000000000D+00 -.577867464234195D+03
 0.157342365397886D+03 -.388456730969084D+02 -.497491305158983D+02 0.111612751509682D+03
 0.112237201592193D+03 0.441506137807594D+02 0.103101688577146D+03 -.423727938304760D+01
 0.430582455541283D+03 0.111747926729735D+03 0.369069359479109D+03 -.191576250577275D+03
 0.455572905937028D+03 -.117052867413586D+03 -.422421917540357D+03 0.842007784506407D+02
 0.000000000000000D+00 -.000000000000000D+00 -.000000000000000D+00 0.000000000000000D+00
 0.744010256409590D+03 0.000000000000000D+00 0.000000000000000D+00 0.744010256409590D+03
 0.738324554184794D+03 0.000000000000000D+00 0.000000000000000D+00 -.738324554184794D+03
 0.146959966048054D+03 -.245466460310566D+02 -.149008773536725D+02 0.111612751509682D+03
 0.143925598500631D+03 0.561875863349523D+02 0.132437073771082D+03 -.423727938304760D+01
 0.540494310525617D+03 0.157378378836465D+03 0.480275635234727D+03 -.191576250577275D+03
 0.360323700636531D+03 -.787142598685938D+02 -.328986644254824D+03 0.842007784506407D+02
 0.290631234883551D+03 -.110305059271767D+03 -.268825187397314D+03 0.568570222479550D+01
0.511447193820D-04 0.000000000000D+00 0.000000000000D+00 0.273030204960D-06 0.000000000000D+00  7 1 -1 23 -13 13 23 21 0 0.49258477D-01 0.16045335D+00 0.27899485D+06 0.27899485D+06 0.27899485D+06 0.10868920D+01  1  2  2  1  7  1        1 0.149780205417D-03 0.100000000000D+01
-.281347089664D-05 0.000000000000D+00 -.196409189141D-06 0.273030204960D-06 0.000000000000D+00  7 1 -1 23 -13 13 23 21 2 0.49258477D-01 0.16045335D+00 0.27899485D+06 0.27899485D+06 0.27899485D+06 0.10868920D+01  1  2  3  1  7  1        1 -.973349483015D-05 0.100000000000D+01
0.312969017525D-05 0.000000000000D+00 0.000000000000D+00 0.273030204960D-06 0.000000000000D+00  7 1 -1 23 -13 13 23 21 2 0.49258477D-01 0.16045335D+00 0.27899485D+06 0.27899485D+06 0.27899485D+06 0.10868920D+01  1  2 15  1  7  1        1 0.108274882733D-04 0.100000000000D+01
-.182567572432D-04 0.000000000000D+00 0.000000000000D+00 0.273030204960D-06 0.000000000000D+00  7 1 -1 23 -13 13 23 21 2 0.49258477D-01 0.16045335D+00 0.27899485D+06 0.27899485D+06 0.27899485D+06 0.10868920D+01  1  2  4  1  7  1        1 -.631611481940D-04 0.100000000000D+01
-.294806397298D-04 0.000000000000D+00 -.199417344153D-04 0.273030204960D-06 0.000000000000D+00  7 1 -1 23 -13 13 23 21 2 0.79750348D-01 0.16045335D+00 0.27899485D+06 0.27899485D+06 0.27899485D+06 0.10868920D+01  1  2  5  1  7  1        1 -.528624057298D-04 0.100000000000D+01
0.368395873514D-04 0.000000000000D+00 0.178315792091D-04 0.273030204960D-06 0.000000000000D+00  7 1 -1 23 -13 13 23 21 2 0.49258477D-01 0.16045335D+00 0.27899485D+06 0.27899485D+06 0.27899485D+06 0.10868920D+01  1  2  6  1  7  1        1 0.127450379337D-03 0.100000000000D+01
-.752571696626D-06 0.000000000000D+00 -.109212058452D-05 0.273030204960D-06 0.000000000000D+00  7 21 -1 23 -13 13 23 -1 2 0.79750348D-01 0.16045335D+00 0.27899485D+06 0.27899485D+06 0.27899485D+06 0.10868920D+01  1  2  5  3  7  1        1 -.378748662677D-05 0.100000000000D+01
  </mgrwgt>
  </event>
  <event>
  8     66 0.24912036E-05 0.15069579E+03 0.75467711E-02 0.98967310E-01
        1 -1    0    0  501    0 0.00000000E+00 0.00000000E+00 0.42209087E+03 0.42209100E+03 0.32000000E+00 0.0000E+00 0.9000E+01
       -1 -1    0    0    0  501 0.00000000E+00 0.00000000E+00 -.49852945E+03 0.49852956E+03 0.32000000E+00 0.0000E+00 0.9000E+01
       25  2    1    2    0    0 0.19968293E+03 -.21021283E+03 0.24198192E+03 0.47981830E+03 0.29598589E+03 0.0000E+00 0.0000E+00
       23  2    1    2    0    0 -.19968293E+03 0.21021283E+03 -.31842050E+03 0.44080225E+03 0.94086675E+02 0.0000E+00 0.0000E+00
       23  1    3    3    0    0 0.14043522E+03 -.17558798E+03 0.37311840E+02 0.24548037E+03 0.91188000E+02 0.0000E+00 0.9000E+01
      -11  1    4    4    0    0 -.19638445E+03 0.21585480E+03 -.32095891E+03 0.43379116E+03 0.51099893E-03 0.0000E+00 0.9000E+01
       11  1    4    4    0    0 -.32984819E+01 -.56419755E+01 0.25384094E+01 0.70110907E+01 0.51099893E-03 0.0000E+00 0.9000E+01
       23  1    3    3    0    0 0.59247712E+02 -.34624845E+02 0.20467008E+03 0.23433793E+03 0.91188000E+02 0.0000E+00 0.9000E+01
#aMCatNLO 1  0  0  1  2 0.38959783D+02 0.00000000D+00  -5  7  0 0.00000000D+00 0.00000000D+00 0.00000000D+00 0.00000000D+00 0.00000000D+00
  <mgrwgt>
 0.5609655444D-03    9    2    0
 0.458720869640045D+03 0.000000000000000D+00 0.000000000000000D+00 0.458720869640045D+03
 0.458720869640045D+03 0.000000000000000D+00 0.000000000000000D+00 -.458720869640045D+03
 0.249439645813998D+03 0.140435219695573D+03 -.175587980193117D+03 0.578938324916461D+02
 0.408552823271089D+03 -.196384450105140D+03 0.215854800575649D+03 -.285928771249286D+03
 0.724687605035217D+01 -.329848186834100D+01 -.564197547832945D+01 0.313134836058265D+01
 0.252202394144650D+03 0.592477122779080D+02 -.346248449042024D+02 0.224903590397058D+03
 0.000000000000000D+00 0.000000000000000D+00 0.000000000000000D+00 0.000000000000000D+00
 0.556788287220051D+03 0.000000000000000D+00 0.000000000000000D+00 0.556788287220051D+03
 0.463020120160824D+03 0.000000000000000D+00 0.000000000000000D+00 -.463020120160824D+03
 0.255310967744321D+03 0.137646007785654D+03 -.185930953869018D+03 0.578938324916461D+02
 0.402242165691398D+03 -.200864838992187D+03 0.199240593475884D+03 -.285928771249286D+03
 0.752120461640592D+01 -.338008911234607D+01 -.594459198928930D+01 0.313134836058265D+01
 0.253194255356742D+03 0.564549304245393D+02 -.449810566675338D+02 0.224903590397058D+03
 0.101539813972008D+03 0.101439898943396D+02 0.376160090499573D+02 0.937681670592263D+02
0.377354279221D-04 0.000000000000D+00 0.000000000000D+00 0.884783202262D-08 0.000000000000D+00  7 1 -1 23 -11 11 23 21 0 0.64937075D-01 0.76696856D-01 0.10729239D+06 0.10729239D+06 0.10729239D+06 0.11192221D+01  1  2  2  1  7  1        1 0.464002392065D-03 0.100000000000D+01
-.180730153759D-05 0.000000000000D+00 -.144913979187D-06 0.884783202262D-08 0.000000000000D+00  7 1 -1 23 -11 11 23 21 2 0.64937075D-01 0.76696856D-01 0.10729239D+06 0.10729239D+06 0.10729239D+06 0.11192221D+01  1  2  3  1  7  1        1 -.278377494071D-04 0.100000000000D+01
0.235204602431D-05 0.000000000000D+00 0.000000000000D+00 0.884783202262D-08 0.000000000000D+00  7 1 -1 23 -11 11 23 21 2 0.64937075D-01 0.76696856D-01 0.10729239D+06 0.10729239D+06 0.10729239D+06 0.11192221D+01  1  2 15  1  7  1        1 0.362284137190D-04 0.100000000000D+01
0.312453683633D-03 0.000000000000D+00 0.000000000000D+00 0.884783202262D-08 0.000000000000D+00  7 1 -1 23 -11 11 23 21 2 0.79081080D-01 0.76696856D-01 0.12029736D+06 0.12029736D+06 0.12029736D+06 0.11151950D+01  1  2 12  1  7  1        1 0.363649626347D-02 0.100000000000D+01
-.312059534018D-03 0.000000000000D+00 0.000000000000D+00 0.884783202262D-08 0.000000000000D+00  7 1 -1 23 -11 11 23 21 2 0.64937075D-01 0.76696856D-01 0.10729239D+06 0.10729239D+06 0.10729239D+06 0.11192221D+01  1  2  4  1  7  1        1 -.480663294277D-02 0.100000000000D+01
-.358579966839D-03 0.000000000000D+00 -.280266874884D-04 0.884783202262D-08 0.000000000000D+00  7 1 -1 23 -11 11 23 21 2 0.79192399D-01 0.76696856D-01 0.10729239D+06 0.10729239D+06 0.10729239D+06 0.11192221D+01  1  2  5  1  7  1        1 -.421046270236D-02 0.100000000000D+01
0.357619293163D-03 0.000000000000D+00 0.274836591013D-04 0.884783202262D-08 0.000000000000D+00  7 1 -1 23 -11 11 23 21 2 0.64937075D-01 0.76696856D-01 0.10729239D+06 0.10729239D+06 0.10729239D+06 0.11192221D+01  1  2  6  1  7  1        1 0.550838698422D-02 0.100000000000D+01
0.884013144016D-05 0.000000000000D+00 0.000000000000D+00 0.884783202262D-08 0.000000000000D+00  7 21 -1 23 -11 11 23 -1 2 0.79081080D-01 0.76696856D-01 0.12029736D+06 0.12029736D+06 0.12029736D+06 0.11151950D+01  1  2 12  3  7  1        1 0.299842651876D-03 0.100000000000D+01
-.988227071829D-05 0.000000000000D+00 -.797295295909D-06 0.884783202262D-08 0.000000000000D+00  7 21 -1 23 -11 11 23 -1 2 0.79192399D-01 0.76696856D-01 0.10729239D+06 0.10729239D+06 0.10729239D+06 0.11192221D+01  1  2  5  3  7  1        1 -.339057766458D-03 0.100000000000D+01
  </mgrwgt>
  </event>
  <event>
  9     66 0.24912036E-05 0.16585927E+03 0.75467711E-02 0.10652200E+00
        3 -1    0    0  501    0 0.00000000E+00 0.00000000E+00 0.14348597E+03 0.14348684E+03 0.50000000E+00 0.0000E+00 0.9000E+01
       -3 -1    0    0    0  502 0.00000000E+00 0.00000000E+00 -.42325701E+03 0.42325731E+03 0.50000000E+00 0.0000E+00 0.9000E+01
       25  2    1    2    0    0 0.30859445E+02 0.83490362E+02 -.14684282E+03 0.34566184E+03 0.29999392E+03 0.0000E+00 0.0000E+00
       23  2    1    2    0    0 0.93792133E+01 -.45720894E+02 -.11536457E+03 0.16316230E+03 0.10552053E+03 0.0000E+00 0.0000E+00
       23  1    3    3    0    0 -.33472501E+02 0.24361028E+02 -.18785006E+03 0.21287734E+03 0.91188000E+02 0.0000E+00 0.9000E+01
      -11  1    4    4    0    0 -.46456657E+02 -.28799446E+02 -.39406002E+02 0.67382951E+02 0.51099893E-03 0.0000E+00 0.9000E+01
       11  1    4    4    0    0 0.55835870E+02 -.16921448E+02 -.75958573E+02 0.95779353E+02 0.51099893E-03 0.0000E+00 0.9000E+01
       23  1    3    3    0    0 0.64331945E+02 0.59129334E+02 0.41007242E+02 0.13278450E+03 0.91188000E+02 0.0000E+00 0.9000E+01
       21  1    1    2  501  502 -.40238658E+02 -.37769468E+02 -.17563651E+02 0.57920002E+02 0.75000000E+00 0.0000E+00 0.9000E+01
#aMCatNLO 2  0  0  2  1 0.55187701D+02 0.00000000D+00  -5  7  0 0.00000000D+00 0.00000000D+00 0.00000000D+00 0.00000000D+00 0.00000000D+00
  <mgrwgt>
 0.1096996997D-04    1    2    0
 0.216277375675086D+03 0.000000000000000D+00 0.000000000000000D+00 0.216277375675086D+03
 0.216277375675086D+03 0.000000000000000D+00 0.000000000000000D+00 -.216277375675086D+03
 0.137527663241500D+03 -.461178789546779D+02 0.124916182130566D+02 -.911905013025385D+02
 0.622132115592226D+02 -.518833901045435D+02 -.338931809930853D+02 -.546349759241339D+01
 0.629060291420273D+02 0.498602628812639D+02 -.225303702010775D+02 -.310403786451011D+02
 0.169907847407423D+03 0.481410061779575D+02 0.439319329811061D+02 0.127694377540053D+03
 0.000000000000000D+00 -.000000000000000D+00 -.000000000000000D+00 0.000000000000000D+00
 0.253706507747436D+03 0.000000000000000D+00 0.000000000000000D+00 0.253706507747436D+03
 0.239373241980240D+03 0.000000000000000D+00 0.000000000000000D+00 -.239373241980240D+03
 0.135443076489950D+03 -.334725006705195D+02 0.243610302761645D+02 -.911905013025385D+02
 0.549315823481862D+02 -.464566537648307D+02 -.287994488542384D+02 -.546349759241339D+01
 0.660869474275607D+02 0.558358666632911D+02 -.169214511145206D+02 -.310403786451011D+02
 0.179599507820882D+03 0.643319456328812D+02 0.591293377372828D+02 0.127694377540053D+03
 0.570186356410963D+02 -.402386578608221D+02 -.377694680446883D+02 0.143332657671959D+02
0.467044583319D-06 0.000000000000D+00 0.000000000000D+00 0.114791788931D-08 0.277198190553D-11  7 3 -3 23 -11 11 23 21 2 0.22074632D-01 0.65115897D-01 0.38933180D+05 0.38933180D+05 0.38933180D+05 0.11569766D+01  1  2  1  2  7  2       -3 0.109699699680D-04 0.100000000000D+01
  </mgrwgt>
  </event>
  <event>
  8     66 0.24912036E-05 0.25050364E+03 0.75467711E-02 0.98888022E-01
        1 -1    0    0  501    0 0.00000000E+00 0.00000000E+00 0.48605331E+03 0.48605342E+03 0.32000000E+00 0.0000E+00 0.9000E+01
       -1 -1    0    0    0  501 0.00000000E+00 0.00000000E+00 -.17294107E+03 0.17294137E+03 0.32000000E+00 0.0000E+00 0.9000E+01
       25  2    1    2    0    0 0.12346941E+03 0.95310325E+02 0.49956819E+02 0.34263609E+03 0.30095690E+03 0.0000E+00 0.0000E+00
       23  2    1    2    0    0 -.12346941E+03 -.95310325E+02 0.26315542E+03 0.31635869E+03 0.80643006E+02 0.0000E+00 0.0000E+00
       23  1    3    3    0    0 0.86261663E+02 -.64539873E+02 0.62711468E+02 0.15444886E+03 0.91188000E+02 0.0000E+00 0.9000E+01
      -13  1    4    4    0    0 -.12286824E+03 -.59897891E+02 0.18035486E+03 0.22630124E+03 0.10565837E+00 0.0000E+00 0.9000E+01
       13  1    4    4    0    0 -.60116653E+00 -.35412433E+02 0.82800558E+02 0.90057456E+02 0.10565837E+00 0.0000E+00 0.9000E+01
       23  1    3    3    0    0 0.37207745E+02 0.15985020E+03 -.12754648E+02 0.18818723E+03 0.91188000E+02 0.0000E+00 0.9000E+01
#aMCatNLO 1  0  0  2  2 0.17508234D+03 0.00000000D+00  -5  7  0 0.00000000D+00 0.00000000D+00 0.00000000D+00 0.00000000D+00 0.00000000D+00
  <mgrwgt>
 0.4220207416D-03    3    2    0
 0.289928804765765D+03 0.000000000000000D+00 0.000000000000000D+00 0.289928804765765D+03
 0.289928804765765D+03 0.000000000000000D+00 0.000000000000000D+00 -.289928804765765D+03
 0.141664541542836D+03 0.862616639812529D+02 -.645398721563415D+02 -.121293534770201D+02
 0.159798059606113D+03 -.122868447348221D+03 -.598979362809987D+02 0.827707782335860D+02
 0.576372924393567D+02 -.600962450684911D+00 -.354123901171202D+02 0.454715180092515D+02
 0.220757715943225D+03 0.372077458176535D+02 0.159850198554460D+03 -.116112942765817D+03
 0.000000000000000D+00 -.000000000000000D+00 -.000000000000000D+00 0.000000000000000D+00
 0.668971408357982D+03 0.000000000000000D+00 0.000000000000000D+00 0.668971408357982D+03
 0.323788523544235D+03 0.000000000000000D+00 0.000000000000000D+00 -.323788523544235D+03
 0.160936032506078D+03 0.125067753674818D+03 -.423803137053257D+02 -.121293534770201D+02
 0.125738764775275D+03 -.862506462994739D+02 -.389879628955086D+02 0.827707782335860D+02
 0.547475960207687D+02 0.138114955411496D+02 -.271824007568208D+02 0.454715180092515D+02
 0.264290965540524D+03 0.994113377922058D+02 0.195370503308376D+03 -.116112942765817D+03
 0.387046573059572D+03 -.152039940708700D+03 -.868198259507209D+02 0.345182884813747D+03
0.619433955882D-05 0.000000000000D+00 0.000000000000D+00 0.150862542720D-08 0.000000000000D+00  7 1 -1 23 -13 13 23 21 0 0.74777463D-01 0.26606349D-01 0.62752073D+05 0.62752073D+05 0.62752073D+05 0.11387173D+01  1  2  2  2  7  2       -1 0.416568560545D-03 0.100000000000D+01
-.335191311260D-06 0.000000000000D+00 -.237878949129D-07 0.150862542720D-08 0.000000000000D+00  7 1 -1 23 -13 13 23 21 2 0.74777463D-01 0.26606349D-01 0.62752073D+05 0.62752073D+05 0.62752073D+05 0.11387173D+01  1  2  3  2  7  2       -1 -.292291407478D-04 0.100000000000D+01
0.397715343232D-06 0.000000000000D+00 0.000000000000D+00 0.150862542720D-08 0.000000000000D+00  7 1 -1 23 -13 13 23 21 2 0.74777463D-01 0.26606349D-01 0.62752073D+05 0.62752073D+05 0.62752073D+05 0.11387173D+01  1  2 15  2  7  2       -1 0.346813218433D-04 0.100000000000D+01
  </mgrwgt>
  </event>
  <event>
  8     66 0.24912036E-05 0.29223201E+03 0.75467711E-02 0.92951104E-01
        1 -1    0    0  501    0 0.00000000E+00 0.00000000E+00 0.13859886E+04 0.13859887E+04 0.32000000E+00 0.0000E+00 0.9000E+01
       -1 -1    0    0    0  501 0.00000000E+00 0.00000000E+00 -.70003017E+02 0.70003749E+02 0.32000000E+00 0.0000E+00 0.9000E+01
       25  2    1    2    0    0 -.13562604E+03 0.18129563E+03 0.84521370E+03 0.92528224E+03 0.30082967E+03 0.0000E+00 0.0000E+00
       23  2    1    2    0    0 0.13562604E+03 -.18129563E+03 0.47077192E+03 0.53071019E+03 0.93619285E+02 0.0000E+00 0.0000E+00
       23  1    3    3    0    0 0.46012831E+02 0.45837492E+02 0.14178560E+03 0.18065620E+03 0.91188000E+02 0.0000E+00 0.9000E+01
      -13  1    4    4    0    0 0.12861645E+01 -.12348848E+02 -.42955879E+00 0.12423524E+02 0.10565837E+00 0.0000E+00 0.9000E+01
       13  1    4    4    0    0 0.13433988E+03 -.16894678E+03 0.47120148E+03 0.51828667E+03 0.10565837E+00 0.0000E+00 0.9000E+01
       23  1    3    3    0    0 -.18163887E+03 0.13545814E+03 0.70342810E+03 0.74462604E+03 0.91188000E+02 0.0000E+00 0.9000E+01
#aMCatNLO 1  0  0  2  2 0.43497923D+03 0.00000000D+00  -5  7  0 0.00000000D+00 0.00000000D+00 0.00000000D+00 0.00000000D+00 0.00000000D+00
  <mgrwgt>
 0.1950348663D-03    5    2    0
 0.311486671398940D+03 0.000000000000000D+00 0.000000000000000D+00 0.311486671398940D+03
 0.311486671398940D+03 0.000000000000000D+00 0.000000000000000D+00 -.311486671398940D+03
 0.122711918337418D+03 0.460128302226359D+02 0.458374933485816D+02 -.502464647161440D+02
 0.299430147904274D+02 0.128599811884637D+01 -.123486502365470D+02 -.272477738707863D+02
 0.215943798495847D+03 0.134340047266065D+03 -.168946984318195D+03 0.643368472603713D+01
 0.254374611174187D+03 -.181638875607547D+03 0.135458141206160D+03 0.710605538608932D+02
 0.000000000000000D+00 -.000000000000000D+00 -.000000000000000D+00 -.000000000000000D+00
 0.421979293535833D+03 0.000000000000000D+00 0.000000000000000D+00 0.421979293535833D+03
 0.150407033934003D+04 0.000000000000000D+00 0.000000000000000D+00 -.150407033934003D+04
 0.193874050709828D+03 0.991383617108791D+02 0.130072188477972D+03 -.502464647161440D+02
 0.297058297576673D+02 0.112955275329697D+02 0.352224338028069D+01 -.272477738707863D+02
 0.213634596131513D+03 0.206426566447966D+03 -.546481566900873D+02 0.643368472603713D+01
 0.322589915969580D+03 -.848198433345116D+02 0.288972307328838D+03 0.710605538608932D+02
 0.116624524030728D+04 -.232040612357303D+03 -.367918582497003D+03 -.108209104580420D+04
0.431987909630D-05 0.000000000000D+00 0.000000000000D+00 0.449809905393D-07 0.000000000000D+00  7 1 -1 23 -13 13 23 21 0 0.21322908D+00 0.10769754D-01 0.85399547D+05 0.85399547D+05 0.85399547D+05 0.11273907D+01  1  2  2  2  7  2       -1 0.218300695546D-03 0.100000000000D+01
-.238805224611D-06 0.000000000000D+00 -.165894731801D-07 0.449809905393D-07 0.000000000000D+00  7 1 -1 23 -13 13 23 21 2 0.21322908D+00 0.10769754D-01 0.85399547D+05 0.85399547D+05 0.85399547D+05 0.11273907D+01  1  2  3  2  7  2       -1 -.153382649363D-04 0.100000000000D+01
0.280234060869D-06 0.000000000000D+00 0.000000000000D+00 0.449809905393D-07 0.000000000000D+00  7 1 -1 23 -13 13 23 21 2 0.21322908D+00 0.10769754D-01 0.85399547D+05 0.85399547D+05 0.85399547D+05 0.11273907D+01  1  2 15  2  7  2       -1 0.179992053222D-04 0.100000000000D+01
-.263448577503D-05 0.000000000000D+00 -.215989798325D-05 0.449809905393D-07 0.000000000000D+00  7 1 -1 23 -13 13 23 21 2 0.21322908D+00 0.68755722D-01 0.85399547D+05 0.85399547D+05 0.85399547D+05 0.11273907D+01  1  2  5  2  7  2       -1 -.761169524189D-05 0.100000000000D+01
-.762790169848D-06 0.000000000000D+00 -.490578407734D-06 0.449809905393D-07 0.000000000000D+00  7 1 21 23 -13 13 23 1 2 0.21322908D+00 0.68755722D-01 0.85399547D+05 0.85399547D+05 0.85399547D+05 0.11273907D+01  1  2  5  4  7  2       -1 -.183150744148D-04 0.100000000000D+01
  </mgrwgt>
  </event>
  <event>
  8     66 0.24912036E-05 0.16555579E+03 0.75467711E-02 0.10766773E+00
        1 -1    0    0  501    0 0.00000000E+00 0.00000000E+00 0.13716988E+03 0.13717025E+03 0.32000000E+00 0.0000E+00 0.9000E+01
       -1 -1    0    0    0  501 0.00000000E+00 0.00000000E+00 -.30112328E+03 0.30112345E+03 0.32000000E+00 0.0000E+00 0.9000E+01
       25  2    1    2    0    0 0.23611400E+02 0.56297750E+01 -.13269541E+03 0.32948698E+03 0.30060672E+03 0.0000E+00 0.0000E+00
       23  2    1    2    0    0 -.23611400E+02 -.56297750E+01 -.31257986E+02 0.10880672E+03 0.10135408E+03 0.0000E+00 0.0000E+00
       23  1    3    3    0    0 -.10132826E+02 -.88501174E+02 0.15942578E+02 0.12847003E+03 0.91188000E+02 0.0000E+00 0.9000E+01
      -13  1    4    4    0    0 -.37749984E+02 0.17171430E+02 0.23616322E+02 0.47724848E+02 0.10565837E+00 0.0000E+00 0.9000E+01
       13  1    4    4    0    0 0.14138584E+02 -.22801205E+02 -.54874308E+02 0.61081874E+02 0.10565837E+00 0.0000E+00 0.9000E+01
       23  1    3    3    0    0 0.33744226E+02 0.94130949E+02 -.14863799E+03 0.20101694E+03 0.91188000E+02 0.0000E+00 0.9000E+01
#aMCatNLO 1  0  0  2  2 0.32685241D+02 0.00000000D+00  -5  7  0 0.00000000D+00 0.00000000D+00 0.00000000D+00 0.00000000D+00 0.00000000D+00
  <mgrwgt>
 0.2511386840D-03    3    2    0
 0.203236715360660D+03 0.000000000000000D+00 0.000000000000000D+00 0.203236715360660D+03
 0.203236715360660D+03 0.000000000000000D+00 0.000000000000000D+00 -.203236715360660D+03
 0.144953163865606D+03 -.101261820614188D+02 -.884978125000932D+02 0.690055504304306D+02
 0.609927675036644D+02 -.377573181898664D+02 0.171694816533549D+02 0.447181340243570D+02
 0.437263186216367D+02 0.141330181495169D+02 -.228023323501432D+02 -.345297317913119D+02
 0.156801180730412D+03 0.337504821017682D+02 0.941306631968816D+02 -.791939526634757D+02
 0.000000000000000D+00 -.000000000000000D+00 -.000000000000000D+00 0.000000000000000D+00
 0.408026574793622D+03 0.000000000000000D+00 0.000000000000000D+00 0.408026574793622D+03
 0.205201089379336D+03 0.000000000000000D+00 0.000000000000000D+00 -.205201089379336D+03
 0.139608818003084D+03 -.244024000648988D+01 -.800477979629816D+02 0.690055504304306D+02
 0.601680540054397D+02 -.344847972180513D+02 0.207673294626688D+02 0.447181340243570D+02
 0.432757417212328D+02 0.164829202343404D+02 -.202188225297936D+02 -.345297317913119D+02
 0.164732838293475D+03 0.424350288661577D+02 0.103678555424388D+03 -.791939526634757D+02
 0.205442212149726D+03 -.219929118759569D+02 -.241792643942811D+02 0.202825485414287D+03
0.181303132539D-05 0.000000000000D+00 0.000000000000D+00 0.108464849400D-08 0.000000000000D+00  7 1 -1 23 -13 13 23 21 0 0.21103100D-01 0.46326700D-01 0.27408719D+05 0.27408719D+05 0.27408719D+05 0.11709936D+01  1  2  2  2  7  2       -1 0.247202802080D-03 0.100000000000D+01
-.955741719712D-07 0.000000000000D+00 -.696251767161D-08 0.108464849400D-08 0.000000000000D+00  7 1 -1 23 -13 13 23 21 2 0.21103100D-01 0.46326700D-01 0.27408719D+05 0.27408719D+05 0.27408719D+05 0.11709936D+01  1  2  3  2  7  2       -1 -.178688927363D-04 0.100000000000D+01
0.116625765011D-06 0.000000000000D+00 0.000000000000D+00 0.108464849400D-08 0.000000000000D+00  7 1 -1 23 -13 13 23 21 2 0.21103100D-01 0.46326700D-01 0.27408719D+05 0.27408719D+05 0.27408719D+05 0.11709936D+01  1  2 15  2  7  2       -1 0.218047746822D-04 0.100000000000D+01
  </mgrwgt>
  </event>
  <event>
  8     66 0.24912036E-05 0.15792466E+03 0.75467711E-02 0.10148824E+00
        1 -1    0    0  501    0 0.00000000E+00 0.00000000E+00 0.10385813E+03 0.10385862E+03 0.32000000E+00 0.0000E+00 0.9000E+01
       -1 -1    0    0    0  501 0.00000000E+00 0.00000000E+00 -.10982237E+04 0.10982238E+04 0.32000000E+00 0.0000E+00 0.9000E+01
       25  2    1    2    0    0 0.20925688E+03 -.10207938E+03 -.79396007E+03 0.88005339E+03 0.29985452E+03 0.0000E+00 0.0000E+00
       23  2    1    2    0    0 -.20925688E+03 0.10207938E+03 -.20040552E+03 0.32202900E+03 0.96600522E+02 0.0000E+00 0.0000E+00
       23  1    3    3    0    0 0.89952826E+02 -.79808857E+02 -.13071149E+03 0.19965397E+03 0.91188000E+02 0.0000E+00 0.9000E+01
      -13  1    4    4    0    0 -.17439840E+02 0.14629173E+02 0.93810475E+01 0.24620641E+02 0.10565837E+00 0.0000E+00 0.9000E+01
       13  1    4    4    0    0 -.19181704E+03 0.87450210E+02 -.20978657E+03 0.29740836E+03 0.10565837E+00 0.0000E+00 0.9000E+01
       23  1    3    3    0    0 0.11930405E+03 -.22270526E+02 -.66324858E+03 0.68039942E+03 0.91188000E+02 0.0000E+00 0.9000E+01
#aMCatNLO 1  0  0  2  1 0.30946263D+02 0.00000000D+00  -5  7  0 0.00000000D+00 0.00000000D+00 0.00000000D+00 0.00000000D+00 0.00000000D+00
  <mgrwgt>
 0.4173720540D-03    9    2    0
 0.337727384066387D+03 0.000000000000000D+00 0.000000000000000D+00 0.337727384066387D+03
 0.337727384066387D+03 0.000000000000000D+00 0.000000000000000D+00 -.337727384066387D+03
 0.162891025719828D+03 0.899528278356242D+02 -.798088574967231D+02 0.612965736848318D+02
 0.576265025538735D+02 -.174396377904337D+02 0.146290873676020D+02 0.529401797609447D+02
 0.220451381895769D+03 -.191817246281179D+03 0.874502975381142D+02 0.644779130350465D+02
 0.234485857963303D+03 0.119304056235988D+03 -.222705274089932D+02 -.178714666480823D+03
 0.000000000000000D+00 -.000000000000000D+00 0.000000000000000D+00 -.000000000000000D+00
 0.348426488833077D+03 0.000000000000000D+00 0.000000000000000D+00 0.348426488833077D+03
 0.361225353923405D+03 0.000000000000000D+00 0.000000000000000D+00 -.361225353923405D+03
 0.168419269909109D+03 0.966451577145432D+02 -.833801096038408D+02 0.612965736848318D+02
 0.566664906643668D+02 -.151309669656605D+02 0.133971030367662D+02 0.529401797609447D+02
 0.211043036018094D+03 -.183101238889649D+03 0.827991431082191D+02 0.644779130350465D+02
 0.240034508393100D+03 0.128889169852497D+03 -.273854661252911D+02 -.178714666480823D+03
 0.334885377718116D+02 -.273021217117309D+02 0.145693295841466D+02 -.127988650903272D+02
0.155464484209D-04 0.000000000000D+00 0.000000000000D+00 0.437850696908D-07 0.000000000000D+00  7 1 -1 23 -13 13 23 21 0 0.15978215D-01 0.16895754D+00 0.71903597D+05 0.71903597D+05 0.71903597D+05 0.11336704D+01  1  2  2  2  7  2       -1 0.178782190658D-03 0.100000000000D+01
-.807802275428D-06 0.000000000000D+00 -.597024554103D-07 0.437850696908D-07 0.000000000000D+00  7 1 -1 23 -13 13 23 21 2 0.15978215D-01 0.16895754D+00 0.71903597D+05 0.71903597D+05 0.71903597D+05 0.11336704D+01  1  2  3  2  7  2       -1 -.119391036940D-04 0.100000000000D+01
0.993550040099D-06 0.000000000000D+00 0.000000000000D+00 0.437850696908D-07 0.000000000000D+00  7 1 -1 23 -13 13 23 21 2 0.15978215D-01 0.16895754D+00 0.71903597D+05 0.71903597D+05 0.71903597D+05 0.11336704D+01  1  2 15  2  7  2       -1 0.146844064627D-04 0.100000000000D+01
0.375214276983D-04 0.000000000000D+00 0.000000000000D+00 0.437850696908D-07 0.000000000000D+00  7 1 -1 23 -13 13 23 21 2 0.15978215D-01 0.18325019D+00 0.81002599D+05 0.81002599D+05 0.81002599D+05 0.11293090D+01  1  2 12  2  7  2       -1 0.421381646802D-03 0.100000000000D+01
-.356650747611D-04 0.000000000000D+00 0.000000000000D+00 0.437850696908D-07 0.000000000000D+00  7 1 -1 23 -13 13 23 21 2 0.15978215D-01 0.16895754D+00 0.71903597D+05 0.71903597D+05 0.71903597D+05 0.11336704D+01  1  2  4  2  7  2       -1 -.527120359498D-03 0.100000000000D+01
-.108953913166D-03 0.000000000000D+00 -.204696150123D-04 0.437850696908D-07 0.000000000000D+00  7 1 -1 23 -13 13 23 21 2 0.15978215D-01 0.18416439D+00 0.71903597D+05 0.71903597D+05 0.71903597D+05 0.11336704D+01  1  2  5  2  7  2       -1 -.121723357694D-02 0.100000000000D+01
0.110383618584D-03 0.000000000000D+00 0.203938332684D-04 0.437850696908D-07 0.000000000000D+00  7 1 -1 23 -13 13 23 21 2 0.15978215D-01 0.16895754D+00 0.71903597D+05 0.71903597D+05 0.71903597D+05 0.11336704D+01  1  2  6  2  7  2       -1 0.163144064888D-02 0.100000000000D+01
0.510114812538D-06 0.000000000000D+00 0.000000000000D+00 0.437850696908D-07 0.000000000000D+00  7 1 21 23 -13 13 23 1 2 0.15978215D-01 0.18325019D+00 0.81002599D+05 0.81002599D+05 0.81002599D+05 0.11293090D+01  1  2 12  4  7  2       -1 0.373504474358D-04 0.100000000000D+01
-.150326683087D-05 0.000000000000D+00 -.292018103287D-06 0.437850696908D-07 0.000000000000D+00  7 1 21 23 -13 13 23 1 2 0.15978215D-01 0.18416439D+00 0.71903597D+05 0.71903597D+05 0.71903597D+05 0.11336704D+01  1  2  5  4  7  2       -1 -.109974246106D-03 0.100000000000D+01
  </mgrwgt>
  </event>
  <event>
  9     66 0.24912036E-05 0.22782804E+03 0.75467711E-02 0.10216350E+00
        1 -1    0    0  501    0 0.00000000E+00 0.00000000E+00 0.31311054E+04 0.31311054E+04 0.32000000E+00 0.0000E+00 0.9000E+01
       21 -1    0    0  502  501 0.00000000E+00 0.00000000E+00 -.46637732E+02 0.46643762E+02 0.75000000E+00 0.0000E+00 0.9000E+01
       25  2    1    2    0    0 0.88212392E+02 0.12562132E+03 0.66089001E+03 0.74440559E+03 0.30627102E+03 0.0000E+00 0.0000E+00
       23  2    1    2    0    0 -.83182259E+02 -.37151973E+02 0.15221695E+04 0.15275903E+04 0.90734725E+02 0.0000E+00 0.0000E+00
       23  1    3    3    0    0 0.53283520E+02 0.18821885E+03 0.51228402E+03 0.55589175E+03 0.91188000E+02 0.0000E+00 0.9000E+01
      -11  1    4    4    0    0 0.15576099E+02 -.31598970E+01 0.75458448E+02 0.77114053E+02 0.51099893E-03 0.0000E+00 0.9000E+01
       11  1    4    4    0    0 -.98758357E+02 -.33992076E+02 0.14467110E+04 0.14504763E+04 0.51099893E-03 0.0000E+00 0.9000E+01
       23  1    3    3    0    0 0.34928872E+02 -.62597531E+02 0.14860599E+03 0.18851384E+03 0.91188000E+02 0.0000E+00 0.9000E+01
        1  1    1    2  502    0 -.50301328E+01 -.88469344E+02 0.90140820E+03 0.90575326E+03 0.32000000E+00 0.0000E+00 0.9000E+01
#aMCatNLO 2  0  0  2  2 0.88612228D+02 0.00000000D+00  -5  7  0 0.00000000D+00 0.00000000D+00 0.00000000D+00 0.00000000D+00 0.00000000D+00
  <mgrwgt>
 0.1786440291D-04    1    2    0
 0.311594560723344D+03 0.000000000000000D+00 0.000000000000000D+00 0.311594560723344D+03
 0.311594560723344D+03 0.000000000000000D+00 0.000000000000000D+00 -.311594560723344D+03
 0.204942093242501D+03 0.515378446665389D+02 0.157516130899111D+03 -.788576522115610D+02
 0.171276070318376D+02 0.154405116630028D+02 -.554458192664681D+01 0.491966802542914D+01
 0.225812717740570D+03 -.100540522441423D+03 -.653365689229209D+02 0.191348163309629D+03
 0.175306703431780D+03 0.335621661118817D+02 -.866349800495436D+02 -.117410179123497D+03
 0.000000000000000D+00 -.000000000000000D+00 -.000000000000000D+00 0.000000000000000D+00
 0.442396026783630D+03 0.000000000000000D+00 0.000000000000000D+00 0.442396026783630D+03
 0.330104932742982D+03 0.000000000000000D+00 0.000000000000000D+00 -.330104932742982D+03
 0.229780870757108D+03 0.532835198768008D+02 0.188218847141071D+03 -.788576522115610D+02
 0.166373954781881D+02 0.155760985372591D+02 -.315989701965098D+01 0.491966802542914D+01
 0.217997233891685D+03 -.987583574885901D+02 -.339920756738019D+02 0.191348163309629D+03
 0.165042050549811D+03 0.349288718805461D+02 -.625975307262763D+02 -.117410179123497D+03
 0.143043408849820D+03 -.503013280601602D+01 -.884693437213414D+02 0.112291094040649D+03
0.151521128911D-06 0.000000000000D+00 0.000000000000D+00 0.920592553233D-08 0.107009608017D-12  7 1 21 23 -11 11 23 1 2 0.48170874D+00 0.71754971D-02 0.73106992D+05 0.73106992D+05 0.73106992D+05 0.11330597D+01  1  2  1  4  7  2       -1 0.178644029091D-04 0.100000000000D+01
  </mgrwgt>
  </event>
  <event>
  8     66 0.24912036E-05 0.13577567E+03 0.75467711E-02 0.10111796E+00
        1 -1    0    0  501    0 0.00000000E+00 0.00000000E+00 0.15455106E+03 0.15455139E+03 0.32000000E+00 0.0000E+00 0.9000E+01
       -1 -1    0    0    0  501 0.00000000E+00 0.00000000E+00 -.58852070E+03 0.58852079E+03 0.32000000E+00 0.0000E+00 0.9000E+01
       25  2    1    2    0    0 -.15761855E+03 0.14277828E+03 -.27606842E+03 0.46320201E+03 0.30514436E+03 0.0000E+00 0.0000E+00
       23  2    1    2    0    0 0.15761855E+03 -.14277828E+03 -.15790123E+03 0.27987017E+03 0.90361889E+02 0.0000E+00 0.0000E+00
       23  1    3    3    0    0 0.16962269E+02 0.83900789E+02 -.21503223E+03 0.24875927E+03 0.91188000E+02 0.0000E+00 0.9000E+01
      -13  1    4    4    0    0 -.94719985E+01 -.87772970E+01 0.13274100E+01 0.12982021E+02 0.10565837E+00 0.0000E+00 0.9000E+01
       13  1    4    4    0    0 0.16709055E+03 -.13400099E+03 -.15922864E+03 0.26688815E+03 0.10565837E+00 0.0000E+00 0.9000E+01
       23  1    3    3    0    0 -.17458082E+03 0.58877496E+02 -.61036189E+02 0.21444274E+03 0.91188000E+02 0.0000E+00 0.9000E+01
#aMCatNLO 1  0  0  2  1 0.27306428D+02 0.00000000D+00  -5  7  0 0.00000000D+00 0.00000000D+00 0.00000000D+00 0.00000000D+00 0.00000000D+00
  <mgrwgt>
 0.2989699737D-03    9    2    0
 0.301590206103920D+03 0.000000000000000D+00 0.000000000000000D+00 0.301590206103920D+03
 0.301590206103920D+03 0.000000000000000D+00 0.000000000000000D+00 -.301590206103920D+03
 0.151743339283510D+03 0.169622006116238D+02 0.839007936047914D+02 -.859286346674239D+02
 0.169476187738711D+02 -.947223638403001D+01 -.877712883397750D+01 0.109754512172068D+02
 0.214226058492467D+03 0.167090830283705D+03 -.134001197457783D+03 -.413976475180777D+01
 0.220263395657993D+03 -.174580794511299D+03 0.588775326869691D+02 0.790929482020249D+02
 0.000000000000000D+00 0.000000000000000D+00 0.000000000000000D+00 -.000000000000000D+00
 0.314218558578801D+03 0.000000000000000D+00 0.000000000000000D+00 0.314218558578801D+03
 0.317030452800308D+03 0.000000000000000D+00 0.000000000000000D+00 -.317030452800308D+03
 0.149096163676202D+03 0.113796300950175D+02 0.800074274180449D+02 -.859286346674239D+02
 0.175440000357899D+02 -.101122849559179D+02 -.922350805305787D+01 0.109754512172068D+02
 0.211711178565181D+03 0.159186866083095D+03 -.139513537493322D+03 -.413976475180777D+01
 0.225446844767749D+03 -.182851679227803D+03 0.531092969264127D+02 0.790929482020249D+02
 0.274508243341874D+02 0.223974680056083D+02 0.156203212019222D+02 -.281189422150765D+01
0.409361384368D-05 0.000000000000D+00 0.000000000000D+00 0.510342697437D-08 0.000000000000D+00  7 1 -1 23 -13 13 23 21 0 0.23777118D-01 0.90541679D-01 0.77769010D+05 0.77769010D+05 0.77769010D+05 0.11307943D+01  1  2  2  2  7  2       -1 0.134307353895D-03 0.100000000000D+01
-.225726852748D-06 0.000000000000D+00 -.157205550330D-07 0.510342697437D-08 0.000000000000D+00  7 1 -1 23 -13 13 23 21 2 0.23777118D-01 0.90541679D-01 0.77769010D+05 0.77769010D+05 0.77769010D+05 0.11307943D+01  1  2  3  2  7  2       -1 -.946985593395D-05 0.100000000000D+01
0.270386997691D-06 0.000000000000D+00 0.000000000000D+00 0.510342697437D-08 0.000000000000D+00  7 1 -1 23 -13 13 23 21 2 0.23777118D-01 0.90541679D-01 0.77769010D+05 0.77769010D+05 0.77769010D+05 0.11307943D+01  1  2 15  2  7  2       -1 0.113434705857D-04 0.100000000000D+01
0.830764043229D-05 0.000000000000D+00 0.000000000000D+00 0.510342697437D-08 0.000000000000D+00  7 1 -1 23 -13 13 23 21 2 0.23777118D-01 0.96985397D-01 0.85739278D+05 0.85739278D+05 0.85739278D+05 0.11272470D+01  1  2 12  2  7  2       -1 0.298545105470D-03 0.100000000000D+01
-.687859493554D-05 0.000000000000D+00 0.000000000000D+00 0.510342697437D-08 0.000000000000D+00  7 1 -1 23 -13 13 23 21 2 0.23777118D-01 0.90541679D-01 0.77769010D+05 0.77769010D+05 0.77769010D+05 0.11307943D+01  1  2  4  2  7  2       -1 -.288575782077D-03 0.100000000000D+01
-.318731534940D-04 0.000000000000D+00 -.609752520381D-05 0.510342697437D-08 0.000000000000D+00  7 1 -1 23 -13 13 23 21 2 0.23777118D-01 0.98399647D-01 0.77769010D+05 0.77769010D+05 0.77769010D+05 0.11307943D+01  1  2  5  2  7  2       -1 -.111866617536D-02 0.100000000000D+01
0.322897931854D-04 0.000000000000D+00 0.607646804978D-05 0.510342697437D-08 0.000000000000D+00  7 1 -1 23 -13 13 23 21 2 0.23777118D-01 0.90541679D-01 0.77769010D+05 0.77769010D+05 0.77769010D+05 0.11307943D+01  1  2  6  2  7  2       -1 0.135464472162D-02 0.100000000000D+01
0.990648113976D-07 0.000000000000D+00 0.000000000000D+00 0.510342697437D-08 0.000000000000D+00  7 1 21 23 -13 13 23 1 2 0.23777118D-01 0.96985397D-01 0.85739278D+05 0.85739278D+05 0.85739278D+05 0.11272470D+01  1  2 12  4  7  2       -1 0.260062511363D-04 0.100000000000D+01
-.426674327166D-06 0.000000000000D+00 -.843496270120D-07 0.510342697437D-08 0.000000000000D+00  7 1 21 23 -13 13 23 1 2 0.23777118D-01 0.98399647D-01 0.77769010D+05 0.77769010D+05 0.77769010D+05 0.11307943D+01  1  2  5  4  7  2       -1 -.109165115676D-03 0.100000000000D+01
  </mgrwgt>
  </event>
  <event>
  8     66 0.24912036E-05 0.22075805E+03 0.75467711E-02 0.10480367E+00
        1 -1    0    0  501    0 0.00000000E+00 0.00000000E+00 0.26387794E+03 0.26387813E+03 0.32000000E+00 0.0000E+00 0.9000E+01
       -1 -1    0    0    0  501 0.00000000E+00 0.00000000E+00 -.21056649E+03 0.21056674E+03 0.32000000E+00 0.0000E+00 0.9000E+01
       25  2    1    2    0    0 0.58193585E+02 -.82743477E+02 -.21630970E+02 0.31732890E+03 0.29999459E+03 0.0000E+00 0.0000E+00
       23  2    1    2    0    0 -.58193585E+02 0.82743477E+02 0.74942418E+02 0.15711597E+03 0.94000460E+02 0.0000E+00 0.0000E+00
       23  1    3    3    0    0 0.13383982E+03 -.55880114E+01 0.33672903E+02 0.16550963E+03 0.91188000E+02 0.0000E+00 0.9000E+01
      -13  1    4    4    0    0 0.21970472E+02 -.12053922E+01 0.11229119E+02 0.24703419E+02 0.10565837E+00 0.0000E+00 0.9000E+01
       13  1    4    4    0    0 -.80164057E+02 0.83948869E+02 0.63713298E+02 0.13241255E+03 0.10565837E+00 0.0000E+00 0.9000E+01
       23  1    3    3    0    0 -.75646236E+02 -.77155465E+02 -.55303873E+02 0.15181926E+03 0.91188000E+02 0.0000E+00 0.9000E+01
#aMCatNLO 1  0  0  1  1 0.38288675D+01 0.00000000D+00  -5  7  0 0.00000000D+00 0.00000000D+00 0.00000000D+00 0.00000000D+00 0.00000000D+00
  <mgrwgt>
 0.1341089066D-03    8    2    0
 0.235720079416425D+03 0.000000000000000D+00 0.000000000000000D+00 0.235720079416425D+03
 0.235720079416425D+03 0.000000000000000D+00 0.000000000000000D+00 -.235720079416425D+03
 0.162756704466878D+03 0.133839823128098D+03 -.558802003988151D+01 0.151713309235595D+02
 0.235909123846886D+02 0.219705890545418D+02 -.120549252004513D+01 0.850712357513491D+01
 0.126051783652965D+03 -.801641844064114D+02 0.839489846650062D+02 0.491459426022471D+02
 0.159040758328318D+03 -.756462277762284D+02 -.771554721050796D+02 -.728243971009416D+02
 0.000000000000000D+00 0.000000000000000D+00 0.000000000000000D+00 -.000000000000000D+00
 0.235957441293231D+03 0.000000000000000D+00 0.000000000000000D+00 0.235957441293231D+03
 0.251691489131653D+03 0.000000000000000D+00 0.000000000000000D+00 -.251691489131653D+03
 0.162685303425582D+03 0.133691661579182D+03 -.690122807036184D+01 0.151713309235595D+02
 0.235814141630556D+02 0.219491132622415D+02 -.139584003676586D+01 0.850712357513491D+01
 0.125451428508712D+03 -.802786843927918D+02 0.829341309279575D+02 0.491459426022471D+02
 0.159737560821628D+03 -.757913555974093D+02 -.784417911373450D+02 -.728243971009416D+02
 0.161932235059060D+02 0.429265148777781D+00 0.380472831651518D+01 -.157340478384228D+02
0.116155151708D-05 0.000000000000D+00 0.000000000000D+00 0.482395772679D-07 0.000000000000D+00  7 1 -1 23 -13 13 23 21 0 0.40596640D-01 0.32394879D-01 0.48734118D+05 0.48734118D+05 0.48734118D+05 0.11482763D+01  1  2  2  1  7  1        1 0.126353620003D-03 0.100000000000D+01
-.641932285679D-07 0.000000000000D+00 -.446066366914D-08 0.482395772679D-07 0.000000000000D+00  7 1 -1 23 -13 13 23 21 2 0.40596640D-01 0.32394879D-01 0.48734118D+05 0.48734118D+05 0.48734118D+05 0.11482763D+01  1  2  3  1  7  1        1 -.920727710773D-05 0.100000000000D+01
0.732642445419D-07 0.000000000000D+00 0.000000000000D+00 0.482395772679D-07 0.000000000000D+00  7 1 -1 23 -13 13 23 21 2 0.40596640D-01 0.32394879D-01 0.48734118D+05 0.48734118D+05 0.48734118D+05 0.11482763D+01  1  2 15  1  7  1        1 0.105083389110D-04 0.100000000000D+01
-.154153413023D-06 0.000000000000D+00 0.000000000000D+00 0.482395772679D-07 0.000000000000D+00  7 1 -1 23 -13 13 23 21 2 0.40596640D-01 0.32394879D-01 0.48734118D+05 0.48734118D+05 0.48734118D+05 0.11482763D+01  1  2  4  1  7  1        1 -.221103256911D-04 0.100000000000D+01
0.192901989919D-07 0.000000000000D+00 0.000000000000D+00 0.482395772679D-07 0.000000000000D+00  7 1 -1 23 -13 13 23 21 2 0.43345110D-01 0.32394879D-01 0.48734118D+05 0.48734118D+05 0.48734118D+05 0.11482763D+01  1  2  5  1  7  1        1 0.254215006357D-05 0.100000000000D+01
-.192488821351D-07 0.000000000000D+00 0.000000000000D+00 0.482395772679D-07 0.000000000000D+00  7 1 -1 23 -13 13 23 21 2 0.40596640D-01 0.32394879D-01 0.48734118D+05 0.48734118D+05 0.48734118D+05 0.11482763D+01  1  2  6  1  7  1        1 -.276087985891D-05 0.100000000000D+01
0.145035088318D-06 0.000000000000D+00 0.000000000000D+00 0.482395772679D-07 0.231556072714D-07  7 1 -1 23 -13 13 23 21 2 0.40637519D-01 0.34589820D-01 0.49593997D+05 0.49593997D+05 0.49593997D+05 0.11476070D+01  1  2 11  1  7  1        1 0.185949799088D-04 0.100000000000D+01
0.148367376368D-07 0.000000000000D+00 0.000000000000D+00 0.482395772679D-07 0.449236420470D-11  7 21 -1 23 -13 13 23 -1 2 0.40637519D-01 0.34589820D-01 0.49593997D+05 0.49593997D+05 0.49593997D+05 0.11476070D+01  1  2 11  3  7  1        1 0.101883003965D-04 0.100000000000D+01
  </mgrwgt>
  </event>
  <event>
  8     66 0.24912036E-05 0.19463307E+03 0.75467711E-02 0.10141712E+00
        1 -1    0    0  501    0 0.00000000E+00 0.00000000E+00 0.48486476E+03 0.48486486E+03 0.32000000E+00 0.0000E+00 0.9000E+01
       -1 -1    0    0    0  501 0.00000000E+00 0.00000000E+00 -.15958729E+03 0.15958761E+03 0.32000000E+00 0.0000E+00 0.9000E+01
       25  2    1    2    0    0 0.11617763E+01 -.18303137E+03 0.19845561E+03 0.40371673E+03 0.30016784E+03 0.0000E+00 0.0000E+00
       23  2    1    2    0    0 -.11617763E+01 0.18303137E+03 0.12682186E+03 0.24073575E+03 0.91477252E+02 0.0000E+00 0.0000E+00
       23  1    3    3    0    0 -.93709671E+02 -.17263111E+03 0.97299470E+02 0.23741407E+03 0.91188000E+02 0.0000E+00 0.9000E+01
      -13  1    4    4    0    0 -.60998912E+01 0.44382017E+02 -.99776120E+01 0.45897015E+02 0.10565837E+00 0.0000E+00 0.9000E+01
       13  1    4    4    0    0 0.49381149E+01 0.13864935E+03 0.13679947E+03 0.19483874E+03 0.10565837E+00 0.0000E+00 0.9000E+01
       23  1    3    3    0    0 0.94871447E+02 -.10400255E+02 0.10115614E+03 0.16630265E+03 0.91188000E+02 0.0000E+00 0.9000E+01
#aMCatNLO 1  0  0  1  2 0.38388111D+02 0.00000000D+00  -5  7  0 0.00000000D+00 0.00000000D+00 0.00000000D+00 0.00000000D+00 0.00000000D+00
  <mgrwgt>
 0.2141424526D-03    9    2    0
 0.278169718010565D+03 0.000000000000000D+00 0.000000000000000D+00 0.278169718010565D+03
 0.278169718010565D+03 0.000000000000000D+00 0.000000000000000D+00 -.278169718010565D+03
 0.218127198927265D+03 -.937096701195200D+02 -.172631114069428D+03 -.261001867635744D+02
 0.589997242811120D+02 -.609990580313467D+01 0.443818919219567D+02 -.383927894775553D+02
 0.145714256662897D+03 0.493812953345721D+01 0.138649478127424D+03 0.445486440481005D+02
 0.133498256149857D+03 0.948714463891975D+02 -.104002559799529D+02 0.199443321930292D+02
 0.000000000000000D+00 0.000000000000000D+00 -.000000000000000D+00 0.000000000000000D+00
 0.309441920343304D+03 0.000000000000000D+00 0.000000000000000D+00 0.309441920343304D+03
 0.290866497953376D+03 0.000000000000000D+00 0.000000000000000D+00 -.290866497953376D+03
 0.221466636906633D+03 -.108235440977812D+03 -.168333269100257D+03 -.261001867635744D+02
 0.604124789169916D+02 -.100457170496665D+02 0.455493676573684D+02 -.383927894775553D+02
 0.148448329411617D+03 -.478206663875567D+01 0.141525462928896D+03 0.445486440481005D+02
 0.127334831709801D+03 0.862525774295750D+02 -.785012883286834D+01 0.199443321930292D+02
 0.426461413516380D+02 0.368106472366593D+02 -.108914326531392D+02 0.185754223899281D+02
0.161744282756D-05 0.000000000000D+00 0.000000000000D+00 0.543134872860D-06 0.000000000000D+00  7 1 -1 23 -13 13 23 21 0 0.74594611D-01 0.24551924D-01 0.70781695D+05 0.70781695D+05 0.70781695D+05 0.11342499D+01  1  2  2  1  7  1        1 0.124361375792D-03 0.100000000000D+01
-.896410630932D-07 0.000000000000D+00 -.621140634029D-08 0.543134872860D-06 0.000000000000D+00  7 1 -1 23 -13 13 23 21 2 0.74594611D-01 0.24551924D-01 0.70781695D+05 0.70781695D+05 0.70781695D+05 0.11342499D+01  1  2  3  1  7  1        1 -.886708845258D-05 0.100000000000D+01
0.101653712006D-06 0.000000000000D+00 0.000000000000D+00 0.543134872860D-06 0.000000000000D+00  7 1 -1 23 -13 13 23 21 2 0.74594611D-01 0.24551924D-01 0.70781695D+05 0.70781695D+05 0.70781695D+05 0.11342499D+01  1  2 15  1  7  1        1 0.100553521432D-04 0.100000000000D+01
0.310990402652D-05 0.000000000000D+00 0.000000000000D+00 0.543134872860D-06 0.000000000000D+00  7 1 -1 23 -13 13 23 21 2 0.84541600D-01 0.24551924D-01 0.81888923D+05 0.81888923D+05 0.81888923D+05 0.11289132D+01  1  2 12  1  7  1        1 0.256061265519D-03 0.100000000000D+01
-.301940177949D-05 0.000000000000D+00 0.000000000000D+00 0.543134872860D-06 0.000000000000D+00  7 1 -1 23 -13 13 23 21 2 0.74594611D-01 0.24551924D-01 0.70781695D+05 0.70781695D+05 0.70781695D+05 0.11342499D+01  1  2  4  1  7  1        1 -.298672301831D-03 0.100000000000D+01
-.776510869102D-05 0.000000000000D+00 -.161132445163D-05 0.543134872860D-06 0.000000000000D+00  7 1 -1 23 -13 13 23 21 2 0.85893067D-01 0.24551924D-01 0.70781695D+05 0.70781695D+05 0.70781695D+05 0.11342499D+01  1  2  5  1  7  1        1 -.631824078853D-03 0.100000000000D+01
0.792926451075D-05 0.000000000000D+00 0.159543091106D-05 0.543134872860D-06 0.000000000000D+00  7 1 -1 23 -13 13 23 21 2 0.74594611D-01 0.24551924D-01 0.70781695D+05 0.70781695D+05 0.70781695D+05 0.11342499D+01  1  2  6  1  7  1        1 0.784344666993D-03 0.100000000000D+01
0.611318263837D-07 0.000000000000D+00 0.000000000000D+00 0.543134872860D-06 0.000000000000D+00  7 21 -1 23 -13 13 23 -1 2 0.84541600D-01 0.24551924D-01 0.81888923D+05 0.81888923D+05 0.81888923D+05 0.11289132D+01  1  2 12  3  7  1        1 0.139000344369D-04 0.100000000000D+01
-.158455818013D-06 0.000000000000D+00 -.349575061725D-07 0.543134872860D-06 0.000000000000D+00  7 21 -1 23 -13 13 23 -1 2 0.85893067D-01 0.24551924D-01 0.70781695D+05 0.70781695D+05 0.70781695D+05 0.11342499D+01  1  2  5  3  7  1        1 -.352167731553D-04 0.100000000000D+01
  </mgrwgt>
  </event>
  <event>
  8     66 0.24912036E-05 0.53428473E+03 0.75467711E-02 0.92937100E-01
        1 -1    0    0  502    0 0.00000000E+00 0.00000000E+00 0.16699552E+04 0.16699553E+04 0.32000000E+00 0.0000E+00 0.9000E+01
       -1 -1    0    0    0  501 0.00000000E+00 0.00000000E+00 -.26612728E+03 0.26612747E+03 0.32000000E+00 0.0000E+00 0.9000E+01
       25  2    1    2    0    0 -.43942884E+03 0.19612166E+03 0.26600336E+03 0.62572492E+03 0.29868458E+03 0.0000E+00 0.0000E+00
       23  1    3    3    0    0 -.18019701E+03 -.37824182E+02 0.95370294E+02 0.22652235E+03 0.91188000E+02 0.0000E+00 0.9000E+01
      -11  1    1    2    0    0 0.40973506E+03 -.13860058E+02 0.88887445E+03 0.97886296E+03 0.51099893E-03 0.0000E+00 0.9000E+01
       11  1    1    2    0    0 0.31004591E+02 -.90779199E+02 0.21223669E+03 0.23290891E+03 0.51099893E-03 0.0000E+00 0.9000E+01
       23  1    3    3    0    0 -.25923184E+03 0.23394584E+03 0.17063307E+03 0.39920258E+03 0.91188000E+02 0.0000E+00 0.9000E+01
       21  1    1    2  502  501 -.13108064E+01 -.91482402E+02 0.36713455E+02 0.98585944E+02 0.75000000E+00 0.0000E+00 0.9000E+01
#aMCatNLO 2  0  0  1  2 0.91491793D+02 0.00000000D+00  -5  7  0 0.00000000D+00 0.00000000D+00 0.00000000D+00 0.00000000D+00 0.00000000D+00
  <mgrwgt>
 0.1690869222D-03    1    2    0
 0.612172703490958D+03 0.000000000000000D+00 0.000000000000000D+00 0.612172703490958D+03
 0.612172703490958D+03 0.000000000000000D+00 0.000000000000000D+00 -.612172703490958D+03
 0.236492434530727D+03 -.180447885282033D+03 -.553333084278880D+02 -.109499798730119D+03
 0.477149079592391D+03 0.409225951213024D+03 -.493910345814730D+02 0.240345357168874D+03
 0.119314022192625D+03 0.308808065669317D+02 -.994183675717517D+02 0.582940808909953D+02
 0.391389870666174D+03 -.259658872497922D+03 0.204142710581113D+03 -.189139639329751D+03
 0.000000000000000D+00 -.000000000000000D+00 -.000000000000000D+00 -.000000000000000D+00
 0.639796392752364D+03 0.000000000000000D+00 0.000000000000000D+00 0.639796392752364D+03
 0.694625781130734D+03 0.000000000000000D+00 0.000000000000000D+00 -.694625781130734D+03
 0.232824154268456D+03 -.180197005607425D+03 -.378241816170959D+02 -.109499798730119D+03
 0.475227113065229D+03 0.409735057081047D+03 -.138600605507280D+02 0.240345357168874D+03
 0.112251268460324D+03 0.310045929962973D+02 -.907791970506447D+02 0.582940808909953D+02
 0.407456570750077D+03 -.259231838082205D+03 0.233945841301242D+03 -.189139639329751D+03
 0.106663067339011D+03 -.131080638771399D+01 -.914824020827733D+02 -.548293883783707D+02
0.408158436747D-04 0.000000000000D+00 0.000000000000D+00 0.596326093813D-10 0.447569756672D-13  7 1 -1 23 -11 11 23 21 2 0.25691569D+00 0.40942593D-01 0.33858088D+06 0.33858088D+06 0.33858088D+06 0.10806859D+01  1  2  1  1  7  1        1 0.169086922189D-03 0.100000000000D+01
  </mgrwgt>
  </event>
  <event>
  8     66 0.24912036E-05 0.62807907E+03 0.75467711E-02 0.89216515E-01
        1 -1    0    0  501    0 0.00000000E+00 0.00000000E+00 0.18535241E+04 0.18535242E+04 0.32000000E+00 0.0000E+00 0.9000E+01
       -1 -1    0    0    0  501 0.00000000E+00 0.00000000E+00 -.37648098E+03 0.37648112E+03 0.32000000E+00 0.0000E+00 0.9000E+01
       25  2    1    2    0    0 -.46321083E+03 0.38021940E+03 0.40979212E+02 0.67124687E+03 0.29960306E+03 0.0000E+00 0.0000E+00
       23  2    1    2    0    0 0.46321083E+03 -.38021940E+03 0.14360639E+04 0.15587584E+04 0.91197952E+02 0.0000E+00 0.0000E+00
       23  1    3    3    0    0 -.85631919E+02 0.20153962E+02 -.45413513E+02 0.13459809E+03 0.91188000E+02 0.0000E+00 0.9000E+01
      -11  1    4    4    0    0 0.52460397E+02 -.33160051E+02 0.90638896E+02 0.10985032E+03 0.51099893E-03 0.0000E+00 0.9000E+01
       11  1    4    4    0    0 0.41075043E+03 -.34705935E+03 0.13454250E+04 0.14489081E+04 0.51099893E-03 0.0000E+00 0.9000E+01
       23  1    3    3    0    0 -.37757891E+03 0.36006544E+03 0.86392725E+02 0.53664878E+03 0.91188000E+02 0.0000E+00 0.9000E+01
#aMCatNLO 1  0  0  1  2 0.34995523D+03 0.00000000D+00  -5  7  0 0.00000000D+00 0.00000000D+00 0.00000000D+00 0.00000000D+00 0.00000000D+00
  <mgrwgt>
 0.2852012916D-03    4    2    0
 0.835354274109106D+03 0.000000000000000D+00 0.000000000000000D+00 0.835354274109106D+03
 0.835354274109106D+03 0.000000000000000D+00 0.000000000000000D+00 -.835354274109106D+03
 0.219806244858175D+03 -.856319190977702D+02 0.201539621287056D+02 -.179612154869317D+03
 0.664922807396964D+02 0.524603973452775D+02 -.331600511895515D+02 0.238650605163390D+02
 0.744487625717435D+03 0.410750432755208D+03 -.347059350554600D+03 0.514874464340981D+03
 0.639922396902906D+03 -.377578911002715D+03 0.360065439615446D+03 -.359127369988004D+03
 0.000000000000000D+00 0.000000000000000D+00 0.000000000000000D+00 -.000000000000000D+00
 0.949253521854084D+03 0.000000000000000D+00 0.000000000000000D+00 0.949253521854084D+03
 0.117317777056075D+04 0.000000000000000D+00 0.000000000000000D+00 -.117317777056075D+04
 0.230565999833949D+03 -.110505189105182D+03 -.193263017532286D+02 -.179612154869317D+03
 0.679546473808434D+02 0.450351290606047D+02 -.449458578480922D+02 0.238650605163390D+02
 0.776290056835242D+03 0.326760545800168D+03 -.480372859369913D+03 0.514874464340981D+03
 0.632156112931867D+03 -.447833578377648D+03 0.248553249779798D+03 -.359127369988004D+03
 0.415464475432929D+03 0.186543092622058D+03 0.296091769191436D+03 -.223924248706662D+03
0.246882186829D-03 0.000000000000D+00 0.000000000000D+00 0.770060188909D-05 0.000000000000D+00  7 1 -1 23 -11 11 23 21 0 0.28515757D+00 0.57920163D-01 0.39448332D+06 0.39448332D+06 0.39448332D+06 0.10758627D+01  1  2  2  1  7  1        1 0.348769374956D-03 0.100000000000D+01
-.123593423107D-04 0.000000000000D+00 -.948092602998D-06 0.770060188909D-05 0.000000000000D+00  7 1 -1 23 -11 11 23 21 2 0.28515757D+00 0.57920163D-01 0.39448332D+06 0.39448332D+06 0.39448332D+06 0.10758627D+01  1  2  3  1  7  1        1 -.202095963365D-04 0.100000000000D+01
0.153038420092D-04 0.000000000000D+00 0.000000000000D+00 0.770060188909D-05 0.000000000000D+00  7 1 -1 23 -11 11 23 21 2 0.28515757D+00 0.57920163D-01 0.39448332D+06 0.39448332D+06 0.39448332D+06 0.10758627D+01  1  2 15  1  7  1        1 0.250243468971D-04 0.100000000000D+01
-.418200758692D-04 0.000000000000D+00 0.000000000000D+00 0.770060188909D-05 0.000000000000D+00  7 1 -1 23 -11 11 23 21 2 0.28515757D+00 0.57920163D-01 0.39448332D+06 0.39448332D+06 0.39448332D+06 0.10758627D+01  1  2  4  1  7  1        1 -.683828338784D-04 0.100000000000D+01
  </mgrwgt>
  </event>
  <event>
  9     66 0.24912036E-05 0.25548240E+03 0.75467711E-02 0.10010847E+00
        1 -1    0    0  502    0 0.00000000E+00 0.00000000E+00 0.40534350E+04 0.40534350E+04 0.32000000E+00 0.0000E+00 0.9000E+01
       -1 -1    0    0    0  501 0.00000000E+00 0.00000000E+00 -.14703957E+03 0.14703992E+03 0.32000000E+00 0.0000E+00 0.9000E+01
       25  2    1    2    0    0 0.23279866E+03 -.10992619E+03 0.27846523E+04 0.28125748E+04 0.30001632E+03 0.0000E+00 0.0000E+00
       23  2    1    2    0    0 -.14971620E+03 0.25019616E+01 -.70847376E+02 0.18760207E+03 0.88056722E+02 0.0000E+00 0.0000E+00
       23  1    3    3    0    0 0.16701218E+02 -.50669174E+02 0.15994124E+04 0.16028978E+04 0.91188000E+02 0.0000E+00 0.9000E+01
      -11  1    4    4    0    0 -.13592910E+03 -.82631195E+00 -.23210963E+02 0.13789906E+03 0.51099893E-03 0.0000E+00 0.9000E+01
       11  1    4    4    0    0 -.13787105E+02 0.33282736E+01 -.47636412E+02 0.49703012E+02 0.51099893E-03 0.0000E+00 0.9000E+01
       23  1    3    3    0    0 0.21609744E+03 -.59257013E+02 0.11852399E+04 0.12096770E+04 0.91188000E+02 0.0000E+00 0.9000E+01
       21  1    1    2  502  501 -.83082460E+02 0.10742422E+03 0.11925905E+04 0.12002981E+04 0.75000000E+00 0.0000E+00 0.9000E+01
#aMCatNLO 2  0  0  1  2 0.13580375D+03 0.00000000D+00  -5  7  0 0.00000000D+00 0.00000000D+00 0.00000000D+00 0.00000000D+00 0.00000000D+00
  <mgrwgt>
 0.1640802212D-04    2    2    0
 0.635979882483319D+03 0.000000000000000D+00 0.000000000000000D+00 0.635979882483319D+03
 0.635979882483319D+03 0.000000000000000D+00 0.000000000000000D+00 -.635979882483319D+03
 0.362946411752597D+03 -.704580859697101D+01 -.199646675050410D+02 0.350665959415387D+03
 0.383594017873470D+03 -.160558014338009D+03 0.310184653977515D+02 -.346991857807235D+03
 0.220051584428175D+03 -.280410426937489D+02 0.217583753814608D+02 -.217170377433841D+03
 0.305367750912397D+03 0.195644865628729D+03 -.328121732741713D+02 0.213496275825688D+03
 0.000000000000000D+00 -.000000000000000D+00 0.000000000000000D+00 0.000000000000000D+00
 0.907441743347749D+03 0.000000000000000D+00 0.000000000000000D+00 0.907441743347749D+03
 0.656808244193883D+03 0.000000000000000D+00 0.000000000000000D+00 -.656808244193883D+03
 0.366235118836312D+03 0.167012177140886D+02 -.506691736581578D+02 0.350665959415387D+03
 0.372667078497946D+03 -.135929096297451D+03 -.826311948906270D+00 -.346991857807235D+03
 0.217633027154458D+03 -.137871051607941D+02 0.332827356770562D+01 -.217170377433841D+03
 0.322653699338384D+03 0.216097443316716D+03 -.592570126928833D+02 0.213496275825688D+03
 0.285061063714532D+03 -.830824595725596D+02 0.107424224732242D+03 0.250633499153866D+03
-.848064783794D-04 0.000000000000D+00 0.000000000000D+00 0.603334437570D-06 0.000000000000D+00  7 1 -1 23 -11 11 23 21 2 0.62840832D+00 0.21904123D-01 0.10032601D+06 0.10032601D+06 0.10032601D+06 0.11216061D+01  1  2 13  1  7  1        1 -.181144732747D-04 0.100000000000D+01
0.159180917884D-03 0.000000000000D+00 0.000000000000D+00 0.603334437570D-06 0.230319216329D-09  7 1 -1 23 -11 11 23 21 2 0.62360496D+00 0.22621483D-01 0.10032601D+06 0.10032601D+06 0.10032601D+06 0.11216061D+01  1  2  1  1  7  1        1 0.345224953920D-04 0.100000000000D+01
  </mgrwgt>
  </event>
  <event>
  8     66 0.24912036E-05 0.18208162E+03 0.75467711E-02 0.10642419E+00
        1 -1    0    0  501    0 0.00000000E+00 0.00000000E+00 0.10226115E+03 0.10226165E+03 0.32000000E+00 0.0000E+00 0.9000E+01
       -1 -1    0    0    0  501 0.00000000E+00 0.00000000E+00 -.10045781E+04 0.10045782E+04 0.32000000E+00 0.0000E+00 0.9000E+01
       25  2    1    2    0    0 -.93357501E+02 0.34266178E+02 -.16432120E+03 0.35627163E+03 0.30006370E+03 0.0000E+00 0.0000E+00
       23  2    1    2    0    0 0.93357501E+02 -.34266178E+02 -.73799579E+03 0.75056822E+03 0.93941794E+02 0.0000E+00 0.0000E+00
       23  1    3    3    0    0 -.50444598E+02 0.70576681E+02 0.34434311E+02 0.13048639E+03 0.91188000E+02 0.0000E+00 0.9000E+01
      -11  1    4    4    0    0 0.19811218E+02 0.28351707E+02 -.30354376E+03 0.30550796E+03 0.51099893E-03 0.0000E+00 0.9000E+01
       11  1    4    4    0    0 0.73546283E+02 -.62617885E+02 -.43445204E+03 0.44506025E+03 0.51099893E-03 0.0000E+00 0.9000E+01
       23  1    3    3    0    0 -.42912903E+02 -.36310503E+02 -.19875551E+03 0.22578524E+03 0.91188000E+02 0.0000E+00 0.9000E+01
#aMCatNLO 1  0  0  1  2 0.30034201D+02 0.00000000D+00  -5  7  0 0.00000000D+00 0.00000000D+00 0.00000000D+00 0.00000000D+00 0.00000000D+00
  <mgrwgt>
 0.1680724050D-03    4    2    0
 0.320514621198780D+03 0.000000000000000D+00 0.000000000000000D+00 0.320514621198780D+03
 0.320514621198780D+03 0.000000000000000D+00 0.000000000000000D+00 -.320514621198780D+03
 0.273775656530350D+03 -.504445976793559D+02 0.705766810342458D+02 0.243129869460299D+03
 0.100238325789512D+03 0.198112176580500D+02 0.283517067187761D+02 -.940819766911933D+02
 0.156930384307768D+03 0.735462832155104D+02 -.626178846988100D+02 -.123681406282490D+03
 0.110084875769929D+03 -.429129031942045D+02 -.363105030542118D+02 -.253664864866162D+02
 0.000000000000000D+00 0.000000000000000D+00 -.000000000000000D+00 -.000000000000000D+00
 0.324515399257788D+03 0.000000000000000D+00 0.000000000000000D+00 0.324515399257788D+03
 0.382664709450100D+03 0.000000000000000D+00 0.000000000000000D+00 -.382664709450100D+03
 0.278033770601562D+03 -.601533607856454D+02 0.791009861716757D+02 0.243129869460299D+03
 0.100527201754635D+03 0.162788659964148D+02 0.314531155271730D+02 -.940819766911933D+02
 0.152577418010297D+03 0.681006750317705D+02 -.578366344706514D+02 -.123681406282490D+03
 0.110594063861770D+03 -.467956196576896D+02 -.329014735481331D+02 -.253664864866162D+02
 0.654476544796231D+02 0.225694394151498D+02 -.198159936800643D+02 -.581493101923116D+02
0.120702474696D-04 0.000000000000D+00 0.000000000000D+00 0.115029792625D-06 0.000000000000D+00  7 1 -1 23 -11 11 23 21 0 0.15732527D-01 0.15455053D+00 0.33153715D+05 0.33153715D+05 0.33153715D+05 0.11633295D+01  1  2  2  1  7  1        1 0.188658651340D-03 0.100000000000D+01
-.409864697309D-06 0.000000000000D+00 -.463529284523D-07 0.115029792625D-06 0.000000000000D+00  7 1 -1 23 -11 11 23 21 2 0.15732527D-01 0.15455053D+00 0.33153715D+05 0.33153715D+05 0.33153715D+05 0.11633295D+01  1  2  3  1  7  1        1 -.866974917809D-05 0.100000000000D+01
0.708409404223D-06 0.000000000000D+00 0.000000000000D+00 0.115029792625D-06 0.000000000000D+00  7 1 -1 23 -11 11 23 21 2 0.15732527D-01 0.15455053D+00 0.33153715D+05 0.33153715D+05 0.33153715D+05 0.11633295D+01  1  2 15  1  7  1        1 0.149847788559D-04 0.100000000000D+01
-.127176497589D-05 0.000000000000D+00 0.000000000000D+00 0.115029792625D-06 0.000000000000D+00  7 1 -1 23 -11 11 23 21 2 0.15732527D-01 0.15455053D+00 0.33153715D+05 0.33153715D+05 0.33153715D+05 0.11633295D+01  1  2  4  1  7  1        1 -.269012760232D-04 0.100000000000D+01
  </mgrwgt>
  </event>
  <event>
  7     66 0.24912036E-05 0.13906708E+04 0.75467711E-02 0.83154098E-01
        1 -1    0    0  501    0 0.00000000E+00 0.00000000E+00 0.23168292E+04 0.23168292E+04 0.32000000E+00 0.0000E+00 0.9000E+01
       -1 -1    0    0    0  501 0.00000000E+00 0.00000000E+00 -.83715624E+03 0.83715630E+03 0.32000000E+00 0.0000E+00 0.9000E+01
       23  2    1    2    0    0 -.68995461E+03 -.10996315E+04 0.66439564E+03 0.14611885E+04 0.91778676E+02 0.0000E+00 0.0000E+00
       23  1    1    2    0    0 0.33431770E+03 0.10581389E+04 0.63318396E+03 0.12808838E+04 0.91188000E+02 0.0000E+00 0.9000E+01
      -11  1    3    3    0    0 -.21185950E+03 -.31528068E+03 0.23995565E+03 0.44929397E+03 0.51099893E-03 0.0000E+00 0.9000E+01
       11  1    3    3    0    0 -.47809512E+03 -.78435084E+03 0.42443999E+03 0.10118945E+04 0.51099893E-03 0.0000E+00 0.9000E+01
       23  1    1    2    0    0 0.35563691E+03 0.41492647E+02 0.18209333E+03 0.41191320E+03 0.91188000E+02 0.0000E+00 0.9000E+01
#aMCatNLO 1  0  0  2  2 0.36530133D+03 0.00000000D+00  -5  7  0 0.00000000D+00 0.00000000D+00 0.00000000D+00 0.00000000D+00 0.00000000D+00
  <mgrwgt>
 0.2128981420D-02    4    2    0
 0.139267660583074D+04 0.000000000000000D+00 0.000000000000000D+00 0.139267660583074D+04
 0.139267660583074D+04 0.000000000000000D+00 0.000000000000000D+00 -.139267660583074D+04
 0.111403603158596D+04 0.334317707310768D+03 0.105813886907333D+04 0.365353618085828D+02
 0.381284058176611D+03 -.211859496735555D+03 -.315280682889606D+03 0.330329783587017D+02
 0.920338651970310D+03 -.478095118311359D+03 -.784350838951085D+03 -.569390340109802D+02
 0.369694469928602D+03 0.355636907736145D+03 0.414926527673585D+02 -.126293061563043D+02
 0.000000000000000D+00 -.000000000000000D+00 -.000000000000000D+00 0.000000000000000D+00
 0.161982499577663D+04 0.000000000000000D+00 0.000000000000000D+00 0.161982499577663D+04
 0.155961150556005D+04 0.000000000000000D+00 0.000000000000000D+00 -.155961150556005D+04
 0.126791460534516D+04 0.399787399743162D+03 0.119921949510825D+04 0.365353618085828D+02
 0.335345669604845D+03 -.192162393387431D+03 -.272835399153206D+03 0.330329783587017D+02
 0.808515416056997D+03 -.430576272899823D+03 -.681952489271366D+03 -.569390340109802D+02
 0.397430171074366D+03 0.376721901490878D+03 0.869287012401959D+02 -.126293061563043D+02
 0.370230639255319D+03 -.153770634946786D+03 -.331360307923871D+03 0.602134902165741D+02
0.325711579500D-01 0.000000000000D+00 0.000000000000D+00 0.264867310097D-09 0.000000000000D+00  7 1 -1 23 -11 11 23 21 0 0.35643526D+00 0.12879327D+00 0.19339652D+07 0.19339652D+07 0.19339652D+07 0.10293121D+01  1  2  2  2  7  2       -1 0.350677742288D-02 0.100000000000D+01
-.180950420453D-02 0.000000000000D+00 -.125081822711D-03 0.264867310097D-09 0.000000000000D+00  7 1 -1 23 -11 11 23 21 2 0.35643526D+00 0.12879327D+00 0.19339652D+07 0.19339652D+07 0.19339652D+07 0.10293121D+01  1  2  3  2  7  2       -1 -.206409053583D-03 0.100000000000D+01
0.209557206919D-02 0.000000000000D+00 0.000000000000D+00 0.264867310097D-09 0.000000000000D+00  7 1 -1 23 -11 11 23 21 2 0.35643526D+00 0.12879327D+00 0.19339652D+07 0.19339652D+07 0.19339652D+07 0.10293121D+01  1  2 15  2  7  2       -1 0.239040642423D-03 0.100000000000D+01
-.123646449282D-01 0.000000000000D+00 0.000000000000D+00 0.264867310097D-09 0.000000000000D+00  7 1 -1 23 -11 11 23 21 2 0.35643526D+00 0.12879327D+00 0.19339652D+07 0.19339652D+07 0.19339652D+07 0.10293121D+01  1  2  4  2  7  2       -1 -.141042759178D-02 0.100000000000D+01
  </mgrwgt>
  </event>
  <event>
  7     66 0.24912036E-05 0.40009607E+03 0.75467711E-02 0.88063112E-01
        1 -1    0    0  501    0 0.00000000E+00 0.00000000E+00 0.28092721E+04 0.28092721E+04 0.32000000E+00 0.0000E+00 0.9000E+01
       -1 -1    0    0    0  501 0.00000000E+00 0.00000000E+00 -.10376082E+03 0.10376131E+03 0.32000000E+00 0.0000E+00 0.9000E+01
       23  2    1    2    0    0 -.34952857E+03 -.99401615E+02 0.18762087E+04 0.19132065E+04 0.90271075E+02 0.0000E+00 0.0000E+00
       23  1    1    2    0    0 0.80951297E+02 -.22647744E+02 0.60651563E+03 0.61906582E+03 0.91188000E+02 0.0000E+00 0.9000E+01
      -13  1    3    3    0    0 -.39437343E+02 -.30192003E+02 0.15021145E+03 0.15820983E+03 0.10565837E+00 0.0000E+00 0.9000E+01
       13  1    3    3    0    0 -.31009122E+03 -.69209612E+02 0.17259973E+04 0.17549966E+04 0.10565837E+00 0.0000E+00 0.9000E+01
       23  1    1    2    0    0 0.26857727E+03 0.12204936E+03 0.22278694E+03 0.38076117E+03 0.91188000E+02 0.0000E+00 0.9000E+01
#aMCatNLO 1  0  0  2  2 0.76749182D+03 0.00000000D+00  -5  7  0 0.00000000D+00 0.00000000D+00 0.00000000D+00 0.00000000D+00 0.00000000D+00
  <mgrwgt>
 0.1039506325D-02    5    2    0
 0.539901033768080D+03 0.000000000000000D+00 0.000000000000000D+00 0.539901033768080D+03
 0.539901033768080D+03 0.000000000000000D+00 0.000000000000000D+00 -.539901033768080D+03
 0.150419411026248D+03 0.809519744717847D+02 -.226468868806695D+02 0.851154757562757D+02
 0.504457595664347D+02 -.394371434922781D+02 -.301919976505686D+02 0.882777714218420D+01
 0.409946615345514D+03 -.310092981281575D+03 -.692100605472170D+02 0.259053156537801D+03
 0.468990281597963D+03 0.268578150302068D+03 0.122048945078455D+03 -.352996409436261D+03
 0.000000000000000D+00 -.000000000000000D+00 0.000000000000000D+00 -.000000000000000D+00
 0.894265609811426D+03 0.000000000000000D+00 0.000000000000000D+00 0.894265609811426D+03
 0.129745763647607D+04 0.000000000000000D+00 0.000000000000000D+00 -.129745763647607D+04
 0.240642926799367D+03 0.182243819227231D+03 -.955840625565832D+02 0.851154757562757D+02
 0.516826399697607D+02 -.129841384587034D+02 -.492400017613430D+02 0.882777714218420D+01
 0.352833599855564D+03 -.112519838415725D+03 -.211476469702274D+03 0.259053156537801D+03
 0.679611078168497D+03 0.566085579082488D+03 -.921771029339651D+02 -.352996409436261D+03
 0.866953001494303D+03 -.622825421435291D+03 0.448477636954166D+03 -.403192026664641D+03
0.311469935571D-03 0.000000000000D+00 0.000000000000D+00 0.351407296602D-09 0.000000000000D+00  7 1 -1 23 -13 13 23 21 0 0.43219575D+00 0.15963243D-01 0.16007686D+06 0.16007686D+06 0.16007686D+06 0.11053304D+01  1  2  2  2  7  2       -1 0.923401525645D-03 0.100000000000D+01
-.154143977423D-04 0.000000000000D+00 -.119612656451D-05 0.351407296602D-09 0.000000000000D+00  7 1 -1 23 -13 13 23 21 2 0.43219575D+00 0.15963243D-01 0.16007686D+06 0.16007686D+06 0.16007686D+06 0.11053304D+01  1  2  3  2  7  2       -1 -.558322694528D-04 0.100000000000D+01
0.193223160947D-04 0.000000000000D+00 0.000000000000D+00 0.351407296602D-09 0.000000000000D+00  7 1 -1 23 -13 13 23 21 2 0.43219575D+00 0.15963243D-01 0.16007686D+06 0.16007686D+06 0.16007686D+06 0.11053304D+01  1  2 15  2  7  2       -1 0.699870845874D-04 0.100000000000D+01
0.281954321202D-03 0.000000000000D+00 -.146280765876D-03 0.351407296602D-09 0.000000000000D+00  7 1 -1 23 -13 13 23 21 2 0.43219575D+00 0.94448009D-01 0.16007686D+06 0.16007686D+06 0.16007686D+06 0.11053304D+01  1  2  5  2  7  2       -1 0.434489421920D-04 0.100000000000D+01
0.524805033501D-04 0.000000000000D+00 -.318689916900D-04 0.351407296602D-09 0.000000000000D+00  7 1 21 23 -13 13 23 1 2 0.43219575D+00 0.94448009D-01 0.16007686D+06 0.16007686D+06 0.16007686D+06 0.11053304D+01  1  2  5  4  7  2       -1 0.585010421165D-04 0.100000000000D+01
  </mgrwgt>
  </event>
  <event>
  8     66 -.24912036E-05 0.18395337E+03 0.75467711E-02 0.10754424E+00
        1 -1    0    0  501    0 0.00000000E+00 0.00000000E+00 0.56198868E+03 0.56198877E+03 0.32000000E+00 0.0000E+00 0.9000E+01
       -1 -1    0    0    0  501 0.00000000E+00 0.00000000E+00 -.39486730E+03 0.39486743E+03 0.32000000E+00 0.0000E+00 0.9000E+01
       25  2    1    2    0    0 0.94842208E+02 -.55907972E+02 0.49883051E+03 0.59571706E+03 0.30647381E+03 0.0000E+00 0.0000E+00
       23  2    1    2    0    0 -.94842208E+02 0.55907972E+02 -.33170913E+03 0.36113914E+03 0.90938375E+02 0.0000E+00 0.0000E+00
       23  1    3    3    0    0 0.30209880E+02 0.11586661E+02 0.44346023E+03 0.45389329E+03 0.91188000E+02 0.0000E+00 0.9000E+01
      -11  1    4    4    0    0 0.53510379E+01 0.38519304E+02 -.65588808E+02 0.76251309E+02 0.51099893E-03 0.0000E+00 0.9000E+01
       11  1    4    4    0    0 -.10019325E+03 0.17388668E+02 -.26612032E+03 0.28488783E+03 0.51099893E-03 0.0000E+00 0.9000E+01
       23  1    3    3    0    0 0.64632328E+02 -.67494633E+02 0.55370273E+02 0.14182377E+03 0.91188000E+02 0.0000E+00 0.9000E+01
#aMCatNLO 1  0  0  1  2 0.56808419D+03 0.00000000D+00  -5  7  0 0.00000000D+00 0.00000000D+00 0.00000000D+00 0.00000000D+00 0.00000000D+00
  <mgrwgt>
 -.1266983339D-04    1    2    0
 0.471074364568999D+03 0.000000000000000D+00 0.000000000000000D+00 0.471074364568999D+03
 0.471074364568999D+03 0.000000000000000D+00 0.000000000000000D+00 -.471074364568999D+03
 0.382316410296294D+03 0.302098804692186D+02 0.115866607668757D+02 0.369869840149414D+03
 0.890759893683247D+02 0.535103792504783D+01 0.385193041389623D+02 -.801383895752885D+02
 0.336540368801815D+03 -.100193246238686D+03 0.173886676762290D+02 -.320808926742792D+03
 0.134215960671564D+03 0.646323278444191D+02 -.674946325820670D+02 0.310774761686663D+02
 0.000000000000000D+00 0.000000000000000D+00 0.000000000000000D+00 0.000000000000000D+00
 0.379037302520804D+04 0.000000000000000D+00 0.000000000000000D+00 0.379037302520804D+04
 0.915232865061383D+03 0.000000000000000D+00 0.000000000000000D+00 -.915232865061383D+03
 0.594037472971962D+03 -.392490740294098D+03 -.231759763725614D+03 0.369869840149414D+03
 0.116558947218819D+03 -.836761240861764D+02 -.127331437969390D+02 -.801383895752885D+02
 0.664423805758649D+03 -.533548595358856D+03 -.232091625380014D+03 -.320808926742792D+03
 0.193740569806583D+03 -.773524907671006D+02 -.149234512402765D+03 0.310774761686663D+02
 0.313684509451341D+04 0.108706795050623D+04 0.625819045305332D+03 0.287514016014665D+04
-.699671915481D-06 0.000000000000D+00 0.000000000000D+00 0.156037133842D-07 0.000000000000D+00  7 1 -1 23 -11 11 23 21 2 0.86459814D-01 0.60748832D-01 0.33838844D+05 0.33838844D+05 0.33838844D+05 0.11625148D+01  1  2 14  1  7  1        1 -.126698333878D-04 0.100000000000D+01
  </mgrwgt>
  </event>
  <event>
  8     66 0.24912036E-05 0.13375826E+03 0.75467711E-02 0.10515759E+00
        3 -1    0    0  501    0 0.00000000E+00 0.00000000E+00 0.62756753E+02 0.62758745E+02 0.50000000E+00 0.0000E+00 0.9000E+01
       -3 -1    0    0    0  501 0.00000000E+00 0.00000000E+00 -.85269258E+03 0.85269272E+03 0.50000000E+00 0.0000E+00 0.9000E+01
       25  2    1    2    0    0 -.12237705E+02 0.93057556E+02 -.41417793E+03 0.51764742E+03 0.29598314E+03 0.0000E+00 0.0000E+00
       23  2    1    2    0    0 0.12237705E+02 -.93057556E+02 -.37575789E+03 0.39780405E+03 0.90799769E+02 0.0000E+00 0.0000E+00
       23  1    3    3    0    0 -.17773994E+02 0.11058037E+03 -.39778506E+03 0.42319279E+03 0.91188000E+02 0.0000E+00 0.9000E+01
      -11  1    4    4    0    0 0.47916498E+02 -.39199539E+02 -.13480600E+03 0.14834167E+03 0.51099893E-03 0.0000E+00 0.9000E+01
       11  1    4    4    0    0 -.35678793E+02 -.53858017E+02 -.24095190E+03 0.24946238E+03 0.51099893E-03 0.0000E+00 0.9000E+01
       23  1    3    3    0    0 0.55362891E+01 -.17522813E+02 -.16392873E+02 0.94454630E+02 0.91188000E+02 0.0000E+00 0.9000E+01
#aMCatNLO 1  0  0  1  2 0.65573066D+02 0.00000000D+00  -5  7  0 0.00000000D+00 0.00000000D+00 0.00000000D+00 0.00000000D+00 0.00000000D+00
  <mgrwgt>
 0.1187849778D-03    9    2    0
 0.231329194931645D+03 0.000000000000000D+00 0.000000000000000D+00 0.231329194931645D+03
 0.231329194931645D+03 0.000000000000000D+00 0.000000000000000D+00 -.231329194931645D+03
 0.158189701141043D+03 -.177739940922705D+02 0.110580368302295D+03 -.645352421799845D+02
 0.633545510240925D+02 0.479164980737402D+02 -.391995386852957D+02 -.134612226292266D+02
 0.822078827693102D+02 -.356787930687096D+02 -.538580169429272D+02 -.508377195156138D+02
 0.158906254928845D+03 0.553628908723982D+01 -.175228126740719D+02 0.128834184324825D+03
 0.000000000000000D+00 -.000000000000000D+00 -.000000000000000D+00 0.000000000000000D+00
 0.311298032369763D+03 0.000000000000000D+00 0.000000000000000D+00 0.311298032369763D+03
 0.247483453484622D+03 0.000000000000000D+00 0.000000000000000D+00 -.247483453484622D+03
 0.159102093989141D+03 0.444566727034341D+01 0.113197453712623D+03 -.645352421799845D+02
 0.700824625131497D+02 0.572609730949728D+02 -.380989238358544D+02 -.134612226292266D+02
 0.771144796483604D+02 -.245215901572388D+02 -.525438946220165D+02 -.508377195156138D+02
 0.160983119205446D+03 0.279378565902574D+02 -.148843019189402D+02 0.128834184324825D+03
 0.914993304982882D+02 -.651229067983348D+02 -.767033333581224D+01 0.638145788851411D+02
0.880765755945D-05 0.000000000000D+00 0.000000000000D+00 0.259233912080D-08 0.000000000000D+00  7 3 -3 23 -11 11 23 21 0 0.96550496D-02 0.13118364D+00 0.33116751D+05 0.33116751D+05 0.33116751D+05 0.11633740D+01  1  2  2  1  7  1        3 0.107727845049D-03 0.100000000000D+01
-.455061899471D-06 0.000000000000D+00 -.338237241378D-07 0.259233912080D-08 0.000000000000D+00  7 3 -3 23 -11 11 23 21 2 0.96550496D-02 0.13118364D+00 0.33116751D+05 0.33116751D+05 0.33116751D+05 0.11633740D+01  1  2  3  1  7  1        3 -.753315156517D-05 0.100000000000D+01
0.561167966456D-06 0.000000000000D+00 0.000000000000D+00 0.259233912080D-08 0.000000000000D+00  7 3 -3 23 -11 11 23 21 2 0.96550496D-02 0.13118364D+00 0.33116751D+05 0.33116751D+05 0.33116751D+05 0.11633740D+01  1  2 15  1  7  1        3 0.928964466096D-05 0.100000000000D+01
0.105516870997D-04 0.000000000000D+00 0.000000000000D+00 0.259233912080D-08 0.000000000000D+00  7 3 -3 23 -11 11 23 21 2 0.13241813D-01 0.13118364D+00 0.47151279D+05 0.47151279D+05 0.47151279D+05 0.11495431D+01  1  2 12  1  7  1        3 0.102206937307D-03 0.100000000000D+01
-.121695134001D-04 0.000000000000D+00 0.000000000000D+00 0.259233912080D-08 0.000000000000D+00  7 3 -3 23 -11 11 23 21 2 0.96550496D-02 0.13118364D+00 0.33116751D+05 0.33116751D+05 0.33116751D+05 0.11633740D+01  1  2  4  1  7  1        3 -.201455645976D-03 0.100000000000D+01
-.151030200114D-04 0.000000000000D+00 -.429445817510D-05 0.259233912080D-08 0.000000000000D+00  7 3 -3 23 -11 11 23 21 2 0.13864961D-01 0.13118364D+00 0.33116751D+05 0.33116751D+05 0.33116751D+05 0.11633740D+01  1  2  5  1  7  1        3 -.138343531898D-03 0.100000000000D+01
0.158729923702D-04 0.000000000000D+00 0.402782548396D-05 0.259233912080D-08 0.000000000000D+00  7 3 -3 23 -11 11 23 21 2 0.96550496D-02 0.13118364D+00 0.33116751D+05 0.33116751D+05 0.33116751D+05 0.11633740D+01  1  2  6  1  7  1        3 0.262763499771D-03 0.100000000000D+01
0.423361626581D-06 0.000000000000D+00 0.000000000000D+00 0.259233912080D-08 0.000000000000D+00  7 21 -3 23 -11 11 23 -3 2 0.13241813D-01 0.13118364D+00 0.47151279D+05 0.47151279D+05 0.47151279D+05 0.11495431D+01  1  2 12  3  7  1        3 0.728920861519D-04 0.100000000000D+01
-.540903321430D-06 0.000000000000D+00 -.190044052003D-06 0.259233912080D-08 0.000000000000D+00  7 21 -3 23 -11 11 23 -3 2 0.13864961D-01 0.13118364D+00 0.33116751D+05 0.33116751D+05 0.33116751D+05 0.11633740D+01  1  2  5  3  7  1        3 -.887627057086D-04 0.100000000000D+01
  </mgrwgt>
  </event>
  <event>
  8     66 0.24912036E-05 0.43495275E+03 0.75467711E-02 0.89326491E-01
        1 -1    0    0  501    0 0.00000000E+00 0.00000000E+00 0.95042550E+03 0.95042555E+03 0.32000000E+00 0.0000E+00 0.9000E+01
       -1 -1    0    0    0  501 0.00000000E+00 0.00000000E+00 -.22502883E+03 0.22502906E+03 0.32000000E+00 0.0000E+00 0.9000E+01
       25  2    1    2    0    0 0.37476037E+03 -.64439238E+02 0.20548005E+03 0.52500150E+03 0.29800464E+03 0.0000E+00 0.0000E+00
       23  2    1    2    0    0 -.37476037E+03 0.64439238E+02 0.51991662E+03 0.65045312E+03 0.90433466E+02 0.0000E+00 0.0000E+00
       23  1    3    3    0    0 0.33482335E+03 -.11870805E+03 0.13151638E+03 0.38962814E+03 0.91188000E+02 0.0000E+00 0.9000E+01
      -13  1    4    4    0    0 -.26611833E+03 0.55257567E+01 0.37724985E+03 0.46170008E+03 0.10565837E+00 0.0000E+00 0.9000E+01
       13  1    4    4    0    0 -.10864204E+03 0.58913481E+02 0.14266677E+03 0.18875304E+03 0.10565837E+00 0.0000E+00 0.9000E+01
       23  1    3    3    0    0 0.39937021E+02 0.54268812E+02 0.73963667E+02 0.13537335E+03 0.91188000E+02 0.0000E+00 0.9000E+01
#aMCatNLO 1  0  0  2  2 0.59308258D+03 0.00000000D+00  -5  7  0 0.00000000D+00 0.00000000D+00 0.00000000D+00 0.00000000D+00 0.00000000D+00
  <mgrwgt>
 0.9974064188D-04    5    2    0
 0.462464380810379D+03 0.000000000000000D+00 0.000000000000000D+00 0.462464380810379D+03
 0.462464380810379D+03 0.000000000000000D+00 0.000000000000000D+00 -.462464380810379D+03
 0.392017919891160D+03 0.334823351924609D+03 -.118708050000654D+03 -.138435978137200D+03
 0.290889326930311D+03 -.266118546584407D+03 0.552568393774883D+01 0.117332802330773D+03
 0.127988694211685D+03 -.108641825907182D+03 0.589135536214226D+02 0.332754069736419D+02
 0.114032820587603D+03 0.399370205669800D+02 0.542688124414829D+02 -.121722311672148D+02
 0.000000000000000D+00 0.000000000000000D+00 -.000000000000000D+00 -.000000000000000D+00
 0.557484608531469D+03 0.000000000000000D+00 0.000000000000000D+00 0.557484608531469D+03
 0.113894278680073D+05 0.000000000000000D+00 0.000000000000000D+00 -.113894278680073D+05
 0.344272005353021D+03 0.287427565056710D+03 0.918086985451706D+02 -.138435978137200D+03
 0.386490865092354D+03 -.309722249567299D+03 0.199199222940291D+03 0.117332802330773D+03
 0.204195862947930D+03 -.130024908755590D+03 0.153890288318947D+03 0.332754069736419D+02
 0.163786076665485D+03 0.220535146399971D+02 0.133701558876130D+03 -.121722311672148D+02
 0.108481676664800D+05 0.130266078626182D+03 -.578599768680540D+03 -.108319432594758D+05
0.636479733009D-05 0.000000000000D+00 0.000000000000D+00 0.294607933201D-07 0.000000000000D+00  7 1 -1 23 -13 13 23 21 0 0.14621933D+00 0.34619842D-01 0.18918390D+06 0.18918390D+06 0.18918390D+06 0.10996847D+01  1  2  2  2  7  2       -1 0.987270060952D-04 0.100000000000D+01
-.351982629808D-06 0.000000000000D+00 -.244424976372D-07 0.294607933201D-07 0.000000000000D+00  7 1 -1 23 -13 13 23 21 2 0.14621933D+00 0.34619842D-01 0.18918390D+06 0.18918390D+06 0.18918390D+06 0.10996847D+01  1  2  3  2  7  2       -1 -.660250842928D-05 0.100000000000D+01
0.408165201374D-06 0.000000000000D+00 0.000000000000D+00 0.294607933201D-07 0.000000000000D+00  7 1 -1 23 -13 13 23 21 2 0.14621933D+00 0.34619842D-01 0.18918390D+06 0.18918390D+06 0.18918390D+06 0.10996847D+01  1  2 15  2  7  2       -1 0.765638402124D-05 0.100000000000D+01
-.292916416914D-03 0.000000000000D+00 -.103346300829D-04 0.294607933201D-07 0.000000000000D+00  7 1 -1 23 -13 13 23 21 2 0.14621933D+00 0.85594977D+00 0.18918390D+06 0.18918390D+06 0.18918390D+06 0.10996847D+01  1  2  5  2  7  2       -1 -.397773653284D-07 0.100000000000D+01
-.999206059166D-04 0.000000000000D+00 -.342448573432D-05 0.294607933201D-07 0.000000000000D+00  7 1 21 23 -13 13 23 1 2 0.14621933D+00 0.85594977D+00 0.18918390D+06 0.18918390D+06 0.18918390D+06 0.10996847D+01  1  2  5  4  7  2       -1 -.462445460993D-09 0.100000000000D+01
  </mgrwgt>
  </event>
  <event>
  8     66 0.24912036E-05 0.36000208E+03 0.75467711E-02 0.93140491E-01
        1 -1    0    0  501    0 0.00000000E+00 0.00000000E+00 0.23214673E+04 0.23214673E+04 0.32000000E+00 0.0000E+00 0.9000E+01
       -1 -1    0    0    0  501 0.00000000E+00 0.00000000E+00 -.61472685E+02 0.61473518E+02 0.32000000E+00 0.0000E+00 0.9000E+01
       25  2    1    2    0    0 0.30372412E+03 0.48611488E+02 0.11772956E+04 0.12536827E+04 0.30180121E+03 0.0000E+00 0.0000E+00
       23  2    1    2    0    0 -.30372412E+03 -.48611488E+02 0.10826990E+04 0.11292581E+04 0.91517004E+02 0.0000E+00 0.0000E+00
       23  1    3    3    0    0 0.19420930E+03 0.11545312E+03 0.47358832E+03 0.53258597E+03 0.91188000E+02 0.0000E+00 0.9000E+01
      -13  1    4    4    0    0 -.24853202E+03 -.49498638E+01 0.89194909E+03 0.92594053E+03 0.10565837E+00 0.0000E+00 0.9000E+01
       13  1    4    4    0    0 -.55192101E+02 -.43661624E+02 0.19074989E+03 0.20331758E+03 0.10565837E+00 0.0000E+00 0.9000E+01
       23  1    3    3    0    0 0.10951482E+03 -.66841631E+02 0.70370729E+03 0.72109673E+03 0.91188000E+02 0.0000E+00 0.9000E+01
#aMCatNLO 1  0  0  2  1 0.34350682D+03 0.00000000D+00  -5  7  0 0.00000000D+00 0.00000000D+00 0.00000000D+00 0.00000000D+00 0.00000000D+00
  <mgrwgt>
 0.1281373038D-03    3    2    0
 0.377766917839291D+03 0.000000000000000D+00 0.000000000000000D+00 0.377766917839291D+03
 0.377766917839291D+03 0.000000000000000D+00 0.000000000000000D+00 -.377766917839291D+03
 0.263143500940404D+03 0.194209298377205D+03 0.115453117383146D+03 -.994111505492198D+02
 0.252353404777612D+03 -.248532279729602D+03 -.494981261984690D+01 0.434677603551011D+02
 0.706783040646658D+02 -.551918433980231D+02 -.436616757202138D+02 -.655295056355145D+01
 0.169358625895900D+03 0.109514824750421D+03 -.668416290430852D+02 0.624963407576702D+02
 0.000000000000000D+00 -.000000000000000D+00 -.000000000000000D+00 0.000000000000000D+00
 0.596768437937082D+03 0.000000000000000D+00 0.000000000000000D+00 0.596768437937082D+03
 0.577249314199353D+03 0.000000000000000D+00 0.000000000000000D+00 -.577249314199353D+03
 0.349287168991832D+03 0.206147868326520D+03 0.247602008491935D+03 -.994111505492198D+02
 0.264802969520163D+03 -.238450963015056D+03 0.106641008592381D+03 0.434677603551011D+02
 0.556121567114461D+02 -.527299688154295D+02 -.164110085532219D+02 -.655295056355145D+01
 0.160254517375386D+03 0.115940220734579D+03 0.428154214460632D+01 0.624963407576702D+02
 0.344060939537608D+03 -.309071572306137D+02 -.342113550675701D+03 0.195191237377289D+02
0.860777693932D-05 0.000000000000D+00 0.000000000000D+00 0.409617246604D-07 0.000000000000D+00  7 1 -1 23 -13 13 23 21 0 0.35714888D+00 0.94574019D-02 0.12960150D+06 0.12960150D+06 0.12960150D+06 0.11125966D+01  1  2  2  2  7  2       -1 0.126876948975D-03 0.100000000000D+01
-.476860836828D-06 0.000000000000D+00 -.330561299267D-07 0.409617246604D-07 0.000000000000D+00  7 1 -1 23 -13 13 23 21 2 0.35714888D+00 0.94574019D-02 0.12960150D+06 0.12960150D+06 0.12960150D+06 0.11125966D+01  1  2  3  2  7  2       -1 -.870079268524D-05 0.100000000000D+01
0.545936596166D-06 0.000000000000D+00 0.000000000000D+00 0.409617246604D-07 0.000000000000D+00  7 1 -1 23 -13 13 23 21 2 0.35714888D+00 0.94574019D-02 0.12960150D+06 0.12960150D+06 0.12960150D+06 0.11125966D+01  1  2 15  2  7  2       -1 0.996114752079D-05 0.100000000000D+01
  </mgrwgt>
  </event>
  <event>
  8     66 0.24912036E-05 0.26639925E+03 0.75467711E-02 0.97147878E-01
        1 -1    0    0  501    0 0.00000000E+00 0.00000000E+00 0.28284972E+03 0.28284990E+03 0.32000000E+00 0.0000E+00 0.9000E+01
       -1 -1    0    0    0  501 0.00000000E+00 0.00000000E+00 -.52275332E+03 0.52275342E+03 0.32000000E+00 0.0000E+00 0.9000E+01
       25  2    1    2    0    0 0.21728349E+03 0.21389883E+03 -.23487922E+03 0.48795911E+03 0.29995170E+03 0.0000E+00 0.0000E+00
       23  2    1    2    0    0 -.21728349E+03 -.21389883E+03 -.50243886E+01 0.31764421E+03 0.88925686E+02 0.0000E+00 0.0000E+00
       23  1    3    3    0    0 0.13916733E+02 -.29171879E+02 -.68819759E+02 0.11872693E+03 0.91188000E+02 0.0000E+00 0.9000E+01
      -13  1    4    4    0    0 -.19485939E+03 -.17074005E+03 0.25325872E+02 0.26031473E+03 0.10565837E+00 0.0000E+00 0.9000E+01
       13  1    4    4    0    0 -.22424098E+02 -.43158773E+02 -.30350260E+02 0.57329480E+02 0.10565837E+00 0.0000E+00 0.9000E+01
       23  1    3    3    0    0 0.20336675E+03 0.24307071E+03 -.16605946E+03 0.36923217E+03 0.91188000E+02 0.0000E+00 0.9000E+01
#aMCatNLO 1  0  0  1  2 0.67437089D+02 0.00000000D+00  -5  7  0 0.00000000D+00 0.00000000D+00 0.00000000D+00 0.00000000D+00 0.00000000D+00
  <mgrwgt>
 0.2160809622D-03    9    2    0
 0.384526644485183D+03 0.000000000000000D+00 0.000000000000000D+00 0.384526644485183D+03
 0.384526644485183D+03 0.000000000000000D+00 0.000000000000000D+00 -.384526644485183D+03
 0.102901455014111D+03 0.139167333090492D+02 -.291718792861473D+02 -.350540167875300D+02
 0.280587090744973D+03 -.194859630406385D+03 -.170740233178577D+03 0.107733990479977D+03
 0.505861342938232D+02 -.224238546930466D+02 -.431585930749220D+02 -.139091181349195D+02
 0.334978608917459D+03 0.203366751790382D+03 0.243070705539646D+03 -.587708555575277D+02
 0.000000000000000D+00 0.000000000000000D+00 -.000000000000000D+00 0.000000000000000D+00
 0.460278128530475D+03 0.000000000000000D+00 0.000000000000000D+00 0.460278128530475D+03
 0.401309153100643D+03 0.000000000000000D+00 0.000000000000000D+00 -.401309153100643D+03
 0.101179434045241D+03 0.568504832619023D+01 -.257084161764911D+02 -.350540167875300D+02
 0.291607027958536D+03 -.217939310997359D+03 -.161029509010203D+03 0.107733990479977D+03
 0.511249658500319D+02 -.265264129458223D+02 -.414324508338994D+02 -.139091181349195D+02
 0.328092925879764D+03 0.176621493962913D+03 0.254323713160391D+03 -.587708555575277D+02
 0.895829278975450D+02 0.621591816540782D+02 -.261533371397978D+02 0.589689754298319D+02
0.818561135144D-05 0.000000000000D+00 0.000000000000D+00 0.245395866746D-06 0.000000000000D+00  7 1 -1 23 -13 13 23 21 0 0.43515362D-01 0.80423609D-01 0.13477926D+06 0.13477926D+06 0.13477926D+06 0.11112377D+01  1  2  2  1  7  1        1 0.154769853571D-03 0.100000000000D+01
-.453570069067D-06 0.000000000000D+00 -.314349029105D-07 0.245395866746D-06 0.000000000000D+00  7 1 -1 23 -13 13 23 21 2 0.43515362D-01 0.80423609D-01 0.13477926D+06 0.13477926D+06 0.13477926D+06 0.11112377D+01  1  2  3  1  7  1        1 -.105899412267D-04 0.100000000000D+01
0.520340749743D-06 0.000000000000D+00 0.000000000000D+00 0.245395866746D-06 0.000000000000D+00  7 1 -1 23 -13 13 23 21 2 0.43515362D-01 0.80423609D-01 0.13477926D+06 0.13477926D+06 0.13477926D+06 0.11112377D+01  1  2 15  1  7  1        1 0.121489012028D-04 0.100000000000D+01
0.162855816193D-04 0.000000000000D+00 0.000000000000D+00 0.245395866746D-06 0.000000000000D+00  7 1 -1 23 -13 13 23 21 2 0.52905561D-01 0.80423609D-01 0.16213066D+06 0.16213066D+06 0.16213066D+06 0.11048965D+01  1  2 12  1  7  1        1 0.289104677575D-03 0.100000000000D+01
-.165541181534D-04 0.000000000000D+00 0.000000000000D+00 0.245395866746D-06 0.000000000000D+00  7 1 -1 23 -13 13 23 21 2 0.43515362D-01 0.80423609D-01 0.13477926D+06 0.13477926D+06 0.13477926D+06 0.11112377D+01  1  2  4  1  7  1        1 -.386505085455D-03 0.100000000000D+01
-.285543998268D-04 0.000000000000D+00 -.583847653331D-05 0.245395866746D-06 0.000000000000D+00  7 1 -1 23 -13 13 23 21 2 0.53877453D-01 0.80423609D-01 0.13477926D+06 0.13477926D+06 0.13477926D+06 0.11112377D+01  1  2  5  1  7  1        1 -.502842657799D-03 0.100000000000D+01
0.292621178387D-04 0.000000000000D+00 0.570777461783D-05 0.245395866746D-06 0.000000000000D+00  7 1 -1 23 -13 13 23 21 2 0.43515362D-01 0.80423609D-01 0.13477926D+06 0.13477926D+06 0.13477926D+06 0.11112377D+01  1  2  6  1  7  1        1 0.683211104998D-03 0.100000000000D+01
0.457770149258D-06 0.000000000000D+00 0.000000000000D+00 0.245395866746D-06 0.000000000000D+00  7 21 -1 23 -13 13 23 -1 2 0.52905561D-01 0.80423609D-01 0.16213066D+06 0.16213066D+06 0.16213066D+06 0.11048965D+01  1  2 12  3  7  1        1 0.340258992378D-04 0.100000000000D+01
-.783912472342D-06 0.000000000000D+00 -.175669798507D-06 0.245395866746D-06 0.000000000000D+00  7 21 -1 23 -13 13 23 -1 2 0.53877453D-01 0.80423609D-01 0.13477926D+06 0.13477926D+06 0.13477926D+06 0.11112377D+01  1  2  5  3  7  1        1 -.572417899375D-04 0.100000000000D+01
  </mgrwgt>
  </event>
  <event>
  9     66 0.24912036E-05 0.39765390E+03 0.75467711E-02 0.95713744E-01
        1 -1    0    0  501    0 0.00000000E+00 0.00000000E+00 0.17118939E+04 0.17118939E+04 0.32000000E+00 0.0000E+00 0.9000E+01
       21 -1    0    0  502  501 0.00000000E+00 0.00000000E+00 -.18103262E+03 0.18103417E+03 0.75000000E+00 0.0000E+00 0.9000E+01
       25  2    1    2    0    0 -.36969179E+03 0.17630173E+03 0.38124136E+03 0.63486893E+03 0.29993209E+03 0.0000E+00 0.0000E+00
       23  2    1    2    0    0 0.29526705E+03 -.98656361E+02 0.10853830E+04 0.11327821E+04 0.90682948E+02 0.0000E+00 0.0000E+00
       23  1    3    3    0    0 -.11475238E+03 0.14739537E+03 0.65526335E+02 0.21795058E+03 0.91188000E+02 0.0000E+00 0.9000E+01
      -13  1    4    4    0    0 0.13430268E+03 -.25388500E+01 0.52291132E+03 0.53988880E+03 0.10565837E+00 0.0000E+00 0.9000E+01
       13  1    4    4    0    0 0.16096437E+03 -.96117511E+02 0.56247169E+03 0.59289335E+03 0.10565837E+00 0.0000E+00 0.9000E+01
       23  1    3    3    0    0 -.25493941E+03 0.28906366E+02 0.31571503E+03 0.41691835E+03 0.91188000E+02 0.0000E+00 0.9000E+01
        1  1    1    2  502    0 0.74424745E+02 -.77645373E+02 0.64236877E+02 0.12527700E+03 0.32000000E+00 0.0000E+00 0.9000E+01
#aMCatNLO 2  0  0  2  1 0.10755392D+03 0.00000000D+00  -5  7  0 0.00000000D+00 0.00000000D+00 0.00000000D+00 0.00000000D+00 0.00000000D+00
  <mgrwgt>
 0.9409453392D-05    2    2    0
 0.490417021983110D+03 0.000000000000000D+00 0.000000000000000D+00 0.490417021983110D+03
 0.490417021983110D+03 0.000000000000000D+00 0.000000000000000D+00 -.490417021983110D+03
 0.274432843169169D+03 -.932866268958503D+02 0.125000710567435D+03 -.206568539874650D+03
 0.201474490380993D+03 0.149108505413020D+03 -.179852886552702D+02 0.134295023287399D+03
 0.247276021327403D+03 0.178870321119454D+03 -.114798409063130D+03 0.126381027938168D+03
 0.257650689088655D+03 -.234692199636624D+03 0.778298715096533D+01 -.541075113509172D+02
 0.000000000000000D+00 0.000000000000000D+00 -.000000000000000D+00 -.000000000000000D+00
 0.522264954843468D+03 0.000000000000000D+00 0.000000000000000D+00 0.522264954843468D+03
 0.593395929485536D+03 0.000000000000000D+00 0.000000000000000D+00 -.593395929485536D+03
 0.293051731553919D+03 -.114752384014311D+03 0.147395368719094D+03 -.206568539874650D+03
 0.189944197937336D+03 0.134302643070123D+03 -.253872304009535D+01 0.134295023287399D+03
 0.226097996434606D+03 0.160964404123511D+03 -.961176382054720D+02 0.126381027938168D+03
 0.277619441010695D+03 -.254939408313770D+03 0.289063658581634D+02 -.541075113509172D+02
 0.128947517392447D+03 0.744247451344465D+02 -.776453733316902D+02 -.711309746420682D+02
-.420310729440D-06 0.000000000000D+00 0.000000000000D+00 0.101882917379D-05 0.000000000000D+00  7 1 21 23 -13 13 23 1 2 0.24730800D+00 0.28483203D-01 0.20680746D+06 0.20680746D+06 0.20680746D+06 0.10967107D+01  1  2 13  4  7  2       -1 -.407358106961D-04 0.100000000000D+01
0.580752452454D-06 0.000000000000D+00 0.000000000000D+00 0.101882917379D-05 0.188863878915D-10  7 1 21 23 -13 13 23 1 2 0.26336831D+00 0.27851283D-01 0.20680746D+06 0.20680746D+06 0.20680746D+06 0.10967107D+01  1  2  1  4  7  2       -1 0.501452640878D-04 0.100000000000D+01
  </mgrwgt>
  </event>
  <event>
  8     66 0.24912036E-05 0.25732911E+03 0.75467711E-02 0.94200814E-01
        1 -1    0    0  501    0 0.00000000E+00 0.00000000E+00 0.28791180E+03 0.28791198E+03 0.32000000E+00 0.0000E+00 0.9000E+01
       -1 -1    0    0    0  501 0.00000000E+00 0.00000000E+00 -.70997935E+03 0.70997943E+03 0.32000000E+00 0.0000E+00 0.9000E+01
       25  2    1    2    0    0 0.10035101E+03 -.37766118E+03 -.30710166E+03 0.58036095E+03 0.29968169E+03 0.0000E+00 0.0000E+00
       23  2    1    2    0    0 -.10035101E+03 0.37766118E+03 -.11496590E+03 0.41753045E+03 0.91740035E+02 0.0000E+00 0.0000E+00
       23  1    3    3    0    0 0.74210085E+02 -.10372323E+03 -.23352253E+03 0.28127152E+03 0.91188000E+02 0.0000E+00 0.9000E+01
      -13  1    4    4    0    0 -.43718093E+01 0.13452577E+03 -.71878799E+01 0.13478862E+03 0.10565837E+00 0.0000E+00 0.9000E+01
       13  1    4    4    0    0 -.95979201E+02 0.24313541E+03 -.10777802E+03 0.28274184E+03 0.10565837E+00 0.0000E+00 0.9000E+01
       23  1    3    3    0    0 0.26140925E+02 -.27393795E+03 -.73579127E+02 0.29908943E+03 0.91188000E+02 0.0000E+00 0.9000E+01
#aMCatNLO 1  0  0  2  1 0.17342615D+03 0.00000000D+00  -5  7  0 0.00000000D+00 0.00000000D+00 0.00000000D+00 0.00000000D+00 0.00000000D+00
  <mgrwgt>
 0.1121500739D-03    9    2    0
 0.452118963795772D+03 0.000000000000000D+00 0.000000000000000D+00 0.452118963795772D+03
 0.452118963795772D+03 0.000000000000000D+00 0.000000000000000D+00 -.452118963795772D+03
 0.201402907305976D+03 0.742100848319588D+02 -.103723227192279D+03 -.126420865276869D+03
 0.145393692415167D+03 -.437168786216287D+01 0.134525621646741D+03 0.549824632033709D+02
 0.261718930665496D+03 -.959793220216820D+02 0.243135553545492D+03 0.130334575257800D+02
 0.295722397204905D+03 0.261409250518861D+02 -.273937947999954D+03 0.584049445477179D+02
 0.000000000000000D+00 -.000000000000000D+00 0.000000000000000D+00 -.000000000000000D+00
 0.485411471499411D+03 0.000000000000000D+00 0.000000000000000D+00 0.485411471499411D+03
 0.760499680727510D+03 0.000000000000000D+00 0.000000000000000D+00 -.760499680727510D+03
 0.229486906210213D+03 0.100062655050032D+03 -.135477742322940D+03 -.126420865276869D+03
 0.127505807491877D+03 0.120017636851175D+02 0.114414235795605D+03 0.549824632033709D+02
 0.218704512398928D+03 -.671548281333737D+02 0.207730647201980D+03 0.130334575257800D+02
 0.345021439102921D+03 0.645843379624202D+02 -.321157699330071D+03 0.584049445477179D+02
 0.325192487022982D+03 -.109493928564196D+03 0.134490558655426D+03 -.275088209228099D+03
0.108182503145D-04 0.000000000000D+00 0.000000000000D+00 0.667073237651D-06 0.000000000000D+00  7 1 -1 23 -13 13 23 21 0 0.44294142D-01 0.10922761D+00 0.17752376D+06 0.17752376D+06 0.17752376D+06 0.11018240D+01  1  2  2  2  7  2       -1 0.102229842067D-03 0.100000000000D+01
-.597380324044D-06 0.000000000000D+00 -.415449297183D-07 0.667073237651D-06 0.000000000000D+00  7 1 -1 23 -13 13 23 21 2 0.44294142D-01 0.10922761D+00 0.17752376D+06 0.17752376D+06 0.17752376D+06 0.11018240D+01  1  2  3  2  7  2       -1 -.685324146103D-05 0.100000000000D+01
0.663571297145D-06 0.000000000000D+00 0.000000000000D+00 0.667073237651D-06 0.000000000000D+00  7 1 -1 23 -13 13 23 21 2 0.44294142D-01 0.10922761D+00 0.17752376D+06 0.17752376D+06 0.17752376D+06 0.11018240D+01  1  2 15  2  7  2       -1 0.761259476235D-05 0.100000000000D+01
0.117764808041D-04 0.000000000000D+00 0.000000000000D+00 0.667073237651D-06 0.000000000000D+00  7 1 -1 23 -13 13 23 21 2 0.44294142D-01 0.18539495D+00 0.26954349D+06 0.26954349D+06 0.26954349D+06 0.10880084D+01  1  2 12  2  7  2       -1 0.295039299759D-04 0.100000000000D+01
-.138306600232D-04 0.000000000000D+00 0.000000000000D+00 0.667073237651D-06 0.000000000000D+00  7 1 -1 23 -13 13 23 21 2 0.44294142D-01 0.10922761D+00 0.17752376D+06 0.17752376D+06 0.17752376D+06 0.11018240D+01  1  2  4  2  7  2       -1 -.158667516973D-03 0.100000000000D+01
-.154779815687D-04 0.000000000000D+00 -.342495811737D-05 0.667073237651D-06 0.000000000000D+00  7 1 -1 23 -13 13 23 21 2 0.44294142D-01 0.18961070D+00 0.17752376D+06 0.17752376D+06 0.17752376D+06 0.11018240D+01  1  2  5  2  7  2       -1 -.375583904142D-04 0.100000000000D+01
0.154232407185D-04 0.000000000000D+00 0.296278540441D-05 0.667073237651D-06 0.000000000000D+00  7 1 -1 23 -13 13 23 21 2 0.44294142D-01 0.10922761D+00 0.17752376D+06 0.17752376D+06 0.17752376D+06 0.11018240D+01  1  2  6  2  7  2       -1 0.176937854331D-03 0.100000000000D+01
0.694831246938D-06 0.000000000000D+00 0.000000000000D+00 0.667073237651D-06 0.000000000000D+00  7 1 21 23 -13 13 23 1 2 0.44294142D-01 0.18539495D+00 0.26954349D+06 0.26954349D+06 0.26954349D+06 0.10880084D+01  1  2 12  4  7  2       -1 0.109801615416D-04 0.100000000000D+01
-.773687352685D-06 0.000000000000D+00 -.209141222103D-06 0.667073237651D-06 0.000000000000D+00  7 1 21 23 -13 13 23 1 2 0.44294142D-01 0.18961070D+00 0.17752376D+06 0.17752376D+06 0.17752376D+06 0.11018240D+01  1  2  5  4  7  2       -1 -.120351599628D-04 0.100000000000D+01
  </mgrwgt>
  </event>
  <event>
  8     66 0.24912036E-05 0.33819444E+03 0.75467711E-02 0.98980535E-01
        1 -1    0    0  501    0 0.00000000E+00 0.00000000E+00 0.43594659E+04 0.43594659E+04 0.32000000E+00 0.0000E+00 0.9000E+01
       -1 -1    0    0    0  501 0.00000000E+00 0.00000000E+00 -.45005627E+02 0.45006765E+02 0.32000000E+00 0.0000E+00 0.9000E+01
       25  2    1    2    0    0 0.23430858E+03 0.16221538E+03 0.36863760E+04 0.37095033E+04 0.29972016E+03 0.0000E+00 0.0000E+00
       23  2    1    2    0    0 -.23430858E+03 -.16221538E+03 0.62808418E+03 0.69496931E+03 0.85312766E+02 0.0000E+00 0.0000E+00
       23  1    3    3    0    0 0.26423133E+02 -.15950479E+02 0.16470733E+04 0.16498843E+04 0.91188000E+02 0.0000E+00 0.9000E+01
      -11  1    4    4    0    0 -.84949598E+02 -.95935810E+02 0.20899968E+03 0.24515501E+03 0.51099893E-03 0.0000E+00 0.9000E+01
       11  1    4    4    0    0 -.14935898E+03 -.66279573E+02 0.41908450E+03 0.44981430E+03 0.51099893E-03 0.0000E+00 0.9000E+01
       23  1    3    3    0    0 0.20788544E+03 0.17816586E+03 0.20393028E+04 0.20596190E+04 0.91188000E+02 0.0000E+00 0.9000E+01
#aMCatNLO 1  0  0  2  1 0.17011334D+02 0.00000000D+00  -5  7  0 0.00000000D+00 0.00000000D+00 0.00000000D+00 0.00000000D+00 0.00000000D+00
  <mgrwgt>
 0.1322760477D-03    4    2    0
 0.442948107637116D+03 0.000000000000000D+00 0.000000000000000D+00 0.442948107637116D+03
 0.442948107637116D+03 0.000000000000000D+00 0.000000000000000D+00 -.442948107637116D+03
 0.181328389934749D+03 0.264231333459441D+02 -.159504786120782D+02 0.153662402390945D+03
 0.200991639507419D+03 -.849495975412970D+02 -.959358098606845D+02 -.154846780450310D+03
 0.195363025857430D+03 -.149358977816662D+03 -.662795730101041D+02 -.107077662560083D+03
 0.308213159974635D+03 0.207885442012014D+03 0.178165861482867D+03 0.108262040619448D+03
 0.000000000000000D+00 0.000000000000000D+00 -.000000000000000D+00 0.000000000000000D+00
 0.529303193831880D+03 0.000000000000000D+00 0.000000000000000D+00 0.529303193831880D+03
 0.443868335457472D+03 0.000000000000000D+00 0.000000000000000D+00 -.443868335457472D+03
 0.180824603829261D+03 0.244839918370452D+02 -.130646944539910D+02 0.153662402390945D+03
 0.200409445099155D+03 -.870988922269150D+02 -.927372807557408D+02 -.154846780450310D+03
 0.195942284843276D+03 -.151454214867571D+03 -.631614911882227D+02 -.107077662560083D+03
 0.308883195677594D+03 0.204581210985789D+03 0.183083139312454D+03 0.108262040619448D+03
 0.871119998400661D+02 0.948790427165214D+01 -.141196729144999D+02 0.854348583744081D+02
0.245531865721D-03 0.000000000000D+00 0.000000000000D+00 0.433266587038D-07 0.000000000000D+00  7 1 -1 23 -11 11 23 21 0 0.67068714D+00 0.69240311D-02 0.11437548D+06 0.11437548D+06 0.11437548D+06 0.11169664D+01  1  2  2  2  7  2       -1 0.132946111704D-03 0.100000000000D+01
-.124331161874D-04 0.000000000000D+00 -.942907014393D-06 0.433266587038D-07 0.000000000000D+00  7 1 -1 23 -11 11 23 21 2 0.67068714D+00 0.69240311D-02 0.11437548D+06 0.11437548D+06 0.11437548D+06 0.11169664D+01  1  2  3  2  7  2       -1 -.839900718171D-05 0.100000000000D+01
0.157100285911D-04 0.000000000000D+00 0.000000000000D+00 0.433266587038D-07 0.000000000000D+00  7 1 -1 23 -11 11 23 21 2 0.67068714D+00 0.69240311D-02 0.11437548D+06 0.11437548D+06 0.11437548D+06 0.11169664D+01  1  2 15  2  7  2       -1 0.106126767395D-04 0.100000000000D+01
-.426881341251D-05 0.000000000000D+00 0.000000000000D+00 0.433266587038D-07 0.000000000000D+00  7 1 -1 23 -11 11 23 21 2 0.67068714D+00 0.69240311D-02 0.11437548D+06 0.11437548D+06 0.11437548D+06 0.11169664D+01  1  2  4  2  7  2       -1 -.288373356837D-05 0.100000000000D+01
  </mgrwgt>
  </event>
  <event>
  9     66 0.24912036E-05 0.41088375E+03 0.75467711E-02 0.95888804E-01
        1 -1    0    0  501    0 0.00000000E+00 0.00000000E+00 0.83111079E+03 0.83111086E+03 0.32000000E+00 0.0000E+00 0.9000E+01
       21 -1    0    0  502  501 0.00000000E+00 0.00000000E+00 -.32233211E+03 0.32233299E+03 0.75000000E+00 0.0000E+00 0.9000E+01
       25  2    1    2    0    0 0.25652221E+03 0.19618137E+03 0.21328006E+03 0.48894573E+03 0.29881226E+03 0.0000E+00 0.0000E+00
       23  2    1    2    0    0 -.28659202E+03 -.26016572E+03 0.37848083E+02 0.39732384E+03 0.81317730E+02 0.0000E+00 0.0000E+00
       23  1    3    3    0    0 0.27726851E+03 0.15789820E+03 0.12450488E+03 0.35443813E+03 0.91188000E+02 0.0000E+00 0.9000E+01
      -11  1    4    4    0    0 -.15064209E+03 -.93692425E+02 0.42184603E+02 0.18234815E+03 0.51099893E-03 0.0000E+00 0.9000E+01
       11  1    4    4    0    0 -.13594993E+03 -.16647329E+03 -.43365202E+01 0.21497569E+03 0.51099893E-03 0.0000E+00 0.9000E+01
       23  1    3    3    0    0 -.20746301E+02 0.38283174E+02 0.88775186E+02 0.13450760E+03 0.91188000E+02 0.0000E+00 0.9000E+01
        1  1    1    2  502    0 0.30069804E+02 0.63984348E+02 0.25765053E+03 0.26717427E+03 0.32000000E+00 0.0000E+00 0.9000E+01
#aMCatNLO 2  0  0  2  1 0.70697878D+02 0.00000000D+00  -5  7  0 0.00000000D+00 0.00000000D+00 0.00000000D+00 0.00000000D+00 0.00000000D+00
  <mgrwgt>
 0.3337381983D-04    1    2    0
 0.423500359599063D+03 0.000000000000000D+00 0.000000000000000D+00 0.423500359599063D+03
 0.423500359599063D+03 0.000000000000000D+00 0.000000000000000D+00 -.423500359599063D+03
 0.355727525397870D+03 0.289469162474936D+03 0.183859473081937D+03 0.251021735270779D+02
 0.165869107280934D+03 -.144554468693815D+03 -.807388231427203D+02 -.988983156335460D+01
 0.208825985729894D+03 -.128254686650656D+03 -.150098887562665D+03 -.680393387729090D+02
 0.116578100789428D+03 -.166600071304655D+02 0.469782376234482D+02 0.528269968091857D+02
 0.000000000000000D+00 0.000000000000000D+00 0.000000000000000D+00 0.000000000000000D+00
 0.621066470774752D+03 0.000000000000000D+00 0.000000000000000D+00 0.621066470774752D+03
 0.431345265766106D+03 0.000000000000000D+00 0.000000000000000D+00 -.431345265766106D+03
 0.332798797321667D+03 0.277268514053349D+03 0.157898195536276D+03 0.251021735270779D+02
 0.177677003608855D+03 -.150642086809872D+03 -.936924251187700D+02 -.988983156335460D+01
 0.225444211511125D+03 -.135949930567523D+03 -.166473292938848D+03 -.680393387729090D+02
 0.114026108351972D+03 -.207463009836322D+02 0.382831744440611D+02 0.528269968091857D+02
 0.202465615747240D+03 0.300698043076784D+02 0.639843480772807D+02 0.189721205008645D+03
0.295252081396D-06 0.000000000000D+00 0.000000000000D+00 0.139382815790D-08 0.982776834974D-14  7 1 21 23 -11 11 23 1 2 0.12786323D+00 0.49589613D-01 0.20067394D+06 0.20067394D+06 0.20067394D+06 0.10977132D+01  1  2  1  4  7  2       -1 0.333738198253D-04 0.100000000000D+01
  </mgrwgt>
  </event>
  <event>
  8     66 0.24912036E-05 0.16564535E+03 0.75467711E-02 0.90261414E-01
        1 -1    0    0  501    0 0.00000000E+00 0.00000000E+00 0.12761209E+04 0.12761209E+04 0.32000000E+00 0.0000E+00 0.9000E+01
       -1 -1    0    0    0  501 0.00000000E+00 0.00000000E+00 -.28171709E+03 0.28171728E+03 0.32000000E+00 0.0000E+00 0.9000E+01
       25  2    1    2    0    0 0.50412309E+03 -.23326676E+03 0.44641413E+03 0.77235134E+03 0.29780454E+03 0.0000E+00 0.0000E+00
       23  2    1    2    0    0 -.50412309E+03 0.23326676E+03 0.54798962E+03 0.78548682E+03 0.90241048E+02 0.0000E+00 0.0000E+00
       23  1    3    3    0    0 0.42790688E+03 -.24313047E+03 0.30013238E+03 0.58361925E+03 0.91188000E+02 0.0000E+00 0.9000E+01
      -13  1    4    4    0    0 -.71180764E+02 0.12928570E+02 0.40257443E+02 0.82792041E+02 0.10565837E+00 0.0000E+00 0.9000E+01
       13  1    4    4    0    0 -.43294233E+03 0.22033819E+03 0.50773218E+03 0.70269478E+03 0.10565837E+00 0.0000E+00 0.9000E+01
       23  1    3    3    0    0 0.76216208E+02 0.98637043E+01 0.14628175E+03 0.18873210E+03 0.91188000E+02 0.0000E+00 0.9000E+01
#aMCatNLO 1  0  0  1  2 0.28603471D+03 0.00000000D+00  -5  7  0 0.00000000D+00 0.00000000D+00 0.00000000D+00 0.00000000D+00 0.00000000D+00
  <mgrwgt>
 0.1899993086D-03    9    2    0
 0.599587550158794D+03 0.000000000000000D+00 0.000000000000000D+00 0.599587550158794D+03
 0.599587550158794D+03 0.000000000000000D+00 0.000000000000000D+00 -.599587550158794D+03
 0.509293068662599D+03 0.427906884607828D+03 -.243130466556424D+03 -.940608993208434D+02
 0.741707877775542D+02 -.711802684729181D+02 0.129282854455659D+02 -.163564841914224D+02
 0.491833635944650D+03 -.432942823828431D+03 0.220338476839016D+03 0.768881809269889D+02
 0.123877607932785D+03 0.762162076935209D+02 0.986370427184212D+01 0.335292025852769D+02
 0.000000000000000D+00 0.000000000000000D+00 -.000000000000000D+00 0.000000000000000D+00
 0.100909939080211D+04 0.000000000000000D+00 0.000000000000000D+00 0.100909939080211D+04
 0.668494953393088D+03 0.000000000000000D+00 0.000000000000000D+00 -.668494953393088D+03
 0.445059044983756D+03 0.403849092927830D+03 -.133494417629260D+03 -.940608993208434D+02
 0.829026710773601D+02 -.751398558176248D+02 0.309728972549108D+02 -.163564841914224D+02
 0.579100450918371D+03 -.459939472964900D+03 0.343367472391270D+03 0.768881809269889D+02
 0.125754436279582D+03 0.699233566268774D+02 0.385414539427531D+02 0.335292025852769D+02
 0.444777740936129D+03 0.613068792278169D+02 -.279387405959674D+03 0.340604437409022D+03
0.289315565095D-04 0.000000000000D+00 0.000000000000D+00 0.111508898485D-06 0.000000000000D+00  7 1 -1 23 -13 13 23 21 0 0.19632630D+00 0.43341108D-01 0.34687197D+06 0.34687197D+06 0.34687197D+06 0.10799179D+01  1  2  2  1  7  1        1 0.171548957145D-03 0.100000000000D+01
-.160668347751D-05 0.000000000000D+00 -.111104794850D-06 0.111508898485D-06 0.000000000000D+00  7 1 -1 23 -13 13 23 21 2 0.19632630D+00 0.43341108D-01 0.34687197D+06 0.34687197D+06 0.34687197D+06 0.10799179D+01  1  2  3  1  7  1        1 -.111103588753D-04 0.100000000000D+01
0.175789610350D-05 0.000000000000D+00 0.000000000000D+00 0.111508898485D-06 0.000000000000D+00  7 1 -1 23 -13 13 23 21 2 0.19632630D+00 0.43341108D-01 0.34687197D+06 0.34687197D+06 0.34687197D+06 0.10799179D+01  1  2 15  1  7  1        1 0.121560076074D-04 0.100000000000D+01
0.174121085410D-04 0.000000000000D+00 0.000000000000D+00 0.111508898485D-06 0.000000000000D+00  7 1 -1 23 -13 13 23 21 2 0.33516098D+00 0.43341108D-01 0.56061858D+06 0.56061858D+06 0.56061858D+06 0.10650157D+01  1  2 12  1  7  1        1 0.281490731875D-04 0.100000000000D+01
-.251643802426D-04 0.000000000000D+00 0.000000000000D+00 0.111508898485D-06 0.000000000000D+00  7 1 -1 23 -13 13 23 21 2 0.19632630D+00 0.43341108D-01 0.34687197D+06 0.34687197D+06 0.34687197D+06 0.10799179D+01  1  2  4  1  7  1        1 -.174013923266D-03 0.100000000000D+01
-.289159857402D-04 0.000000000000D+00 -.884028535398D-05 0.111508898485D-06 0.000000000000D+00  7 1 -1 23 -13 13 23 21 2 0.34306096D+00 0.43341108D-01 0.34687197D+06 0.34687197D+06 0.34687197D+06 0.10799179D+01  1  2  5  1  7  1        1 -.456435757546D-04 0.100000000000D+01
0.302354737291D-04 0.000000000000D+00 0.762198653514D-05 0.111508898485D-06 0.000000000000D+00  7 1 -1 23 -13 13 23 21 2 0.19632630D+00 0.43341108D-01 0.34687197D+06 0.34687197D+06 0.34687197D+06 0.10799179D+01  1  2  6  1  7  1        1 0.209080984896D-03 0.100000000000D+01
0.103651501250D-05 0.000000000000D+00 0.000000000000D+00 0.111508898485D-06 0.000000000000D+00  7 21 -1 23 -13 13 23 -1 2 0.33516098D+00 0.43341108D-01 0.56061858D+06 0.56061858D+06 0.56061858D+06 0.10650157D+01  1  2 12  3  7  1        1 0.711642861074D-06 0.100000000000D+01
-.133562751310D-05 0.000000000000D+00 -.545224564158D-06 0.111508898485D-06 0.000000000000D+00  7 21 -1 23 -13 13 23 -1 2 0.34306096D+00 0.43341108D-01 0.34687197D+06 0.34687197D+06 0.34687197D+06 0.10799179D+01  1  2  5  3  7  1        1 -.879499240433D-06 0.100000000000D+01
  </mgrwgt>
  </event>
  <event>
  8     66 0.24912036E-05 0.27115861E+03 0.75467711E-02 0.90420054E-01
        1 -1    0    0  501    0 0.00000000E+00 0.00000000E+00 0.13966515E+04 0.13966516E+04 0.32000000E+00 0.0000E+00 0.9000E+01
       -1 -1    0    0    0  501 0.00000000E+00 0.00000000E+00 -.77146852E+02 0.77147516E+02 0.32000000E+00 0.0000E+00 0.9000E+01
       25  2    1    2    0    0 0.52959036E+02 -.18486886E+03 0.42684859E+03 0.55602521E+03 0.29997192E+03 0.0000E+00 0.0000E+00
       23  2    1    2    0    0 -.52959036E+02 0.18486886E+03 0.89265609E+03 0.91777388E+03 0.92156624E+02 0.0000E+00 0.0000E+00
       23  1    3    3    0    0 -.63664024E+02 -.16645422E+03 0.29745881E+03 0.35854862E+03 0.91188000E+02 0.0000E+00 0.9000E+01
      -13  1    4    4    0    0 -.31616895E+02 0.81930786E+02 0.60830994E+03 0.61461636E+03 0.10565837E+00 0.0000E+00 0.9000E+01
       13  1    4    4    0    0 -.21342140E+02 0.10293808E+03 0.28434615E+03 0.30315751E+03 0.10565837E+00 0.0000E+00 0.9000E+01
       23  1    3    3    0    0 0.11662306E+03 -.18414642E+02 0.12938978E+03 0.19747659E+03 0.91188000E+02 0.0000E+00 0.9000E+01
#aMCatNLO 1  0  0  2  2 0.63423767D+03 0.00000000D+00  -5  7  0 0.00000000D+00 0.00000000D+00 0.00000000D+00 0.00000000D+00 0.00000000D+00
  <mgrwgt>
 0.1940425790D-03    3    2    0
 0.328249578140305D+03 0.000000000000000D+00 0.000000000000000D+00 0.328249578140305D+03
 0.328249578140305D+03 0.000000000000000D+00 0.000000000000000D+00 -.328249578140305D+03
 0.207053321837817D+03 -.636640235217673D+02 -.166454220473270D+03 -.528744866238011D+02
 0.157126271694410D+03 -.316169089978504D+02 0.819307594020626D+02 0.130293464862243D+03
 0.109059013546995D+03 -.213421270073381D+02 0.102938103592700D+03 0.290194569105781D+02
 0.183260549201388D+03 0.116623059526956D+03 -.184146425214931D+02 -.106438435149020D+03
 0.000000000000000D+00 -.000000000000000D+00 -.000000000000000D+00 0.000000000000000D+00
 0.841078000890066D+03 0.000000000000000D+00 0.000000000000000D+00 0.841078000890066D+03
 0.717845332867006D+03 0.000000000000000D+00 0.000000000000000D+00 -.717845332867006D+03
 0.190765757092259D+03 0.927280313460635D+02 -.129159295453078D+03 -.528744866238011D+02
 0.207124141199139D+03 0.111578512177238D+03 0.116078673760455D+03 0.130293464862243D+03
 0.154652740169822D+03 0.823291779675083D+02 0.127660673732531D+03 0.290194569105781D+02
 0.360281857340714D+03 0.330302388571571D+03 0.325416196864469D+02 -.106438435149020D+03
 0.646098837955139D+03 -.616938110062381D+03 -.147121671726355D+03 0.123232668023060D+03
0.446804871376D-05 0.000000000000D+00 0.000000000000D+00 0.495855748127D-06 0.000000000000D+00  7 1 -1 23 -13 13 23 21 0 0.21486952D+00 0.11868800D-01 0.73526993D+05 0.73526993D+05 0.73526993D+05 0.11328492D+01  1  2  2  2  7  2       -1 0.191712670464D-03 0.100000000000D+01
-.237206663071D-06 0.000000000000D+00 -.171584835251D-07 0.495855748127D-06 0.000000000000D+00  7 1 -1 23 -13 13 23 21 2 0.21486952D+00 0.11868800D-01 0.73526993D+05 0.73526993D+05 0.73526993D+05 0.11328492D+01  1  2  3  2  7  2       -1 -.130618298189D-04 0.100000000000D+01
0.279518486679D-06 0.000000000000D+00 0.000000000000D+00 0.495855748127D-06 0.000000000000D+00  7 1 -1 23 -13 13 23 21 2 0.21486952D+00 0.11868800D-01 0.73526993D+05 0.73526993D+05 0.73526993D+05 0.11328492D+01  1  2 15  2  7  2       -1 0.153917383979D-04 0.100000000000D+01
  </mgrwgt>
  </event>
  <event>
  8     66 0.24912036E-05 0.22053924E+03 0.75467711E-02 0.90440737E-01
        1 -1    0    0  501    0 0.00000000E+00 0.00000000E+00 0.18652487E+04 0.18652487E+04 0.32000000E+00 0.0000E+00 0.9000E+01
       -1 -1    0    0    0  501 0.00000000E+00 0.00000000E+00 -.31115159E+03 0.31115176E+03 0.32000000E+00 0.0000E+00 0.9000E+01
       25  2    1    2    0    0 -.47412642E+02 -.12071996E+03 0.18298170E+04 0.18586968E+04 0.29950346E+03 0.0000E+00 0.0000E+00
       23  2    1    2    0    0 0.47412642E+02 0.12071996E+03 -.27571990E+03 0.31770366E+03 0.89960441E+02 0.0000E+00 0.0000E+00
       23  1    3    3    0    0 0.82895575E+02 -.54884620E+02 0.11298510E+04 0.11378763E+04 0.91188000E+02 0.0000E+00 0.9000E+01
      -11  1    4    4    0    0 0.35911534E+02 0.45587635E+02 -.41191147E+02 0.71165872E+02 0.51099893E-03 0.0000E+00 0.9000E+01
       11  1    4    4    0    0 0.11501107E+02 0.75132330E+02 -.23452876E+03 0.24653779E+03 0.51099893E-03 0.0000E+00 0.9000E+01
       23  1    3    3    0    0 -.13030822E+03 -.65835345E+02 0.69996601E+03 0.72082050E+03 0.91188000E+02 0.0000E+00 0.9000E+01
#aMCatNLO 1  0  0  1  1 0.69866326D+03 0.00000000D+00  -5  7  0 0.00000000D+00 0.00000000D+00 0.00000000D+00 0.00000000D+00 0.00000000D+00
  <mgrwgt>
 0.2686694081D-03    3    2    0
 0.761823672909888D+03 0.000000000000000D+00 0.000000000000000D+00 0.761823672909888D+03
 0.761823672909888D+03 0.000000000000000D+00 0.000000000000000D+00 -.761823672909888D+03
 0.472928600967867D+03 0.828955751474921D+02 -.548846199536763D+02 0.453279397704033D+03
 0.143668729619031D+03 0.359115342594862D+02 0.455876346643710D+02 -.131426150910630D+03
 0.591373995194131D+03 0.115011072796097D+02 0.751323299195978D+02 -.586469146438296D+03
 0.315676020038748D+03 -.130308216686588D+03 -.658353446302924D+02 0.264615899644893D+03
 0.000000000000000D+00 0.000000000000000D+00 0.000000000000000D+00 -.000000000000000D+00
 0.109407506350807D+04 0.000000000000000D+00 0.000000000000000D+00 0.109407506350807D+04
 0.131482989001840D+04 0.000000000000000D+00 0.000000000000000D+00 -.131482989001840D+04
 0.505356827456861D+03 -.868248013474012D+02 -.184579287032205D+03 0.453279397704033D+03
 0.132276204503309D+03 -.119614859760447D+02 0.900466478345245D+01 -.131426150910630D+03
 0.625473885232297D+03 -.199606892903464D+03 -.861893826926855D+02 -.586469146438296D+03
 0.413088651316433D+03 -.256739839610526D+03 -.162450185947308D+03 0.264615899644893D+03
 0.732709385017573D+03 0.555133019837437D+03 0.424214190888746D+03 -.220754826510329D+03
0.106047367624D-03 0.000000000000D+00 0.000000000000D+00 0.180012352939D-05 0.000000000000D+00  7 1 -1 23 -11 11 23 21 0 0.28696135D+00 0.47869491D-01 0.48637557D+05 0.48637557D+05 0.48637557D+05 0.11483522D+01  1  2  2  1  7  1        1 0.235215456212D-03 0.100000000000D+01
0.511625821600D-05 0.000000000000D+00 -.407249814589D-06 0.180012352939D-05 0.000000000000D+00  7 1 -1 23 -11 11 23 21 2 0.28696135D+00 0.47869491D-01 0.48637557D+05 0.48637557D+05 0.48637557D+05 0.11483522D+01  1  2  3  1  7  1        1 0.149647224552D-04 0.100000000000D+01
0.632124465856D-05 0.000000000000D+00 0.000000000000D+00 0.180012352939D-05 0.000000000000D+00  7 1 -1 23 -11 11 23 21 2 0.28696135D+00 0.47869491D-01 0.48637557D+05 0.48637557D+05 0.48637557D+05 0.11483522D+01  1  2 15  1  7  1        1 0.184892294120D-04 0.100000000000D+01
  </mgrwgt>
  </event>
  <event>
  8     66 0.24912036E-05 0.22552403E+03 0.75467711E-02 0.91995912E-01
        1 -1    0    0  501    0 0.00000000E+00 0.00000000E+00 0.63039694E+03 0.63039702E+03 0.32000000E+00 0.0000E+00 0.9000E+01
       -1 -1    0    0    0  501 0.00000000E+00 0.00000000E+00 -.36860954E+03 0.36860968E+03 0.32000000E+00 0.0000E+00 0.9000E+01
       25  2    1    2    0    0 0.34000379E+02 0.10672700E+03 0.57193901E+03 0.65550444E+03 0.30004194E+03 0.0000E+00 0.0000E+00
       23  2    1    2    0    0 -.34000379E+02 -.10672700E+03 -.31015161E+03 0.34350225E+03 0.96193022E+02 0.0000E+00 0.0000E+00
       23  1    3    3    0    0 -.91845989E+02 0.15420811E+02 0.32174601E+03 0.34714440E+03 0.91188000E+02 0.0000E+00 0.9000E+01
      -13  1    4    4    0    0 -.45897297E+02 -.11640235E+03 -.30017051E+03 0.32520519E+03 0.10565837E+00 0.0000E+00 0.9000E+01
       13  1    4    4    0    0 0.11896918E+02 0.96753457E+01 -.99810950E+01 0.18297059E+02 0.10565837E+00 0.0000E+00 0.9000E+01
       23  1    3    3    0    0 0.12584637E+03 0.91306189E+02 0.25019300E+03 0.30836004E+03 0.91188000E+02 0.0000E+00 0.9000E+01
#aMCatNLO 1  0  0  1  1 0.54620308D+03 0.00000000D+00  -5  7  0 0.00000000D+00 0.00000000D+00 0.00000000D+00 0.00000000D+00 0.00000000D+00
  <mgrwgt>
 0.2843790767D-03    3    2    0
 0.482048164498898D+03 0.000000000000000D+00 0.000000000000000D+00 0.482048164498898D+03
 0.482048164498898D+03 0.000000000000000D+00 0.000000000000000D+00 -.482048164498898D+03
 0.272348850430357D+03 -.918459888336883D+02 0.154208115060075D+02 0.239134183868378D+03
 0.418488766627920D+03 -.458973658207857D+02 -.116402497679180D+03 -.399345387025466D+03
 0.216693569695218D+02 0.118969864073094D+02 0.967549671781549D+01 -.153103726003125D+02
 0.251589354969997D+03 0.125846368247165D+03 0.913061894553572D+02 0.175521575757400D+03
 0.000000000000000D+00 0.000000000000000D+00 -.000000000000000D+00 -.000000000000000D+00
 0.799196131377482D+03 0.000000000000000D+00 0.000000000000000D+00 0.799196131377482D+03
 0.858261455176722D+03 0.000000000000000D+00 0.000000000000000D+00 -.858261455176722D+03
 0.364532058461668D+03 -.247460277463132D+03 0.784004048827277D+02 0.239134183868378D+03
 0.480347208728435D+03 -.265517264842354D+03 -.275188093004662D+02 -.399345387025466D+03
 0.207139404824719D+02 0.154113087658527D+01 0.138666772073278D+02 -.153103726003125D+02
 0.242476977693064D+03 0.512712573309075D+01 0.140163199137716D+03 0.175521575757400D+03
 0.549387401188564D+03 0.506309285695809D+03 -.204911471927305D+03 -.590653237992405D+02
0.210543391631D-04 0.000000000000D+00 0.000000000000D+00 0.282006927326D-06 0.000000000000D+00  7 1 -1 23 -13 13 23 21 0 0.96984161D-01 0.56709176D-01 0.50861087D+05 0.50861087D+05 0.50861087D+05 0.11466437D+01  1  2  2  1  7  1        1 0.269046553312D-03 0.100000000000D+01
-.349068829765D-06 0.000000000000D+00 -.808542061209D-07 0.282006927326D-06 0.000000000000D+00  7 1 -1 23 -13 13 23 21 2 0.96984161D-01 0.56709176D-01 0.50861087D+05 0.50861087D+05 0.50861087D+05 0.11466437D+01  1  2  3  1  7  1        1 -.586480874774D-05 0.100000000000D+01
0.126164863065D-05 0.000000000000D+00 0.000000000000D+00 0.282006927326D-06 0.000000000000D+00  7 1 -1 23 -13 13 23 21 2 0.96984161D-01 0.56709176D-01 0.50861087D+05 0.50861087D+05 0.50861087D+05 0.11466437D+01  1  2 15  1  7  1        1 0.211973321439D-04 0.100000000000D+01
  </mgrwgt>
  </event>
  <event>
  8     66 0.24912036E-05 0.97630126E+02 0.75467711E-02 0.10619273E+00
        1 -1    0    0  501    0 0.00000000E+00 0.00000000E+00 0.44467372E+03 0.44467383E+03 0.32000000E+00 0.0000E+00 0.9000E+01
       -1 -1    0    0    0  501 0.00000000E+00 0.00000000E+00 -.94780278E+02 0.94780819E+02 0.32000000E+00 0.0000E+00 0.9000E+01
       25  2    1    2    0    0 -.38085809E+01 0.47136070E+02 0.21880915E+03 0.37231295E+03 0.29749484E+03 0.0000E+00 0.0000E+00
       23  2    1    2    0    0 0.38085809E+01 -.47136070E+02 0.13108429E+03 0.16714170E+03 0.92287278E+02 0.0000E+00 0.0000E+00
       23  1    3    3    0    0 -.10139989E+03 0.80090510E+02 0.15210216E+03 0.21942367E+03 0.91188000E+02 0.0000E+00 0.9000E+01
      -11  1    4    4    0    0 -.56415464E+01 -.66270290E+02 0.49760198E+02 0.83064166E+02 0.51099893E-03 0.0000E+00 0.9000E+01
       11  1    4    4    0    0 0.94501273E+01 0.19134221E+02 0.81324092E+02 0.84077532E+02 0.51099893E-03 0.0000E+00 0.9000E+01
       23  1    3    3    0    0 0.97591312E+02 -.32954440E+02 0.66706988E+02 0.15288928E+03 0.91188000E+02 0.0000E+00 0.9000E+01
#aMCatNLO 1  0  0  2  1 0.19268399D+02 0.00000000D+00  -5  7  0 0.00000000D+00 0.00000000D+00 0.00000000D+00 0.00000000D+00 0.00000000D+00
  <mgrwgt>
 0.6680636934D-03    6    2    0
 0.205296067713459D+03 0.000000000000000D+00 0.000000000000000D+00 0.205296067713459D+03
 0.205296067713459D+03 0.000000000000000D+00 0.000000000000000D+00 -.205296067713459D+03
 0.158672232847992D+03 -.101399892766906D+03 0.800905105059755D+02 0.128529376688666D+02
 0.667294426906576D+02 -.564154635026162D+01 -.662702911730205D+02 -.540740089383899D+01
 0.411631096603873D+02 0.945012738968666D+01 0.191342200085172D+02 0.351991237660460D+02
 0.144027350227880D+03 0.975913117274806D+02 -.329544393414722D+02 -.426446605410737D+02
 0.000000000000000D+00 0.000000000000000D+00 -.000000000000000D+00 0.000000000000000D+00
 0.216686685375138D+03 0.000000000000000D+00 0.000000000000000D+00 0.216686685375138D+03
 0.213835519766810D+03 0.000000000000000D+00 0.000000000000000D+00 -.213835519766810D+03
 0.164200107429867D+03 -.104441013646192D+03 0.870247125695676D+02 0.128529376688666D+02
 0.640611255468452D+02 -.687345716534877D+01 -.634613536610912D+02 -.540740089383899D+01
 0.418526206182379D+02 0.866820574708864D+01 0.209171161454649D+02 0.351991237660460D+02
 0.140930149968934D+03 0.949073091188583D+02 -.268345193625719D+02 -.426446605410737D+02
 0.194782015780648D+02 0.773895594559380D+01 -.176459556913694D+02 0.285116560832773D+01
0.188442175372D-05 0.000000000000D+00 0.000000000000D+00 0.410154708777D-08 0.000000000000D+00  7 1 -1 23 -11 11 23 21 0 0.68411391D-01 0.14581632D-01 0.36781629D+05 0.36781629D+05 0.36781629D+05 0.11592118D+01  1  2  2  2  7  2       -1 0.371107139377D-03 0.100000000000D+01
-.104100196961D-06 0.000000000000D+00 -.723667571392D-08 0.410154708777D-08 0.000000000000D+00  7 1 -1 23 -11 11 23 21 2 0.68411391D-01 0.14581632D-01 0.36781629D+05 0.36781629D+05 0.36781629D+05 0.11592118D+01  1  2  3  2  7  2       -1 -.275485262892D-04 0.100000000000D+01
0.122820117013D-06 0.000000000000D+00 0.000000000000D+00 0.410154708777D-08 0.000000000000D+00  7 1 -1 23 -11 11 23 21 2 0.68411391D-01 0.14581632D-01 0.36781629D+05 0.36781629D+05 0.36781629D+05 0.11592118D+01  1  2 15  2  7  2       -1 0.325024670571D-04 0.100000000000D+01
0.316331537264D-05 0.000000000000D+00 0.000000000000D+00 0.410154708777D-08 0.000000000000D+00  7 1 -1 23 -11 11 23 21 2 0.68411391D-01 0.15573792D-01 0.40756046D+05 0.40756046D+05 0.40756046D+05 0.11551871D+01  1  2 12  2  7  2       -1 0.751252741953D-03 0.100000000000D+01
-.215650205274D-05 0.000000000000D+00 0.000000000000D+00 0.410154708777D-08 0.000000000000D+00  7 1 -1 23 -11 11 23 21 2 0.68411391D-01 0.14581632D-01 0.36781629D+05 0.36781629D+05 0.36781629D+05 0.11592118D+01  1  2  4  2  7  2       -1 -.570685313062D-03 0.100000000000D+01
0.358654354748D-07 0.000000000000D+00 0.000000000000D+00 0.410154708777D-08 0.000000000000D+00  7 1 21 23 -11 11 23 1 2 0.68411391D-01 0.15573792D-01 0.40756046D+05 0.40756046D+05 0.40756046D+05 0.11551871D+01  1  2 12  4  7  2       -1 0.111435184338D-03 0.100000000000D+01
  </mgrwgt>
  </event>
  <event>
  8     66 0.24912036E-05 0.95545434E+02 0.75467711E-02 0.10726694E+00
        1 -1    0    0  501    0 0.00000000E+00 0.00000000E+00 0.11812609E+04 0.11812609E+04 0.32000000E+00 0.0000E+00 0.9000E+01
       -1 -1    0    0    0  501 0.00000000E+00 0.00000000E+00 -.34485741E+02 0.34487225E+02 0.32000000E+00 0.0000E+00 0.9000E+01
       25  2    1    2    0    0 0.26864193E+02 0.15964072E+01 0.96982113E+03 0.10171576E+04 0.30550343E+03 0.0000E+00 0.0000E+00
       23  2    1    2    0    0 -.26864193E+02 -.15964072E+01 0.17695400E+03 0.19859053E+03 0.86030503E+02 0.0000E+00 0.0000E+00
       23  1    3    3    0    0 -.10366778E+03 -.16501605E+02 0.34153006E+03 0.36875106E+03 0.91188000E+02 0.0000E+00 0.9000E+01
      -13  1    4    4    0    0 -.31168617E+02 0.15565972E+02 0.19068271E+02 0.39716398E+02 0.10565837E+00 0.0000E+00 0.9000E+01
       13  1    4    4    0    0 0.43044243E+01 -.17162379E+02 0.15788573E+03 0.15887413E+03 0.10565837E+00 0.0000E+00 0.9000E+01
       23  1    3    3    0    0 0.13053197E+03 0.18098012E+02 0.62829107E+03 0.64840655E+03 0.91188000E+02 0.0000E+00 0.9000E+01
#aMCatNLO 1  0  0  1  2 0.22689695D+02 0.00000000D+00  -5  7  0 0.00000000D+00 0.00000000D+00 0.00000000D+00 0.00000000D+00 0.00000000D+00
  <mgrwgt>
 0.5757882925D-03    9    2    0
 0.201835539210939D+03 0.000000000000000D+00 0.000000000000000D+00 0.201835539210939D+03
 0.201835539210939D+03 0.000000000000000D+00 0.000000000000000D+00 -.201835539210939D+03
 0.140318851907495D+03 -.103645587907095D+03 -.164992364483763D+02 -.189603839795152D+02
 0.654673285526629D+02 -.311843062840804D+02 0.155650887383956D+02 -.554187528005534D+02
 0.299462932437143D+02 0.429731957052065D+01 -.171628504741226D+02 0.241609206602368D+02
 0.167938604718005D+03 0.130532574620655D+03 0.180969981841033D+02 0.502182161198318D+02
 0.000000000000000D+00 -.000000000000000D+00 0.000000000000000D+00 0.000000000000000D+00
 0.232312286488586D+03 0.000000000000000D+00 0.000000000000000D+00 0.232312286488586D+03
 0.206421811625723D+03 0.000000000000000D+00 0.000000000000000D+00 -.206421811625723D+03
 0.140662473903405D+03 -.102566724096395D+03 -.243156568512869D+02 -.189603839795152D+02
 0.644643320409763D+02 -.306854170213363D+02 0.119506119402767D+02 -.554187528005534D+02
 0.309822240477988D+02 0.453126242119134D+01 -.188577777234765D+02 0.241609206602368D+02
 0.168199220994731D+03 0.131823218881523D+03 0.874621819362355D+01 0.502182161198318D+02
 0.344258471273974D+02 -.310234018498293D+01 0.224766044408631D+02 0.258904748628632D+02
0.164736453341D-05 0.000000000000D+00 0.000000000000D+00 0.966965021403D-10 0.000000000000D+00  7 1 -1 23 -13 13 23 21 0 0.18173256D+00 0.53056161D-02 0.30946464D+05 0.30946464D+05 0.30946464D+05 0.11660864D+01  1  2  2  1  7  1        1 0.334258162034D-03 0.100000000000D+01
-.894180996529D-07 0.000000000000D+00 -.632631356932D-08 0.966965021403D-10 0.000000000000D+00  7 1 -1 23 -13 13 23 21 2 0.18173256D+00 0.53056161D-02 0.30946464D+05 0.30946464D+05 0.30946464D+05 0.11660864D+01  1  2  3  1  7  1        1 -.246705704391D-04 0.100000000000D+01
0.993284074232D-07 0.000000000000D+00 0.000000000000D+00 0.966965021403D-10 0.000000000000D+00  7 1 -1 23 -13 13 23 21 2 0.18173256D+00 0.53056161D-02 0.30946464D+05 0.30946464D+05 0.30946464D+05 0.11660864D+01  1  2 15  1  7  1        1 0.274048372919D-04 0.100000000000D+01
0.526913301898D-05 0.000000000000D+00 0.000000000000D+00 0.966965021403D-10 0.000000000000D+00  7 1 -1 23 -13 13 23 21 2 0.21103264D+00 0.53056161D-02 0.35141437D+05 0.35141437D+05 0.35141437D+05 0.11610151D+01  1  2 12  1  7  1        1 0.107269022773D-02 0.100000000000D+01
-.535574560015D-05 0.000000000000D+00 0.000000000000D+00 0.966965021403D-10 0.000000000000D+00  7 1 -1 23 -13 13 23 21 2 0.18173256D+00 0.53056161D-02 0.30946464D+05 0.30946464D+05 0.30946464D+05 0.11660864D+01  1  2  4  1  7  1        1 -.147765720358D-02 0.100000000000D+01
-.879582032322D-05 0.000000000000D+00 -.136544427256D-05 0.966965021403D-10 0.000000000000D+00  7 1 -1 23 -13 13 23 21 2 0.21131546D+00 0.53056161D-02 0.30946464D+05 0.30946464D+05 0.30946464D+05 0.11660864D+01  1  2  5  1  7  1        1 -.180148101442D-02 0.100000000000D+01
0.891554769134D-05 0.000000000000D+00 0.135006127051D-05 0.966965021403D-10 0.000000000000D+00  7 1 -1 23 -13 13 23 21 2 0.18173256D+00 0.53056161D-02 0.30946464D+05 0.30946464D+05 0.30946464D+05 0.11660864D+01  1  2  6  1  7  1        1 0.245981124824D-02 0.100000000000D+01
0.119854325729D-06 0.000000000000D+00 0.000000000000D+00 0.966965021403D-10 0.000000000000D+00  7 21 -1 23 -13 13 23 -1 2 0.21103264D+00 0.53056161D-02 0.35141437D+05 0.35141437D+05 0.35141437D+05 0.11610151D+01  1  2 12  3  7  1        1 0.235746360844D-04 0.100000000000D+01
-.191954122697D-06 0.000000000000D+00 -.312841196434D-07 0.966965021403D-10 0.000000000000D+00  7 21 -1 23 -13 13 23 -1 2 0.21131546D+00 0.53056161D-02 0.30946464D+05 0.30946464D+05 0.30946464D+05 0.11660864D+01  1  2  5  3  7  1        1 -.381420304503D-04 0.100000000000D+01
  </mgrwgt>
  </event>
  <event>
  8     66 0.24912036E-05 0.24001496E+03 0.75467711E-02 0.90534828E-01
        1 -1    0    0  501    0 0.00000000E+00 0.00000000E+00 0.12640456E+04 0.12640457E+04 0.32000000E+00 0.0000E+00 0.9000E+01
       -1 -1    0    0    0  501 0.00000000E+00 0.00000000E+00 -.33993525E+03 0.33993540E+03 0.32000000E+00 0.0000E+00 0.9000E+01
       25  2    1    2    0    0 -.40583118E+03 0.45819044E+03 0.58469914E+03 0.89808558E+03 0.30007865E+03 0.0000E+00 0.0000E+00
       23  2    1    2    0    0 0.40583118E+03 -.45819044E+03 0.33941126E+03 0.70589551E+03 0.91929518E+02 0.0000E+00 0.0000E+00
       23  1    3    3    0    0 -.29557745E+03 0.20014520E+03 0.42542726E+03 0.56278569E+03 0.91188000E+02 0.0000E+00 0.9000E+01
      -13  1    4    4    0    0 0.40379454E+03 -.45699159E+03 0.34441096E+03 0.70036438E+03 0.10565837E+00 0.0000E+00 0.9000E+01
       13  1    4    4    0    0 0.20366465E+01 -.11988498E+01 -.49997043E+01 0.55311279E+01 0.10565837E+00 0.0000E+00 0.9000E+01
       23  1    3    3    0    0 -.11025374E+03 0.25804524E+03 0.15927187E+03 0.33529988E+03 0.91188000E+02 0.0000E+00 0.9000E+01
#aMCatNLO 1  0  0  1  2 0.17282950D+03 0.00000000D+00  -5  7  0 0.00000000D+00 0.00000000D+00 0.00000000D+00 0.00000000D+00 0.00000000D+00
  <mgrwgt>
 0.4461305281D-03    9    2    0
 0.655510354832108D+03 0.000000000000000D+00 0.000000000000000D+00 0.655510354832108D+03
 0.655510354832108D+03 0.000000000000000D+00 0.000000000000000D+00 -.655510354832108D+03
 0.388671092954756D+03 -.295577447523391D+03 0.200145202690797D+03 0.123797566656464D+03
 0.614100530507449D+03 0.403795067448772D+03 -.456992193192285D+03 -.722989656556574D+02
 0.102904992216853D+02 0.203611573995675D+01 -.119824769427908D+01 -.100156282572868D+02
 0.297958586980325D+03 -.110253735665337D+03 0.258045238195767D+03 -.414829727435196D+02
 0.000000000000000D+00 -.000000000000000D+00 0.000000000000000D+00 0.000000000000000D+00
 0.105977725368455D+04 0.000000000000000D+00 0.000000000000000D+00 0.105977725368455D+04
 0.679916326261830D+03 0.000000000000000D+00 0.000000000000000D+00 -.679916326261830D+03
 0.346003502771610D+03 -.250905293840650D+03 0.181999639007606D+03 0.123797566656464D+03
 0.691403863035417D+03 0.483176732802506D+03 -.489236554504787D+03 -.722989656556574D+02
 0.106876629166623D+02 0.331170045253168D+01 -.171638263354607D+01 -.100156282572868D+02
 0.274268513376201D+03 -.754592605095952D+02 0.243911928903235D+03 -.414829727435196D+02
 0.417330037846490D+03 -.160123878904792D+03 0.650413692274919D+02 0.379860927422721D+03
0.896495490082D-04 0.000000000000D+00 0.000000000000D+00 0.344970640714D-05 0.000000000000D+00  7 1 -1 23 -13 13 23 21 0 0.19446858D+00 0.52297745D-01 0.40683813D+06 0.40683813D+06 0.40683813D+06 0.10748973D+01  1  2  2  1  7  1        1 0.383204186435D-03 0.100000000000D+01
-.497600780861D-05 0.000000000000D+00 -.344277873460D-06 0.344970640714D-05 0.000000000000D+00  7 1 -1 23 -13 13 23 21 2 0.19446858D+00 0.52297745D-01 0.40683813D+06 0.40683813D+06 0.40683813D+06 0.10748973D+01  1  2  3  1  7  1        1 -.245752054373D-04 0.100000000000D+01
0.552992552571D-05 0.000000000000D+00 0.000000000000D+00 0.344970640714D-05 0.000000000000D+00  7 1 -1 23 -13 13 23 21 2 0.19446858D+00 0.52297745D-01 0.40683813D+06 0.40683813D+06 0.40683813D+06 0.10748973D+01  1  2 15  1  7  1        1 0.273108606486D-04 0.100000000000D+01
0.206929893386D-03 0.000000000000D+00 0.000000000000D+00 0.344970640714D-05 0.000000000000D+00  7 1 -1 23 -13 13 23 21 2 0.31613442D+00 0.52297745D-01 0.53172140D+06 0.53172140D+06 0.53172140D+06 0.10666275D+01  1  2 12  1  7  1        1 0.289909286834D-03 0.100000000000D+01
-.201060591493D-03 0.000000000000D+00 0.000000000000D+00 0.344970640714D-05 0.000000000000D+00  7 1 -1 23 -13 13 23 21 2 0.19446858D+00 0.52297745D-01 0.40683813D+06 0.40683813D+06 0.40683813D+06 0.10748973D+01  1  2  4  1  7  1        1 -.992985849568D-03 0.100000000000D+01
-.230506760762D-03 0.000000000000D+00 -.292946702014D-04 0.344970640714D-05 0.000000000000D+00  7 1 -1 23 -13 13 23 21 2 0.31786712D+00 0.52297745D-01 0.40683813D+06 0.40683813D+06 0.40683813D+06 0.10748973D+01  1  2  5  1  7  1        1 -.327516727422D-03 0.100000000000D+01
0.220905264081D-03 0.000000000000D+00 0.260821990788D-04 0.344970640714D-05 0.000000000000D+00  7 1 -1 23 -13 13 23 21 2 0.19446858D+00 0.52297745D-01 0.40683813D+06 0.40683813D+06 0.40683813D+06 0.10748973D+01  1  2  6  1  7  1        1 0.109099351443D-02 0.100000000000D+01
0.114074150337D-04 0.000000000000D+00 0.000000000000D+00 0.344970640714D-05 0.000000000000D+00  7 21 -1 23 -13 13 23 -1 2 0.31613442D+00 0.52297745D-01 0.53172140D+06 0.53172140D+06 0.53172140D+06 0.10666275D+01  1  2 12  3  7  1        1 0.751082608055D-05 0.100000000000D+01
-.115236919784D-04 0.000000000000D+00 -.162915039981D-05 0.344970640714D-05 0.000000000000D+00  7 21 -1 23 -13 13 23 -1 2 0.31786712D+00 0.52297745D-01 0.40683813D+06 0.40683813D+06 0.40683813D+06 0.10748973D+01  1  2  5  3  7  1        1 -.772036385955D-05 0.100000000000D+01
  </mgrwgt>
  </event>
  <event>
  8     66 0.24912036E-05 0.25456323E+03 0.75467711E-02 0.96775278E-01
        1 -1    0    0  501    0 0.00000000E+00 0.00000000E+00 0.17517342E+03 0.17517371E+03 0.32000000E+00 0.0000E+00 0.9000E+01
       -1 -1    0    0    0  501 0.00000000E+00 0.00000000E+00 -.76457233E+03 0.76457240E+03 0.32000000E+00 0.0000E+00 0.9000E+01
       25  2    1    2    0    0 0.18735245E+03 -.15891746E+03 -.55261783E+03 0.67521973E+03 0.30029906E+03 0.0000E+00 0.0000E+00
       23  2    1    2    0    0 -.18735245E+03 0.15891746E+03 -.36781086E+02 0.26452638E+03 0.90915652E+02 0.0000E+00 0.0000E+00
       23  1    3    3    0    0 0.17082938E+02 0.48297214E+02 -.14163329E+03 0.17606729E+03 0.91188000E+02 0.0000E+00 0.9000E+01
      -11  1    4    4    0    0 -.48146813E+02 0.63299135E+02 -.51905236E+02 0.94968677E+02 0.51099893E-03 0.0000E+00 0.9000E+01
       11  1    4    4    0    0 -.13920564E+03 0.95618327E+02 0.15124150E+02 0.16955770E+03 0.51099893E-03 0.0000E+00 0.9000E+01
       23  1    3    3    0    0 0.17026951E+03 -.20721468E+03 -.41098453E+03 0.49915245E+03 0.91188000E+02 0.0000E+00 0.9000E+01
#aMCatNLO 1  0  0  1  2 0.17995284D+03 0.00000000D+00  -5  7  0 0.00000000D+00 0.00000000D+00 0.00000000D+00 0.00000000D+00 0.00000000D+00
  <mgrwgt>
 0.2016328885D-03    9    2    0
 0.365968466829190D+03 0.000000000000000D+00 0.000000000000000D+00 0.365968466829190D+03
 0.365968466829190D+03 0.000000000000000D+00 0.000000000000000D+00 -.365968466829190D+03
 0.112004236383089D+03 0.170829383902234D+02 0.482972140266986D+02 -.400655707181851D+02
 0.801347118390592D+02 -.481468133841011D+02 0.632991347588762D+02 0.983239244859754D+01
 0.229876837307599D+03 -.139205636938458D+03 0.956183274340742D+02 0.155956040068388D+03
 0.309921148128633D+03 0.170269511932336D+03 -.207214676219649D+03 -.125722861798800D+03
 0.000000000000000D+00 -.000000000000000D+00 -.000000000000000D+00 0.000000000000000D+00
 0.496673666667564D+03 0.000000000000000D+00 0.000000000000000D+00 0.496673666667564D+03
 0.444440372402608D+03 0.000000000000000D+00 0.000000000000000D+00 -.444440372402608D+03
 0.120313350476518D+03 0.451613417841647D+02 0.501523101179333D+02 -.400655707181851D+02
 0.717355183300515D+02 -.297914506073864D+02 0.645118448002038D+02 0.983239244859754D+01
 0.204121888213740D+03 -.867516171960410D+02 0.990838822816374D+02 0.155956040068388D+03
 0.357563080464530D+03 0.250943091934950D+03 -.201884699268002D+03 -.125722861798800D+03
 0.187380201585333D+03 -.179561365915687D+03 -.118633379317726D+02 0.522332942649562D+02
0.117062448467D-04 0.000000000000D+00 0.000000000000D+00 0.188399028979D-05 0.000000000000D+00  7 1 -1 23 -11 11 23 21 0 0.26949785D-01 0.11762654D+00 0.10121285D+06 0.10121285D+06 0.10121285D+06 0.11212927D+01  1  2  2  1  7  1        1 0.180580498983D-03 0.100000000000D+01
-.634836134795D-06 0.000000000000D+00 -.449550625363D-07 0.188399028979D-05 0.000000000000D+00  7 1 -1 23 -11 11 23 21 2 0.26949785D-01 0.11762654D+00 0.10121285D+06 0.10121285D+06 0.10121285D+06 0.11212927D+01  1  2  3  1  7  1        1 -.123126869066D-04 0.100000000000D+01
0.733812666952D-06 0.000000000000D+00 0.000000000000D+00 0.188399028979D-05 0.000000000000D+00  7 1 -1 23 -11 11 23 21 2 0.26949785D-01 0.11762654D+00 0.10121285D+06 0.10121285D+06 0.10121285D+06 0.11212927D+01  1  2 15  1  7  1        1 0.142323429954D-04 0.100000000000D+01
0.293755824777D-05 0.000000000000D+00 0.000000000000D+00 0.188399028979D-05 0.000000000000D+00  7 1 -1 23 -11 11 23 21 2 0.38622342D-01 0.11762654D+00 0.17259187D+06 0.17259187D+06 0.17259187D+06 0.11027756D+01  1  2 12  1  7  1        1 0.339498681467D-04 0.100000000000D+01
-.581333936657D-05 0.000000000000D+00 0.000000000000D+00 0.188399028979D-05 0.000000000000D+00  7 1 -1 23 -11 11 23 21 2 0.26949785D-01 0.11762654D+00 0.10121285D+06 0.10121285D+06 0.10121285D+06 0.11212927D+01  1  2  4  1  7  1        1 -.112750083965D-03 0.100000000000D+01
-.754989129857D-05 0.000000000000D+00 -.463908538746D-05 0.188399028979D-05 0.000000000000D+00  7 1 -1 23 -11 11 23 21 2 0.43896201D-01 0.11762654D+00 0.10121285D+06 0.10121285D+06 0.10121285D+06 0.11212927D+01  1  2  5  1  7  1        1 -.776225621395D-04 0.100000000000D+01
0.919869119001D-05 0.000000000000D+00 0.413694693910D-05 0.188399028979D-05 0.000000000000D+00  7 1 -1 23 -11 11 23 21 2 0.26949785D-01 0.11762654D+00 0.10121285D+06 0.10121285D+06 0.10121285D+06 0.11212927D+01  1  2  6  1  7  1        1 0.178409196272D-03 0.100000000000D+01
0.129469444708D-06 0.000000000000D+00 0.000000000000D+00 0.188399028979D-05 0.000000000000D+00  7 21 -1 23 -11 11 23 -1 2 0.38622342D-01 0.11762654D+00 0.17259187D+06 0.17259187D+06 0.17259187D+06 0.11027756D+01  1  2 12  3  7  1        1 0.802699408524D-05 0.100000000000D+01
-.214068049326D-06 0.000000000000D+00 -.256543874901D-06 0.188399028979D-05 0.000000000000D+00  7 21 -1 23 -11 11 23 -1 2 0.43896201D-01 0.11762654D+00 0.10121285D+06 0.10121285D+06 0.10121285D+06 0.11212927D+01  1  2  5  3  7  1        1 -.108806790155D-04 0.100000000000D+01
  </mgrwgt>
  </event>
  <event>
  8     66 0.24912036E-05 0.63365800E+03 0.75467711E-02 0.88153668E-01
        3 -1    0    0  501    0 0.00000000E+00 0.00000000E+00 0.16336383E+04 0.16336384E+04 0.50000000E+00 0.0000E+00 0.9000E+01
       -3 -1    0    0    0  501 0.00000000E+00 0.00000000E+00 -.30920436E+03 0.30920476E+03 0.50000000E+00 0.0000E+00 0.9000E+01
       25  2    1    2    0    0 0.59511815E+03 0.34534797E+02 0.11235481E+04 0.13071239E+04 0.30142048E+03 0.0000E+00 0.0000E+00
       23  2    1    2    0    0 -.59511815E+03 -.34534797E+02 0.20088589E+03 0.63571928E+03 0.91791040E+02 0.0000E+00 0.0000E+00
       23  1    3    3    0    0 0.15547604E+03 -.86088375E+02 0.39964217E+03 0.44678085E+03 0.91188000E+02 0.0000E+00 0.9000E+01
      -13  1    4    4    0    0 -.55021375E+03 -.55661637E+02 0.17710116E+03 0.58068771E+03 0.10565837E+00 0.0000E+00 0.9000E+01
       13  1    4    4    0    0 -.44904402E+02 0.21126840E+02 0.23784736E+02 0.55031569E+02 0.10565837E+00 0.0000E+00 0.9000E+01
       23  1    3    3    0    0 0.43964211E+03 0.12062317E+03 0.72390589E+03 0.86034303E+03 0.91188000E+02 0.0000E+00 0.9000E+01
#aMCatNLO 1  0  0  2  2 0.48749947D+03 0.00000000D+00  -5  7  0 0.00000000D+00 0.00000000D+00 0.00000000D+00 0.00000000D+00 0.00000000D+00
  <mgrwgt>
 0.8319347351D-05    3    2    0
 0.710723963316114D+03 0.000000000000000D+00 0.000000000000000D+00 0.710723963316114D+03
 0.710723963316114D+03 0.000000000000000D+00 0.000000000000000D+00 -.710723963316114D+03
 0.238296063177344D+03 0.155476040973218D+03 -.860883746095898D+02 0.129945199304144D+03
 0.628674059908349D+03 -.550214416942930D+03 -.556617391518291D+02 -.298993210264700D+03
 0.530552744879720D+02 -.449037327196757D+02 0.211269417093631D+02 -.187661736335130D+02
 0.501422529058564D+03 0.439642108689388D+03 0.120623172052056D+03 0.187814184594069D+03
 0.000000000000000D+00 -.000000000000000D+00 0.000000000000000D+00 0.000000000000000D+00
 0.121429582735412D+04 0.000000000000000D+00 0.000000000000000D+00 0.121429582735412D+04
 0.879702155634394D+03 0.000000000000000D+00 0.000000000000000D+00 -.879702155634394D+03
 0.293658945622231D+03 0.177298692710291D+03 -.172045760601615D+03 0.129945199304144D+03
 0.636687986286653D+03 -.498304847902990D+03 -.260128680951833D+03 -.298993210264700D+03
 0.452763315059945D+02 -.408698269252819D+02 0.523776373035897D+01 -.187661736335130D+02
 0.527097581318299D+03 0.481835594608395D+03 -.455730262462383D+02 0.187814184594069D+03
 0.591277138255338D+03 -.119959612490414D+03 0.472509704069328D+03 0.334593671719727D+03
0.103478619164D-03 0.000000000000D+00 0.000000000000D+00 0.617147757960D-06 0.000000000000D+00  7 3 -3 23 -13 13 23 21 0 0.25132901D+00 0.47569938D-01 0.40152246D+06 0.40152246D+06 0.40152246D+06 0.10753087D+01  1  2  2  2  7  2       -3 0.824163915285D-05 0.100000000000D+01
-.565673494429D-05 0.000000000000D+00 -.397385144136D-06 0.617147757960D-06 0.000000000000D+00  7 3 -3 23 -13 13 23 21 2 0.25132901D+00 0.47569938D-01 0.40152246D+06 0.40152246D+06 0.40152246D+06 0.10753087D+01  1  2  3  2  7  2       -3 -.520948899391D-06 0.100000000000D+01
0.650053110484D-05 0.000000000000D+00 0.000000000000D+00 0.617147757960D-06 0.000000000000D+00  7 3 -3 23 -13 13 23 21 2 0.25132901D+00 0.47569938D-01 0.40152246D+06 0.40152246D+06 0.40152246D+06 0.10753087D+01  1  2 15  2  7  2       -3 0.598657097755D-06 0.100000000000D+01
  </mgrwgt>
  </event>
  <event>
  8     66 0.24912036E-05 0.46203050E+03 0.75467711E-02 0.91345968E-01
        3 -1    0    0  501    0 0.00000000E+00 0.00000000E+00 0.51628695E+03 0.51628719E+03 0.50000000E+00 0.0000E+00 0.9000E+01
       -3 -1    0    0    0  501 0.00000000E+00 0.00000000E+00 -.89057703E+03 0.89057717E+03 0.50000000E+00 0.0000E+00 0.9000E+01
       25  2    1    2    0    0 0.24323575E+02 -.60702370E+03 0.18426120E+02 0.67775241E+03 0.29989899E+03 0.0000E+00 0.0000E+00
       23  2    1    2    0    0 -.24323575E+02 0.60702370E+03 -.39271620E+03 0.72911195E+03 0.91152661E+02 0.0000E+00 0.0000E+00
       23  1    3    3    0    0 -.83637379E+02 -.24277763E+03 0.75861146E+02 0.28285395E+03 0.91188000E+02 0.0000E+00 0.9000E+01
      -11  1    4    4    0    0 -.32612226E+02 0.49720189E+03 -.35831985E+03 0.61373153E+03 0.51099893E-03 0.0000E+00 0.9000E+01
       11  1    4    4    0    0 0.82886501E+01 0.10982181E+03 -.34396353E+02 0.11538041E+03 0.51099893E-03 0.0000E+00 0.9000E+01
       23  1    3    3    0    0 0.10796095E+03 -.36424607E+03 -.57435026E+02 0.39489847E+03 0.91188000E+02 0.0000E+00 0.9000E+01
#aMCatNLO 1  0  0  2  1 0.75278342D+02 0.00000000D+00  -5  7  0 0.00000000D+00 0.00000000D+00 0.00000000D+00 0.00000000D+00 0.00000000D+00
  <mgrwgt>
 0.2113652677D-04    9    2    0
 0.678080795134865D+03 0.000000000000000D+00 0.000000000000000D+00 0.678080795134865D+03
 0.678080795134865D+03 0.000000000000000D+00 0.000000000000000D+00 -.678080795134865D+03
 0.314366086115730D+03 -.836373790846482D+02 -.242777633283258D+03 0.156762860247424D+03
 0.537783593990961D+03 -.326122255665468D+02 0.497201893322300D+03 -.202331198746392D+03
 0.110201010768567D+03 0.828865007552817D+01 0.109821805926885D+03 -.383822840603503D+01
 0.393810899394471D+03 0.107960954575667D+03 -.364246065965927D+03 0.494065669050037D+02
 0.000000000000000D+00 0.000000000000000D+00 0.000000000000000D+00 -.000000000000000D+00
 0.713192440959205D+03 0.000000000000000D+00 0.000000000000000D+00 0.713192440959205D+03
 0.720709565028391D+03 0.000000000000000D+00 0.000000000000000D+00 -.720709565028391D+03
 0.327597254404836D+03 -.963546642510342D+02 -.255236937126475D+03 0.156762860247424D+03
 0.520590184653544D+03 -.535785959277162D+02 0.476660844238200D+03 -.202331198746392D+03
 0.105775854459587D+03 0.401015127180938D+01 0.105630100237272D+03 -.383822840603503D+01
 0.404285979542049D+03 0.921506661071570D+02 -.379735628816868D+03 0.494065669050037D+02
 0.756527329275798D+02 0.537724427997840D+02 0.526816214678720D+02 -.751712406918572D+01
0.522770724009D-04 0.000000000000D+00 0.000000000000D+00 0.533015964935D-05 0.000000000000D+00  7 3 -3 23 -11 11 23 21 0 0.79428791D-01 0.13701188D+00 0.40423847D+06 0.40423847D+06 0.40423847D+06 0.10750978D+01  1  2  2  2  7  2       -3 0.107041225603D-04 0.100000000000D+01
-.288964293068D-05 0.000000000000D+00 -.200757722889D-06 0.533015964935D-05 0.000000000000D+00  7 3 -3 23 -11 11 23 21 2 0.79428791D-01 0.13701188D+00 0.40423847D+06 0.40423847D+06 0.40423847D+06 0.10750978D+01  1  2  3  2  7  2       -3 -.683880035771D-06 0.100000000000D+01
0.324362972369D-05 0.000000000000D+00 0.000000000000D+00 0.533015964935D-05 0.000000000000D+00  7 3 -3 23 -11 11 23 21 2 0.79428791D-01 0.13701188D+00 0.40423847D+06 0.40423847D+06 0.40423847D+06 0.10750978D+01  1  2 15  2  7  2       -3 0.767656649864D-06 0.100000000000D+01
0.875668343620D-04 0.000000000000D+00 0.000000000000D+00 0.533015964935D-05 0.000000000000D+00  7 3 -3 23 -11 11 23 21 2 0.79428791D-01 0.14897209D+00 0.45532657D+06 0.45532657D+06 0.45532657D+06 0.10713950D+01  1  2 12  2  7  2       -3 0.156454843767D-04 0.100000000000D+01
-.726849619658D-04 0.000000000000D+00 0.000000000000D+00 0.533015964935D-05 0.000000000000D+00  7 3 -3 23 -11 11 23 21 2 0.79428791D-01 0.13701188D+00 0.40423847D+06 0.40423847D+06 0.40423847D+06 0.10750978D+01  1  2  4  2  7  2       -3 -.172020542267D-04 0.100000000000D+01
-.312669730142D-03 0.000000000000D+00 -.634544892249D-04 0.533015964935D-05 0.000000000000D+00  7 3 -3 23 -11 11 23 21 2 0.79428791D-01 0.15107907D+00 0.40423847D+06 0.40423847D+06 0.40423847D+06 0.10750978D+01  1  2  5  2  7  2       -3 -.539291894245D-04 0.100000000000D+01
0.317654993115D-03 0.000000000000D+00 0.631526238040D-04 0.533015964935D-05 0.000000000000D+00  7 3 -3 23 -11 11 23 21 2 0.79428791D-01 0.13701188D+00 0.40423847D+06 0.40423847D+06 0.40423847D+06 0.10750978D+01  1  2  6  2  7  2       -3 0.751781148280D-04 0.100000000000D+01
0.121732255768D-05 0.000000000000D+00 0.000000000000D+00 0.533015964935D-05 0.000000000000D+00  7 3 21 23 -11 11 23 3 2 0.79428791D-01 0.14897209D+00 0.45532657D+06 0.45532657D+06 0.45532657D+06 0.10713950D+01  1  2 12  4  7  2       -3 0.330921676569D-05 0.100000000000D+01
-.477831632423D-05 0.000000000000D+00 -.101042401662D-05 0.533015964935D-05 0.000000000000D+00  7 3 21 23 -11 11 23 3 2 0.79428791D-01 0.15107907D+00 0.40423847D+06 0.40423847D+06 0.40423847D+06 0.10750978D+01  1  2  5  4  7  2       -3 -.126529447238D-04 0.100000000000D+01
  </mgrwgt>
  </event>
  <event>
  8     66 0.24912036E-05 0.23791641E+03 0.75467711E-02 0.10122576E+00
        1 -1    0    0  501    0 0.00000000E+00 0.00000000E+00 0.12600223E+04 0.12600223E+04 0.32000000E+00 0.0000E+00 0.9000E+01
       -1 -1    0    0    0  501 0.00000000E+00 0.00000000E+00 -.67112782E+02 0.67113545E+02 0.32000000E+00 0.0000E+00 0.9000E+01
       25  2    1    2    0    0 0.17092124E+03 -.78884345E+02 0.89737255E+03 0.96477643E+03 0.30013204E+03 0.0000E+00 0.0000E+00
       23  2    1    2    0    0 -.17092124E+03 0.78884345E+02 0.29553696E+03 0.36235945E+03 0.92333457E+02 0.0000E+00 0.0000E+00
       23  1    3    3    0    0 0.78294788E+02 -.12397721E+02 0.10813512E+03 0.16214880E+03 0.91188000E+02 0.0000E+00 0.9000E+01
      -11  1    4    4    0    0 0.11202445E+02 0.22913007E+01 0.10371024E+02 0.15437065E+02 0.51099893E-03 0.0000E+00 0.9000E+01
       11  1    4    4    0    0 -.18212369E+03 0.76593044E+02 0.28516593E+03 0.34692238E+03 0.51099893E-03 0.0000E+00 0.9000E+01
       23  1    3    3    0    0 0.92626457E+02 -.66486623E+02 0.78923743E+03 0.80262763E+03 0.91188000E+02 0.0000E+00 0.9000E+01
#aMCatNLO 1  0  0  1  1 0.10601921D+03 0.00000000D+00  -5  7  0 0.00000000D+00 0.00000000D+00 0.00000000D+00 0.00000000D+00 0.00000000D+00
  <mgrwgt>
 0.2946810856D-03    4    2    0
 0.290799130773997D+03 0.000000000000000D+00 0.000000000000000D+00 0.290799130773997D+03
 0.290799130773997D+03 0.000000000000000D+00 0.000000000000000D+00 -.290799130773997D+03
 0.148208962167972D+03 0.782947875579876D+02 -.123977211992914D+02 -.858304600548172D+02
 0.139536001831842D+02 0.112024451902837D+02 0.229130072044973D+01 -.799738212412748D+01
 0.206733754186245D+03 -.182123689494274D+03 0.765930439765038D+02 -.608548474597169D+02
 0.212701945010593D+03 0.926264567460024D+02 -.664866234976622D+02 0.154682689638662D+03
 0.000000000000000D+00 0.000000000000000D+00 -.000000000000000D+00 -.000000000000000D+00
 0.312517757449836D+03 0.000000000000000D+00 0.000000000000000D+00 0.312517757449836D+03
 0.461603481582391D+03 0.000000000000000D+00 0.000000000000000D+00 -.461603481582391D+03
 0.136436211226093D+03 0.540159055287075D+02 -.387330174700198D+01 -.858304600548172D+02
 0.123951323706080D+02 0.895502338556218D+01 0.308038014043964D+01 -.799738212412748D+01
 0.246090411245688D+03 -.220747441168815D+03 0.901540085916697D+02 -.608548474597169D+02
 0.196260628010568D+03 0.577438906853245D+02 -.542392051727653D+02 0.154682689638662D+03
 0.182938856179269D+03 0.100032621569221D+03 -.351218818123421D+02 -.149085724132555D+03
0.493261077695D-05 0.000000000000D+00 0.000000000000D+00 0.279513064554D-06 0.000000000000D+00  7 1 -1 23 -11 11 23 21 0 0.19384964D+00 0.10325105D-01 0.56604217D+05 0.56604217D+05 0.56604217D+05 0.11425862D+01  1  2  2  1  7  1        1 0.325224653586D-03 0.100000000000D+01
-.260611276487D-06 0.000000000000D+00 -.189425241697D-07 0.279513064554D-06 0.000000000000D+00  7 1 -1 23 -11 11 23 21 2 0.19384964D+00 0.10325105D-01 0.56604217D+05 0.56604217D+05 0.56604217D+05 0.11425862D+01  1  2  3  1  7  1        1 -.224325036763D-04 0.100000000000D+01
0.309008412106D-06 0.000000000000D+00 0.000000000000D+00 0.279513064554D-06 0.000000000000D+00  7 1 -1 23 -11 11 23 21 2 0.19384964D+00 0.10325105D-01 0.56604217D+05 0.56604217D+05 0.56604217D+05 0.11425862D+01  1  2 15  1  7  1        1 0.265983591885D-04 0.100000000000D+01
-.403239304019D-06 0.000000000000D+00 0.000000000000D+00 0.279513064554D-06 0.000000000000D+00  7 1 -1 23 -11 11 23 21 2 0.19384964D+00 0.10325105D-01 0.56604217D+05 0.56604217D+05 0.56604217D+05 0.11425862D+01  1  2  4  1  7  1        1 -.347094235206D-04 0.100000000000D+01
  </mgrwgt>
  </event>
  <event>
  8     66 0.24912036E-05 0.39172514E+03 0.75467711E-02 0.92634215E-01
        1 -1    0    0  501    0 0.00000000E+00 0.00000000E+00 0.18477699E+04 0.18477699E+04 0.32000000E+00 0.0000E+00 0.9000E+01
       -1 -1    0    0    0  502 0.00000000E+00 0.00000000E+00 -.30903848E+03 0.30903864E+03 0.32000000E+00 0.0000E+00 0.9000E+01
       25  2    1    2    0    0 -.33006130E+03 0.39434441E+03 0.14946124E+03 0.61912489E+03 0.31069115E+03 0.0000E+00 0.0000E+00
       23  1    3    3    0    0 -.34107755E+03 0.26406946E+03 0.98263885E+02 0.45170523E+03 0.91188000E+02 0.0000E+00 0.9000E+01
      -11  1    1    2    0    0 0.11993683E+02 0.27602682E+02 0.95614503E+02 0.10023916E+03 0.51099893E-03 0.0000E+00 0.9000E+01
       11  1    1    2    0    0 0.20055688E+03 -.10133013E+03 0.23526435E+03 0.32533086E+03 0.51099893E-03 0.0000E+00 0.9000E+01
       23  1    3    3    0    0 0.11016250E+02 0.13027495E+03 0.51197354E+02 0.16741965E+03 0.91188000E+02 0.0000E+00 0.9000E+01
       21  1    1    2  501  502 0.11751074E+03 -.32061696E+03 0.10583913E+04 0.11121136E+04 0.75000000E+00 0.0000E+00 0.9000E+01
#aMCatNLO 2  0  0  2  2 0.34147329D+03 0.00000000D+00  -5  7  0 0.00000000D+00 0.00000000D+00 0.00000000D+00 0.00000000D+00 0.00000000D+00
  <mgrwgt>
 0.3707164421D-05    1    2    0
 0.431293647665598D+03 0.000000000000000D+00 0.000000000000000D+00 0.431293647665598D+03
 0.431293647665598D+03 0.000000000000000D+00 0.000000000000000D+00 -.431293647665598D+03
 0.347731358055137D+03 -.288205758743666D+03 0.119813771287893D+03 -.123223158812092D+03
 0.595317849847057D+02 0.200607872108454D+02 0.559234882217457D+01 0.557702776987665D+02
 0.327990388687040D+03 0.238136232563856D+03 -.203861851916299D+03 0.964840667914954D+02
 0.127333763604313D+03 0.300087389689646D+02 0.784557318062314D+02 -.290311856781701D+02
 0.000000000000000D+00 0.000000000000000D+00 -.000000000000000D+00 0.000000000000000D+00
 0.112404567876949D+04 0.000000000000000D+00 0.000000000000000D+00 0.112404567876949D+04
 0.508014744142166D+03 0.000000000000000D+00 0.000000000000000D+00 -.508014744142166D+03
 0.457783545775878D+03 -.341077550218873D+03 0.264069463036144D+03 -.123223158812092D+03
 0.633725514294094D+02 0.119936832809484D+02 0.276026803305750D+02 0.557702776987665D+02
 0.244540448243460D+03 0.200556876950014D+03 -.101330127753514D+03 0.964840667914954D+02
 0.162021543652745D+03 0.110162493268994D+02 0.130274946833631D+03 -.290311856781701D+02
 0.704342333810167D+03 0.117510740661011D+03 -.320616962446836D+03 0.616030934627326D+03
0.154422714497D-05 0.000000000000D+00 0.000000000000D+00 0.398153405160D-11 0.379064532598D-15  7 1 -1 23 -11 11 23 21 2 0.28427220D+00 0.47544378D-01 0.35793760D+06 0.35793760D+06 0.35793760D+06 0.10789235D+01  1  2  1  2  7  2       -1 0.370716442088D-05 0.100000000000D+01
  </mgrwgt>
  </event>
  <event>
  8     66 0.24912036E-05 0.86548408E+02 0.75467711E-02 0.10434053E+00
        1 -1    0    0  501    0 0.00000000E+00 0.00000000E+00 0.16464042E+03 0.16464073E+03 0.32000000E+00 0.0000E+00 0.9000E+01
       -1 -1    0    0    0  501 0.00000000E+00 0.00000000E+00 -.39923734E+03 0.39923746E+03 0.32000000E+00 0.0000E+00 0.9000E+01
       25  2    1    2    0    0 0.47188273E+02 -.28614255E+02 -.10596687E+01 0.30543836E+03 0.30040965E+03 0.0000E+00 0.0000E+00
       23  2    1    2    0    0 -.47188273E+02 0.28614255E+02 -.23353725E+03 0.25843983E+03 0.95947865E+02 0.0000E+00 0.0000E+00
       23  1    3    3    0    0 0.55384723E+02 -.70301330E+02 0.10044749E+03 0.16252598E+03 0.91188000E+02 0.0000E+00 0.9000E+01
      -13  1    4    4    0    0 -.53906282E+02 -.21900161E+02 -.10283680E+03 0.11815635E+03 0.10565837E+00 0.0000E+00 0.9000E+01
       13  1    4    4    0    0 0.67180085E+01 0.50514416E+02 -.13070045E+03 0.14028348E+03 0.10565837E+00 0.0000E+00 0.9000E+01
       23  1    3    3    0    0 -.81964494E+01 0.41687075E+02 -.10150716E+03 0.14291238E+03 0.91188000E+02 0.0000E+00 0.9000E+01
#aMCatNLO 1  0  0  1  2 0.11359436D+03 0.00000000D+00  -5  7  0 0.00000000D+00 0.00000000D+00 0.00000000D+00 0.00000000D+00 0.00000000D+00
  <mgrwgt>
 0.5551324783D-04    9    2    0
 0.256380040653605D+03 0.000000000000000D+00 0.000000000000000D+00 0.256380040653605D+03
 0.256380040653605D+03 0.000000000000000D+00 0.000000000000000D+00 -.256380040653605D+03
 0.224685119842192D+03 0.553847465871728D+02 -.703013443408267D+02 0.184819919283197D+03
 0.828858803320725D+02 -.539062829251858D+02 -.219001398770246D+02 -.590302100028386D+02
 0.944708316633769D+02 0.671797390910927D+01 0.505144162452287D+02 -.795481025111875D+02
 0.110718249469568D+03 -.819643757109630D+01 0.416870679726226D+02 -.462416067691705D+02
 0.000000000000000D+00 0.000000000000000D+00 -.000000000000000D+00 0.000000000000000D+00
 0.374701126487651D+03 0.000000000000000D+00 0.000000000000000D+00 0.374701126487651D+03
 0.291371813091994D+03 0.000000000000000D+00 0.000000000000000D+00 -.291371813091994D+03
 0.210380382869064D+03 0.227896789226753D+02 -.355932876099973D+02 0.184819919283197D+03
 0.895340754201556D+02 -.668239702376258D+02 -.814505801353070D+01 -.590302100028386D+02
 0.103899896985168D+03 -.814394293481550D+01 0.663397631430247D+02 -.795481025111875D+02
 0.121377591266023D+03 -.255850367274994D+02 0.602028904339286D+02 -.462416067691705D+02
 0.140880993039234D+03 0.777632709772655D+02 -.828043079534253D+02 0.833293133956564D+02
0.124588807369D-05 0.000000000000D+00 0.000000000000D+00 0.131811385469D-07 0.000000000000D+00  7 1 -1 23 -13 13 23 21 0 0.25329329D-01 0.61421162D-01 0.28478757D+05 0.28478757D+05 0.28478757D+05 0.11694386D+01  1  2  2  1  7  1        1 0.812407393420D-04 0.100000000000D+01
-.544974747089D-07 0.000000000000D+00 -.478453825285D-08 0.131811385469D-07 0.000000000000D+00  7 1 -1 23 -13 13 23 21 2 0.25329329D-01 0.61421162D-01 0.28478757D+05 0.28478757D+05 0.28478757D+05 0.11694386D+01  1  2  3  1  7  1        1 -.485988603873D-05 0.100000000000D+01
0.740633325353D-07 0.000000000000D+00 0.000000000000D+00 0.131811385469D-07 0.000000000000D+00  7 1 -1 23 -13 13 23 21 2 0.25329329D-01 0.61421162D-01 0.28478757D+05 0.28478757D+05 0.28478757D+05 0.11694386D+01  1  2 15  1  7  1        1 0.660469788174D-05 0.100000000000D+01
0.251391768775D-06 0.000000000000D+00 0.000000000000D+00 0.131811385469D-07 0.000000000000D+00  7 1 -1 23 -13 13 23 21 2 0.38112801D-01 0.61421162D-01 0.53010674D+05 0.53010674D+05 0.53010674D+05 0.11450685D+01  1  2 12  1  7  1        1 0.126807533303D-04 0.100000000000D+01
-.986889754097D-06 0.000000000000D+00 0.000000000000D+00 0.131811385469D-07 0.000000000000D+00  7 1 -1 23 -13 13 23 21 2 0.25329329D-01 0.61421162D-01 0.28478757D+05 0.28478757D+05 0.28478757D+05 0.11694386D+01  1  2  4  1  7  1        1 -.880072290197D-04 0.100000000000D+01
-.872980662506D-06 0.000000000000D+00 -.492231980196D-06 0.131811385469D-07 0.000000000000D+00  7 1 -1 23 -13 13 23 21 2 0.41429567D-01 0.61421162D-01 0.28478757D+05 0.28478757D+05 0.28478757D+05 0.11694386D+01  1  2  5  1  7  1        1 -.415462310664D-04 0.100000000000D+01
0.104074457621D-05 0.000000000000D+00 0.438119981582D-06 0.131811385469D-07 0.000000000000D+00  7 1 -1 23 -13 13 23 21 2 0.25329329D-01 0.61421162D-01 0.28478757D+05 0.28478757D+05 0.28478757D+05 0.11694386D+01  1  2  6  1  7  1        1 0.928098056435D-04 0.100000000000D+01
0.121546348859D-07 0.000000000000D+00 0.000000000000D+00 0.131811385469D-07 0.000000000000D+00  7 21 -1 23 -13 13 23 -1 2 0.38112801D-01 0.61421162D-01 0.53010674D+05 0.53010674D+05 0.53010674D+05 0.11450685D+01  1  2 12  3  7  1        1 0.343505110534D-05 0.100000000000D+01
-.268007750695D-07 0.000000000000D+00 -.274035577223D-07 0.131811385469D-07 0.000000000000D+00  7 21 -1 23 -13 13 23 -1 2 0.41429567D-01 0.61421162D-01 0.28478757D+05 0.28478757D+05 0.28478757D+05 0.11694386D+01  1  2  5  3  7  1        1 -.684445334679D-05 0.100000000000D+01
  </mgrwgt>
  </event>
  <event>
  8     66 0.24912036E-05 0.15138382E+03 0.75467711E-02 0.98649658E-01
        3 -1    0    0  501    0 0.00000000E+00 0.00000000E+00 0.76218768E+03 0.76218785E+03 0.50000000E+00 0.0000E+00 0.9000E+01
       -3 -1    0    0    0  501 0.00000000E+00 0.00000000E+00 -.23036495E+03 0.23036549E+03 0.50000000E+00 0.0000E+00 0.9000E+01
       25  2    1    2    0    0 -.23822857E+03 -.15976282E+03 0.55341474E+03 0.69175774E+03 0.29997315E+03 0.0000E+00 0.0000E+00
       23  2    1    2    0    0 0.23822857E+03 0.15976282E+03 -.21592010E+02 0.30079560E+03 0.87947528E+02 0.0000E+00 0.0000E+00
       23  1    3    3    0    0 -.25001982E+03 -.11819485E+03 0.49733785E+03 0.57631599E+03 0.91188000E+02 0.0000E+00 0.9000E+01
      -13  1    4    4    0    0 0.14475946E+03 0.11580340E+03 -.53049461E+02 0.19282112E+03 0.10565837E+00 0.0000E+00 0.9000E+01
       13  1    4    4    0    0 0.93469111E+02 0.43959414E+02 0.31457451E+02 0.10797447E+03 0.10565837E+00 0.0000E+00 0.9000E+01
       23  1    3    3    0    0 0.11791251E+02 -.41567965E+02 0.56076896E+02 0.11544176E+03 0.91188000E+02 0.0000E+00 0.9000E+01
#aMCatNLO 1  0  0  1  2 0.31007211D+02 0.00000000D+00  -5  7  0 0.00000000D+00 0.00000000D+00 0.00000000D+00 0.00000000D+00 0.00000000D+00
  <mgrwgt>
 0.1563692650D-04    9    2    0
 0.419024676816766D+03 0.000000000000000D+00 0.000000000000000D+00 0.419024676816766D+03
 0.419024676816766D+03 0.000000000000000D+00 0.000000000000000D+00 -.419024676816766D+03
 0.366957849449614D+03 -.250019821354742D+03 -.118194851926887D+03 0.223299972764016D+03
 0.262035101063513D+03 0.144759534086456D+03 0.115803507142156D+03 -.185193464285363D+03
 0.107917810359681D+03 0.934690366031222D+02 0.439593098727864D+02 -.312629503537431D+02
 0.101138592760724D+03 0.117912506651636D+02 -.415679650880554D+02 -.684355812490908D+01
 0.000000000000000D+00 0.000000000000000D+00 0.000000000000000D+00 0.000000000000000D+00
 0.436368946084969D+03 0.000000000000000D+00 0.000000000000000D+00 0.436368946084969D+03
 0.433402609873207D+03 0.000000000000000D+00 0.000000000000000D+00 -.433402609873207D+03
 0.374554868321171D+03 -.254840487874081D+03 -.131032614042380D+03 0.223299972764016D+03
 0.256320382969326D+03 0.141389640533578D+03 0.106829251899062D+03 -.185193464285363D+03
 0.105253278259553D+03 0.920831848096597D+02 0.402686924902259D+02 -.312629503537431D+02
 0.102494249923274D+03 0.104674081963307D+02 -.450934474306077D+02 -.684355812490908D+01
 0.311487764848520D+02 0.109002543345132D+02 0.290281170836998D+02 0.296633621176229D+01
0.372405996812D-05 0.000000000000D+00 0.000000000000D+00 0.237981253506D-06 0.000000000000D+00  7 3 -3 23 -13 13 23 21 0 0.11725970D+00 0.35440816D-01 0.11586307D+06 0.11586307D+06 0.11586307D+06 0.11165121D+01  1  2  2  1  7  1        3 0.747922292365D-05 0.100000000000D+01
-.196025063317D-06 0.000000000000D+00 -.143013708451D-07 0.237981253506D-06 0.000000000000D+00  7 3 -3 23 -13 13 23 21 2 0.11725970D+00 0.35440816D-01 0.11586307D+06 0.11586307D+06 0.11586307D+06 0.11165121D+01  1  2  3  1  7  1        3 -.490770298399D-06 0.100000000000D+01
0.232878309171D-06 0.000000000000D+00 0.000000000000D+00 0.237981253506D-06 0.000000000000D+00  7 3 -3 23 -13 13 23 21 2 0.11725970D+00 0.35440816D-01 0.11586307D+06 0.11586307D+06 0.11586307D+06 0.11165121D+01  1  2 15  1  7  1        3 0.583036451301D-06 0.100000000000D+01
0.865514139465D-05 0.000000000000D+00 0.000000000000D+00 0.237981253506D-06 0.000000000000D+00  7 3 -3 23 -13 13 23 21 2 0.12404963D+00 0.35440816D-01 0.12662905D+06 0.12662905D+06 0.12662905D+06 0.11134039D+01  1  2 12  1  7  1        3 0.186183367092D-04 0.100000000000D+01
-.710853041792D-05 0.000000000000D+00 0.000000000000D+00 0.237981253506D-06 0.000000000000D+00  7 3 -3 23 -13 13 23 21 2 0.11725970D+00 0.35440816D-01 0.11586307D+06 0.11586307D+06 0.11586307D+06 0.11165121D+01  1  2  4  1  7  1        3 -.177969874635D-04 0.100000000000D+01
-.389119362650D-04 0.000000000000D+00 -.718830346403D-05 0.237981253506D-06 0.000000000000D+00  7 3 -3 23 -13 13 23 21 2 0.12531262D+00 0.35440816D-01 0.11586307D+06 0.11586307D+06 0.11586307D+06 0.11165121D+01  1  2  5  1  7  1        3 -.820584887912D-04 0.100000000000D+01
0.393184516517D-04 0.000000000000D+00 0.717247633218D-05 0.237981253506D-06 0.000000000000D+00  7 3 -3 23 -13 13 23 21 2 0.11725970D+00 0.35440816D-01 0.11586307D+06 0.11586307D+06 0.11586307D+06 0.11165121D+01  1  2  6  1  7  1        3 0.984380666592D-04 0.100000000000D+01
0.973432799752D-07 0.000000000000D+00 0.000000000000D+00 0.237981253506D-06 0.000000000000D+00  7 21 -3 23 -13 13 23 -3 2 0.12404963D+00 0.35440816D-01 0.12662905D+06 0.12662905D+06 0.12662905D+06 0.11134039D+01  1  2 12  3  7  1        3 0.274432389121D-05 0.100000000000D+01
-.428899315540D-06 0.000000000000D+00 -.812505638313D-07 0.237981253506D-06 0.000000000000D+00  7 21 -3 23 -13 13 23 -3 2 0.12531262D+00 0.35440816D-01 0.11586307D+06 0.11586307D+06 0.11586307D+06 0.11165121D+01  1  2  5  3  7  1        3 -.118798135774D-04 0.100000000000D+01
  </mgrwgt>
  </event>
  <event>
  8     66 0.24912036E-05 0.14814374E+03 0.75467711E-02 0.93838129E-01
        1 -1    0    0  501    0 0.00000000E+00 0.00000000E+00 0.10256067E+04 0.10256068E+04 0.32000000E+00 0.0000E+00 0.9000E+01
       -1 -1    0    0    0  501 0.00000000E+00 0.00000000E+00 -.23160160E+03 0.23160182E+03 0.32000000E+00 0.0000E+00 0.9000E+01
       25  2    1    2    0    0 -.92744335E+02 0.31044358E+03 0.80713911E+03 0.92002347E+03 0.29998820E+03 0.0000E+00 0.0000E+00
       23  2    1    2    0    0 0.92744335E+02 -.31044358E+03 -.13133984E+02 0.33718513E+03 0.92436905E+02 0.0000E+00 0.0000E+00
       23  1    3    3    0    0 -.13878322E+03 0.21110837E+03 0.34993951E+03 0.44113540E+03 0.91188000E+02 0.0000E+00 0.9000E+01
      -13  1    4    4    0    0 0.48254095E+02 -.26918016E+03 -.27431628E+02 0.27484345E+03 0.10565837E+00 0.0000E+00 0.9000E+01
       13  1    4    4    0    0 0.44490240E+02 -.41263423E+02 0.14297644E+02 0.62341683E+02 0.10565837E+00 0.0000E+00 0.9000E+01
       23  1    3    3    0    0 0.46038886E+02 0.99335213E+02 0.45719960E+03 0.47888808E+03 0.91188000E+02 0.0000E+00 0.9000E+01
#aMCatNLO 1  0  0  1  2 0.29052805D+03 0.00000000D+00  -5  7  0 0.00000000D+00 0.00000000D+00 0.00000000D+00 0.00000000D+00 0.00000000D+00
  <mgrwgt>
 0.1646963541D-03    9    2    0
 0.487372888670544D+03 0.000000000000000D+00 0.000000000000000D+00 0.487372888670544D+03
 0.487372888670544D+03 0.000000000000000D+00 0.000000000000000D+00 -.487372888670544D+03
 0.283915516311348D+03 -.138783221453234D+03 0.211108368883978D+03 0.920067556679848D+02
 0.376833427572230D+03 0.482540997780949D+02 -.269180455963074D+03 -.259262137841130D+03
 0.687601899739574D+02 0.444902353503679D+02 -.412631256603800D+02 -.323409515082546D+02
 0.245236643483551D+03 0.460388863247712D+02 0.993352127394755D+02 0.199596333681399D+03
 0.000000000000000D+00 0.000000000000000D+00 -.000000000000000D+00 0.000000000000000D+00
 0.819493137167468D+03 0.000000000000000D+00 0.000000000000000D+00 0.819493137167468D+03
 0.576426343978504D+03 0.000000000000000D+00 0.000000000000000D+00 -.576426343978504D+03
 0.360577412556812D+03 -.223738196926601D+03 0.251349945792019D+03 0.920067556679848D+02
 0.345872304717023D+03 -.470106347301947D+02 -.224055339759124D+03 -.259262137841130D+03
 0.545004899482073D+02 0.282424107884942D+02 -.335668362076219D+02 -.323409515082546D+02
 0.256171159980588D+03 -.200550702377292D+02 0.130642679092643D+03 0.199596333681399D+03
 0.378798113943342D+03 0.262561491106031D+03 -.124370448917916D+03 0.243066793188964D+03
0.141160270722D-04 0.000000000000D+00 0.000000000000D+00 0.140737799719D-05 0.000000000000D+00  7 1 -1 23 -13 13 23 21 0 0.15778567D+00 0.35631037D-01 0.13884243D+06 0.13884243D+06 0.13884243D+06 0.11102108D+01  1  2  2  1  7  1        1 0.184213686811D-03 0.100000000000D+01
-.715492841052D-06 0.000000000000D+00 -.542092607925D-07 0.140737799719D-05 0.000000000000D+00  7 1 -1 23 -13 13 23 21 2 0.15778567D+00 0.35631037D-01 0.13884243D+06 0.13884243D+06 0.13884243D+06 0.11102108D+01  1  2  3  1  7  1        1 -.115086812973D-04 0.100000000000D+01
0.868548679175D-06 0.000000000000D+00 0.000000000000D+00 0.140737799719D-05 0.000000000000D+00  7 1 -1 23 -13 13 23 21 2 0.15778567D+00 0.35631037D-01 0.13884243D+06 0.13884243D+06 0.13884243D+06 0.11102108D+01  1  2 15  1  7  1        1 0.139705799503D-04 0.100000000000D+01
0.896056808629D-06 0.000000000000D+00 0.000000000000D+00 0.140737799719D-05 0.000000000000D+00  7 1 -1 23 -13 13 23 21 2 0.27155070D+00 0.35631037D-01 0.28758984D+06 0.28758984D+06 0.28758984D+06 0.10859119D+01  1  2 12  1  7  1        1 0.415995528798D-05 0.100000000000D+01
-.875830923260D-05 0.000000000000D+00 0.000000000000D+00 0.140737799719D-05 0.000000000000D+00  7 1 -1 23 -13 13 23 21 2 0.15778567D+00 0.35631037D-01 0.13884243D+06 0.13884243D+06 0.13884243D+06 0.11102108D+01  1  2  4  1  7  1        1 -.140877146321D-03 0.100000000000D+01
-.760936134924D-05 0.000000000000D+00 -.439206902116D-05 0.140737799719D-05 0.000000000000D+00  7 1 -1 23 -13 13 23 21 2 0.28632503D+00 0.35631037D-01 0.13884243D+06 0.13884243D+06 0.13884243D+06 0.11102108D+01  1  2  5  1  7  1        1 -.330512835323D-04 0.100000000000D+01
0.921963393409D-05 0.000000000000D+00 0.371309723736D-05 0.140737799719D-05 0.000000000000D+00  7 1 -1 23 -13 13 23 21 2 0.15778567D+00 0.35631037D-01 0.13884243D+06 0.13884243D+06 0.13884243D+06 0.11102108D+01  1  2  6  1  7  1        1 0.148297540572D-03 0.100000000000D+01
0.540040249030D-07 0.000000000000D+00 0.000000000000D+00 0.140737799719D-05 0.000000000000D+00  7 21 -1 23 -13 13 23 -1 2 0.27155070D+00 0.35631037D-01 0.28758984D+06 0.28758984D+06 0.28758984D+06 0.10859119D+01  1  2 12  3  7  1        1 0.153791753088D-06 0.100000000000D+01
-.260110085485D-06 0.000000000000D+00 -.286539069994D-06 0.140737799719D-05 0.000000000000D+00  7 21 -1 23 -13 13 23 -1 2 0.28632503D+00 0.35631037D-01 0.13884243D+06 0.13884243D+06 0.13884243D+06 0.11102108D+01  1  2  5  3  7  1        1 -.662089161803D-06 0.100000000000D+01
  </mgrwgt>
  </event>
  <event>
  8     66 0.24912036E-05 0.32476746E+03 0.75467711E-02 0.88575351E-01
        1 -1    0    0  501    0 0.00000000E+00 0.00000000E+00 0.16512314E+03 0.16512345E+03 0.32000000E+00 0.0000E+00 0.9000E+01
       -1 -1    0    0    0  501 0.00000000E+00 0.00000000E+00 -.96891740E+03 0.96891746E+03 0.32000000E+00 0.0000E+00 0.9000E+01
       25  2    1    2    0    0 0.26263308E+03 -.16335121E+02 -.75150510E+03 0.85097969E+03 0.30027246E+03 0.0000E+00 0.0000E+00
       23  2    1    2    0    0 -.26263308E+03 0.16335121E+02 -.52289172E+02 0.28306121E+03 0.90258084E+02 0.0000E+00 0.0000E+00
       23  1    3    3    0    0 -.13364448E+02 -.21851649E+02 -.29434144E+03 0.30920581E+03 0.91188000E+02 0.0000E+00 0.9000E+01
      -11  1    4    4    0    0 -.11474363E+03 -.39976391E+01 0.21068079E+02 0.11673023E+03 0.51099893E-03 0.0000E+00 0.9000E+01
       11  1    4    4    0    0 -.14788945E+03 0.20332760E+02 -.73357252E+02 0.16633098E+03 0.51099893E-03 0.0000E+00 0.9000E+01
       23  1    3    3    0    0 0.27599753E+03 0.55165288E+01 -.45716366E+03 0.54177388E+03 0.91188000E+02 0.0000E+00 0.9000E+01
#aMCatNLO 1  0  0  1  1 0.76255180D+03 0.00000000D+00  -5  7  0 0.00000000D+00 0.00000000D+00 0.00000000D+00 0.00000000D+00 0.00000000D+00
  <mgrwgt>
 0.2205406386D-03    3    2    0
 0.399988607506117D+03 0.000000000000000D+00 0.000000000000000D+00 0.399988607506117D+03
 0.399988607506117D+03 0.000000000000000D+00 0.000000000000000D+00 -.399988607506117D+03
 0.142581662345295D+03 -.133644484705199D+02 -.218516494147777D+02 -.106574743856508D+03
 0.186644388599625D+03 -.114743634965469D+03 -.399763911354925D+01 0.147153134224714D+03
 0.162082115939448D+03 -.147889446543858D+03 0.203327597675698D+02 0.631340065938657D+02
 0.308669048127867D+03 0.275997529979847D+03 0.551652876075716D+01 -.103712396962072D+03
 0.000000000000000D+00 0.000000000000000D+00 -.000000000000000D+00 -.000000000000000D+00
 0.734282269845134D+03 0.000000000000000D+00 0.000000000000000D+00 0.734282269845134D+03
 0.135271801237012D+04 0.000000000000000D+00 0.000000000000000D+00 -.135271801237012D+04
 0.198316004501490D+03 -.133484981550492D+03 0.428668866354856D+02 -.106574743856508D+03
 0.352336427252057D+03 -.304661810466154D+03 0.983264679527949D+02 0.147153134224714D+03
 0.357218283579792D+03 -.330872924828939D+03 0.118920590943039D+03 0.631340065938657D+02
 0.197321026657298D+03 0.977041492167398D+02 0.101577429379291D+03 -.103712396962072D+03
 0.981808540224621D+03 0.671315567628845D+03 -.361691374910610D+03 -.618435742524989D+03
0.241434514221D-04 0.000000000000D+00 0.000000000000D+00 0.649961477598D-06 0.000000000000D+00  7 1 -1 23 -11 11 23 21 0 0.25403587D-01 0.14906424D+00 0.10547390D+06 0.10547390D+06 0.10547390D+06 0.11198277D+01  1  2  2  1  7  1        1 0.217256789462D-03 0.100000000000D+01
-.127052489620D-05 0.000000000000D+00 -.927172105778D-07 0.649961477598D-06 0.000000000000D+00  7 1 -1 23 -11 11 23 21 2 0.25403587D-01 0.14906424D+00 0.10547390D+06 0.10547390D+06 0.10547390D+06 0.11198277D+01  1  2  3  1  7  1        1 -.143370422739D-04 0.100000000000D+01
0.156153415839D-05 0.000000000000D+00 0.000000000000D+00 0.649961477598D-06 0.000000000000D+00  7 1 -1 23 -11 11 23 21 2 0.25403587D-01 0.14906424D+00 0.10547390D+06 0.10547390D+06 0.10547390D+06 0.11198277D+01  1  2 15  1  7  1        1 0.176208914190D-04 0.100000000000D+01
  </mgrwgt>
  </event>
  <event>
  8     66 0.24912036E-05 0.19024911E+03 0.75467711E-02 0.99369959E-01
        1 -1    0    0  501    0 0.00000000E+00 0.00000000E+00 0.24055272E+03 0.24055293E+03 0.32000000E+00 0.0000E+00 0.9000E+01
       -1 -1    0    0    0  501 0.00000000E+00 0.00000000E+00 -.25027766E+03 0.25027786E+03 0.32000000E+00 0.0000E+00 0.9000E+01
       25  2    1    2    0    0 0.41490962E+02 0.65857771E+02 0.10419997E+03 0.32683531E+03 0.29984152E+03 0.0000E+00 0.0000E+00
       23  2    1    2    0    0 -.41490962E+02 -.65857771E+02 -.11392491E+03 0.16399549E+03 0.88639102E+02 0.0000E+00 0.0000E+00
       23  1    3    3    0    0 -.84452324E+02 0.27634534E+02 -.13606906E+02 0.12804789E+03 0.91188000E+02 0.0000E+00 0.9000E+01
      -13  1    4    4    0    0 -.49572198E+02 -.33806728E+02 -.11628920E+03 0.13085674E+03 0.10565837E+00 0.0000E+00 0.9000E+01
       13  1    4    4    0    0 0.80812364E+01 -.32051043E+02 0.23642905E+01 0.33138751E+02 0.10565837E+00 0.0000E+00 0.9000E+01
       23  1    3    3    0    0 0.12594329E+03 0.38223237E+02 0.11780687E+03 0.19878742E+03 0.91188000E+02 0.0000E+00 0.9000E+01
#aMCatNLO 1  0  0  2  1 0.22247722D+03 0.00000000D+00  -5  7  0 0.00000000D+00 0.00000000D+00 0.00000000D+00 0.00000000D+00 0.00000000D+00
  <mgrwgt>
 0.1528376993D-03    3    2    0
 0.245367222917177D+03 0.000000000000000D+00 0.000000000000000D+00 0.245367222917177D+03
 0.245367222917177D+03 0.000000000000000D+00 0.000000000000000D+00 -.245367222917177D+03
 0.127803379210488D+03 -.844523229329791D+02 0.276345357818174D+02 -.110720358095064D+02
 0.128578051866762D+03 -.495722785709445D+02 -.338067375975336D+02 -.113718991870962D+03
 0.331919702031734D+02 0.808131402591461D+01 -.320510376808712D+02 0.302162756842658D+01
 0.201161044553931D+03 0.125943287478009D+03 0.382232394965875D+02 0.121769400112042D+03
 0.000000000000000D+00 -.000000000000000D+00 0.000000000000000D+00 0.000000000000000D+00
 0.118022695907774D+04 0.000000000000000D+00 0.000000000000000D+00 0.118022695907774D+04
 0.282990654249574D+03 0.000000000000000D+00 0.000000000000000D+00 -.282990654249574D+03
 0.120633029966381D+03 -.740779452338807D+02 -.250388623509315D+02 -.110720358095064D+02
 0.151869082056942D+03 -.378611751075112D+02 -.932670380796380D+02 -.113718991870962D+03
 0.514083034219516D+02 0.116141101846664D+02 -.499879572715228D+02 0.302162756842658D+01
 0.214899765356317D+03 0.143317439689043D+03 -.499898237997603D+02 0.121769400112042D+03
 0.924407432525719D+03 -.429924295323180D+02 0.218283681501853D+03 0.897236304828164D+03
0.164862686081D-05 0.000000000000D+00 0.000000000000D+00 0.873999606018D-07 0.000000000000D+00  7 1 -1 23 -13 13 23 21 0 0.37008143D-01 0.38504287D-01 0.36194722D+05 0.36194722D+05 0.36194722D+05 0.11598467D+01  1  2  2  2  7  2       -1 0.150941309793D-03 0.100000000000D+01
-.843819703997D-07 0.000000000000D+00 -.633116123893D-08 0.873999606018D-07 0.000000000000D+00  7 1 -1 23 -13 13 23 21 2 0.37008143D-01 0.38504287D-01 0.36194722D+05 0.36194722D+05 0.36194722D+05 0.11598467D+01  1  2  3  2  7  2       -1 -.103928964752D-04 0.100000000000D+01
0.997791293730D-07 0.000000000000D+00 0.000000000000D+00 0.873999606018D-07 0.000000000000D+00  7 1 -1 23 -13 13 23 21 2 0.37008143D-01 0.38504287D-01 0.36194722D+05 0.36194722D+05 0.36194722D+05 0.11598467D+01  1  2 15  2  7  2       -1 0.122892859345D-04 0.100000000000D+01
  </mgrwgt>
  </event>
  <event>
  9     66 0.24912036E-05 0.19985157E+03 0.75467711E-02 0.10314629E+00
        1 -1    0    0  501    0 0.00000000E+00 0.00000000E+00 0.18387371E+03 0.18387398E+03 0.32000000E+00 0.0000E+00 0.9000E+01
       21 -1    0    0  502  501 0.00000000E+00 0.00000000E+00 -.49663389E+03 0.49663446E+03 0.75000000E+00 0.0000E+00 0.9000E+01
       25  2    1    2    0    0 0.14465662E+03 -.49948205E+02 -.11264665E+03 0.35518297E+03 0.30007551E+03 0.0000E+00 0.0000E+00
       23  2    1    2    0    0 -.79520646E+02 -.21240535E+02 -.19244824E+03 0.22852986E+03 0.91732651E+02 0.0000E+00 0.0000E+00
       23  1    3    3    0    0 -.26941566E+02 0.40665669E+02 -.94357592E+02 0.13999340E+03 0.91188000E+02 0.0000E+00 0.9000E+01
      -11  1    4    4    0    0 -.15056740E+02 -.18222886E+02 0.19315142E+01 0.23717288E+02 0.51099893E-03 0.0000E+00 0.9000E+01
       11  1    4    4    0    0 -.64463907E+02 -.30176487E+01 -.19437976E+03 0.20481258E+03 0.51099893E-03 0.0000E+00 0.9000E+01
       23  1    3    3    0    0 0.17159818E+03 -.90613874E+02 -.18289055E+02 0.21518957E+03 0.91188000E+02 0.0000E+00 0.9000E+01
        1  1    1    2  502    0 -.65135970E+02 0.71188740E+02 -.76652964E+01 0.96795612E+02 0.32000000E+00 0.0000E+00 0.9000E+01
#aMCatNLO 2  0  0  2  1 0.96491094D+02 0.00000000D+00  -5  7  0 0.00000000D+00 0.00000000D+00 0.00000000D+00 0.00000000D+00 0.00000000D+00
  <mgrwgt>
 0.1331526073D-04    1    2    0
 0.244093858270380D+03 0.000000000000000D+00 0.000000000000000D+00 0.244093858270380D+03
 0.244093858270380D+03 0.000000000000000D+00 0.000000000000000D+00 -.244093858270380D+03
 0.117941774420536D+03 -.417618010904651D+02 0.568630770522340D+02 -.248506186501821D+02
 0.289168510126712D+02 -.188837454784887D+02 -.140402556399290D+02 0.168065359535546D+02
 0.131571427766398D+03 -.811565408773246D+02 0.152261510818928D+02 -.102434470763249D+03
 0.209757663341154D+03 0.141802087446278D+03 -.580489724941977D+02 0.110478553459877D+03
 0.000000000000000D+00 -.000000000000000D+00 0.000000000000000D+00 0.000000000000000D+00
 0.328412475697556D+03 0.000000000000000D+00 0.000000000000000D+00 0.328412475697556D+03
 0.278059030104553D+03 0.000000000000000D+00 0.000000000000000D+00 -.278059030104553D+03
 0.106359527909854D+03 -.269415655974041D+02 0.406656689244268D+02 -.248506186501821D+02
 0.290041144074378D+02 -.150567398454717D+02 -.182228863528092D+02 0.168065359535546D+02
 0.121068254591599D+03 -.644639066904640D+02 -.301764867279820D+01 -.102434470763249D+03
 0.241200274325403D+03 0.171598182093286D+03 -.906138737630291D+02 0.110478553459877D+03
 0.108839334567815D+03 -.651359699599466D+02 0.711887398642098D+02 0.503534455930032D+02
0.343033329405D-07 0.000000000000D+00 0.000000000000D+00 0.297251272957D-06 0.526612931652D-11  7 1 21 23 -11 11 23 1 2 0.28288305D-01 0.76405218D-01 0.63124228D+05 0.63124228D+05 0.63124228D+05 0.11384966D+01  1  2  1  4  7  2       -1 0.133152607294D-04 0.100000000000D+01
  </mgrwgt>
  </event>
  <event>
  8     66 0.24912036E-05 0.41119645E+03 0.75467711E-02 0.86785288E-01
        1 -1    0    0  501    0 0.00000000E+00 0.00000000E+00 0.68494793E+03 0.68494801E+03 0.32000000E+00 0.0000E+00 0.9000E+01
       -1 -1    0    0    0  501 0.00000000E+00 0.00000000E+00 -.59301378E+03 0.59301386E+03 0.32000000E+00 0.0000E+00 0.9000E+01
       25  2    1    2    0    0 0.16214979E+03 0.31287091E+03 -.43662881E+03 0.63599917E+03 0.29944862E+03 0.0000E+00 0.0000E+00
       23  2    1    2    0    0 -.16214979E+03 -.31287091E+03 0.52856297E+03 0.64196270E+03 0.92501535E+02 0.0000E+00 0.0000E+00
       23  1    3    3    0    0 0.21214102E+03 0.24853937E+03 -.33812095E+03 0.47897459E+03 0.91188000E+02 0.0000E+00 0.9000E+01
      -13  1    4    4    0    0 -.87164025E+02 -.88188003E+02 0.14115966E+03 0.18788494E+03 0.10565837E+00 0.0000E+00 0.9000E+01
       13  1    4    4    0    0 -.74985765E+02 -.22468291E+03 0.38740330E+03 0.45407775E+03 0.10565837E+00 0.0000E+00 0.9000E+01
       23  1    3    3    0    0 -.49991232E+02 0.64331541E+02 -.98507861E+02 0.15702459E+03 0.91188000E+02 0.0000E+00 0.9000E+01
#aMCatNLO 1  0  0  2  1 0.92633164D+03 0.00000000D+00  -5  7  0 0.00000000D+00 0.00000000D+00 0.00000000D+00 0.00000000D+00 0.00000000D+00
  <mgrwgt>
 0.1744053671D-03    5    2    0
 0.637325398269725D+03 0.000000000000000D+00 0.000000000000000D+00 0.637325398269725D+03
 0.637325398269725D+03 0.000000000000000D+00 0.000000000000000D+00 -.637325398269725D+03
 0.504605753822368D+03 0.212141021383472D+03 0.248539369645002D+03 -.373545290733912D+03
 0.178191537726822D+03 -.871640403335214D+02 -.881878244973178D+02 0.127974848312534D+03
 0.427316150249732D+03 -.749857492376006D+02 -.224683086206992D+03 0.355659585064186D+03
 0.164537354740527D+03 -.499912318123498D+02 0.643315410593074D+02 -.110089142642808D+03
 0.000000000000000D+00 -.000000000000000D+00 -.000000000000000D+00 -.000000000000000D+00
 0.112990353419292D+04 0.000000000000000D+00 0.000000000000000D+00 0.112990353419292D+04
 0.141500833955648D+04 0.000000000000000D+00 0.000000000000000D+00 -.141500833955648D+04
 0.796392837903923D+03 0.632524358142244D+03 0.293773982932329D+03 -.373545290733912D+03
 0.150438786124640D+03 0.190241699991907D+02 -.767616279522587D+02 0.127974848312534D+03
 0.456588791999275D+03 0.210624789746274D+03 -.193950463973837D+03 0.355659585064186D+03
 0.172277829352286D+03 0.588416999528411D+02 0.760423182258851D+02 -.110089142642808D+03
 0.969213628369279D+03 -.921015017840550D+03 -.991042092321179D+02 -.285104805363554D+03
0.390492905963D-04 0.000000000000D+00 0.000000000000D+00 0.102692003553D-05 0.000000000000D+00  7 1 -1 23 -13 13 23 21 0 0.10537662D+00 0.91232901D-01 0.16908252D+06 0.16908252D+06 0.16908252D+06 0.11034710D+01  1  2  2  2  7  2       -1 0.166757732861D-03 0.100000000000D+01
-.166289824485D-05 0.000000000000D+00 -.149959557804D-06 0.102692003553D-05 0.000000000000D+00  7 1 -1 23 -13 13 23 21 2 0.10537662D+00 0.91232901D-01 0.16908252D+06 0.16908252D+06 0.16908252D+06 0.11034710D+01  1  2  3  2  7  2       -1 -.864689860624D-05 0.100000000000D+01
0.242001760997D-05 0.000000000000D+00 0.000000000000D+00 0.102692003553D-05 0.000000000000D+00  7 1 -1 23 -13 13 23 21 2 0.10537662D+00 0.91232901D-01 0.16908252D+06 0.16908252D+06 0.16908252D+06 0.11034710D+01  1  2 15  2  7  2       -1 0.125838408715D-04 0.100000000000D+01
0.138247421314D-04 0.000000000000D+00 -.117974331051D-04 0.102692003553D-05 0.000000000000D+00  7 1 -1 23 -13 13 23 21 2 0.10537662D+00 0.29071516D+00 0.16908252D+06 0.16908252D+06 0.16908252D+06 0.11034710D+01  1  2  5  2  7  2       -1 0.149272132583D-05 0.100000000000D+01
0.235950629322D-05 0.000000000000D+00 -.157333488340D-05 0.102692003553D-05 0.000000000000D+00  7 1 21 23 -13 13 23 1 2 0.10537662D+00 0.29071516D+00 0.16908252D+06 0.16908252D+06 0.16908252D+06 0.11034710D+01  1  2  5  4  7  2       -1 0.221797063269D-05 0.100000000000D+01
  </mgrwgt>
  </event>
  <event>
  8     66 0.24912036E-05 0.22387252E+03 0.75467711E-02 0.96944299E-01
        1 -1    0    0  501    0 0.00000000E+00 0.00000000E+00 0.15940648E+03 0.15940680E+03 0.32000000E+00 0.0000E+00 0.9000E+01
       -1 -1    0    0    0  501 0.00000000E+00 0.00000000E+00 -.48101296E+03 0.48101307E+03 0.32000000E+00 0.0000E+00 0.9000E+01
       25  2    1    2    0    0 0.96456538E+02 0.64626866E+02 -.46219664E+02 0.32672130E+03 0.30187755E+03 0.0000E+00 0.0000E+00
       23  2    1    2    0    0 -.96456538E+02 -.64626866E+02 -.27538682E+03 0.31369857E+03 0.95333089E+02 0.0000E+00 0.0000E+00
       23  1    3    3    0    0 -.58362278E+02 -.10662907E+01 -.77123611E+02 0.13293079E+03 0.91188000E+02 0.0000E+00 0.9000E+01
      -11  1    4    4    0    0 0.70385396E+01 0.15666059E+02 -.51729286E+02 0.54505829E+02 0.51099893E-03 0.0000E+00 0.9000E+01
       11  1    4    4    0    0 -.10349508E+03 -.80292926E+02 -.22365753E+03 0.25919274E+03 0.51099893E-03 0.0000E+00 0.9000E+01
       23  1    3    3    0    0 0.15481882E+03 0.65693157E+02 0.30903947E+02 0.19379051E+03 0.91188000E+02 0.0000E+00 0.9000E+01
#aMCatNLO 1  0  0  2  1 0.29639178D+03 0.00000000D+00  -5  7  0 0.00000000D+00 0.00000000D+00 0.00000000D+00 0.00000000D+00 0.00000000D+00
  <mgrwgt>
 0.1890237164D-03    3    2    0
 0.276905617418219D+03 0.000000000000000D+00 0.000000000000000D+00 0.276905617418219D+03
 0.276905617418219D+03 0.000000000000000D+00 0.000000000000000D+00 -.276905617418219D+03
 0.108932544614231D+03 -.583622781529732D+02 -.106629071364177D+01 -.119898058800104D+02
 0.329898376069877D+02 0.703853943589104D+01 0.156660591955646D+02 -.281666990828867D+02
 0.169845723539141D+03 -.103495077815584D+03 -.802929257410671D+02 -.108117458111167D+03
 0.242043129076078D+03 0.154818816532666D+03 0.656931572591442D+02 0.148273963074064D+03
 0.000000000000000D+00 0.000000000000000D+00 0.000000000000000D+00 0.000000000000000D+00
 0.623788600987912D+03 0.000000000000000D+00 0.000000000000000D+00 0.623788600987912D+03
 0.384977208544234D+03 0.000000000000000D+00 0.000000000000000D+00 -.384977208544234D+03
 0.129442003240510D+03 -.685583843252024D+02 -.599664352166595D+02 -.119898058800104D+02
 0.285133665959266D+02 0.440783407901148D+01 0.469186678966345D+00 -.281666990828867D+02
 0.244429740018529D+03 -.121215076234029D+03 -.182656558466112D+03 -.108117458111167D+03
 0.225750999228157D+03 0.134809639202871D+03 -.498944421836148D+02 0.148273963074064D+03
 0.380629700449023D+03 0.505559872773492D+02 0.292048249187420D+03 0.238811392443678D+03
0.391600115005D-05 0.000000000000D+00 0.000000000000D+00 0.300463884093D-08 0.000000000000D+00  7 1 -1 23 -11 11 23 21 0 0.24524107D-01 0.74002027D-01 0.50118906D+05 0.50118906D+05 0.50118906D+05 0.11472047D+01  1  2  2  2  7  2       -1 0.186574147856D-03 0.100000000000D+01
-.205599835998D-06 0.000000000000D+00 -.150384755230D-07 0.300463884093D-08 0.000000000000D+00  7 1 -1 23 -11 11 23 21 2 0.24524107D-01 0.74002027D-01 0.50118906D+05 0.50118906D+05 0.50118906D+05 0.11472047D+01  1  2  3  2  7  2       -1 -.128917901234D-04 0.100000000000D+01
0.244665853492D-06 0.000000000000D+00 0.000000000000D+00 0.300463884093D-08 0.000000000000D+00  7 1 -1 23 -11 11 23 21 2 0.24524107D-01 0.74002027D-01 0.50118906D+05 0.50118906D+05 0.50118906D+05 0.11472047D+01  1  2 15  2  7  2       -1 0.153413587042D-04 0.100000000000D+01
  </mgrwgt>
  </event>
  <event>
  7     66 0.24912036E-05 0.21024400E+03 0.75467711E-02 0.96285387E-01
        1 -1    0    0  501    0 0.00000000E+00 0.00000000E+00 0.64156329E+03 0.64156337E+03 0.32000000E+00 0.0000E+00 0.9000E+01
       -1 -1    0    0    0  501 0.00000000E+00 0.00000000E+00 -.12600375E+03 0.12600416E+03 0.32000000E+00 0.0000E+00 0.9000E+01
       23  2    1    2    0    0 -.70789102E+02 0.71297922E+02 -.38668416E+02 0.14124924E+03 0.91441840E+02 0.0000E+00 0.0000E+00
       23  1    1    2    0    0 0.10983115E+03 0.26744222E+02 0.21416769E+03 0.25876859E+03 0.91188000E+02 0.0000E+00 0.9000E+01
      -11  1    3    3    0    0 -.57598438E+02 0.93582099E+02 -.33070046E+02 0.11475547E+03 0.51099893E-03 0.0000E+00 0.9000E+01
       11  1    3    3    0    0 -.13190664E+02 -.22284177E+02 -.55983693E+01 0.26493771E+02 0.51099893E-03 0.0000E+00 0.9000E+01
       23  1    1    2    0    0 -.39042044E+02 -.98042144E+02 0.34006026E+03 0.36754969E+03 0.91188000E+02 0.0000E+00 0.9000E+01
#aMCatNLO 1  0  0  1  2 0.37030222D+03 0.00000000D+00  -5  7  0 0.00000000D+00 0.00000000D+00 0.00000000D+00 0.00000000D+00 0.00000000D+00
  <mgrwgt>
 0.4546814082D-03    3    2    0
 0.284322997609306D+03 0.000000000000000D+00 0.000000000000000D+00 0.284322997609306D+03
 0.284322997609306D+03 0.000000000000000D+00 0.000000000000000D+00 -.284322997609306D+03
 0.155116142449194D+03 0.109831146461453D+03 0.267442217686870D+02 0.544759779468778D+02
 0.184881540231171D+03 -.575984383837685D+02 0.935820986378162D+02 -.148680848223782D+03
 0.408374471053770D+02 -.131906640728206D+02 -.222841767829982D+02 -.315771900666691D+02
 0.187810865432871D+03 -.390420440048640D+02 -.980421436235050D+02 0.125782060343573D+03
 0.000000000000000D+00 -.000000000000000D+00 0.000000000000000D+00 -.000000000000000D+00
 0.480913706635383D+03 0.000000000000000D+00 0.000000000000000D+00 0.480913706635383D+03
 0.581357626764380D+03 0.000000000000000D+00 0.000000000000000D+00 -.581357626764380D+03
 0.201053585414764D+03 0.156513927435539D+03 -.681399384323598D+02 0.544759779468778D+02
 0.149387399847803D+03 -.137861699753006D+02 0.453234179603888D+01 -.148680848223782D+03
 0.579617903033124D+02 -.241154893538909D+00 -.486044447244893D+02 -.315771900666691D+02
 0.270185466072967D+03 0.209870397660862D+02 -.220053066760382D+03 0.125782060343573D+03
 0.383683091760916D+03 -.163473642332786D+03 0.332265108121192D+03 -.100443920128997D+03
0.590148884617D-05 0.000000000000D+00 0.000000000000D+00 0.318774184360D-09 0.000000000000D+00  7 1 -1 23 -11 11 23 21 0 0.98702081D-01 0.19385230D-01 0.44202540D+05 0.44202540D+05 0.44202540D+05 0.11520332D+01  1  2  2  1  7  1        1 0.448487274630D-03 0.100000000000D+01
-.291541787464D-06 0.000000000000D+00 -.226632710670D-07 0.318774184360D-09 0.000000000000D+00  7 1 -1 23 -11 11 23 21 2 0.98702081D-01 0.19385230D-01 0.44202540D+05 0.44202540D+05 0.44202540D+05 0.11520332D+01  1  2  3  1  7  1        1 -.294048746255D-04 0.100000000000D+01
0.352955032928D-06 0.000000000000D+00 0.000000000000D+00 0.318774184360D-09 0.000000000000D+00  7 1 -1 23 -11 11 23 21 2 0.98702081D-01 0.19385230D-01 0.44202540D+05 0.44202540D+05 0.44202540D+05 0.11520332D+01  1  2 15  1  7  1        1 0.355990082312D-04 0.100000000000D+01
  </mgrwgt>
  </event>
  <event>
  8     66 0.24912036E-05 0.20045166E+03 0.75467711E-02 0.88163835E-01
        1 -1    0    0  501    0 0.00000000E+00 0.00000000E+00 0.15429234E+03 0.15429268E+03 0.32000000E+00 0.0000E+00 0.9000E+01
       -1 -1    0    0    0  501 0.00000000E+00 0.00000000E+00 -.42963617E+03 0.42963628E+03 0.32000000E+00 0.0000E+00 0.9000E+01
       25  2    1    2    0    0 -.13034322E+03 -.85073079E+02 -.17492847E+03 0.37949723E+03 0.29864929E+03 0.0000E+00 0.0000E+00
       23  2    1    2    0    0 0.13034322E+03 0.85073079E+02 -.10041535E+03 0.20443173E+03 0.86500310E+02 0.0000E+00 0.0000E+00
       23  1    3    3    0    0 -.54465810E+02 -.23741692E+02 -.21422845E+03 0.24028998E+03 0.91188000E+02 0.0000E+00 0.9000E+01
      -11  1    4    4    0    0 0.96165927E+02 0.77519420E+02 -.11282782E+03 0.16729394E+03 0.51099893E-03 0.0000E+00 0.9000E+01
       11  1    4    4    0    0 0.34177295E+02 0.75536596E+01 0.12412474E+02 0.37137781E+02 0.51099893E-03 0.0000E+00 0.9000E+01
       23  1    3    3    0    0 -.75877412E+02 -.61331388E+02 0.39299980E+02 0.13920726E+03 0.91188000E+02 0.0000E+00 0.9000E+01
#aMCatNLO 1  0  0  1  1 0.87828192D+03 0.00000000D+00  -5  7  0 0.00000000D+00 0.00000000D+00 0.00000000D+00 0.00000000D+00 0.00000000D+00
  <mgrwgt>
 0.4777368305D-03    5    2    0
 0.257467867174387D+03 0.000000000000000D+00 0.000000000000000D+00 0.257467867174387D+03
 0.257467867174387D+03 0.000000000000000D+00 0.000000000000000D+00 -.257467867174387D+03
 0.157933875263696D+03 -.544658096527941D+02 -.237416917517349D+02 -.114445031624094D+03
 0.129377959713325D+03 0.961659266075694D+02 0.775194198403401D+02 -.384903957748870D+02
 0.487507900342659D+02 0.341772948518768D+02 0.755365956477269D+01 0.339336746131696D+02
 0.178873109337487D+03 -.758774118066522D+02 -.613313876533779D+02 0.119001752785811D+03
 0.000000000000000D+00 0.000000000000000D+00 -.000000000000000D+00 0.000000000000000D+00
 0.106930716098059D+04 0.000000000000000D+00 0.000000000000000D+00 0.106930716098059D+04
 0.853261716520680D+03 0.000000000000000D+00 0.000000000000000D+00 -.853261716520680D+03
 0.358682690539449D+03 -.283882064563071D+03 0.163252348542331D+03 -.114445031624094D+03
 0.212196321222831D+03 -.555185091871269D+02 0.201155321359476D+03 -.384903957748870D+02
 0.593424912168636D+02 -.138241774335604D+02 0.466790007321976D+02 0.339336746131696D+02
 0.387883572731296D+03 -.327559614918853D+03 0.143811321386433D+03 0.119001752785811D+03
 0.904463801790834D+03 0.680784366102611D+03 -.554897992020437D+03 0.216045444459914D+03
0.690522741421D-05 0.000000000000D+00 0.000000000000D+00 0.983827226872D-08 0.000000000000D+00  7 1 -1 23 -11 11 23 21 0 0.23737318D-01 0.66097906D-01 0.40180867D+05 0.40180867D+05 0.40180867D+05 0.11557421D+01  1  2  2  1  7  1        1 0.426443393531D-03 0.100000000000D+01
-.354396735309D-06 0.000000000000D+00 -.265178914587D-07 0.983827226872D-08 0.000000000000D+00  7 1 -1 23 -11 11 23 21 2 0.23737318D-01 0.66097906D-01 0.40180867D+05 0.40180867D+05 0.40180867D+05 0.11557421D+01  1  2  3  1  7  1        1 -.292344513363D-04 0.100000000000D+01
0.437876661197D-06 0.000000000000D+00 0.000000000000D+00 0.983827226872D-08 0.000000000000D+00  7 1 -1 23 -11 11 23 21 2 0.23737318D-01 0.66097906D-01 0.40180867D+05 0.40180867D+05 0.40180867D+05 0.11557421D+01  1  2 15  1  7  1        1 0.361207727603D-04 0.100000000000D+01
0.175291310571D-04 0.000000000000D+00 -.572696081683D-05 0.983827226872D-08 0.000000000000D+00  7 1 -1 23 -11 11 23 21 2 0.25912435D+00 0.66097906D-01 0.40180867D+05 0.40180867D+05 0.40180867D+05 0.11557421D+01  1  2  5  1  7  1        1 0.382018562810D-04 0.100000000000D+01
0.393836764184D-05 0.000000000000D+00 -.161266217421D-05 0.983827226872D-08 0.000000000000D+00  7 21 -1 23 -11 11 23 -1 2 0.25912435D+00 0.66097906D-01 0.40180867D+05 0.40180867D+05 0.40180867D+05 0.11557421D+01  1  2  5  3  7  1        1 0.620525929993D-05 0.100000000000D+01
  </mgrwgt>
  </event>
  <event>
  8     66 0.24912036E-05 0.17885478E+03 0.75467711E-02 0.10252172E+00
        1 -1    0    0  501    0 0.00000000E+00 0.00000000E+00 0.10173643E+04 0.10173644E+04 0.32000000E+00 0.0000E+00 0.9000E+01
       -1 -1    0    0    0  501 0.00000000E+00 0.00000000E+00 -.55097530E+02 0.55098460E+02 0.32000000E+00 0.0000E+00 0.9000E+01
       25  2    1    2    0    0 -.53352014E+01 0.84962621E+02 0.46064232E+03 0.55530259E+03 0.29819877E+03 0.0000E+00 0.0000E+00
       23  2    1    2    0    0 0.53352014E+01 -.84962621E+02 0.50162449E+03 0.51716026E+03 0.92630964E+02 0.0000E+00 0.0000E+00
       23  1    3    3    0    0 -.11586866E+03 0.63578827E+02 0.19390186E+03 0.25175582E+03 0.91188000E+02 0.0000E+00 0.9000E+01
      -11  1    4    4    0    0 0.17231792E+02 -.10214988E+03 0.38587666E+03 0.39954014E+03 0.51099893E-03 0.0000E+00 0.9000E+01
       11  1    4    4    0    0 -.11896590E+02 0.17187262E+02 0.11574784E+03 0.11762012E+03 0.51099893E-03 0.0000E+00 0.9000E+01
       23  1    3    3    0    0 0.11053346E+03 0.21383794E+02 0.26674046E+03 0.30354676E+03 0.91188000E+02 0.0000E+00 0.9000E+01
#aMCatNLO 1  0  0  2  1 0.86413003D+02 0.00000000D+00  -5  7  0 0.00000000D+00 0.00000000D+00 0.00000000D+00 0.00000000D+00 0.00000000D+00
  <mgrwgt>
 0.2358547256D-03    9    2    0
 0.236758923570884D+03 0.000000000000000D+00 0.000000000000000D+00 0.236758923570884D+03
 0.236758923570884D+03 0.000000000000000D+00 0.000000000000000D+00 -.236758923570884D+03
 0.176156924763061D+03 -.115868660141065D+03 0.635788271584158D+02 -.724444416932981D+02
 0.120746585288081D+03 0.172317915379713D+02 -.102149882812828D+03 0.620338992845773D+02
 0.311770868982874D+02 -.118965901730834D+02 0.171872619054488D+02 0.231317945242164D+02
 0.145437250192339D+03 0.110533458776177D+03 0.213837937489636D+02 -.127212521154956D+02
 0.000000000000000D+00 0.000000000000000D+00 -.000000000000000D+00 -.000000000000000D+00
 0.280995432080265D+03 0.000000000000000D+00 0.000000000000000D+00 0.280995432080265D+03
 0.286961360526281D+03 0.000000000000000D+00 0.000000000000000D+00 -.286961360526281D+03
 0.203028682923001D+03 -.147635972426333D+03 0.765559746781789D+02 -.724444416932981D+02
 0.112779979689097D+03 -.233253571011888D+01 -.941577316813923D+02 0.620338992845773D+02
 0.348879209362917D+02 -.174313670540334D+02 0.194482531856701D+02 0.231317945242164D+02
 0.130641508226345D+03 0.874042050380530D+02 0.308322398462071D+02 -.127212521154956D+02
 0.866187008318113D+02 0.799956701524323D+02 -.326787360286639D+02 -.596592844601680D+01
0.130846460249D-05 0.000000000000D+00 0.000000000000D+00 0.888053730104D-08 0.000000000000D+00  7 1 -1 23 -11 11 23 21 0 0.15651767D+00 0.84766185D-02 0.46213582D+05 0.46213582D+05 0.46213582D+05 0.11503158D+01  1  2  2  2  7  2       -1 0.172921303369D-03 0.100000000000D+01
-.718689527552D-07 0.000000000000D+00 -.502484860020D-08 0.888053730104D-08 0.000000000000D+00  7 1 -1 23 -11 11 23 21 2 0.15651767D+00 0.84766185D-02 0.46213582D+05 0.46213582D+05 0.46213582D+05 0.11503158D+01  1  2  3  2  7  2       -1 -.125678804025D-04 0.100000000000D+01
0.850008419827D-07 0.000000000000D+00 0.000000000000D+00 0.888053730104D-08 0.000000000000D+00  7 1 -1 23 -11 11 23 21 2 0.15651767D+00 0.84766185D-02 0.46213582D+05 0.46213582D+05 0.46213582D+05 0.11503158D+01  1  2 15  2  7  2       -1 0.148642824920D-04 0.100000000000D+01
0.561753118429D-06 0.000000000000D+00 0.000000000000D+00 0.888053730104D-08 0.000000000000D+00  7 1 -1 23 -11 11 23 21 2 0.15651767D+00 0.10917129D-01 0.69274537D+05 0.69274537D+05 0.69274537D+05 0.11350444D+01  1  2 12  2  7  2       -1 0.649970992016D-04 0.100000000000D+01
-.597137294164D-06 0.000000000000D+00 0.000000000000D+00 0.888053730104D-08 0.000000000000D+00  7 1 -1 23 -11 11 23 21 2 0.15651767D+00 0.84766185D-02 0.46213582D+05 0.46213582D+05 0.46213582D+05 0.11503158D+01  1  2  4  2  7  2       -1 -.104422700057D-03 0.100000000000D+01
-.122288437929D-05 0.000000000000D+00 -.585031766563D-06 0.888053730104D-08 0.000000000000D+00  7 1 -1 23 -11 11 23 21 2 0.15651767D+00 0.12267463D-01 0.46213582D+05 0.46213582D+05 0.46213582D+05 0.11503158D+01  1  2  5  2  7  2       -1 -.121798900581D-03 0.100000000000D+01
0.138148868674D-05 0.000000000000D+00 0.547220035864D-06 0.888053730104D-08 0.000000000000D+00  7 1 -1 23 -11 11 23 21 2 0.15651767D+00 0.84766185D-02 0.46213582D+05 0.46213582D+05 0.46213582D+05 0.11503158D+01  1  2  6  2  7  2       -1 0.241583937525D-03 0.100000000000D+01
0.191806259669D-07 0.000000000000D+00 0.000000000000D+00 0.888053730104D-08 0.000000000000D+00  7 1 21 23 -11 11 23 1 2 0.15651767D+00 0.10917129D-01 0.69274537D+05 0.69274537D+05 0.69274537D+05 0.11350444D+01  1  2 12  4  7  2       -1 0.308099643504D-04 0.100000000000D+01
-.370576736964D-07 0.000000000000D+00 -.262901494005D-07 0.888053730104D-08 0.000000000000D+00  7 1 21 23 -11 11 23 1 2 0.15651767D+00 0.12267463D-01 0.46213582D+05 0.46213582D+05 0.46213582D+05 0.11503158D+01  1  2  5  4  7  2       -1 -.505323803324D-04 0.100000000000D+01
  </mgrwgt>
  </event>
  <event>
  8     66 0.24912036E-05 0.19907657E+03 0.75467711E-02 0.10563078E+00
        1 -1    0    0  501    0 0.00000000E+00 0.00000000E+00 0.61458604E+03 0.61458613E+03 0.32000000E+00 0.0000E+00 0.9000E+01
       -1 -1    0    0    0  501 0.00000000E+00 0.00000000E+00 -.13386347E+03 0.13386385E+03 0.32000000E+00 0.0000E+00 0.9000E+01
       25  2    1    2    0    0 -.88703088E+01 -.13227576E+03 0.11335476E+03 0.34707047E+03 0.30005507E+03 0.0000E+00 0.0000E+00
       23  2    1    2    0    0 0.88703088E+01 0.13227576E+03 0.36736781E+03 0.40137951E+03 0.92578843E+02 0.0000E+00 0.0000E+00
       23  1    3    3    0    0 0.20857553E+02 0.72958113E+01 -.54600917E+02 0.10855772E+03 0.91188000E+02 0.0000E+00 0.9000E+01
      -11  1    4    4    0    0 -.77710066E+01 0.72897975E+02 0.84505655E+02 0.11187363E+03 0.51099893E-03 0.0000E+00 0.9000E+01
       11  1    4    4    0    0 0.16641315E+02 0.59377789E+02 0.28286216E+03 0.28950588E+03 0.51099893E-03 0.0000E+00 0.9000E+01
       23  1    3    3    0    0 -.29727861E+02 -.13957158E+03 0.16795568E+03 0.23851275E+03 0.91188000E+02 0.0000E+00 0.9000E+01
#aMCatNLO 1  0  0  2  2 0.18650144D+02 0.00000000D+00  -5  7  0 0.00000000D+00 0.00000000D+00 0.00000000D+00 0.00000000D+00 0.00000000D+00
  <mgrwgt>
 0.1225398716D-03    4    2    0
 0.286828858085992D+03 0.000000000000000D+00 0.000000000000000D+00 0.286828858085992D+03
 0.286828858085992D+03 0.000000000000000D+00 0.000000000000000D+00 -.286828858085992D+03
 0.187390339892962D+03 0.208575526150867D+02 0.729581125387806D+01 -.162208574922093D+03
 0.751459249568372D+02 -.777100659404190D+01 0.728979751252388D+02 0.165047483099267D+02
 0.140680484107417D+03 0.166413154416312D+02 0.593777889217028D+02 0.126445021301113D+03
 0.170440967214768D+03 -.297278614626761D+02 -.139571575300820D+03 0.192588053110533D+02
 0.000000000000000D+00 -.000000000000000D+00 -.000000000000000D+00 0.000000000000000D+00
 0.321154776735765D+03 0.000000000000000D+00 0.000000000000000D+00 0.321154776735765D+03
 0.289524909277778D+03 0.000000000000000D+00 0.000000000000000D+00 -.289524909277778D+03
 0.187766178651538D+03 0.212176696804928D+02 0.133818988366494D+02 -.162208574922093D+03
 0.775365474468376D+02 -.762444492928854D+01 0.753749116929627D+02 0.165047483099267D+02
 0.142713824562358D+03 0.169133489043227D+02 0.639752369141162D+02 0.126445021301113D+03
 0.165944252173552D+03 -.294049614141255D+02 -.134114466586063D+03 0.192588053110533D+02
 0.367188831792572D+02 -.110161224140156D+01 -.186175808576656D+02 0.316298674579869D+02
0.211671891993D-05 0.000000000000D+00 0.000000000000D+00 0.338796465348D-06 0.000000000000D+00  7 1 -1 23 -11 11 23 21 0 0.94551735D-01 0.20594416D-01 0.39631482D+05 0.39631482D+05 0.39631482D+05 0.11562804D+01  1  2  2  2  7  2       -1 0.155482214542D-03 0.100000000000D+01
-.985266392382D-07 0.000000000000D+00 -.812875799743D-08 0.338796465348D-06 0.000000000000D+00  7 1 -1 23 -11 11 23 21 2 0.94551735D-01 0.20594416D-01 0.39631482D+05 0.39631482D+05 0.39631482D+05 0.11562804D+01  1  2  3  2  7  2       -1 -.967603652562D-05 0.100000000000D+01
0.132597085234D-06 0.000000000000D+00 0.000000000000D+00 0.338796465348D-06 0.000000000000D+00  7 1 -1 23 -11 11 23 21 2 0.94551735D-01 0.20594416D-01 0.39631482D+05 0.39631482D+05 0.39631482D+05 0.11562804D+01  1  2 15  2  7  2       -1 0.130220034890D-04 0.100000000000D+01
-.369507205703D-06 0.000000000000D+00 0.000000000000D+00 0.338796465348D-06 0.000000000000D+00  7 1 -1 23 -11 11 23 21 2 0.94551735D-01 0.20594416D-01 0.39631482D+05 0.39631482D+05 0.39631482D+05 0.11562804D+01  1  2  4  2  7  2       -1 -.362883099079D-04 0.100000000000D+01
  </mgrwgt>
  </event>
  <event>
  7     66 0.24912036E-05 0.42009235E+03 0.75467711E-02 0.96584481E-01
        1 -1    0    0  501    0 0.00000000E+00 0.00000000E+00 0.81214617E+03 0.81214623E+03 0.32000000E+00 0.0000E+00 0.9000E+01
       -1 -1    0    0    0  501 0.00000000E+00 0.00000000E+00 -.27168684E+03 0.27168703E+03 0.32000000E+00 0.0000E+00 0.9000E+01
       25  2    1    2    0    0 0.17983441E+03 -.32007782E+03 0.81344235E+02 0.48041557E+03 0.29898497E+03 0.0000E+00 0.0000E+00
       23  1    3    3    0    0 0.18435171E+03 -.32083891E+03 0.52720443E+02 0.38473089E+03 0.91188000E+02 0.0000E+00 0.9000E+01
      -11  1    1    2    0    0 -.40270928E+01 0.16365235E+02 0.99625723E+02 0.10104119E+03 0.51099893E-03 0.0000E+00 0.9000E+01
       11  1    1    2    0    0 -.17580732E+03 0.30371258E+03 0.35948936E+03 0.50237650E+03 0.51099893E-03 0.0000E+00 0.9000E+01
       23  1    3    3    0    0 -.45173062E+01 0.76109422E+00 0.28623792E+02 0.95684681E+02 0.91188000E+02 0.0000E+00 0.9000E+01
#aMCatNLO 1  0  0  1  2 0.43131247D+01 0.00000000D+00  -5  7  0 0.00000000D+00 0.00000000D+00 0.00000000D+00 0.00000000D+00 0.00000000D+00
  <mgrwgt>
 0.2061967454D-03    8    2    0
 0.469733505300693D+03 0.000000000000000D+00 0.000000000000000D+00 0.469733505300693D+03
 0.469733505300693D+03 0.000000000000000D+00 0.000000000000000D+00 -.469733505300693D+03
 0.413522642165447D+03 0.184351714896245D+03 -.320838909743581D+03 -.160507206843981D+03
 0.592550419286745D+02 -.402709309932614D+01 0.163652356830526D+02 0.568077598236058D+02
 0.372767726786259D+03 -.175807315591294D+03 0.303712579887372D+03 0.125722848902396D+03
 0.939215997210055D+02 -.451730620562429D+01 0.761094173155797D+00 -.220234018820209D+02
 0.000000000000000D+00 -.000000000000000D+00 0.000000000000000D+00 -.000000000000000D+00
 0.469881811664508D+03 0.000000000000000D+00 0.000000000000000D+00 0.469881811664508D+03
 0.502180504137788D+03 0.000000000000000D+00 0.000000000000000D+00 -.502180504137788D+03
 0.415209652155699D+03 0.185517525750523D+03 -.322342190986231D+03 -.160507206843981D+03
 0.591849643545483D+02 -.386047880680740D+01 0.161503911053222D+02 0.568077598236058D+02
 0.371175175962859D+03 -.174760781364342D+03 0.302363102596612D+03 0.125722848902396D+03
 0.939071189264818D+02 -.425308003699916D+01 0.420381748276524D+00 -.220234018820209D+02
 0.325854044027073D+02 -.264318554237465D+01 0.340831553602087D+01 -.322986924732794D+02
0.141321774834D-04 0.000000000000D+00 0.000000000000D+00 0.516257728547D-09 0.000000000000D+00  7 1 -1 23 -11 11 23 21 0 0.12494558D+00 0.41797995D-01 0.17647758D+06 0.17647758D+06 0.17647758D+06 0.11020234D+01  1  2  2  1  7  1        1 0.205359157131D-03 0.100000000000D+01
-.773212553322D-06 0.000000000000D+00 -.542712826240D-07 0.516257728547D-09 0.000000000000D+00  7 1 -1 23 -11 11 23 21 2 0.12494558D+00 0.41797995D-01 0.17647758D+06 0.17647758D+06 0.17647758D+06 0.11020234D+01  1  2  3  1  7  1        1 -.136453768091D-04 0.100000000000D+01
0.851282111993D-06 0.000000000000D+00 0.000000000000D+00 0.516257728547D-09 0.000000000000D+00  7 1 -1 23 -11 11 23 21 2 0.12494558D+00 0.41797995D-01 0.17647758D+06 0.17647758D+06 0.17647758D+06 0.11020234D+01  1  2 15  1  7  1        1 0.150231202779D-04 0.100000000000D+01
-.978042838767D-06 0.000000000000D+00 0.000000000000D+00 0.516257728547D-09 0.000000000000D+00  7 1 -1 23 -11 11 23 21 2 0.12494558D+00 0.41797995D-01 0.17647758D+06 0.17647758D+06 0.17647758D+06 0.11020234D+01  1  2  4  1  7  1        1 -.172601479542D-04 0.100000000000D+01
0.561256902829D-06 0.000000000000D+00 0.000000000000D+00 0.516257728547D-09 0.000000000000D+00  7 1 -1 23 -11 11 23 21 2 0.13279846D+00 0.41797995D-01 0.17647758D+06 0.17647758D+06 0.17647758D+06 0.11020234D+01  1  2  5  1  7  1        1 0.897696751177D-05 0.100000000000D+01
-.560215859949D-06 0.000000000000D+00 0.000000000000D+00 0.516257728547D-09 0.000000000000D+00  7 1 -1 23 -11 11 23 21 2 0.12494558D+00 0.41797995D-01 0.17647758D+06 0.17647758D+06 0.17647758D+06 0.11020234D+01  1  2  6  1  7  1        1 -.988648783645D-05 0.100000000000D+01
0.847520981667D-06 0.000000000000D+00 0.000000000000D+00 0.516257728547D-09 0.180012524888D-09  7 1 -1 23 -11 11 23 21 2 0.12498503D+00 0.44685206D-01 0.17824127D+06 0.17824127D+06 0.17824127D+06 0.11016880D+01  1  2 11  1  7  1        1 0.132746017492D-04 0.100000000000D+01
0.159602580104D-06 0.000000000000D+00 0.000000000000D+00 0.516257728547D-09 0.109981419120D-13  7 21 -1 23 -11 11 23 -1 2 0.12498503D+00 0.44685206D-01 0.17824127D+06 0.17824127D+06 0.17824127D+06 0.11016880D+01  1  2 11  3  7  1        1 0.435491137207D-05 0.100000000000D+01
  </mgrwgt>
  </event>
  <event>
  8     66 0.24912036E-05 0.16377242E+03 0.75467711E-02 0.94523473E-01
        3 -1    0    0  501    0 0.00000000E+00 0.00000000E+00 0.12955068E+03 0.12955165E+03 0.50000000E+00 0.0000E+00 0.9000E+01
       -3 -1    0    0    0  501 0.00000000E+00 0.00000000E+00 -.33463460E+03 0.33463498E+03 0.50000000E+00 0.0000E+00 0.9000E+01
       25  2    1    2    0    0 0.75061804E+01 0.53394609E+02 -.17891900E+03 0.35338195E+03 0.29993244E+03 0.0000E+00 0.0000E+00
       23  2    1    2    0    0 -.75061804E+01 -.53394609E+02 -.26164923E+02 0.11080468E+03 0.93197353E+02 0.0000E+00 0.0000E+00
       23  1    3    3    0    0 0.43771386E+02 0.71387356E+02 -.21432718E+03 0.24751460E+03 0.91188000E+02 0.0000E+00 0.9000E+01
      -13  1    4    4    0    0 -.47699029E+02 -.37790547E+02 -.96080951E+00 0.60862609E+02 0.10565837E+00 0.0000E+00 0.9000E+01
       13  1    4    4    0    0 0.40192849E+02 -.15604062E+02 -.25204113E+02 0.49942070E+02 0.10565837E+00 0.0000E+00 0.9000E+01
       23  1    3    3    0    0 -.36265206E+02 -.17992747E+02 0.35408179E+02 0.10586734E+03 0.91188000E+02 0.0000E+00 0.9000E+01
#aMCatNLO 1  0  0  2  2 0.45321240D+03 0.00000000D+00  -5  7  0 0.00000000D+00 0.00000000D+00 0.00000000D+00 0.00000000D+00 0.00000000D+00
  <mgrwgt>
 0.1422854062D-03    3    2    0
 0.208212517487704D+03 0.000000000000000D+00 0.000000000000000D+00 0.208212517487704D+03
 0.208212517487704D+03 0.000000000000000D+00 0.000000000000000D+00 -.208212517487704D+03
 0.170350437889035D+03 0.437715054331490D+02 0.713882035130068D+02 -.117011965440665D+03
 0.673702281634498D+02 -.476985881131899D+02 -.377914184212122D+02 0.289033048026762D+02
 0.432569039547116D+02 0.401921937972721D+02 -.156047123530659D+02 -.349860684955354D+01
 0.135447464968212D+03 -.362651111172311D+02 -.179920727387287D+02 0.916072674875421D+02
 0.000000000000000D+00 -.000000000000000D+00 -.000000000000000D+00 0.000000000000000D+00
 0.158610939920199D+04 0.000000000000000D+00 0.000000000000000D+00 0.158610939920199D+04
 0.347906829996306D+03 0.000000000000000D+00 0.000000000000000D+00 -.347906829996306D+03
 0.341680080790454D+03 0.128280268094303D+03 0.279789919450893D+03 -.117011965440665D+03
 0.419498750112770D+02 -.296557052844248D+02 0.670299403466100D+01 0.289033048026762D+02
 0.646332600042755D+02 0.579990703932165D+02 0.283077000552016D+02 -.349860684955354D+01
 0.167213259062038D+03 0.136879334002890D+02 0.105193971713418D+03 0.916072674875421D+02
 0.131853975433025D+04 -.170311566603384D+03 -.419994585254173D+03 0.123820256920568D+04
0.409631585890D-05 0.000000000000D+00 0.000000000000D+00 0.292014772289D-07 0.000000000000D+00  7 3 -3 23 -13 13 23 21 0 0.19930977D-01 0.51482350D-01 0.26821406D+05 0.26821406D+05 0.26821406D+05 0.11718759D+01  1  2  2  2  7  2       -3 0.140043489349D-03 0.100000000000D+01
-.211624604959D-06 0.000000000000D+00 -.157309314829D-07 0.292014772289D-07 0.000000000000D+00  7 3 -3 23 -13 13 23 21 2 0.19930977D-01 0.51482350D-01 0.26821406D+05 0.26821406D+05 0.26821406D+05 0.11718759D+01  1  2  3  2  7  2       -3 -.993570905969D-05 0.100000000000D+01
0.259376079892D-06 0.000000000000D+00 0.000000000000D+00 0.292014772289D-07 0.000000000000D+00  7 3 -3 23 -13 13 23 21 2 0.19930977D-01 0.51482350D-01 0.26821406D+05 0.26821406D+05 0.26821406D+05 0.11718759D+01  1  2 15  2  7  2       -3 0.121776258831D-04 0.100000000000D+01
  </mgrwgt>
  </event>
  <event>
  8     66 0.24912036E-05 0.40940776E+03 0.75467711E-02 0.84567317E-01
        1 -1    0    0  501    0 0.00000000E+00 0.00000000E+00 0.62830582E+03 0.62830591E+03 0.32000000E+00 0.0000E+00 0.9000E+01
       -1 -1    0    0    0  501 0.00000000E+00 0.00000000E+00 -.24623949E+04 0.24623949E+04 0.32000000E+00 0.0000E+00 0.9000E+01
       25  2    1    2    0    0 -.11551160E+04 0.35766115E+03 -.68286554E+03 0.14185945E+04 0.28963863E+03 0.0000E+00 0.0000E+00
       23  2    1    2    0    0 0.11551160E+04 -.35766115E+03 -.11512235E+04 0.16721063E+04 0.91703423E+02 0.0000E+00 0.0000E+00
       23  1    3    3    0    0 -.21227477E+03 0.68157547E+02 -.58979426E+02 0.24799164E+03 0.91188000E+02 0.0000E+00 0.9000E+01
      -13  1    4    4    0    0 0.43672841E+03 -.15164653E+03 -.38314000E+03 0.60043704E+03 0.10565837E+00 0.0000E+00 0.9000E+01
       13  1    4    4    0    0 0.71838758E+03 -.20601462E+03 -.76808353E+03 0.10716693E+04 0.10565837E+00 0.0000E+00 0.9000E+01
       23  1    3    3    0    0 -.94284122E+03 0.28950360E+03 -.62388611E+03 0.11706028E+04 0.91188000E+02 0.0000E+00 0.9000E+01
#aMCatNLO 1  0  0  2  1 0.24944275D+03 0.00000000D+00  -5  7  0 0.00000000D+00 0.00000000D+00 0.00000000D+00 0.00000000D+00 0.00000000D+00
  <mgrwgt>
 0.1195447823D-03    9    2    0
 0.124383970235505D+04 0.000000000000000D+00 0.000000000000000D+00 0.124383970235505D+04
 0.124383970235505D+04 0.000000000000000D+00 0.000000000000000D+00 -.124383970235505D+04
 0.264621893095617D+03 -.212274766817377D+03 0.681575473211417D+02 0.109560335328543D+03
 0.463507224218434D+03 0.436728034624272D+03 -.151646453448279D+03 -.333305240351529D+02
 0.765161508339347D+03 0.718387952564546D+03 -.206014693369513D+03 -.164160986748161D+03
 0.994388779056703D+03 -.942841220371440D+03 0.289503599496651D+03 0.879311754547712D+02
 0.000000000000000D+00 -.000000000000000D+00 -.000000000000000D+00 -.000000000000000D+00
 0.126453953914948D+04 0.000000000000000D+00 0.000000000000000D+00 0.126453953914948D+04
 0.232564705299612D+04 0.000000000000000D+00 0.000000000000000D+00 -.232564705299612D+04
 0.265052201144173D+03 -.203171694715172D+03 0.930333992533512D+02 0.109560335328543D+03
 0.466600832217752D+03 0.452713035198507D+03 -.107964441160951D+03 -.333305240351529D+02
 0.774353823502695D+03 0.744846333709884D+03 -.133712204237523D+03 -.164160986748161D+03
 0.994147239634637D+03 -.908665890762467D+03 0.382894097730904D+03 0.879311754547712D+02
 0.109003249564634D+04 -.857217834307518D+02 -.234250851585781D+03 -.106110751384663D+04
0.875658736154D-02 0.000000000000D+00 0.000000000000D+00 0.272206690674D-07 0.000000000000D+00  7 1 -1 23 -13 13 23 21 0 0.96662442D-01 0.37882999D+00 0.14896458D+07 0.14896458D+07 0.14896458D+07 0.10365331D+01  1  2  2  2  7  2       -1 0.111366707925D-03 0.100000000000D+01
-.486265031361D-03 0.000000000000D+00 -.336276011307D-04 0.272206690674D-07 0.000000000000D+00  7 1 -1 23 -13 13 23 21 2 0.96662442D-01 0.37882999D+00 0.14896458D+07 0.14896458D+07 0.14896458D+07 0.10365331D+01  1  2  3  2  7  2       -1 -.664446309760D-05 0.100000000000D+01
0.554976518719D-03 0.000000000000D+00 0.000000000000D+00 0.272206690674D-07 0.000000000000D+00  7 1 -1 23 -13 13 23 21 2 0.96662442D-01 0.37882999D+00 0.14896458D+07 0.14896458D+07 0.14896458D+07 0.10365331D+01  1  2 15  2  7  2       -1 0.758335631979D-05 0.100000000000D+01
0.374970620169D-01 0.000000000000D+00 0.000000000000D+00 0.272206690674D-07 0.000000000000D+00  7 1 -1 23 -13 13 23 21 2 0.96662442D-01 0.70887052D+00 0.18268282D+07 0.18268282D+07 0.18268282D+07 0.10308755D+01  1  2 12  2  7  2       -1 0.100981608484D-04 0.100000000000D+01
-.321696733911D-01 0.000000000000D+00 0.000000000000D+00 0.272206690674D-07 0.000000000000D+00  7 1 -1 23 -13 13 23 21 2 0.96662442D-01 0.37882999D+00 0.14896458D+07 0.14896458D+07 0.14896458D+07 0.10365331D+01  1  2  4  2  7  2       -1 -.439575527590D-03 0.100000000000D+01
-.379252856286D-01 0.000000000000D+00 -.183055222118D-02 0.272206690674D-07 0.000000000000D+00  7 1 -1 23 -13 13 23 21 2 0.96662442D-01 0.70953085D+00 0.14896458D+07 0.14896458D+07 0.14896458D+07 0.10365331D+01  1  2  5  2  7  2       -1 -.104629692514D-04 0.100000000000D+01
0.327258581946D-01 0.000000000000D+00 0.152110640807D-02 0.272206690674D-07 0.000000000000D+00  7 1 -1 23 -13 13 23 21 2 0.96662442D-01 0.37882999D+00 0.14896458D+07 0.14896458D+07 0.14896458D+07 0.10365331D+01  1  2  6  2  7  2       -1 0.447175394256D-03 0.100000000000D+01
0.255826905769D-02 0.000000000000D+00 0.000000000000D+00 0.272206690674D-07 0.000000000000D+00  7 1 21 23 -13 13 23 1 2 0.96662442D-01 0.70887052D+00 0.18268282D+07 0.18268282D+07 0.18268282D+07 0.10308755D+01  1  2 12  4  7  2       -1 0.940031383361D-06 0.100000000000D+01
-.248819644193D-02 0.000000000000D+00 -.125059171158D-03 0.272206690674D-07 0.000000000000D+00  7 1 21 23 -13 13 23 1 2 0.96662442D-01 0.70953085D+00 0.14896458D+07 0.14896458D+07 0.14896458D+07 0.10365331D+01  1  2  5  4  7  2       -1 -.935908465372D-06 0.100000000000D+01
  </mgrwgt>
  </event>
  <event>
  8     66 0.24912036E-05 0.52581822E+03 0.75467711E-02 0.92383468E-01
        1 -1    0    0  501    0 0.00000000E+00 0.00000000E+00 0.86505543E+03 0.86505549E+03 0.32000000E+00 0.0000E+00 0.9000E+01
       -1 -1    0    0    0  501 0.00000000E+00 0.00000000E+00 -.60691014E+03 0.60691023E+03 0.32000000E+00 0.0000E+00 0.9000E+01
       25  2    1    2    0    0 0.50646184E+03 -.37366318E+01 -.34651828E+03 0.67804432E+03 0.28836023E+03 0.0000E+00 0.0000E+00
       23  2    1    2    0    0 -.50646184E+03 0.37366318E+01 0.60466357E+03 0.79392140E+03 0.90419061E+02 0.0000E+00 0.0000E+00
       23  1    3    3    0    0 0.25264311E+03 0.40634719E+02 -.52639135E+02 0.27670535E+03 0.91188000E+02 0.0000E+00 0.9000E+01
      -11  1    4    4    0    0 -.82979138E+02 0.56246293E+01 0.15712138E+03 0.17777599E+03 0.51099893E-03 0.0000E+00 0.9000E+01
       11  1    4    4    0    0 -.42348270E+03 -.18879976E+01 0.44754219E+03 0.61614542E+03 0.51099893E-03 0.0000E+00 0.9000E+01
       23  1    3    3    0    0 0.25381873E+03 -.44371351E+02 -.29387914E+03 0.40133897E+03 0.91188000E+02 0.0000E+00 0.9000E+01
#aMCatNLO 1  0  0  2  1 0.16216747D+03 0.00000000D+00  -5  7  0 0.00000000D+00 0.00000000D+00 0.00000000D+00 0.00000000D+00 0.00000000D+00
  <mgrwgt>
 0.3804156350D-03    4    2    0
 0.724576443695762D+03 0.000000000000000D+00 0.000000000000000D+00 0.724576443695762D+03
 0.724576443695762D+03 0.000000000000000D+00 0.000000000000000D+00 -.724576443695762D+03
 0.290438186156638D+03 0.252643109981166D+03 0.406347188566588D+02 -.102758781797191D+03
 0.152585704105170D+03 -.829791381435927D+02 0.562462933905381D+01 0.127926632391442D+03
 0.546121828327929D+03 -.423482703580131D+03 -.188799756578336D+01 0.344830228677671D+03
 0.460007168801788D+03 0.253818731742557D+03 -.443713506299292D+02 -.369998079271923D+03
 0.000000000000000D+00 -.000000000000000D+00 0.000000000000000D+00 0.000000000000000D+00
 0.825055030601979D+03 0.000000000000000D+00 0.000000000000000D+00 0.825055030601979D+03
 0.797615793284678D+03 0.000000000000000D+00 0.000000000000000D+00 -.797615793284678D+03
 0.310236843831964D+03 0.277560309962068D+03 0.182360912515897D+02 -.102758781797191D+03
 0.146211576518664D+03 -.705844301511609D+02 -.551725051939072D+01 0.127926632391442D+03
 0.514428433596227D+03 -.379488960463051D+03 -.414349558832424D+02 0.344830228677671D+03
 0.487321479418321D+03 0.293115816184017D+03 -.796963775608778D+02 -.369998079271923D+03
 0.164472490521481D+03 -.120602735531874D+03 0.108412492711921D+03 0.274392373173010D+02
0.324690169584D-03 0.000000000000D+00 0.000000000000D+00 0.827868164680D-08 0.000000000000D+00  7 1 -1 23 -11 11 23 21 0 0.13308546D+00 0.93370802D-01 0.27648480D+06 0.27648480D+06 0.27648480D+06 0.10871844D+01  1  2  2  2  7  2       -1 0.894392864001D-03 0.100000000000D+01
-.157836307469D-04 0.000000000000D+00 -.124689574409D-05 0.827868164680D-08 0.000000000000D+00  7 1 -1 23 -11 11 23 21 2 0.13308546D+00 0.93370802D-01 0.27648480D+06 0.27648480D+06 0.27648480D+06 0.10871844D+01  1  2  3  2  7  2       -1 -.513892782472D-04 0.100000000000D+01
0.202847495429D-04 0.000000000000D+00 0.000000000000D+00 0.827868164680D-08 0.000000000000D+00  7 1 -1 23 -11 11 23 21 2 0.13308546D+00 0.93370802D-01 0.27648480D+06 0.27648480D+06 0.27648480D+06 0.10871844D+01  1  2 15  2  7  2       -1 0.660442869674D-04 0.100000000000D+01
-.162363363058D-03 0.000000000000D+00 0.000000000000D+00 0.827868164680D-08 0.000000000000D+00  7 1 -1 23 -11 11 23 21 2 0.13308546D+00 0.93370802D-01 0.27648480D+06 0.27648480D+06 0.27648480D+06 0.10871844D+01  1  2  4  2  7  2       -1 -.528632237737D-03 0.100000000000D+01
  </mgrwgt>
  </event>
  <event>
  8     66 0.24912036E-05 0.45998272E+03 0.75467711E-02 0.94616238E-01
        1 -1    0    0  501    0 0.00000000E+00 0.00000000E+00 0.52483585E+03 0.52483595E+03 0.32000000E+00 0.0000E+00 0.9000E+01
       -1 -1    0    0    0  501 0.00000000E+00 0.00000000E+00 -.41444410E+03 0.41444423E+03 0.32000000E+00 0.0000E+00 0.9000E+01
       25  2    1    2    0    0 0.36913058E+03 -.17918396E+03 0.93922823E+02 0.51786781E+03 0.30166420E+03 0.0000E+00 0.0000E+00
       23  2    1    2    0    0 -.36913058E+03 0.17918396E+03 0.16468924E+02 0.42141237E+03 0.94619645E+02 0.0000E+00 0.0000E+00
       23  1    3    3    0    0 0.28472873E+03 -.22457763E+03 0.94088590E+02 0.38558199E+03 0.91188000E+02 0.0000E+00 0.9000E+01
      -11  1    4    4    0    0 -.93892521E+02 0.72247788E+02 -.30705089E+02 0.12238607E+03 0.51099893E-03 0.0000E+00 0.9000E+01
       11  1    4    4    0    0 -.27523806E+03 0.10693617E+03 0.47174013E+02 0.29902629E+03 0.51099893E-03 0.0000E+00 0.9000E+01
       23  1    3    3    0    0 0.84401858E+02 0.45393668E+02 -.16576738E+00 0.13228582E+03 0.91188000E+02 0.0000E+00 0.9000E+01
#aMCatNLO 1  0  0  2  2 0.77802750D+02 0.00000000D+00  -5  7  0 0.00000000D+00 0.00000000D+00 0.00000000D+00 0.00000000D+00 0.00000000D+00
  <mgrwgt>
 0.1641537155D-03    4    2    0
 0.466385277589638D+03 0.000000000000000D+00 0.000000000000000D+00 0.466385277589638D+03
 0.466385277589638D+03 0.000000000000000D+00 0.000000000000000D+00 -.466385277589638D+03
 0.377137672743494D+03 0.284728726841440D+03 -.224577625949525D+03 0.491122682484324D+02
 0.126874074188562D+03 -.938925211196064D+02 0.722477879481325D+02 -.454035495926342D+02
 0.295530176175665D+03 -.275238063517062D+03 0.106936170061386D+03 0.121139982829685D+02
 0.133228632071555D+03 0.844018577952276D+02 0.453936679400065D+02 -.158227169387667D+02
 0.000000000000000D+00 0.000000000000000D+00 0.000000000000000D+00 0.000000000000000D+00
 0.767629289730752D+03 0.000000000000000D+00 0.000000000000000D+00 0.767629289730752D+03
 0.473055567640562D+03 0.000000000000000D+00 0.000000000000000D+00 -.473055567640562D+03
 0.390567220821550D+03 0.276648859864557D+03 -.255501264340129D+03 0.491122682484324D+02
 0.123463993744517D+03 -.965272552539121D+02 0.621640123293322D+02 -.454035495926342D+02
 0.293730225875063D+03 -.281439854990873D+03 0.832003885864251D+02 0.121139982829685D+02
 0.128248269186025D+03 0.816498907341892D+02 0.348612130738714D+02 -.158227169387667D+02
 0.304675147744159D+03 0.196683596460388D+02 0.752756503504999D+02 0.294573722090190D+03
0.130999880835D-04 0.000000000000D+00 0.000000000000D+00 0.187698964044D-07 0.000000000000D+00  7 1 -1 23 -11 11 23 21 0 0.80743994D-01 0.63760648D-01 0.21158410D+06 0.21158410D+06 0.21158410D+06 0.10959523D+01  1  2  2  2  7  2       -1 0.167889119428D-03 0.100000000000D+01
-.727608035019D-06 0.000000000000D+00 -.503074035466D-07 0.187698964044D-07 0.000000000000D+00  7 1 -1 23 -11 11 23 21 2 0.80743994D-01 0.63760648D-01 0.21158410D+06 0.21158410D+06 0.21158410D+06 0.10959523D+01  1  2  3  2  7  2       -1 -.112003708632D-04 0.100000000000D+01
0.829644944028D-06 0.000000000000D+00 0.000000000000D+00 0.187698964044D-07 0.000000000000D+00  7 1 -1 23 -11 11 23 21 2 0.80743994D-01 0.63760648D-01 0.21158410D+06 0.21158410D+06 0.21158410D+06 0.10959523D+01  1  2 15  2  7  2       -1 0.127710671278D-04 0.100000000000D+01
-.344699404845D-06 0.000000000000D+00 0.000000000000D+00 0.187698964044D-07 0.000000000000D+00  7 1 -1 23 -11 11 23 21 2 0.80743994D-01 0.63760648D-01 0.21158410D+06 0.21158410D+06 0.21158410D+06 0.10959523D+01  1  2  4  2  7  2       -1 -.530610024187D-05 0.100000000000D+01
  </mgrwgt>
  </event>
  <event>
  8     66 0.24912036E-05 0.41244022E+03 0.75467711E-02 0.87501438E-01
        1 -1    0    0  501    0 0.00000000E+00 0.00000000E+00 0.32798183E+03 0.32798199E+03 0.32000000E+00 0.0000E+00 0.9000E+01
       -1 -1    0    0    0  501 0.00000000E+00 0.00000000E+00 -.54397931E+03 0.54397940E+03 0.32000000E+00 0.0000E+00 0.9000E+01
       25  2    1    2    0    0 -.70289574E+02 -.35537922E+03 -.95880608E+02 0.47963317E+03 0.29936579E+03 0.0000E+00 0.0000E+00
       23  2    1    2    0    0 0.70289574E+02 0.35537922E+03 -.12011687E+03 0.39232822E+03 0.90875490E+02 0.0000E+00 0.0000E+00
       23  1    3    3    0    0 -.48672128E+02 -.34542672E+03 -.24466923E+02 0.36138964E+03 0.91188000E+02 0.0000E+00 0.9000E+01
      -11  1    4    4    0    0 0.10583282E+02 0.23938516E+03 -.52157508E+02 0.24522982E+03 0.51099893E-03 0.0000E+00 0.9000E+01
       11  1    4    4    0    0 0.59706292E+02 0.11599406E+03 -.67959362E+02 0.14709840E+03 0.51099893E-03 0.0000E+00 0.9000E+01
       23  1    3    3    0    0 -.21617445E+02 -.99525010E+01 -.71413686E+02 0.11824353E+03 0.91188000E+02 0.0000E+00 0.9000E+01
#aMCatNLO 1  0  0  2  1 0.81533650D+03 0.00000000D+00  -5  7  0 0.00000000D+00 0.00000000D+00 0.00000000D+00 0.00000000D+00 0.00000000D+00
  <mgrwgt>
 0.8850399857D-04    5    2    0
 0.422392516302264D+03 0.000000000000000D+00 0.000000000000000D+00 0.422392516302264D+03
 0.422392516302264D+03 0.000000000000000D+00 0.000000000000000D+00 -.422392516302264D+03
 0.366759600406286D+03 -.486721283326129D+02 -.345426716206441D+03 0.671473067262329D+02
 0.239782944744960D+03 0.105832820614021D+02 0.239385155004756D+03 0.886579351905520D+01
 0.134454408850448D+03 0.597062915035189D+02 0.115994062178964D+03 -.325349712377776D+02
 0.103788078602835D+03 -.216174452323081D+02 -.995250097727826D+01 -.434781290075105D+02
 0.000000000000000D+00 -.000000000000000D+00 0.000000000000000D+00 -.000000000000000D+00
 0.760049701190521D+03 0.000000000000000D+00 0.000000000000000D+00 0.760049701190521D+03
 0.154760187895110D+04 0.000000000000000D+00 0.000000000000000D+00 -.154760187895110D+04
 0.796996810737185D+03 0.138057709590186D+03 -.776736746268238D+03 0.671473067262329D+02
 0.125281343502312D+03 0.691594537783296D+02 0.104085458581422D+03 0.886579351905520D+01
 0.107021125701161D+03 0.984521037691962D+02 0.264986840488379D+02 -.325349712377776D+02
 0.144768586408294D+03 0.182645655800368D+02 -.102072279335942D+03 -.434781290075105D+02
 0.113358371379266D+04 -.323933832717749D+03 0.748224882973919D+03 -.787552177760575D+03
0.613890303481D-05 0.000000000000D+00 0.000000000000D+00 0.224883820204D-06 0.000000000000D+00  7 1 -1 23 -11 11 23 21 0 0.50458762D-01 0.83689144D-01 0.17010694D+06 0.17010694D+06 0.17010694D+06 0.11032664D+01  1  2  2  2  7  2       -1 0.875070024585D-04 0.100000000000D+01
-.340814420407D-06 0.000000000000D+00 -.235750040640D-07 0.224883820204D-06 0.000000000000D+00  7 1 -1 23 -11 11 23 21 2 0.50458762D-01 0.83689144D-01 0.17010694D+06 0.17010694D+06 0.17010694D+06 0.11032664D+01  1  2  3  2  7  2       -1 -.591331171327D-05 0.100000000000D+01
0.390221050344D-06 0.000000000000D+00 0.000000000000D+00 0.224883820204D-06 0.000000000000D+00  7 1 -1 23 -11 11 23 21 2 0.50458762D-01 0.83689144D-01 0.17010694D+06 0.17010694D+06 0.17010694D+06 0.11032664D+01  1  2 15  2  7  2       -1 0.677054305686D-05 0.100000000000D+01
0.134808700013D-05 0.000000000000D+00 -.232030904305D-05 0.224883820204D-06 0.000000000000D+00  7 1 -1 23 -11 11 23 21 2 0.50458762D-01 0.40200945D+00 0.17010694D+06 0.17010694D+06 0.17010694D+06 0.11032664D+01  1  2  5  2  7  2       -1 0.396759784414D-07 0.100000000000D+01
0.208877426678D-06 0.000000000000D+00 -.442652867544D-06 0.224883820204D-06 0.000000000000D+00  7 1 21 23 -11 11 23 1 2 0.50458762D-01 0.40200945D+00 0.17010694D+06 0.17010694D+06 0.17010694D+06 0.11032664D+01  1  2  5  4  7  2       -1 0.100088793916D-06 0.100000000000D+01
  </mgrwgt>
  </event>
  <event>
  8     66 0.24912036E-05 0.16780509E+03 0.75467711E-02 0.10891443E+00
        1 -1    0    0  501    0 0.00000000E+00 0.00000000E+00 0.19887352E+04 0.19887352E+04 0.32000000E+00 0.0000E+00 0.9000E+01
       -1 -1    0    0    0  501 0.00000000E+00 0.00000000E+00 -.19861133E+02 0.19863711E+02 0.32000000E+00 0.0000E+00 0.9000E+01
       25  2    1    2    0    0 -.16312672E+02 -.12622314E+02 0.13955949E+04 0.14274636E+04 0.29923530E+03 0.0000E+00 0.0000E+00
       23  2    1    2    0    0 0.16312672E+02 0.12622314E+02 0.57327916E+03 0.58113534E+03 0.92972336E+02 0.0000E+00 0.0000E+00
       23  1    3    3    0    0 -.11297881E+03 -.25646643E+01 0.45865170E+03 0.48108983E+03 0.91188000E+02 0.0000E+00 0.9000E+01
      -13  1    4    4    0    0 0.12723296E+02 -.20329858E+02 0.38696439E+02 0.45525937E+02 0.10565837E+00 0.0000E+00 0.9000E+01
       13  1    4    4    0    0 0.35893754E+01 0.32952172E+02 0.53458272E+03 0.53560940E+03 0.10565837E+00 0.0000E+00 0.9000E+01
       23  1    3    3    0    0 0.96666137E+02 -.10057650E+02 0.93694319E+03 0.94637376E+03 0.91188000E+02 0.0000E+00 0.9000E+01
#aMCatNLO 1  0  0  2  1 0.81533650D+03 0.00000000D+00  -5  7  0 0.00000000D+00 0.00000000D+00 0.00000000D+00 0.00000000D+00 0.00000000D+00
  <mgrwgt>
 0.2646133568D-05    1    2    0
 0.198748960583859D+03 0.000000000000000D+00 0.000000000000000D+00 0.198748960583859D+03
 0.198748960583859D+03 0.000000000000000D+00 0.000000000000000D+00 -.198748960583859D+03
 0.159219451257070D+03 -.112979294926608D+03 -.256579224747249D+01 -.653045017026529D+02
 0.383763355831781D+02 0.127243598620832D+02 -.203290992366641D+02 -.299593311527272D+02
 0.586149583646670D+02 0.359097715873908D+01 0.329534757755418D+02 0.483413556020912D+02
 0.141287175962803D+03 0.966639579057855D+02 -.100585842914052D+02 0.469224772532889D+02
 0.000000000000000D+00 -.000000000000000D+00 0.000000000000000D+00 -.000000000000000D+00
 0.256582714193855D+03 0.000000000000000D+00 0.000000000000000D+00 0.256582714193855D+03
 0.461553714037311D+03 0.000000000000000D+00 0.000000000000000D+00 -.461553714037311D+03
 0.136799739459747D+03 -.630053709029594D+02 -.465248607413654D+02 -.653045017026529D+02
 0.533472242393154D+02 0.282091201529552D+02 -.339501156274491D+02 -.299593311527272D+02
 0.558254464471556D+02 0.229107924769717D+02 0.159589911226725D+02 0.483413556020912D+02
 0.193854474603529D+03 0.153242530876023D+03 -.598273669731179D+02 0.469224772532889D+02
 0.278309543481419D+03 -.141357072602990D+03 0.124343352219260D+03 -.204970999843456D+03
0.144111543071D-07 0.000000000000D+00 0.000000000000D+00 0.225314149935D-07 0.000000000000D+00  7 1 -1 23 -13 13 23 21 2 0.30595946D+00 0.30557592D-02 0.28158548D+05 0.28158548D+05 0.28158548D+05 0.11698971D+01  1  2 14  2  7  2       -1 0.264613356789D-05 0.100000000000D+01
  </mgrwgt>
  </event>
  <event>
  8     66 0.24912036E-05 0.20866932E+03 0.75467711E-02 0.98780796E-01
        1 -1    0    0  501    0 0.00000000E+00 0.00000000E+00 0.14813581E+04 0.14813582E+04 0.32000000E+00 0.0000E+00 0.9000E+01
       -1 -1    0    0    0  501 0.00000000E+00 0.00000000E+00 -.47216152E+02 0.47217236E+02 0.32000000E+00 0.0000E+00 0.9000E+01
       25  2    1    2    0    0 -.16328777E+02 0.15889495E+03 0.10393518E+04 0.10935168E+04 0.30002113E+03 0.0000E+00 0.0000E+00
       23  2    1    2    0    0 0.16328777E+02 -.15889495E+03 0.39479017E+03 0.43505855E+03 0.88895629E+02 0.0000E+00 0.0000E+00
       23  1    3    3    0    0 -.38071585E+02 0.10097319E+03 0.92113158E+03 0.93190325E+03 0.91188000E+02 0.0000E+00 0.9000E+01
      -13  1    4    4    0    0 0.61923528E+01 -.15481047E+03 0.39481803E+03 0.42412960E+03 0.10565837E+00 0.0000E+00 0.9000E+01
       13  1    4    4    0    0 0.10136424E+02 -.40844807E+01 -.27864764E-01 0.10928953E+02 0.10565837E+00 0.0000E+00 0.9000E+01
       23  1    3    3    0    0 0.21742808E+02 0.57921756E+02 0.11822022E+03 0.16161358E+03 0.91188000E+02 0.0000E+00 0.9000E+01
#aMCatNLO 1  0  0  1  2 0.22543639D+03 0.00000000D+00  -5  7  0 0.00000000D+00 0.00000000D+00 0.00000000D+00 0.00000000D+00 0.00000000D+00
  <mgrwgt>
 0.3313709759D-03    3    2    0
 0.264470952504129D+03 0.000000000000000D+00 0.000000000000000D+00 0.264470952504129D+03
 0.264470952504129D+03 0.000000000000000D+00 0.000000000000000D+00 -.264470952504129D+03
 0.195580872700278D+03 -.380715850605090D+02 0.100973193203994D+03 0.135246423565919D+03
 0.155194829353793D+03 0.619234754940540D+01 -.154810681436949D+03 -.898569991752378D+01
 0.316586717842477D+02 0.101364294459699D+02 -.408426862215918D+01 -.297126748552136D+02
 0.146507531169939D+03 0.217428080651337D+02 0.579217568551143D+02 -.965480487931812D+02
 0.000000000000000D+00 0.000000000000000D+00 -.000000000000000D+00 -.000000000000000D+00
 0.332018803299862D+03 0.000000000000000D+00 0.000000000000000D+00 0.332018803299862D+03
 0.572816854014694D+03 0.000000000000000D+00 0.000000000000000D+00 -.572816854014694D+03
 0.252447435713455D+03 -.108797966879411D+03 0.159015294138122D+03 0.135246423565919D+03
 0.124805262276684D+03 -.380088625484557D+02 -.118536648580584D+03 -.898569991752378D+01
 0.299702745583237D+02 0.407596896183318D+00 0.389976599552901D+01 -.297126748552136D+02
 0.167756249358925D+03 -.278673163759559D+02 0.986346531762835D+02 -.965480487931812D+02
 0.329856435407168D+03 0.174266548907639D+03 -.143013064729351D+03 -.240798050714832D+03
0.408137650859D-05 0.000000000000D+00 0.000000000000D+00 0.822228009676D-07 0.000000000000D+00  7 1 -1 23 -13 13 23 21 0 0.22790133D+00 0.72641094D-02 0.43542886D+05 0.43542886D+05 0.43542886D+05 0.11526154D+01  1  2  2  1  7  1        1 0.327027182395D-03 0.100000000000D+01
-.211260630992D-06 0.000000000000D+00 -.156735604441D-07 0.822228009676D-07 0.000000000000D+00  7 1 -1 23 -13 13 23 21 2 0.22790133D+00 0.72641094D-02 0.43542886D+05 0.43542886D+05 0.43542886D+05 0.11526154D+01  1  2  3  1  7  1        1 -.224887114806D-04 0.100000000000D+01
0.252066550325D-06 0.000000000000D+00 0.000000000000D+00 0.822228009676D-07 0.000000000000D+00  7 1 -1 23 -13 13 23 21 2 0.22790133D+00 0.72641094D-02 0.43542886D+05 0.43542886D+05 0.43542886D+05 0.11526154D+01  1  2 15  1  7  1        1 0.268325049373D-04 0.100000000000D+01
  </mgrwgt>
  </event>
  <event>
  8     66 0.24912036E-05 0.29421562E+03 0.75467711E-02 0.97067845E-01
        1 -1    0    0  501    0 0.00000000E+00 0.00000000E+00 0.67337249E+03 0.67337257E+03 0.32000000E+00 0.0000E+00 0.9000E+01
       -1 -1    0    0    0  501 0.00000000E+00 0.00000000E+00 -.15920285E+03 0.15920317E+03 0.32000000E+00 0.0000E+00 0.9000E+01
       25  2    1    2    0    0 0.75670582E+00 0.22040623E+03 0.15839426E+03 0.40437648E+03 0.29975342E+03 0.0000E+00 0.0000E+00
       23  2    1    2    0    0 -.75670582E+00 -.22040623E+03 0.35577538E+03 0.42819926E+03 0.90548357E+02 0.0000E+00 0.0000E+00
       23  1    3    3    0    0 0.99337328E+02 0.18531760E+03 0.69252948E+02 0.23941959E+03 0.91188000E+02 0.0000E+00 0.9000E+01
      -11  1    4    4    0    0 0.10142375E+01 -.14512603E+02 0.94153696E+02 0.95270997E+02 0.51099893E-03 0.0000E+00 0.9000E+01
       11  1    4    4    0    0 -.17709433E+01 -.20589363E+03 0.26162168E+03 0.33292826E+03 0.51099893E-03 0.0000E+00 0.9000E+01
       23  1    3    3    0    0 -.98580622E+02 0.35088636E+02 0.89141313E+02 0.16495689E+03 0.91188000E+02 0.0000E+00 0.9000E+01
#aMCatNLO 1  0  0  2  2 0.19864658D+03 0.00000000D+00  -5  7  0 0.00000000D+00 0.00000000D+00 0.00000000D+00 0.00000000D+00 0.00000000D+00
  <mgrwgt>
 0.3284756887D-03    4    2    0
 0.327418668652136D+03 0.000000000000000D+00 0.000000000000000D+00 0.327418668652136D+03
 0.327418668652136D+03 0.000000000000000D+00 0.000000000000000D+00 -.327418668652136D+03
 0.250027243873389D+03 0.993373278690367D+02 0.185317595516273D+03 -.999392586465904D+02
 0.472015665669688D+02 0.101423751028669D+01 -.145126032928637D+02 0.449037142596542D+02
 0.217871000672721D+03 -.177094333264178D+01 -.205893627797438D+03 0.712211396023355D+02
 0.139737526191193D+03 -.985806220466816D+02 0.350886355740288D+02 -.161855952153994D+02
 0.000000000000000D+00 -.000000000000000D+00 -.000000000000000D+00 0.000000000000000D+00
 0.505967439072252D+03 0.000000000000000D+00 0.000000000000000D+00 0.505967439072252D+03
 0.402373132637732D+03 0.000000000000000D+00 0.000000000000000D+00 -.402373132637732D+03
 0.324109401294000D+03 0.126048347834228D+03 0.266187173343469D+03 -.999392586465904D+02
 0.452417740398482D+02 0.531505324358268D+01 -.149156728909236D+01 0.449037142596542D+02
 0.168199481314618D+03 0.161905235744712D+02 -.151513965477232D+03 0.712211396023355D+02
 0.146753662091928D+03 -.852519625463795D+02 0.754421326773415D+02 -.161855952153994D+02
 0.224036252969591D+03 -.623019621059025D+02 -.188623773254487D+03 0.103594306434520D+03
0.822318369986D-05 0.000000000000D+00 0.000000000000D+00 0.554996269364D-06 0.000000000000D+00  7 1 -1 23 -11 11 23 21 0 0.10359580D+00 0.24492777D-01 0.86562830D+05 0.86562830D+05 0.86562830D+05 0.11269013D+01  1  2  2  2  7  2       -1 0.397920864956D-03 0.100000000000D+01
-.450492832040D-06 0.000000000000D+00 -.315791906214D-07 0.554996269364D-06 0.000000000000D+00  7 1 -1 23 -11 11 23 21 2 0.10359580D+00 0.24492777D-01 0.86562830D+05 0.86562830D+05 0.86562830D+05 0.11269013D+01  1  2  3  2  7  2       -1 -.276832041858D-04 0.100000000000D+01
0.544471717215D-06 0.000000000000D+00 0.000000000000D+00 0.554996269364D-06 0.000000000000D+00  7 1 -1 23 -11 11 23 21 2 0.10359580D+00 0.24492777D-01 0.86562830D+05 0.86562830D+05 0.86562830D+05 0.11269013D+01  1  2 15  2  7  2       -1 0.334582942259D-04 0.100000000000D+01
-.122407039943D-05 0.000000000000D+00 0.000000000000D+00 0.554996269364D-06 0.000000000000D+00  7 1 -1 23 -11 11 23 21 2 0.10359580D+00 0.24492777D-01 0.86562830D+05 0.86562830D+05 0.86562830D+05 0.11269013D+01  1  2  4  2  7  2       -1 -.752202663287D-04 0.100000000000D+01
  </mgrwgt>
  </event>
  <event>
  8     66 0.24912036E-05 0.44841172E+03 0.75467711E-02 0.86318819E-01
        1 -1    0    0  501    0 0.00000000E+00 0.00000000E+00 0.20190436E+04 0.20190437E+04 0.32000000E+00 0.0000E+00 0.9000E+01
       -1 -1    0    0    0  501 0.00000000E+00 0.00000000E+00 -.90168031E+03 0.90168037E+03 0.32000000E+00 0.0000E+00 0.9000E+01
       25  2    1    2    0    0 -.80728229E+03 0.50367533E+03 -.44235884E+03 0.10912915E+04 0.29973707E+03 0.0000E+00 0.0000E+00
       23  2    1    2    0    0 0.80728229E+03 -.50367533E+03 0.15597222E+04 0.18294325E+04 0.93255171E+02 0.0000E+00 0.0000E+00
       23  1    3    3    0    0 -.36314028E+03 0.34360077E+03 -.15572328E+03 0.53150479E+03 0.91188000E+02 0.0000E+00 0.9000E+01
      -11  1    4    4    0    0 0.43968320E+02 -.10364372E+02 0.10263030E+03 0.11213212E+03 0.51099893E-03 0.0000E+00 0.9000E+01
       11  1    4    4    0    0 0.76331397E+03 -.49331095E+03 0.14570919E+04 0.17173004E+04 0.51099893E-03 0.0000E+00 0.9000E+01
       23  1    3    3    0    0 -.44414201E+03 0.16007455E+03 -.28663556E+03 0.55978673E+03 0.91188000E+02 0.0000E+00 0.9000E+01
#aMCatNLO 1  0  0  2  1 0.27620146D+03 0.00000000D+00  -5  7  0 0.00000000D+00 0.00000000D+00 0.00000000D+00 0.00000000D+00 0.00000000D+00
  <mgrwgt>
 0.4576277024D-03    9    2    0
 0.134927091859800D+04 0.000000000000000D+00 0.000000000000000D+00 0.134927091859800D+04
 0.134927091859800D+04 0.000000000000000D+00 0.000000000000000D+00 -.134927091859800D+04
 0.639744872983274D+03 -.363140283666376D+03 0.343600770858176D+03 -.388620503587700D+03
 0.788691288809311D+02 0.439683199671119D+02 -.103643720526345D+02 0.646506467226830D+02
 0.125536667225571D+04 0.763313974716910D+03 -.493310953528255D+03 0.865991663320893D+03
 0.724561163076083D+03 -.444142011017646D+03 0.160074554722714D+03 -.542021806455876D+03
 0.000000000000000D+00 -.000000000000000D+00 -.000000000000000D+00 -.000000000000000D+00
 0.141932566510308D+04 0.000000000000000D+00 0.000000000000000D+00 0.141932566510308D+04
 0.165901968697147D+04 0.000000000000000D+00 0.000000000000000D+00 -.165901968697147D+04
 0.671780117768417D+03 -.352311807086013D+03 0.409662995722067D+03 -.388620503587700D+03
 0.789622585191731D+02 0.452714392322115D+02 -.241431949661750D+01 0.646506467226830D+02
 0.122473600430949D+04 0.783790697569662D+03 -.368386837053064D+03 0.865991663320893D+03
 0.737161531354587D+03 -.432073441928044D+03 0.233702319354775D+03 -.542021806455876D+03
 0.365705440122877D+03 -.446768877878154D+02 -.272564158527160D+03 -.239694021868388D+03
0.221061851487D-02 0.000000000000D+00 0.000000000000D+00 0.681836293186D-05 0.000000000000D+00  7 1 -1 23 -11 11 23 21 0 0.31062210D+00 0.13872005D+00 0.94384677D+06 0.94384677D+06 0.94384677D+06 0.10495388D+01  1  2  2  2  7  2       -1 0.330962420336D-03 0.100000000000D+01
-.106702417044D-03 0.000000000000D+00 -.848935716633D-05 0.681836293186D-05 0.000000000000D+00  7 1 -1 23 -11 11 23 21 2 0.31062210D+00 0.13872005D+00 0.94384677D+06 0.94384677D+06 0.94384677D+06 0.10495388D+01  1  2  3  2  7  2       -1 -.175968979802D-04 0.100000000000D+01
0.137200131710D-03 0.000000000000D+00 0.000000000000D+00 0.681836293186D-05 0.000000000000D+00  7 1 -1 23 -11 11 23 21 2 0.31062210D+00 0.13872005D+00 0.94384677D+06 0.94384677D+06 0.94384677D+06 0.10495388D+01  1  2 15  2  7  2       -1 0.226264482799D-04 0.100000000000D+01
0.315597037688D-02 0.000000000000D+00 0.000000000000D+00 0.681836293186D-05 0.000000000000D+00  7 1 -1 23 -11 11 23 21 2 0.31062210D+00 0.17357227D+00 0.12489911D+07 0.12489911D+07 0.12489911D+07 0.10414962D+01  1  2 12  2  7  2       -1 0.254969314356D-03 0.100000000000D+01
-.337327410326D-02 0.000000000000D+00 0.000000000000D+00 0.681836293186D-05 0.000000000000D+00  7 1 -1 23 -11 11 23 21 2 0.31062210D+00 0.13872005D+00 0.94384677D+06 0.94384677D+06 0.94384677D+06 0.10495388D+01  1  2  4  2  7  2       -1 -.556305676094D-03 0.100000000000D+01
-.498372364516D-02 0.000000000000D+00 -.122201356246D-02 0.681836293186D-05 0.000000000000D+00  7 1 -1 23 -11 11 23 21 2 0.31062210D+00 0.17529847D+00 0.94384677D+06 0.94384677D+06 0.94384677D+06 0.10495388D+01  1  2  5  2  7  2       -1 -.405736664391D-03 0.100000000000D+01
0.516046428077D-02 0.000000000000D+00 0.118929516342D-02 0.681836293186D-05 0.000000000000D+00  7 1 -1 23 -11 11 23 21 2 0.31062210D+00 0.13872005D+00 0.94384677D+06 0.94384677D+06 0.94384677D+06 0.10495388D+01  1  2  6  2  7  2       -1 0.851041297799D-03 0.100000000000D+01
0.984708372923D-04 0.000000000000D+00 0.000000000000D+00 0.681836293186D-05 0.000000000000D+00  7 1 21 23 -11 11 23 1 2 0.31062210D+00 0.17357227D+00 0.12489911D+07 0.12489911D+07 0.12489911D+07 0.10414962D+01  1  2 12  4  7  2       -1 0.478190526934D-04 0.100000000000D+01
-.142244874332D-03 0.000000000000D+00 -.393814512860D-04 0.681836293186D-05 0.000000000000D+00  7 1 21 23 -11 11 23 1 2 0.31062210D+00 0.17529847D+00 0.94384677D+06 0.94384677D+06 0.94384677D+06 0.10495388D+01  1  2  5  4  7  2       -1 -.701515925888D-04 0.100000000000D+01
  </mgrwgt>
  </event>
  <event>
  8     66 0.24912036E-05 0.18301311E+03 0.75467711E-02 0.10022762E+00
        1 -1    0    0  501    0 0.00000000E+00 0.00000000E+00 0.57382343E+03 0.57382352E+03 0.32000000E+00 0.0000E+00 0.9000E+01
       -1 -1    0    0    0  501 0.00000000E+00 0.00000000E+00 -.70977002E+02 0.70977724E+02 0.32000000E+00 0.0000E+00 0.9000E+01
       25  2    1    2    0    0 -.37816304E+02 0.11483253E+01 0.35906215E+03 0.46927756E+03 0.29977393E+03 0.0000E+00 0.0000E+00
       23  2    1    2    0    0 0.37816304E+02 -.11483253E+01 0.14378428E+03 0.17552368E+03 0.93291222E+02 0.0000E+00 0.0000E+00
       23  1    3    3    0    0 0.78575480E+02 -.26471763E+01 0.57565264E+02 0.13345458E+03 0.91188000E+02 0.0000E+00 0.9000E+01
      -11  1    4    4    0    0 -.16521326E+02 0.30606958E+02 0.72635370E+02 0.80533453E+02 0.51099893E-03 0.0000E+00 0.9000E+01
       11  1    4    4    0    0 0.54337630E+02 -.31755283E+02 0.71148909E+02 0.94990227E+02 0.51099893E-03 0.0000E+00 0.9000E+01
       23  1    3    3    0    0 -.11639178E+03 0.37955016E+01 0.30149688E+03 0.33582298E+03 0.91188000E+02 0.0000E+00 0.9000E+01
#aMCatNLO 1  0  0  1  1 0.20833949D+03 0.00000000D+00  -5  7  0 0.00000000D+00 0.00000000D+00 0.00000000D+00 0.00000000D+00 0.00000000D+00
  <mgrwgt>
 0.3613129165D-03    3    2    0
 0.201813101843345D+03 0.000000000000000D+00 0.000000000000000D+00 0.201813101843345D+03
 0.201813101843345D+03 0.000000000000000D+00 0.000000000000000D+00 -.201813101843345D+03
 0.141480383836755D+03 0.785754783068895D+02 -.264717622997251D+01 -.742989524384203D+02
 0.381631169230983D+02 -.165213249819931D+02 0.306069575952193D+02 0.157061599663918D+02
 0.631099822434240D+02 0.543376319978413D+02 -.317552830159263D+02 -.467906061201245D+01
 0.160872720683412D+03 -.116391785322738D+03 0.379550165067955D+01 0.632718530840410D+02
 0.000000000000000D+00 0.000000000000000D+00 0.000000000000000D+00 -.000000000000000D+00
 0.270042271490936D+03 0.000000000000000D+00 0.000000000000000D+00 0.270042271490936D+03
 0.479878582436132D+03 0.000000000000000D+00 0.000000000000000D+00 -.479878582436132D+03
 0.144592519412996D+03 0.513715417628490D+02 -.665760894740664D+02 -.742989524384203D+02
 0.317493565753831D+02 -.231696110345494D+02 0.149835678851409D+02 0.157061599663918D+02
 0.751215061560905D+02 0.411925889123532D+02 -.626459711206278D+02 -.467906061201245D+01
 0.202760632628960D+03 -.150971287807704D+03 -.774659000147217D+02 0.632718530840410D+02
 0.295696839153639D+03 0.815767681670515D+02 0.191704392724275D+03 -.209836310945196D+03
0.164746337955D-05 0.000000000000D+00 0.000000000000D+00 0.231099217387D-07 0.000000000000D+00  7 1 -1 23 -11 11 23 21 0 0.88280590D-01 0.10919601D-01 0.33493797D+05 0.33493797D+05 0.33493797D+05 0.11629228D+01  1  2  2  1  7  1        1 0.356834799452D-03 0.100000000000D+01
-.904616917138D-07 0.000000000000D+00 -.632669316454D-08 0.231099217387D-07 0.000000000000D+00  7 1 -1 23 -11 11 23 21 2 0.88280590D-01 0.10919601D-01 0.33493797D+05 0.33493797D+05 0.33493797D+05 0.11629228D+01  1  2  3  1  7  1        1 -.264982941596D-04 0.100000000000D+01
0.105749394308D-06 0.000000000000D+00 0.000000000000D+00 0.231099217387D-07 0.000000000000D+00  7 1 -1 23 -11 11 23 21 2 0.88280590D-01 0.10919601D-01 0.33493797D+05 0.33493797D+05 0.33493797D+05 0.11629228D+01  1  2 15  1  7  1        1 0.309764111691D-04 0.100000000000D+01
  </mgrwgt>
  </event>
  <event>
  8     66 0.24912036E-05 0.19422770E+03 0.75467711E-02 0.10503727E+00
        1 -1    0    0  501    0 0.00000000E+00 0.00000000E+00 0.21936618E+03 0.21936642E+03 0.32000000E+00 0.0000E+00 0.9000E+01
       -1 -1    0    0    0  501 0.00000000E+00 0.00000000E+00 -.18394032E+03 0.18394060E+03 0.32000000E+00 0.0000E+00 0.9000E+01
       25  2    1    2    0    0 0.12596843E+02 0.98724889E+01 -.57201552E+01 0.30146164E+03 0.30098215E+03 0.0000E+00 0.0000E+00
       23  2    1    2    0    0 -.12596843E+02 -.98724889E+01 0.41146016E+02 0.10184538E+03 0.91778756E+02 0.0000E+00 0.0000E+00
       23  1    3    3    0    0 0.11225743E+03 0.56075719E+02 0.19984862E+02 0.15639969E+03 0.91188000E+02 0.0000E+00 0.9000E+01
      -11  1    4    4    0    0 0.21469283E+02 0.30782993E+02 0.29005510E+02 0.47432503E+02 0.51099893E-03 0.0000E+00 0.9000E+01
       11  1    4    4    0    0 -.34066126E+02 -.40655482E+02 0.12140506E+02 0.54412875E+02 0.51099893E-03 0.0000E+00 0.9000E+01
       23  1    3    3    0    0 -.99660586E+02 -.46203231E+02 -.25705017E+02 0.14506195E+03 0.91188000E+02 0.0000E+00 0.9000E+01
#aMCatNLO 1  0  0  2  2 0.47237602D+02 0.00000000D+00  -5  7  0 0.00000000D+00 0.00000000D+00 0.00000000D+00 0.00000000D+00 0.00000000D+00
  <mgrwgt>
 0.1750144617D-03    4    2    0
 0.200874065826872D+03 0.000000000000000D+00 0.000000000000000D+00 0.200874065826872D+03
 0.200874065826872D+03 0.000000000000000D+00 0.000000000000000D+00 -.200874065826872D+03
 0.155244314584465D+03 0.112257433602927D+03 0.560757230098170D+02 0.627118462581667D+01
 0.450588645412185D+02 0.214692750797257D+02 0.307829843502140D+02 0.249355043219387D+02
 0.535534721871308D+02 -.340661270210756D+02 -.406554802384381D+02 0.738953988173171D+01
 0.147891480340929D+03 -.996605816615772D+02 -.462032271215929D+02 -.385962288294871D+02
 0.000000000000000D+00 0.000000000000000D+00 0.000000000000000D+00 0.000000000000000D+00
 0.272712855875986D+03 0.000000000000000D+00 0.000000000000000D+00 0.272712855875986D+03
 0.210175637948255D+03 0.000000000000000D+00 0.000000000000000D+00 -.210175637948255D+03
 0.142245562151533D+03 0.997380438976131D+02 0.439493282163939D+02 0.627118462581667D+01
 0.410378226790241D+02 0.178460325295151D+02 0.272734786450332D+02 0.249355043219387D+02
 0.601253504026562D+02 -.388501199987788D+02 -.452892993703697D+02 0.738953988173171D+01
 0.161106965726077D+03 -.112664291256987D+03 -.587987385678126D+02 -.385962288294871D+02
 0.783727928649510D+02 0.339303348286380D+02 0.328652310767552D+02 0.625372179277310D+02
0.116601524650D-05 0.000000000000D+00 0.000000000000D+00 0.197974022375D-07 0.000000000000D+00  7 1 -1 23 -11 11 23 21 0 0.33748683D-01 0.28298551D-01 0.37724399D+05 0.37724399D+05 0.37724399D+05 0.11582151D+01  1  2  2  2  7  2       -1 0.200723376124D-03 0.100000000000D+01
-.646894574425D-07 0.000000000000D+00 -.447780556542D-08 0.197974022375D-07 0.000000000000D+00  7 1 -1 23 -11 11 23 21 2 0.33748683D-01 0.28298551D-01 0.37724399D+05 0.37724399D+05 0.37724399D+05 0.11582151D+01  1  2  3  2  7  2       -1 -.149384546174D-04 0.100000000000D+01
0.743618510094D-07 0.000000000000D+00 0.000000000000D+00 0.197974022375D-07 0.000000000000D+00  7 1 -1 23 -11 11 23 21 2 0.33748683D-01 0.28298551D-01 0.37724399D+05 0.37724399D+05 0.37724399D+05 0.11582151D+01  1  2 15  2  7  2       -1 0.171720583305D-04 0.100000000000D+01
-.121002230890D-06 0.000000000000D+00 0.000000000000D+00 0.197974022375D-07 0.000000000000D+00  7 1 -1 23 -11 11 23 21 2 0.33748683D-01 0.28298551D-01 0.37724399D+05 0.37724399D+05 0.37724399D+05 0.11582151D+01  1  2  4  2  7  2       -1 -.279425180889D-04 0.100000000000D+01
  </mgrwgt>
  </event>
  <event>
  7     66 0.24912036E-05 0.23066800E+03 0.75467711E-02 0.94909416E-01
        1 -1    0    0  501    0 0.00000000E+00 0.00000000E+00 0.57300874E+03 0.57300883E+03 0.32000000E+00 0.0000E+00 0.9000E+01
       -1 -1    0    0    0  501 0.00000000E+00 0.00000000E+00 -.14603594E+03 0.14603629E+03 0.32000000E+00 0.0000E+00 0.9000E+01
       23  2    1    2    0    0 -.10712128E+03 0.13549674E+03 0.89127488E+01 0.19608375E+03 0.92385425E+02 0.0000E+00 0.0000E+00
       23  1    1    2    0    0 0.10330711E+03 -.10784654E+03 0.38348979E+03 0.42152450E+03 0.91188000E+02 0.0000E+00 0.9000E+01
      -11  1    3    3    0    0 -.10751927E+02 0.78072376E+02 -.17737047E+02 0.80780584E+02 0.51099893E-03 0.0000E+00 0.9000E+01
       11  1    3    3    0    0 -.96369351E+02 0.57424364E+02 0.26649796E+02 0.11530317E+03 0.51099893E-03 0.0000E+00 0.9000E+01
       23  1    1    2    0    0 0.38141729E+01 -.27650196E+02 0.34570259E+02 0.10143685E+03 0.91188000E+02 0.0000E+00 0.9000E+01
#aMCatNLO 1  0  0  1  2 0.39458186D+03 0.00000000D+00  -5  7  0 0.00000000D+00 0.00000000D+00 0.00000000D+00 0.00000000D+00 0.00000000D+00
  <mgrwgt>
 0.3503940471D-03    3    2    0
 0.289275000108126D+03 0.000000000000000D+00 0.000000000000000D+00 0.289275000108126D+03
 0.289275000108126D+03 0.000000000000000D+00 0.000000000000000D+00 -.289275000108126D+03
 0.240870148254494D+03 0.103307105673751D+03 -.107846544557971D+03 0.165529277532283D+03
 0.113487375421081D+03 -.107519271744386D+02 0.780723764959646D+02 -.816607890622739D+02
 0.123635715416078D+03 -.963693513631773D+02 0.574243641950443D+02 -.519728837094957D+02
 0.100556761124600D+03 0.381417286386534D+01 -.276501961330375D+02 -.318956047605138D+02
 0.000000000000000D+00 0.000000000000000D+00 -.000000000000000D+00 -.000000000000000D+00
 0.374173649479952D+03 0.000000000000000D+00 0.000000000000000D+00 0.374173649479952D+03
 0.197024896681691D+04 0.000000000000000D+00 0.000000000000000D+00 -.197024896681691D+04
 0.197891404253121D+03 0.555940827064812D+02 0.188444363390684D+02 0.165529277532283D+03
 0.189783526768155D+03 -.437310508892685D+02 0.165640869806959D+03 -.816607890622739D+02
 0.209468833620067D+03 -.132592728064780D+03 0.153607226657504D+03 -.519728837094957D+02
 0.103152561011914D+03 -.183381499871157D+02 0.311702125646870D+02 -.318956047605138D+02
 0.164412629064360D+04 0.139067846234683D+03 -.369262745368218D+03 -.159607531733696D+04
0.489819750458D-05 0.000000000000D+00 0.000000000000D+00 0.580345296758D-10 0.000000000000D+00  7 1 -1 23 -11 11 23 21 0 0.88155224D-01 0.22467101D-01 0.53207728D+05 0.53207728D+05 0.53207728D+05 0.11449276D+01  1  2  2  1  7  1        1 0.345288584386D-03 0.100000000000D+01
-.255163416363D-06 0.000000000000D+00 -.188103681426D-07 0.580345296758D-10 0.000000000000D+00  7 1 -1 23 -11 11 23 21 2 0.88155224D-01 0.22467101D-01 0.53207728D+05 0.53207728D+05 0.53207728D+05 0.11449276D+01  1  2  3  1  7  1        1 -.235787293504D-04 0.100000000000D+01
0.310413523194D-06 0.000000000000D+00 0.000000000000D+00 0.580345296758D-10 0.000000000000D+00  7 1 -1 23 -11 11 23 21 2 0.88155224D-01 0.22467101D-01 0.53207728D+05 0.53207728D+05 0.53207728D+05 0.11449276D+01  1  2 15  1  7  1        1 0.286841920931D-04 0.100000000000D+01
  </mgrwgt>
  </event>
  <event>
  8     66 0.24912036E-05 0.16705413E+03 0.75467711E-02 0.10073958E+00
        1 -1    0    0  501    0 0.00000000E+00 0.00000000E+00 0.16449541E+04 0.16449541E+04 0.32000000E+00 0.0000E+00 0.9000E+01
       -1 -1    0    0    0  501 0.00000000E+00 0.00000000E+00 -.77541701E+02 0.77542361E+02 0.32000000E+00 0.0000E+00 0.9000E+01
       25  2    1    2    0    0 -.93839651E+01 -.17327645E+02 0.15968102E+04 0.16248150E+04 0.29972121E+03 0.0000E+00 0.0000E+00
       23  2    1    2    0    0 0.93839651E+01 0.17327645E+02 -.29397796E+02 0.97681453E+02 0.91044658E+02 0.0000E+00 0.0000E+00
       23  1    3    3    0    0 -.11062667E+03 0.15614010E+02 0.54715997E+03 0.56584569E+03 0.91188000E+02 0.0000E+00 0.9000E+01
      -13  1    4    4    0    0 0.41769436E+01 -.15717137E+02 0.27342695E+02 0.31813667E+02 0.10565837E+00 0.0000E+00 0.9000E+01
       13  1    4    4    0    0 0.52070215E+01 0.33044783E+02 -.56740491E+02 0.65867786E+02 0.10565837E+00 0.0000E+00 0.9000E+01
       23  1    3    3    0    0 0.10124271E+03 -.32941655E+02 0.10496502E+04 0.10589693E+04 0.91188000E+02 0.0000E+00 0.9000E+01
#aMCatNLO 1  0  0  1  1 0.20794212D+03 0.00000000D+00  -5  7  0 0.00000000D+00 0.00000000D+00 0.00000000D+00 0.00000000D+00 0.00000000D+00
  <mgrwgt>
 0.1329356207D-03    7    2    0
 0.357145815813640D+03 0.000000000000000D+00 0.000000000000000D+00 0.357145815813640D+03
 0.357145815813640D+03 0.000000000000000D+00 0.000000000000000D+00 -.357145815813640D+03
 0.163857290148495D+03 -.110626674367299D+03 0.156140096794558D+02 0.777939702738548D+02
 0.167178126736195D+02 0.417694214214874D+01 -.157172028370179D+02 -.387400953940591D+01
 0.283347904399185D+03 0.520702293367898D+01 0.330448481380688D+02 -.281366237937514D+03
 0.250368624405981D+03 0.101242709291471D+03 -.329416549805067D+02 0.207446277203065D+03
 0.000000000000000D+00 -.000000000000000D+00 0.000000000000000D+00 0.000000000000000D+00
 0.519115032547084D+03 0.000000000000000D+00 0.000000000000000D+00 0.519115032547084D+03
 0.445437694330203D+03 0.000000000000000D+00 0.000000000000000D+00 -.445437694330203D+03
 0.159291650257422D+03 -.100712737549642D+03 -.293874323822359D+02 0.777939702738548D+02
 0.221418149553414D+02 0.536912272794076D+01 -.211287609844374D+02 -.387400953940591D+01
 0.286041958793488D+03 0.226754234836415D+02 -.462478919426919D+02 -.281366237937514D+03
 0.276468430892534D+03 0.117405625601422D+03 -.106308527823065D+03 0.207446277203065D+03
 0.220608871978502D+03 -.447374342633617D+02 0.203072613132430D+03 0.736773382168812D+02
0.515894841988D-05 0.000000000000D+00 0.000000000000D+00 0.118735278146D-05 0.000000000000D+00  7 1 -1 23 -13 13 23 21 0 0.25306991D+00 0.11929546D-01 0.27907084D+05 0.27907084D+05 0.27907084D+05 0.11702612D+01  1  2  2  1  7  1        1 0.154092772530D-03 0.100000000000D+01
-.854217869192D-07 0.000000000000D+00 -.198117203147D-07 0.118735278146D-05 0.000000000000D+00  7 1 -1 23 -13 13 23 21 2 0.25306991D+00 0.11929546D-01 0.27907084D+05 0.27907084D+05 0.27907084D+05 0.11702612D+01  1  2  3  1  7  1        1 -.349426076764D-05 0.100000000000D+01
0.305354350352D-06 0.000000000000D+00 0.000000000000D+00 0.118735278146D-05 0.000000000000D+00  7 1 -1 23 -13 13 23 21 2 0.25306991D+00 0.11929546D-01 0.27907084D+05 0.27907084D+05 0.27907084D+05 0.11702612D+01  1  2 15  1  7  1        1 0.124908148746D-04 0.100000000000D+01
-.216357207300D-05 0.000000000000D+00 0.000000000000D+00 0.118735278146D-05 0.000000000000D+00  7 1 -1 23 -13 13 23 21 2 0.25306991D+00 0.11929546D-01 0.27907084D+05 0.27907084D+05 0.27907084D+05 0.11702612D+01  1  2  4  1  7  1        1 -.885030070816D-04 0.100000000000D+01
-.904123323688D-06 0.000000000000D+00 -.161274268448D-05 0.118735278146D-05 0.000000000000D+00  7 1 -1 23 -13 13 23 21 2 0.40290649D+00 0.11929546D-01 0.27907084D+05 0.27907084D+05 0.27907084D+05 0.11702612D+01  1  2  5  1  7  1        1 -.855947857458D-05 0.100000000000D+01
0.163414602707D-05 0.000000000000D+00 0.145279922093D-05 0.118735278146D-05 0.000000000000D+00  7 1 -1 23 -13 13 23 21 2 0.25306991D+00 0.11929546D-01 0.27907084D+05 0.27907084D+05 0.27907084D+05 0.11702612D+01  1  2  6  1  7  1        1 0.668463228987D-04 0.100000000000D+01
0.186480550706D-07 0.000000000000D+00 -.859347028278D-07 0.118735278146D-05 0.000000000000D+00  7 21 -1 23 -13 13 23 -1 2 0.40290649D+00 0.11929546D-01 0.27907084D+05 0.27907084D+05 0.27907084D+05 0.11702612D+01  1  2  5  3  7  1        1 0.624568467651D-07 0.100000000000D+01
  </mgrwgt>
  </event>
  <event>
  8     66 0.24912036E-05 0.36615103E+03 0.75467711E-02 0.91167677E-01
        1 -1    0    0  501    0 0.00000000E+00 0.00000000E+00 0.70364448E+03 0.70364455E+03 0.32000000E+00 0.0000E+00 0.9000E+01
       -1 -1    0    0    0  501 0.00000000E+00 0.00000000E+00 -.21092496E+03 0.21092520E+03 0.32000000E+00 0.0000E+00 0.9000E+01
       25  2    1    2    0    0 -.28894812E+03 0.12488078E+03 0.21089574E+03 0.48281841E+03 0.29924970E+03 0.0000E+00 0.0000E+00
       23  2    1    2    0    0 0.28894812E+03 -.12488078E+03 0.28182378E+03 0.43175134E+03 0.88872668E+02 0.0000E+00 0.0000E+00
       23  1    3    3    0    0 -.25997973E+03 0.33980177E+02 0.21447127E+03 0.35079522E+03 0.91188000E+02 0.0000E+00 0.9000E+01
      -13  1    4    4    0    0 0.16934422E+03 -.34509413E+02 0.18567089E+03 0.25365736E+03 0.10565837E+00 0.0000E+00 0.9000E+01
       13  1    4    4    0    0 0.11960390E+03 -.90371370E+02 0.96152892E+02 0.17809398E+03 0.10565837E+00 0.0000E+00 0.9000E+01
       23  1    3    3    0    0 -.28968387E+02 0.90900606E+02 -.35755273E+01 0.13202319E+03 0.91188000E+02 0.0000E+00 0.9000E+01
#aMCatNLO 1  0  0  1  1 0.49623922D+03 0.00000000D+00  -5  7  0 0.00000000D+00 0.00000000D+00 0.00000000D+00 0.00000000D+00 0.00000000D+00
  <mgrwgt>
 0.7646004964D-04    5    2    0
 0.385248396915097D+03 0.000000000000000D+00 0.000000000000000D+00 0.385248396915097D+03
 0.385248396915097D+03 0.000000000000000D+00 0.000000000000000D+00 -.385248396915097D+03
 0.279238696474932D+03 -.259979729835054D+03 0.339801770173598D+02 0.302470810125571D+02
 0.182354696838112D+03 0.169344287967650D+03 -.345093343639139D+02 0.581794932378135D+02
 0.149907085354420D+03 0.119603828711718D+03 -.903714490872416D+02 0.244104132806434D+00
 0.158996315162731D+03 -.289683868443134D+02 0.909006064337958D+02 -.886706783831770D+02
 0.000000000000000D+00 0.000000000000000D+00 0.000000000000000D+00 0.000000000000000D+00
 0.816197773040127D+03 0.000000000000000D+00 0.000000000000000D+00 0.816197773040127D+03
 0.630218097396629D+03 0.000000000000000D+00 0.000000000000000D+00 -.630218097396629D+03
 0.401564820733235D+03 -.365277792616679D+03 -.136368259568793D+03 0.302470810125571D+02
 0.178461866738891D+03 0.113537753183600D+03 -.124791678602945D+03 0.581794932378135D+02
 0.187314273321835D+03 0.674467012885060D+02 -.174749878078809D+03 0.244104132806434D+00
 0.149129811543776D+03 -.766254324007921D+02 0.138022915322424D+02 -.886706783831770D+02
 0.529945098099019D+03 0.260918770545365D+03 0.422107524718304D+03 0.185979675643498D+03
0.267399511628D-05 0.000000000000D+00 0.000000000000D+00 0.338802091178D-07 0.000000000000D+00  7 1 -1 23 -13 13 23 21 0 0.10825302D+00 0.32450018D-01 0.13406657D+06 0.13406657D+06 0.13406657D+06 0.11114213D+01  1  2  2  1  7  1        1 0.755029106034D-04 0.100000000000D+01
-.148088386114D-06 0.000000000000D+00 -.102688453256D-07 0.338802091178D-07 0.000000000000D+00  7 1 -1 23 -13 13 23 21 2 0.10825302D+00 0.32450018D-01 0.13406657D+06 0.13406657D+06 0.13406657D+06 0.11114213D+01  1  2  3  1  7  1        1 -.516513296035D-05 0.100000000000D+01
0.169518455940D-06 0.000000000000D+00 0.000000000000D+00 0.338802091178D-07 0.000000000000D+00  7 1 -1 23 -13 13 23 21 2 0.10825302D+00 0.32450018D-01 0.13406657D+06 0.13406657D+06 0.13406657D+06 0.11114213D+01  1  2 15  1  7  1        1 0.591258630835D-05 0.100000000000D+01
0.243856798986D-07 0.000000000000D+00 -.822818375506D-06 0.338802091178D-07 0.000000000000D+00  7 1 -1 23 -13 13 23 21 2 0.30615167D+00 0.32450018D-01 0.13406657D+06 0.13406657D+06 0.13406657D+06 0.11114213D+01  1  2  5  1  7  1        1 0.102563021440D-06 0.100000000000D+01
0.481501299302D-07 0.000000000000D+00 -.962441024602D-07 0.338802091178D-07 0.000000000000D+00  7 21 -1 23 -13 13 23 -1 2 0.30615167D+00 0.32450018D-01 0.13406657D+06 0.13406657D+06 0.13406657D+06 0.11114213D+01  1  2  5  3  7  1        1 0.107122666607D-06 0.100000000000D+01
  </mgrwgt>
  </event>
  <event>
  8     66 0.24912036E-05 0.23348548E+03 0.75467711E-02 0.87375489E-01
        1 -1    0    0  501    0 0.00000000E+00 0.00000000E+00 0.93294845E+02 0.93295394E+02 0.32000000E+00 0.0000E+00 0.9000E+01
       -1 -1    0    0    0  501 0.00000000E+00 0.00000000E+00 -.66484697E+03 0.66484704E+03 0.32000000E+00 0.0000E+00 0.9000E+01
       25  2    1    2    0    0 0.20349457E+02 -.13672725E+03 -.33615625E+03 0.47093864E+03 0.29945574E+03 0.0000E+00 0.0000E+00
       23  2    1    2    0    0 -.20349457E+02 0.13672725E+03 -.23539587E+03 0.28720379E+03 0.89254481E+02 0.0000E+00 0.0000E+00
       23  1    3    3    0    0 -.63477361E+02 0.33489922E+02 -.15207126E+03 0.19129002E+03 0.91188000E+02 0.0000E+00 0.9000E+01
      -11  1    4    4    0    0 -.25807214E+02 0.99703498E+02 -.22638469E+03 0.24871033E+03 0.51099893E-03 0.0000E+00 0.9000E+01
       11  1    4    4    0    0 0.54577571E+01 0.37023750E+02 -.90111751E+01 0.38493460E+02 0.51099893E-03 0.0000E+00 0.9000E+01
       23  1    3    3    0    0 0.83826818E+02 -.17021717E+03 -.18408499E+03 0.27964863E+03 0.91188000E+02 0.0000E+00 0.9000E+01
#aMCatNLO 1  0  0  1  2 0.94528514D+03 0.00000000D+00  -5  7  0 0.00000000D+00 0.00000000D+00 0.00000000D+00 0.00000000D+00 0.00000000D+00
  <mgrwgt>
 0.2130361347D-03    3    2    0
 0.249052267214595D+03 0.000000000000000D+00 0.000000000000000D+00 0.249052267214595D+03
 0.249052267214595D+03 0.000000000000000D+00 0.000000000000000D+00 -.249052267214595D+03
 0.116659100198930D+03 -.634773611210090D+02 0.334899220117626D+02 -.119642828444925D+02
 0.118784715454858D+03 -.258072140424734D+02 0.997034975428075D+02 -.591862222716481D+02
 0.482492477726666D+02 0.545775707433479D+01 0.370237498551207D+02 0.304539774908168D+02
 0.214411471002736D+03 0.838268180891477D+02 -.170217169409691D+03 0.406965276253239D+02
 0.000000000000000D+00 0.000000000000000D+00 -.000000000000000D+00 -.000000000000000D+00
 0.823327711581336D+03 0.000000000000000D+00 0.000000000000000D+00 0.823327711581336D+03
 0.130700415529280D+04 0.000000000000000D+00 0.000000000000000D+00 -.130700415529280D+04
 0.386358794827145D+03 -.336924382540864D+03 0.165217079570360D+03 -.119642828444925D+02
 0.381047906621647D+03 -.297522679966825D+03 0.230596515887186D+03 -.591862222716481D+02
 0.124662427292414D+03 -.885392616854316D+02 0.823047700538914D+02 0.304539774908168D+02
 0.176421456886868D+03 -.128635006949250D+03 -.678683043289904D+02 0.406965276253239D+02
 0.106184128124606D+04 0.851621331142371D+03 -.410250061182446D+03 -.483676443711460D+03
0.431932399072D-05 0.000000000000D+00 0.000000000000D+00 0.625431196940D-07 0.000000000000D+00  7 1 -1 23 -11 11 23 21 0 0.14353101D-01 0.10228420D+00 0.54515471D+05 0.54515471D+05 0.54515471D+05 0.11440071D+01  1  2  2  1  7  1        1 0.210954453729D-03 0.100000000000D+01
-.238747037912D-06 0.000000000000D+00 -.165873414285D-07 0.625431196940D-07 0.000000000000D+00  7 1 -1 23 -11 11 23 21 2 0.14353101D-01 0.10228420D+00 0.54515471D+05 0.54515471D+05 0.54515471D+05 0.11440071D+01  1  2  3  1  7  1        1 -.152604855421D-04 0.100000000000D+01
0.271314492341D-06 0.000000000000D+00 0.000000000000D+00 0.625431196940D-07 0.000000000000D+00  7 1 -1 23 -11 11 23 21 2 0.14353101D-01 0.10228420D+00 0.54515471D+05 0.54515471D+05 0.54515471D+05 0.11440071D+01  1  2 15  1  7  1        1 0.173421665205D-04 0.100000000000D+01
  </mgrwgt>
  </event>
  <event>
  9     66 -.24912036E-05 0.22316260E+03 0.75467711E-02 0.10402762E+00
        1 -1    0    0  501    0 0.00000000E+00 0.00000000E+00 0.81025635E+02 0.81026267E+02 0.32000000E+00 0.0000E+00 0.9000E+01
       -1 -1    0    0    0  502 0.00000000E+00 0.00000000E+00 -.80294706E+03 0.80294713E+03 0.32000000E+00 0.0000E+00 0.9000E+01
       25  2    1    2    0    0 0.59235121E+02 0.87077376E+02 -.38043399E+03 0.49593062E+03 0.30020974E+03 0.0000E+00 0.0000E+00
       23  2    1    2    0    0 -.65343033E+02 -.11100800E+03 -.30948554E+03 0.34761178E+03 0.91979156E+02 0.0000E+00 0.0000E+00
       23  1    3    3    0    0 -.10823146E+02 -.55223242E+02 -.24773983E+03 0.26992040E+03 0.91188000E+02 0.0000E+00 0.9000E+01
      -11  1    4    4    0    0 -.18849758E+02 0.13595026E+02 -.68894138E+02 0.72708599E+02 0.51099893E-03 0.0000E+00 0.9000E+01
       11  1    4    4    0    0 -.46493275E+02 -.12460302E+03 -.24059140E+03 0.27490318E+03 0.51099893E-03 0.0000E+00 0.9000E+01
       23  1    3    3    0    0 0.70058267E+02 0.14230062E+03 -.13269416E+03 0.22601022E+03 0.91188000E+02 0.0000E+00 0.9000E+01
       21  1    1    2  501  502 0.61079116E+01 0.23930623E+02 -.32001895E+02 0.40430992E+02 0.75000000E+00 0.0000E+00 0.9000E+01
#aMCatNLO 2  0  0  2  1 0.24697799D+02 0.00000000D+00  -5  7  0 0.00000000D+00 0.00000000D+00 0.00000000D+00 0.00000000D+00 0.00000000D+00
  <mgrwgt>
 -.9612411022D-04    3    2    0
 0.242365860527602D+03 0.000000000000000D+00 0.000000000000000D+00 0.242365860527602D+03
 0.242365860527602D+03 0.000000000000000D+00 0.000000000000000D+00 -.242365860527602D+03
 0.114251076092704D+03 -.936737815277012D+01 -.495195844562547D+02 -.468841127266343D+02
 0.289058439307691D+02 -.184887255548072D+02 0.150095403573807D+02 -.163837889076112D+02
 0.129221954751831D+03 -.448247448508792D+02 -.118065772570941D+03 -.273775306805531D+02
 0.212352846279900D+03 0.726808485584565D+02 0.152575816669815D+03 0.906454323147985D+02
 0.000000000000000D+00 0.000000000000000D+00 0.000000000000000D+00 0.000000000000000D+00
 0.255990119713885D+03 0.000000000000000D+00 0.000000000000000D+00 0.255990119713885D+03
 0.254137568594240D+03 0.000000000000000D+00 0.000000000000000D+00 -.254137568594240D+03
 0.116962037892217D+03 -.108231461854403D+02 -.552232418858705D+02 -.468841127266343D+02
 0.284353062750727D+02 -.188497579027892D+02 0.135950259651927D+02 -.163837889076112D+02
 0.135783163654614D+03 -.464932746899577D+02 -.124603024660300D+03 -.273775306805531D+02
 0.204180000125056D+03 0.700582672009259D+02 0.142300618074325D+03 0.906454323147985D+02
 0.247671803611641D+02 0.610791157726130D+01 0.239306225066523D+02 0.185255111964479D+01
-.699577708136D-05 0.000000000000D+00 0.000000000000D+00 0.147653269914D-06 0.000000000000D+00  7 1 -1 23 -11 11 23 21 2 0.11801835D-01 0.12667098D+00 0.55470426D+05 0.55470426D+05 0.55470426D+05 0.11433502D+01  1  2 13  2  7  2       -1 -.349993236292D-03 0.100000000000D+01
-.462314090861D-08 0.000000000000D+00 0.000000000000D+00 0.147653269914D-06 0.000000000000D+00  7 1 -1 23 -11 11 23 21 2 0.11801835D-01 0.11780579D+00 0.49801547D+05 0.49801547D+05 0.49801547D+05 0.11474473D+01  1  2  8  2  7  2       -1 -.278263820193D-06 0.100000000000D+01
0.513068320325D-05 0.000000000000D+00 0.000000000000D+00 0.147653269914D-06 0.169674824116D-08  7 1 -1 23 -11 11 23 21 2 0.12465258D-01 0.12352762D+00 0.55470426D+05 0.55470426D+05 0.55470426D+05 0.11433502D+01  1  2  1  2  7  2       -1 0.254147389893D-03 0.100000000000D+01
  </mgrwgt>
  </event>
  <event>
  8     66 0.24912036E-05 0.29801953E+03 0.75467711E-02 0.98558729E-01
        1 -1    0    0  501    0 0.00000000E+00 0.00000000E+00 0.20491788E+04 0.20491788E+04 0.32000000E+00 0.0000E+00 0.9000E+01
       -1 -1    0    0    0  501 0.00000000E+00 0.00000000E+00 -.54090653E+02 0.54091599E+02 0.32000000E+00 0.0000E+00 0.9000E+01
       25  2    1    2    0    0 0.61719446E+02 -.21998326E+03 0.15421796E+04 0.15876845E+04 0.30037018E+03 0.0000E+00 0.0000E+00
       23  2    1    2    0    0 -.61719446E+02 0.21998326E+03 0.45290854E+03 0.51558591E+03 0.92199564E+02 0.0000E+00 0.0000E+00
       23  1    3    3    0    0 -.19822558E+02 0.83699250E+01 0.20164839E+03 0.22235178E+03 0.91188000E+02 0.0000E+00 0.9000E+01
      -13  1    4    4    0    0 0.11877029E+02 0.59973776E+00 0.87518135E+01 0.14765802E+02 0.10565837E+00 0.0000E+00 0.9000E+01
       13  1    4    4    0    0 -.73596475E+02 0.21938353E+03 0.44415673E+03 0.50082011E+03 0.10565837E+00 0.0000E+00 0.9000E+01
       23  1    3    3    0    0 0.81542004E+02 -.22835319E+03 0.13405312E+04 0.13653327E+04 0.91188000E+02 0.0000E+00 0.9000E+01
#aMCatNLO 1  0  0  1  1 0.11159636D+03 0.00000000D+00  -5  7  0 0.00000000D+00 0.00000000D+00 0.00000000D+00 0.00000000D+00 0.00000000D+00
  <mgrwgt>
 0.2718326033D-03    4    2    0
 0.332930082317464D+03 0.000000000000000D+00 0.000000000000000D+00 0.332930082317464D+03
 0.332930082317464D+03 0.000000000000000D+00 0.000000000000000D+00 -.332930082317464D+03
 0.981581602070902D+02 -.198225581121848D+02 0.836992453277644D+01 -.292708664792396D+02
 0.204181507776380D+02 0.118771410722189D+02 0.599450710182516D+00 -.165974413683265D+02
 0.251146580800642D+03 -.735965868805711D+02 0.219383814248274D+03 -.976160309235262D+02
 0.296137272849557D+03 0.815420039205370D+02 -.228353189491233D+03 0.143484338771092D+03
 0.000000000000000D+00 -.000000000000000D+00 -.000000000000000D+00 -.000000000000000D+00
 0.366729209773025D+03 0.000000000000000D+00 0.000000000000000D+00 0.366729209773025D+03
 0.444360086987033D+03 0.000000000000000D+00 0.000000000000000D+00 -.444360086987033D+03
 0.987026759518299D+02 -.101681712092144D+02 0.216053596560338D+02 -.292708664792396D+02
 0.219571671390745D+02 0.139552980194649D+02 0.344844689478316D+01 -.165974413683265D+02
 0.277085559513743D+03 -.476911932193231D+02 0.254898151988394D+03 -.976160309235262D+02
 0.277401623403608D+03 0.109669317185938D+03 -.189792767824145D+03 0.143484338771092D+03
 0.135942270751802D+03 -.657652507768653D+02 -.901591907150665D+02 -.776308772140082D+02
0.126455975154D-04 0.000000000000D+00 0.000000000000D+00 0.323376328536D-06 0.000000000000D+00  7 1 -1 23 -13 13 23 21 0 0.31525835D+00 0.83217136D-02 0.88815642D+05 0.88815642D+05 0.88815642D+05 0.11259737D+01  1  2  2  1  7  1        1 0.347695993120D-03 0.100000000000D+01
-.692051780841D-06 0.000000000000D+00 -.485624241215D-07 0.323376328536D-06 0.000000000000D+00  7 1 -1 23 -13 13 23 21 2 0.31525835D+00 0.83217136D-02 0.88815642D+05 0.88815642D+05 0.88815642D+05 0.11259737D+01  1  2  3  1  7  1        1 -.241243405851D-04 0.100000000000D+01
0.802620000109D-06 0.000000000000D+00 0.000000000000D+00 0.323376328536D-06 0.000000000000D+00  7 1 -1 23 -13 13 23 21 2 0.31525835D+00 0.83217136D-02 0.88815642D+05 0.88815642D+05 0.88815642D+05 0.11259737D+01  1  2 15  1  7  1        1 0.279786553248D-04 0.100000000000D+01
-.228685129091D-05 0.000000000000D+00 0.000000000000D+00 0.323376328536D-06 0.000000000000D+00  7 1 -1 23 -13 13 23 21 2 0.31525835D+00 0.83217136D-02 0.88815642D+05 0.88815642D+05 0.88815642D+05 0.11259737D+01  1  2  4  1  7  1        1 -.797177045657D-04 0.100000000000D+01
  </mgrwgt>
  </event>
  <event>
  8     66 0.24912036E-05 0.25286752E+03 0.75467711E-02 0.94380569E-01
        1 -1    0    0  501    0 0.00000000E+00 0.00000000E+00 0.11703781E+04 0.11703782E+04 0.32000000E+00 0.0000E+00 0.9000E+01
       -1 -1    0    0    0  501 0.00000000E+00 0.00000000E+00 -.27411641E+03 0.27411660E+03 0.32000000E+00 0.0000E+00 0.9000E+01
       25  2    1    2    0    0 -.42297639E+03 -.10917750E+03 0.11163956E+03 0.54189723E+03 0.30060016E+03 0.0000E+00 0.0000E+00
       23  2    1    2    0    0 0.42297639E+03 0.10917750E+03 0.78462215E+03 0.90259753E+03 0.90673267E+02 0.0000E+00 0.0000E+00
       23  1    3    3    0    0 -.15872954E+03 0.65172532E+02 0.85379294E+00 0.19431548E+03 0.91188000E+02 0.0000E+00 0.9000E+01
      -13  1    4    4    0    0 0.74990626E+02 0.41776434E+02 0.10102690E+03 0.13257191E+03 0.10565837E+00 0.0000E+00 0.9000E+01
       13  1    4    4    0    0 0.34798577E+03 0.67401065E+02 0.68359524E+03 0.77002563E+03 0.10565837E+00 0.0000E+00 0.9000E+01
       23  1    3    3    0    0 -.26424685E+03 -.17435003E+03 0.11078576E+03 0.34758175E+03 0.91188000E+02 0.0000E+00 0.9000E+01
#aMCatNLO 1  0  0  1  2 0.56064477D+02 0.00000000D+00  -5  7  0 0.00000000D+00 0.00000000D+00 0.00000000D+00 0.00000000D+00 0.00000000D+00
  <mgrwgt>
 0.2748052380D-03    9    2    0
 0.566409761345885D+03 0.000000000000000D+00 0.000000000000000D+00 0.566409761345885D+03
 0.566409761345885D+03 0.000000000000000D+00 0.000000000000000D+00 -.566409761345885D+03
 0.247102440979562D+03 -.158729537932451D+03 0.651725316772758D+02 -.152649401887407D+03
 0.891159962673184D+02 0.749902556308977D+02 0.417763990671011D+02 0.239343859774098D+02
 0.441039616075137D+03 0.347986137257509D+03 0.674011000260759D+02 0.262447486060693D+03
 0.355561469369754D+03 -.264246854955955D+03 -.174350030770453D+03 -.133732470150696D+03
 0.000000000000000D+00 -.000000000000000D+00 0.000000000000000D+00 0.000000000000000D+00
 0.634301609815326D+03 0.000000000000000D+00 0.000000000000000D+00 0.634301609815326D+03
 0.578796801303452D+03 0.000000000000000D+00 0.000000000000000D+00 -.578796801303452D+03
 0.239072729701672D+03 -.148698856547551D+03 0.585433933751399D+02 -.152649401887407D+03
 0.911813702600545D+02 0.787101194726453D+02 0.393179926113660D+02 0.239343859774098D+02
 0.454108194370953D+03 0.366454670865249D+03 0.551955021384125D+02 0.262447486060693D+03
 0.349843725995353D+03 -.249693057911886D+03 -.183968433521396D+03 -.133732470150696D+03
 0.788923907907461D+02 -.467728758784568D+02 0.309115453964772D+02 0.555048085118740D+02
0.210542646280D-04 0.000000000000D+00 0.000000000000D+00 0.147672959211D-05 0.000000000000D+00  7 1 -1 23 -13 13 23 21 0 0.18005819D+00 0.42171774D-01 0.23235402D+06 0.23235402D+06 0.23235402D+06 0.10928587D+01  1  2  2  1  7  1        1 0.158030395323D-03 0.100000000000D+01
-.113267584355D-05 0.000000000000D+00 -.808539198869D-07 0.147672959211D-05 0.000000000000D+00  7 1 -1 23 -13 13 23 21 2 0.18005819D+00 0.42171774D-01 0.23235402D+06 0.23235402D+06 0.23235402D+06 0.10928587D+01  1  2  3  1  7  1        1 -.101539317880D-04 0.100000000000D+01
0.130344006670D-05 0.000000000000D+00 0.000000000000D+00 0.147672959211D-05 0.000000000000D+00  7 1 -1 23 -13 13 23 21 2 0.18005819D+00 0.42171774D-01 0.23235402D+06 0.23235402D+06 0.23235402D+06 0.10928587D+01  1  2 15  1  7  1        1 0.116847565897D-04 0.100000000000D+01
0.703878600295D-04 0.000000000000D+00 0.000000000000D+00 0.147672959211D-05 0.000000000000D+00  7 1 -1 23 -13 13 23 21 2 0.20345450D+00 0.42171774D-01 0.26107260D+06 0.26107260D+06 0.26107260D+06 0.10890460D+01  1  2 12  1  7  1        1 0.488015895232D-03 0.100000000000D+01
-.714634690720D-04 0.000000000000D+00 0.000000000000D+00 0.147672959211D-05 0.000000000000D+00  7 1 -1 23 -13 13 23 21 2 0.18005819D+00 0.42171774D-01 0.23235402D+06 0.23235402D+06 0.23235402D+06 0.10928587D+01  1  2  4  1  7  1        1 -.640638002849D-03 0.100000000000D+01
-.131776367202D-03 0.000000000000D+00 -.209853952766D-04 0.147672959211D-05 0.000000000000D+00  7 1 -1 23 -13 13 23 21 2 0.20373702D+00 0.42171774D-01 0.23235402D+06 0.23235402D+06 0.23235402D+06 0.10928587D+01  1  2  5  1  7  1        1 -.921688764753D-03 0.100000000000D+01
0.133507996839D-03 0.000000000000D+00 0.208262409424D-04 0.147672959211D-05 0.000000000000D+00  7 1 -1 23 -13 13 23 21 2 0.18005819D+00 0.42171774D-01 0.23235402D+06 0.23235402D+06 0.23235402D+06 0.10928587D+01  1  2  6  1  7  1        1 0.119683941418D-02 0.100000000000D+01
0.135569942071D-05 0.000000000000D+00 0.000000000000D+00 0.147672959211D-05 0.000000000000D+00  7 21 -1 23 -13 13 23 -1 2 0.20345450D+00 0.42171774D-01 0.26107260D+06 0.26107260D+06 0.26107260D+06 0.10890460D+01  1  2 12  3  7  1        1 0.871499688327D-05 0.100000000000D+01
-.245979686491D-05 0.000000000000D+00 -.408029742258D-06 0.147672959211D-05 0.000000000000D+00  7 21 -1 23 -13 13 23 -1 2 0.20373702D+00 0.42171774D-01 0.23235402D+06 0.23235402D+06 0.23235402D+06 0.10928587D+01  1  2  5  3  7  1        1 -.159995208070D-04 0.100000000000D+01
  </mgrwgt>
  </event>
  <event>
  8     66 0.24912036E-05 0.17282515E+03 0.75467711E-02 0.92352270E-01
        1 -1    0    0  501    0 0.00000000E+00 0.00000000E+00 0.31363040E+03 0.31363057E+03 0.32000000E+00 0.0000E+00 0.9000E+01
       -1 -1    0    0    0  501 0.00000000E+00 0.00000000E+00 -.15910570E+03 0.15910602E+03 0.32000000E+00 0.0000E+00 0.9000E+01
       25  2    1    2    0    0 -.23950555E+02 -.84254777E+02 0.15111167E+03 0.34774370E+03 0.30069661E+03 0.0000E+00 0.0000E+00
       23  2    1    2    0    0 0.23950555E+02 0.84254777E+02 0.34130324E+01 0.12499288E+03 0.89101491E+02 0.0000E+00 0.0000E+00
       23  1    3    3    0    0 0.30933798E+02 0.31000295E+02 0.16144993E+03 0.19052362E+03 0.91188000E+02 0.0000E+00 0.9000E+01
      -11  1    4    4    0    0 0.80315558E+01 0.31440005E+02 -.42326892E+02 0.53334281E+02 0.51099893E-03 0.0000E+00 0.9000E+01
       11  1    4    4    0    0 0.15918999E+02 0.52814772E+02 0.45739924E+02 0.71658603E+02 0.51099893E-03 0.0000E+00 0.9000E+01
       23  1    3    3    0    0 -.54884353E+02 -.11525507E+03 -.10338262E+02 0.15722008E+03 0.91188000E+02 0.0000E+00 0.9000E+01
#aMCatNLO 1  0  0  2  2 0.58117466D+03 0.00000000D+00  -5  7  0 0.00000000D+00 0.00000000D+00 0.00000000D+00 0.00000000D+00 0.00000000D+00
  <mgrwgt>
 0.3470641094D-03    3    2    0
 0.223384197347204D+03 0.000000000000000D+00 0.000000000000000D+00 0.223384197347204D+03
 0.223384197347204D+03 0.000000000000000D+00 0.000000000000000D+00 -.223384197347204D+03
 0.145756692988041D+03 0.309337976776963D+02 0.310002950285358D+02 0.104937334043653D+03
 0.710739988852671D+02 0.803155579337029D+01 0.314400048032815D+02 -.632339586539587D+02
 0.600035625103928D+02 0.159189995097899D+02 0.528147722958476D+02 0.236138263710838D+02
 0.169934140310706D+03 -.548843529808564D+02 -.115255072127665D+03 -.653172017607782D+02
 0.000000000000000D+00 0.000000000000000D+00 0.000000000000000D+00 0.000000000000000D+00
 0.125339907188593D+04 0.000000000000000D+00 0.000000000000000D+00 0.125339907188593D+04
 0.461738324342823D+03 0.000000000000000D+00 0.000000000000000D+00 -.461738324342823D+03
 0.187766672657297D+03 -.235511444329114D+02 -.123994239932762D+03 0.104937334043653D+03
 0.745686457620176D+02 -.157608734029738D+02 -.362428513407284D+02 -.632339586539587D+02
 0.267701038240910D+02 0.174350635412585D+01 0.124894294690365D+02 0.236138263710838D+02
 0.443947087942863D+03 -.155169030546001D+03 -.400537140178666D+03 -.653172017607782D+02
 0.982084886042488D+03 0.192737542027760D+03 0.548284801983119D+03 0.791660747543109D+03
0.249333630886D-05 0.000000000000D+00 0.000000000000D+00 0.297691575543D-07 0.000000000000D+00  7 1 -1 23 -11 11 23 21 0 0.48250869D-01 0.24477837D-01 0.29868533D+05 0.29868533D+05 0.29868533D+05 0.11675129D+01  1  2  2  2  7  2       -1 0.342315165405D-03 0.100000000000D+01
-.127428307235D-06 0.000000000000D+00 -.957506793654D-08 0.297691575543D-07 0.000000000000D+00  7 1 -1 23 -11 11 23 21 2 0.48250869D-01 0.24477837D-01 0.29868533D+05 0.29868533D+05 0.29868533D+05 0.11675129D+01  1  2  3  2  7  2       -1 -.238470459171D-04 0.100000000000D+01
0.152804611629D-06 0.000000000000D+00 0.000000000000D+00 0.297691575543D-07 0.000000000000D+00  7 1 -1 23 -11 11 23 21 2 0.48250869D-01 0.24477837D-01 0.29868533D+05 0.29868533D+05 0.29868533D+05 0.11675129D+01  1  2 15  2  7  2       -1 0.285959899250D-04 0.100000000000D+01
  </mgrwgt>
  </event>
  <event>
  8     66 0.24912036E-05 0.53978840E+03 0.75467711E-02 0.87887402E-01
        1 -1    0    0  501    0 0.00000000E+00 0.00000000E+00 0.12045260E+04 0.12045261E+04 0.32000000E+00 0.0000E+00 0.9000E+01
       -1 -1    0    0    0  501 0.00000000E+00 0.00000000E+00 -.26655404E+03 0.26655423E+03 0.32000000E+00 0.0000E+00 0.9000E+01
       25  2    1    2    0    0 0.50588998E+03 0.13710565E+03 0.46268568E+03 0.75795953E+03 0.29274899E+03 0.0000E+00 0.0000E+00
       23  2    1    2    0    0 -.50588998E+03 -.13710565E+03 0.47528629E+03 0.71312076E+03 0.89002939E+02 0.0000E+00 0.0000E+00
       23  1    3    3    0    0 0.24296018E+03 0.67179971E+02 0.80198361E+02 0.27980319E+03 0.91188000E+02 0.0000E+00 0.9000E+01
      -13  1    4    4    0    0 -.11251695E+03 -.21416245E+02 0.59123259E+02 0.12889643E+03 0.10565837E+00 0.0000E+00 0.9000E+01
       13  1    4    4    0    0 -.39337303E+03 -.11568941E+03 0.41616303E+03 0.58422433E+03 0.10565837E+00 0.0000E+00 0.9000E+01
       23  1    3    3    0    0 0.26292981E+03 0.69925684E+02 0.38248732E+03 0.47815634E+03 0.91188000E+02 0.0000E+00 0.9000E+01
#aMCatNLO 1  0  0  2  1 0.64719648D+03 0.00000000D+00  -5  7  0 0.00000000D+00 0.00000000D+00 0.00000000D+00 0.00000000D+00 0.00000000D+00
  <mgrwgt>
 0.4373261000D-03    5    2    0
 0.566631669168248D+03 0.000000000000000D+00 0.000000000000000D+00 0.566631669168248D+03
 0.566631669168248D+03 0.000000000000000D+00 0.000000000000000D+00 -.566631669168248D+03
 0.296832278956622D+03 0.242960175747862D+03 0.671799709702980D+02 -.127480802427579D+03
 0.118384285082158D+03 -.112516553866258D+03 -.214161124674964D+02 -.299368366273841D+02
 0.413930360567171D+03 -.393373429444926D+03 -.115689542121533D+03 0.566711412424043D+02
 0.304116413730545D+03 0.262929807563321D+03 0.699256836187310D+02 0.100746497812559D+03
 0.000000000000000D+00 0.000000000000000D+00 0.000000000000000D+00 -.000000000000000D+00
 0.917612686562588D+03 0.000000000000000D+00 0.000000000000000D+00 0.917612686562588D+03
 0.104754526530318D+04 0.000000000000000D+00 0.000000000000000D+00 -.104754526530318D+04
 0.280377933718603D+03 0.216852290694124D+03 -.837870121525120D+02 -.127480802427579D+03
 0.159331022353187D+03 -.125077938202444D+03 -.940514214240409D+02 -.299368366273841D+02
 0.580060891560679D+03 -.438332802624930D+03 -.375663910711991D+03 0.566711412424043D+02
 0.285277690635593D+03 0.236270831006369D+03 -.842279468136393D+02 0.100746497812559D+03
 0.660110413597703D+03 0.110287619126882D+03 0.637730291102183D+03 -.129932578740589D+03
0.568028305058D-04 0.000000000000D+00 0.000000000000D+00 0.361982447642D-08 0.000000000000D+00  7 1 -1 23 -13 13 23 21 0 0.18531171D+00 0.41008332D-01 0.29137152D+06 0.29137152D+06 0.29137152D+06 0.10854908D+01  1  2  2  2  7  2       -1 0.419998323584D-03 0.100000000000D+01
-.314667547657D-05 0.000000000000D+00 -.218137825671D-06 0.361982447642D-08 0.000000000000D+00  7 1 -1 23 -13 13 23 21 2 0.18531171D+00 0.41008332D-01 0.29137152D+06 0.29137152D+06 0.29137152D+06 0.10854908D+01  1  2  3  2  7  2       -1 -.274145947978D-04 0.100000000000D+01
0.350837393293D-05 0.000000000000D+00 0.000000000000D+00 0.361982447642D-08 0.000000000000D+00  7 1 -1 23 -13 13 23 21 2 0.18531171D+00 0.41008332D-01 0.29137152D+06 0.29137152D+06 0.29137152D+06 0.10854908D+01  1  2 15  2  7  2       -1 0.305657988841D-04 0.100000000000D+01
0.435642635519D-05 0.000000000000D+00 -.175955319075D-04 0.361982447642D-08 0.000000000000D+00  7 1 -1 23 -13 13 23 21 2 0.18531171D+00 0.11927186D+00 0.29137152D+06 0.29137152D+06 0.29137152D+06 0.10854908D+01  1  2  5  2  7  2       -1 0.443417255820D-05 0.100000000000D+01
0.145500055685D-05 0.000000000000D+00 -.212486250950D-05 0.361982447642D-08 0.000000000000D+00  7 1 21 23 -13 13 23 1 2 0.18531171D+00 0.11927186D+00 0.29137152D+06 0.29137152D+06 0.29137152D+06 0.10854908D+01  1  2  5  4  7  2       -1 0.974239980490D-05 0.100000000000D+01
  </mgrwgt>
  </event>
  <event>
  8     66 0.24912036E-05 0.14209866E+03 0.75467711E-02 0.10336282E+00
        1 -1    0    0  501    0 0.00000000E+00 0.00000000E+00 0.89496643E+03 0.89496649E+03 0.32000000E+00 0.0000E+00 0.9000E+01
       -1 -1    0    0    0  501 0.00000000E+00 0.00000000E+00 -.80468174E+02 0.80468811E+02 0.32000000E+00 0.0000E+00 0.9000E+01
       25  2    1    2    0    0 0.41596354E+01 0.14113114E+03 0.69121069E+03 0.76718203E+03 0.30143117E+03 0.0000E+00 0.0000E+00
       23  2    1    2    0    0 -.41596354E+01 -.14113114E+03 0.12328757E+03 0.20825327E+03 0.90743036E+02 0.0000E+00 0.0000E+00
       23  1    3    3    0    0 -.62273922E+02 -.31738449E+02 0.15759942E+03 0.19503384E+03 0.91188000E+02 0.0000E+00 0.9000E+01
      -11  1    4    4    0    0 0.39291550E+02 -.50599263E+02 0.28332893E+02 0.70049013E+02 0.51099893E-03 0.0000E+00 0.9000E+01
       11  1    4    4    0    0 -.43451185E+02 -.90531878E+02 0.94954677E+02 0.13820426E+03 0.51099893E-03 0.0000E+00 0.9000E+01
       23  1    3    3    0    0 0.66433557E+02 0.17286959E+03 0.53361126E+03 0.57214819E+03 0.91188000E+02 0.0000E+00 0.9000E+01
#aMCatNLO 1  0  0  2  1 0.83943730D+01 0.00000000D+00  -5  7  0 0.00000000D+00 0.00000000D+00 0.00000000D+00 0.00000000D+00 0.00000000D+00
  <mgrwgt>
 0.1274048802D-03    8    2    0
 0.268359186681742D+03 0.000000000000000D+00 0.000000000000000D+00 0.268359186681742D+03
 0.268359186681742D+03 0.000000000000000D+00 0.000000000000000D+00 -.268359186681742D+03
 0.115290332717801D+03 -.622739218594375D+02 -.317384490936091D+02 -.955190973357629D+01
 0.843108592095685D+02 0.392915500749919D+02 -.505992629286778D+02 -.548106710817760D+02
 0.107074578990824D+03 -.434511854913246D+02 -.905318784507997D+02 -.371609866611516D+02
 0.230042602445290D+03 0.664335572757702D+02 0.172869590473087D+03 0.101523567476504D+03
 0.000000000000000D+00 -.000000000000000D+00 0.000000000000000D+00 0.000000000000000D+00
 0.273004167744253D+03 0.000000000000000D+00 0.000000000000000D+00 0.273004167744253D+03
 0.272211556244222D+03 0.000000000000000D+00 0.000000000000000D+00 -.272211556244222D+03
 0.114619572363036D+03 -.606341396936411D+02 -.324754853503194D+02 -.955190973357629D+01
 0.852061196548801D+02 0.405005928895843D+02 -.511426938848480D+02 -.548106710817760D+02
 0.107048306817894D+03 -.419240007912372D+02 -.912183052934230D+02 -.371609866611516D+02
 0.229910015274542D+03 0.697140688282548D+02 0.171395092210347D+03 0.101523567476504D+03
 0.843170987812232D+01 -.765652123296070D+01 0.344139231824347D+01 0.792611500031529D+00
0.832167285114D-06 0.000000000000D+00 0.000000000000D+00 0.269236027063D-07 0.000000000000D+00  7 1 -1 23 -11 11 23 21 0 0.13768720D+00 0.12379772D-01 0.59001542D+05 0.59001542D+05 0.59001542D+05 0.11410249D+01  1  2  2  2  7  2       -1 0.764919178616D-04 0.100000000000D+01
-.456731465014D-07 0.000000000000D+00 -.319574148951D-08 0.269236027063D-07 0.000000000000D+00  7 1 -1 23 -11 11 23 21 2 0.13768720D+00 0.12379772D-01 0.59001542D+05 0.59001542D+05 0.59001542D+05 0.11410249D+01  1  2  3  2  7  2       -1 -.546582926716D-05 0.100000000000D+01
0.547706821886D-07 0.000000000000D+00 0.000000000000D+00 0.269236027063D-07 0.000000000000D+00  7 1 -1 23 -11 11 23 21 2 0.13768720D+00 0.12379772D-01 0.59001542D+05 0.59001542D+05 0.59001542D+05 0.11410249D+01  1  2 15  2  7  2       -1 0.655455602735D-05 0.100000000000D+01
0.711318308393D-06 0.000000000000D+00 0.000000000000D+00 0.269236027063D-07 0.000000000000D+00  7 1 -1 23 -11 11 23 21 2 0.13768720D+00 0.12662950D-01 0.61138467D+05 0.61138467D+05 0.61138467D+05 0.11396909D+01  1  2 12  2  7  2       -1 0.820004242169D-04 0.100000000000D+01
-.501695037198D-06 0.000000000000D+00 0.000000000000D+00 0.269236027063D-07 0.000000000000D+00  7 1 -1 23 -11 11 23 21 2 0.13768720D+00 0.12379772D-01 0.59001542D+05 0.59001542D+05 0.59001542D+05 0.11410249D+01  1  2  4  2  7  2       -1 -.600392052564D-04 0.100000000000D+01
0.509145394701D-08 0.000000000000D+00 0.000000000000D+00 0.269236027063D-07 0.264796323517D-08  7 1 -1 23 -11 11 23 21 2 0.14007040D+00 0.12557488D-01 0.61138467D+05 0.61138467D+05 0.61138467D+05 0.11396909D+01  1  2 11  2  7  2       -1 0.578077418283D-06 0.100000000000D+01
0.174671678150D-07 0.000000000000D+00 0.000000000000D+00 0.269236027063D-07 0.000000000000D+00  7 1 21 23 -11 11 23 1 2 0.13768720D+00 0.12662950D-01 0.61138467D+05 0.61138467D+05 0.61138467D+05 0.11396909D+01  1  2 12  4  7  2       -1 0.272358085786D-04 0.100000000000D+01
0.319392605110D-10 0.000000000000D+00 0.000000000000D+00 0.269236027063D-07 0.715642586978D-11  7 1 21 23 -11 11 23 1 2 0.14007040D+00 0.12557488D-01 0.61138467D+05 0.61138467D+05 0.61138467D+05 0.11396909D+01  1  2 11  4  7  2       -1 0.491306238467D-07 0.100000000000D+01
  </mgrwgt>
  </event>
  <event>
  9     66 0.24912036E-05 0.31986708E+03 0.75467711E-02 0.95459175E-01
        1 -1    0    0  501    0 0.00000000E+00 0.00000000E+00 0.14118412E+04 0.14118413E+04 0.32000000E+00 0.0000E+00 0.9000E+01
       21 -1    0    0  502  501 0.00000000E+00 0.00000000E+00 -.31036126E+03 0.31036216E+03 0.75000000E+00 0.0000E+00 0.9000E+01
       25  2    1    2    0    0 -.42227512E+03 0.13246355E+03 0.11052012E+04 0.12277980E+04 0.30025894E+03 0.0000E+00 0.0000E+00
       23  2    1    2    0    0 0.18504807E+03 -.51807078E+02 0.81077786E+02 0.22988110E+03 0.96669288E+02 0.0000E+00 0.0000E+00
       23  1    3    3    0    0 -.22137805E+03 0.10291611E+03 0.32564556E+03 0.41708542E+03 0.91188000E+02 0.0000E+00 0.9000E+01
      -13  1    4    4    0    0 0.13070790E+03 -.17893819E+02 0.72316308E+01 0.13212513E+03 0.10565837E+00 0.0000E+00 0.9000E+01
       13  1    4    4    0    0 0.54340176E+02 -.33913260E+02 0.73846155E+02 0.97755970E+02 0.10565837E+00 0.0000E+00 0.9000E+01
       23  1    3    3    0    0 -.20089707E+03 0.29547443E+02 0.77955562E+03 0.81071259E+03 0.91188000E+02 0.0000E+00 0.9000E+01
        1  1    1    2  502    0 0.23722704E+03 -.80656475E+02 -.84799004E+02 0.26452431E+03 0.32000000E+00 0.0000E+00 0.9000E+01
#aMCatNLO 2  0  0  2  1 0.25056364D+03 0.00000000D+00  -5  7  0 0.00000000D+00 0.00000000D+00 0.00000000D+00 0.00000000D+00 0.00000000D+00
  <mgrwgt>
 0.6309350134D-04    2    2    0
 0.404595001384614D+03 0.000000000000000D+00 0.000000000000000D+00 0.404595001384614D+03
 0.404595001384614D+03 0.000000000000000D+00 0.000000000000000D+00 -.404595001384614D+03
 0.198782132795139D+03 -.155426420510659D+03 0.804927578986868D+02 -.237197956924511D+02
 0.267512185284796D+03 0.200137313554196D+03 -.414995620029219D+02 -.172585084386578D+03
 0.871498695353941D+02 0.761040821260775D+02 -.413129698581378D+02 -.982379586942132D+01
 0.255745815153899D+03 -.120814975169615D+03 0.231977396237296D+01 0.206128675948450D+03
 0.000000000000000D+00 0.000000000000000D+00 -.000000000000000D+00 -.000000000000000D+00
 0.452338668203859D+03 0.000000000000000D+00 0.000000000000000D+00 0.452338668203859D+03
 0.968702382817865D+03 0.000000000000000D+00 0.000000000000000D+00 -.968702382817865D+03
 0.261682719449205D+03 -.221378047126101D+03 0.102916110776078D+03 -.237197956924511D+02
 0.217233463556611D+03 0.130707988210416D+03 -.178938021131687D+02 -.172585084386578D+03
 0.648032569582325D+02 0.543400846945456D+02 -.339132767880111D+02 -.982379586942132D+01
 0.303375948930459D+03 -.200897069682859D+03 0.295474430371885D+02 0.206128675948450D+03
 0.573945662127216D+03 0.237227043903998D+03 -.806564749120865D+02 -.516363714614007D+03
-.923379891434D-07 0.000000000000D+00 0.000000000000D+00 0.770506072049D-07 0.000000000000D+00  7 1 21 23 -13 13 23 1 2 0.19428059D+00 0.47251263D-01 0.21610608D+06 0.21610608D+06 0.21610608D+06 0.10952513D+01  1  2 13  4  7  2       -1 -.542209111160D-05 0.100000000000D+01
0.150998829047D-05 0.000000000000D+00 0.000000000000D+00 0.770506072049D-07 0.140106052243D-11  7 1 21 23 -13 13 23 1 2 0.21720639D+00 0.47747954D-01 0.21610608D+06 0.21610608D+06 0.21610608D+06 0.10952513D+01  1  2  1  4  7  2       -1 0.685155924483D-04 0.100000000000D+01
  </mgrwgt>
  </event>
  <event>
  8     66 0.24912036E-05 0.36848122E+03 0.75467711E-02 0.90323093E-01
        1 -1    0    0  501    0 0.00000000E+00 0.00000000E+00 0.14385971E+04 0.14385971E+04 0.32000000E+00 0.0000E+00 0.9000E+01
       -1 -1    0    0    0  501 0.00000000E+00 0.00000000E+00 -.14806235E+03 0.14806269E+03 0.32000000E+00 0.0000E+00 0.9000E+01
       25  2    1    2    0    0 -.16398528E+03 0.25452395E+03 0.24156858E+03 0.49010763E+03 0.30029402E+03 0.0000E+00 0.0000E+00
       23  2    1    2    0    0 0.16398528E+03 -.25452395E+03 0.10489662E+04 0.10965522E+04 0.10209346E+03 0.0000E+00 0.0000E+00
       23  1    3    3    0    0 0.32484829E+02 0.63850740E+01 0.58153008E+02 0.11310640E+03 0.91188000E+02 0.0000E+00 0.9000E+01
      -11  1    4    4    0    0 0.51574701E+02 -.30470601E+02 0.32349939E+03 0.32899888E+03 0.51099893E-03 0.0000E+00 0.9000E+01
       11  1    4    4    0    0 0.11241058E+03 -.22405335E+03 0.72546679E+03 0.76755333E+03 0.51099893E-03 0.0000E+00 0.9000E+01
       23  1    3    3    0    0 -.19647011E+03 0.24813887E+03 0.18341557E+03 0.37700123E+03 0.91188000E+02 0.0000E+00 0.9000E+01
#aMCatNLO 1  0  0  1  2 0.56339058D+03 0.00000000D+00  -5  7  0 0.00000000D+00 0.00000000D+00 0.00000000D+00 0.00000000D+00 0.00000000D+00
  <mgrwgt>
 0.2150870335D-03    5    2    0
 0.461521792332111D+03 0.000000000000000D+00 0.000000000000000D+00 0.461521792332111D+03
 0.461521792332111D+03 0.000000000000000D+00 0.000000000000000D+00 -.461521792332111D+03
 0.113118058355806D+03 0.324848286777354D+02 0.638507403430056D+01 -.581756866529508D+02
 0.113236364244444D+03 0.515747009843843D+02 -.304706009669974D+02 0.960940522737060D+02
 0.305084097610255D+03 0.112410583651262D+03 -.224053346464758D+03 0.173897283577947D+03
 0.391605064453716D+03 -.196470113313381D+03 0.248138873397455D+03 -.211815649198703D+03
 0.000000000000000D+00 0.000000000000000D+00 0.000000000000000D+00 0.000000000000000D+00
 0.953397664155095D+03 0.000000000000000D+00 0.000000000000000D+00 0.953397664155095D+03
 0.732974361448973D+03 0.000000000000000D+00 0.000000000000000D+00 -.732974361448973D+03
 0.121597360743374D+03 0.818396003859509D+01 -.549479669896772D+02 -.581756866529508D+02
 0.138357585743895D+03 0.255263418585376D+02 -.962141388872689D+02 0.960940522737060D+02
 0.459287719188783D+03 0.332726250851673D+02 -.423789896271475D+03 0.173897283577947D+03
 0.362153841197155D+03 -.274509281860992D+03 0.511755632753432D+02 -.211815649198703D+03
 0.604975518730861D+03 0.207526354878692D+03 0.523776438873078D+03 0.220423302706121D+03
0.150375643480D-04 0.000000000000D+00 0.000000000000D+00 0.211488283450D-07 0.000000000000D+00  7 1 -1 23 -11 11 23 21 0 0.22132266D+00 0.22778852D-01 0.13577841D+06 0.13577841D+06 0.13577841D+06 0.11109820D+01  1  2  2  1  7  1        1 0.212466401554D-03 0.100000000000D+01
-.783934140558D-06 0.000000000000D+00 -.577482065779D-07 0.211488283450D-07 0.000000000000D+00  7 1 -1 23 -11 11 23 21 2 0.22132266D+00 0.22778852D-01 0.13577841D+06 0.13577841D+06 0.13577841D+06 0.11109820D+01  1  2  3  1  7  1        1 -.136711929487D-04 0.100000000000D+01
0.945034559804D-06 0.000000000000D+00 0.000000000000D+00 0.211488283450D-07 0.000000000000D+00  7 1 -1 23 -11 11 23 21 2 0.22132266D+00 0.22778852D-01 0.13577841D+06 0.13577841D+06 0.13577841D+06 0.11109820D+01  1  2 15  1  7  1        1 0.164806571647D-04 0.100000000000D+01
-.317516395059D-06 0.000000000000D+00 -.396359417629D-05 0.211488283450D-07 0.000000000000D+00  7 1 -1 23 -11 11 23 21 2 0.53374747D+00 0.22778852D-01 0.13577841D+06 0.13577841D+06 0.13577841D+06 0.11109820D+01  1  2  5  1  7  1        1 -.209290547024D-06 0.100000000000D+01
0.218091960800D-06 0.000000000000D+00 -.382002145744D-06 0.211488283450D-07 0.000000000000D+00  7 21 -1 23 -11 11 23 -1 2 0.53374747D+00 0.22778852D-01 0.13577841D+06 0.13577841D+06 0.13577841D+06 0.11109820D+01  1  2  5  3  7  1        1 0.204582823055D-07 0.100000000000D+01
  </mgrwgt>
  </event>
  <event>
  8     66 0.24912036E-05 0.24681234E+03 0.75467711E-02 0.91496155E-01
        1 -1    0    0  501    0 0.00000000E+00 0.00000000E+00 0.41729975E+03 0.41729987E+03 0.32000000E+00 0.0000E+00 0.9000E+01
       -1 -1    0    0    0  501 0.00000000E+00 0.00000000E+00 -.46899589E+03 0.46899600E+03 0.32000000E+00 0.0000E+00 0.9000E+01
       25  2    1    2    0    0 0.22671224E+03 0.27936819E+03 0.11193333E+03 0.48145876E+03 0.29971393E+03 0.0000E+00 0.0000E+00
       23  2    1    2    0    0 -.22671224E+03 -.27936819E+03 -.16362948E+03 0.40483711E+03 0.87598280E+02 0.0000E+00 0.0000E+00
       23  1    3    3    0    0 -.34303037E+02 0.93202455E+02 0.27340236E+02 0.13757229E+03 0.91188000E+02 0.0000E+00 0.9000E+01
      -11  1    4    4    0    0 -.14593949E+03 -.21190302E+03 -.15228754E+03 0.29898615E+03 0.51099893E-03 0.0000E+00 0.9000E+01
       11  1    4    4    0    0 -.80772756E+02 -.67465169E+02 -.11341936E+02 0.10585096E+03 0.51099893E-03 0.0000E+00 0.9000E+01
       23  1    3    3    0    0 0.26101528E+03 0.18616573E+03 0.84593099E+02 0.34388646E+03 0.91188000E+02 0.0000E+00 0.9000E+01
#aMCatNLO 1  0  0  2  1 0.40454949D+03 0.00000000D+00  -5  7  0 0.00000000D+00 0.00000000D+00 0.00000000D+00 0.00000000D+00 0.00000000D+00
  <mgrwgt>
 0.1098839359D-03    7    2    0
 0.442393456045486D+03 0.000000000000000D+00 0.000000000000000D+00 0.442393456045486D+03
 0.442393456045486D+03 0.000000000000000D+00 0.000000000000000D+00 -.442393456045486D+03
 0.139404345309579D+03 -.343030370319446D+02 0.932024553593799D+02 0.354249080811832D+02
 0.290598231410415D+03 -.145939486069436D+03 -.211903017924347D+03 -.135078160704106D+03
 0.105368803786919D+03 -.807727560426342D+02 -.674651693593799D+02 -.517664138930419D+01
 0.349415531584059D+03 0.261015279144015D+03 0.186165731924347D+03 0.104829894012227D+03
 0.000000000000000D+00 -.000000000000000D+00 0.000000000000000D+00 -.000000000000000D+00
 0.540127934603625D+03 0.000000000000000D+00 0.000000000000000D+00 0.540127934603625D+03
 0.124858016811933D+04 0.000000000000000D+00 0.000000000000000D+00 -.124858016811933D+04
 0.109512673765239D+03 -.271880458778973D+01 0.491473128488720D+02 0.354249080811832D+02
 0.359396793198708D+03 -.634638320498613D+02 -.326943859835075D+03 -.135078160704106D+03
 0.119411955826344D+03 -.522510913248633D+02 -.107248501311487D+03 -.517664138930419D+01
 0.384565093484384D+03 0.354147579851424D+03 0.562605082577295D+02 0.104829894012227D+03
 0.815821586448279D+03 -.235713851888909D+03 0.328784540039961D+03 -.708452233515705D+03
0.831081946753D-05 0.000000000000D+00 0.000000000000D+00 0.145798431096D-06 0.000000000000D+00  7 1 -1 23 -11 11 23 21 0 0.64199979D-01 0.72153232D-01 0.17250951D+06 0.17250951D+06 0.17250951D+06 0.11027917D+01  1  2  2  2  7  2       -1 0.115631878744D-03 0.100000000000D+01
-.459477313008D-06 0.000000000000D+00 -.319157350443D-07 0.145798431096D-06 0.000000000000D+00  7 1 -1 23 -11 11 23 21 2 0.64199979D-01 0.72153232D-01 0.17250951D+06 0.17250951D+06 0.17250951D+06 0.11027917D+01  1  2  3  2  7  2       -1 -.777472095736D-05 0.100000000000D+01
0.524248879171D-06 0.000000000000D+00 0.000000000000D+00 0.145798431096D-06 0.000000000000D+00  7 1 -1 23 -11 11 23 21 2 0.64199979D-01 0.72153232D-01 0.17250951D+06 0.17250951D+06 0.17250951D+06 0.11027917D+01  1  2 15  2  7  2       -1 0.887070728494D-05 0.100000000000D+01
0.721000780650D-08 0.000000000000D+00 0.000000000000D+00 0.145798431096D-06 0.000000000000D+00  7 1 -1 23 -11 11 23 21 2 0.64199979D-01 0.19682568D+00 0.44257208D+06 0.44257208D+06 0.44257208D+06 0.10722754D+01  1  2 12  2  7  2       -1 0.837205361510D-08 0.100000000000D+01
-.503858218996D-05 0.000000000000D+00 -.253840438768D-05 0.145798431096D-06 0.000000000000D+00  7 1 -1 23 -11 11 23 21 2 0.64199979D-01 0.22351567D+00 0.17250951D+06 0.17250951D+06 0.17250951D+06 0.11027917D+01  1  2  5  2  7  2       -1 -.398461700718D-05 0.100000000000D+01
0.808603610781D-09 0.000000000000D+00 0.000000000000D+00 0.145798431096D-06 0.000000000000D+00  7 1 21 23 -11 11 23 1 2 0.64199979D-01 0.19682568D+00 0.44257208D+06 0.44257208D+06 0.44257208D+06 0.10722754D+01  1  2 12  4  7  2       -1 0.592142794123D-08 0.100000000000D+01
-.533363956081D-06 0.000000000000D+00 -.328548795416D-06 0.145798431096D-06 0.000000000000D+00  7 1 21 23 -11 11 23 1 2 0.64199979D-01 0.22351567D+00 0.17250951D+06 0.17250951D+06 0.17250951D+06 0.11027917D+01  1  2  5  4  7  2       -1 -.287360564464D-05 0.100000000000D+01
  </mgrwgt>
  </event>
  <event>
  8     66 0.24912036E-05 0.21630049E+03 0.75467711E-02 0.89733038E-01
        1 -1    0    0  501    0 0.00000000E+00 0.00000000E+00 0.58456829E+03 0.58456838E+03 0.32000000E+00 0.0000E+00 0.9000E+01
       -1 -1    0    0    0  501 0.00000000E+00 0.00000000E+00 -.11000077E+03 0.11000123E+03 0.32000000E+00 0.0000E+00 0.9000E+01
       25  2    1    2    0    0 -.47493606E+02 0.13161665E+03 0.25633147E+03 0.41855409E+03 0.29983848E+03 0.0000E+00 0.0000E+00
       23  2    1    2    0    0 0.47493606E+02 -.13161665E+03 0.21823605E+03 0.27601552E+03 0.94757642E+02 0.0000E+00 0.0000E+00
       23  1    3    3    0    0 -.68986452E+02 0.14513376E+03 0.26549031E+03 0.32345524E+03 0.91188000E+02 0.0000E+00 0.9000E+01
      -13  1    4    4    0    0 0.99048674E+01 -.10871013E+03 0.20102651E+03 0.22875242E+03 0.10565837E+00 0.0000E+00 0.9000E+01
       13  1    4    4    0    0 0.37588739E+02 -.22906520E+02 0.17209539E+02 0.47263108E+02 0.10565837E+00 0.0000E+00 0.9000E+01
       23  1    3    3    0    0 0.21492846E+02 -.13517109E+02 -.91588334E+01 0.95098845E+02 0.91188000E+02 0.0000E+00 0.9000E+01
#aMCatNLO 1  0  0  1  1 0.72957844D+03 0.00000000D+00  -5  7  0 0.00000000D+00 0.00000000D+00 0.00000000D+00 0.00000000D+00 0.00000000D+00
  <mgrwgt>
 0.2232283225D-03    3    2    0
 0.253580662360956D+03 0.000000000000000D+00 0.000000000000000D+00 0.253580662360956D+03
 0.253580662360956D+03 0.000000000000000D+00 0.000000000000000D+00 -.253580662360956D+03
 0.194551741032037D+03 -.689864654011682D+02 0.145133798430738D+03 0.609276352660766D+02
 0.125174910503964D+03 0.990489323007818D+01 -.108710259823657D+03 0.612595357381120D+02
 0.486242989572283D+02 0.375887362089668D+02 -.229064565314311D+02 -.206568053790579D+02
 0.138810374228684D+03 0.214928359621232D+02 -.135170820756496D+02 -.101530365625131D+03
 0.000000000000000D+00 -.000000000000000D+00 0.000000000000000D+00 -.000000000000000D+00
 0.549758865584584D+03 0.000000000000000D+00 0.000000000000000D+00 0.549758865584584D+03
 0.170571930401575D+04 0.000000000000000D+00 0.000000000000000D+00 -.170571930401575D+04
 0.130873531844446D+03 0.616072392006269D+02 0.361248021780024D+02 0.609276352660766D+02
 0.330456331739337D+03 0.192750470437154D+03 -.261334866816554D+03 0.612595357381120D+02
 0.147816970159901D+03 0.116420945041196D+03 -.887091687172161D+02 -.206568053790579D+02
 0.279389774954600D+03 0.189317253113638D+03 -.153603247148997D+03 -.101530365625131D+03
 0.136694156090205D+04 -.560095907792615D+03 0.467522480504764D+03 -.115596043843117D+04
0.204866199346D-05 0.000000000000D+00 0.000000000000D+00 0.278220669507D-07 0.000000000000D+00  7 1 -1 23 -13 13 23 21 0 0.89933626D-01 0.16923237D-01 0.46785904D+05 0.46785904D+05 0.46785904D+05 0.11498421D+01  1  2  2  1  7  1        1 0.220220572604D-03 0.100000000000D+01
-.110315534883D-06 0.000000000000D+00 -.786740148000D-08 0.278220669507D-07 0.000000000000D+00  7 1 -1 23 -13 13 23 21 2 0.89933626D-01 0.16923237D-01 0.46785904D+05 0.46785904D+05 0.46785904D+05 0.11498421D+01  1  2  3  1  7  1        1 -.156783621859D-04 0.100000000000D+01
0.131478557687D-06 0.000000000000D+00 0.000000000000D+00 0.278220669507D-07 0.000000000000D+00  7 1 -1 23 -13 13 23 21 2 0.89933626D-01 0.16923237D-01 0.46785904D+05 0.46785904D+05 0.46785904D+05 0.11498421D+01  1  2 15  1  7  1        1 0.186861120629D-04 0.100000000000D+01
  </mgrwgt>
  </event>
  <event>
  9     66 0.24912036E-05 0.49932441E+03 0.75467711E-02 0.91750777E-01
        1 -1    0    0  501    0 0.00000000E+00 0.00000000E+00 0.94818344E+03 0.94818349E+03 0.32000000E+00 0.0000E+00 0.9000E+01
       -1 -1    0    0    0  502 0.00000000E+00 0.00000000E+00 -.49258449E+03 0.49258459E+03 0.32000000E+00 0.0000E+00 0.9000E+01
       25  2    1    2    0    0 -.25371488E+03 0.48658566E+03 0.12280597E+03 0.64068881E+03 0.30702443E+03 0.0000E+00 0.0000E+00
       23  2    1    2    0    0 -.13819696E+01 -.40708544E+03 0.33051394E+03 0.53287065E+03 0.94821969E+02 0.0000E+00 0.0000E+00
       23  1    3    3    0    0 -.22662595E+03 0.45052476E+03 0.15252156E+03 0.53470548E+03 0.91188000E+02 0.0000E+00 0.9000E+01
      -13  1    4    4    0    0 0.38156493E+02 -.31583437E+03 0.26163252E+03 0.41189665E+03 0.10565837E+00 0.0000E+00 0.9000E+01
       13  1    4    4    0    0 -.39538462E+02 -.91251063E+02 0.68881421E+02 0.12097400E+03 0.10565837E+00 0.0000E+00 0.9000E+01
       23  1    3    3    0    0 -.27088927E+02 0.36060906E+02 -.29715581E+02 0.10598333E+03 0.91188000E+02 0.0000E+00 0.9000E+01
       21  1    1    2  501  502 0.25509685E+03 -.79500227E+02 0.22790414E+01 0.26720862E+03 0.75000000E+00 0.0000E+00 0.9000E+01
#aMCatNLO 2  0  0  2  1 0.26719785D+03 0.00000000D+00  -5  7  0 0.00000000D+00 0.00000000D+00 0.00000000D+00 0.00000000D+00 0.00000000D+00
  <mgrwgt>
 0.1175368520D-04    2    2    0
 0.524487413461964D+03 0.000000000000000D+00 0.000000000000000D+00 0.524487413461964D+03
 0.524487413461964D+03 0.000000000000000D+00 0.000000000000000D+00 -.524487413461964D+03
 0.443041364069658D+03 -.111866137850575D+03 0.414760178791519D+03 -.585692771333796D+02
 0.380967060760699D+03 0.124083578169042D+03 -.342613561577020D+03 0.111153562412202D+03
 0.102874574991499D+03 -.149818794502213D+02 -.989038049008123D+02 0.240158040457248D+02
 0.122091827102073D+03 0.276443913175358D+01 0.267571876863131D+02 -.766000893245474D+02
 0.000000000000000D+00 0.000000000000000D+00 -.000000000000000D+00 -.000000000000000D+00
 0.630888906146579D+03 0.000000000000000D+00 0.000000000000000D+00 0.630888906146579D+03
 0.740320326482906D+03 0.000000000000000D+00 0.000000000000000D+00 -.740320326482906D+03
 0.515826997267615D+03 -.226625953021071D+03 0.450524757321380D+03 -.585692771333796D+02
 0.336990456567766D+03 0.381565882806961D+02 -.315834653183601D+03 0.111153562412202D+03
 0.102307194260849D+03 -.395385577860419D+02 -.912507841158868D+02 0.240158040457248D+02
 0.127346079481545D+03 -.270889267840113D+02 0.360609064844728D+02 -.766000893245474D+02
 0.288738505051710D+03 0.255096849310428D+03 -.795002265063656D+02 -.109431420336327D+03
-.343617406311D-05 0.000000000000D+00 0.000000000000D+00 0.730649953671D-09 0.000000000000D+00  7 1 -1 23 -13 13 23 21 2 0.12127210D+00 0.79425770D-01 0.42185082D+06 0.42185082D+06 0.42185082D+06 0.10737664D+01  1  2 13  2  7  2       -1 -.175161432673D-04 0.100000000000D+01
0.708782165301D-05 0.000000000000D+00 0.000000000000D+00 0.730649953671D-09 0.736420296529D-13  7 1 -1 23 -13 13 23 21 2 0.14587428D+00 0.75782185D-01 0.42185082D+06 0.42185082D+06 0.42185082D+06 0.10737664D+01  1  2  1  2  7  2       -1 0.292698284672D-04 0.100000000000D+01
  </mgrwgt>
  </event>
  <event>
  7     66 0.24912036E-05 0.19096295E+03 0.75467711E-02 0.95034903E-01
        1 -1    0    0  501    0 0.00000000E+00 0.00000000E+00 0.19137518E+04 0.19137518E+04 0.32000000E+00 0.0000E+00 0.9000E+01
       -1 -1    0    0    0  501 0.00000000E+00 0.00000000E+00 -.17269403E+03 0.17269433E+03 0.32000000E+00 0.0000E+00 0.9000E+01
       25  2    1    2    0    0 -.29052320E+03 0.35048047E+02 0.16074377E+04 0.16613660E+04 0.30107947E+03 0.0000E+00 0.0000E+00
       23  1    3    3    0    0 -.14713175E+03 -.86355024E+02 0.53782464E+03 0.57155536E+03 0.91188000E+02 0.0000E+00 0.9000E+01
      -11  1    1    2    0    0 -.24302469E+02 0.68033504E+02 0.22417202E+02 0.75641911E+02 0.51099893E-03 0.0000E+00 0.9000E+01
       11  1    1    2    0    0 0.31482566E+03 -.10308155E+03 0.11120282E+03 0.34943822E+03 0.51099893E-03 0.0000E+00 0.9000E+01
       23  1    3    3    0    0 -.14339145E+03 0.12140307E+03 0.10696131E+04 0.10898106E+04 0.91188000E+02 0.0000E+00 0.9000E+01
#aMCatNLO 1  0  0  2  1 0.14963944D+03 0.00000000D+00  -5  7  0 0.00000000D+00 0.00000000D+00 0.00000000D+00 0.00000000D+00 0.00000000D+00
  <mgrwgt>
 0.1021441184D-02    9    2    0
 0.574885938072889D+03 0.000000000000000D+00 0.000000000000000D+00 0.574885938072889D+03
 0.574885938072889D+03 0.000000000000000D+00 0.000000000000000D+00 -.574885938072889D+03
 0.222770908920795D+03 -.147131747946240D+03 -.863550236654846D+02 0.110483868285894D+03
 0.103318862134347D+03 -.243024626305937D+02 0.680334989942997D+02 -.738621729806095D+02
 0.465721507068238D+03 0.314825661163350D+03 -.103081546419668D+03 -.327346177626531D+03
 0.357960598022398D+03 -.143391450586516D+03 0.121403071090853D+03 0.290724482321247D+03
 0.000000000000000D+00 0.000000000000000D+00 0.000000000000000D+00 -.000000000000000D+00
 0.616372382183965D+03 0.000000000000000D+00 0.000000000000000D+00 0.616372382183965D+03
 0.732525757578697D+03 0.000000000000000D+00 0.000000000000000D+00 -.732525757578697D+03
 0.246673603663995D+03 -.175108290047535D+03 -.983006460090435D+02 0.110483868285894D+03
 0.103622032390277D+03 -.366351036412863D+02 0.627676204779693D+02 -.738621729806095D+02
 0.437235112008110D+03 0.261013968424329D+03 -.126058444593879D+03 -.327346177626531D+03
 0.371937806236957D+03 -.186889740350297D+03 0.102829862857060D+03 0.290724482321247D+03
 0.189429585463323D+03 0.137619165614790D+03 0.587616072678928D+02 -.116153375394731D+03
0.171884047065D-03 0.000000000000D+00 0.000000000000D+00 0.685686769031D-10 0.000000000000D+00  7 1 -1 23 -11 11 23 21 0 0.29442337D+00 0.26568337D-01 0.16232873D+06 0.16232873D+06 0.16232873D+06 0.11048549D+01  1  2  2  2  7  2       -1 0.909449537593D-03 0.100000000000D+01
-.808194361172D-05 0.000000000000D+00 -.660079998840D-06 0.685686769031D-10 0.000000000000D+00  7 1 -1 23 -11 11 23 21 2 0.29442337D+00 0.26568337D-01 0.16232873D+06 0.16232873D+06 0.16232873D+06 0.11048549D+01  1  2  3  2  7  2       -1 -.521998653663D-04 0.100000000000D+01
0.101515361400D-04 0.000000000000D+00 0.000000000000D+00 0.685686769031D-10 0.000000000000D+00  7 1 -1 23 -11 11 23 21 2 0.29442337D+00 0.26568337D-01 0.16232873D+06 0.16232873D+06 0.16232873D+06 0.11048549D+01  1  2 15  2  7  2       -1 0.655670028432D-04 0.100000000000D+01
0.173648045671D-03 0.000000000000D+00 0.000000000000D+00 0.685686769031D-10 0.000000000000D+00  7 1 -1 23 -11 11 23 21 2 0.29442337D+00 0.34616701D-01 0.23266581D+06 0.23266581D+06 0.23266581D+06 0.10928146D+01  1  2 12  2  7  2       -1 0.690926529805D-03 0.100000000000D+01
-.204540606976D-03 0.000000000000D+00 0.000000000000D+00 0.685686769031D-10 0.000000000000D+00  7 1 -1 23 -11 11 23 21 2 0.29442337D+00 0.26568337D-01 0.16232873D+06 0.16232873D+06 0.16232873D+06 0.11048549D+01  1  2  4  2  7  2       -1 -.132109213564D-02 0.100000000000D+01
-.266629112133D-03 0.000000000000D+00 -.853395029243D-04 0.685686769031D-10 0.000000000000D+00  7 1 -1 23 -11 11 23 21 2 0.29442337D+00 0.36300181D-01 0.16232873D+06 0.16232873D+06 0.16232873D+06 0.11048549D+01  1  2  5  2  7  2       -1 -.101780438493D-02 0.100000000000D+01
0.283345457737D-03 0.000000000000D+00 0.813453923007D-04 0.685686769031D-10 0.000000000000D+00  7 1 -1 23 -11 11 23 21 2 0.29442337D+00 0.26568337D-01 0.16232873D+06 0.16232873D+06 0.16232873D+06 0.11048549D+01  1  2  6  2  7  2       -1 0.183007893356D-02 0.100000000000D+01
0.612732529949D-05 0.000000000000D+00 0.000000000000D+00 0.685686769031D-10 0.000000000000D+00  7 1 21 23 -11 11 23 1 2 0.29442337D+00 0.34616701D-01 0.23266581D+06 0.23266581D+06 0.23266581D+06 0.10928146D+01  1  2 12  4  7  2       -1 0.248921114344D-03 0.100000000000D+01
-.857142192902D-05 0.000000000000D+00 -.339433765920D-05 0.685686769031D-10 0.000000000000D+00  7 1 21 23 -11 11 23 1 2 0.29442337D+00 0.36300181D-01 0.16232873D+06 0.16232873D+06 0.16232873D+06 0.11048549D+01  1  2  5  4  7  2       -1 -.332405548620D-03 0.100000000000D+01
  </mgrwgt>
  </event>
  <event>
  8     66 0.24912036E-05 0.32957174E+03 0.75467711E-02 0.97722833E-01
        1 -1    0    0  501    0 0.00000000E+00 0.00000000E+00 0.43011180E+03 0.43011192E+03 0.32000000E+00 0.0000E+00 0.9000E+01
       -1 -1    0    0    0  501 0.00000000E+00 0.00000000E+00 -.29438912E+03 0.29438929E+03 0.32000000E+00 0.0000E+00 0.9000E+01
       25  2    1    2    0    0 0.71586460E+02 0.27275975E+03 0.11125475E+03 0.42647334E+03 0.29996564E+03 0.0000E+00 0.0000E+00
       23  2    1    2    0    0 -.71586460E+02 -.27275975E+03 0.24467937E+02 0.29802788E+03 0.93270741E+02 0.0000E+00 0.0000E+00
       23  1    3    3    0    0 0.27710075E+02 0.25484185E+03 0.15683983E+03 0.31404808E+03 0.91188000E+02 0.0000E+00 0.9000E+01
      -11  1    4    4    0    0 -.26880121E+02 -.17165489E+03 0.56890142E+02 0.18282349E+03 0.51099893E-03 0.0000E+00 0.9000E+01
       11  1    4    4    0    0 -.44706339E+02 -.10110486E+03 -.32422205E+02 0.11520438E+03 0.51099893E-03 0.0000E+00 0.9000E+01
       23  1    3    3    0    0 0.43876385E+02 0.17917907E+02 -.45585076E+02 0.11242526E+03 0.91188000E+02 0.0000E+00 0.9000E+01
#aMCatNLO 1  0  0  2  1 0.10052575D+03 0.00000000D+00  -5  7  0 0.00000000D+00 0.00000000D+00 0.00000000D+00 0.00000000D+00 0.00000000D+00
  <mgrwgt>
 0.2033583280D-03    3    2    0
 0.355837521066978D+03 0.000000000000000D+00 0.000000000000000D+00 0.355837521066978D+03
 0.355837521066978D+03 0.000000000000000D+00 0.000000000000000D+00 -.355837521066978D+03
 0.289797283843162D+03 0.277100746990453D+02 0.254841846244812D+03 0.997747440066023D+02
 0.175268983271677D+03 -.268801212212442D+02 -.171654888711743D+03 0.230493982910174D+02
 0.123463854337846D+03 -.447063387277492D+02 -.101104864078416D+03 -.549770230660201D+02
 0.123144920681271D+03 0.438763852499481D+02 0.179179065453472D+02 -.678471192315996D+02
 0.000000000000000D+00 -.000000000000000D+00 -.000000000000000D+00 0.000000000000000D+00
 0.755667974776464D+03 0.000000000000000D+00 0.000000000000000D+00 0.755667974776464D+03
 0.365744752538092D+03 0.000000000000000D+00 0.000000000000000D+00 -.365744752538092D+03
 0.328744055501247D+03 0.361762607108986D+02 0.297478875389163D+03 0.997747440066023D+02
 0.152487020519650D+03 -.223940131503751D+02 -.149062150931761D+03 0.230493982910174D+02
 0.109451745502569D+03 -.415183435722412D+02 -.850496247809174D+02 -.549770230660201D+02
 0.128056903857997D+03 0.473146701919384D+02 0.352336441245799D+02 -.678471192315996D+02
 0.402673001933092D+03 -.195785741802206D+02 -.986007438010641D+02 0.389923222238372D+03
0.628880861764D-05 0.000000000000D+00 0.000000000000D+00 0.225478555601D-06 0.000000000000D+00  7 1 -1 23 -11 11 23 21 0 0.66171069D-01 0.45290656D-01 0.10861753D+06 0.10861753D+06 0.10861753D+06 0.11187879D+01  1  2  2  2  7  2       -1 0.201389099235D-03 0.100000000000D+01
-.346880538365D-06 0.000000000000D+00 -.241506809731D-07 0.225478555601D-06 0.000000000000D+00  7 1 -1 23 -11 11 23 21 2 0.66171069D-01 0.45290656D-01 0.10861753D+06 0.10861753D+06 0.10861753D+06 0.11187879D+01  1  2  3  2  7  2       -1 -.139041047311D-04 0.100000000000D+01
0.396008990657D-06 0.000000000000D+00 0.000000000000D+00 0.225478555601D-06 0.000000000000D+00  7 1 -1 23 -11 11 23 21 2 0.66171069D-01 0.45290656D-01 0.10861753D+06 0.10861753D+06 0.10861753D+06 0.11187879D+01  1  2 15  2  7  2       -1 0.158733335300D-04 0.100000000000D+01
  </mgrwgt>
  </event>
  <event>
  8     66 0.24912036E-05 0.15620690E+03 0.75467711E-02 0.10176972E+00
        1 -1    0    0  501    0 0.00000000E+00 0.00000000E+00 0.16119762E+04 0.16119762E+04 0.32000000E+00 0.0000E+00 0.9000E+01
       -1 -1    0    0    0  501 0.00000000E+00 0.00000000E+00 -.64567336E+02 0.64568129E+02 0.32000000E+00 0.0000E+00 0.9000E+01
       25  2    1    2    0    0 0.17570913E+03 0.81767319E-01 0.13545945E+04 0.13984716E+04 0.29987141E+03 0.0000E+00 0.0000E+00
       23  2    1    2    0    0 -.17570913E+03 -.81767319E-01 0.19281434E+03 0.27807274E+03 0.96298351E+02 0.0000E+00 0.0000E+00
       23  1    3    3    0    0 0.10608924E+03 0.10742552E+03 0.51674097E+03 0.54601433E+03 0.91188000E+02 0.0000E+00 0.9000E+01
      -13  1    4    4    0    0 -.13734951E+03 0.10253726E+01 0.19625249E+03 0.23954330E+03 0.10565837E+00 0.0000E+00 0.9000E+01
       13  1    4    4    0    0 -.38359613E+02 -.11071400E+01 -.34381477E+01 0.38529439E+02 0.10565837E+00 0.0000E+00 0.9000E+01
       23  1    3    3    0    0 0.69619891E+02 -.10734376E+03 0.83785352E+03 0.85245726E+03 0.91188000E+02 0.0000E+00 0.9000E+01
#aMCatNLO 1  0  0  2  1 0.44217323D+02 0.00000000D+00  -5  7  0 0.00000000D+00 0.00000000D+00 0.00000000D+00 0.00000000D+00 0.00000000D+00
  <mgrwgt>
 0.1432085539D-03    9    2    0
 0.322616953642357D+03 0.000000000000000D+00 0.000000000000000D+00 0.322616953642357D+03
 0.322616953642357D+03 0.000000000000000D+00 0.000000000000000D+00 -.322616953642357D+03
 0.179481720000633D+03 0.106089236977114D+03 0.107425524018052D+03 0.332154641311296D+02
 0.151762255282958D+03 -.137349627212391D+03 0.102537496360043D+01 -.645430913372690D+02
 0.108358374324266D+03 -.383595027083699D+02 -.110714228467103D+01 -.101335384116930D+03
 0.205631557676856D+03 0.696198929436462D+02 -.107343756696981D+03 0.132663011323070D+03
 0.000000000000000D+00 0.000000000000000D+00 -.000000000000000D+00 -.000000000000000D+00
 0.332309654971395D+03 0.000000000000000D+00 0.000000000000000D+00 0.332309654971395D+03
 0.378072631692266D+03 0.000000000000000D+00 0.000000000000000D+00 -.378072631692266D+03
 0.178096456880319D+03 0.960142774044872D+02 0.114372584505077D+03 0.332154641311296D+02
 0.159906960158086D+03 -.146131076832696D+03 0.708051208214323D+01 -.645430913372690D+02
 0.110733579713507D+03 -.445325376482323D+02 0.314939560082680D+01 -.101335384116930D+03
 0.198010223391042D+03 0.582470662752106D+02 -.995017684284885D+02 0.132663011323070D+03
 0.636350665207071D+02 0.364022708012310D+02 -.251007237595587D+02 -.457629767208710D+02
0.326361574345D-05 0.000000000000D+00 0.000000000000D+00 0.412414546485D-07 0.000000000000D+00  7 1 -1 23 -13 13 23 21 0 0.24799640D+00 0.99334998D-02 0.64827415D+05 0.64827415D+05 0.64827415D+05 0.11375047D+01  1  2  2  2  7  2       -1 0.133041158406D-03 0.100000000000D+01
-.168958434708D-06 0.000000000000D+00 -.125331437846D-07 0.412414546485D-07 0.000000000000D+00  7 1 -1 23 -13 13 23 21 2 0.24799640D+00 0.99334998D-02 0.64827415D+05 0.64827415D+05 0.64827415D+05 0.11375047D+01  1  2  3  2  7  2       -1 -.891196160209D-05 0.100000000000D+01
0.209681417640D-06 0.000000000000D+00 0.000000000000D+00 0.412414546485D-07 0.000000000000D+00  7 1 -1 23 -13 13 23 21 2 0.24799640D+00 0.99334998D-02 0.64827415D+05 0.64827415D+05 0.64827415D+05 0.11375047D+01  1  2 15  2  7  2       -1 0.110599553429D-04 0.100000000000D+01
0.840553917292D-05 0.000000000000D+00 0.000000000000D+00 0.412414546485D-07 0.000000000000D+00  7 1 -1 23 -13 13 23 21 2 0.24799640D+00 0.11772805D-01 0.77599520D+05 0.77599520D+05 0.77599520D+05 0.11308740D+01  1  2 12  2  7  2       -1 0.336379646653D-03 0.100000000000D+01
-.857816961932D-05 0.000000000000D+00 0.000000000000D+00 0.412414546485D-07 0.000000000000D+00  7 1 -1 23 -13 13 23 21 2 0.24799640D+00 0.99334998D-02 0.64827415D+05 0.64827415D+05 0.64827415D+05 0.11375047D+01  1  2  4  2  7  2       -1 -.452468196664D-03 0.100000000000D+01
-.133082478173D-04 0.000000000000D+00 -.249295151855D-05 0.412414546485D-07 0.000000000000D+00  7 1 -1 23 -13 13 23 21 2 0.24799640D+00 0.11996321D-01 0.64827415D+05 0.64827415D+05 0.64827415D+05 0.11375047D+01  1  2  5  2  7  2       -1 -.525579806631D-03 0.100000000000D+01
0.135799051950D-04 0.000000000000D+00 0.244922238474D-05 0.412414546485D-07 0.000000000000D+00  7 1 -1 23 -13 13 23 21 2 0.24799640D+00 0.99334998D-02 0.64827415D+05 0.64827415D+05 0.64827415D+05 0.11375047D+01  1  2  6  2  7  2       -1 0.716292109753D-03 0.100000000000D+01
0.211819741321D-06 0.000000000000D+00 0.000000000000D+00 0.412414546485D-07 0.000000000000D+00  7 1 21 23 -13 13 23 1 2 0.24799640D+00 0.11772805D-01 0.77599520D+05 0.77599520D+05 0.77599520D+05 0.11308740D+01  1  2 12  4  7  2       -1 0.115731788713D-03 0.100000000000D+01
-.338155444773D-06 0.000000000000D+00 -.682076466790D-07 0.412414546485D-07 0.000000000000D+00  7 1 21 23 -13 13 23 1 2 0.24799640D+00 0.11996321D-01 0.64827415D+05 0.64827415D+05 0.64827415D+05 0.11375047D+01  1  2  5  4  7  2       -1 -.182336140104D-03 0.100000000000D+01
  </mgrwgt>
  </event>
  <event>
  8     66 0.24912036E-05 0.46934758E+03 0.75467711E-02 0.94494190E-01
        1 -1    0    0  501    0 0.00000000E+00 0.00000000E+00 0.72648537E+03 0.72648544E+03 0.32000000E+00 0.0000E+00 0.9000E+01
       -1 -1    0    0    0  501 0.00000000E+00 0.00000000E+00 -.75504177E+03 0.75504184E+03 0.32000000E+00 0.0000E+00 0.9000E+01
       25  2    1    2    0    0 -.18503968E+03 -.39828293E+03 -.56920223E+03 0.77899097E+03 0.29994462E+03 0.0000E+00 0.0000E+00
       23  2    1    2    0    0 0.18503968E+03 0.39828293E+03 0.54064583E+03 0.70253631E+03 0.91599027E+02 0.0000E+00 0.0000E+00
       23  1    3    3    0    0 0.20708471E+01 -.14410292E+03 -.76770742E+02 0.18702657E+03 0.91188000E+02 0.0000E+00 0.9000E+01
      -13  1    4    4    0    0 0.19609394E+02 0.58616181E+02 0.34039301E+02 0.70562527E+02 0.10565837E+00 0.0000E+00 0.9000E+01
       13  1    4    4    0    0 0.16543028E+03 0.33966675E+03 0.50660653E+03 0.63197378E+03 0.10565837E+00 0.0000E+00 0.9000E+01
       23  1    3    3    0    0 -.18711052E+03 -.25418001E+03 -.49243149E+03 0.59196440E+03 0.91188000E+02 0.0000E+00 0.9000E+01
#aMCatNLO 1  0  0  2  1 0.71990730D+02 0.00000000D+00  -5  7  0 0.00000000D+00 0.00000000D+00 0.00000000D+00 0.00000000D+00 0.00000000D+00
  <mgrwgt>
 0.1323371157D-03    4    2    0
 0.740626022084453D+03 0.000000000000000D+00 0.000000000000000D+00 0.740626022084453D+03
 0.740626022084453D+03 0.000000000000000D+00 0.000000000000000D+00 -.740626022084453D+03
 0.185581295198385D+03 0.207084705775664D+01 -.144102922433670D+03 -.731794036737743D+02
 0.712311081553813D+02 0.196091997390188D+02 0.586158074211342D+02 0.354053269298194D+02
 0.641858616105726D+03 0.165430476261662D+03 0.339667124024990D+03 0.518884847966859D+03
 0.582581024709414D+03 -.187110523058437D+03 -.254180009012454D+03 -.481110771222904D+03
 0.000000000000000D+00 -.000000000000000D+00 0.000000000000000D+00 0.000000000000000D+00
 0.815197287983306D+03 0.000000000000000D+00 0.000000000000000D+00 0.815197287983306D+03
 0.759081190441221D+03 0.000000000000000D+00 0.000000000000000D+00 -.759081190441221D+03
 0.188158186480669D+03 0.106608815214358D+02 -.147035275627418D+03 -.731794036737743D+02
 0.712967738077016D+02 0.228850629488614D+02 0.574975362446585D+02 0.354053269298194D+02
 0.644892042556824D+03 0.195005174804121D+03 0.329571301698336D+03 0.518884847966859D+03
 0.578653429916457D+03 -.160420691037388D+03 -.263291033479056D+03 -.481110771222904D+03
 0.912780456628763D+02 -.681304282370306D+02 0.232574711634801D+02 0.561160975420854D+02
0.106707109835D-03 0.000000000000D+00 0.000000000000D+00 0.906087279926D-05 0.000000000000D+00  7 1 -1 23 -13 13 23 21 0 0.11176699D+00 0.11616028D+00 0.22028715D+06 0.22028715D+06 0.22028715D+06 0.10946173D+01  1  2  2  2  7  2       -1 0.238223857800D-03 0.100000000000D+01
-.442841224757D-05 0.000000000000D+00 -.409783398394D-06 0.906087279926D-05 0.000000000000D+00  7 1 -1 23 -13 13 23 21 2 0.11176699D+00 0.11616028D+00 0.22028715D+06 0.22028715D+06 0.22028715D+06 0.10946173D+01  1  2  3  2  7  2       -1 -.118458038571D-04 0.100000000000D+01
0.630774365146D-05 0.000000000000D+00 0.000000000000D+00 0.906087279926D-05 0.000000000000D+00  7 1 -1 23 -13 13 23 21 2 0.11176699D+00 0.11616028D+00 0.22028715D+06 0.22028715D+06 0.22028715D+06 0.10946173D+01  1  2 15  2  7  2       -1 0.168729309510D-04 0.100000000000D+01
-.414638248756D-04 0.000000000000D+00 0.000000000000D+00 0.906087279926D-05 0.000000000000D+00  7 1 -1 23 -13 13 23 21 2 0.11176699D+00 0.11616028D+00 0.22028715D+06 0.22028715D+06 0.22028715D+06 0.10946173D+01  1  2  4  2  7  2       -1 -.110913869166D-03 0.100000000000D+01
  </mgrwgt>
  </event>
  <event>
  8     66 0.24912036E-05 0.18932134E+03 0.75467711E-02 0.10522108E+00
        1 -1    0    0  501    0 0.00000000E+00 0.00000000E+00 0.31498262E+03 0.31498278E+03 0.32000000E+00 0.0000E+00 0.9000E+01
       -1 -1    0    0    0  501 0.00000000E+00 0.00000000E+00 -.23652178E+03 0.23652199E+03 0.32000000E+00 0.0000E+00 0.9000E+01
       25  2    1    2    0    0 -.49439311E+02 0.12652273E+02 -.11966139E+03 0.32710390E+03 0.30012296E+03 0.0000E+00 0.0000E+00
       23  2    1    2    0    0 0.49439311E+02 -.12652273E+02 0.19812223E+03 0.22440087E+03 0.92190060E+02 0.0000E+00 0.0000E+00
       23  1    3    3    0    0 0.60108815E+02 0.68604400E+02 -.11672462E+03 0.17395264E+03 0.91188000E+02 0.0000E+00 0.9000E+01
      -13  1    4    4    0    0 0.18962746E+02 -.46965689E+02 0.58244939E+02 0.77187083E+02 0.10565837E+00 0.0000E+00 0.9000E+01
       13  1    4    4    0    0 0.30476565E+02 0.34313416E+02 0.13987729E+03 0.14721379E+03 0.10565837E+00 0.0000E+00 0.9000E+01
       23  1    3    3    0    0 -.10954813E+03 -.55952127E+02 -.29367691E+01 0.15315126E+03 0.91188000E+02 0.0000E+00 0.9000E+01
#aMCatNLO 1  0  0  1  2 0.57405247D+02 0.00000000D+00  -5  7  0 0.00000000D+00 0.00000000D+00 0.00000000D+00 0.00000000D+00 0.00000000D+00
  <mgrwgt>
 0.1575440576D-03    4    2    0
 0.272947528389494D+03 0.000000000000000D+00 0.000000000000000D+00 0.272947528389494D+03
 0.272947528389494D+03 0.000000000000000D+00 0.000000000000000D+00 -.272947528389494D+03
 0.192516901596470D+03 0.601088143462946D+02 0.686043996884926D+02 -.142926109712568D+03
 0.696087189509894D+02 0.189627315048465D+02 -.469657943789404D+02 0.477493740925263D+02
 0.128622267273552D+03 0.304765803407550D+02 0.343135215651042D+02 0.120155931718428D+03
 0.155147168957976D+03 -.109548126191896D+03 -.559521268746564D+02 -.249791960983864D+02
 0.000000000000000D+00 -.000000000000000D+00 0.000000000000000D+00 -.000000000000000D+00
 0.277846050666218D+03 0.000000000000000D+00 0.000000000000000D+00 0.277846050666218D+03
 0.517221575007060D+03 0.000000000000000D+00 0.000000000000000D+00 -.517221575007060D+03
 0.186712909832929D+03 0.611735072742844D+02 0.487482156029678D+02 -.142926109712568D+03
 0.750310501835082D+02 0.193688096523506D+02 -.545390225257394D+02 0.477493740925263D+02
 0.125899910547254D+03 0.311911548667422D+02 0.209869341915811D+02 0.120155931718428D+03
 0.161261198999979D+03 -.108659805333228D+03 -.725190280280571D+02 -.249791960983864D+02
 0.246162556109608D+03 -.307366646014951D+01 0.573229007592477D+02 -.239375524340842D+03
0.224177844747D-05 0.000000000000D+00 0.000000000000D+00 0.325636611893D-06 0.000000000000D+00  7 1 -1 23 -13 13 23 21 0 0.48458894D-01 0.36387995D-01 0.35842569D+05 0.35842569D+05 0.35842569D+05 0.11602331D+01  1  2  2  1  7  1        1 0.159598717746D-03 0.100000000000D+01
-.104277185587D-06 0.000000000000D+00 -.860901951211D-08 0.325636611893D-06 0.000000000000D+00  7 1 -1 23 -13 13 23 21 2 0.48458894D-01 0.36387995D-01 0.35842569D+05 0.35842569D+05 0.35842569D+05 0.11602331D+01  1  2  3  1  7  1        1 -.999347523516D-05 0.100000000000D+01
0.136608154752D-06 0.000000000000D+00 0.000000000000D+00 0.325636611893D-06 0.000000000000D+00  7 1 -1 23 -13 13 23 21 2 0.48458894D-01 0.36387995D-01 0.35842569D+05 0.35842569D+05 0.35842569D+05 0.11602331D+01  1  2 15  1  7  1        1 0.130919357264D-04 0.100000000000D+01
-.537703760772D-07 0.000000000000D+00 0.000000000000D+00 0.325636611893D-06 0.000000000000D+00  7 1 -1 23 -13 13 23 21 2 0.48458894D-01 0.36387995D-01 0.35842569D+05 0.35842569D+05 0.35842569D+05 0.11602331D+01  1  2  4  1  7  1        1 -.515312068203D-05 0.100000000000D+01
  </mgrwgt>
  </event>
  <event>
  8     66 0.24912036E-05 0.18158429E+03 0.75467711E-02 0.10214129E+00
        1 -1    0    0  501    0 0.00000000E+00 0.00000000E+00 0.15597788E+03 0.15597821E+03 0.32000000E+00 0.0000E+00 0.9000E+01
       -1 -1    0    0    0  501 0.00000000E+00 0.00000000E+00 -.40306740E+03 0.40306753E+03 0.32000000E+00 0.0000E+00 0.9000E+01
       25  2    1    2    0    0 -.31251597E+02 0.77194869E+02 -.37326460E+02 0.31480844E+03 0.30128952E+03 0.0000E+00 0.0000E+00
       23  2    1    2    0    0 0.31251597E+02 -.77194869E+02 -.20976306E+03 0.24423730E+03 0.93357406E+02 0.0000E+00 0.0000E+00
       23  1    3    3    0    0 -.31105032E+02 0.10919893E+03 0.77306637E+02 0.16487418E+03 0.91188000E+02 0.0000E+00 0.9000E+01
      -11  1    4    4    0    0 -.30755371E+02 -.30129448E+02 -.46538502E+02 0.63399595E+02 0.51099893E-03 0.0000E+00 0.9000E+01
       11  1    4    4    0    0 0.62006967E+02 -.47065421E+02 -.16322456E+03 0.18083770E+03 0.51099893E-03 0.0000E+00 0.9000E+01
       23  1    3    3    0    0 -.14656501E+00 -.32004059E+02 -.11463310E+03 0.14993425E+03 0.91188000E+02 0.0000E+00 0.9000E+01
#aMCatNLO 1  0  0  1  1 0.14523076D+03 0.00000000D+00  -5  7  0 0.00000000D+00 0.00000000D+00 0.00000000D+00 0.00000000D+00 0.00000000D+00
  <mgrwgt>
 0.1790950286D-03    3    2    0
 0.250738359451440D+03 0.000000000000000D+00 0.000000000000000D+00 0.250738359451440D+03
 0.250738359451440D+03 0.000000000000000D+00 0.000000000000000D+00 -.250738359451440D+03
 0.221892392773203D+03 -.311050319244807D+02 0.109198928470472D+03 0.167418797142063D+03
 0.477471753168321D+02 -.307553704887099D+02 -.301294480745702D+02 -.206425845174548D+02
 0.121173058267672D+03 0.620069674442693D+02 -.470654213748123D+02 -.928595291239266D+02
 0.110664092545172D+03 -.146565031078705D+00 -.320040590210898D+02 -.539166835006816D+02
 0.000000000000000D+00 -.000000000000000D+00 -.000000000000000D+00 -.000000000000000D+00
 0.278159256428515D+03 0.000000000000000D+00 0.000000000000000D+00 0.278159256428515D+03
 0.569085791638764D+03 0.000000000000000D+00 0.000000000000000D+00 -.569085791638764D+03
 0.239503281767391D+03 0.250884612023320D+02 0.142786855527230D+03 0.167418797142063D+03
 0.375871031044043D+02 -.203624876496590D+02 -.239174229577171D+02 -.206425845174548D+02
 0.134573089135072D+03 0.931543538834556D+02 -.284480319669833D+02 -.928595291239266D+02
 0.110419732147460D+03 0.267792885666707D+02 -.159099606431653D+02 -.539166835006816D+02
 0.325161841912953D+03 -.124659616002799D+03 -.745114399593645D+02 -.290926535210250D+03
0.256908973132D-05 0.000000000000D+00 0.000000000000D+00 0.100601263472D-07 0.000000000000D+00  7 1 -1 23 -11 11 23 21 0 0.23996632D-01 0.62010404D-01 0.32972853D+05 0.32972853D+05 0.32972853D+05 0.11635476D+01  1  2  2  1  7  1        1 0.176335294678D-03 0.100000000000D+01
-.124657151744D-06 0.000000000000D+00 -.986598102514D-08 0.100601263472D-07 0.000000000000D+00  7 1 -1 23 -11 11 23 21 2 0.23996632D-01 0.62010404D-01 0.32972853D+05 0.32972853D+05 0.32972853D+05 0.11635476D+01  1  2  3  1  7  1        1 -.115836523215D-04 0.100000000000D+01
0.154355951644D-06 0.000000000000D+00 0.000000000000D+00 0.100601263472D-07 0.000000000000D+00  7 1 -1 23 -11 11 23 21 2 0.23996632D-01 0.62010404D-01 0.32972853D+05 0.32972853D+05 0.32972853D+05 0.11635476D+01  1  2 15  1  7  1        1 0.143433862604D-04 0.100000000000D+01
  </mgrwgt>
  </event>
  <event>
  7     66 0.24912036E-05 0.54648072E+03 0.75467711E-02 0.90937810E-01
        1 -1    0    0  501    0 0.00000000E+00 0.00000000E+00 0.18750053E+04 0.18750053E+04 0.32000000E+00 0.0000E+00 0.9000E+01
       -1 -1    0    0    0  501 0.00000000E+00 0.00000000E+00 -.18065380E+03 0.18065408E+03 0.32000000E+00 0.0000E+00 0.9000E+01
       25  2    1    2    0    0 0.46155526E+03 -.10561681E+03 0.53711720E+03 0.77633852E+03 0.30003071E+03 0.0000E+00 0.0000E+00
       23  1    3    3    0    0 0.34860202E+02 -.72154770E+02 0.93770474E+02 0.15339393E+03 0.91188000E+02 0.0000E+00 0.9000E+01
      -13  1    1    2    0    0 -.30857762E+03 0.18685746E+03 0.65093766E+03 0.74421483E+03 0.10565837E+00 0.0000E+00 0.9000E+01
       13  1    1    2    0    0 -.15297764E+03 -.81240647E+02 0.50629663E+03 0.53510606E+03 0.10565837E+00 0.0000E+00 0.9000E+01
       23  1    3    3    0    0 0.42669506E+03 -.33462041E+02 0.44334673E+03 0.62294459E+03 0.91188000E+02 0.0000E+00 0.9000E+01
#aMCatNLO 1  0  0  2  1 0.27231936D+03 0.00000000D+00  -5  7  0 0.00000000D+00 0.00000000D+00 0.00000000D+00 0.00000000D+00 0.00000000D+00
  <mgrwgt>
 0.4989849224D-03    4    2    0
 0.582002699190556D+03 0.000000000000000D+00 0.000000000000000D+00 0.582002699190556D+03
 0.582002699190556D+03 0.000000000000000D+00 0.000000000000000D+00 -.582002699190556D+03
 0.134402914622136D+03 0.348604944885601D+02 -.721548372994622D+02 -.576829046878393D+02
 0.366780583239549D+03 -.308578189751734D+03 0.186855384850523D+03 0.662764075931230D+02
 0.208031980808433D+03 -.152978355563356D+03 -.812382795706748D+02 0.115218356613035D+03
 0.454789919710993D+03 0.426696050826530D+03 -.334622679803858D+02 -.123811859518319D+03
 0.000000000000000D+00 0.000000000000000D+00 0.000000000000000D+00 0.000000000000000D+00
 0.748643760660648D+03 0.000000000000000D+00 0.000000000000000D+00 0.748643760660648D+03
 0.720555947123518D+03 0.000000000000000D+00 0.000000000000000D+00 -.720555947123518D+03
 0.154846199854694D+03 0.345906253734061D+02 -.105537980881246D+03 -.576829046878393D+02
 0.333554467327970D+03 -.309231601606597D+03 0.106027529627048D+03 0.662764075931230D+02
 0.232943627449701D+03 -.153389785335304D+03 -.132132651618009D+03 0.115218356613035D+03
 0.474091358170045D+03 0.425829405585461D+03 -.140667357012448D+03 -.123811859518319D+03
 0.273764054981755D+03 0.220135598303400D+01 0.272310459884656D+03 0.280878135371300D+02
0.144803459282D-03 0.000000000000D+00 0.000000000000D+00 0.222164676319D-09 0.000000000000D+00  7 1 -1 23 -13 13 23 21 0 0.28846238D+00 0.27792915D-01 0.29864118D+06 0.29864118D+06 0.29864118D+06 0.10846978D+01  1  2  2  2  7  2       -1 0.733744889188D-03 0.100000000000D+01
-.800584492415D-05 0.000000000000D+00 -.556083411268D-06 0.222164676319D-09 0.000000000000D+00  7 1 -1 23 -13 13 23 21 2 0.28846238D+00 0.27792915D-01 0.29864118D+06 0.29864118D+06 0.29864118D+06 0.10846978D+01  1  2  3  2  7  2       -1 -.477299317143D-04 0.100000000000D+01
0.905070843475D-05 0.000000000000D+00 0.000000000000D+00 0.222164676319D-09 0.000000000000D+00  7 1 -1 23 -13 13 23 21 2 0.28846238D+00 0.27792915D-01 0.29864118D+06 0.29864118D+06 0.29864118D+06 0.10846978D+01  1  2 15  2  7  2       -1 0.539592884511D-04 0.100000000000D+01
-.404216616935D-04 0.000000000000D+00 0.000000000000D+00 0.222164676319D-09 0.000000000000D+00  7 1 -1 23 -13 13 23 21 2 0.28846238D+00 0.27792915D-01 0.29864118D+06 0.29864118D+06 0.29864118D+06 0.10846978D+01  1  2  4  2  7  2       -1 -.240989323512D-03 0.100000000000D+01
  </mgrwgt>
  </event>
  <event>
  9     66 0.24912036E-05 0.20174718E+03 0.75467711E-02 0.10275473E+00
        1 -1    0    0  501    0 0.00000000E+00 0.00000000E+00 0.91726133E+03 0.91726138E+03 0.32000000E+00 0.0000E+00 0.9000E+01
       21 -1    0    0  502  501 0.00000000E+00 0.00000000E+00 -.11205136E+03 0.11205387E+03 0.75000000E+00 0.0000E+00 0.9000E+01
       25  2    1    2    0    0 0.13439798E+03 -.36246501E+02 0.41129875E+03 0.52730199E+03 0.29917238E+03 0.0000E+00 0.0000E+00
       23  2    1    2    0    0 -.15813575E+03 -.64130453E+02 0.18034164E+03 0.26484015E+03 0.92182248E+02 0.0000E+00 0.0000E+00
       23  1    3    3    0    0 0.65227866E+02 0.19921463E+02 0.19817447E+02 0.11558340E+03 0.91188000E+02 0.0000E+00 0.9000E+01
      -11  1    4    4    0    0 -.68101877E+02 -.13218271E+02 0.16869726E+02 0.71394509E+02 0.51099893E-03 0.0000E+00 0.9000E+01
       11  1    4    4    0    0 -.90033876E+02 -.50912182E+02 0.16347192E+03 0.19344564E+03 0.51099893E-03 0.0000E+00 0.9000E+01
       23  1    3    3    0    0 0.69170111E+02 -.56167964E+02 0.39148130E+03 0.41171860E+03 0.91188000E+02 0.0000E+00 0.9000E+01
        1  1    1    2  502    0 0.23737776E+02 0.10037695E+03 0.21356958E+03 0.23717311E+03 0.32000000E+00 0.0000E+00 0.9000E+01
#aMCatNLO 2  0  0  2  1 0.10314560D+03 0.00000000D+00  -5  7  0 0.00000000D+00 0.00000000D+00 0.00000000D+00 0.00000000D+00 0.00000000D+00
  <mgrwgt>
 0.3062384380D-04    1    2    0
 0.258269150641747D+03 0.000000000000000D+00 0.000000000000000D+00 0.258269150641747D+03
 0.258269150641747D+03 0.000000000000000D+00 0.000000000000000D+00 -.258269150641747D+03
 0.161424038936890D+03 0.723493061324817D+02 0.500350035922375D+02 -.100022724019954D+03
 0.844669057155028D+02 -.641681643104265D+02 0.341572496397226D+01 -.548218722149495D+02
 0.953893344746598D+02 -.854220088420980D+02 -.314105568584896D+02 0.285584042750754D+02
 0.175258022156441D+03 0.772408670200428D+02 -.220401716977201D+02 0.126286191959828D+03
 0.000000000000000D+00 0.000000000000000D+00 0.000000000000000D+00 0.000000000000000D+00
 0.349155230557976D+03 0.000000000000000D+00 0.000000000000000D+00 0.349155230557976D+03
 0.294372086808181D+03 0.000000000000000D+00 0.000000000000000D+00 -.294372086808181D+03
 0.151562976508325D+03 0.652278658957530D+02 0.199214631585305D+02 -.100022724019954D+03
 0.884196018541734D+02 -.681018767989233D+02 -.132182712698208D+02 -.548218722149495D+02
 0.107302057815943D+03 -.900338763173145D+02 -.509121819614513D+02 0.285584042750754D+02
 0.179451380891424D+03 0.691701110763246D+02 -.561679643018438D+02 0.126286191959828D+03
 0.116791300296292D+03 0.237377761441603D+02 0.100376954374585D+03 0.547831437497955D+02
0.356275422372D-07 0.000000000000D+00 0.000000000000D+00 0.765269035738D-07 0.112011842044D-11  7 1 21 23 -11 11 23 1 2 0.14111722D+00 0.17238856D-01 0.66903860D+05 0.66903860D+05 0.66903860D+05 0.11363336D+01  1  2  1  4  7  2       -1 0.306238437985D-04 0.100000000000D+01
  </mgrwgt>
  </event>
  <event>
  8     66 0.24912036E-05 0.22585884E+03 0.75467711E-02 0.91850664E-01
        1 -1    0    0  501    0 0.00000000E+00 0.00000000E+00 0.45299149E+03 0.45299160E+03 0.32000000E+00 0.0000E+00 0.9000E+01
       -1 -1    0    0    0  501 0.00000000E+00 0.00000000E+00 -.12952821E+03 0.12952860E+03 0.32000000E+00 0.0000E+00 0.9000E+01
       25  2    1    2    0    0 -.11068494E+03 -.12607965E+02 0.29448086E+03 0.43558380E+03 0.30100523E+03 0.0000E+00 0.0000E+00
       23  2    1    2    0    0 0.11068494E+03 0.12607965E+02 0.28982419E+02 0.14693641E+03 0.91324754E+02 0.0000E+00 0.0000E+00
       23  1    3    3    0    0 -.16282477E+03 0.56758546E+02 0.17668572E+03 0.26318536E+03 0.91188000E+02 0.0000E+00 0.9000E+01
      -11  1    4    4    0    0 0.68614898E+01 0.25270226E+02 -.18509289E+02 0.32066465E+02 0.51099893E-03 0.0000E+00 0.9000E+01
       11  1    4    4    0    0 0.10382345E+03 -.12662261E+02 0.47491708E+02 0.11486994E+03 0.51099893E-03 0.0000E+00 0.9000E+01
       23  1    3    3    0    0 0.52139832E+02 -.69366511E+02 0.11779515E+03 0.17239844E+03 0.91188000E+02 0.0000E+00 0.9000E+01
#aMCatNLO 1  0  0  2  2 0.57116473D+03 0.00000000D+00  -5  7  0 0.00000000D+00 0.00000000D+00 0.00000000D+00 0.00000000D+00 0.00000000D+00
  <mgrwgt>
 0.2055224468D-03    3    2    0
 0.242229896963668D+03 0.000000000000000D+00 0.000000000000000D+00 0.242229896963668D+03
 0.242229896963668D+03 0.000000000000000D+00 0.000000000000000D+00 -.242229896963668D+03
 0.198487978047740D+03 -.162824767888068D+03 0.567585460352724D+02 0.367258560096094D+02
 0.509153481574914D+02 0.686148983403113D+01 0.252702259825966D+02 -.436658712731641D+02
 0.106411797210717D+03 0.103823446593778D+03 -.126622613389867D+02 -.195915711668805D+02
 0.128644670511387D+03 0.521398314602591D+02 -.693665106788823D+02 0.265315864304353D+02
 0.000000000000000D+00 0.000000000000000D+00 0.000000000000000D+00 0.000000000000000D+00
 0.163755015965932D+04 0.000000000000000D+00 0.000000000000000D+00 0.163755015965932D+04
 0.439046936489120D+03 0.000000000000000D+00 0.000000000000000D+00 -.439046936489120D+03
 0.301176408824527D+03 -.232856059809551D+03 -.163771929214903D+03 0.367258560096094D+02
 0.478688868500428D+02 -.698377867180984D+01 -.183289074873770D+02 -.436658712731641D+02
 0.141688509195571D+03 0.690505361358036D+02 -.122163118152062D+03 -.195915711668805D+02
 0.258219090586605D+03 -.208170143082121D+01 -.240111617461568D+03 0.265315864304353D+02
 0.132764420069170D+04 0.172871003776378D+03 0.544375572315910D+03 0.119850322317020D+04
0.171876184519D-05 0.000000000000D+00 0.000000000000D+00 0.590129791952D-07 0.000000000000D+00  7 1 -1 23 -11 11 23 21 0 0.69691037D-01 0.19927455D-01 0.51012215D+05 0.51012215D+05 0.51012215D+05 0.11465306D+01  1  2  2  2  7  2       -1 0.202719137189D-03 0.100000000000D+01
-.949182617288D-07 0.000000000000D+00 -.660049804591D-08 0.590129791952D-07 0.000000000000D+00  7 1 -1 23 -11 11 23 21 2 0.69691037D-01 0.19927455D-01 0.51012215D+05 0.51012215D+05 0.51012215D+05 0.11465306D+01  1  2  3  2  7  2       -1 -.147163494095D-04 0.100000000000D+01
0.112999191489D-06 0.000000000000D+00 0.000000000000D+00 0.590129791952D-07 0.000000000000D+00  7 1 -1 23 -11 11 23 21 2 0.69691037D-01 0.19927455D-01 0.51012215D+05 0.51012215D+05 0.51012215D+05 0.11465306D+01  1  2 15  2  7  2       -1 0.175196590693D-04 0.100000000000D+01
  </mgrwgt>
  </event>
  <event>
  8     66 0.24912036E-05 0.10286954E+03 0.75467711E-02 0.10408494E+00
        1 -1    0    0  501    0 0.00000000E+00 0.00000000E+00 0.11575497E+04 0.11575497E+04 0.32000000E+00 0.0000E+00 0.9000E+01
       -1 -1    0    0    0  501 0.00000000E+00 0.00000000E+00 -.59166398E+02 0.59167264E+02 0.32000000E+00 0.0000E+00 0.9000E+01
       25  2    1    2    0    0 -.39611445E+02 0.48269035E+02 0.10557897E+04 0.10988905E+04 0.29827775E+03 0.0000E+00 0.0000E+00
       23  2    1    2    0    0 0.39611445E+02 -.48269035E+02 0.42593626E+02 0.11782647E+03 0.90387458E+02 0.0000E+00 0.0000E+00
       23  1    3    3    0    0 0.12687964E+02 -.91533926E+02 0.45202451E+03 0.47029868E+03 0.91188000E+02 0.0000E+00 0.9000E+01
      -11  1    4    4    0    0 0.61154235E+01 -.68829594E+02 0.17799510E+02 0.71356387E+02 0.51099893E-03 0.0000E+00 0.9000E+01
       11  1    4    4    0    0 0.33496022E+02 0.20560559E+02 0.24794115E+02 0.46470079E+02 0.51099893E-03 0.0000E+00 0.9000E+01
       23  1    3    3    0    0 -.52299410E+02 0.13980296E+03 0.60376514E+03 0.62859183E+03 0.91188000E+02 0.0000E+00 0.9000E+01
#aMCatNLO 1  0  0  2  1 0.52985298D+02 0.00000000D+00  -5  7  0 0.00000000D+00 0.00000000D+00 0.00000000D+00 0.00000000D+00 0.00000000D+00
  <mgrwgt>
 0.1684867304D-03    9    2    0
 0.261703264543080D+03 0.000000000000000D+00 0.000000000000000D+00 0.261703264543080D+03
 0.261703264543080D+03 0.000000000000000D+00 0.000000000000000D+00 -.261703264543080D+03
 0.144675754469797D+03 0.126879644408285D+02 -.915339255648110D+02 0.638465239182912D+02
 0.128523125360618D+03 0.611542353025542D+01 -.688295934990459D+02 -.108366426564055D+03
 0.559937457254698D+02 0.334960217075809D+02 0.205605587094082D+02 -.398820701028772D+02
 0.194213903530274D+03 -.522994096786649D+02 0.139802960354449D+03 0.844019727486412D+02
 0.000000000000000D+00 0.000000000000000D+00 0.000000000000000D+00 -.000000000000000D+00
 0.278365951995949D+03 0.000000000000000D+00 0.000000000000000D+00 0.278365951995949D+03
 0.308838717764258D+03 0.000000000000000D+00 0.000000000000000D+00 -.308838717764258D+03
 0.146452160233851D+03 -.155751462836880D+01 -.951534519862268D+02 0.638465239182912D+02
 0.130295838310614D+03 -.654911306508623D+01 -.720474301614116D+02 -.108366426564055D+03
 0.524809327903178D+02 0.281881357774132D+02 0.192119179741418D+02 -.398820701028772D+02
 0.196852655922472D+03 -.714350892407501D+02 0.134940919742808D+03 0.844019727486412D+02
 0.611230825029516D+02 0.513535811567919D+02 0.130480444306885D+02 -.304727657683086D+02
0.149234979206D-05 0.000000000000D+00 0.000000000000D+00 0.290987831400D-07 0.000000000000D+00  7 1 -1 23 -11 11 23 21 0 0.17808464D+00 0.91025928D-02 0.42672105D+05 0.42672105D+05 0.42672105D+05 0.11533989D+01  1  2  2  2  7  2       -1 0.140532851253D-03 0.100000000000D+01
-.772671976491D-07 0.000000000000D+00 -.573101614624D-08 0.290987831400D-07 0.000000000000D+00  7 1 -1 23 -11 11 23 21 2 0.17808464D+00 0.91025928D-02 0.42672105D+05 0.42672105D+05 0.42672105D+05 0.11533989D+01  1  2  3  2  7  2       -1 -.967969084763D-05 0.100000000000D+01
0.903606486643D-07 0.000000000000D+00 0.000000000000D+00 0.290987831400D-07 0.000000000000D+00  7 1 -1 23 -11 11 23 21 2 0.17808464D+00 0.91025928D-02 0.42672105D+05 0.42672105D+05 0.42672105D+05 0.11533989D+01  1  2 15  2  7  2       -1 0.113199801529D-04 0.100000000000D+01
0.190234379418D-05 0.000000000000D+00 0.000000000000D+00 0.290987831400D-07 0.000000000000D+00  7 1 -1 23 -11 11 23 21 2 0.17808464D+00 0.10993217D-01 0.55010253D+05 0.55010253D+05 0.55010253D+05 0.11436652D+01  1  2 12  2  7  2       -1 0.175505164801D-03 0.100000000000D+01
-.195162079333D-05 0.000000000000D+00 0.000000000000D+00 0.290987831400D-07 0.000000000000D+00  7 1 -1 23 -11 11 23 21 2 0.17808464D+00 0.91025928D-02 0.42672105D+05 0.42672105D+05 0.42672105D+05 0.11533989D+01  1  2  4  2  7  2       -1 -.244490372448D-03 0.100000000000D+01
-.349723057212D-05 0.000000000000D+00 -.969682790846D-06 0.290987831400D-07 0.000000000000D+00  7 1 -1 23 -11 11 23 21 2 0.17808464D+00 0.11434879D-01 0.42672105D+05 0.42672105D+05 0.42672105D+05 0.11533989D+01  1  2  5  2  7  2       -1 -.309680608617D-03 0.100000000000D+01
0.364779986511D-05 0.000000000000D+00 0.944990335856D-06 0.290987831400D-07 0.000000000000D+00  7 1 -1 23 -11 11 23 21 2 0.17808464D+00 0.91025928D-02 0.42672105D+05 0.42672105D+05 0.42672105D+05 0.11533989D+01  1  2  6  2  7  2       -1 0.456980142190D-03 0.100000000000D+01
0.520553505090D-07 0.000000000000D+00 0.000000000000D+00 0.290987831400D-07 0.000000000000D+00  7 1 21 23 -11 11 23 1 2 0.17808464D+00 0.10993217D-01 0.55010253D+05 0.55010253D+05 0.55010253D+05 0.11436652D+01  1  2 12  4  7  2       -1 0.668944940138D-04 0.100000000000D+01
-.966045433236D-07 0.000000000000D+00 -.306568071675D-07 0.290987831400D-07 0.000000000000D+00  7 1 21 23 -11 11 23 1 2 0.17808464D+00 0.11434879D-01 0.42672105D+05 0.42672105D+05 0.42672105D+05 0.11533989D+01  1  2  5  4  7  2       -1 -.118895230049D-03 0.100000000000D+01
  </mgrwgt>
  </event>
  <event>
  8     66 0.24912036E-05 0.22792689E+03 0.75467711E-02 0.94952876E-01
        1 -1    0    0  501    0 0.00000000E+00 0.00000000E+00 0.17842614E+04 0.17842614E+04 0.32000000E+00 0.0000E+00 0.9000E+01
       -1 -1    0    0    0  501 0.00000000E+00 0.00000000E+00 -.48401776E+02 0.48402834E+02 0.32000000E+00 0.0000E+00 0.9000E+01
       25  2    1    2    0    0 0.85669218E+02 0.14742399E+03 0.14387799E+04 0.14787067E+04 0.29565643E+03 0.0000E+00 0.0000E+00
       23  2    1    2    0    0 -.85669218E+02 -.14742399E+03 0.29707971E+03 0.35395760E+03 0.89199649E+02 0.0000E+00 0.0000E+00
       23  1    3    3    0    0 0.97206795E+02 0.80355201E+02 0.12394888E+04 0.12492213E+04 0.91188000E+02 0.0000E+00 0.9000E+01
      -11  1    4    4    0    0 -.71240884E+02 -.47836762E+02 0.18115125E+03 0.20044799E+03 0.51099893E-03 0.0000E+00 0.9000E+01
       11  1    4    4    0    0 -.14428335E+02 -.99587225E+02 0.11592846E+03 0.15350961E+03 0.51099893E-03 0.0000E+00 0.9000E+01
       23  1    3    3    0    0 -.11537576E+02 0.67068786E+02 0.19929116E+03 0.22948541E+03 0.91188000E+02 0.0000E+00 0.9000E+01
#aMCatNLO 1  0  0  2  1 0.38627618D+03 0.00000000D+00  -5  7  0 0.00000000D+00 0.00000000D+00 0.00000000D+00 0.00000000D+00 0.00000000D+00
  <mgrwgt>
 0.4027331904D-03    3    2    0
 0.293874832182341D+03 0.000000000000000D+00 0.000000000000000D+00 0.293874832182341D+03
 0.293874832182341D+03 0.000000000000000D+00 0.000000000000000D+00 -.293874832182341D+03
 0.234495527095965D+03 0.972067949800293D+02 0.803552007681473D+02 0.175404622525279D+03
 0.900055266688759D+02 -.712408839834965D+02 -.478367618887713D+02 -.271546587566245D+02
 0.136275775223055D+03 -.144283345141699D+02 -.995872253104244D+02 -.918982841557047D+02
 0.126972835376786D+03 -.115375764823629D+02 0.670687864310484D+02 -.563516796129497D+02
 0.000000000000000D+00 0.000000000000000D+00 -.000000000000000D+00 0.000000000000000D+00
 0.586838579533897D+03 0.000000000000000D+00 0.000000000000000D+00 0.586838579533897D+03
 0.510272708950126D+03 0.000000000000000D+00 0.000000000000000D+00 -.510272708950126D+03
 0.290023352823522D+03 0.116121432511877D+02 0.211888344098668D+03 0.175404622525279D+03
 0.106889848089285D+03 -.103371645476832D+03 0.153851999461308D+01 -.271546587566245D+02
 0.113386565230417D+03 -.551699777591236D+02 -.369796173323465D+02 -.918982841557047D+02
 0.193020184594888D+03 -.637562708873003D+02 0.147313157743595D+03 -.563516796129497D+02
 0.393791337745911D+03 0.210685750872068D+03 -.323760404504529D+03 0.765658705837711D+02
0.809228842345D-05 0.000000000000D+00 0.000000000000D+00 0.128806652001D-08 0.000000000000D+00  7 1 -1 23 -11 11 23 21 0 0.27450184D+00 0.74465107D-02 0.51950666D+05 0.51950666D+05 0.51950666D+05 0.11458363D+01  1  2  2  2  7  2       -1 0.396246601572D-03 0.100000000000D+01
-.414270424588D-06 0.000000000000D+00 -.310765182945D-07 0.128806652001D-08 0.000000000000D+00  7 1 -1 23 -11 11 23 21 2 0.27450184D+00 0.74465107D-02 0.51950666D+05 0.51950666D+05 0.51950666D+05 0.11458363D+01  1  2  3  2  7  2       -1 -.266331941323D-04 0.100000000000D+01
0.515167144132D-06 0.000000000000D+00 0.000000000000D+00 0.128806652001D-08 0.000000000000D+00  7 1 -1 23 -11 11 23 21 2 0.27450184D+00 0.74465107D-02 0.51950666D+05 0.51950666D+05 0.51950666D+05 0.11458363D+01  1  2 15  2  7  2       -1 0.331197829869D-04 0.100000000000D+01
  </mgrwgt>
  </event>
  <event>
  8     66 0.24912036E-05 0.43524038E+03 0.75467711E-02 0.94661104E-01
        1 -1    0    0  501    0 0.00000000E+00 0.00000000E+00 0.15754143E+04 0.15754143E+04 0.32000000E+00 0.0000E+00 0.9000E+01
       -1 -1    0    0    0  501 0.00000000E+00 0.00000000E+00 -.28422375E+03 0.28422393E+03 0.32000000E+00 0.0000E+00 0.9000E+01
       25  2    1    2    0    0 0.12502054E+03 -.36673787E+03 0.13682377E+04 0.14537649E+04 0.30204496E+03 0.0000E+00 0.0000E+00
       23  2    1    2    0    0 -.12502054E+03 0.36673787E+03 -.77047173E+02 0.40587335E+03 0.93113440E+02 0.0000E+00 0.0000E+00
       23  1    3    3    0    0 0.41278687E+02 -.16155773E+02 0.15826913E+03 0.18796092E+03 0.91188000E+02 0.0000E+00 0.9000E+01
      -11  1    4    4    0    0 -.53881552E+02 0.52972614E+02 -.23990435E+01 0.75598114E+02 0.51099893E-03 0.0000E+00 0.9000E+01
       11  1    4    4    0    0 -.71138989E+02 0.31376525E+03 -.74648129E+02 0.33027524E+03 0.51099893E-03 0.0000E+00 0.9000E+01
       23  1    3    3    0    0 0.83741854E+02 -.35058209E+03 0.12099686E+04 0.12658040E+04 0.91188000E+02 0.0000E+00 0.9000E+01
#aMCatNLO 1  0  0  2  1 0.12438767D+03 0.00000000D+00  -5  7  0 0.00000000D+00 0.00000000D+00 0.00000000D+00 0.00000000D+00 0.00000000D+00
  <mgrwgt>
 0.1518747453D-03    4    2    0
 0.669156446369924D+03 0.000000000000000D+00 0.000000000000000D+00 0.669156446369924D+03
 0.669156446369924D+03 0.000000000000000D+00 0.000000000000000D+00 -.669156446369924D+03
 0.108482639521301D+03 0.412786871894924D+02 -.161557728177843D+02 0.385783970906077D+02
 0.107361115143515D+03 -.538815518851243D+02 0.529726136048435D+02 -.762698473787752D+02
 0.530950135025892D+03 -.711389890410557D+02 0.313765251616320D+03 -.422372651813984D+03
 0.591519003049139D+03 0.837418537366876D+02 -.350582092403380D+03 0.460064102102152D+03
 0.000000000000000D+00 -.000000000000000D+00 0.000000000000000D+00 0.000000000000000D+00
 0.801675075032696D+03 0.000000000000000D+00 0.000000000000000D+00 0.801675075032696D+03
 0.701878774380859D+03 0.000000000000000D+00 0.000000000000000D+00 -.701878774380859D+03
 0.111909098534477D+03 0.455217632909824D+02 -.254533167897331D+02 0.385783970906077D+02
 0.101265582079000D+03 -.498649813869434D+02 0.441713948828520D+02 -.762698473787752D+02
 0.503963085175857D+03 -.512143966289627D+02 0.270105941803438D+03 -.422372651813984D+03
 0.626943218377839D+03 0.107200210106638D+03 -.401984682091241D+03 0.460064102102152D+03
 0.159472865246382D+03 -.516425953817146D+02 0.113160662194684D+03 0.997963006518364D+02
0.519331887259D-04 0.000000000000D+00 0.000000000000D+00 0.800237758146D-07 0.000000000000D+00  7 1 -1 23 -11 11 23 21 0 0.24237144D+00 0.43726747D-01 0.18943419D+06 0.18943419D+06 0.18943419D+06 0.10996403D+01  1  2  2  2  7  2       -1 0.194859192516D-03 0.100000000000D+01
-.223619600434D-05 0.000000000000D+00 -.199437119030D-06 0.800237758146D-07 0.000000000000D+00  7 1 -1 23 -11 11 23 21 2 0.24237144D+00 0.43726747D-01 0.18943419D+06 0.18943419D+06 0.18943419D+06 0.10996403D+01  1  2  3  2  7  2       -1 -.101458189751D-04 0.100000000000D+01
0.293290895799D-05 0.000000000000D+00 0.000000000000D+00 0.800237758146D-07 0.000000000000D+00  7 1 -1 23 -11 11 23 21 2 0.24237144D+00 0.43726747D-01 0.18943419D+06 0.18943419D+06 0.18943419D+06 0.10996403D+01  1  2 15  2  7  2       -1 0.133068672427D-04 0.100000000000D+01
-.101707287383D-04 0.000000000000D+00 0.000000000000D+00 0.800237758146D-07 0.000000000000D+00  7 1 -1 23 -11 11 23 21 2 0.24237144D+00 0.43726747D-01 0.18943419D+06 0.18943419D+06 0.18943419D+06 0.10996403D+01  1  2  4  2  7  2       -1 -.461454954860D-04 0.100000000000D+01
  </mgrwgt>
  </event>
  <event>
  7     66 0.24912036E-05 0.37559287E+03 0.75467711E-02 0.90574984E-01
        1 -1    0    0  501    0 0.00000000E+00 0.00000000E+00 0.95981581E+03 0.95981587E+03 0.32000000E+00 0.0000E+00 0.9000E+01
       -1 -1    0    0    0  501 0.00000000E+00 0.00000000E+00 -.32849128E+03 0.32849144E+03 0.32000000E+00 0.0000E+00 0.9000E+01
       25  2    1    2    0    0 -.28311837E+03 0.98096144E+02 0.60238921E+03 0.73638918E+03 0.29936167E+03 0.0000E+00 0.0000E+00
       23  1    3    3    0    0 -.39412756E+02 -.38788098E+01 0.33560667E+03 0.35002214E+03 0.91188000E+02 0.0000E+00 0.9000E+01
      -11  1    1    2    0    0 0.31431977E+03 -.55011311E+02 -.15905851E+03 0.35654281E+03 0.51099893E-03 0.0000E+00 0.9000E+01
       11  1    1    2    0    0 -.31201398E+02 -.43084833E+02 0.18799384E+03 0.19537531E+03 0.51099893E-03 0.0000E+00 0.9000E+01
       23  1    3    3    0    0 -.24370562E+03 0.10197495E+03 0.26678254E+03 0.38636704E+03 0.91188000E+02 0.0000E+00 0.9000E+01
#aMCatNLO 1  0  0  1  2 0.54999977D+03 0.00000000D+00  -5  7  0 0.00000000D+00 0.00000000D+00 0.00000000D+00 0.00000000D+00 0.00000000D+00
  <mgrwgt>
 0.5535986741D-02    3    2    0
 0.561508022340478D+03 0.000000000000000D+00 0.000000000000000D+00 0.561508022340478D+03
 0.561508022340478D+03 0.000000000000000D+00 0.000000000000000D+00 -.561508022340478D+03
 0.212872634179132D+03 -.394127818431933D+02 -.387880090798642D+01 0.188231491970019D+03
 0.498438333204871D+03 0.314319789797700D+03 -.550113374215355D+02 -.382906769990651D+03
 0.118447314128347D+03 -.312013545829568D+02 -.430848279962597D+02 0.105829765628299D+03
 0.293257763168607D+03 -.243705653371550D+03 0.101974966325782D+03 0.888455123923329D+02
 0.000000000000000D+00 -.000000000000000D+00 -.000000000000000D+00 -.000000000000000D+00
 0.768657693402493D+03 0.000000000000000D+00 0.000000000000000D+00 0.768657693402493D+03
 0.115251235498622D+04 0.000000000000000D+00 0.000000000000000D+00 -.115251235498622D+04
 0.223078409127128D+03 0.260379084358192D+02 0.730729637398032D+02 0.188231491970019D+03
 0.634218026925015D+03 0.484369022980371D+03 0.144919152457592D+03 -.382906769990651D+03
 0.105916121353718D+03 0.248302798968835D+01 -.348138502283281D+01 0.105829765628299D+03
 0.287253270501177D+03 -.156551720718661D+03 0.204443693317726D+03 0.888455123923329D+02
 0.670704220481673D+03 -.356338238687218D+03 -.418954424492288D+03 -.383854661583724D+03
0.683545617648D-03 0.000000000000D+00 0.000000000000D+00 0.104564275704D-09 0.000000000000D+00  7 1 -1 23 -11 11 23 21 0 0.14766399D+00 0.50537136D-01 0.14107000D+06 0.14107000D+06 0.14107000D+06 0.11096616D+01  1  2  2  1  7  1        1 0.541469989592D-02 0.100000000000D+01
-.305087479145D-04 0.000000000000D+00 -.262499515346D-05 0.104564275704D-09 0.000000000000D+00  7 1 -1 23 -11 11 23 21 2 0.14766399D+00 0.50537136D-01 0.14107000D+06 0.14107000D+06 0.14107000D+06 0.11096616D+01  1  2  3  1  7  1        1 -.297585947976D-03 0.100000000000D+01
0.429431716870D-04 0.000000000000D+00 0.000000000000D+00 0.104564275704D-09 0.000000000000D+00  7 1 -1 23 -11 11 23 21 2 0.14766399D+00 0.50537136D-01 0.14107000D+06 0.14107000D+06 0.14107000D+06 0.11096616D+01  1  2 15  1  7  1        1 0.418872793187D-03 0.100000000000D+01
  </mgrwgt>
  </event>
  <event>
  9     66 0.24912036E-05 0.60961932E+03 0.75467711E-02 0.89017372E-01
        1 -1    0    0  501    0 0.00000000E+00 0.00000000E+00 0.24720626E+04 0.24720626E+04 0.32000000E+00 0.0000E+00 0.9000E+01
       -1 -1    0    0    0  502 0.00000000E+00 0.00000000E+00 -.10679148E+04 0.10679148E+04 0.32000000E+00 0.0000E+00 0.9000E+01
       25  2    1    2    0    0 0.36372387E+03 -.14063786E+03 0.20133250E+04 0.20727166E+04 0.30100264E+03 0.0000E+00 0.0000E+00
       23  2    1    2    0    0 -.78240192E+03 0.74020821E+02 -.89136345E+02 0.79631209E+03 0.92389413E+02 0.0000E+00 0.0000E+00
       23  1    3    3    0    0 0.22255618E+03 -.18835292E+03 0.14902416E+04 0.15212309E+04 0.91188000E+02 0.0000E+00 0.9000E+01
      -11  1    4    4    0    0 -.53998277E+03 0.80643352E+02 -.92651224E+02 0.55377702E+03 0.51099893E-03 0.0000E+00 0.9000E+01
       11  1    4    4    0    0 -.24241915E+03 -.66225308E+01 0.35148794E+01 0.24253506E+03 0.51099893E-03 0.0000E+00 0.9000E+01
       23  1    3    3    0    0 0.14116769E+03 0.47715063E+02 0.52308340E+03 0.55148576E+03 0.91188000E+02 0.0000E+00 0.9000E+01
       21  1    1    2  501  502 0.41867805E+03 0.66617040E+02 -.52004084E+03 0.67094872E+03 0.75000000E+00 0.0000E+00 0.9000E+01
#aMCatNLO 2  0  0  2  1 0.42394474D+03 0.00000000D+00  -5  7  0 0.00000000D+00 0.00000000D+00 0.00000000D+00 0.00000000D+00 0.00000000D+00
  <mgrwgt>
 0.5773009985D-04    2    2    0
 0.104272415603845D+04 0.000000000000000D+00 0.000000000000000D+00 0.104272415603845D+04
 0.104272415603845D+04 0.000000000000000D+00 0.000000000000000D+00 -.104272415603845D+04
 0.756470892382592D+03 0.367617654449714D+03 -.165271786536351D+03 0.633620909053740D+03
 0.741506708729525D+03 -.383795324585308D+03 0.105494775297447D+03 -.625623049689101D+03
 0.281541394414424D+03 -.182269765464773D+03 0.294800701776466D+01 -.214556749185054D+03
 0.305929316550360D+03 0.198447435600367D+03 0.568290042211394D+02 0.206558889820415D+03
 0.000000000000000D+00 0.000000000000000D+00 0.000000000000000D+00 -.000000000000000D+00
 0.109755177472773D+04 0.000000000000000D+00 0.000000000000000D+00 0.109755177472773D+04
 0.240530959395928D+04 0.000000000000000D+00 0.000000000000000D+00 -.240530959395928D+04
 0.703419353312777D+03 0.222556183266311D+03 -.188352924508249D+03 0.633620909053740D+03
 0.830354709601973D+03 -.539982771218319D+03 0.806433521331445D+02 -.625623049689101D+03
 0.323798551469687D+03 -.242419152293647D+03 -.662253080317774D+01 -.214556749185054D+03
 0.270530719949245D+03 0.141167690619784D+03 0.477150631718278D+02 0.206558889820415D+03
 0.137475803435332D+04 0.418678049625872D+03 0.666170400064542D+02 -.130775781923155D+04
-.322745023719D-03 0.000000000000D+00 0.000000000000D+00 0.163761771061D-05 0.000000000000D+00  7 1 -1 23 -11 11 23 21 2 0.36131874D+00 0.16359879D+00 0.71623636D+06 0.71623636D+06 0.71623636D+06 0.10576508D+01  1  2 13  2  7  2       -1 -.203833117347D-04 0.100000000000D+01
0.152663495446D-02 0.000000000000D+00 0.000000000000D+00 0.163761771061D-05 0.705909348084D-10  7 1 -1 23 -11 11 23 21 2 0.38031729D+00 0.16429457D+00 0.71623636D+06 0.71623636D+06 0.71623636D+06 0.10576508D+01  1  2  1  2  7  2       -1 0.781134115816D-04 0.100000000000D+01
  </mgrwgt>
  </event>
  <event>
  8     66 0.24912036E-05 0.10813241E+03 0.75467711E-02 0.99481358E-01
        1 -1    0    0  501    0 0.00000000E+00 0.00000000E+00 0.22927731E+03 0.22927754E+03 0.32000000E+00 0.0000E+00 0.9000E+01
       -1 -1    0    0    0  501 0.00000000E+00 0.00000000E+00 -.33864060E+03 0.33864075E+03 0.32000000E+00 0.0000E+00 0.9000E+01
       25  2    1    2    0    0 -.97475022E+02 -.11911292E+03 -.17158215E+03 0.37850652E+03 0.30022905E+03 0.0000E+00 0.0000E+00
       23  2    1    2    0    0 0.97475022E+02 0.11911292E+03 0.62218865E+02 0.18941177E+03 0.91194095E+02 0.0000E+00 0.0000E+00
       23  1    3    3    0    0 0.35402092E+02 -.14204964E+03 -.10945829E+03 0.20427378E+03 0.91188000E+02 0.0000E+00 0.9000E+01
      -13  1    4    4    0    0 0.11241496E+03 0.10758479E+03 0.67803354E+02 0.16973190E+03 0.10565837E+00 0.0000E+00 0.9000E+01
       13  1    4    4    0    0 -.14939941E+02 0.11528125E+02 -.55844890E+01 0.19679867E+02 0.10565837E+00 0.0000E+00 0.9000E+01
       23  1    3    3    0    0 -.13287711E+03 0.22936725E+02 -.62123861E+02 0.17423274E+03 0.91188000E+02 0.0000E+00 0.9000E+01
#aMCatNLO 1  0  0  1  2 0.14385134D+03 0.00000000D+00  -5  7  0 0.00000000D+00 0.00000000D+00 0.00000000D+00 0.00000000D+00 0.00000000D+00
  <mgrwgt>
 0.1432851027D-03    9    2    0
 0.278644419814634D+03 0.000000000000000D+00 0.000000000000000D+00 0.278644419814634D+03
 0.278644419814634D+03 0.000000000000000D+00 0.000000000000000D+00 -.278644419814634D+03
 0.186689721070487D+03 0.354020917676538D+02 -.142049645155915D+03 -.714590149591323D+02
 0.186275347779954D+03 0.112415133688687D+03 0.107584924136263D+03 0.102405209862057D+03
 0.189590962683067D+02 -.149401105438807D+02 0.115279961816463D+02 -.182913429892225D+01
 0.165364674510521D+03 -.132877114912460D+03 0.229367248380049D+02 -.291170606040019D+02
 0.000000000000000D+00 0.000000000000000D+00 0.000000000000000D+00 0.000000000000000D+00
 0.483878488395298D+03 0.000000000000000D+00 0.000000000000000D+00 0.483878488395298D+03
 0.314158550663847D+03 0.000000000000000D+00 0.000000000000000D+00 -.314158550663847D+03
 0.218195924524273D+03 0.680248299049280D+01 -.184774309743635D+03 -.714590149591323D+02
 0.153162128114142D+03 0.884385390118915D+02 0.717665332798176D+02 0.102405209862057D+03
 0.192529422848617D+02 -.176392661328447D+02 0.749575510775263D+01 -.182913429892225D+01
 0.184944439386567D+03 -.157621641465911D+03 -.140288716362512D+02 -.291170606040019D+02
 0.222481604749301D+03 0.800198855963714D+02 0.119540892992316D+03 0.169719937731451D+03
0.290824979644D-05 0.000000000000D+00 0.000000000000D+00 0.394664024660D-06 0.000000000000D+00  7 1 -1 23 -13 13 23 21 0 0.35273462D-01 0.52098582D-01 0.64954878D+05 0.64954878D+05 0.64954878D+05 0.11374317D+01  1  2  2  1  7  1        1 0.166774784570D-03 0.100000000000D+01
-.160005956448D-06 0.000000000000D+00 -.111684449781D-07 0.394664024660D-06 0.000000000000D+00  7 1 -1 23 -13 13 23 21 2 0.35273462D-01 0.52098582D-01 0.64954878D+05 0.64954878D+05 0.64954878D+05 0.11374317D+01  1  2  3  1  7  1        1 -.118709496556D-04 0.100000000000D+01
0.186677787975D-06 0.000000000000D+00 0.000000000000D+00 0.394664024660D-06 0.000000000000D+00  7 1 -1 23 -13 13 23 21 2 0.35273462D-01 0.52098582D-01 0.64954878D+05 0.64954878D+05 0.64954878D+05 0.11374317D+01  1  2 15  1  7  1        1 0.138497507972D-04 0.100000000000D+01
0.136252337131D-05 0.000000000000D+00 0.000000000000D+00 0.394664024660D-06 0.000000000000D+00  7 1 -1 23 -13 13 23 21 2 0.62080142D-01 0.52098582D-01 0.11079305D+06 0.11079305D+06 0.11079305D+06 0.11180875D+01  1  2 12  1  7  1        1 0.462429846055D-04 0.100000000000D+01
-.266274844429D-05 0.000000000000D+00 0.000000000000D+00 0.394664024660D-06 0.000000000000D+00  7 1 -1 23 -13 13 23 21 2 0.35273462D-01 0.52098582D-01 0.64954878D+05 0.64954878D+05 0.64954878D+05 0.11374317D+01  1  2  4  1  7  1        1 -.197551100155D-03 0.100000000000D+01
-.272813323122D-05 0.000000000000D+00 -.100637707143D-05 0.394664024660D-06 0.000000000000D+00  7 1 -1 23 -13 13 23 21 2 0.67156889D-01 0.52098582D-01 0.64954878D+05 0.64954878D+05 0.64954878D+05 0.11374317D+01  1  2  5  1  7  1        1 -.870367729659D-04 0.100000000000D+01
0.292608780959D-05 0.000000000000D+00 0.828589706482D-06 0.394664024660D-06 0.000000000000D+00  7 1 -1 23 -13 13 23 21 2 0.35273462D-01 0.52098582D-01 0.64954878D+05 0.64954878D+05 0.64954878D+05 0.11374317D+01  1  2  6  1  7  1        1 0.217088424997D-03 0.100000000000D+01
0.849437473411D-07 0.000000000000D+00 0.000000000000D+00 0.394664024660D-06 0.000000000000D+00  7 21 -1 23 -13 13 23 -1 2 0.62080142D-01 0.52098582D-01 0.11079305D+06 0.11079305D+06 0.11079305D+06 0.11180875D+01  1  2 12  3  7  1        1 0.106178836293D-04 0.100000000000D+01
-.133226171530D-06 0.000000000000D+00 -.703935677740D-07 0.394664024660D-06 0.000000000000D+00  7 21 -1 23 -13 13 23 -1 2 0.67156889D-01 0.52098582D-01 0.64954878D+05 0.64954878D+05 0.64954878D+05 0.11374317D+01  1  2  5  3  7  1        1 -.148299030910D-04 0.100000000000D+01
  </mgrwgt>
  </event>
  <event>
  8     66 0.24912036E-05 0.19320029E+03 0.75467711E-02 0.95520133E-01
        1 -1    0    0  501    0 0.00000000E+00 0.00000000E+00 0.17885308E+04 0.17885308E+04 0.32000000E+00 0.0000E+00 0.9000E+01
       -1 -1    0    0    0  501 0.00000000E+00 0.00000000E+00 -.69340334E+02 0.69341073E+02 0.32000000E+00 0.0000E+00 0.9000E+01
       25  2    1    2    0    0 -.17931118E+03 -.14556694E+03 0.14146544E+04 0.14645242E+04 0.30040270E+03 0.0000E+00 0.0000E+00
       23  2    1    2    0    0 0.17931118E+03 0.14556694E+03 0.30453607E+03 0.39334772E+03 0.92940712E+02 0.0000E+00 0.0000E+00
       23  1    3    3    0    0 -.21160569E+03 -.14807279E+03 0.11651827E+04 0.11969413E+04 0.91188000E+02 0.0000E+00 0.9000E+01
      -13  1    4    4    0    0 0.83632398E+02 0.61223555E+02 0.66070815E+02 0.12291487E+03 0.10565837E+00 0.0000E+00 0.9000E+01
       13  1    4    4    0    0 0.95678783E+02 0.84343385E+02 0.23846525E+03 0.27043285E+03 0.10565837E+00 0.0000E+00 0.9000E+01
       23  1    3    3    0    0 0.32294509E+02 0.25058485E+01 0.24947164E+03 0.26758282E+03 0.91188000E+02 0.0000E+00 0.9000E+01
#aMCatNLO 1  0  0  2  1 0.26679366D+03 0.00000000D+00  -5  7  0 0.00000000D+00 0.00000000D+00 0.00000000D+00 0.00000000D+00 0.00000000D+00
  <mgrwgt>
 0.1463853709D-03    7    2    0
 0.352161943405105D+03 0.000000000000000D+00 0.000000000000000D+00 0.352161943405105D+03
 0.352161943405105D+03 0.000000000000000D+00 0.000000000000000D+00 -.352161943405105D+03
 0.313197723570006D+03 -.211605691639928D+03 -.148072788977920D+03 0.151904717291208D+03
 0.162953151885478D+03 0.836323840285332D+02 0.612235265373748D+02 -.125741933536282D+03
 0.131278192260938D+03 0.956787983176980D+02 0.843434140764218D+02 -.310760328503216D+02
 0.968948190937888D+02 0.322945092936967D+02 0.250584836412346D+01 0.491324909539590D+01
 0.000000000000000D+00 -.000000000000000D+00 0.000000000000000D+00 -.000000000000000D+00
 0.461174403160730D+03 0.000000000000000D+00 0.000000000000000D+00 0.461174403160730D+03
 0.586934486483826D+03 0.000000000000000D+00 0.000000000000000D+00 -.586934486483826D+03
 0.262003671333642D+03 -.107062826158098D+03 -.160602554674657D+03 0.151904717291208D+03
 0.202946647155168D+03 0.150134680111008D+03 0.532530334351627D+02 -.125741933536282D+03
 0.172563902715948D+03 0.150902105396442D+03 0.777247405255628D+02 -.310760328503216D+02
 0.115646447082946D+03 0.709238888399238D+02 -.212399483458493D+01 0.491324909539590D+01
 0.294948221356852D+03 -.264897848189276D+03 0.317487755485162D+02 -.125760083323096D+03
0.538769099514D-05 0.000000000000D+00 0.000000000000D+00 0.259006761069D-06 0.000000000000D+00  7 1 -1 23 -13 13 23 21 0 0.27515864D+00 0.10667803D-01 0.90558232D+05 0.90558232D+05 0.90558232D+05 0.11252738D+01  1  2  2  2  7  2       -1 0.149932323667D-03 0.100000000000D+01
-.290320974749D-06 0.000000000000D+00 -.206901520330D-07 0.259006761069D-06 0.000000000000D+00  7 1 -1 23 -13 13 23 21 2 0.27515864D+00 0.10667803D-01 0.90558232D+05 0.90558232D+05 0.90558232D+05 0.11252738D+01  1  2  3  2  7  2       -1 -.102302782588D-04 0.100000000000D+01
0.339392250438D-06 0.000000000000D+00 0.000000000000D+00 0.259006761069D-06 0.000000000000D+00  7 1 -1 23 -13 13 23 21 2 0.27515864D+00 0.10667803D-01 0.90558232D+05 0.90558232D+05 0.90558232D+05 0.11252738D+01  1  2 15  2  7  2       -1 0.119594430401D-04 0.100000000000D+01
0.448631440154D-07 0.000000000000D+00 0.000000000000D+00 0.259006761069D-06 0.000000000000D+00  7 1 -1 23 -13 13 23 21 2 0.27515864D+00 0.18541645D-01 0.21383742D+06 0.21383742D+06 0.21383742D+06 0.10956009D+01  1  2 12  2  7  2       -1 0.612650484705D-06 0.100000000000D+01
-.929958213278D-06 0.000000000000D+00 -.168316386139D-05 0.259006761069D-06 0.000000000000D+00  7 1 -1 23 -13 13 23 21 2 0.27515864D+00 0.24187866D-01 0.90558232D+05 0.90558232D+05 0.90558232D+05 0.11252738D+01  1  2  5  2  7  2       -1 -.900170620619D-05 0.100000000000D+01
0.274470654479D-08 0.000000000000D+00 0.000000000000D+00 0.259006761069D-06 0.000000000000D+00  7 1 21 23 -13 13 23 1 2 0.27515864D+00 0.18541645D-01 0.21383742D+06 0.21383742D+06 0.21383742D+06 0.10956009D+01  1  2 12  4  7  2       -1 0.454036233296D-06 0.100000000000D+01
0.237332727479D-07 0.000000000000D+00 -.149731918215D-06 0.259006761069D-06 0.000000000000D+00  7 1 21 23 -13 13 23 1 2 0.27515864D+00 0.24187866D-01 0.90558232D+05 0.90558232D+05 0.90558232D+05 0.11252738D+01  1  2  5  4  7  2       -1 0.265890197269D-05 0.100000000000D+01
  </mgrwgt>
  </event>
  <event>
  8     66 0.24912036E-05 0.32021838E+03 0.75467711E-02 0.93634303E-01
        1 -1    0    0  501    0 0.00000000E+00 0.00000000E+00 0.22219268E+04 0.22219268E+04 0.32000000E+00 0.0000E+00 0.9000E+01
       -1 -1    0    0    0  501 0.00000000E+00 0.00000000E+00 -.10955556E+03 0.10955603E+03 0.32000000E+00 0.0000E+00 0.9000E+01
       25  2    1    2    0    0 0.43742132E+03 0.20641366E+02 0.12945817E+04 0.13994067E+04 0.30105434E+03 0.0000E+00 0.0000E+00
       23  2    1    2    0    0 -.43742132E+03 -.20641366E+02 0.81778954E+03 0.93207620E+03 0.90679810E+02 0.0000E+00 0.0000E+00
       23  1    3    3    0    0 0.39360006E+03 0.25421460E+02 0.82430769E+03 0.91834943E+03 0.91188000E+02 0.0000E+00 0.9000E+01
      -13  1    4    4    0    0 -.13180948E+03 -.39088542E+01 0.16601113E+03 0.21201114E+03 0.10565837E+00 0.0000E+00 0.9000E+01
       13  1    4    4    0    0 -.30561184E+03 -.16732511E+02 0.65177842E+03 0.72006506E+03 0.10565837E+00 0.0000E+00 0.9000E+01
       23  1    3    3    0    0 0.43821261E+02 -.47800944E+01 0.47027402E+03 0.48105723E+03 0.91188000E+02 0.0000E+00 0.9000E+01
#aMCatNLO 1  0  0  1  2 0.13871983D+03 0.00000000D+00  -5  7  0 0.00000000D+00 0.00000000D+00 0.00000000D+00 0.00000000D+00 0.00000000D+00
  <mgrwgt>
 0.2570282086D-03    9    2    0
 0.493381197659121D+03 0.000000000000000D+00 0.000000000000000D+00 0.493381197659121D+03
 0.493381197659121D+03 0.000000000000000D+00 0.000000000000000D+00 -.493381197659121D+03
 0.405236453156695D+03 0.393600062093271D+03 0.254214600314011D+02 -.182776397016536D+02
 0.145549728513442D+03 -.131809247960392D+03 -.390883681349164D+01 -.616097931924645D+02
 0.306073245555363D+03 -.305612075879389D+03 -.167325288238314D+02 -.145368519403992D+01
 0.129902968092743D+03 0.438212617465096D+02 -.478009439407809D+01 0.813411180881580D+02
 0.000000000000000D+00 -.000000000000000D+00 -.000000000000000D+00 0.000000000000000D+00
 0.629558119349063D+03 0.000000000000000D+00 0.000000000000000D+00 0.629558119349063D+03
 0.534865319932750D+03 0.000000000000000D+00 0.000000000000000D+00 -.534865319932750D+03
 0.462990628293757D+03 0.451412936007766D+03 0.440154476932040D+02 -.182776397016536D+02
 0.129172751042197D+03 -.113516227146650D+03 0.197463135331995D+01 -.616097931924645D+02
 0.267462838934574D+03 -.267421871903447D+03 -.444965593671883D+01 -.145368519403992D+01
 0.136839142274377D+03 0.615828915364698D+02 0.932465850833518D+00 0.813411180881580D+02
 0.167958078736906D+03 -.132057728494139D+03 -.424728889606386D+02 0.946927994163132D+02
0.237685917161D-04 0.000000000000D+00 0.000000000000D+00 0.437746805470D-06 0.000000000000D+00  7 1 -1 23 -13 13 23 21 0 0.34183493D+00 0.16854739D-01 0.22280515D+06 0.22280515D+06 0.22280515D+06 0.10942418D+01  1  2  2  1  7  1        1 0.162098495362D-03 0.100000000000D+01
-.131733283157D-05 0.000000000000D+00 -.912776506039D-07 0.437746805470D-06 0.000000000000D+00  7 1 -1 23 -13 13 23 21 2 0.34183493D+00 0.16854739D-01 0.22280515D+06 0.22280515D+06 0.22280515D+06 0.10942418D+01  1  2  3  1  7  1        1 -.107571599207D-04 0.100000000000D+01
0.149648479794D-05 0.000000000000D+00 0.000000000000D+00 0.437746805470D-06 0.000000000000D+00  7 1 -1 23 -13 13 23 21 2 0.34183493D+00 0.16854739D-01 0.22280515D+06 0.22280515D+06 0.22280515D+06 0.10942418D+01  1  2 15  1  7  1        1 0.122200904012D-04 0.100000000000D+01
0.198444636513D-04 0.000000000000D+00 0.000000000000D+00 0.437746805470D-06 0.000000000000D+00  7 1 -1 23 -13 13 23 21 2 0.44756417D+00 0.16854739D-01 0.29832395D+06 0.29832395D+06 0.29832395D+06 0.10847319D+01  1  2 12  1  7  1        1 0.519161376466D-04 0.100000000000D+01
-.210438700181D-04 0.000000000000D+00 0.000000000000D+00 0.437746805470D-06 0.000000000000D+00  7 1 -1 23 -13 13 23 21 2 0.34183493D+00 0.16854739D-01 0.22280515D+06 0.22280515D+06 0.22280515D+06 0.10942418D+01  1  2  4  1  7  1        1 -.171841367428D-03 0.100000000000D+01
-.369099877607D-04 0.000000000000D+00 -.964331216763D-05 0.437746805470D-06 0.000000000000D+00  7 1 -1 23 -13 13 23 21 2 0.44726411D+00 0.16854739D-01 0.22280515D+06 0.22280515D+06 0.22280515D+06 0.10942418D+01  1  2  5  1  7  1        1 -.100221381695D-03 0.100000000000D+01
0.384431305087D-04 0.000000000000D+00 0.930506769710D-05 0.437746805470D-06 0.000000000000D+00  7 1 -1 23 -13 13 23 21 2 0.34183493D+00 0.16854739D-01 0.22280515D+06 0.22280515D+06 0.22280515D+06 0.10942418D+01  1  2  6  1  7  1        1 0.313921351404D-03 0.100000000000D+01
0.709637378936D-06 0.000000000000D+00 0.000000000000D+00 0.437746805470D-06 0.000000000000D+00  7 21 -1 23 -13 13 23 -1 2 0.44756417D+00 0.16854739D-01 0.29832395D+06 0.29832395D+06 0.29832395D+06 0.10847319D+01  1  2 12  3  7  1        1 0.446472123848D-06 0.100000000000D+01
-.113568918738D-05 0.000000000000D+00 -.344217666268D-06 0.437746805470D-06 0.000000000000D+00  7 21 -1 23 -13 13 23 -1 2 0.44726411D+00 0.16854739D-01 0.22280515D+06 0.22280515D+06 0.22280515D+06 0.10942418D+01  1  2  5  3  7  1        1 -.754429338580D-06 0.100000000000D+01
  </mgrwgt>
  </event>
  <event>
  8     66 0.24912036E-05 0.17425166E+03 0.75467711E-02 0.10480911E+00
        1 -1    0    0  501    0 0.00000000E+00 0.00000000E+00 0.24579078E+04 0.24579078E+04 0.32000000E+00 0.0000E+00 0.9000E+01
       -1 -1    0    0    0  501 0.00000000E+00 0.00000000E+00 -.38723630E+02 0.38724952E+02 0.32000000E+00 0.0000E+00 0.9000E+01
       25  2    1    2    0    0 -.12550633E+02 -.13504005E+01 0.23762323E+04 0.23951818E+04 0.30042701E+03 0.0000E+00 0.0000E+00
       23  2    1    2    0    0 0.12550633E+02 0.13504005E+01 0.42951851E+02 0.10145099E+03 0.91039005E+02 0.0000E+00 0.0000E+00
       23  1    3    3    0    0 -.12522487E+03 -.11257430E+02 0.12564348E+04 0.12659983E+04 0.91188000E+02 0.0000E+00 0.9000E+01
      -13  1    4    4    0    0 0.20928660E+02 -.17492385E+02 -.20892791E+02 0.34358583E+02 0.10565837E+00 0.0000E+00 0.9000E+01
       13  1    4    4    0    0 -.83780269E+01 0.18842786E+02 0.63844642E+02 0.67092409E+02 0.10565837E+00 0.0000E+00 0.9000E+01
       23  1    3    3    0    0 0.11267424E+03 0.99070296E+01 0.11197976E+04 0.11291835E+04 0.91188000E+02 0.0000E+00 0.9000E+01
#aMCatNLO 1  0  0  1  1 0.73524818D+02 0.00000000D+00  -5  7  0 0.00000000D+00 0.00000000D+00 0.00000000D+00 0.00000000D+00 0.00000000D+00
  <mgrwgt>
 0.2566128943D-03    4    2    0
 0.308513840084527D+03 0.000000000000000D+00 0.000000000000000D+00 0.308513840084527D+03
 0.308513840084527D+03 0.000000000000000D+00 0.000000000000000D+00 -.308513840084527D+03
 0.196402255768567D+03 -.125224873967069D+03 -.112574301153625D+02 0.120210631535281D+03
 0.220937317174171D+03 0.209286996484096D+02 -.174924338991454D+02 -.219247126337908D+03
 0.211546335875532D+02 -.837806620814877D+01 0.188428343847829D+02 -.471954671373772D+01
 0.178533473638763D+03 0.112674240526808D+03 0.990702962972502D+01 0.103756041516366D+03
 0.000000000000000D+00 -.000000000000000D+00 0.000000000000000D+00 -.000000000000000D+00
 0.324166401735506D+03 0.000000000000000D+00 0.000000000000000D+00 0.324166401735506D+03
 0.411028739099995D+03 0.000000000000000D+00 0.000000000000000D+00 -.411028739099995D+03
 0.183042422708592D+03 -.102782125053074D+03 -.132104505030771D+02 0.120210631535281D+03
 0.225165509279751D+03 0.473140314024593D+02 -.197885470468596D+02 -.219247126337908D+03
 0.201150668491353D+02 -.593711611135589D+01 0.186304172106346D+02 -.471954671373772D+01
 0.193069837431927D+03 0.134653201569137D+03 0.799436914499780D+01 0.103756041516366D+03
 0.113802304566096D+03 -.732479918071658D+02 0.637421119430425D+01 -.868623373644883D+02
0.117991790070D-04 0.000000000000D+00 0.000000000000D+00 0.888239619104D-06 0.000000000000D+00  7 1 -1 23 -13 13 23 21 0 0.37813977D+00 0.59575849D-02 0.30363642D+05 0.30363642D+05 0.30363642D+05 0.11668507D+01  1  2  2  1  7  1        1 0.296202491288D-03 0.100000000000D+01
-.395411520352D-06 0.000000000000D+00 -.453119541822D-07 0.888239619104D-06 0.000000000000D+00  7 1 -1 23 -13 13 23 21 2 0.37813977D+00 0.59575849D-02 0.30363642D+05 0.30363642D+05 0.30363642D+05 0.11668507D+01  1  2  3  1  7  1        1 -.135150248183D-04 0.100000000000D+01
0.722709869522D-06 0.000000000000D+00 0.000000000000D+00 0.888239619104D-06 0.000000000000D+00  7 1 -1 23 -13 13 23 21 2 0.37813977D+00 0.59575849D-02 0.30363642D+05 0.30363642D+05 0.30363642D+05 0.11668507D+01  1  2 15  1  7  1        1 0.247019657251D-04 0.100000000000D+01
-.148557833369D-05 0.000000000000D+00 0.000000000000D+00 0.888239619104D-06 0.000000000000D+00  7 1 -1 23 -13 13 23 21 2 0.37813977D+00 0.59575849D-02 0.30363642D+05 0.30363642D+05 0.30363642D+05 0.11668507D+01  1  2  4  1  7  1        1 -.507765379005D-04 0.100000000000D+01
  </mgrwgt>
  </event>
  <event>
  9     66 -.24912036E-05 0.35838104E+03 0.75467711E-02 0.97828745E-01
        1 -1    0    0  502    0 0.00000000E+00 0.00000000E+00 0.45480133E+03 0.45480144E+03 0.32000000E+00 0.0000E+00 0.9000E+01
       -1 -1    0    0    0  501 0.00000000E+00 0.00000000E+00 -.39783558E+03 0.39783571E+03 0.32000000E+00 0.0000E+00 0.9000E+01
       25  2    1    2    0    0 -.23345602E+03 0.14477036E+03 0.19431124E+03 0.45094806E+03 0.30022846E+03 0.0000E+00 0.0000E+00
       23  2    1    2    0    0 0.27148139E+03 -.16304151E+03 -.14510319E+03 0.35878794E+03 0.85960283E+02 0.0000E+00 0.0000E+00
       23  1    3    3    0    0 -.20105968E+03 -.71679023E+01 0.14483641E+03 0.26413862E+03 0.91188000E+02 0.0000E+00 0.9000E+01
      -13  1    4    4    0    0 0.96551288E+01 -.47965394E+00 -.27115284E+02 0.28787173E+02 0.10565837E+00 0.0000E+00 0.9000E+01
       13  1    4    4    0    0 0.26182626E+03 -.16256186E+03 -.11798791E+03 0.33000077E+03 0.10565837E+00 0.0000E+00 0.9000E+01
       23  1    3    3    0    0 -.32396339E+02 0.15193826E+03 0.49474832E+02 0.18680944E+03 0.91188000E+02 0.0000E+00 0.9000E+01
       21  1    1    2  502  501 -.38025373E+02 0.18271155E+02 0.77577105E+01 0.42901150E+02 0.75000000E+00 0.0000E+00 0.9000E+01
#aMCatNLO 2  0  0  1  2 0.42187251D+02 0.00000000D+00  -5  7  0 0.00000000D+00 0.00000000D+00 0.00000000D+00 0.00000000D+00 0.00000000D+00
  <mgrwgt>
 -.1085848051D-03    3    2    0
 0.403568828048584D+03 0.000000000000000D+00 0.000000000000000D+00 0.403568828048584D+03
 0.403568828048584D+03 0.000000000000000D+00 0.000000000000000D+00 -.403568828048584D+03
 0.265468763361317D+03 -.213330378554599D+03 -.127184322979352D+01 0.129023040489430D+03
 0.300667927185402D+02 0.822924313055220D+01 0.205544455146971D+00 -.289179759553618D+02
 0.322241909413742D+03 0.246289604555932D+03 -.155096568420648D+03 -.138297987456204D+03
 0.189360190603568D+03 -.411884691318846D+02 0.156162867195295D+03 0.381929229221352D+02
 0.000000000000000D+00 -.000000000000000D+00 0.000000000000000D+00 0.000000000000000D+00
 0.427950578987176D+03 0.000000000000000D+00 0.000000000000000D+00 0.427950578987176D+03
 0.422790494975636D+03 0.000000000000000D+00 0.000000000000000D+00 -.422790494975636D+03
 0.255809636113849D+03 -.201059679660159D+03 -.716790223960682D+01 0.129023040489430D+03
 0.304908728127497D+02 0.965474796680251D+01 -.479409246806746D+00 -.289179759553618D+02
 0.337795739694639D+03 0.261826644378333D+03 -.162562101102915D+03 -.138297987456204D+03
 0.184143171361520D+03 -.323963394458108D+02 0.151938257342427D+03 0.381929229221352D+02
 0.425016539800550D+02 -.380253732391650D+02 0.182711552469012D+02 0.516008401154076D+01
-.240089299661D-04 0.000000000000D+00 0.000000000000D+00 0.571204397255D-07 0.000000000000D+00  7 1 -1 23 -13 13 23 21 2 0.71456209D-01 0.58422402D-01 0.14480638D+06 0.14480638D+06 0.14480638D+06 0.11087616D+01  1  2 13  1  7  1        1 -.533615853051D-03 0.100000000000D+01
-.474566415874D-10 0.000000000000D+00 0.000000000000D+00 0.571204397255D-07 0.000000000000D+00  7 1 -1 23 -13 13 23 21 2 0.65982551D-01 0.58422402D-01 0.12843697D+06 0.12843697D+06 0.12843697D+06 0.11129104D+01  1  2  8  1  7  1        1 -.118767110005D-08 0.100000000000D+01
0.202708779318D-04 0.000000000000D+00 0.000000000000D+00 0.571204397255D-07 0.211400610450D-09  7 1 -1 23 -13 13 23 21 2 0.69968910D-01 0.61205016D-01 0.14480638D+06 0.14480638D+06 0.14480638D+06 0.11087616D+01  1  2  1  1  7  1        1 0.425032235647D-03 0.100000000000D+01
  </mgrwgt>
  </event>
</LesHouchesEvents>
