<event>
12    7  0.1735955E-007  0.1728433E+04  0.7818608E-02  0.8745312E-01
          2   -1    0    0  501    0  0.00000000000E+00  0.00000000000E+00  0.22581706945E+04  0.22581706945E+04  0.00000000000E+00 0. -1.
         -1   -1    0    0    0  501 -0.00000000000E+00 -0.00000000000E+00 -0.33074126297E+03  0.33074126297E+03  0.00000000000E+00 0.  1.
         24    2    1    2    0    0  0.29059995296E+02 -0.24858587366E+03 -0.19418238256E+03  0.32655442318E+03  0.79319440820E+02 0.  0.
        254    2    1    2    0    0 -0.29059995296E+02  0.24858587366E+03  0.21216118141E+04  0.22623575343E+04  0.74457068393E+03 0.  0.
         23    2    4    4    0    0 -0.13361584232E+03  0.30807087214E+03  0.20739447897E+04  0.21030441312E+04  0.93737779221E+02 0.  0.
         23    2    4    4    0    0  0.10455584702E+03 -0.59484998478E+02  0.47667024374E+02  0.15931340313E+03  0.92942051906E+02 0.  0.
          2    1    3    3  502    0 -0.17122838955E+02 -0.21492712511E+02 -0.38787364721E+02  0.47535123508E+02  0.00000000000E+00 0. -1.
         -1    1    3    3    0  502  0.46182834251E+02 -0.22709316115E+03 -0.15539501784E+03  0.27901929968E+03  0.00000000000E+00 0.  1.
         13    1    5    5    0    0 -0.46109915273E+02  0.18501376987E+03  0.94483266052E+03  0.96388016668E+03  0.00000000000E+00 0. -1.
        -13    1    5    5    0    0 -0.87505927046E+02  0.12305710227E+03  0.11291121292E+04  0.11391639645E+04  0.00000000000E+00 0.  1.
          1    1    6    6  503    0 -0.84508439278E+01 -0.35432070169E+02  0.96700074844E+01  0.37687629327E+02  0.00000000000E+00 0. -1.
         -1    1    6    6    0  503  0.11300669095E+03 -0.24052928309E+02  0.37997016890E+02  0.12162577380E+03  0.00000000000E+00 0.  1.
<mgrwt>
<rscale>  0 0.17284331E+04</rscale>
<asrwt>0</asrwt>
<pdfrwt beam="1">  1        2 0.34741087E+00 0.17284331E+04</pdfrwt>
<pdfrwt beam="2">  1       -1 0.50883273E-01 0.17284331E+04</pdfrwt>
<totfact> 0.20107210E+01</totfact>
</mgrwt>
</event>
<event>
12    7  0.1735955E-007  0.1444856E+04  0.7818608E-02  0.8921974E-01
          2   -1    0    0  501    0  0.00000000000E+00  0.00000000000E+00  0.12312900038E+04  0.12312900038E+04  0.00000000000E+00 0. -1.
         -1   -1    0    0    0  501 -0.00000000000E+00 -0.00000000000E+00 -0.42386624509E+03  0.42386624509E+03  0.00000000000E+00 0.  1.
         24    2    1    2    0    0 -0.36843663691E+03  0.64849221768E+02  0.50681688305E+03  0.63405252068E+03  0.72168338321E+02 0.  0.
        254    2    1    2    0    0  0.36843663691E+03 -0.64849221768E+02  0.30060687562E+03  0.10211037282E+04  0.90129759403E+03 0.  0.
         23    2    4    4    0    0  0.11797530628E+03 -0.44514160723E+03  0.26918389841E+01  0.46950695126E+03  0.91434719331E+02 0.  0.
         23    2    4    4    0    0  0.25046133063E+03  0.38029238546E+03  0.29791503663E+03  0.55159677690E+03  0.90290966636E+02 0.  0.
          4    1    3    3  502    0 -0.21254796475E+03  0.21339167300E+01  0.26842891199E+03  0.34239636638E+03  0.00000000000E+00 0. -1.
         -3    1    3    3    0  502 -0.15588867216E+03  0.62715305038E+02  0.23838797106E+03  0.29165615430E+03  0.00000000000E+00 0.  1.
         13    1    5    5    0    0  0.67451150654E+02 -0.38156073909E+03 -0.82345495132E+01  0.38756426970E+03  0.00000000000E+00 0. -1.
        -13    1    5    5    0    0  0.50524155628E+02 -0.63580868143E+02  0.10926388497E+02  0.81942681561E+02  0.00000000000E+00 0.  1.
          3    1    6    6  503    0  0.20738741131E+03  0.24469532041E+03  0.22433138398E+03  0.39142037254E+03  0.00000000000E+00 0. -1.
         -3    1    6    6    0  503  0.43073919313E+02  0.13559706505E+03  0.73583652648E+02  0.16017640436E+03  0.00000000000E+00 0.  1.
<mgrwt>
<rscale>  0 0.14448561E+04</rscale>
<asrwt>0</asrwt>
<pdfrwt beam="1">  1        2 0.18942923E+00 0.14448561E+04</pdfrwt>
<pdfrwt beam="2">  1       -1 0.65210192E-01 0.14448561E+04</pdfrwt>
<totfact> 0.47849247E+01</totfact>
</mgrwt>
</event>
<event>
12    7  0.1735955E-007  0.1518903E+04  0.7818608E-02  0.8871979E-01
         -1   -1    0    0    0  501 -0.00000000000E+00  0.00000000000E+00  0.30520653459E+03  0.30520653459E+03  0.00000000000E+00 0.  1.
          2   -1    0    0  501    0  0.00000000000E+00 -0.00000000000E+00 -0.18897587352E+04  0.18897587352E+04  0.00000000000E+00 0. -1.
         24    2    1    2    0    0  0.46444532844E+03  0.10428598935E+03 -0.35562202651E+03  0.59959454406E+03  0.80383834432E+02 0.  0.
        254    2    1    2    0    0 -0.46444532844E+03 -0.10428598935E+03 -0.12289301741E+04  0.15953707258E+04  0.89908472852E+03 0.  0.
         23    2    4    4    0    0  0.22825248285E+03 -0.19287985323E+02 -0.10109519343E+03  0.26589481058E+03  0.89490724952E+02 0.  0.
         23    2    4    4    0    0 -0.69269781129E+03 -0.84998004027E+02 -0.11278349807E+04  0.13294759152E+04  0.91867006695E+02 0.  0.
          2    1    3    3  502    0  0.14653965087E+03  0.31071099204E+01 -0.13769605191E+03  0.20110625580E+03  0.00000000000E+00 0. -1.
         -1    1    3    3    0  502  0.31790567757E+03  0.10117887943E+03 -0.21792597460E+03  0.39848828826E+03  0.00000000000E+00 0.  1.
         13    1    5    5    0    0  0.30680213732E+02 -0.31872436161E+02 -0.37393656355E+02  0.57925928884E+02  0.00000000000E+00 0.  1.
        -13    1    5    5    0    0  0.19757226912E+03  0.12584450838E+02 -0.63701537078E+02  0.20796888169E+03  0.00000000000E+00 0. -1.
          3    1    6    6  503    0 -0.63430232695E+03 -0.92552288395E+02 -0.10674655503E+04  0.12451458023E+04  0.00000000000E+00 0. -1.
         -3    1    6    6    0  503 -0.58395484339E+02  0.75542843681E+01 -0.60369430448E+02  0.84330112867E+02  0.00000000000E+00 0.  1.
<mgrwt>
<rscale>  0 0.15189032E+04</rscale>
<asrwt>0</asrwt>
<pdfrwt beam="1">  1        2 0.29073212E+00 0.15189032E+04</pdfrwt>
<pdfrwt beam="2">  1       -1 0.46954851E-01 0.15189032E+04</pdfrwt>
<totfact> 0.38237977E+01</totfact>
</mgrwt>
</event>
<event>
12    7  0.1735955E-007  0.2190723E+04  0.7818608E-02  0.8522300E-01
          2   -1    0    0  501    0  0.00000000000E+00  0.00000000000E+00  0.15552698241E+04  0.15552698241E+04  0.00000000000E+00 0. -1.
         -1   -1    0    0    0  501 -0.00000000000E+00 -0.00000000000E+00 -0.77145222170E+03  0.77145222170E+03  0.00000000000E+00 0.  1.
         24    2    1    2    0    0  0.47044254275E+03  0.21359459977E+03  0.11202076327E+04  0.12361214481E+04  0.78690883611E+02 0.  0.
        254    2    1    2    0    0 -0.47044254275E+03 -0.21359459977E+03 -0.33639003026E+03  0.10906005977E+04  0.89961801455E+03 0.  0.
         23    2    4    4    0    0 -0.63155604440E+03 -0.48339970516E+02 -0.48362360874E+03  0.80203970759E+03  0.90421831708E+02 0.  0.
         23    2    4    4    0    0  0.16111350165E+03 -0.16525462926E+03  0.14723357848E+03  0.28856089008E+03  0.91230519837E+02 0.  0.
          2    1    3    3  502    0  0.37797341694E+03  0.16985123461E+03  0.96532310921E+03  0.10505056168E+04  0.00000000000E+00 0. -1.
         -1    1    3    3    0  502  0.92469125810E+02  0.43743365161E+02  0.15488452345E+03  0.18561583130E+03  0.00000000000E+00 0.  1.
         13    1    5    5    0    0 -0.62255764543E+03 -0.44748118160E+02 -0.48711000039E+03  0.79174274133E+03  0.00000000000E+00 0. -1.
        -13    1    5    5    0    0 -0.89983989701E+01 -0.35918523555E+01  0.34863916551E+01  0.10296966259E+02  0.00000000000E+00 0.  1.
          4    1    6    6  503    0  0.12853651831E+03 -0.75431679891E+02  0.11312825101E+03  0.18710846065E+03  0.00000000000E+00 0. -1.
         -4    1    6    6    0  503  0.32576983345E+02 -0.89822949367E+02  0.34105327465E+02  0.10145242944E+03  0.00000000000E+00 0.  1.
<mgrwt>
<rscale>  0 0.21907226E+04</rscale>
<asrwt>0</asrwt>
<pdfrwt beam="1">  1        2 0.23927228E+00 0.21907226E+04</pdfrwt>
<pdfrwt beam="2">  1       -1 0.11868496E+00 0.21907226E+04</pdfrwt>
<totfact> 0.78302783E+00</totfact>
</mgrwt>
</event>
<event>
12    7  0.1735955E-007  0.1281985E+04  0.7818608E-02  0.9043974E-01
         -1   -1    0    0    0  501 -0.00000000000E+00  0.00000000000E+00  0.20415210518E+03  0.20415210518E+03  0.00000000000E+00 0.  1.
          2   -1    0    0  501    0  0.00000000000E+00 -0.00000000000E+00 -0.20125761772E+04  0.20125761772E+04  0.00000000000E+00 0. -1.
         24    2    1    2    0    0 -0.21932375067E+03 -0.12812007224E+03 -0.28406682929E+03  0.38696283706E+03  0.67294971906E+02 0.  0.
        254    2    1    2    0    0  0.21932375067E+03  0.12812007224E+03 -0.15243572427E+04  0.18297654453E+04  0.97972390033E+03 0.  0.
         23    2    4    4    0    0  0.20082494798E+03 -0.35023734839E+03 -0.11287189130E+04  0.12022330240E+04  0.91438500937E+02 0.  0.
         23    2    4    4    0    0  0.18498802692E+02  0.47835742063E+03 -0.39563832974E+03  0.62753242133E+03  0.89995690421E+02 0.  0.
          2    1    3    3  502    0 -0.10259858983E+03 -0.51938624802E+02 -0.17754821304E+03  0.21153595281E+03  0.00000000000E+00 0. -1.
         -1    1    3    3    0  502 -0.11672516084E+03 -0.76181447438E+02 -0.10651861626E+03  0.17542688425E+03  0.00000000000E+00 0.  1.
         13    1    5    5    0    0  0.23335448309E+02 -0.53939041563E+01 -0.10010938201E+03  0.10293457007E+03  0.00000000000E+00 0. -1.
        -13    1    5    5    0    0  0.17748949967E+03 -0.34484344424E+03 -0.10286095310E+04  0.10992984539E+04  0.00000000000E+00 0.  1.
          2    1    6    6  503    0  0.33734132158E+02  0.10899948498E+03 -0.63563825853E+02  0.13061102310E+03  0.00000000000E+00 0. -1.
         -2    1    6    6    0  503 -0.15235329466E+02  0.36935793565E+03 -0.33207450388E+03  0.49692139823E+03  0.00000000000E+00 0.  1.
<mgrwt>
<rscale>  0 0.12819854E+04</rscale>
<asrwt>0</asrwt>
<pdfrwt beam="1">  1        2 0.30962709E+00 0.12819854E+04</pdfrwt>
<pdfrwt beam="2">  1       -1 0.31408018E-01 0.12819854E+04</pdfrwt>
<totfact> 0.69238677E+01</totfact>
</mgrwt>
</event>
<event>
12    7  0.1735955E-007  0.1229583E+04  0.7818608E-02  0.9087349E-01
         -1   -1    0    0    0  501 -0.00000000000E+00  0.00000000000E+00  0.36331625221E+03  0.36331625221E+03  0.00000000000E+00 0.  1.
          2   -1    0    0  501    0  0.00000000000E+00 -0.00000000000E+00 -0.10403296242E+04  0.10403296242E+04  0.00000000000E+00 0. -1.
         24    2    1    2    0    0 -0.19744263509E+03 -0.19387493635E+03 -0.16672611328E+03  0.33287468879E+03  0.80230147029E+02 0.  0.
        254    2    1    2    0    0  0.19744263509E+03  0.19387493635E+03 -0.51028725870E+03  0.10707711876E+04  0.89977039555E+03 0.  0.
         23    2    4    4    0    0  0.16048911760E+03 -0.33100695693E+03 -0.34222646175E+03  0.51089197531E+03  0.92570496959E+02 0.  0.
         23    2    4    4    0    0  0.36953517491E+02  0.52488189329E+03 -0.16806079695E+03  0.55987921229E+03  0.91398777484E+02 0.  0.
          4    1    3    3  502    0 -0.19093473349E+03 -0.19428628936E+03 -0.17390106430E+03  0.32317923023E+03  0.00000000000E+00 0. -1.
         -3    1    3    3    0  502 -0.65079016010E+01  0.41135300355E+00  0.71749510260E+01  0.96954585641E+01  0.00000000000E+00 0.  1.
         13    1    5    5    0    0  0.62685574212E+02 -0.22548606492E+03 -0.23306417340E+03  0.33029131931E+03  0.00000000000E+00 0.  1.
        -13    1    5    5    0    0  0.97803543384E+02 -0.10552089201E+03 -0.10916228834E+03  0.18060065600E+03  0.00000000000E+00 0. -1.
          3    1    6    6  503    0 -0.19997336820E+02  0.32756039621E+03 -0.11528577780E+03  0.34783116192E+03  0.00000000000E+00 0. -1.
         -3    1    6    6    0  503  0.56950854311E+02  0.19732149708E+03 -0.52775019151E+02  0.21204805036E+03  0.00000000000E+00 0.  1.
<mgrwt>
<rscale>  0 0.12295831E+04</rscale>
<asrwt>0</asrwt>
<pdfrwt beam="1">  1        2 0.16005071E+00 0.12295831E+04</pdfrwt>
<pdfrwt beam="2">  1       -1 0.55894809E-01 0.12295831E+04</pdfrwt>
<totfact> 0.86329267E+01</totfact>
</mgrwt>
</event>
<event>
12    7  0.1735955E-007  0.3214883E+04  0.7818608E-02  0.8184898E-01
         -1   -1    0    0    0  501 -0.00000000000E+00  0.00000000000E+00  0.11397550169E+04  0.11397550169E+04  0.00000000000E+00 0.  1.
          2   -1    0    0  501    0  0.00000000000E+00 -0.00000000000E+00 -0.22670377257E+04  0.22670377257E+04  0.00000000000E+00 0. -1.
         24    2    1    2    0    0  0.54029625428E+03 -0.28062397141E+03  0.91075652003E+03  0.10984738581E+04  0.80607210369E+02 0.  0.
        254    2    1    2    0    0 -0.54029625428E+03  0.28062397141E+03 -0.20380392288E+04  0.23083188845E+04  0.89669522060E+03 0.  0.
         23    2    4    4    0    0 -0.40551003469E+03 -0.27682980184E+03 -0.84749053917E+03  0.98369907211E+03  0.91381196376E+02 0.  0.
         23    2    4    4    0    0 -0.13478621959E+03  0.55745377325E+03 -0.11905486897E+04  0.13246198124E+04  0.91046310624E+02 0.  0.
          2    1    3    3  502    0  0.77223061027E+02 -0.13233043564E+02  0.95955395450E+02  0.12387878153E+03  0.00000000000E+00 0. -1.
         -1    1    3    3    0  502  0.46307319325E+03 -0.26739092785E+03  0.81480112458E+03  0.97459507654E+03  0.00000000000E+00 0.  1.
         13    1    5    5    0    0 -0.22030843455E+03 -0.20385251527E+03 -0.52343279617E+03  0.60338507309E+03  0.00000000000E+00 0.  1.
        -13    1    5    5    0    0 -0.18520160014E+03 -0.72977286566E+02 -0.32405774300E+03  0.38031399901E+03  0.00000000000E+00 0. -1.
          4    1    6    6  503    0 -0.23294800415E+02  0.17346523736E+02 -0.53057593447E+02  0.60486840176E+02  0.00000000000E+00 0. -1.
         -4    1    6    6    0  503 -0.11149141917E+03  0.54010724952E+03 -0.11374910962E+04  0.12641329723E+04  0.00000000000E+00 0.  1.
<mgrwt>
<rscale>  0 0.32148827E+04</rscale>
<asrwt>0</asrwt>
<pdfrwt beam="1">  1        2 0.34877503E+00 0.32148827E+04</pdfrwt>
<pdfrwt beam="2">  1       -1 0.17534693E+00 0.32148827E+04</pdfrwt>
<totfact> 0.10175919E+00</totfact>
</mgrwt>
</event>
<event>
12    7  0.1735955E-007  0.1443737E+04  0.7818608E-02  0.8922754E-01
         -1   -1    0    0    0  501 -0.00000000000E+00  0.00000000000E+00  0.91056374468E+03  0.91056374468E+03  0.00000000000E+00 0.  1.
          2   -1    0    0  501    0  0.00000000000E+00 -0.00000000000E+00 -0.57227656738E+03  0.57227656738E+03  0.00000000000E+00 0. -1.
         24    2    1    2    0    0 -0.19126693647E+03 -0.22309787207E+03 -0.22746023754E+03  0.37997273859E+03  0.79280646444E+02 0.  0.
        254    2    1    2    0    0  0.19126693647E+03  0.22309787207E+03  0.56574741484E+03  0.11028675735E+04  0.89993946780E+03 0.  0.
         23    2    4    4    0    0 -0.28254908625E+03  0.21228568812E+03  0.58640001155E+01  0.36334140678E+03  0.84162888882E+02 0.  0.
         23    2    4    4    0    0  0.47381602272E+03  0.10812183946E+02  0.55988341472E+03  0.73952616669E+03  0.93866854739E+02 0.  0.
          2    1    3    3  502    0 -0.17687066762E+03 -0.15729243806E+03 -0.16976714237E+03  0.29128169658E+03  0.00000000000E+00 0. -1.
         -1    1    3    3    0  502 -0.14396268851E+02 -0.65805434012E+02 -0.57693095167E+02  0.88691042007E+02  0.00000000000E+00 0.  1.
         13    1    5    5    0    0 -0.13244454049E+03  0.57427024690E+02 -0.21476897554E+02  0.14594751317E+03  0.00000000000E+00 0. -1.
        -13    1    5    5    0    0 -0.15010454576E+03  0.15485866343E+03  0.27340897670E+02  0.21739389362E+03  0.00000000000E+00 0.  1.
          2    1    6    6  503    0  0.22115417283E+03 -0.37038405246E+02  0.22949499008E+03  0.32085660675E+03  0.00000000000E+00 0.  1.
         -2    1    6    6    0  503  0.25266184989E+03  0.47850589192E+02  0.33038842465E+03  0.41866955993E+03  0.00000000000E+00 0. -1.
<mgrwt>
<rscale>  0 0.14437372E+04</rscale>
<asrwt>0</asrwt>
<pdfrwt beam="1">  1        2 0.88042549E-01 0.14437372E+04</pdfrwt>
<pdfrwt beam="2">  1       -1 0.14008673E+00 0.14437372E+04</pdfrwt>
<totfact> 0.24368743E+01</totfact>
</mgrwt>
</event>
<event>
12    7  0.1735955E-007  0.2031238E+04  0.7818608E-02  0.8592154E-01
         -1   -1    0    0    0  501 -0.00000000000E+00  0.00000000000E+00  0.31039790328E+03  0.31039790328E+03  0.00000000000E+00 0.  1.
          2   -1    0    0  501    0  0.00000000000E+00 -0.00000000000E+00 -0.33230956213E+04  0.33230956213E+04  0.00000000000E+00 0. -1.
         24    2    1    2    0    0 -0.56973911318E+03  0.56474489302E+03 -0.94830009816E+03  0.12446988197E+04  0.80390449572E+02 0.  0.
        254    2    1    2    0    0  0.56973911318E+03 -0.56474489302E+03 -0.20643976199E+04  0.23887947049E+04  0.89502131693E+03 0.  0.
         23    2    4    4    0    0  0.19462759610E+03 -0.39845151903E+03 -0.22992372626E+03  0.50693811793E+03  0.86474396961E+02 0.  0.
         23    2    4    4    0    0  0.37511151708E+03 -0.16629337399E+03 -0.18344738936E+04  0.18818565869E+04  0.87906831210E+02 0.  0.
          2    1    3    3  502    0 -0.25894480594E+03  0.20180648508E+03 -0.39610833218E+03  0.51447068018E+03  0.00000000000E+00 0. -1.
         -1    1    3    3    0  502 -0.31079430725E+03  0.36293840794E+03 -0.55219176598E+03  0.73022813955E+03  0.00000000000E+00 0.  1.
         13    1    5    5    0    0  0.14039718666E+03 -0.35603807799E+03 -0.18895087924E+03  0.42682188061E+03  0.00000000000E+00 0.  1.
        -13    1    5    5    0    0  0.54230409445E+02 -0.42413441039E+02 -0.40972847023E+02  0.80116237321E+02  0.00000000000E+00 0. -1.
          3    1    6    6  503    0  0.21894174775E+03 -0.13870692980E+03 -0.10501976791E+04  0.10817071076E+04  0.00000000000E+00 0. -1.
         -3    1    6    6    0  503  0.15616976933E+03 -0.27586444199E+02 -0.78427621446E+03  0.80014947936E+03  0.00000000000E+00 0.  1.
<mgrwt>
<rscale>  0 0.20312380E+04</rscale>
<asrwt>0</asrwt>
<pdfrwt beam="1">  1        2 0.51124549E+00 0.20312380E+04</pdfrwt>
<pdfrwt beam="2">  1       -1 0.47753523E-01 0.20312380E+04</pdfrwt>
<totfact> 0.49857073E+00</totfact>
</mgrwt>
</event>
<event>
12    7  0.1735955E-007  0.1649107E+04  0.7818608E-02  0.8790935E-01
         -1   -1    0    0    0  501 -0.00000000000E+00  0.00000000000E+00  0.94246060141E+03  0.94246060141E+03  0.00000000000E+00 0.  1.
          2   -1    0    0  501    0  0.00000000000E+00 -0.00000000000E+00 -0.72139762717E+03  0.72139762717E+03  0.00000000000E+00 0. -1.
         24    2    1    2    0    0  0.41075938067E+03  0.30203727047E+03  0.36129293417E+03  0.63176839724E+03  0.92999687701E+02 0.  0.
        254    2    1    2    0    0 -0.41075938067E+03 -0.30203727047E+03 -0.14022995993E+03  0.10320898313E+04  0.88633808264E+03 0.  0.
         23    2    4    4    0    0 -0.50328225161E+03  0.10068686943E+03 -0.26982037796E+03  0.58703541063E+03  0.91524130756E+02 0.  0.
         23    2    4    4    0    0  0.92522870937E+02 -0.40272413990E+03  0.12959041803E+03  0.44505442071E+03  0.10262819520E+03 0.  0.
          2    1    3    3  502    0  0.18372149860E+03  0.92768572992E+02  0.10818921406E+03  0.23251774819E+03  0.00000000000E+00 0. -1.
         -1    1    3    3    0  502  0.22703788207E+03  0.20926869748E+03  0.25310372011E+03  0.39925064906E+03  0.00000000000E+00 0.  1.
         13    1    5    5    0    0 -0.49657193896E+03  0.90180702267E+02 -0.24901960716E+03  0.56278505166E+03  0.00000000000E+00 0.  1.
        -13    1    5    5    0    0 -0.67103126503E+01  0.10506167162E+02 -0.20800770798E+02  0.24250358968E+02  0.00000000000E+00 0. -1.
          3    1    6    6  503    0  0.62758582962E+02 -0.85393227413E+02  0.18835517365E+02  0.10763558769E+03  0.00000000000E+00 0. -1.
         -3    1    6    6    0  503  0.29764287975E+02 -0.31733091249E+03  0.11075490066E+03  0.33741883302E+03  0.00000000000E+00 0.  1.
<mgrwt>
<rscale>  0 0.16491074E+04</rscale>
<asrwt>0</asrwt>
<pdfrwt beam="1">  1        2 0.11098425E+00 0.16491074E+04</pdfrwt>
<pdfrwt beam="2">  1       -1 0.14499394E+00 0.16491074E+04</pdfrwt>
<totfact> 0.16438671E+01</totfact>
</mgrwt>
</event>
<event>
12    7  0.1735955E-007  0.2395822E+04  0.7818608E-02  0.8441069E-01
          2   -1    0    0  501    0  0.00000000000E+00  0.00000000000E+00  0.22121200178E+04  0.22121200178E+04  0.00000000000E+00 0. -1.
         -1   -1    0    0    0  501 -0.00000000000E+00 -0.00000000000E+00 -0.64869505238E+03  0.64869505238E+03  0.00000000000E+00 0.  1.
         24    2    1    2    0    0  0.70579548192E+02  0.90799797312E+02  0.18936512979E+04  0.18987970097E+04  0.79301766362E+02 0.  0.
        254    2    1    2    0    0 -0.70579548192E+02 -0.90799797312E+02 -0.33022633244E+03  0.96201806053E+03  0.89621606899E+03 0.  0.
         23    2    4    4    0    0 -0.23742862573E+03 -0.25926348591E+03 -0.52866987722E+03  0.64012147562E+03  0.81693065976E+02 0.  0.
         23    2    4    4    0    0  0.16684907754E+03  0.16846368859E+03  0.19844354477E+03  0.32189658491E+03  0.89548544739E+02 0.  0.
          4    1    3    3  502    0  0.53812951950E+02  0.47141276964E+02  0.15858692499E+04  0.15874820981E+04  0.00000000000E+00 0. -1.
         -3    1    3    3    0  502  0.16766596241E+02  0.43658520349E+02  0.30778204793E+03  0.31131491159E+03  0.00000000000E+00 0.  1.
         13    1    5    5    0    0 -0.23295151302E+03 -0.22818336765E+03 -0.45269244733E+03  0.55791084284E+03  0.00000000000E+00 0. -1.
        -13    1    5    5    0    0 -0.44771127107E+01 -0.31080118254E+02 -0.75977429889E+02  0.82210632776E+02  0.00000000000E+00 0.  1.
          1    1    6    6  503    0  0.10967597234E+03  0.16234167395E+03  0.15560936146E+03  0.25019574613E+03  0.00000000000E+00 0. -1.
         -1    1    6    6    0  503  0.57173105198E+02  0.61220146461E+01  0.42834183315E+02  0.71700838779E+02  0.00000000000E+00 0.  1.
<mgrwt>
<rscale>  0 0.23958225E+04</rscale>
<asrwt>0</asrwt>
<pdfrwt beam="1">  1        2 0.34032615E+00 0.23958225E+04</pdfrwt>
<pdfrwt beam="2">  1       -1 0.99799240E-01 0.23958225E+04</pdfrwt>
<totfact> 0.49808446E+00</totfact>
</mgrwt>
</event>
<event>
12    7  0.1735955E-007  0.1832813E+04  0.7818608E-02  0.8689042E-01
          2   -1    0    0  501    0  0.00000000000E+00  0.00000000000E+00  0.31926629356E+04  0.31926629356E+04  0.00000000000E+00 0. -1.
         -1   -1    0    0    0  501 -0.00000000000E+00 -0.00000000000E+00 -0.26304090273E+03  0.26304090273E+03  0.00000000000E+00 0.  1.
         24    2    1    2    0    0  0.13976036100E+03  0.59468544521E+03  0.17134919612E+04  0.18207601386E+04  0.77000284761E+02 0.  0.
        254    2    1    2    0    0 -0.13976036100E+03 -0.59468544521E+03  0.12161300717E+04  0.16349436998E+04  0.90602693832E+03 0.  0.
         23    2    4    4    0    0  0.64646797505E+02 -0.52213682625E+03  0.12819121288E+04  0.13883101788E+04  0.85442218750E+02 0.  0.
         23    2    4    4    0    0 -0.20440715851E+03 -0.72548618957E+02 -0.65782057054E+02  0.24663352107E+03  0.97237987034E+02 0.  0.
          4    1    3    3  502    0  0.13720692005E+03  0.58127548337E+03  0.16261912216E+04  0.17323985730E+04  0.00000000000E+00 0. -1.
         -3    1    3    3    0  502  0.25534409523E+01  0.13409961836E+02  0.87300739615E+02  0.88361565595E+02  0.00000000000E+00 0.  1.
         13    1    5    5    0    0  0.84334226850E+02 -0.46454906656E+03  0.11322789902E+04  0.12267737398E+04  0.00000000000E+00 0. -1.
        -13    1    5    5    0    0 -0.19687429345E+02 -0.57587759692E+02  0.14963313862E+03  0.16153643897E+03  0.00000000000E+00 0.  1.
          2    1    6    6  503    0 -0.18198863302E+03 -0.24251804366E+02 -0.42123383901E+02  0.18836770433E+03  0.00000000000E+00 0. -1.
         -2    1    6    6    0  503 -0.22418525487E+02 -0.48296814591E+02 -0.23658673153E+02  0.58265816737E+02  0.00000000000E+00 0.  1.
<mgrwt>
<rscale>  0 0.18328131E+04</rscale>
<asrwt>0</asrwt>
<pdfrwt beam="1">  1        2 0.49117888E+00 0.18328131E+04</pdfrwt>
<pdfrwt beam="2">  1       -1 0.40467834E-01 0.18328131E+04</pdfrwt>
<totfact> 0.84214872E+00</totfact>
</mgrwt>
</event>
<event>
12    7  0.1735955E-007  0.2041668E+04  0.7818608E-02  0.8587384E-01
         -1   -1    0    0    0  501 -0.00000000000E+00  0.00000000000E+00  0.74851634228E+03  0.74851634228E+03  0.00000000000E+00 0.  1.
          2   -1    0    0  501    0  0.00000000000E+00 -0.00000000000E+00 -0.13922230727E+04  0.13922230727E+04  0.00000000000E+00 0. -1.
         24    2    1    2    0    0 -0.15138883195E+03 -0.80129498381E+03 -0.11242031932E+03  0.82718734671E+03  0.81291751350E+02 0.  0.
        254    2    1    2    0    0  0.15138883195E+03  0.80129498381E+03 -0.53128641113E+03  0.13135520683E+04  0.88213465863E+03 0.  0.
         23    2    4    4    0    0 -0.19970213308E+03 -0.37318681511E+02 -0.29534928453E+03  0.36992911518E+03  0.91338515637E+02 0.  0.
         23    2    4    4    0    0  0.35109096502E+03  0.83861366532E+03 -0.23593712660E+03  0.94362295312E+03  0.90665343734E+02 0.  0.
          4    1    3    3  502    0 -0.34992923719E+02 -0.33934792895E+03 -0.75292846083E+02  0.34935731603E+03  0.00000000000E+00 0. -1.
         -3    1    3    3    0  502 -0.11639590823E+03 -0.46194705486E+03 -0.37127473236E+02  0.47783003068E+03  0.00000000000E+00 0.  1.
         13    1    5    5    0    0 -0.16647548656E+03 -0.62587775355E+02 -0.26117646602E+03  0.31598174576E+03  0.00000000000E+00 0. -1.
        -13    1    5    5    0    0 -0.33226646512E+02  0.25269093844E+02 -0.34172818509E+02  0.53947369417E+02  0.00000000000E+00 0.  1.
          4    1    6    6  503    0  0.26801505518E+03  0.70002348670E+03 -0.22033581808E+03  0.78128920667E+03  0.00000000000E+00 0. -1.
         -4    1    6    6    0  503  0.83075909844E+02  0.13859017863E+03 -0.15601308518E+02  0.16233374645E+03  0.00000000000E+00 0.  1.
<mgrwt>
<rscale>  0 0.20416677E+04</rscale>
<asrwt>0</asrwt>
<pdfrwt beam="1">  1        2 0.21418816E+00 0.20416677E+04</pdfrwt>
<pdfrwt beam="2">  1       -1 0.11515636E+00 0.20416677E+04</pdfrwt>
<totfact> 0.10555228E+01</totfact>
</mgrwt>
</event>
<event>
12    7  0.1735955E-007  0.1666159E+04  0.7818608E-02  0.8780904E-01
         -1   -1    0    0    0  501 -0.00000000000E+00  0.00000000000E+00  0.38188094686E+03  0.38188094686E+03  0.00000000000E+00 0.  1.
          2   -1    0    0  501    0  0.00000000000E+00 -0.00000000000E+00 -0.18173755070E+04  0.18173755070E+04  0.00000000000E+00 0. -1.
         24    2    1    2    0    0  0.97259700902E+01 -0.16010984608E+03  0.22783291768E+03  0.28961538726E+03  0.78990359233E+02 0.  0.
        254    2    1    2    0    0 -0.97259700902E+01  0.16010984608E+03 -0.16633274778E+04  0.19096410666E+04  0.92430565693E+03 0.  0.
         23    2    4    4    0    0 -0.30995825093E+03  0.21218627190E+03 -0.24880405916E+03  0.45963539189E+03  0.90907108181E+02 0.  0.
         23    2    4    4    0    0  0.30023228084E+03 -0.52076425827E+02 -0.14145234186E+04  0.14500056747E+04  0.93747416735E+02 0.  0.
          4    1    3    3  502    0  0.66981021278E+01 -0.38386525656E+02  0.12272707052E+03  0.12876460601E+03  0.00000000000E+00 0. -1.
         -3    1    3    3    0  502  0.30278679624E+01 -0.12172332042E+03  0.10510584717E+03  0.16085078124E+03  0.00000000000E+00 0.  1.
         13    1    5    5    0    0 -0.74968516196E+02  0.87553061143E+02 -0.11117839480E+03  0.16014509798E+03  0.00000000000E+00 0.  1.
        -13    1    5    5    0    0 -0.23498973474E+03  0.12463321076E+03 -0.13762566435E+03  0.29949029391E+03  0.00000000000E+00 0. -1.
          1    1    6    6  503    0  0.69720050270E+02  0.14523308596E+02 -0.47591914687E+03  0.48121808597E+03  0.00000000000E+00 0. -1.
         -1    1    6    6    0  503  0.23051223057E+03 -0.66599734423E+02 -0.93860427177E+03  0.96878758872E+03  0.00000000000E+00 0.  1.
<mgrwt>
<rscale>  0 0.16661586E+04</rscale>
<asrwt>0</asrwt>
<pdfrwt beam="1">  1        2 0.27959623E+00 0.16661586E+04</pdfrwt>
<pdfrwt beam="2">  1       -1 0.58750915E-01 0.16661586E+04</pdfrwt>
<totfact> 0.26928637E+01</totfact>
</mgrwt>
</event>
<event>
12    7  0.1735955E-007  0.1836121E+04  0.7818608E-02  0.8687323E-01
          2   -1    0    0  501    0  0.00000000000E+00  0.00000000000E+00  0.14354830082E+04  0.14354830082E+04  0.00000000000E+00 0. -1.
         -1   -1    0    0    0  501 -0.00000000000E+00 -0.00000000000E+00 -0.58714360339E+03  0.58714360339E+03  0.00000000000E+00 0.  1.
         24    2    1    2    0    0  0.46465191668E+02 -0.50999953054E+03  0.84170945314E+03  0.98847607609E+03  0.79697015624E+02 0.  0.
        254    2    1    2    0    0 -0.46465191668E+02  0.50999953054E+03  0.66299516885E+01  0.10341505355E+04  0.89842352967E+03 0.  0.
         23    2    4    4    0    0  0.21730640365E+03 -0.16885747146E+03  0.66365639061E+02  0.29801929058E+03  0.93146018554E+02 0.  0.
         23    2    4    4    0    0 -0.26377159532E+03  0.67885700201E+03 -0.59735687372E+02  0.73613124494E+03  0.88873920561E+02 0.  0.
          2    1    3    3  502    0  0.62293225327E+02 -0.33560223685E+03  0.59463168711E+03  0.68563558150E+03  0.00000000000E+00 0. -1.
         -1    1    3    3    0  502 -0.15828033658E+02 -0.17439729369E+03  0.24707776604E+03  0.30284049459E+03  0.00000000000E+00 0.  1.
         13    1    5    5    0    0  0.16977587150E+03 -0.17324160694E+03  0.50912851474E+02  0.24784797632E+03  0.00000000000E+00 0. -1.
        -13    1    5    5    0    0  0.47530532149E+02  0.43841354799E+01  0.15452787587E+02  0.50171314259E+02  0.00000000000E+00 0.  1.
          4    1    6    6  503    0 -0.18865772888E+03  0.36372363044E+03 -0.32464442134E+02  0.41102379251E+03  0.00000000000E+00 0.  1.
         -4    1    6    6    0  503 -0.75113866439E+02  0.31513337156E+03 -0.27271245239E+02  0.32510745242E+03  0.00000000000E+00 0. -1.
<mgrwt>
<rscale>  0 0.18361205E+04</rscale>
<asrwt>0</asrwt>
<pdfrwt beam="1">  1        2 0.22084354E+00 0.18361205E+04</pdfrwt>
<pdfrwt beam="2">  1       -1 0.90329785E-01 0.18361205E+04</pdfrwt>
<totfact> 0.17752348E+01</totfact>
</mgrwt>
</event>
<event>
12    7  0.1735955E-007  0.3717474E+04  0.7818608E-02  0.8064100E-01
          2   -1    0    0  501    0  0.00000000000E+00  0.00000000000E+00  0.18112017974E+04  0.18112017974E+04  0.00000000000E+00 0. -1.
         -1   -1    0    0    0  501 -0.00000000000E+00 -0.00000000000E+00 -0.19075200743E+04  0.19075200743E+04  0.00000000000E+00 0.  1.
         24    2    1    2    0    0  0.16079673480E+03 -0.16028872682E+04  0.62789944002E+03  0.17308404229E+04  0.80297435444E+02 0.  0.
        254    2    1    2    0    0 -0.16079673480E+03  0.16028872682E+04 -0.72421771697E+03  0.19878814488E+04  0.91218318805E+03 0.  0.
         23    2    4    4    0    0  0.78944262597E+02  0.79437572142E+03  0.95248814601E+02  0.80888825903E+03  0.89235057791E+02 0.  0.
         23    2    4    4    0    0 -0.23974099739E+03  0.80851154677E+03 -0.81946653157E+03  0.11789931898E+04  0.85632225926E+02 0.  0.
          4    1    3    3  502    0  0.20672272128E+02 -0.27742285441E+03  0.14059267321E+03  0.31170030918E+03  0.00000000000E+00 0. -1.
         -3    1    3    3    0  502  0.14012446267E+03 -0.13254644138E+04  0.48730676681E+03  0.14191401137E+04  0.00000000000E+00 0.  1.
         13    1    5    5    0    0 -0.12077356897E+02  0.20128442881E+03  0.20399769188E+01  0.20165675128E+03  0.00000000000E+00 0. -1.
        -13    1    5    5    0    0  0.91021619494E+02  0.59309129261E+03  0.93208837682E+02  0.60723150775E+03  0.00000000000E+00 0.  1.
          1    1    6    6  503    0 -0.30945702904E+02  0.14660629472E+03 -0.19030148416E+03  0.24221002674E+03  0.00000000000E+00 0. -1.
         -1    1    6    6    0  503 -0.20879529449E+03  0.66190525205E+03 -0.62916504741E+03  0.93678316305E+03  0.00000000000E+00 0.  1.
<mgrwt>
<rscale>  0 0.37174743E+04</rscale>
<asrwt>0</asrwt>
<pdfrwt beam="1">  1        2 0.27864643E+00 0.37174743E+04</pdfrwt>
<pdfrwt beam="2">  1       -1 0.29346463E+00 0.37174743E+04</pdfrwt>
<totfact> 0.28447730E-01</totfact>
</mgrwt>
</event>
<event>
12    7  0.1735955E-007  0.1918967E+04  0.7818608E-02  0.8645473E-01
          2   -1    0    0  501    0  0.00000000000E+00  0.00000000000E+00  0.14476182810E+04  0.14476182810E+04  0.00000000000E+00 0. -1.
         -1   -1    0    0    0  501 -0.00000000000E+00 -0.00000000000E+00 -0.63594698481E+03  0.63594698481E+03  0.00000000000E+00 0.  1.
         24    2    1    2    0    0 -0.31010391905E+03 -0.26688503194E+03  0.99237255319E+03  0.10763995783E+04  0.80254014754E+02 0.  0.
        254    2    1    2    0    0  0.31010391905E+03  0.26688503194E+03 -0.18070125699E+03  0.10071656876E+04  0.90240662511E+03 0.  0.
         23    2    4    4    0    0  0.48263567455E+02  0.38172652385E+03 -0.45464217783E+03  0.60240107213E+03  0.90238743856E+02 0.  0.
         23    2    4    4    0    0  0.26184035160E+03 -0.11484149191E+03  0.27394092084E+03  0.40476461543E+03  0.83915599282E+02 0.  0.
          2    1    3    3  502    0 -0.27125088561E+03 -0.19156381148E+03  0.78067766915E+03  0.84836982497E+03  0.00000000000E+00 0. -1.
         -1    1    3    3    0  502 -0.38853033444E+02 -0.75321220468E+02  0.21169488403E+03  0.22802975329E+03  0.00000000000E+00 0.  1.
         13    1    5    5    0    0 -0.23795198342E+02  0.72119501244E+02 -0.10853090221E+03  0.13246278971E+03  0.00000000000E+00 0. -1.
        -13    1    5    5    0    0  0.72058765797E+02  0.30960702261E+03 -0.34611127562E+03  0.46993828243E+03  0.00000000000E+00 0.  1.
          2    1    6    6  503    0  0.29095890304E+02  0.13383657716E+02  0.34479882394E+02  0.47059063063E+02  0.00000000000E+00 0. -1.
         -2    1    6    6    0  503  0.23274446129E+03 -0.12822514962E+03  0.23946103845E+03  0.35770555236E+03  0.00000000000E+00 0.  1.
<mgrwt>
<rscale>  0 0.19189669E+04</rscale>
<asrwt>0</asrwt>
<pdfrwt beam="1">  1        2 0.22271050E+00 0.19189669E+04</pdfrwt>
<pdfrwt beam="2">  1       -1 0.97837998E-01 0.19189669E+04</pdfrwt>
<totfact> 0.14511536E+01</totfact>
</mgrwt>
</event>
<event>
12    7  0.1735955E-007  0.3454501E+04  0.7818608E-02  0.8124658E-01
          2   -1    0    0  501    0  0.00000000000E+00  0.00000000000E+00  0.30536242648E+04  0.30536242648E+04  0.00000000000E+00 0. -1.
         -1   -1    0    0    0  501 -0.00000000000E+00 -0.00000000000E+00 -0.97700092911E+03  0.97700092911E+03  0.00000000000E+00 0.  1.
         24    2    1    2    0    0 -0.22798543114E+03  0.15355913904E+04  0.14469049774E+04  0.21236571164E+04  0.79795107798E+02 0.  0.
        254    2    1    2    0    0  0.22798543114E+03 -0.15355913904E+04  0.62971835835E+03  0.19069680776E+04  0.91102347006E+03 0.  0.
         23    2    4    4    0    0  0.18629118845E+03 -0.21023894844E+02  0.27976955294E+03  0.34923163144E+03  0.92440892451E+02 0.  0.
         23    2    4    4    0    0  0.41694242685E+02 -0.15145674956E+04  0.34994880540E+03  0.15577364461E+04  0.91790853392E+02 0.  0.
          2    1    3    3  502    0 -0.25268695295E+02  0.31867204679E+03  0.33085685674E+03  0.46006156112E+03  0.00000000000E+00 0. -1.
         -1    1    3    3    0  502 -0.20271673584E+03  0.12169193436E+04  0.11160481207E+04  0.16635955553E+04  0.00000000000E+00 0.  1.
         13    1    5    5    0    0  0.11020780767E+03  0.27799625266E+02  0.11748532719E+03  0.16346676158E+03  0.00000000000E+00 0.  1.
        -13    1    5    5    0    0  0.76083380782E+02 -0.48823520110E+02  0.16228422575E+03  0.18576486987E+03  0.00000000000E+00 0. -1.
          3    1    6    6  503    0  0.16735527699E+02 -0.99147620530E+03  0.18534500236E+03  0.10087903218E+04  0.00000000000E+00 0. -1.
         -3    1    6    6    0  503  0.24958714986E+02 -0.52309129026E+03  0.16460380305E+03  0.54894612430E+03  0.00000000000E+00 0.  1.
<mgrwt>
<rscale>  0 0.34545007E+04</rscale>
<asrwt>0</asrwt>
<pdfrwt beam="1">  1        2 0.46978835E+00 0.34545007E+04</pdfrwt>
<pdfrwt beam="2">  1       -1 0.15030784E+00 0.34545007E+04</pdfrwt>
<totfact> 0.52302848E-01</totfact>
</mgrwt>
</event>
<event>
12    7  0.1735955E-007  0.2669408E+04  0.7818608E-02  0.8345000E-01
         -1   -1    0    0    0  501 -0.00000000000E+00  0.00000000000E+00  0.18923243804E+04  0.18923243804E+04  0.00000000000E+00 0.  1.
          2   -1    0    0  501    0  0.00000000000E+00 -0.00000000000E+00 -0.94140049407E+03  0.94140049407E+03  0.00000000000E+00 0. -1.
         24    2    1    2    0    0 -0.39889586529E+03  0.21173503101E+03  0.15827895782E+04  0.16479036455E+04  0.80087086119E+02 0.  0.
        254    2    1    2    0    0  0.39889586529E+03 -0.21173503101E+03 -0.63186569183E+03  0.11858212290E+04  0.89608487315E+03 0.  0.
         23    2    4    4    0    0  0.39623742914E+02  0.15971406093E+03 -0.63460122277E+03  0.66120078621E+03  0.85960138902E+02 0.  0.
         23    2    4    4    0    0  0.35927212237E+03 -0.37144909193E+03  0.27355309372E+01  0.52462044277E+03  0.90378316177E+02 0.  0.
          4    1    3    3  502    0 -0.92773776638E+02  0.15422891478E+02  0.36993871884E+03  0.38170603206E+03  0.00000000000E+00 0. -1.
         -3    1    3    3    0  502 -0.30612208865E+03  0.19631213953E+03  0.12128508593E+04  0.12661976134E+04  0.00000000000E+00 0.  1.
         13    1    5    5    0    0  0.17682546897E+02 -0.42821696755E+01 -0.38832026817E+02  0.42882814141E+02  0.00000000000E+00 0. -1.
        -13    1    5    5    0    0  0.21941196016E+02  0.16399623060E+03 -0.59576919595E+03  0.61831797207E+03  0.00000000000E+00 0.  1.
          3    1    6    6  503    0  0.22572490930E+02 -0.93093022089E+00 -0.76822910337E+01  0.23862136815E+02  0.00000000000E+00 0. -1.
         -3    1    6    6    0  503  0.33669963144E+03 -0.37051816171E+03  0.10417821971E+02  0.50075830596E+03  0.00000000000E+00 0.  1.
<mgrwt>
<rscale>  0 0.26694083E+04</rscale>
<asrwt>0</asrwt>
<pdfrwt beam="1">  1        2 0.14483085E+00 0.26694083E+04</pdfrwt>
<pdfrwt beam="2">  1       -1 0.29112683E+00 0.26694083E+04</pdfrwt>
<totfact> 0.10398130E+00</totfact>
</mgrwt>
</event>
<event>
12    7  0.1735955E-007  0.1250766E+04  0.7818608E-02  0.9069546E-01
         -1   -1    0    0    0  501 -0.00000000000E+00  0.00000000000E+00  0.23882376030E+03  0.23882376030E+03  0.00000000000E+00 0.  1.
          2   -1    0    0  501    0  0.00000000000E+00 -0.00000000000E+00 -0.16376253800E+04  0.16376253800E+04  0.00000000000E+00 0. -1.
         24    2    1    2    0    0 -0.10028569598E+03 -0.20304022787E+03 -0.15150354435E+03  0.28387391854E+03  0.79677617461E+02 0.  0.
        254    2    1    2    0    0  0.10028569598E+03  0.20304022787E+03 -0.12472980753E+04  0.15925752217E+04  0.96398173906E+03 0.  0.
         23    2    4    4    0    0  0.24481223640E+03 -0.28575898665E+03 -0.86939472058E+03  0.95154228142E+03  0.89410869665E+02 0.  0.
         23    2    4    4    0    0 -0.14452654042E+03  0.48879921452E+03 -0.37790335473E+03  0.64103294031E+03  0.91102645650E+02 0.  0.
          4    1    3    3  502    0 -0.33141866778E+02 -0.19021945307E+02 -0.50949625920E+02  0.63687378013E+02  0.00000000000E+00 0. -1.
         -3    1    3    3    0  502 -0.67143829204E+02 -0.18401828256E+03 -0.10055391843E+03  0.22018654053E+03  0.00000000000E+00 0.  1.
         13    1    5    5    0    0 -0.13535004197E+01  0.48562360779E+01 -0.20734507953E+02  0.21338575685E+02  0.00000000000E+00 0.  1.
        -13    1    5    5    0    0  0.24616573682E+03 -0.29061522273E+03 -0.84866021263E+03  0.93020370573E+03  0.00000000000E+00 0. -1.
          4    1    6    6  503    0 -0.11345966281E+03  0.46337418043E+03 -0.35640685919E+03  0.59549523546E+03  0.00000000000E+00 0. -1.
         -4    1    6    6    0  503 -0.31066877606E+02  0.25425034093E+02 -0.21496495535E+02  0.45537704851E+02  0.00000000000E+00 0.  1.
<mgrwt>
<rscale>  0 0.12507659E+04</rscale>
<asrwt>0</asrwt>
<pdfrwt beam="1">  1        2 0.25194236E+00 0.12507659E+04</pdfrwt>
<pdfrwt beam="2">  1       -1 0.36742118E-01 0.12507659E+04</pdfrwt>
<totfact> 0.84613856E+01</totfact>
</mgrwt>
</event>
<event>
12    7  0.1735955E-007  0.2855475E+04  0.7818608E-02  0.8286250E-01
          2   -1    0    0  501    0  0.00000000000E+00  0.00000000000E+00  0.12474620741E+04  0.12474620741E+04  0.00000000000E+00 0. -1.
         -1   -1    0    0    0  501 -0.00000000000E+00 -0.00000000000E+00 -0.16340653625E+04  0.16340653625E+04  0.00000000000E+00 0.  1.
         24    2    1    2    0    0 -0.65113635160E+03  0.11473808271E+03  0.93397534615E+03  0.11471369963E+04  0.80436093728E+02 0.  0.
        254    2    1    2    0    0  0.65113635160E+03 -0.11473808271E+03 -0.13205786346E+04  0.17343904402E+04  0.90941678729E+03 0.  0.
         23    2    4    4    0    0  0.33326051461E+03 -0.47938574154E+03 -0.48896940752E+03  0.76719716041E+03  0.92882407666E+02 0.  0.
         23    2    4    4    0    0  0.31787583700E+03  0.36464765882E+03 -0.83160922707E+03  0.96719327982E+03  0.99377920901E+02 0.  0.
          4    1    3    3  502    0 -0.35802874447E+03  0.33114251424E+02  0.55231640818E+03  0.65904062868E+03  0.00000000000E+00 0. -1.
         -3    1    3    3    0  502 -0.29310760714E+03  0.81623831290E+02  0.38165893797E+03  0.48809636767E+03  0.00000000000E+00 0.  1.
         13    1    5    5    0    0  0.17711980547E+03 -0.17449760829E+03 -0.20689136990E+03  0.32345769388E+03  0.00000000000E+00 0. -1.
        -13    1    5    5    0    0  0.15614070914E+03 -0.30488813325E+03 -0.28207803763E+03  0.44373946653E+03  0.00000000000E+00 0.  1.
          1    1    6    6  503    0  0.86575979551E+02  0.13219914210E+03 -0.35596916842E+03  0.38946894904E+03  0.00000000000E+00 0. -1.
         -1    1    6    6    0  503  0.23129985744E+03  0.23244851672E+03 -0.47564005865E+03  0.57772433078E+03  0.00000000000E+00 0.  1.
<mgrwt>
<rscale>  0 0.28554751E+04</rscale>
<asrwt>0</asrwt>
<pdfrwt beam="1">  1        2 0.19191724E+00 0.28554751E+04</pdfrwt>
<pdfrwt beam="2">  1       -1 0.25139467E+00 0.28554751E+04</pdfrwt>
<totfact> 0.11957698E+00</totfact>
</mgrwt>
</event>
<event>
12    7  0.2281473E-007  0.2083591E+04  0.7818608E-02  0.8568506E-01
          2   -1    0    0  501    0  0.00000000000E+00  0.00000000000E+00  0.16037491538E+04  0.16037491538E+04  0.00000000000E+00 0. -1.
         -1   -1    0    0    0  501 -0.00000000000E+00 -0.00000000000E+00 -0.67675029750E+03  0.67675029750E+03  0.00000000000E+00 0.  1.
         24    2    1    2    0    0 -0.31426878889E+03 -0.62861772983E+03  0.82260335052E+03  0.10859809137E+04  0.93558274449E+02 0.  0.
        254    2    1    2    0    0  0.31426878889E+03  0.62861772983E+03  0.10439550581E+03  0.11945185376E+04  0.96023486355E+03 0.  0.
         23    2    4    4    0    0  0.36429649107E+03  0.37015485993E+03 -0.36927840304E+03  0.64380921946E+03  0.91636337673E+02 0.  0.
         23    2    4    4    0    0 -0.50027702176E+02  0.25846286990E+03  0.47367390885E+03  0.55070931816E+03  0.98020176931E+02 0.  0.
          2    1    3    3  502    0 -0.30022694561E+03 -0.60298043489E+03  0.75200725123E+03  0.10095724489E+04  0.00000000000E+00 0. -1.
         -1    1    3    3    0  502 -0.14041843283E+02 -0.25637294934E+02  0.70596099290E+02  0.76408464775E+02  0.00000000000E+00 0.  1.
         13    1    5    5    0    0  0.52228426217E+02  0.41176975240E+02 -0.14512156270E+02  0.68073155316E+02  0.00000000000E+00 0.  1.
        -13    1    5    5    0    0  0.31206806485E+03  0.32897788469E+03 -0.35476624677E+03  0.57573606415E+03  0.00000000000E+00 0. -1.
          4    1    6    6  503    0 -0.24866014074E+02  0.24975644905E+03  0.39845572010E+03  0.47091778835E+03  0.00000000000E+00 0. -1.
         -4    1    6    6    0  503 -0.25161688102E+02  0.87064208466E+01  0.75218188743E+02  0.79791529813E+02  0.00000000000E+00 0.  1.
<mgrwt>
<rscale>  0 0.20835909E+04</rscale>
<asrwt>0</asrwt>
<pdfrwt beam="1">  1        2 0.24673064E+00 0.20835909E+04</pdfrwt>
<pdfrwt beam="2">  1       -1 0.10411543E+00 0.20835909E+04</pdfrwt>
<totfact> 0.10129137E+01</totfact>
</mgrwt>
</event>
<event>
12    7  0.1735955E-007  0.1501953E+04  0.7818608E-02  0.8883155E-01
          2   -1    0    0  501    0  0.00000000000E+00  0.00000000000E+00  0.39426801540E+03  0.39426801540E+03  0.00000000000E+00 0. -1.
         -1   -1    0    0    0  501 -0.00000000000E+00 -0.00000000000E+00 -0.14304119890E+04  0.14304119890E+04  0.00000000000E+00 0.  1.
         24    2    1    2    0    0 -0.10002893205E+03  0.50877210090E+02  0.22953892881E+03  0.26798339145E+03  0.80825122951E+02 0.  0.
        254    2    1    2    0    0  0.10002893205E+03 -0.50877210090E+02 -0.12656829024E+04  0.15566966130E+04  0.89930910011E+03 0.  0.
         23    2    4    4    0    0 -0.14352387867E+03 -0.25837774269E+03 -0.11723745572E+04  0.12125391983E+04  0.91820713770E+02 0.  0.
         23    2    4    4    0    0  0.24355281072E+03  0.20750053260E+03 -0.93308345262E+02  0.34415741465E+03  0.85810466279E+02 0.  0.
          2    1    3    3  502    0 -0.94586638294E+02  0.41228194106E+02  0.23423283454E+03  0.25595198165E+03  0.00000000000E+00 0. -1.
         -1    1    3    3    0  502 -0.54422937561E+01  0.96490159844E+01 -0.46939057303E+01  0.12031409801E+02  0.00000000000E+00 0.  1.
         13    1    5    5    0    0  0.10347843886E+02 -0.42455061871E+02 -0.14001505656E+03  0.14667558152E+03  0.00000000000E+00 0.  1.
        -13    1    5    5    0    0 -0.15387172256E+03 -0.21592268082E+03 -0.10323595006E+04  0.10658636168E+04  0.00000000000E+00 0. -1.
          1    1    6    6  503    0  0.22819726445E+03  0.21545837857E+03 -0.90556765958E+02  0.32664481055E+03  0.00000000000E+00 0. -1.
         -1    1    6    6    0  503  0.15355546271E+02 -0.79578459677E+01 -0.27515793049E+01  0.17512604101E+02  0.00000000000E+00 0.  1.
<mgrwt>
<rscale>  0 0.15019530E+04</rscale>
<asrwt>0</asrwt>
<pdfrwt beam="1">  1        2 0.60656618E-01 0.15019530E+04</pdfrwt>
<pdfrwt beam="2">  1       -1 0.22006338E+00 0.15019530E+04</pdfrwt>
<totfact> 0.98216943E+00</totfact>
</mgrwt>
</event>
<event>
12    7  0.1735955E-007  0.2587070E+04  0.7818608E-02  0.8372607E-01
          2   -1    0    0  501    0  0.00000000000E+00  0.00000000000E+00  0.17545018506E+04  0.17545018506E+04  0.00000000000E+00 0. -1.
         -1   -1    0    0    0  501 -0.00000000000E+00 -0.00000000000E+00 -0.95367933220E+03  0.95367933220E+03  0.00000000000E+00 0.  1.
         24    2    1    2    0    0 -0.89649140440E+03  0.62845720433E+03  0.24484879595E+02  0.10980292152E+04  0.80083408730E+02 0.  0.
        254    2    1    2    0    0  0.89649140440E+03 -0.62845720433E+03  0.77633763877E+03  0.16101519675E+04  0.88951331263E+03 0.  0.
         23    2    4    4    0    0  0.19531338766E+03 -0.61354412336E+03  0.15408614596E+03  0.66807556016E+03  0.89435468318E+02 0.  0.
         23    2    4    4    0    0  0.70117801673E+03 -0.14913080966E+02  0.62225149281E+03  0.94207640737E+03  0.91858727841E+02 0.  0.
          4    1    3    3  502    0 -0.24634066331E+03  0.13170846652E+03  0.15671592224E+02  0.27977927256E+03  0.00000000000E+00 0. -1.
         -3    1    3    3    0  502 -0.65015074108E+03  0.49674873781E+03  0.88132873702E+01  0.81824994267E+03  0.00000000000E+00 0.  1.
         13    1    5    5    0    0  0.15932925653E+03 -0.49859461524E+03  0.16040501404E+03  0.54745974360E+03  0.00000000000E+00 0. -1.
        -13    1    5    5    0    0  0.35984131136E+02 -0.11494950812E+03 -0.63188680776E+01  0.12061581656E+03  0.00000000000E+00 0.  1.
          2    1    6    6  503    0  0.31662731393E+03  0.12049889831E+02  0.22563902390E+03  0.38898717829E+03  0.00000000000E+00 0. -1.
         -2    1    6    6    0  503  0.38455070280E+03 -0.26962970797E+02  0.39661246892E+03  0.55308922908E+03  0.00000000000E+00 0.  1.
<mgrwt>
<rscale>  0 0.25870695E+04</rscale>
<asrwt>0</asrwt>
<pdfrwt beam="1">  1        2 0.26992336E+00 0.25870695E+04</pdfrwt>
<pdfrwt beam="2">  1       -1 0.14671990E+00 0.25870695E+04</pdfrwt>
<totfact> 0.34133787E+00</totfact>
</mgrwt>
</event>
<event>
12    7  0.1735955E-007  0.1641713E+04  0.7818608E-02  0.8795324E-01
          2   -1    0    0  501    0  0.00000000000E+00  0.00000000000E+00  0.11743003559E+04  0.11743003559E+04  0.00000000000E+00 0. -1.
         -1   -1    0    0    0  501 -0.00000000000E+00 -0.00000000000E+00 -0.57379275971E+03  0.57379275971E+03  0.00000000000E+00 0.  1.
         24    2    1    2    0    0  0.44631070827E+03 -0.29763893540E+03  0.41738427598E+03  0.68478222355E+03  0.83275900920E+02 0.  0.
        254    2    1    2    0    0 -0.44631070827E+03  0.29763893540E+03  0.18312332021E+03  0.10633108921E+04  0.89961865176E+03 0.  0.
         23    2    4    4    0    0 -0.30234235222E+03  0.30184787623E+03  0.52392002256E+03  0.68208231762E+03  0.90670059204E+02 0.  0.
         23    2    4    4    0    0 -0.14396835605E+03 -0.42089408301E+01 -0.34079670235E+03  0.38122857445E+03  0.91914258489E+02 0.  0.
          2    1    3    3  502    0  0.26426059527E+03 -0.20667118400E+03  0.29872773098E+03  0.44920473925E+03  0.00000000000E+00 0. -1.
         -1    1    3    3    0  502  0.18205011300E+03 -0.90967751399E+02  0.11865654500E+03  0.23557748430E+03  0.00000000000E+00 0.  1.
         13    1    5    5    0    0 -0.27687776429E+02  0.46177539945E+01  0.61352170447E+02  0.67468699662E+02  0.00000000000E+00 0. -1.
        -13    1    5    5    0    0 -0.27465457580E+03  0.29723012224E+03  0.46256785211E+03  0.61461361796E+03  0.00000000000E+00 0.  1.
          2    1    6    6  503    0 -0.13166672813E+02 -0.26586310646E+02 -0.25414430181E+02  0.39065156446E+02  0.00000000000E+00 0. -1.
         -2    1    6    6    0  503 -0.13080168324E+03  0.22377369816E+02 -0.31538227217E+03  0.34216341800E+03  0.00000000000E+00 0.  1.
<mgrwt>
<rscale>  0 0.16417126E+04</rscale>
<asrwt>0</asrwt>
<pdfrwt beam="1">  1        2 0.18066159E+00 0.16417126E+04</pdfrwt>
<pdfrwt beam="2">  1       -1 0.88275809E-01 0.16417126E+04</pdfrwt>
<totfact> 0.26970823E+01</totfact>
</mgrwt>
</event>
<event>
12    7  0.1735955E-007  0.2269070E+04  0.7818608E-02  0.8490217E-01
         -1   -1    0    0    0  501 -0.00000000000E+00  0.00000000000E+00  0.10441386993E+04  0.10441386993E+04  0.00000000000E+00 0.  1.
          2   -1    0    0  501    0  0.00000000000E+00 -0.00000000000E+00 -0.12327572618E+04  0.12327572618E+04  0.00000000000E+00 0. -1.
         24    2    1    2    0    0  0.38204249597E+03  0.12576279995E+03  0.79336863545E+03  0.89264627774E+03  0.74905506254E+02 0.  0.
        254    2    1    2    0    0 -0.38204249597E+03 -0.12576279995E+03 -0.98198719792E+03  0.13842496834E+04  0.88886195690E+03 0.  0.
         23    2    4    4    0    0 -0.39662432839E+03 -0.46646604185E+03 -0.68751614499E+03  0.92525424736E+03  0.92279719103E+02 0.  0.
         23    2    4    4    0    0  0.14581832425E+02  0.34070324191E+03 -0.29447105293E+03  0.45899543600E+03  0.87591554235E+02 0.  0.
          4    1    3    3  502    0  0.19362218400E+03  0.60092552892E+02  0.31836820841E+03  0.37743738710E+03  0.00000000000E+00 0. -1.
         -3    1    3    3    0  502  0.18842031197E+03  0.65670247053E+02  0.47500042704E+03  0.51520889064E+03  0.00000000000E+00 0.  1.
         13    1    5    5    0    0 -0.55150348887E+02 -0.24963149125E+02 -0.56437879626E+02  0.82764449212E+02  0.00000000000E+00 0. -1.
        -13    1    5    5    0    0 -0.34147397951E+03 -0.44150289273E+03 -0.63107826536E+03  0.84248979815E+03  0.00000000000E+00 0.  1.
          3    1    6    6  503    0 -0.28507939210E+02  0.65075370887E+02 -0.40772480413E+02  0.81913989362E+02  0.00000000000E+00 0. -1.
         -3    1    6    6    0  503  0.43089771635E+02  0.27562787102E+03 -0.25369857252E+03  0.37708144664E+03  0.00000000000E+00 0.  1.
<mgrwt>
<rscale>  0 0.22690699E+04</rscale>
<asrwt>0</asrwt>
<pdfrwt beam="1">  1        2 0.18965496E+00 0.22690699E+04</pdfrwt>
<pdfrwt beam="2">  1       -1 0.16063672E+00 0.22690699E+04</pdfrwt>
<totfact> 0.54222271E+00</totfact>
</mgrwt>
</event>
<event>
12    7  0.1735955E-007  0.1421288E+04  0.7818608E-02  0.8938552E-01
          2   -1    0    0  501    0  0.00000000000E+00  0.00000000000E+00  0.27989799505E+03  0.27989799505E+03  0.00000000000E+00 0. -1.
         -1   -1    0    0    0  501 -0.00000000000E+00 -0.00000000000E+00 -0.18042819790E+04  0.18042819790E+04  0.00000000000E+00 0.  1.
         24    2    1    2    0    0  0.24026201625E+03  0.85790176954E+02 -0.93826561810E+03  0.97738639061E+03  0.99277366681E+02 0.  0.
        254    2    1    2    0    0 -0.24026201625E+03 -0.85790176954E+02 -0.58611836588E+03  0.11067935835E+04  0.90353279225E+03 0.  0.
         23    2    4    4    0    0  0.15758811586E+03 -0.38268396237E+03 -0.19787438933E+03  0.46992169530E+03  0.10193672766E+03 0.  0.
         23    2    4    4    0    0 -0.39785013211E+03  0.29689378542E+03 -0.38824397655E+03  0.63687188817E+03  0.91879100863E+02 0.  0.
          4    1    3    3  502    0  0.78434821486E+01 -0.94655872623E+01 -0.13991626368E+03  0.14045525407E+03  0.00000000000E+00 0. -1.
         -3    1    3    3    0  502  0.23241853410E+03  0.95255764217E+02 -0.79834935442E+03  0.83693113654E+03  0.00000000000E+00 0.  1.
         13    1    5    5    0    0  0.47119986459E+02 -0.24224088911E+03 -0.10081308324E+03  0.26657872989E+03  0.00000000000E+00 0. -1.
        -13    1    5    5    0    0  0.11046812940E+03 -0.14044307326E+03 -0.97061306096E+02  0.20334296541E+03  0.00000000000E+00 0.  1.
          4    1    6    6  503    0 -0.38899224824E+03  0.30382561423E+03 -0.37880199673E+03  0.62218640758E+03  0.00000000000E+00 0. -1.
         -4    1    6    6    0  503 -0.88578838666E+01 -0.69318288075E+01 -0.94419798259E+01  0.14685480593E+02  0.00000000000E+00 0.  1.
<mgrwt>
<rscale>  0 0.14212880E+04</rscale>
<asrwt>0</asrwt>
<pdfrwt beam="1">  1        2 0.43061229E-01 0.14212880E+04</pdfrwt>
<pdfrwt beam="2">  1       -1 0.27758185E+00 0.14212880E+04</pdfrwt>
<totfact> 0.61061249E+00</totfact>
</mgrwt>
</event>
<event>
12    7  0.1735955E-007  0.1916517E+04  0.7818608E-02  0.8646678E-01
          2   -1    0    0  501    0  0.00000000000E+00  0.00000000000E+00  0.16842109200E+04  0.16842109200E+04  0.00000000000E+00 0. -1.
         -1   -1    0    0    0  501 -0.00000000000E+00 -0.00000000000E+00 -0.54521617341E+03  0.54521617341E+03  0.00000000000E+00 0.  1.
         24    2    1    2    0    0  0.50922196584E+02  0.35518408793E+03 -0.32685018643E+03  0.49151582855E+03  0.77511024521E+02 0.  0.
        254    2    1    2    0    0 -0.50922196584E+02 -0.35518408793E+03  0.14658449330E+04  0.17379112648E+04  0.86190799418E+03 0.  0.
         23    2    4    4    0    0  0.26696003556E+03 -0.26771044128E+03  0.22185895155E+03  0.44774376709E+03  0.91195096477E+02 0.  0.
         23    2    4    4    0    0 -0.31788223214E+03 -0.87473646651E+02  0.12439859814E+04  0.12901674978E+04  0.91270465460E+02 0.  0.
          2    1    3    3  502    0 -0.19992940367E+01  0.10026933099E+02  0.35162375645E+01  0.10812053026E+02  0.00000000000E+00 0. -1.
         -1    1    3    3    0  502  0.52921490620E+02  0.34515715484E+03 -0.33036642400E+03  0.48070377553E+03  0.00000000000E+00 0.  1.
         13    1    5    5    0    0  0.24569506416E+03 -0.24732852462E+03  0.22941423520E+03  0.41733482356E+03  0.00000000000E+00 0. -1.
        -13    1    5    5    0    0  0.21264971396E+02 -0.20381916661E+02 -0.75552836445E+01  0.30408943523E+02  0.00000000000E+00 0.  1.
          1    1    6    6  503    0 -0.27343513384E+03 -0.46240050463E+02  0.10887304601E+04  0.11234940718E+04  0.00000000000E+00 0. -1.
         -1    1    6    6    0  503 -0.44447098306E+02 -0.41233596187E+02  0.15525552132E+03  0.16667342591E+03  0.00000000000E+00 0.  1.
<mgrwt>
<rscale>  0 0.19165167E+04</rscale>
<asrwt>0</asrwt>
<pdfrwt beam="1">  1        2 0.25910937E+00 0.19165167E+04</pdfrwt>
<pdfrwt beam="2">  1       -1 0.83879412E-01 0.19165167E+04</pdfrwt>
<totfact> 0.15022323E+01</totfact>
</mgrwt>
</event>
<event>
12    7  0.1735955E-007  0.1266619E+04  0.7818608E-02  0.9056464E-01
         -1   -1    0    0    0  501 -0.00000000000E+00  0.00000000000E+00  0.59753770680E+03  0.59753770680E+03  0.00000000000E+00 0.  1.
          2   -1    0    0  501    0  0.00000000000E+00 -0.00000000000E+00 -0.67122284888E+03  0.67122284888E+03  0.00000000000E+00 0. -1.
         24    2    1    2    0    0  0.28004315039E+03  0.99462509881E+02  0.37077028669E+02  0.31007550998E+03  0.80344003375E+02 0.  0.
        254    2    1    2    0    0 -0.28004315039E+03 -0.99462509881E+02 -0.11076217075E+03  0.95868504570E+03  0.90470536719E+03 0.  0.
         23    2    4    4    0    0  0.44238087374E+02  0.30977846121E+03  0.15949909648E+03  0.36329785393E+03  0.92874460892E+02 0.  0.
         23    2    4    4    0    0 -0.32428123777E+03 -0.40924097110E+03 -0.27026126724E+03  0.59538719177E+03  0.93852341272E+02 0.  0.
          2    1    3    3  502    0  0.23144136243E+03  0.85482205074E+02 -0.10758465793E+01  0.24672549336E+03  0.00000000000E+00 0. -1.
         -1    1    3    3    0  502  0.48601787966E+02  0.13980304806E+02  0.38152875248E+02  0.63350016619E+02  0.00000000000E+00 0.  1.
         13    1    5    5    0    0  0.51853190084E+02  0.11217042388E+03  0.93003154484E+02  0.15466267830E+03  0.00000000000E+00 0. -1.
        -13    1    5    5    0    0 -0.76151027102E+01  0.19760803733E+03  0.66495941999E+02  0.20863517563E+03  0.00000000000E+00 0.  1.
          2    1    6    6  503    0 -0.30368055534E+03 -0.37423801492E+03 -0.27435049624E+03  0.55456664729E+03  0.00000000000E+00 0.  1.
         -2    1    6    6    0  503 -0.20600682426E+02 -0.35002956177E+02  0.40892290010E+01  0.40820544477E+02  0.00000000000E+00 0. -1.
<mgrwt>
<rscale>  0 0.12666191E+04</rscale>
<asrwt>0</asrwt>
<pdfrwt beam="1">  1        2 0.10326505E+00 0.12666191E+04</pdfrwt>
<pdfrwt beam="2">  1       -1 0.91928878E-01 0.12666191E+04</pdfrwt>
<totfact> 0.55901102E+01</totfact>
</mgrwt>
</event>
<event>
12    7  0.1735955E-007  0.1774148E+04  0.7818608E-02  0.8720169E-01
          2   -1    0    0  501    0  0.00000000000E+00  0.00000000000E+00  0.37822750251E+03  0.37822750251E+03  0.00000000000E+00 0. -1.
         -1   -1    0    0    0  501 -0.00000000000E+00 -0.00000000000E+00 -0.20804952022E+04  0.20804952022E+04  0.00000000000E+00 0.  1.
         24    2    1    2    0    0 -0.35134458792E+03 -0.22884881862E+03  0.60565111458E+02  0.43113142781E+03  0.79946069801E+02 0.  0.
        254    2    1    2    0    0  0.35134458792E+03  0.22884881862E+03 -0.17628328111E+04  0.20275912769E+04  0.90979781534E+03 0.  0.
         23    2    4    4    0    0  0.57599402570E+03  0.72974741400E+01 -0.67921053454E+03  0.89508047271E+03  0.89552954324E+02 0.  0.
         23    2    4    4    0    0 -0.22464943778E+03  0.22155134448E+03 -0.10836222766E+04  0.11325108042E+04  0.93760946439E+02 0.  0.
          2    1    3    3  502    0 -0.28023473172E+03 -0.21598068557E+03  0.60039376001E+02  0.35886472113E+03  0.00000000000E+00 0. -1.
         -1    1    3    3    0  502 -0.71109856204E+02 -0.12868133056E+02  0.52573545718E+00  0.72266706688E+02  0.00000000000E+00 0.  1.
         13    1    5    5    0    0  0.23735450955E+03 -0.12474936527E+02 -0.21768519634E+03  0.32230363316E+03  0.00000000000E+00 0.  1.
        -13    1    5    5    0    0  0.33863951616E+03  0.19772410667E+02 -0.46152533820E+03  0.57277683955E+03  0.00000000000E+00 0. -1.
          2    1    6    6  503    0 -0.17405393920E+03  0.20122479499E+03 -0.97930692601E+03  0.10148045365E+04  0.00000000000E+00 0. -1.
         -2    1    6    6    0  503 -0.50595498582E+02  0.20326549492E+02 -0.10431535057E+03  0.11770626770E+03  0.00000000000E+00 0.  1.
<mgrwt>
<rscale>  0 0.17741483E+04</rscale>
<asrwt>0</asrwt>
<pdfrwt beam="1">  1        2 0.58188847E-01 0.17741483E+04</pdfrwt>
<pdfrwt beam="2">  1       -1 0.32007618E+00 0.17741483E+04</pdfrwt>
<totfact> 0.22442743E+00</totfact>
</mgrwt>
</event>
<event>
12    7  0.1735955E-007  0.2126654E+04  0.7818608E-02  0.8549592E-01
          2   -1    0    0  501    0  0.00000000000E+00  0.00000000000E+00  0.32561632733E+04  0.32561632733E+04  0.00000000000E+00 0. -1.
         -1   -1    0    0    0  501 -0.00000000000E+00 -0.00000000000E+00 -0.34723805990E+03  0.34723805990E+03  0.00000000000E+00 0.  1.
         24    2    1    2    0    0  0.38124460488E+03 -0.39754572583E+03  0.23271731013E+04  0.23927452987E+04  0.78136854972E+02 0.  0.
        254    2    1    2    0    0 -0.38124460488E+03  0.39754572583E+03  0.58175211210E+03  0.12106560345E+04  0.90766869568E+03 0.  0.
         23    2    4    4    0    0  0.25480752127E+03 -0.55784449531E+02  0.14108329037E+03  0.30962873635E+03  0.89031914770E+02 0.  0.
         23    2    4    4    0    0 -0.63605212615E+03  0.45333017536E+03  0.44066882173E+03  0.90102729817E+03  0.87124201763E+02 0.  0.
          4    1    3    3  502    0  0.35619026430E+03 -0.33870777318E+03  0.20988189483E+04  0.21556055849E+04  0.00000000000E+00 0. -1.
         -3    1    3    3    0  502  0.25054340586E+02 -0.58837952654E+02  0.22835415303E+03  0.23713971380E+03  0.00000000000E+00 0.  1.
         13    1    5    5    0    0  0.25730034395E+03 -0.44032881563E+02  0.12465581225E+03  0.28927743290E+03  0.00000000000E+00 0. -1.
        -13    1    5    5    0    0 -0.24928226881E+01 -0.11751567968E+02  0.16427478118E+02  0.20351303447E+02  0.00000000000E+00 0.  1.
          4    1    6    6  503    0 -0.19906731493E+03  0.17754449577E+03  0.18410561226E+03  0.32410603252E+03  0.00000000000E+00 0. -1.
         -4    1    6    6    0  503 -0.43698481122E+03  0.27578567959E+03  0.25656320947E+03  0.57692126565E+03  0.00000000000E+00 0.  1.
<mgrwt>
<rscale>  0 0.21266535E+04</rscale>
<asrwt>0</asrwt>
<pdfrwt beam="1">  1        2 0.50094817E+00 0.21266535E+04</pdfrwt>
<pdfrwt beam="2">  1       -1 0.53421242E-01 0.21266535E+04</pdfrwt>
<totfact> 0.44185859E+00</totfact>
</mgrwt>
</event>
<event>
12    7  0.1735955E-007  0.3006201E+04  0.7818608E-02  0.8241962E-01
         -1   -1    0    0    0  501 -0.00000000000E+00  0.00000000000E+00  0.68639632705E+03  0.68639632705E+03  0.00000000000E+00 0.  1.
          2   -1    0    0  501    0  0.00000000000E+00 -0.00000000000E+00 -0.32915558271E+04  0.32915558271E+04  0.00000000000E+00 0. -1.
         24    2    1    2    0    0 -0.11897050504E+04  0.36197885177E+03 -0.44164769702E+03  0.13220665172E+04  0.79877353552E+02 0.  0.
        254    2    1    2    0    0  0.11897050504E+04 -0.36197885177E+03 -0.21635118030E+04  0.26558856369E+04  0.90913057296E+03 0.  0.
         23    2    4    4    0    0  0.12603464290E+03 -0.44385385703E+03 -0.69380198820E+03  0.83786523120E+03  0.88124736657E+02 0.  0.
         23    2    4    4    0    0  0.10636704075E+04  0.81875005253E+02 -0.14697098148E+04  0.18180204057E+04  0.83982163053E+02 0.  0.
          2    1    3    3  502    0 -0.16317486942E+03  0.72791058418E+02 -0.81778828363E+02  0.19650026200E+03  0.00000000000E+00 0. -1.
         -1    1    3    3    0  502 -0.10265301809E+04  0.28918779336E+03 -0.35986886866E+03  0.11255662552E+04  0.00000000000E+00 0.  1.
         13    1    5    5    0    0  0.32368835977E+02 -0.35502049722E+02 -0.10231643640E+03  0.11303446481E+03  0.00000000000E+00 0. -1.
        -13    1    5    5    0    0  0.93665806922E+02 -0.40835180730E+03 -0.59148555180E+03  0.72483076639E+03  0.00000000000E+00 0.  1.
          4    1    6    6  503    0  0.51864591513E+03 -0.18347466444E+01 -0.72137853322E+03  0.88847281318E+03  0.00000000000E+00 0. -1.
         -4    1    6    6    0  503  0.54502449233E+03  0.83709751897E+02 -0.74833128157E+03  0.92954759254E+03  0.00000000000E+00 0.  1.
<mgrwt>
<rscale>  0 0.30062015E+04</rscale>
<asrwt>0</asrwt>
<pdfrwt beam="1">  1        2 0.50639321E+00 0.30062015E+04</pdfrwt>
<pdfrwt beam="2">  1       -1 0.10559943E+00 0.30062015E+04</pdfrwt>
<totfact> 0.92072063E-01</totfact>
</mgrwt>
</event>
<event>
12    7  0.1735955E-007  0.2818458E+04  0.7818608E-02  0.8297561E-01
         -1   -1    0    0    0  501 -0.00000000000E+00  0.00000000000E+00  0.42562020143E+03  0.42562020143E+03  0.00000000000E+00 0.  1.
          2   -1    0    0  501    0  0.00000000000E+00 -0.00000000000E+00 -0.46659574115E+04  0.46659574115E+04  0.00000000000E+00 0. -1.
         24    2    1    2    0    0 -0.93653568583E+03 -0.73802332251E+03 -0.11492725703E+04  0.16579954134E+04  0.79648193933E+02 0.  0.
        254    2    1    2    0    0  0.93653568583E+03  0.73802332251E+03 -0.30910646398E+04  0.34335821995E+04  0.90168098453E+03 0.  0.
         23    2    4    4    0    0  0.84593239504E+03  0.56878929351E+03 -0.30511066345E+04  0.32181972259E+04  0.91754084952E+02 0.  0.
         23    2    4    4    0    0  0.90603290789E+02  0.16923402900E+03 -0.39958005247E+02  0.21538497358E+03  0.89134346838E+02 0.  0.
          4    1    3    3  502    0 -0.19286292833E+03 -0.17827053103E+03 -0.21806231625E+03  0.34136148746E+03  0.00000000000E+00 0. -1.
         -3    1    3    3    0  502 -0.74367275750E+03 -0.55975279148E+03 -0.93121025402E+03  0.13166339260E+04  0.00000000000E+00 0.  1.
         13    1    5    5    0    0  0.16682703319E+03  0.72665644252E+02 -0.50504985274E+03  0.53683042817E+03  0.00000000000E+00 0. -1.
        -13    1    5    5    0    0  0.67910536185E+03  0.49612364926E+03 -0.25460567818E+04  0.26813667977E+04  0.00000000000E+00 0.  1.
          3    1    6    6  503    0 -0.50015133155E+01  0.98540710241E+00  0.13659577521E+02  0.14579788086E+02  0.00000000000E+00 0. -1.
         -3    1    6    6    0  503  0.95604804104E+02  0.16824862190E+03 -0.53617582767E+02  0.20080518549E+03  0.00000000000E+00 0.  1.
<mgrwt>
<rscale>  0 0.28184575E+04</rscale>
<asrwt>0</asrwt>
<pdfrwt beam="1">  1        2 0.71783955E+00 0.28184575E+04</pdfrwt>
<pdfrwt beam="2">  1       -1 0.65480036E-01 0.28184575E+04</pdfrwt>
<totfact> 0.19511710E-01</totfact>
</mgrwt>
</event>
<event>
12    7  0.1735955E-007  0.1961407E+04  0.7818608E-02  0.8624880E-01
         -1   -1    0    0    0  501 -0.00000000000E+00  0.00000000000E+00  0.82324924456E+03  0.82324924456E+03  0.00000000000E+00 0.  1.
          2   -1    0    0  501    0  0.00000000000E+00 -0.00000000000E+00 -0.11682725996E+04  0.11682725996E+04  0.00000000000E+00 0. -1.
         24    2    1    2    0    0  0.29321245844E+03  0.65722636555E+03  0.14961598354E+03  0.73942282330E+03  0.80256636636E+02 0.  0.
        254    2    1    2    0    0 -0.29321245844E+03 -0.65722636555E+03 -0.49463933857E+03  0.12520990209E+04  0.89730922285E+03 0.  0.
         23    2    4    4    0    0 -0.55167808166E+03 -0.62792200203E+03 -0.49658619232E+03  0.97635383689E+03  0.89633821752E+02 0.  0.
         23    2    4    4    0    0  0.25846562322E+03 -0.29304363519E+02  0.19468537521E+01  0.27574518396E+03  0.91478916327E+02 0.  0.
          4    1    3    3  502    0  0.98092454912E+02  0.30893517932E+03  0.50094077277E+02  0.32798245580E+03  0.00000000000E+00 0. -1.
         -3    1    3    3    0  502  0.19512000353E+03  0.34829118622E+03  0.99521906268E+02  0.41144036750E+03  0.00000000000E+00 0.  1.
         13    1    5    5    0    0 -0.49464107958E+03 -0.51466584755E+03 -0.42144105073E+03  0.82895312985E+03  0.00000000000E+00 0.  1.
        -13    1    5    5    0    0 -0.57037002078E+02 -0.11325615448E+03 -0.75145141586E+02  0.14740070705E+03  0.00000000000E+00 0. -1.
          2    1    6    6  503    0 -0.54475105905E+01 -0.34365321543E+01  0.82819247460E+01  0.10491682533E+02  0.00000000000E+00 0. -1.
         -2    1    6    6    0  503  0.26391313381E+03 -0.25867831365E+02 -0.63350709938E+01  0.26525350143E+03  0.00000000000E+00 0.  1.
<mgrwt>
<rscale>  0 0.19614072E+04</rscale>
<asrwt>0</asrwt>
<pdfrwt beam="1">  1        2 0.17973425E+00 0.19614072E+04</pdfrwt>
<pdfrwt beam="2">  1       -1 0.12665373E+00 0.19614072E+04</pdfrwt>
<totfact> 0.11390971E+01</totfact>
</mgrwt>
</event>
<event>
12    7  0.1735955E-007  0.2023888E+04  0.7818608E-02  0.8595533E-01
         -1   -1    0    0    0  501 -0.00000000000E+00  0.00000000000E+00  0.66246960861E+03  0.66246960861E+03  0.00000000000E+00 0.  1.
          2   -1    0    0  501    0  0.00000000000E+00 -0.00000000000E+00 -0.15457768792E+04  0.15457768792E+04  0.00000000000E+00 0. -1.
         24    2    1    2    0    0 -0.11337795021E+03 -0.74392494420E+03 -0.82210362986E+03  0.11179897782E+04  0.88135598789E+02 0.  0.
        254    2    1    2    0    0  0.11337795021E+03  0.74392494420E+03 -0.61203640731E+02  0.10902567096E+04  0.78653348623E+03 0.  0.
         23    2    4    4    0    0  0.25456377530E+03  0.66693900918E+03  0.22099378251E+03  0.75294061586E+03  0.92037826116E+02 0.  0.
         23    2    4    4    0    0 -0.14118582509E+03  0.76985935021E+02 -0.28219742324E+03  0.33731609373E+03  0.91030159868E+02 0.  0.
          4    1    3    3  502    0 -0.11815679060E+03 -0.54743371418E+03 -0.63402843472E+03  0.84595316337E+03  0.00000000000E+00 0. -1.
         -3    1    3    3    0  502  0.47788403841E+01 -0.19649123002E+03 -0.18807519514E+03  0.27203661485E+03  0.00000000000E+00 0.  1.
         13    1    5    5    0    0  0.17368649836E+03  0.38569775561E+03  0.90748529253E+02  0.43262576664E+03  0.00000000000E+00 0. -1.
        -13    1    5    5    0    0  0.80877276939E+02  0.28124125357E+03  0.13024525326E+03  0.32031484922E+03  0.00000000000E+00 0.  1.
          2    1    6    6  503    0 -0.10436384644E+03  0.51964461868E+02 -0.11300464557E+03  0.16236430538E+03  0.00000000000E+00 0. -1.
         -2    1    6    6    0  503 -0.36821978650E+02  0.25021473154E+02 -0.16919277767E+03  0.17495178835E+03  0.00000000000E+00 0.  1.
<mgrwt>
<rscale>  0 0.20238876E+04</rscale>
<asrwt>0</asrwt>
<pdfrwt beam="1">  1        2 0.23781183E+00 0.20238876E+04</pdfrwt>
<pdfrwt beam="2">  1       -1 0.10191840E+00 0.20238876E+04</pdfrwt>
<totfact> 0.11528000E+01</totfact>
</mgrwt>
</event>
<event>
12    7  0.1735955E-007  0.1467456E+04  0.7818608E-02  0.8906387E-01
         -1   -1    0    0    0  501 -0.00000000000E+00  0.00000000000E+00  0.35926925804E+03  0.35926925804E+03  0.00000000000E+00 0.  1.
          2   -1    0    0  501    0  0.00000000000E+00 -0.00000000000E+00 -0.14984772670E+04  0.14984772670E+04  0.00000000000E+00 0. -1.
         24    2    1    2    0    0  0.29308493991E+03  0.23308976790E+03 -0.37170894842E+02  0.38452648624E+03  0.79052648874E+02 0.  0.
        254    2    1    2    0    0 -0.29308493991E+03 -0.23308976790E+03 -0.11020371141E+04  0.14732200388E+04  0.90314000017E+03 0.  0.
         23    2    4    4    0    0 -0.49898084417E+03 -0.22864016134E+03 -0.11152619963E+04  0.12463666355E+04  0.91445412049E+02 0.  0.
         23    2    4    4    0    0  0.20589590427E+03 -0.44496065587E+01  0.13224882204E+02  0.22685340331E+03  0.94205343227E+02 0.  0.
          4    1    3    3  502    0  0.22842188854E+02  0.53164117507E+02 -0.10111441350E+02  0.58740362854E+02  0.00000000000E+00 0. -1.
         -3    1    3    3    0  502  0.27024275105E+03  0.17992565040E+03 -0.27059453492E+02  0.32578612338E+03  0.00000000000E+00 0.  1.
         13    1    5    5    0    0 -0.41953889253E+03 -0.22676129624E+03 -0.94888357606E+03  0.10619856914E+04  0.00000000000E+00 0.  1.
        -13    1    5    5    0    0 -0.79441951639E+02 -0.18788651091E+01 -0.16637842022E+03  0.18438094405E+03  0.00000000000E+00 0. -1.
          1    1    6    6  503    0  0.10209267601E+03  0.23908254426E+01 -0.40394342393E+02  0.10981954943E+03  0.00000000000E+00 0. -1.
         -1    1    6    6    0  503  0.10380322826E+03 -0.68404320013E+01  0.53619224597E+02  0.11703385388E+03  0.00000000000E+00 0.  1.
<mgrwt>
<rscale>  0 0.14674561E+04</rscale>
<asrwt>0</asrwt>
<pdfrwt beam="1">  1        2 0.23053496E+00 0.14674561E+04</pdfrwt>
<pdfrwt beam="2">  1       -1 0.55272195E-01 0.14674561E+04</pdfrwt>
<totfact> 0.46447944E+01</totfact>
</mgrwt>
</event>
<event>
12    7  0.1735955E-007  0.3752149E+04  0.7818608E-02  0.8056502E-01
         -1   -1    0    0    0  501 -0.00000000000E+00  0.00000000000E+00  0.87815337326E+03  0.87815337326E+03  0.00000000000E+00 0.  1.
          2   -1    0    0  501    0  0.00000000000E+00 -0.00000000000E+00 -0.40080190599E+04  0.40080190599E+04  0.00000000000E+00 0. -1.
         24    2    1    2    0    0 -0.13243470699E+04 -0.79914743748E+03 -0.25904564379E+04  0.30181330593E+04  0.78299545391E+02 0.  0.
        254    2    1    2    0    0  0.13243470699E+04  0.79914743748E+03 -0.53940924879E+03  0.18680393739E+04  0.89781789699E+03 0.  0.
         23    2    4    4    0    0  0.65467553441E+03  0.16557343863E+03 -0.64171192513E+03  0.93603512814E+03  0.91394459951E+02 0.  0.
         23    2    4    4    0    0  0.66967153552E+03  0.63357399885E+03  0.10230267634E+03  0.93200424573E+03  0.91049980545E+02 0.  0.
          4    1    3    3  502    0 -0.10518149489E+04 -0.60278602005E+03 -0.19944388699E+04  0.23339777374E+04  0.00000000000E+00 0. -1.
         -3    1    3    3    0  502 -0.27253212103E+03 -0.19636141743E+03 -0.59601756795E+03  0.68415532195E+03  0.00000000000E+00 0.  1.
         13    1    5    5    0    0 -0.34808972182E-01 -0.37030282622E+01  0.11317519919E+00  0.37049208630E+01  0.00000000000E+00 0. -1.
        -13    1    5    5    0    0  0.65471034339E+03  0.16927646689E+03 -0.64182510033E+03  0.93233020727E+03  0.00000000000E+00 0.  1.
          4    1    6    6  503    0  0.99100792755E+02  0.11277850849E+03 -0.13997606697E+02  0.15078425679E+03  0.00000000000E+00 0. -1.
         -4    1    6    6    0  503  0.57057074277E+03  0.52079549036E+03  0.11630028304E+03  0.78121998894E+03  0.00000000000E+00 0.  1.
<mgrwt>
<rscale>  0 0.37521490E+04</rscale>
<asrwt>0</asrwt>
<pdfrwt beam="1">  1        2 0.61661831E+00 0.37521490E+04</pdfrwt>
<pdfrwt beam="2">  1       -1 0.13510052E+00 0.37521490E+04</pdfrwt>
<totfact> 0.14105179E-01</totfact>
</mgrwt>
</event>
<event>
12    7  0.1735955E-007  0.2602289E+04  0.7818608E-02  0.8367424E-01
         -1   -1    0    0    0  501 -0.00000000000E+00  0.00000000000E+00  0.96496769016E+03  0.96496769016E+03  0.00000000000E+00 0.  1.
          2   -1    0    0  501    0  0.00000000000E+00 -0.00000000000E+00 -0.17544396938E+04  0.17544396938E+04  0.00000000000E+00 0. -1.
         24    2    1    2    0    0  0.10574057818E+04  0.42253922385E+03 -0.47697742778E+03  0.12370339065E+04  0.78096326400E+02 0.  0.
        254    2    1    2    0    0 -0.10574057818E+04 -0.42253922385E+03 -0.31249457584E+03  0.14823734774E+04  0.89617625703E+03 0.  0.
         23    2    4    4    0    0 -0.11159601421E+04 -0.37077120567E+03 -0.48231476018E+03  0.12741694653E+04  0.89677045637E+02 0.  0.
         23    2    4    4    0    0  0.58554360360E+02 -0.51768018184E+02  0.16982018434E+03  0.20820401218E+03  0.91659559555E+02 0.  0.
          4    1    3    3  502    0  0.22176232301E+03  0.91225924086E+02 -0.13553540440E+03  0.27544607998E+03  0.00000000000E+00 0. -1.
         -3    1    3    3    0  502  0.83564345877E+03  0.33131329977E+03 -0.34144202339E+03  0.96158782652E+03  0.00000000000E+00 0.  1.
         13    1    5    5    0    0 -0.95342131984E+02 -0.52707926122E+02 -0.62987940142E+02  0.12584008984E+03  0.00000000000E+00 0. -1.
        -13    1    5    5    0    0 -0.10206180102E+04 -0.31806327955E+03 -0.41932682004E+03  0.11483293754E+04  0.00000000000E+00 0.  1.
          2    1    6    6  503    0  0.65009951123E+01  0.20758526367E+02  0.76005678494E+01  0.23042308608E+02  0.00000000000E+00 0. -1.
         -2    1    6    6    0  503  0.52053365248E+02 -0.72526544550E+02  0.16221961649E+03  0.18516170358E+03  0.00000000000E+00 0.  1.
<mgrwt>
<rscale>  0 0.26022895E+04</rscale>
<asrwt>0</asrwt>
<pdfrwt beam="1">  1        2 0.26991380E+00 0.26022895E+04</pdfrwt>
<pdfrwt beam="2">  1       -1 0.14845657E+00 0.26022895E+04</pdfrwt>
<totfact> 0.33034823E+00</totfact>
</mgrwt>
</event>
<event>
12    7  0.1735955E-007  0.1620585E+04  0.7818608E-02  0.8808001E-01
          2   -1    0    0  501    0  0.00000000000E+00  0.00000000000E+00  0.40262616526E+03  0.40262616526E+03  0.00000000000E+00 0. -1.
         -1   -1    0    0    0  501 -0.00000000000E+00 -0.00000000000E+00 -0.16307290238E+04  0.16307290238E+04  0.00000000000E+00 0.  1.
         24    2    1    2    0    0  0.75917344039E+02  0.42467364430E+03  0.13241313861E+02  0.43923133438E+03  0.81471991634E+02 0.  0.
        254    2    1    2    0    0 -0.75917344039E+02 -0.42467364430E+03 -0.12413441724E+04  0.15941238547E+04  0.90232165132E+03 0.  0.
         23    2    4    4    0    0  0.38859691426E+03 -0.31662580003E+03 -0.56026216839E+03  0.75802969057E+03  0.97241222938E+02 0.  0.
         23    2    4    4    0    0 -0.46451425830E+03 -0.10804784427E+03 -0.68108200400E+03  0.83609416411E+03  0.87937035860E+02 0.  0.
          2    1    3    3  502    0  0.86475288714E+02  0.38065636891E+03 -0.51057542600E+01  0.39038867232E+03  0.00000000000E+00 0. -1.
         -1    1    3    3    0  502 -0.10557944675E+02  0.44017275384E+02  0.18347068121E+02  0.48842662055E+02  0.00000000000E+00 0.  1.
         13    1    5    5    0    0  0.29563675501E+03 -0.19927865733E+03 -0.34740219376E+03  0.49779650301E+03  0.00000000000E+00 0.  1.
        -13    1    5    5    0    0  0.92960159249E+02 -0.11734714270E+03 -0.21285997463E+03  0.26023318756E+03  0.00000000000E+00 0. -1.
          1    1    6    6  503    0 -0.17688171703E+03 -0.38268677680E+02 -0.18763468808E+03  0.26068833822E+03  0.00000000000E+00 0. -1.
         -1    1    6    6    0  503 -0.28763254126E+03 -0.69779166589E+02 -0.49344731591E+03  0.57540582589E+03  0.00000000000E+00 0.  1.
<mgrwt>
<rscale>  0 0.16205853E+04</rscale>
<asrwt>0</asrwt>
<pdfrwt beam="1">  1        2 0.61942487E-01 0.16205853E+04</pdfrwt>
<pdfrwt beam="2">  1       -1 0.25088139E+00 0.16205853E+04</pdfrwt>
<totfact> 0.59491909E+00</totfact>
</mgrwt>
</event>
<event>
12    7  0.1735955E-007  0.1815255E+04  0.7818608E-02  0.8698229E-01
          2   -1    0    0  501    0  0.00000000000E+00  0.00000000000E+00  0.44884870644E+03  0.44884870644E+03  0.00000000000E+00 0. -1.
         -1   -1    0    0    0  501 -0.00000000000E+00 -0.00000000000E+00 -0.18353355061E+04  0.18353355061E+04  0.00000000000E+00 0.  1.
         24    2    1    2    0    0  0.15438735522E+03 -0.60692914446E+03 -0.89324368604E+03  0.10938461255E+04  0.80103818476E+02 0.  0.
        254    2    1    2    0    0 -0.15438735522E+03  0.60692914446E+03 -0.49324311363E+03  0.11903380871E+04  0.88397825230E+03 0.  0.
         23    2    4    4    0    0 -0.29733584681E+03  0.70720490058E+03 -0.13775441139E+03  0.78428963632E+03  0.87100967707E+02 0.  0.
         23    2    4    4    0    0  0.14294849158E+03 -0.10027575613E+03 -0.35548870224E+03  0.40604845075E+03  0.89518871893E+02 0.  0.
          4    1    3    3  502    0  0.23502962651E+02 -0.25152984085E+03 -0.35693492174E+03  0.43728959334E+03  0.00000000000E+00 0. -1.
         -3    1    3    3    0  502  0.13088439257E+03 -0.35539930361E+03 -0.53630876430E+03  0.65655653214E+03  0.00000000000E+00 0.  1.
         13    1    5    5    0    0 -0.29449362560E+03  0.63651778760E+03 -0.12396078070E+03  0.71221321568E+03  0.00000000000E+00 0. -1.
        -13    1    5    5    0    0 -0.28422212081E+01  0.70687112989E+02 -0.13793630698E+02  0.72076420638E+02  0.00000000000E+00 0.  1.
          1    1    6    6  503    0  0.13406351399E+03 -0.81562325335E+02 -0.22736740857E+03  0.27626323892E+03  0.00000000000E+00 0. -1.
         -1    1    6    6    0  503  0.88849775913E+01 -0.18713430791E+02 -0.12812129367E+03  0.12978521184E+03  0.00000000000E+00 0.  1.
<mgrwt>
<rscale>  0 0.18152553E+04</rscale>
<asrwt>0</asrwt>
<pdfrwt beam="1">  1        2 0.69053647E-01 0.18152553E+04</pdfrwt>
<pdfrwt beam="2">  1       -1 0.28235931E+00 0.18152553E+04</pdfrwt>
<totfact> 0.32325293E+00</totfact>
</mgrwt>
</event>
<event>
12    7  0.1735955E-007  0.1647043E+04  0.7818608E-02  0.8792158E-01
         -1   -1    0    0    0  501 -0.00000000000E+00  0.00000000000E+00  0.40922996320E+03  0.40922996320E+03  0.00000000000E+00 0.  1.
          2   -1    0    0  501    0  0.00000000000E+00 -0.00000000000E+00 -0.16572278187E+04  0.16572278187E+04  0.00000000000E+00 0. -1.
         24    2    1    2    0    0  0.16629624510E+03 -0.53198503404E+03 -0.62193399483E+03  0.83936666655E+03  0.84095121174E+02 0.  0.
        254    2    1    2    0    0 -0.16629624510E+03  0.53198503404E+03 -0.62606386067E+03  0.12270911153E+04  0.89617751040E+03 0.  0.
         23    2    4    4    0    0 -0.86134486712E+02  0.23305253111E+03  0.20557748064E+03  0.33514071548E+03  0.91239062722E+02 0.  0.
         23    2    4    4    0    0 -0.80161758387E+02  0.29893250293E+03 -0.83164134131E+03  0.89195039987E+03  0.90341831006E+02 0.  0.
          4    1    3    3  502    0  0.12011828695E+03 -0.38998548369E+03 -0.50768363476E+03  0.65135224982E+03  0.00000000000E+00 0. -1.
         -3    1    3    3    0  502  0.46177958147E+02 -0.14199955036E+03 -0.11425036007E+03  0.18801441673E+03  0.00000000000E+00 0.  1.
         13    1    5    5    0    0 -0.10276740210E+03  0.21933541523E+03  0.19583944894E+03  0.31148395315E+03  0.00000000000E+00 0.  1.
        -13    1    5    5    0    0  0.16632915391E+02  0.13717115882E+02  0.97380317067E+01  0.23656762333E+02  0.00000000000E+00 0. -1.
          1    1    6    6  503    0 -0.77649876572E+02  0.14893556618E+03 -0.51220603438E+03  0.53904204646E+03  0.00000000000E+00 0. -1.
         -1    1    6    6    0  503 -0.25118818146E+01  0.14999693675E+03 -0.31943530693E+03  0.35290835340E+03  0.00000000000E+00 0.  1.
<mgrwt>
<rscale>  0 0.16470425E+04</rscale>
<asrwt>0</asrwt>
<pdfrwt beam="1">  1        2 0.25495813E+00 0.16470425E+04</pdfrwt>
<pdfrwt beam="2">  1       -1 0.62958455E-01 0.16470425E+04</pdfrwt>
<totfact> 0.28855610E+01</totfact>
</mgrwt>
</event>
<event>
12    7  0.1735955E-007  0.2135865E+04  0.7818608E-02  0.8545607E-01
          2   -1    0    0  501    0  0.00000000000E+00  0.00000000000E+00  0.22124938650E+04  0.22124938650E+04  0.00000000000E+00 0. -1.
         -1   -1    0    0    0  501 -0.00000000000E+00 -0.00000000000E+00 -0.51547271675E+03  0.51547271675E+03  0.00000000000E+00 0.  1.
         24    2    1    2    0    0 -0.65233602370E+03 -0.55101230332E+03  0.44967007706E+03  0.96824913279E+03  0.78398716328E+02 0.  0.
        254    2    1    2    0    0  0.65233602370E+03  0.55101230332E+03  0.12473510712E+04  0.17597174489E+04  0.90086844719E+03 0.  0.
         23    2    4    4    0    0  0.77801678769E+03  0.34133519701E+03  0.55325877388E+03  0.10173386628E+04  0.84040735840E+02 0.  0.
         23    2    4    4    0    0 -0.12568076399E+03  0.20967710630E+03  0.69409229727E+03  0.74237878614E+03  0.97989803736E+02 0.  0.
          4    1    3    3  502    0 -0.99552417945E+02 -0.10316161533E+03  0.10511148065E+03  0.17776789969E+03  0.00000000000E+00 0. -1.
         -3    1    3    3    0  502 -0.55278360575E+03 -0.44785068799E+03  0.34455859641E+03  0.79048123310E+03  0.00000000000E+00 0.  1.
         13    1    5    5    0    0  0.59815529516E+03  0.24363886897E+03  0.38141960768E+03  0.75008704343E+03  0.00000000000E+00 0.  1.
        -13    1    5    5    0    0  0.17986149253E+03  0.97696328049E+02  0.17183916620E+03  0.26725161935E+03  0.00000000000E+00 0. -1.
          2    1    6    6  503    0 -0.32018931494E+01  0.33428725832E+02  0.32071230983E+02  0.46435930994E+02  0.00000000000E+00 0. -1.
         -2    1    6    6    0  503 -0.12247887084E+03  0.17624838047E+03  0.66202106629E+03  0.69594285515E+03  0.00000000000E+00 0.  1.
<mgrwt>
<rscale>  0 0.21358654E+04</rscale>
<asrwt>0</asrwt>
<pdfrwt beam="1">  1        2 0.34038367E+00 0.21358654E+04</pdfrwt>
<pdfrwt beam="2">  1       -1 0.79303496E-01 0.21358654E+04</pdfrwt>
<totfact> 0.84442750E+00</totfact>
</mgrwt>
</event>
<event>
12    7  0.1735955E-007  0.2357346E+04  0.7818608E-02  0.8455647E-01
          2   -1    0    0  501    0  0.00000000000E+00  0.00000000000E+00  0.28833793752E+04  0.28833793752E+04  0.00000000000E+00 0. -1.
         -1   -1    0    0    0  501 -0.00000000000E+00 -0.00000000000E+00 -0.48182026983E+03  0.48182026983E+03  0.00000000000E+00 0.  1.
         24    2    1    2    0    0 -0.38482377010E+03  0.37451992764E+03  0.22405717505E+04  0.23054010589E+04  0.79735583332E+02 0.  0.
        254    2    1    2    0    0  0.38482377010E+03 -0.37451992764E+03  0.16098735490E+03  0.10597985861E+04  0.89938957323E+03 0.  0.
         23    2    4    4    0    0  0.43420822926E+03 -0.21168386660E+03 -0.28807006621E+03  0.57129504661E+03  0.10023383410E+03 0.  0.
         23    2    4    4    0    0 -0.49384459158E+02 -0.16283606104E+03  0.44905742112E+03  0.48850353950E+03  0.89603197828E+02 0.  0.
          2    1    3    3  502    0 -0.37516661861E+03  0.35911696161E+03  0.22063675220E+04  0.22666655302E+04  0.00000000000E+00 0. -1.
         -1    1    3    3    0  502 -0.96571514933E+01  0.15402966035E+02  0.34204228504E+02  0.38735528719E+02  0.00000000000E+00 0.  1.
         13    1    5    5    0    0  0.39640308293E+03 -0.16820661908E+03 -0.22493878127E+03  0.48582540710E+03  0.00000000000E+00 0. -1.
        -13    1    5    5    0    0  0.37805146331E+02 -0.43477247519E+02 -0.63131284940E+02  0.85469639517E+02  0.00000000000E+00 0.  1.
          2    1    6    6  503    0 -0.12433880207E+02 -0.22562369143E+02  0.12809264419E+02  0.28770455911E+02  0.00000000000E+00 0.  1.
         -2    1    6    6    0  503 -0.36950578951E+02 -0.14027369190E+03  0.43624815670E+03  0.45973308359E+03  0.00000000000E+00 0. -1.
<mgrwt>
<rscale>  0 0.23573465E+04</rscale>
<asrwt>0</asrwt>
<pdfrwt beam="1">  1        2 0.44359682E+00 0.23573465E+04</pdfrwt>
<pdfrwt beam="2">  1       -1 0.74126197E-01 0.23573465E+04</pdfrwt>
<totfact> 0.38701772E+00</totfact>
</mgrwt>
</event>
<event>
12    7  0.1735955E-007  0.2149985E+04  0.7818608E-02  0.8539539E-01
         -1   -1    0    0    0  501 -0.00000000000E+00  0.00000000000E+00  0.43763649964E+03  0.43763649964E+03  0.00000000000E+00 0.  1.
          2   -1    0    0  501    0  0.00000000000E+00 -0.00000000000E+00 -0.26405670559E+04  0.26405670559E+04  0.00000000000E+00 0. -1.
         24    2    1    2    0    0 -0.21956614409E+03  0.84804730953E+03 -0.10431797759E+04  0.13641456794E+04  0.72635107452E+02 0.  0.
        254    2    1    2    0    0  0.21956614409E+03 -0.84804730953E+03 -0.11597507803E+04  0.17140578761E+04  0.90861377907E+03 0.  0.
         23    2    4    4    0    0  0.20646498122E+03  0.14141273569E+03 -0.28505165555E+03  0.38998239795E+03  0.90589591533E+02 0.  0.
         23    2    4    4    0    0  0.13101162868E+02 -0.98946004522E+03 -0.87469912476E+03  0.13240754782E+04  0.94204519720E+02 0.  0.
          4    1    3    3  502    0 -0.16474809497E+03  0.51270133929E+03 -0.66589669969E+03  0.85640119849E+03  0.00000000000E+00 0. -1.
         -3    1    3    3    0  502 -0.54818049124E+02  0.33534597024E+03 -0.37728307623E+03  0.50774448089E+03  0.00000000000E+00 0.  1.
         13    1    5    5    0    0  0.16832532359E+03  0.14937357995E+03 -0.22375938304E+03  0.31735491559E+03  0.00000000000E+00 0. -1.
        -13    1    5    5    0    0  0.38139657627E+02 -0.79608442559E+01 -0.61292272506E+02  0.72627482361E+02  0.00000000000E+00 0.  1.
          1    1    6    6  503    0  0.22737879334E+01 -0.73292181982E+03 -0.70011385020E+03  0.10135773120E+04  0.00000000000E+00 0. -1.
         -1    1    6    6    0  503  0.10827374935E+02 -0.25653822540E+03 -0.17458527456E+03  0.31049816623E+03  0.00000000000E+00 0.  1.
<mgrwt>
<rscale>  0 0.21499847E+04</rscale>
<asrwt>0</asrwt>
<pdfrwt beam="1">  1        2 0.40624109E+00 0.21499847E+04</pdfrwt>
<pdfrwt beam="2">  1       -1 0.67328691E-01 0.21499847E+04</pdfrwt>
<totfact> 0.67245917E+00</totfact>
</mgrwt>
</event>
<event>
12    7  0.1735955E-007  0.2342377E+04  0.7818608E-02  0.8461397E-01
         -1   -1    0    0    0  501 -0.00000000000E+00  0.00000000000E+00  0.50235163591E+03  0.50235163591E+03  0.00000000000E+00 0.  1.
          2   -1    0    0  501    0  0.00000000000E+00 -0.00000000000E+00 -0.27305223001E+04  0.27305223001E+04  0.00000000000E+00 0. -1.
         24    2    1    2    0    0  0.52369990956E+03  0.17163876490E+03  0.19409047146E+03  0.58989140043E+03  0.81112836812E+02 0.  0.
        254    2    1    2    0    0 -0.52369990956E+03 -0.17163876490E+03 -0.24222611357E+04  0.26429825356E+04  0.90237808776E+03 0.  0.
         23    2    4    4    0    0 -0.49944737527E+03 -0.97348536308E+02 -0.24621008368E+04  0.25157770605E+04  0.90935522892E+02 0.  0.
         23    2    4    4    0    0 -0.24252534290E+02 -0.74290228591E+02  0.39839701111E+02  0.12720547514E+03  0.92123871159E+02 0.  0.
          2    1    3    3  502    0  0.18642138892E+03  0.98209053660E+02  0.55213487112E+02  0.21782213301E+03  0.00000000000E+00 0. -1.
         -1    1    3    3    0  502  0.33727852064E+03  0.73429711240E+02  0.13887698435E+03  0.37206926742E+03  0.00000000000E+00 0.  1.
         13    1    5    5    0    0 -0.45039819402E+03 -0.11102368473E+03 -0.22787863898E+04  0.23255219204E+04  0.00000000000E+00 0. -1.
        -13    1    5    5    0    0 -0.49049181248E+02  0.13675148418E+02 -0.18331444698E+03  0.19025514011E+03  0.00000000000E+00 0.  1.
          4    1    6    6  503    0 -0.33592153150E+02 -0.92259533593E+02  0.42096291705E+02  0.10682861072E+03  0.00000000000E+00 0. -1.
         -4    1    6    6    0  503  0.93396188600E+01  0.17969305002E+02 -0.22565905936E+01  0.20376864425E+02  0.00000000000E+00 0.  1.
<mgrwt>
<rscale>  0 0.23423769E+04</rscale>
<asrwt>0</asrwt>
<pdfrwt beam="1">  1        2 0.42008034E+00 0.23423769E+04</pdfrwt>
<pdfrwt beam="2">  1       -1 0.77284869E-01 0.23423769E+04</pdfrwt>
<totfact> 0.43936189E+00</totfact>
</mgrwt>
</event>
<event>
12    7  0.1735955E-007  0.3595731E+04  0.7818608E-02  0.8091470E-01
          2   -1    0    0  501    0  0.00000000000E+00  0.00000000000E+00  0.24175195530E+04  0.24175195530E+04  0.00000000000E+00 0. -1.
         -1   -1    0    0    0  501 -0.00000000000E+00 -0.00000000000E+00 -0.13370398350E+04  0.13370398350E+04  0.00000000000E+00 0.  1.
         24    2    1    2    0    0 -0.88838972562E+02  0.67758338561E+03 -0.10999376386E+04  0.12974080385E+04  0.79957501721E+02 0.  0.
        254    2    1    2    0    0  0.88838972562E+02 -0.67758338561E+03  0.21804173566E+04  0.24571513495E+04  0.90352714277E+03 0.  0.
         23    2    4    4    0    0  0.40133333139E+03 -0.58609813782E+02  0.61454986855E+03  0.74215342287E+03  0.92825691423E+02 0.  0.
         23    2    4    4    0    0 -0.31249435883E+03 -0.61897357182E+03  0.15658674881E+04  0.17149979266E+04  0.92173158613E+02 0.  0.
          4    1    3    3  502    0 -0.99243446844E+02  0.50142857785E+03 -0.79736702306E+03  0.94713993153E+03  0.00000000000E+00 0. -1.
         -3    1    3    3    0  502  0.10404474282E+02  0.17615480776E+03 -0.30257061558E+03  0.35026810702E+03  0.00000000000E+00 0.  1.
         13    1    5    5    0    0  0.28320276129E+03  0.20364671633E+01  0.41162225287E+03  0.49964070117E+03  0.00000000000E+00 0.  1.
        -13    1    5    5    0    0  0.11813057010E+03 -0.60646280945E+02  0.20292761568E+03  0.24251272170E+03  0.00000000000E+00 0. -1.
          2    1    6    6  503    0 -0.26073030980E+03 -0.44468316432E+03  0.12147625048E+04  0.13196103039E+04  0.00000000000E+00 0. -1.
         -2    1    6    6    0  503 -0.51764049027E+02 -0.17429040750E+03  0.35110498327E+03  0.39538762272E+03  0.00000000000E+00 0.  1.
<mgrwt>
<rscale>  0 0.35957308E+04</rscale>
<asrwt>0</asrwt>
<pdfrwt beam="1">  1        2 0.37192609E+00 0.35957308E+04</pdfrwt>
<pdfrwt beam="2">  1       -1 0.20569844E+00 0.35957308E+04</pdfrwt>
<totfact> 0.49504754E-01</totfact>
</mgrwt>
</event>
<event>
12    7  0.1735955E-007  0.2489139E+04  0.7818608E-02  0.8406865E-01
          2   -1    0    0  501    0  0.00000000000E+00  0.00000000000E+00  0.11733341263E+04  0.11733341263E+04  0.00000000000E+00 0. -1.
         -1   -1    0    0    0  501 -0.00000000000E+00 -0.00000000000E+00 -0.13201300013E+04  0.13201300013E+04  0.00000000000E+00 0.  1.
         24    2    1    2    0    0  0.67291472697E+03  0.79543701985E+03  0.22388994564E+03  0.10683794815E+04  0.75985040898E+02 0.  0.
        254    2    1    2    0    0 -0.67291472697E+03 -0.79543701985E+03 -0.37068582071E+03  0.14250846461E+04  0.89884592036E+03 0.  0.
         23    2    4    4    0    0 -0.41713240094E+03 -0.59644633637E+03 -0.65571203930E+03  0.98382782744E+03  0.90615911812E+02 0.  0.
         23    2    4    4    0    0 -0.25578232602E+03 -0.19899068348E+03  0.28502621860E+03  0.44125681866E+03  0.91900730721E+02 0.  0.
          2    1    3    3  502    0  0.74738546262E+02  0.10568078976E+03  0.51703292468E+01  0.12954154518E+03  0.00000000000E+00 0. -1.
         -1    1    3    3    0  502  0.59817618071E+03  0.68975623009E+03  0.21871961640E+03  0.93883793634E+03  0.00000000000E+00 0.  1.
         13    1    5    5    0    0 -0.60453046963E+02 -0.14501130481E+03 -0.16237593046E+03  0.22593979774E+03  0.00000000000E+00 0. -1.
        -13    1    5    5    0    0 -0.35667935398E+03 -0.45143503156E+03 -0.49333610884E+03  0.75788802970E+03  0.00000000000E+00 0.  1.
          4    1    6    6  503    0 -0.12819417677E+03 -0.48360553241E+02  0.91105822869E+02  0.16453802304E+03  0.00000000000E+00 0. -1.
         -4    1    6    6    0  503 -0.12758814926E+03 -0.15063013024E+03  0.19392039573E+03  0.27671879561E+03  0.00000000000E+00 0.  1.
<mgrwt>
<rscale>  0 0.24891393E+04</rscale>
<asrwt>0</asrwt>
<pdfrwt beam="1">  1        2 0.18051294E+00 0.24891393E+04</pdfrwt>
<pdfrwt beam="2">  1       -1 0.20309692E+00 0.24891393E+04</pdfrwt>
<totfact> 0.28651829E+00</totfact>
</mgrwt>
</event>
<event>
12    7  0.1735955E-007  0.1430321E+04  0.7818608E-02  0.8932158E-01
          2   -1    0    0  501    0  0.00000000000E+00  0.00000000000E+00  0.31600628246E+04  0.31600628246E+04  0.00000000000E+00 0. -1.
         -1   -1    0    0    0  501 -0.00000000000E+00 -0.00000000000E+00 -0.16184957771E+03  0.16184957771E+03  0.00000000000E+00 0.  1.
         24    2    1    2    0    0  0.22859374131E+03  0.10438573985E+03  0.11123538820E+03  0.28596695113E+03  0.79071513867E+02 0.  0.
        254    2    1    2    0    0 -0.22859374131E+03 -0.10438573985E+03  0.28869778586E+04  0.30359454511E+04  0.90508129177E+03 0.  0.
         23    2    4    4    0    0 -0.85419216595E+02 -0.33891880069E+03  0.26103080452E+04  0.26351599061E+04  0.90538630964E+02 0.  0.
         23    2    4    4    0    0 -0.14317452471E+03  0.23453306084E+03  0.27666981341E+03  0.40078554503E+03  0.92618390724E+02 0.  0.
          2    1    3    3  502    0  0.39657302468E+02  0.22805023379E+02  0.57106495274E+02  0.73170503161E+02  0.00000000000E+00 0. -1.
         -1    1    3    3    0  502  0.18893643884E+03  0.81580716471E+02  0.54128892921E+02  0.21279644797E+03  0.00000000000E+00 0.  1.
         13    1    5    5    0    0 -0.60561846029E+02 -0.32821856573E+03  0.23881961483E+04  0.24114054008E+04  0.00000000000E+00 0.  1.
        -13    1    5    5    0    0 -0.24857370566E+02 -0.10700234962E+02  0.22211189691E+03  0.22375450532E+03  0.00000000000E+00 0. -1.
          1    1    6    6  503    0 -0.97304029782E+02  0.72209798444E+02  0.10999742764E+03  0.16365134674E+03  0.00000000000E+00 0. -1.
         -1    1    6    6    0  503 -0.45870494930E+02  0.16232326239E+03  0.16667238577E+03  0.23713419829E+03  0.00000000000E+00 0.  1.
<mgrwt>
<rscale>  0 0.14303214E+04</rscale>
<asrwt>0</asrwt>
<pdfrwt beam="1">  1        2 0.48616347E+00 0.14303214E+04</pdfrwt>
<pdfrwt beam="2">  1       -1 0.24899937E-01 0.14303214E+04</pdfrwt>
<totfact> 0.21706304E+01</totfact>
</mgrwt>
</event>
<event>
12    7  0.1735955E-007  0.1303874E+04  0.7818608E-02  0.9026499E-01
          2   -1    0    0  501    0  0.00000000000E+00  0.00000000000E+00  0.11615860161E+04  0.11615860161E+04  0.00000000000E+00 0. -1.
         -1   -1    0    0    0  501 -0.00000000000E+00 -0.00000000000E+00 -0.36589792433E+03  0.36589792433E+03  0.00000000000E+00 0.  1.
         24    2    1    2    0    0  0.33092337882E+02 -0.33220875801E+03  0.17722233658E+03  0.38655184836E+03  0.80974151192E+02 0.  0.
        254    2    1    2    0    0 -0.33092337882E+02  0.33220875801E+03  0.61846575520E+03  0.11409320921E+04  0.89875935971E+03 0.  0.
         23    2    4    4    0    0  0.41728779267E+03  0.14122361550E+03  0.38028854071E+03  0.58920603596E+03  0.92038943514E+02 0.  0.
         23    2    4    4    0    0 -0.45038013055E+03  0.19098514251E+03  0.23817721449E+03  0.55172605613E+03  0.91409347722E+02 0.  0.
          4    1    3    3  502    0  0.33378807655E+01  0.14122608822E+01 -0.42656873299E+01  0.55975009782E+01  0.00000000000E+00 0. -1.
         -3    1    3    3    0  502  0.29754457116E+02 -0.33362101890E+03  0.18148802391E+03  0.38095434738E+03  0.00000000000E+00 0.  1.
         13    1    5    5    0    0  0.40353476112E+03  0.12487378731E+03  0.37946217980E+03  0.56782507173E+03  0.00000000000E+00 0.  1.
        -13    1    5    5    0    0  0.13753031545E+02  0.16349828195E+02  0.82636091302E+00  0.21380964221E+02  0.00000000000E+00 0. -1.
          3    1    6    6  503    0 -0.25646124332E+03  0.15016050201E+03  0.16869350981E+03  0.34172802920E+03  0.00000000000E+00 0. -1.
         -3    1    6    6    0  503 -0.19391888723E+03  0.40824640502E+02  0.69483704680E+02  0.20999802692E+03  0.00000000000E+00 0.  1.
<mgrwt>
<rscale>  0 0.13038741E+04</rscale>
<asrwt>0</asrwt>
<pdfrwt beam="1">  1        2 0.17870554E+00 0.13038741E+04</pdfrwt>
<pdfrwt beam="2">  1       -1 0.56291989E-01 0.13038741E+04</pdfrwt>
<totfact> 0.71269408E+01</totfact>
</mgrwt>
</event>
<event>
12    7  0.1735955E-007  0.1412939E+04  0.7818608E-02  0.8944506E-01
         -1   -1    0    0    0  501 -0.00000000000E+00  0.00000000000E+00  0.12777106026E+04  0.12777106026E+04  0.00000000000E+00 0.  1.
          2   -1    0    0  501    0  0.00000000000E+00 -0.00000000000E+00 -0.39061971303E+03  0.39061971303E+03  0.00000000000E+00 0. -1.
         24    2    1    2    0    0  0.37566891979E+02 -0.93616740675E+02 -0.20258091024E+03  0.24030807524E+03  0.80830565531E+02 0.  0.
        254    2    1    2    0    0 -0.37566891979E+02  0.93616740675E+02  0.10896717998E+04  0.14280222404E+04  0.91743529594E+03 0.  0.
         23    2    4    4    0    0 -0.41081620520E+01 -0.40375753288E+03  0.44187840923E+03  0.60569175022E+03  0.92568598331E+02 0.  0.
         23    2    4    4    0    0 -0.33458729927E+02  0.49737427355E+03  0.64779339054E+03  0.82233049014E+03  0.89947226598E+02 0.  0.
          4    1    3    3  502    0  0.24591369818E+02 -0.98975028076E+02 -0.20196818139E+03  0.22625635449E+03  0.00000000000E+00 0. -1.
         -3    1    3    3    0  502  0.12975522161E+02  0.53582874012E+01 -0.61272884066E+00  0.14051720743E+02  0.00000000000E+00 0.  1.
         13    1    5    5    0    0  0.10998482175E+02 -0.29339333915E+03  0.37313239185E+03  0.47479300744E+03  0.00000000000E+00 0.  1.
        -13    1    5    5    0    0 -0.15106644227E+02 -0.11036419373E+03  0.68746017381E+02  0.13089874279E+03  0.00000000000E+00 0. -1.
          3    1    6    6  503    0  0.13397824026E+02  0.20997392545E+03  0.32936043489E+03  0.39082841136E+03  0.00000000000E+00 0. -1.
         -3    1    6    6    0  503 -0.46856553953E+02  0.28740034810E+03  0.31843295565E+03  0.43150207877E+03  0.00000000000E+00 0.  1.
<mgrwt>
<rscale>  0 0.14129387E+04</rscale>
<asrwt>0</asrwt>
<pdfrwt beam="1">  1        2 0.60095341E-01 0.14129387E+04</pdfrwt>
<pdfrwt beam="2">  1       -1 0.19657086E+00 0.14129387E+04</pdfrwt>
<totfact> 0.14446181E+01</totfact>
</mgrwt>
</event>
<event>
12    7  0.1735955E-007  0.1052441E+04  0.7818608E-02  0.9252827E-01
          2   -1    0    0  501    0  0.00000000000E+00  0.00000000000E+00  0.96877929165E+03  0.96877929165E+03  0.00000000000E+00 0. -1.
         -1   -1    0    0    0  501 -0.00000000000E+00 -0.00000000000E+00 -0.28583211178E+03  0.28583211178E+03  0.00000000000E+00 0.  1.
         24    2    1    2    0    0 -0.91440936384E+02 -0.70324158767E+02  0.15488817530E+03  0.20897715023E+03  0.79838401265E+02 0.  0.
        254    2    1    2    0    0  0.91440936384E+02  0.70324158767E+02  0.52805900457E+03  0.10456342532E+04  0.89509650151E+03 0.  0.
         23    2    4    4    0    0 -0.33978290541E+03 -0.13313342482E+03  0.38621339393E+03  0.53985546648E+03  0.95426450312E+02 0.  0.
         23    2    4    4    0    0  0.43122384180E+03  0.20345758358E+03  0.14184561064E+03  0.50577878672E+03  0.91340099590E+02 0.  0.
          4    1    3    3  502    0 -0.95118842601E+02 -0.81947601317E+02  0.12720899706E+03  0.17873201311E+03  0.00000000000E+00 0. -1.
         -3    1    3    3    0  502  0.36779062165E+01  0.11623442550E+02  0.27679178246E+02  0.30245137117E+02  0.00000000000E+00 0.  1.
         13    1    5    5    0    0 -0.28968593929E+03 -0.14097849338E+03  0.30217599860E+03  0.44170489373E+03  0.00000000000E+00 0.  1.
        -13    1    5    5    0    0 -0.50096966125E+02  0.78450685675E+01  0.84037395336E+02  0.98150572747E+02  0.00000000000E+00 0. -1.
          3    1    6    6  503    0  0.32876663818E+02  0.31402441910E+02  0.38859414277E+02  0.59808381182E+02  0.00000000000E+00 0. -1.
         -3    1    6    6    0  503  0.39834717798E+03  0.17205514167E+03  0.10298619636E+03  0.44597040554E+03  0.00000000000E+00 0.  1.
<mgrwt>
<rscale>  0 0.10524414E+04</rscale>
<asrwt>0</asrwt>
<pdfrwt beam="1">  1        2 0.14904297E+00 0.10524414E+04</pdfrwt>
<pdfrwt beam="2">  1       -1 0.43974172E-01 0.10524414E+04</pdfrwt>
<totfact> 0.15310260E+02</totfact>
</mgrwt>
</event>
<event>
12    7  0.1735955E-007  0.1739450E+04  0.7818608E-02  0.8739179E-01
          2   -1    0    0  501    0  0.00000000000E+00  0.00000000000E+00  0.80693129365E+03  0.80693129365E+03  0.00000000000E+00 0. -1.
         -1   -1    0    0    0  501 -0.00000000000E+00 -0.00000000000E+00 -0.93740495312E+03  0.93740495312E+03  0.00000000000E+00 0.  1.
         24    2    1    2    0    0 -0.38756445031E+03  0.50546112513E+03 -0.30542374823E+02  0.64225186491E+03  0.76534104564E+02 0.  0.
        254    2    1    2    0    0  0.38756445031E+03 -0.50546112513E+03 -0.99931284650E+02  0.11020843819E+04  0.89381573656E+03 0.  0.
         23    2    4    4    0    0  0.49340696250E+03 -0.65509214430E+03 -0.23499620985E+03  0.85721728953E+03  0.83678639256E+02 0.  0.
         23    2    4    4    0    0 -0.10584251219E+03  0.14963101917E+03  0.13506492520E+03  0.24486709233E+03  0.90140332821E+02 0.  0.
          4    1    3    3  502    0 -0.19126171076E+03  0.30165502777E+03 -0.37920698681E+02  0.35918627086E+03  0.00000000000E+00 0. -1.
         -3    1    3    3    0  502 -0.19630273955E+03  0.20380609735E+03  0.73783238580E+01  0.28306559405E+03  0.00000000000E+00 0.  1.
         13    1    5    5    0    0  0.86427570806E+02 -0.68647449536E+02 -0.37558548468E+02  0.11658834370E+03  0.00000000000E+00 0.  1.
        -13    1    5    5    0    0  0.40697939169E+03 -0.58644469476E+03 -0.19743766138E+03  0.74062894583E+03  0.00000000000E+00 0. -1.
          3    1    6    6  503    0 -0.10038061924E+03  0.65332471696E+02  0.78444661105E+02  0.14317180391E+03  0.00000000000E+00 0. -1.
         -3    1    6    6    0  503 -0.54618929441E+01  0.84298547474E+02  0.56620264092E+02  0.10169528842E+03  0.00000000000E+00 0.  1.
<mgrwt>
<rscale>  0 0.17394498E+04</rscale>
<asrwt>0</asrwt>
<pdfrwt beam="1">  1        2 0.12414328E+00 0.17394498E+04</pdfrwt>
<pdfrwt beam="2">  1       -1 0.14421615E+00 0.17394498E+04</pdfrwt>
<totfact> 0.14294318E+01</totfact>
</mgrwt>
</event>
<event>
12    7  0.1735955E-007  0.2324595E+04  0.7818608E-02  0.8468286E-01
          2   -1    0    0  501    0  0.00000000000E+00  0.00000000000E+00  0.80223852828E+03  0.80223852828E+03  0.00000000000E+00 0. -1.
         -1   -1    0    0    0  501 -0.00000000000E+00 -0.00000000000E+00 -0.16839578501E+04  0.16839578501E+04  0.00000000000E+00 0.  1.
         24    2    1    2    0    0 -0.52316767597E+03  0.79978857814E+02 -0.12653870223E+04  0.13739607730E+04  0.80391883106E+02 0.  0.
        254    2    1    2    0    0  0.52316767597E+03 -0.79978857814E+02  0.38366770040E+03  0.11122356054E+04  0.89987004766E+03 0.  0.
         23    2    4    4    0    0  0.16049920307E+03 -0.46918034923E+03  0.19186031488E+03  0.53924530703E+03  0.89916218991E+02 0.  0.
         23    2    4    4    0    0  0.36266847290E+03  0.38920149141E+03  0.19180738552E+03  0.57299029836E+03  0.92312440756E+02 0.  0.
          2    1    3    3  502    0 -0.34538895298E+02  0.79463161419E+01 -0.44067059299E+02  0.56550728942E+02  0.00000000000E+00 0. -1.
         -1    1    3    3    0  502 -0.48862878067E+03  0.72032541673E+02 -0.12213199630E+04  0.13174100441E+04  0.00000000000E+00 0.  1.
         13    1    5    5    0    0  0.33331998820E+02 -0.47009627912E+02 -0.18591479647E+01  0.57657468666E+02  0.00000000000E+00 0.  1.
        -13    1    5    5    0    0  0.12716720425E+03 -0.42217072132E+03  0.19371946284E+03  0.48158783836E+03  0.00000000000E+00 0. -1.
          4    1    6    6  503    0  0.73568644155E+02  0.89199220440E+02  0.83172273479E+02  0.14243059154E+03  0.00000000000E+00 0.  1.
         -4    1    6    6    0  503  0.28909982875E+03  0.30000227097E+03  0.10863511204E+03  0.43055970682E+03  0.00000000000E+00 0. -1.
<mgrwt>
<rscale>  0 0.23245953E+04</rscale>
<asrwt>0</asrwt>
<pdfrwt beam="1">  1        2 0.12342131E+00 0.23245953E+04</pdfrwt>
<pdfrwt beam="2">  1       -1 0.25907044E+00 0.23245953E+04</pdfrwt>
<totfact> 0.21551498E+00</totfact>
</mgrwt>
</event>
<event>
12    7  0.1735955E-007  0.1556472E+04  0.7818608E-02  0.8847744E-01
         -1   -1    0    0    0  501 -0.00000000000E+00  0.00000000000E+00  0.31760973152E+03  0.31760973152E+03  0.00000000000E+00 0.  1.
          2   -1    0    0  501    0  0.00000000000E+00 -0.00000000000E+00 -0.19069051417E+04  0.19069051417E+04  0.00000000000E+00 0. -1.
         24    2    1    2    0    0  0.29670719139E+03  0.97026744477E+00  0.62596316329E+02  0.31430479782E+03  0.82662617140E+02 0.  0.
        254    2    1    2    0    0 -0.29670719139E+03 -0.97026744477E+00 -0.16518917265E+04  0.19102100754E+04  0.91220620323E+03 0.  0.
         23    2    4    4    0    0 -0.92152019333E+02 -0.23053518054E+03 -0.15550519171E+04  0.15772742097E+04  0.89269276238E+02 0.  0.
         23    2    4    4    0    0 -0.20455517206E+03  0.22956491310E+03 -0.96839809466E+02  0.33293586572E+03  0.83219434294E+02 0.  0.
          4    1    3    3  502    0  0.10815106753E+03  0.20112453406E+02 -0.11935944320E+02  0.11065094196E+03  0.00000000000E+00 0. -1.
         -3    1    3    3    0  502  0.18855612386E+03 -0.19142185961E+02  0.74532260650E+02  0.20365385586E+03  0.00000000000E+00 0.  1.
         13    1    5    5    0    0 -0.11472092686E+02 -0.48144821048E+02 -0.14560023576E+03  0.15378218804E+03  0.00000000000E+00 0. -1.
        -13    1    5    5    0    0 -0.80679926647E+02 -0.18239035949E+03 -0.14094516813E+04  0.14234920217E+04  0.00000000000E+00 0.  1.
          1    1    6    6  503    0  0.49737227772E+01  0.17902581141E+02  0.29889497175E+01  0.18819515143E+02  0.00000000000E+00 0. -1.
         -1    1    6    6    0  503 -0.20952889483E+03  0.21166233196E+03 -0.99828759184E+02  0.31411635058E+03  0.00000000000E+00 0.  1.
<mgrwt>
<rscale>  0 0.15564725E+04</rscale>
<asrwt>0</asrwt>
<pdfrwt beam="1">  1        2 0.29337002E+00 0.15564725E+04</pdfrwt>
<pdfrwt beam="2">  1       -1 0.48863037E-01 0.15564725E+04</pdfrwt>
<totfact> 0.34594974E+01</totfact>
</mgrwt>
</event>
<event>
12    7  0.1735955E-007  0.1157886E+04  0.7818608E-02  0.9150539E-01
         -1   -1    0    0    0  501 -0.00000000000E+00  0.00000000000E+00  0.13049691236E+04  0.13049691236E+04  0.00000000000E+00 0.  1.
          2   -1    0    0  501    0  0.00000000000E+00 -0.00000000000E+00 -0.25684523760E+03  0.25684523760E+03  0.00000000000E+00 0. -1.
         24    2    1    2    0    0  0.61422640514E+02 -0.10104298557E+03 -0.25456931386E+02  0.15593954931E+03  0.98420841207E+02 0.  0.
        254    2    1    2    0    0 -0.61422640514E+02  0.10104298557E+03  0.10735808174E+04  0.14058748119E+04  0.89995877103E+03 0.  0.
         23    2    4    4    0    0 -0.37527590593E+03 -0.22448565291E+03  0.53276047998E+03  0.69515475615E+03  0.90446625408E+02 0.  0.
         23    2    4    4    0    0  0.31385326541E+03  0.32552863848E+03  0.54082033744E+03  0.71072005576E+03  0.90352607014E+02 0.  0.
          2    1    3    3  502    0  0.40198350885E+02 -0.11820922530E+03 -0.29630344157E+02  0.12832492219E+03  0.00000000000E+00 0. -1.
         -1    1    3    3    0  502  0.21224289629E+02  0.17166239735E+02  0.41734127712E+01  0.27614627121E+02  0.00000000000E+00 0.  1.
         13    1    5    5    0    0 -0.19690878500E+03 -0.86580171646E+02  0.31698674147E+03  0.38307935210E+03  0.00000000000E+00 0.  1.
        -13    1    5    5    0    0 -0.17836712092E+03 -0.13790548127E+03  0.21577373850E+03  0.31207540406E+03  0.00000000000E+00 0. -1.
          1    1    6    6  503    0  0.29981059955E+01  0.17221623219E+02  0.38772251798E+01  0.17905469023E+02  0.00000000000E+00 0. -1.
         -1    1    6    6    0  503  0.31085515942E+03  0.30830701526E+03  0.53694311226E+03  0.69281458674E+03  0.00000000000E+00 0.  1.
<mgrwt>
<rscale>  0 0.11578862E+04</rscale>
<asrwt>0</asrwt>
<pdfrwt beam="1">  1        2 0.39514653E-01 0.11578862E+04</pdfrwt>
<pdfrwt beam="2">  1       -1 0.20076448E+00 0.11578862E+04</pdfrwt>
<totfact> 0.22036523E+01</totfact>
</mgrwt>
</event>
<event>
12    7  0.1735955E-007  0.1304867E+04  0.7818608E-02  0.9025714E-01
         -1   -1    0    0    0  501 -0.00000000000E+00  0.00000000000E+00  0.95612110024E+03  0.95612110024E+03  0.00000000000E+00 0.  1.
          2   -1    0    0  501    0  0.00000000000E+00 -0.00000000000E+00 -0.44520465974E+03  0.44520465974E+03  0.00000000000E+00 0. -1.
         24    2    1    2    0    0 -0.14297323490E+03  0.19152610117E+03  0.38999889584E+03  0.46347160430E+03  0.74720786338E+02 0.  0.
        254    2    1    2    0    0  0.14297323490E+03 -0.19152610117E+03  0.12091754465E+03  0.93785415568E+03  0.89879128355E+03 0.  0.
         23    2    4    4    0    0 -0.35156024233E+03 -0.18335322049E+03 -0.41222033979E+02  0.40939670359E+03  0.93238389992E+02 0.  0.
         23    2    4    4    0    0  0.49453347723E+03 -0.81728806727E+01  0.16213957863E+03  0.52845745209E+03  0.91366731512E+02 0.  0.
          2    1    3    3  502    0 -0.59067721279E+01  0.16427104380E+02  0.38546036560E+01  0.17877295227E+02  0.00000000000E+00 0. -1.
         -1    1    3    3    0  502 -0.13706646277E+03  0.17509899678E+03  0.38614429219E+03  0.44559430908E+03  0.00000000000E+00 0.  1.
         13    1    5    5    0    0 -0.30692860999E+03 -0.11948759974E+03 -0.35414775834E+02  0.33126524790E+03  0.00000000000E+00 0.  1.
        -13    1    5    5    0    0 -0.44631632347E+02 -0.63865620757E+02 -0.58072581453E+01  0.78131455687E+02  0.00000000000E+00 0. -1.
          2    1    6    6  503    0  0.13281801589E+03  0.14194697338E+02  0.56108455255E+01  0.13369217017E+03  0.00000000000E+00 0. -1.
         -2    1    6    6    0  503  0.36171546135E+03 -0.22367578011E+02  0.15652873310E+03  0.39476528192E+03  0.00000000000E+00 0.  1.
<mgrwt>
<rscale>  0 0.13048671E+04</rscale>
<asrwt>0</asrwt>
<pdfrwt beam="1">  1        2 0.68493025E-01 0.13048671E+04</pdfrwt>
<pdfrwt beam="2">  1       -1 0.14709555E+00 0.13048671E+04</pdfrwt>
<totfact> 0.29024458E+01</totfact>
</mgrwt>
</event>
<event>
12    7  0.1735955E-007  0.1567013E+04  0.7818608E-02  0.8841074E-01
         -1   -1    0    0    0  501 -0.00000000000E+00  0.00000000000E+00  0.35918799424E+03  0.35918799424E+03  0.00000000000E+00 0.  1.
          2   -1    0    0  501    0  0.00000000000E+00 -0.00000000000E+00 -0.17090829790E+04  0.17090829790E+04  0.00000000000E+00 0. -1.
         24    2    1    2    0    0 -0.20305663034E+03  0.35820314187E+03 -0.31366298950E+02  0.42086025930E+03  0.81228241279E+02 0.  0.
        254    2    1    2    0    0  0.20305663034E+03 -0.35820314187E+03 -0.13185286858E+04  0.16474107139E+04  0.89772082471E+03 0.  0.
         23    2    4    4    0    0  0.39827606547E+03  0.79906801403E+02 -0.94381711712E+03  0.10317358837E+04  0.93162556670E+02 0.  0.
         23    2    4    4    0    0 -0.19521943513E+03 -0.43810994327E+03 -0.37471156870E+03  0.61567483022E+03  0.92713465047E+02 0.  0.
          4    1    3    3  502    0 -0.58185797296E+02  0.12319555996E+03  0.26474428140E+02  0.13879347371E+03  0.00000000000E+00 0. -1.
         -3    1    3    3    0  502 -0.14487083304E+03  0.23500758191E+03 -0.57840727089E+02  0.28206678559E+03  0.00000000000E+00 0.  1.
         13    1    5    5    0    0  0.12524791011E+02  0.18517445119E+02 -0.26192054354E+02  0.34435299837E+02  0.00000000000E+00 0.  1.
        -13    1    5    5    0    0  0.38575127446E+03  0.61389356284E+02 -0.91762506276E+03  0.99730058389E+03  0.00000000000E+00 0. -1.
          2    1    6    6  503    0 -0.37453240623E+02 -0.14122036553E+03 -0.16043704230E+03  0.21699304462E+03  0.00000000000E+00 0.  1.
         -2    1    6    6    0  503 -0.15776619451E+03 -0.29688957775E+03 -0.21427452641E+03  0.39868178560E+03  0.00000000000E+00 0. -1.
<mgrwt>
<rscale>  0 0.15670126E+04</rscale>
<asrwt>0</asrwt>
<pdfrwt beam="1">  1        2 0.26293584E+00 0.15670126E+04</pdfrwt>
<pdfrwt beam="2">  1       -1 0.55259692E-01 0.15670126E+04</pdfrwt>
<totfact> 0.35144114E+01</totfact>
</mgrwt>
</event>
<event>
12    7  0.1735955E-007  0.1755633E+04  0.7818608E-02  0.8730256E-01
         -1   -1    0    0    0  501 -0.00000000000E+00  0.00000000000E+00  0.12774954421E+04  0.12774954421E+04  0.00000000000E+00 0.  1.
          2   -1    0    0  501    0  0.00000000000E+00 -0.00000000000E+00 -0.60318186031E+03  0.60318186031E+03  0.00000000000E+00 0. -1.
         24    2    1    2    0    0  0.54839909807E+03 -0.21777002376E+03 -0.25207801203E+02  0.59635364000E+03  0.82685408001E+02 0.  0.
        254    2    1    2    0    0 -0.54839909807E+03  0.21777002376E+03  0.69952138303E+03  0.12843236624E+04  0.90110584871E+03 0.  0.
         23    2    4    4    0    0 -0.38326388826E+03 -0.24964554482E+03  0.61948036877E+03  0.77519603861E+03  0.89212470437E+02 0.  0.
         23    2    4    4    0    0 -0.16513520980E+03  0.46741556858E+03  0.80041014256E+02  0.50912762383E+03  0.84008464539E+02 0.  0.
          4    1    3    3  502    0  0.21082239142E+03 -0.91125958808E+02 -0.49637284996E+02  0.23497634169E+03  0.00000000000E+00 0. -1.
         -3    1    3    3    0  502  0.33757670664E+03 -0.12664406495E+03  0.24429483793E+02  0.36137729831E+03  0.00000000000E+00 0.  1.
         13    1    5    5    0    0 -0.10629320577E+03 -0.34415959756E+02  0.11120885579E+03  0.15763918766E+03  0.00000000000E+00 0.  1.
        -13    1    5    5    0    0 -0.27697068250E+03 -0.21522958507E+03  0.50827151298E+03  0.61755685095E+03  0.00000000000E+00 0. -1.
          3    1    6    6  503    0 -0.13686208366E+03  0.27623637896E+03  0.66658762101E+02  0.31540633723E+03  0.00000000000E+00 0. -1.
         -3    1    6    6    0  503 -0.28273126144E+02  0.19117918962E+03  0.13382252155E+02  0.19372128659E+03  0.00000000000E+00 0.  1.
<mgrwt>
<rscale>  0 0.17556333E+04</rscale>
<asrwt>0</asrwt>
<pdfrwt beam="1">  1        2 0.92797209E-01 0.17556333E+04</pdfrwt>
<pdfrwt beam="2">  1       -1 0.19653776E+00 0.17556333E+04</pdfrwt>
<totfact> 0.84808763E+00</totfact>
</mgrwt>
</event>
<event>
12    7  0.1735955E-007  0.1391362E+04  0.7818608E-02  0.8960095E-01
         -1   -1    0    0    0  501 -0.00000000000E+00  0.00000000000E+00  0.39692372876E+03  0.39692372876E+03  0.00000000000E+00 0.  1.
          2   -1    0    0  501    0  0.00000000000E+00 -0.00000000000E+00 -0.12193078913E+04  0.12193078913E+04  0.00000000000E+00 0. -1.
         24    2    1    2    0    0 -0.32448373223E+02 -0.33282556215E+03  0.32605858951E+02  0.34597898350E+03  0.82538253217E+02 0.  0.
        254    2    1    2    0    0  0.32448373223E+02  0.33282556215E+03 -0.85499002148E+03  0.12702526365E+04  0.87789980754E+03 0.  0.
         23    2    4    4    0    0 -0.70382912811E+02  0.65417243978E+02 -0.94701899707E+03  0.95577235049E+03  0.86154715059E+02 0.  0.
         23    2    4    4    0    0  0.10283128603E+03  0.26740831817E+03  0.92028975584E+02  0.31448028606E+03  0.91362114468E+02 0.  0.
          4    1    3    3  502    0  0.20743573443E+02 -0.34614204584E+02  0.13126512331E+02  0.42435177909E+02  0.00000000000E+00 0. -1.
         -1    1    3    3    0  502 -0.53191946666E+02 -0.29821135756E+03  0.19479346621E+02  0.30354380559E+03  0.00000000000E+00 0.  1.
         13    1    5    5    0    0  0.18843849288E+02  0.22967340000E+02 -0.25788500486E+03  0.25959057204E+03  0.00000000000E+00 0.  1.
        -13    1    5    5    0    0 -0.89226762099E+02  0.42449903978E+02 -0.68913399221E+03  0.69618177845E+03  0.00000000000E+00 0. -1.
          4    1    6    6  503    0 -0.52782169757E+01  0.34635197830E+02 -0.12721761161E+02  0.37273310964E+02  0.00000000000E+00 0.  1.
         -4    1    6    6    0  503  0.10810950301E+03  0.23277312034E+03  0.10475073675E+03  0.27720697510E+03  0.00000000000E+00 0. -1.
<mgrwt>
<rscale>  0 0.13913623E+04</rscale>
<asrwt>0</asrwt>
<pdfrwt beam="1">  1        2 0.18758582E+00 0.13913623E+04</pdfrwt>
<pdfrwt beam="2">  1       -1 0.61065191E-01 0.13913623E+04</pdfrwt>
<totfact> 0.55702581E+01</totfact>
</mgrwt>
</event>
<event>
12    7  0.1735955E-007  0.1371624E+04  0.7818608E-02  0.8974619E-01
          2   -1    0    0  501    0  0.00000000000E+00  0.00000000000E+00  0.10931441054E+04  0.10931441054E+04  0.00000000000E+00 0. -1.
         -1   -1    0    0    0  501 -0.00000000000E+00 -0.00000000000E+00 -0.43026153204E+03  0.43026153204E+03  0.00000000000E+00 0.  1.
         24    2    1    2    0    0  0.29106162503E+03 -0.12214985396E+03 -0.21587963226E+02  0.32626612256E+03  0.79662326047E+02 0.  0.
        254    2    1    2    0    0 -0.29106162503E+03  0.12214985396E+03  0.68447053663E+03  0.11971395149E+04  0.93005679734E+03 0.  0.
         23    2    4    4    0    0  0.93604317397E+02  0.44372876721E+03  0.24134414314E+03  0.52191962218E+03  0.92174342985E+02 0.  0.
         23    2    4    4    0    0 -0.38466594242E+03 -0.32157891325E+03  0.44312639349E+03  0.67521989274E+03  0.90443453265E+02 0.  0.
          2    1    3    3  502    0  0.17303389312E+03 -0.47007439913E+02 -0.43847897515E+02  0.18458890999E+03  0.00000000000E+00 0. -1.
         -1    1    3    3    0  502  0.11802773191E+03 -0.75142414045E+02  0.22259934289E+02  0.14167721257E+03  0.00000000000E+00 0.  1.
         13    1    5    5    0    0  0.79637804356E+02  0.35712695742E+03  0.15051633550E+03  0.39564758416E+03  0.00000000000E+00 0. -1.
        -13    1    5    5    0    0  0.13966513041E+02  0.86601809786E+02  0.90827807640E+02  0.12627203802E+03  0.00000000000E+00 0.  1.
          2    1    6    6  503    0 -0.28359756598E+03 -0.19260043540E+03  0.33202767050E+03  0.47724719080E+03  0.00000000000E+00 0. -1.
         -2    1    6    6    0  503 -0.10106837644E+03 -0.12897847784E+03  0.11109872298E+03  0.19797270194E+03  0.00000000000E+00 0.  1.
<mgrwt>
<rscale>  0 0.13716236E+04</rscale>
<asrwt>0</asrwt>
<pdfrwt beam="1">  1        2 0.16817602E+00 0.13716236E+04</pdfrwt>
<pdfrwt beam="2">  1       -1 0.66194082E-01 0.13716236E+04</pdfrwt>
<totfact> 0.56604238E+01</totfact>
</mgrwt>
</event>
<event>
12    7  0.1735955E-007  0.1109024E+04  0.7818608E-02  0.9196440E-01
         -1   -1    0    0    0  501 -0.00000000000E+00  0.00000000000E+00  0.32441919378E+03  0.32441919378E+03  0.00000000000E+00 0.  1.
          2   -1    0    0  501    0  0.00000000000E+00 -0.00000000000E+00 -0.94779772075E+03  0.94779772075E+03  0.00000000000E+00 0. -1.
         24    2    1    2    0    0  0.10760275715E+03 -0.92937792377E+02  0.90009933938E+02  0.18749548389E+03  0.82686042813E+02 0.  0.
        254    2    1    2    0    0 -0.10760275715E+03  0.92937792377E+02 -0.71338846090E+03  0.10847214306E+04  0.80466247541E+03 0.  0.
         23    2    4    4    0    0  0.24482335804E+03  0.29686665402E+03 -0.40320984153E+03  0.56560256225E+03  0.96227829696E+02 0.  0.
         23    2    4    4    0    0 -0.35242611519E+03 -0.20392886165E+03 -0.31017861938E+03  0.51911886839E+03  0.86501308194E+02 0.  0.
          4    1    3    3  502    0 -0.70263145741E+01 -0.19954292291E+02  0.34990667831E+02  0.40888747995E+02  0.00000000000E+00 0. -1.
         -3    1    3    3    0  502  0.11462907172E+03 -0.72983500085E+02  0.55019266108E+02  0.14660673590E+03  0.00000000000E+00 0.  1.
         13    1    5    5    0    0  0.71222121428E+02  0.16121406529E+03 -0.18501360023E+03  0.25552416265E+03  0.00000000000E+00 0. -1.
        -13    1    5    5    0    0  0.17360123661E+03  0.13565258873E+03 -0.21819624129E+03  0.31007839960E+03  0.00000000000E+00 0.  1.
          1    1    6    6  503    0 -0.18580756348E+03 -0.15269309620E+03 -0.15833075657E+03  0.28793794601E+03  0.00000000000E+00 0. -1.
         -1    1    6    6    0  503 -0.16661855170E+03 -0.51235765442E+02 -0.15184786281E+03  0.23118092238E+03  0.00000000000E+00 0.  1.
<mgrwt>
<rscale>  0 0.11090244E+04</rscale>
<asrwt>0</asrwt>
<pdfrwt beam="1">  1        2 0.14581503E+00 0.11090244E+04</pdfrwt>
<pdfrwt beam="2">  1       -1 0.49910646E-01 0.11090244E+04</pdfrwt>
<totfact> 0.12415566E+02</totfact>
</mgrwt>
</event>
<event>
12    7  0.1735955E-007  0.2134848E+04  0.7818608E-02  0.8546046E-01
          2   -1    0    0  501    0  0.00000000000E+00  0.00000000000E+00  0.87136629366E+03  0.87136629366E+03  0.00000000000E+00 0. -1.
         -1   -1    0    0    0  501 -0.00000000000E+00 -0.00000000000E+00 -0.13075952528E+04  0.13075952528E+04  0.00000000000E+00 0.  1.
         24    2    1    2    0    0 -0.29087257773E+03 -0.67108177412E+03  0.31009503994E+03  0.79847723044E+03  0.80307843398E+02 0.  0.
        254    2    1    2    0    0  0.29087257773E+03  0.67108177412E+03 -0.74632399913E+03  0.13804843161E+04  0.90209746213E+03 0.  0.
         23    2    4    4    0    0  0.31328575794E+03  0.44331291661E+03  0.44534567748E+02  0.55221578577E+03  0.91019987766E+02 0.  0.
         23    2    4    4    0    0 -0.22413180203E+02  0.22776885751E+03 -0.79085856688E+03  0.82826853029E+03  0.90501283744E+02 0.  0.
          4    1    3    3  502    0 -0.38726891108E+02 -0.68350809370E+02  0.89508769869E+01  0.79067840715E+02  0.00000000000E+00 0. -1.
         -3    1    3    3    0  502 -0.25214568663E+03 -0.60273096475E+03  0.30114416295E+03  0.71940938973E+03  0.00000000000E+00 0.  1.
         13    1    5    5    0    0  0.88085857776E+02  0.15640274934E+03 -0.23991746468E+02  0.18109815636E+03  0.00000000000E+00 0. -1.
        -13    1    5    5    0    0  0.22519990016E+03  0.28691016727E+03  0.68526314216E+02  0.37111762941E+03  0.00000000000E+00 0.  1.
          4    1    6    6  503    0  0.58893287627E+01 -0.70976559152E+01 -0.38778765848E+02  0.39860426408E+02  0.00000000000E+00 0. -1.
         -4    1    6    6    0  503 -0.28302508966E+02  0.23486651342E+03 -0.75207980103E+03  0.78840810388E+03  0.00000000000E+00 0.  1.
<mgrwt>
<rscale>  0 0.21348484E+04</rscale>
<asrwt>0</asrwt>
<pdfrwt beam="1">  1        2 0.13405635E+00 0.21348484E+04</pdfrwt>
<pdfrwt beam="2">  1       -1 0.20116850E+00 0.21348484E+04</pdfrwt>
<totfact> 0.47504541E+00</totfact>
</mgrwt>
</event>
<event>
12    7  0.1735955E-007  0.1442432E+04  0.7818608E-02  0.8923664E-01
          2   -1    0    0  501    0  0.00000000000E+00  0.00000000000E+00  0.16291962182E+04  0.16291962182E+04  0.00000000000E+00 0. -1.
         -1   -1    0    0    0  501 -0.00000000000E+00 -0.00000000000E+00 -0.31926962171E+03  0.31926962171E+03  0.00000000000E+00 0.  1.
         24    2    1    2    0    0  0.25758287465E+03 -0.13441937101E+03  0.82701153711E+03  0.88121969266E+03  0.90457501675E+02 0.  0.
        254    2    1    2    0    0 -0.25758287465E+03  0.13441937101E+03  0.48291505939E+03  0.10672461473E+04  0.90630562154E+03 0.  0.
         23    2    4    4    0    0 -0.33052927818E+02 -0.28280172077E+03  0.50182410671E+03  0.58462770341E+03  0.94301687219E+02 0.  0.
         23    2    4    4    0    0 -0.22452994684E+03  0.41722109178E+03 -0.18909047314E+02  0.48261844385E+03  0.89865865721E+02 0.  0.
          4    1    3    3  502    0  0.21778012755E+03 -0.13836979854E+03  0.76579480496E+03  0.80809409626E+03  0.00000000000E+00 0. -1.
         -3    1    3    3    0  502  0.39802747100E+02  0.39504275316E+01  0.61216732144E+02  0.73125596399E+02  0.00000000000E+00 0.  1.
         13    1    5    5    0    0 -0.31226222319E+02 -0.20095974299E+03  0.26492822711E+03  0.33398631826E+03  0.00000000000E+00 0.  1.
        -13    1    5    5    0    0 -0.18267054990E+01 -0.81841977774E+02  0.23689587960E+03  0.25064138515E+03  0.00000000000E+00 0. -1.
          1    1    6    6  503    0 -0.19650512580E+02  0.77884625334E+01 -0.12867098386E+02  0.24746010066E+02  0.00000000000E+00 0. -1.
         -1    1    6    6    0  503 -0.20487943426E+03  0.40943262925E+03 -0.60419489274E+01  0.45787243378E+03  0.00000000000E+00 0.  1.
<mgrwt>
<rscale>  0 0.14424325E+04</rscale>
<asrwt>0</asrwt>
<pdfrwt beam="1">  1        2 0.25064557E+00 0.14424325E+04</pdfrwt>
<pdfrwt beam="2">  1       -1 0.49118404E-01 0.14424325E+04</pdfrwt>
<totfact> 0.49296399E+01</totfact>
</mgrwt>
</event>
<event>
12    7  0.1735955E-007  0.2227966E+04  0.7818608E-02  0.8506878E-01
         -1   -1    0    0    0  501 -0.00000000000E+00  0.00000000000E+00  0.47793742121E+03  0.47793742121E+03  0.00000000000E+00 0.  1.
          2   -1    0    0  501    0  0.00000000000E+00 -0.00000000000E+00 -0.25964857138E+04  0.25964857138E+04  0.00000000000E+00 0. -1.
         24    2    1    2    0    0  0.46119534367E+03  0.33300774814E+03 -0.19028921862E+04  0.19877845131E+04  0.81812548875E+02 0.  0.
        254    2    1    2    0    0 -0.46119534367E+03 -0.33300774814E+03 -0.21565610645E+03  0.10866386219E+04  0.90037805004E+03 0.  0.
         23    2    4    4    0    0 -0.99826458277E+02 -0.12790832742E+03 -0.52689169937E+03  0.55964018687E+03  0.96210258771E+02 0.  0.
         23    2    4    4    0    0 -0.36136888539E+03 -0.20509942072E+03  0.31123559292E+03  0.52699843503E+03  0.90589803561E+02 0.  0.
          2    1    3    3  502    0  0.31033138465E+03  0.26577381439E+03 -0.14056512290E+04  0.14638294526E+04  0.00000000000E+00 0. -1.
         -1    1    3    3    0  502  0.15086395902E+03  0.67233933755E+02 -0.49724095719E+03  0.52395506055E+03  0.00000000000E+00 0.  1.
         13    1    5    5    0    0 -0.11492854770E+03 -0.85787722295E+02 -0.41774120445E+03  0.44167388226E+03  0.00000000000E+00 0. -1.
        -13    1    5    5    0    0  0.15102089426E+02 -0.42120605123E+02 -0.10915049492E+03  0.11796630461E+03  0.00000000000E+00 0.  1.
          1    1    6    6  503    0 -0.21401408393E+03 -0.17035891501E+03  0.19016716039E+03  0.33314822067E+03  0.00000000000E+00 0. -1.
         -1    1    6    6    0  503 -0.14735480146E+03 -0.34740505713E+02  0.12106843253E+03  0.19385021436E+03  0.00000000000E+00 0.  1.
<mgrwt>
<rscale>  0 0.22279656E+04</rscale>
<asrwt>0</asrwt>
<pdfrwt beam="1">  1        2 0.39945934E+00 0.22279656E+04</pdfrwt>
<pdfrwt beam="2">  1       -1 0.73528833E-01 0.22279656E+04</pdfrwt>
<totfact> 0.59137952E+00</totfact>
</mgrwt>
</event>
<event>
12    7  0.1735955E-007  0.1352157E+04  0.7818608E-02  0.8989197E-01
         -1   -1    0    0    0  501 -0.00000000000E+00  0.00000000000E+00  0.59849229946E+03  0.59849229946E+03  0.00000000000E+00 0.  1.
          2   -1    0    0  501    0  0.00000000000E+00 -0.00000000000E+00 -0.76372281996E+03  0.76372281996E+03  0.00000000000E+00 0. -1.
         24    2    1    2    0    0 -0.26000795046E+02  0.16749041657E+03  0.28781762971E+03  0.34330406329E+03  0.79307067236E+02 0.  0.
        254    2    1    2    0    0  0.26000795046E+02 -0.16749041657E+03 -0.45304815021E+03  0.10189110561E+04  0.89677089209E+03 0.  0.
         23    2    4    4    0    0 -0.17704473104E+03  0.21231683605E+03 -0.49769063403E+03  0.57636577612E+03  0.89879169011E+02 0.  0.
         23    2    4    4    0    0  0.20304552609E+03 -0.37980725261E+03  0.44642483822E+02  0.44254528001E+03  0.91500484664E+02 0.  0.
          2    1    3    3  502    0  0.96578782332E+01  0.77509860364E+01  0.20852823113E+00  0.12385309061E+02  0.00000000000E+00 0. -1.
         -1    1    3    3    0  502 -0.35658673280E+02  0.15973943053E+03  0.28760910148E+03  0.33091875423E+03  0.00000000000E+00 0.  1.
         13    1    5    5    0    0 -0.12521299809E+03  0.80630663574E+02 -0.24338583432E+03  0.28533535208E+03  0.00000000000E+00 0.  1.
        -13    1    5    5    0    0 -0.51831732954E+02  0.13168617247E+03 -0.25430479971E+03  0.29103042404E+03  0.00000000000E+00 0. -1.
          2    1    6    6  503    0  0.84589955883E+02 -0.76954264772E+02  0.22881198689E+02  0.11662319133E+03  0.00000000000E+00 0.  1.
         -2    1    6    6    0  503  0.11845557021E+03 -0.30285298784E+03  0.21761285133E+02  0.32592208868E+03  0.00000000000E+00 0. -1.
<mgrwt>
<rscale>  0 0.13521571E+04</rscale>
<asrwt>0</asrwt>
<pdfrwt beam="1">  1        2 0.11749582E+00 0.13521571E+04</pdfrwt>
<pdfrwt beam="2">  1       -1 0.92075739E-01 0.13521571E+04</pdfrwt>
<totfact> 0.46923517E+01</totfact>
</mgrwt>
</event>
<event>
12    7  0.1735955E-007  0.1880050E+04  0.7818608E-02  0.8664851E-01
          2   -1    0    0  501    0  0.00000000000E+00  0.00000000000E+00  0.18766422491E+04  0.18766422491E+04  0.00000000000E+00 0. -1.
         -1   -1    0    0    0  501 -0.00000000000E+00 -0.00000000000E+00 -0.47086606559E+03  0.47086606559E+03  0.00000000000E+00 0.  1.
         24    2    1    2    0    0 -0.26214144058E+03 -0.18726326647E+03  0.13478168376E+04  0.13881070418E+04  0.80282414418E+02 0.  0.
        254    2    1    2    0    0  0.26214144058E+03  0.18726326647E+03  0.57959345950E+02  0.95940127289E+03  0.90183471368E+03 0.  0.
         23    2    4    4    0    0 -0.27202345898E+03  0.11126285535E+03 -0.18710113409E+03  0.36055951109E+03  0.92844716833E+02 0.  0.
         23    2    4    4    0    0  0.53416489956E+03  0.76000411116E+02  0.24506048004E+03  0.59884176180E+03  0.86305355514E+02 0.  0.
          4    1    3    3  502    0 -0.25008175650E+03 -0.19392068132E+03  0.13144664387E+04  0.13520237180E+04  0.00000000000E+00 0. -1.
         -1    1    3    3    0  502 -0.12059684084E+02  0.66574148468E+01  0.33350398876E+02  0.36083323819E+02  0.00000000000E+00 0.  1.
         13    1    5    5    0    0 -0.15343586232E+03  0.32184404692E+02 -0.14072170555E+03  0.21066798087E+03  0.00000000000E+00 0. -1.
        -13    1    5    5    0    0 -0.11858759665E+03  0.79078450661E+02 -0.46379428543E+02  0.14989153022E+03  0.00000000000E+00 0.  1.
          2    1    6    6  503    0  0.33824480027E+03  0.70633470582E+02  0.19412706810E+03  0.39633817712E+03  0.00000000000E+00 0. -1.
         -2    1    6    6    0  503  0.19592009929E+03  0.53669405340E+01  0.50933411941E+02  0.20250358468E+03  0.00000000000E+00 0.  1.
<mgrwt>
<rscale>  0 0.18800502E+04</rscale>
<asrwt>0</asrwt>
<pdfrwt beam="1">  1        2 0.28871419E+00 0.18800502E+04</pdfrwt>
<pdfrwt beam="2">  1       -1 0.72440934E-01 0.18800502E+04</pdfrwt>
<totfact> 0.16064001E+01</totfact>
</mgrwt>
</event>
<event>
12    7  0.1735955E-007  0.1427711E+04  0.7818608E-02  0.8934000E-01
          2   -1    0    0  501    0  0.00000000000E+00  0.00000000000E+00  0.19296203912E+04  0.19296203912E+04  0.00000000000E+00 0. -1.
         -1   -1    0    0    0  501 -0.00000000000E+00 -0.00000000000E+00 -0.26408815824E+03  0.26408815824E+03  0.00000000000E+00 0.  1.
         24    2    1    2    0    0  0.41085532477E+03 -0.79164789268E+02  0.32505934074E+03  0.53556166843E+03  0.78061283205E+02 0.  0.
        254    2    1    2    0    0 -0.41085532477E+03  0.79164789268E+02  0.13404728922E+04  0.16581468810E+04  0.88176773726E+03 0.  0.
         23    2    4    4    0    0 -0.38135290353E+03  0.40655531815E+03  0.11131296902E+04  0.12481908970E+04  0.90584460029E+02 0.  0.
         23    2    4    4    0    0 -0.29502421240E+02 -0.32739052889E+03  0.22734320204E+03  0.40995598403E+03  0.91236100654E+02 0.  0.
          2    1    3    3  502    0  0.14730706584E+02  0.12173329500E+02  0.14129800719E+02  0.23766256246E+02  0.00000000000E+00 0. -1.
         -1    1    3    3    0  502  0.39612461819E+03 -0.91338118769E+02  0.31092954002E+03  0.51179541218E+03  0.00000000000E+00 0.  1.
         13    1    5    5    0    0 -0.24251234725E+03  0.29799622831E+03  0.83129373536E+03  0.91578559997E+03  0.00000000000E+00 0. -1.
        -13    1    5    5    0    0 -0.13884055628E+03  0.10855908984E+03  0.28183595484E+03  0.33240529704E+03  0.00000000000E+00 0.  1.
          3    1    6    6  503    0 -0.27384483027E+00 -0.15486059241E+03  0.54970745951E+02  0.16432790689E+03  0.00000000000E+00 0. -1.
         -3    1    6    6    0  503 -0.29228576409E+02 -0.17252993647E+03  0.17237245609E+03  0.24562807713E+03  0.00000000000E+00 0.  1.
<mgrwt>
<rscale>  0 0.14277113E+04</rscale>
<asrwt>0</asrwt>
<pdfrwt beam="1">  1        2 0.29686467E+00 0.14277113E+04</pdfrwt>
<pdfrwt beam="2">  1       -1 0.40628949E-01 0.14277113E+04</pdfrwt>
<totfact> 0.47900045E+01</totfact>
</mgrwt>
</event>
<event>
12    7  0.1735955E-007  0.1554988E+04  0.7818608E-02  0.8848688E-01
         -1   -1    0    0    0  501 -0.00000000000E+00  0.00000000000E+00  0.19082861936E+04  0.19082861936E+04  0.00000000000E+00 0.  1.
          2   -1    0    0  501    0  0.00000000000E+00 -0.00000000000E+00 -0.31677494254E+03  0.31677494254E+03  0.00000000000E+00 0. -1.
         24    2    1    2    0    0  0.16049261304E+03  0.48153124687E+03  0.59301471396E+03  0.78537360875E+03  0.86689294578E+02 0.  0.
        254    2    1    2    0    0 -0.16049261304E+03 -0.48153124687E+03  0.99849653707E+03  0.14396875274E+04  0.90447477650E+03 0.  0.
         23    2    4    4    0    0  0.60339773161E+02 -0.10925956136E+02  0.89497609754E+03  0.90176528574E+03  0.91859406947E+02 0.  0.
         23    2    4    4    0    0 -0.22083238621E+03 -0.47060529074E+03  0.10352043953E+03  0.53792224162E+03  0.91692825046E+02 0.  0.
          2    1    3    3  502    0  0.38129344679E+02  0.12576543492E+03  0.21543723798E+03  0.25235688034E+03  0.00000000000E+00 0. -1.
         -1    1    3    3    0  502  0.12236326836E+03  0.35576581195E+03  0.37757747597E+03  0.53301672841E+03  0.00000000000E+00 0.  1.
         13    1    5    5    0    0 -0.15167770881E+02 -0.15140010372E+02  0.67031126718E+02  0.70373667921E+02  0.00000000000E+00 0. -1.
        -13    1    5    5    0    0  0.75507544042E+02  0.42140542359E+01  0.82794497082E+03  0.83139161782E+03  0.00000000000E+00 0.  1.
          2    1    6    6  503    0 -0.17137492025E+03 -0.25970627062E+03  0.56062714337E+02  0.31616410015E+03  0.00000000000E+00 0. -1.
         -2    1    6    6    0  503 -0.49457465956E+02 -0.21089902012E+03  0.47457725196E+02  0.22175814147E+03  0.00000000000E+00 0.  1.
<mgrwt>
<rscale>  0 0.15549884E+04</rscale>
<asrwt>0</asrwt>
<pdfrwt beam="1">  1        2 0.48734608E-01 0.15549884E+04</pdfrwt>
<pdfrwt beam="2">  1       -1 0.29358248E+00 0.15549884E+04</pdfrwt>
<totfact> 0.41442629E+00</totfact>
</mgrwt>
</event>
<event>
12    7  0.1735955E-007  0.4538258E+04  0.7818608E-02  0.7903973E-01
         -1   -1    0    0    0  501 -0.00000000000E+00  0.00000000000E+00  0.14306157454E+04  0.14306157454E+04  0.00000000000E+00 0.  1.
          2   -1    0    0  501    0  0.00000000000E+00 -0.00000000000E+00 -0.35991115829E+04  0.35991115829E+04  0.00000000000E+00 0. -1.
         24    2    1    2    0    0 -0.11395776179E+04  0.10757692152E+04 -0.27210632513E+04  0.31411240691E+04  0.80985480462E+02 0.  0.
        254    2    1    2    0    0  0.11395776179E+04 -0.10757692152E+04  0.55256741382E+03  0.18886032592E+04  0.89753828448E+03 0.  0.
         23    2    4    4    0    0  0.38387965906E+03 -0.45742989453E+03  0.66881434710E+03  0.90123899372E+03  0.91177803554E+02 0.  0.
         23    2    4    4    0    0  0.75569795887E+03 -0.61833932062E+03 -0.11624693327E+03  0.98736426544E+03  0.89173553836E+02 0.  0.
          2    1    3    3  502    0 -0.80445646109E+03  0.71987719196E+03 -0.18241504634E+04  0.21196457918E+04  0.00000000000E+00 0. -1.
         -1    1    3    3    0  502 -0.33512115684E+03  0.35589202319E+03 -0.89691278792E+03  0.10214782773E+04  0.00000000000E+00 0.  1.
         13    1    5    5    0    0  0.38284504745E+03 -0.42905640490E+03  0.64566267093E+03  0.86460396343E+03  0.00000000000E+00 0.  1.
        -13    1    5    5    0    0  0.10346116160E+01 -0.28373489630E+02  0.23151676162E+02  0.36635030287E+02  0.00000000000E+00 0. -1.
          3    1    6    6  503    0  0.47859295426E+01 -0.42689169670E+01  0.70531393105E+01  0.95328667142E+01  0.00000000000E+00 0. -1.
         -3    1    6    6    0  503  0.75091202933E+03 -0.61407040365E+03 -0.12330007258E+03  0.97783139873E+03  0.00000000000E+00 0.  1.
<mgrwt>
<rscale>  0 0.45382577E+04</rscale>
<asrwt>0</asrwt>
<pdfrwt beam="1">  1        2 0.55370947E+00 0.45382577E+04</pdfrwt>
<pdfrwt beam="2">  1       -1 0.22009473E+00 0.45382577E+04</pdfrwt>
<totfact> 0.64992009E-02</totfact>
</mgrwt>
</event>
<event>
12    7  0.1735955E-007  0.1203738E+04  0.7818608E-02  0.9109591E-01
         -1   -1    0    0    0  501 -0.00000000000E+00  0.00000000000E+00  0.13074022458E+03  0.13074022458E+03  0.00000000000E+00 0.  1.
          2   -1    0    0  501    0  0.00000000000E+00 -0.00000000000E+00 -0.27707323656E+04  0.27707323656E+04  0.00000000000E+00 0. -1.
         24    2    1    2    0    0 -0.13895082993E+03  0.12807133565E+03 -0.17266881209E+03  0.26884171176E+03  0.82169015794E+02 0.  0.
        254    2    1    2    0    0  0.13895082993E+03 -0.12807133565E+03 -0.24673233289E+04  0.26326308784E+04  0.89852731313E+03 0.  0.
         23    2    4    4    0    0  0.13218273869E+03  0.23027600820E+03 -0.22416251376E+03  0.35918755791E+03  0.90926084380E+02 0.  0.
         23    2    4    4    0    0  0.67680912476E+01 -0.35834734385E+03 -0.22431608151E+04  0.22734433205E+04  0.91189160588E+02 0.  0.
          2    1    3    3  502    0 -0.39098242089E+02  0.41385104956E+01 -0.85677850340E+01  0.40239368086E+02  0.00000000000E+00 0. -1.
         -1    1    3    3    0  502 -0.99852587845E+02  0.12393282515E+03 -0.16410102706E+03  0.22860234367E+03  0.00000000000E+00 0.  1.
         13    1    5    5    0    0  0.30789136517E+02  0.14443015713E+03 -0.12334861951E+03  0.19241341728E+03  0.00000000000E+00 0.  1.
        -13    1    5    5    0    0  0.10139360217E+03  0.85845851079E+02 -0.10081389424E+03  0.16677414062E+03  0.00000000000E+00 0. -1.
          3    1    6    6  503    0  0.52472159171E+01 -0.11610102549E+02 -0.25166186801E+03  0.25198417325E+03  0.00000000000E+00 0. -1.
         -3    1    6    6    0  503  0.15208753305E+01 -0.34673724131E+03 -0.19914989471E+04  0.20214591472E+04  0.00000000000E+00 0.  1.
<mgrwt>
<rscale>  0 0.12037378E+04</rscale>
<asrwt>0</asrwt>
<pdfrwt beam="1">  1        2 0.42626655E+00 0.12037378E+04</pdfrwt>
<pdfrwt beam="2">  1       -1 0.20113879E-01 0.12037378E+04</pdfrwt>
<totfact> 0.55400219E+01</totfact>
</mgrwt>
</event>
<event>
12    7  0.1735955E-007  0.2422293E+04  0.7818608E-02  0.8431204E-01
         -1   -1    0    0    0  501 -0.00000000000E+00  0.00000000000E+00  0.71814628052E+03  0.71814628052E+03  0.00000000000E+00 0.  1.
          2   -1    0    0  501    0  0.00000000000E+00 -0.00000000000E+00 -0.20425857959E+04  0.20425857959E+04  0.00000000000E+00 0. -1.
         24    2    1    2    0    0  0.94132031554E+03 -0.43282515289E+03 -0.45704751423E+03  0.11350035617E+04  0.76935721839E+02 0.  0.
        254    2    1    2    0    0 -0.94132031554E+03  0.43282515289E+03 -0.86739200112E+03  0.16257285147E+04  0.90399268281E+03 0.  0.
         23    2    4    4    0    0 -0.11073335423E+04  0.32862904443E+03 -0.73213267777E+03  0.13705123228E+04  0.90006368826E+02 0.  0.
         23    2    4    4    0    0  0.16601322674E+03  0.10419610846E+03 -0.13525932335E+03  0.25521619191E+03  0.91776901195E+02 0.  0.
          2    1    3    3  502    0  0.65280054140E+03 -0.27508688439E+03 -0.28170615993E+03  0.76235142904E+03  0.00000000000E+00 0. -1.
         -1    1    3    3    0  502  0.28851977414E+03 -0.15773826849E+03 -0.17534135430E+03  0.37265213262E+03  0.00000000000E+00 0.  1.
         13    1    5    5    0    0 -0.20018145075E+02  0.53778390280E+01 -0.29933721431E+02  0.36409819604E+02  0.00000000000E+00 0. -1.
        -13    1    5    5    0    0 -0.10873153972E+04  0.32325120540E+03 -0.70219895634E+03  0.13341025032E+04  0.00000000000E+00 0.  1.
          3    1    6    6  503    0 -0.11523676900E+02  0.29978641109E+01 -0.52592886222E+01  0.13017005621E+02  0.00000000000E+00 0. -1.
         -3    1    6    6    0  503  0.17753690364E+03  0.10119824435E+03 -0.13000003473E+03  0.24219918629E+03  0.00000000000E+00 0.  1.
<mgrwt>
<rscale>  0 0.24222926E+04</rscale>
<asrwt>0</asrwt>
<pdfrwt beam="1">  1        2 0.31424397E+00 0.24222926E+04</pdfrwt>
<pdfrwt beam="2">  1       -1 0.11048404E+00 0.24222926E+04</pdfrwt>
<totfact> 0.48796412E+00</totfact>
</mgrwt>
</event>
<event>
12    7  0.1735955E-007  0.1455376E+04  0.7818608E-02  0.8914682E-01
         -1   -1    0    0    0  501 -0.00000000000E+00  0.00000000000E+00  0.53313154014E+03  0.53313154014E+03  0.00000000000E+00 0.  1.
          2   -1    0    0  501    0  0.00000000000E+00 -0.00000000000E+00 -0.99324443179E+03  0.99324443179E+03  0.00000000000E+00 0. -1.
         24    2    1    2    0    0  0.19849683417E+03  0.19301264358E+03 -0.49788459098E+03  0.57542385275E+03  0.81047335638E+02 0.  0.
        254    2    1    2    0    0 -0.19849683417E+03 -0.19301264358E+03  0.37771699335E+02  0.95095211918E+03  0.90897104351E+03 0.  0.
         23    2    4    4    0    0  0.34260853085E+02 -0.52508929831E+03 -0.45723804443E+00  0.53415082432E+03  0.91784077027E+02 0.  0.
         23    2    4    4    0    0 -0.23275768726E+03  0.33207665473E+03  0.38228937379E+02  0.41680129486E+03  0.88378855762E+02 0.  0.
          4    1    3    3  502    0  0.16181918807E+03  0.18803171918E+03 -0.45893287725E+03  0.52169029401E+03  0.00000000000E+00 0. -1.
         -3    1    3    3    0  502  0.36677646105E+02  0.49809243993E+01 -0.38951713734E+02  0.53733558737E+02  0.00000000000E+00 0.  1.
         13    1    5    5    0    0  0.53651309659E+02 -0.24000856458E+03  0.25418739866E+02  0.24724216153E+03  0.00000000000E+00 0. -1.
        -13    1    5    5    0    0 -0.19390456574E+02 -0.28508073373E+03 -0.25875977910E+02  0.28690866279E+03  0.00000000000E+00 0.  1.
          3    1    6    6  503    0 -0.69298954374E+02  0.13085700202E+03  0.52648756596E+02  0.15715531053E+03  0.00000000000E+00 0.  1.
         -3    1    6    6    0  503 -0.16345873288E+03  0.20121965271E+03 -0.14419819217E+02  0.25964598433E+03  0.00000000000E+00 0. -1.
<mgrwt>
<rscale>  0 0.14553761E+04</rscale>
<asrwt>0</asrwt>
<pdfrwt beam="1">  1        2 0.15280683E+00 0.14553761E+04</pdfrwt>
<pdfrwt beam="2">  1       -1 0.82020238E-01 0.14553761E+04</pdfrwt>
<totfact> 0.41623223E+01</totfact>
</mgrwt>
</event>
<event>
12    7  0.1919965E-007  0.1870238E+04  0.7818608E-02  0.8669814E-01
          2   -1    0    0  501    0  0.00000000000E+00  0.00000000000E+00  0.90586354021E+03  0.90586354021E+03  0.00000000000E+00 0. -1.
         -1   -1    0    0    0  501 -0.00000000000E+00 -0.00000000000E+00 -0.96531947052E+03  0.96531947052E+03  0.00000000000E+00 0.  1.
         24    2    1    2    0    0 -0.49448398726E+03 -0.29221100033E+03  0.26777918539E+03  0.63780628753E+03  0.72038086514E+02 0.  0.
        254    2    1    2    0    0  0.49448398726E+03  0.29221100033E+03 -0.32723511571E+03  0.12333767232E+04  0.10412654023E+04 0.  0.
         23    2    4    4    0    0 -0.16681179361E+03 -0.36417051610E+02 -0.44009993912E+03  0.48071596250E+03  0.90815769863E+02 0.  0.
         23    2    4    4    0    0  0.66129578087E+03  0.32862805194E+03  0.11286482342E+03  0.75266076070E+03  0.91930658721E+02 0.  0.
          2    1    3    3  502    0 -0.48596730675E+03 -0.28161873339E+03  0.27130836326E+03  0.62376402766E+03  0.00000000000E+00 0. -1.
         -1    1    3    3    0  502 -0.85166805151E+01 -0.10592266937E+02 -0.35291778672E+01  0.14042259871E+02  0.00000000000E+00 0.  1.
         13    1    5    5    0    0 -0.15968387296E+03 -0.47782381087E+02 -0.32904087875E+03  0.36884955620E+03  0.00000000000E+00 0. -1.
        -13    1    5    5    0    0 -0.71279206487E+01  0.11365329476E+02 -0.11105906038E+03  0.11186640630E+03  0.00000000000E+00 0.  1.
          1    1    6    6  503    0  0.66345812744E+03  0.33056357058E+03  0.11244130547E+03  0.74972795615E+03  0.00000000000E+00 0. -1.
         -1    1    6    6    0  503 -0.21623465658E+01 -0.19355186404E+01  0.42351794444E+00  0.29328045498E+01  0.00000000000E+00 0.  1.
<mgrwt>
<rscale>  0 0.18702382E+04</rscale>
<asrwt>0</asrwt>
<pdfrwt beam="1">  1        2 0.13936362E+00 0.18702382E+04</pdfrwt>
<pdfrwt beam="2">  1       -1 0.14851069E+00 0.18702382E+04</pdfrwt>
<totfact> 0.11156127E+01</totfact>
</mgrwt>
</event>
<event>
12    7  0.1735955E-007  0.1348746E+04  0.7818608E-02  0.8991778E-01
         -1   -1    0    0    0  501 -0.00000000000E+00  0.00000000000E+00  0.78612134289E+03  0.78612134289E+03  0.00000000000E+00 0.  1.
          2   -1    0    0  501    0  0.00000000000E+00 -0.00000000000E+00 -0.57850997591E+03  0.57850997591E+03  0.00000000000E+00 0. -1.
         24    2    1    2    0    0 -0.24934766422E+03 -0.23316788366E+03 -0.90903603832E+02  0.36296265772E+03  0.83288090928E+02 0.  0.
        254    2    1    2    0    0  0.24934766422E+03  0.23316788366E+03  0.29851497081E+03  0.10016686611E+04  0.89313347220E+03 0.  0.
         23    2    4    4    0    0  0.36276110305E+02  0.53867523250E+03  0.28836407264E+03  0.61883598814E+03  0.91198572021E+02 0.  0.
         23    2    4    4    0    0  0.21307155391E+03 -0.30550734884E+03  0.10150898174E+02  0.38283267294E+03  0.87883943112E+02 0.  0.
          2    1    3    3  502    0 -0.25105444614E+03 -0.21493303499E+03 -0.75438266395E+02  0.33899185313E+03  0.00000000000E+00 0. -1.
         -1    1    3    3    0  502  0.17067819199E+01 -0.18234848670E+02 -0.15465337437E+02  0.23970804588E+02  0.00000000000E+00 0.  1.
         13    1    5    5    0    0  0.63208765022E+02  0.43650787239E+03  0.21894438994E+03  0.49241356248E+03  0.00000000000E+00 0. -1.
        -13    1    5    5    0    0 -0.26932654717E+02  0.10216736011E+03  0.69419682696E+02  0.12642242565E+03  0.00000000000E+00 0.  1.
          2    1    6    6  503    0  0.21495398817E+03 -0.26145235557E+03  0.57661841314E+01  0.33852001439E+03  0.00000000000E+00 0. -1.
         -2    1    6    6    0  503 -0.18824342590E+01 -0.44054993267E+02  0.43847140423E+01  0.44312658550E+02  0.00000000000E+00 0.  1.
<mgrwt>
<rscale>  0 0.13487461E+04</rscale>
<asrwt>0</asrwt>
<pdfrwt beam="1">  1        2 0.89001535E-01 0.13487461E+04</pdfrwt>
<pdfrwt beam="2">  1       -1 0.12094175E+00 0.13487461E+04</pdfrwt>
<totfact> 0.35154584E+01</totfact>
</mgrwt>
</event>
<event>
12    7  0.1735955E-007  0.1793494E+04  0.7818608E-02  0.8709767E-01
         -1   -1    0    0    0  501 -0.00000000000E+00  0.00000000000E+00  0.67941878564E+03  0.67941878564E+03  0.00000000000E+00 0.  1.
          2   -1    0    0  501    0  0.00000000000E+00 -0.00000000000E+00 -0.11835925574E+04  0.11835925574E+04  0.00000000000E+00 0. -1.
         24    2    1    2    0    0 -0.25774266458E+03  0.52833402334E+03  0.17895065291E+03  0.61965523188E+03  0.79882093483E+02 0.  0.
        254    2    1    2    0    0  0.25774266458E+03 -0.52833402334E+03 -0.68312442470E+03  0.12433561112E+04  0.85656717087E+03 0.  0.
         23    2    4    4    0    0  0.29254332329E+03 -0.57081667846E+03 -0.83561692019E+03  0.10572792689E+04  0.90391032011E+02 0.  0.
         23    2    4    4    0    0 -0.34800658708E+02  0.42482655123E+02  0.15249249549E+03  0.18607684231E+03  0.91404421288E+02 0.  0.
          4    1    3    3  502    0 -0.15205704860E+03  0.27063702912E+03  0.57078682482E+02  0.31563226001E+03  0.00000000000E+00 0. -1.
         -3    1    3    3    0  502 -0.10568561598E+03  0.25769699422E+03  0.12187197043E+03  0.30402297188E+03  0.00000000000E+00 0.  1.
         13    1    5    5    0    0  0.88931759699E+02 -0.12164468613E+03 -0.24740148443E+03  0.28967875664E+03  0.00000000000E+00 0. -1.
        -13    1    5    5    0    0  0.20361156359E+03 -0.44917199233E+03 -0.58821543576E+03  0.76760051223E+03  0.00000000000E+00 0.  1.
          1    1    6    6  503    0 -0.41899976405E+02 -0.50133655395E+01  0.12223970799E+03  0.12931855268E+03  0.00000000000E+00 0. -1.
         -1    1    6    6    0  503  0.70993176969E+01  0.47496020663E+02  0.30252787493E+02  0.56758289629E+02  0.00000000000E+00 0.  1.
<mgrwt>
<rscale>  0 0.17934938E+04</rscale>
<asrwt>0</asrwt>
<pdfrwt beam="1">  1        2 0.18209116E+00 0.17934938E+04</pdfrwt>
<pdfrwt beam="2">  1       -1 0.10452597E+00 0.17934938E+04</pdfrwt>
<totfact> 0.17957130E+01</totfact>
</mgrwt>
</event>
<event>
12    7  0.1735955E-007  0.1391467E+04  0.7818608E-02  0.8960018E-01
         -3   -1    0    0    0  501 -0.00000000000E+00  0.00000000000E+00  0.26410934336E+03  0.26410934336E+03  0.00000000000E+00 0.  1.
          2   -1    0    0  501    0  0.00000000000E+00 -0.00000000000E+00 -0.18327460267E+04  0.18327460267E+04  0.00000000000E+00 0. -1.
         24    2    1    2    0    0 -0.20867070911E+03 -0.93162046271E+02  0.40292801021E+02  0.24539499312E+03  0.79828322833E+02 0.  0.
        254    2    1    2    0    0  0.20867070911E+03  0.93162046271E+02 -0.16089294843E+04  0.18514603769E+04  0.88714644224E+03 0.  0.
         23    2    4    4    0    0  0.22044455740E+03 -0.31909699086E+03 -0.37412596800E+03  0.54640125631E+03  0.90362605681E+02 0.  0.
         23    2    4    4    0    0 -0.11773848289E+02  0.41225903713E+03 -0.12348035163E+04  0.13050591206E+04  0.91342471437E+02 0.  0.
          2    1    3    3  502    0 -0.95248164644E+02 -0.18789850756E+01  0.40188267709E+01  0.95351425902E+02  0.00000000000E+00 0. -1.
         -1    1    3    3    0  502 -0.11342254447E+03 -0.91283061195E+02  0.36273974250E+02  0.15004356722E+03  0.00000000000E+00 0.  1.
         13    1    5    5    0    0  0.17499096672E+03 -0.24041174170E+03 -0.33364736329E+03  0.44692304372E+03  0.00000000000E+00 0.  1.
        -13    1    5    5    0    0  0.45453590680E+02 -0.78685249157E+02 -0.40478604712E+02  0.99478212590E+02  0.00000000000E+00 0. -1.
          1    1    6    6  503    0  0.60638605261E+00  0.32507710894E+02 -0.20165563270E+03  0.20425991572E+03  0.00000000000E+00 0. -1.
         -1    1    6    6    0  503 -0.12380234342E+02  0.37975132624E+03 -0.10331478836E+04  0.11007992049E+04  0.00000000000E+00 0.  1.
<mgrwt>
<rscale>  0 0.13914674E+04</rscale>
<asrwt>0</asrwt>
<pdfrwt beam="1">  1        2 0.28196093E+00 0.13914674E+04</pdfrwt>
<pdfrwt beam="2">  1       -3 0.40632207E-01 0.13914674E+04</pdfrwt>
<totfact> 0.31252025E+01</totfact>
</mgrwt>
</event>
<event>
12    7  0.1735955E-007  0.3375116E+04  0.7818608E-02  0.8144041E-01
         -1   -1    0    0    0  501 -0.00000000000E+00  0.00000000000E+00  0.12004575600E+04  0.12004575600E+04  0.00000000000E+00 0.  1.
          2   -1    0    0  501    0  0.00000000000E+00 -0.00000000000E+00 -0.23723056767E+04  0.23723056767E+04  0.00000000000E+00 0. -1.
         24    2    1    2    0    0  0.10579674255E+04 -0.81467361790E+03 -0.14114480723E+04  0.19445782824E+04  0.78809001203E+02 0.  0.
        254    2    1    2    0    0 -0.10579674255E+04  0.81467361790E+03  0.23959995557E+03  0.16281849543E+04  0.90032767900E+03 0.  0.
         23    2    4    4    0    0 -0.21080540544E+03  0.50385545252E+03  0.43018809098E+03  0.70129894694E+03  0.91919439547E+02 0.  0.
         23    2    4    4    0    0 -0.84716202002E+03  0.31081816538E+03 -0.19058813541E+03  0.92688600733E+03  0.92208530715E+02 0.  0.
          2    1    3    3  502    0  0.37301395431E+03 -0.29178685354E+03 -0.55585967461E+03  0.73024581879E+03  0.00000000000E+00 0. -1.
         -1    1    3    3    0  502  0.68495347115E+03 -0.52288676436E+03 -0.85558839771E+03  0.12143324637E+04  0.00000000000E+00 0.  1.
         13    1    5    5    0    0 -0.16819932763E+03  0.30803510691E+03  0.24133753611E+03  0.42593479223E+03  0.00000000000E+00 0.  1.
        -13    1    5    5    0    0 -0.42606077811E+02  0.19582034561E+03  0.18885055487E+03  0.27536415471E+03  0.00000000000E+00 0. -1.
          3    1    6    6  503    0 -0.57326930563E+03  0.24861329446E+03 -0.10794652885E+03  0.63411254525E+03  0.00000000000E+00 0. -1.
         -3    1    6    6    0  503 -0.27389271439E+03  0.62204870922E+02 -0.82641606562E+02  0.29277346208E+03  0.00000000000E+00 0.  1.
<mgrwt>
<rscale>  0 0.33751162E+04</rscale>
<asrwt>0</asrwt>
<pdfrwt beam="1">  1        2 0.36497011E+00 0.33751162E+04</pdfrwt>
<pdfrwt beam="2">  1       -1 0.18468578E+00 0.33751162E+04</pdfrwt>
<totfact> 0.74950376E-01</totfact>
</mgrwt>
</event>
<event>
12    7  0.1735955E-007  0.1826609E+04  0.7818608E-02  0.8692276E-01
          2   -1    0    0  501    0  0.00000000000E+00  0.00000000000E+00  0.22870800983E+04  0.22870800983E+04  0.00000000000E+00 0. -1.
         -1   -1    0    0    0  501 -0.00000000000E+00 -0.00000000000E+00 -0.36471170501E+03  0.36471170501E+03  0.00000000000E+00 0.  1.
         24    2    1    2    0    0  0.46899429524E+03 -0.35885234850E+03  0.12046978127E+04  0.13441265997E+04  0.81540414413E+02 0.  0.
        254    2    1    2    0    0 -0.46899429524E+03  0.35885234850E+03  0.71767058056E+03  0.13076652036E+04  0.91989486649E+03 0.  0.
         23    2    4    4    0    0 -0.52522506764E+03  0.61383845780E+03  0.49044353564E+03  0.94939898046E+03  0.90357835733E+02 0.  0.
         23    2    4    4    0    0  0.56230772404E+02 -0.25498610930E+03  0.22722704492E+03  0.35826622310E+03  0.92426949344E+02 0.  0.
          2    1    3    3  502    0  0.40151368147E+03 -0.30533700507E+03  0.95563756441E+03  0.10805957050E+04  0.00000000000E+00 0. -1.
         -1    1    3    3    0  502  0.67480613770E+02 -0.53515343433E+02  0.24906024832E+03  0.26353089479E+03  0.00000000000E+00 0.  1.
         13    1    5    5    0    0 -0.50110055136E+03  0.58741733033E+03  0.44365991124E+03  0.89050266669E+03  0.00000000000E+00 0. -1.
        -13    1    5    5    0    0 -0.24124516287E+02  0.26421127474E+02  0.46783624399E+02  0.58896313764E+02  0.00000000000E+00 0.  1.
          4    1    6    6  503    0  0.31376485370E+02 -0.21339795411E+03  0.22201424400E+03  0.30953755053E+03  0.00000000000E+00 0. -1.
         -4    1    6    6    0  503  0.24854287034E+02 -0.41588155191E+02  0.52128009254E+01  0.48728672562E+02  0.00000000000E+00 0.  1.
<mgrwt>
<rscale>  0 0.18266088E+04</rscale>
<asrwt>0</asrwt>
<pdfrwt beam="1">  1        2 0.35185847E+00 0.18266088E+04</pdfrwt>
<pdfrwt beam="2">  1       -1 0.56109494E-01 0.18266088E+04</pdfrwt>
<totfact> 0.15901034E+01</totfact>
</mgrwt>
</event>
<event>
12    7  0.1735955E-007  0.1294541E+04  0.7818608E-02  0.9033905E-01
          2   -1    0    0  501    0  0.00000000000E+00  0.00000000000E+00  0.53941979895E+03  0.53941979895E+03  0.00000000000E+00 0. -1.
         -1   -1    0    0    0  501 -0.00000000000E+00 -0.00000000000E+00 -0.77668501147E+03  0.77668501147E+03  0.00000000000E+00 0.  1.
         24    2    1    2    0    0  0.73932418498E+02  0.21013180619E+03 -0.32393972899E+03  0.40108203781E+03  0.79425906096E+02 0.  0.
        254    2    1    2    0    0 -0.73932418498E+02 -0.21013180619E+03  0.86674516463E+02  0.91502277261E+03  0.88325128028E+03 0.  0.
         23    2    4    4    0    0 -0.43527258777E+02 -0.48824340221E+02 -0.38838862864E+03  0.40403349968E+03  0.90104958532E+02 0.  0.
         23    2    4    4    0    0 -0.30405159721E+02 -0.16130746597E+03  0.47506314510E+03  0.51098927293E+03  0.92089483138E+02 0.  0.
          2    1    3    3  502    0 -0.62256563797E+01  0.77685273120E+02 -0.76527466961E+02  0.10922551742E+03  0.00000000000E+00 0. -1.
         -1    1    3    3    0  502  0.80158074878E+02  0.13244653307E+03 -0.24741226203E+03  0.29185652039E+03  0.00000000000E+00 0.  1.
         13    1    5    5    0    0 -0.28943772017E+02 -0.52646869317E+01 -0.27621101813E+02  0.40353241907E+02  0.00000000000E+00 0.  1.
        -13    1    5    5    0    0 -0.14583486760E+02 -0.43559653289E+02 -0.36076752682E+03  0.36368025777E+03  0.00000000000E+00 0. -1.
          3    1    6    6  503    0 -0.48505910451E+02 -0.13378756794E+03  0.44189273401E+03  0.46424252827E+03  0.00000000000E+00 0. -1.
         -3    1    6    6    0  503  0.18100750729E+02 -0.27519898036E+02  0.33170411093E+02  0.46746744667E+02  0.00000000000E+00 0.  1.
<mgrwt>
<rscale>  0 0.12945413E+04</rscale>
<asrwt>0</asrwt>
<pdfrwt beam="1">  1        2 0.82987661E-01 0.12945413E+04</pdfrwt>
<pdfrwt beam="2">  1       -1 0.11949000E+00 0.12945413E+04</pdfrwt>
<totfact> 0.39520394E+01</totfact>
</mgrwt>
</event>
<event>
12    7  0.1735955E-007  0.2184176E+04  0.7818608E-02  0.8525044E-01
         -1   -1    0    0    0  501 -0.00000000000E+00  0.00000000000E+00  0.11568680831E+04  0.11568680831E+04  0.00000000000E+00 0.  1.
          2   -1    0    0  501    0  0.00000000000E+00 -0.00000000000E+00 -0.10309350368E+04  0.10309350368E+04  0.00000000000E+00 0. -1.
         24    2    1    2    0    0 -0.16891405891E+03  0.37356684118E+03 -0.75653973624E+03  0.86417748354E+03  0.79788510550E+02 0.  0.
        254    2    1    2    0    0  0.16891405891E+03 -0.37356684118E+03  0.88247278261E+03  0.13236256364E+04  0.89729731368E+03 0.  0.
         23    2    4    4    0    0  0.49323291821E+03 -0.26577915310E+03  0.76169215032E+03  0.94998411053E+03  0.91529277118E+02 0.  0.
         23    2    4    4    0    0 -0.32431885930E+03 -0.10778768808E+03  0.12078063229E+03  0.37364152586E+03  0.90659365283E+02 0.  0.
          4    1    3    3  502    0 -0.31941670997E+02  0.50301113052E+02 -0.17510833354E+03  0.18496864814E+03  0.00000000000E+00 0. -1.
         -3    1    3    3    0  502 -0.13697238792E+03  0.32326572813E+03 -0.58143140270E+03  0.67920883539E+03  0.00000000000E+00 0.  1.
         13    1    5    5    0    0  0.48308911718E+03 -0.25011850570E+03  0.70616156617E+03  0.89140255753E+03  0.00000000000E+00 0. -1.
        -13    1    5    5    0    0  0.10143801036E+02 -0.15660647401E+02  0.55530584144E+02  0.58581553000E+02  0.00000000000E+00 0.  1.
          3    1    6    6  503    0 -0.17406778215E+03 -0.20514221597E+02  0.90521964207E+02  0.19726797022E+03  0.00000000000E+00 0. -1.
         -3    1    6    6    0  503 -0.15025107715E+03 -0.87273466481E+02  0.30258668085E+02  0.17637355565E+03  0.00000000000E+00 0.  1.
<mgrwt>
<rscale>  0 0.21841757E+04</rscale>
<asrwt>0</asrwt>
<pdfrwt beam="1">  1        2 0.15860539E+00 0.21841757E+04</pdfrwt>
<pdfrwt beam="2">  1       -1 0.17797971E+00 0.21841757E+04</pdfrwt>
<totfact> 0.54060153E+00</totfact>
</mgrwt>
</event>
<event>
12    7  0.1735955E-007  0.2342278E+04  0.7818608E-02  0.8461436E-01
          2   -1    0    0  501    0  0.00000000000E+00  0.00000000000E+00  0.65569333858E+03  0.65569333858E+03  0.00000000000E+00 0. -1.
         -1   -1    0    0    0  501 -0.00000000000E+00 -0.00000000000E+00 -0.20917802107E+04  0.20917802107E+04  0.00000000000E+00 0.  1.
         24    2    1    2    0    0  0.75515597887E+03 -0.27961407514E+03 -0.13077744413E+04  0.15378351128E+04  0.78855954427E+02 0.  0.
        254    2    1    2    0    0 -0.75515597887E+03  0.27961407514E+03 -0.12831243082E+03  0.12096384364E+04  0.89348558104E+03 0.  0.
         23    2    4    4    0    0 -0.51811350969E+03 -0.27262938967E+03 -0.26509451755E+02  0.59328293310E+03  0.92268600470E+02 0.  0.
         23    2    4    4    0    0 -0.23704246918E+03  0.55224346481E+03 -0.10180297906E+03  0.61635550333E+03  0.91478321541E+02 0.  0.
          2    1    3    3  502    0  0.14114315382E+03 -0.29915082957E+02 -0.27721372500E+03  0.31251200199E+03  0.00000000000E+00 0. -1.
         -1    1    3    3    0  502  0.61401282505E+03 -0.24969899219E+03 -0.10305607163E+04  0.12253231108E+04  0.00000000000E+00 0.  1.
         13    1    5    5    0    0 -0.47266606545E+03 -0.21560763623E+03 -0.17528257003E+02  0.51981448809E+03  0.00000000000E+00 0.  1.
        -13    1    5    5    0    0 -0.45447444245E+02 -0.57021753436E+02 -0.89811947523E+01  0.73468445012E+02  0.00000000000E+00 0. -1.
          4    1    6    6  503    0  0.37550622032E+01  0.58887882663E+01  0.65072557585E+01  0.95458209129E+01  0.00000000000E+00 0. -1.
         -4    1    6    6    0  503 -0.24079753138E+03  0.54635467655E+03 -0.10831023482E+03  0.60680968241E+03  0.00000000000E+00 0.  1.
<mgrwt>
<rscale>  0 0.23422778E+04</rscale>
<asrwt>0</asrwt>
<pdfrwt beam="1">  1        2 0.10087590E+00 0.23422778E+04</pdfrwt>
<pdfrwt beam="2">  1       -1 0.32181234E+00 0.23422778E+04</pdfrwt>
<totfact> 0.10926407E+00</totfact>
</mgrwt>
</event>
<event>
12    7  0.1735955E-007  0.1240001E+04  0.7818608E-02  0.9078547E-01
         -1   -1    0    0    0  501 -0.00000000000E+00  0.00000000000E+00  0.16940702300E+03  0.16940702300E+03  0.00000000000E+00 0.  1.
          2   -1    0    0  501    0  0.00000000000E+00 -0.00000000000E+00 -0.22690955797E+04  0.22690955797E+04  0.00000000000E+00 0. -1.
         24    2    1    2    0    0  0.17387285767E+02  0.70199318745E+02 -0.10273812426E+04  0.10331235390E+04  0.81251259665E+02 0.  0.
        254    2    1    2    0    0 -0.17387285767E+02 -0.70199318745E+02 -0.10723073141E+04  0.14053790637E+04  0.90554794168E+03 0.  0.
         23    2    4    4    0    0 -0.19487431320E+02 -0.59509349232E+02  0.14657948371E+03  0.18328139465E+03  0.90473211260E+02 0.  0.
         23    2    4    4    0    0  0.21001455524E+01 -0.10689969513E+02 -0.12188867979E+04  0.12220976691E+04  0.87857843542E+02 0.  0.
          4    1    3    3  502    0  0.15704476033E+02  0.41522424608E+02 -0.94188115414E+03  0.94292674733E+03  0.00000000000E+00 0. -1.
         -3    1    3    3    0  502  0.16828097340E+01  0.28676894137E+02 -0.85500088451E+02  0.90196791690E+02  0.00000000000E+00 0.  1.
         13    1    5    5    0    0 -0.43587292677E+02 -0.44717479094E+02  0.14134355557E+03  0.15452347951E+03  0.00000000000E+00 0. -1.
        -13    1    5    5    0    0  0.24099861357E+02 -0.14791870138E+02  0.52359281370E+01  0.28757915138E+02  0.00000000000E+00 0.  1.
          3    1    6    6  503    0  0.22073854852E+02 -0.28467990608E+01 -0.11434935993E+04  0.11437101778E+04  0.00000000000E+00 0. -1.
         -3    1    6    6    0  503 -0.19973709300E+02 -0.78431704521E+01 -0.75393198592E+02  0.78387491220E+02  0.00000000000E+00 0.  1.
<mgrwt>
<rscale>  0 0.12400012E+04</rscale>
<asrwt>0</asrwt>
<pdfrwt beam="1">  1        2 0.34909163E+00 0.12400012E+04</pdfrwt>
<pdfrwt beam="2">  1       -1 0.26062619E-01 0.12400012E+04</pdfrwt>
<totfact> 0.69210723E+01</totfact>
</mgrwt>
</event>
<event>
12    7  0.1735955E-007  0.2522202E+04  0.7818608E-02  0.8395119E-01
          2   -1    0    0  501    0  0.00000000000E+00  0.00000000000E+00  0.75942530467E+03  0.75942530467E+03  0.00000000000E+00 0. -1.
         -1   -1    0    0    0  501 -0.00000000000E+00 -0.00000000000E+00 -0.20941824625E+04  0.20941824625E+04  0.00000000000E+00 0.  1.
         24    2    1    2    0    0 -0.19759083810E+03 -0.96522554717E+03 -0.32111787350E+02  0.98896894066E+03  0.79535542363E+02 0.  0.
        254    2    1    2    0    0  0.19759083810E+03  0.96522554717E+03 -0.13026453704E+04  0.18646388265E+04  0.89960574467E+03 0.  0.
         23    2    4    4    0    0 -0.87129672577E+02  0.82476244111E+03 -0.44523571369E+03  0.94510986902E+03  0.84694507887E+02 0.  0.
         23    2    4    4    0    0  0.28472051068E+03  0.14046310606E+03 -0.85740965674E+03  0.91952895744E+03  0.97910830523E+02 0.  0.
          4    1    3    3  502    0 -0.11533317053E+03 -0.64856422375E+03 -0.54785576225E+02  0.66101342794E+03  0.00000000000E+00 0. -1.
         -3    1    3    3    0  502 -0.82257667576E+02 -0.31666132342E+03  0.22673788874E+02  0.32795551272E+03  0.00000000000E+00 0.  1.
         13    1    5    5    0    0 -0.65629011598E+02  0.64406468782E+03 -0.38599975426E+03  0.75373888022E+03  0.00000000000E+00 0. -1.
        -13    1    5    5    0    0 -0.21500660978E+02  0.18069775329E+03 -0.59235959429E+02  0.19137098880E+03  0.00000000000E+00 0.  1.
          4    1    6    6  503    0  0.28364071337E+03  0.14805898272E+03 -0.85212023014E+03  0.91021008743E+03  0.00000000000E+00 0. -1.
         -4    1    6    6    0  503  0.10797973044E+01 -0.75958766618E+01 -0.52894266010E+01  0.93188700091E+01  0.00000000000E+00 0.  1.
<mgrwt>
<rscale>  0 0.25222015E+04</rscale>
<asrwt>0</asrwt>
<pdfrwt beam="1">  1        2 0.11683466E+00 0.25222015E+04</pdfrwt>
<pdfrwt beam="2">  1       -1 0.32218192E+00 0.25222015E+04</pdfrwt>
<totfact> 0.88749803E-01</totfact>
</mgrwt>
</event>
<event>
12    7  0.1735955E-007  0.1878817E+04  0.7818608E-02  0.8665473E-01
         -1   -1    0    0    0  501 -0.00000000000E+00  0.00000000000E+00  0.14453883922E+04  0.14453883922E+04  0.00000000000E+00 0.  1.
          2   -1    0    0  501    0  0.00000000000E+00 -0.00000000000E+00 -0.61055464889E+03  0.61055464889E+03  0.00000000000E+00 0. -1.
         24    2    1    2    0    0  0.12503704686E+03  0.26082176752E+03  0.10564266977E+04  0.10981879214E+04  0.79480095576E+02 0.  0.
        254    2    1    2    0    0 -0.12503704686E+03 -0.26082176752E+03 -0.22159295433E+03  0.95775511974E+03  0.88573651527E+03 0.  0.
         23    2    4    4    0    0 -0.47387561341E+03 -0.22117841164E+03 -0.26216190949E+03  0.59231856868E+03  0.92921651196E+02 0.  0.
         23    2    4    4    0    0  0.34883856655E+03 -0.39643355884E+02  0.40568955158E+02  0.36543655106E+03  0.92941333926E+02 0.  0.
          2    1    3    3  502    0  0.13715532347E+02 -0.21123865889E+01  0.36536176102E+02  0.39082862853E+02  0.00000000000E+00 0. -1.
         -1    1    3    3    0  502  0.11132151451E+03  0.26293415411E+03  0.10198905215E+04  0.10591050585E+04  0.00000000000E+00 0.  1.
         13    1    5    5    0    0 -0.28307550973E+03 -0.17979379891E+03 -0.17872470947E+03  0.38000010015E+03  0.00000000000E+00 0.  1.
        -13    1    5    5    0    0 -0.19080010368E+03 -0.41384612728E+02 -0.83437200012E+02  0.21231846854E+03  0.00000000000E+00 0. -1.
          1    1    6    6  503    0  0.10072945489E+03 -0.54237912039E+02  0.18919735778E+02  0.11595745162E+03  0.00000000000E+00 0. -1.
         -1    1    6    6    0  503  0.24810911166E+03  0.14594556156E+02  0.21649219380E+02  0.24947909944E+03  0.00000000000E+00 0.  1.
<mgrwt>
<rscale>  0 0.18788173E+04</rscale>
<asrwt>0</asrwt>
<pdfrwt beam="1">  1        2 0.93931485E-01 0.18788173E+04</pdfrwt>
<pdfrwt beam="2">  1       -1 0.22236744E+00 0.18788173E+04</pdfrwt>
<totfact> 0.55195477E+00</totfact>
</mgrwt>
</event>
<event>
12    7  0.1735955E-007  0.2459672E+04  0.7818608E-02  0.8417495E-01
          2   -1    0    0  501    0  0.00000000000E+00  0.00000000000E+00  0.16675312674E+04  0.16675312674E+04  0.00000000000E+00 0. -1.
         -1   -1    0    0    0  501 -0.00000000000E+00 -0.00000000000E+00 -0.90702739754E+03  0.90702739754E+03  0.00000000000E+00 0.  1.
         24    2    1    2    0    0  0.20716327955E+03  0.52934007778E+03  0.12611426570E+04  0.13856346883E+04  0.79907107493E+02 0.  0.
        254    2    1    2    0    0 -0.20716327955E+03 -0.52934007778E+03 -0.50063878720E+03  0.11889239766E+04  0.91639701247E+03 0.  0.
         23    2    4    4    0    0  0.27039615437E+03 -0.11917940761E+03  0.88371353571E+02  0.32199992253E+03  0.92502121515E+02 0.  0.
         23    2    4    4    0    0 -0.47755943391E+03 -0.41016067017E+03 -0.58901014078E+03  0.86692405403E+03  0.91266539611E+02 0.  0.
          4    1    3    3  502    0  0.88750894804E+02  0.30242813374E+03  0.62623118106E+03  0.70107416835E+03  0.00000000000E+00 0. -1.
         -3    1    3    3    0  502  0.11841238474E+03  0.22691194405E+03  0.63491147596E+03  0.68456051998E+03  0.00000000000E+00 0.  1.
         13    1    5    5    0    0  0.20833653920E+02 -0.24109713602E+02  0.39093122891E+02  0.50434032984E+02  0.00000000000E+00 0. -1.
        -13    1    5    5    0    0  0.24956250045E+03 -0.95069694011E+02  0.49278230680E+02  0.27156588955E+03  0.00000000000E+00 0.  1.
          4    1    6    6  503    0 -0.29646470472E+03 -0.24214182527E+03 -0.41610666234E+03  0.56539255313E+03  0.00000000000E+00 0. -1.
         -4    1    6    6    0  503 -0.18109472920E+03 -0.16801884490E+03 -0.17290347844E+03  0.30153150091E+03  0.00000000000E+00 0.  1.
<mgrwt>
<rscale>  0 0.24596720E+04</rscale>
<asrwt>0</asrwt>
<pdfrwt beam="1">  1        2 0.25654327E+00 0.24596720E+04</pdfrwt>
<pdfrwt beam="2">  1       -1 0.13954268E+00 0.24596720E+04</pdfrwt>
<totfact> 0.44040847E+00</totfact>
</mgrwt>
</event>
<event>
12    7  0.1735955E-007  0.2048328E+04  0.7818608E-02  0.8584353E-01
          2   -1    0    0  501    0  0.00000000000E+00  0.00000000000E+00  0.24712220598E+04  0.24712220598E+04  0.00000000000E+00 0. -1.
         -1   -1    0    0    0  501 -0.00000000000E+00 -0.00000000000E+00 -0.42445069012E+03  0.42445069012E+03  0.00000000000E+00 0.  1.
         24    2    1    2    0    0  0.28550286340E+03 -0.64999928081E+03  0.16869220377E+03  0.73395411656E+03  0.78871005698E+02 0.  0.
        254    2    1    2    0    0 -0.28550286340E+03  0.64999928081E+03  0.18780791659E+04  0.21617186333E+04  0.80114614543E+03 0.  0.
         23    2    4    4    0    0 -0.39877896081E+03  0.82897483101E+02  0.42824515875E+03  0.59826640071E+03  0.92909191885E+02 0.  0.
         23    2    4    4    0    0  0.11327609741E+03  0.56710179771E+03  0.14498340071E+04  0.15634522326E+04  0.89041070676E+02 0.  0.
          4    1    3    3  502    0  0.31865836886E+02 -0.29335462514E+02  0.16932656437E+02  0.46505008068E+02  0.00000000000E+00 0. -1.
         -3    1    3    3    0  502  0.25363702651E+03 -0.62066381830E+03  0.15175954734E+03  0.68744910850E+03  0.00000000000E+00 0.  1.
         13    1    5    5    0    0 -0.27433595730E+03  0.99697096847E+02  0.28882792931E+03  0.41063524122E+03  0.00000000000E+00 0. -1.
        -13    1    5    5    0    0 -0.12444300351E+03 -0.16799613746E+02  0.13941722944E+03  0.18763115948E+03  0.00000000000E+00 0.  1.
          2    1    6    6  503    0  0.11738156889E+03  0.53458668965E+03  0.14055953926E+04  0.15083964231E+04  0.00000000000E+00 0. -1.
         -2    1    6    6    0  503 -0.41054714809E+01  0.32515108062E+02  0.44238614461E+02  0.55055809483E+02  0.00000000000E+00 0.  1.
<mgrwt>
<rscale>  0 0.20483280E+04</rscale>
<asrwt>0</asrwt>
<pdfrwt beam="1">  1        2 0.38018800E+00 0.20483280E+04</pdfrwt>
<pdfrwt beam="2">  1       -1 0.65300108E-01 0.20483280E+04</pdfrwt>
<totfact> 0.90623368E+00</totfact>
</mgrwt>
</event>
<event>
12    7  0.1735955E-007  0.1124677E+04  0.7818608E-02  0.9181468E-01
          2   -1    0    0  501    0  0.00000000000E+00  0.00000000000E+00  0.13592098541E+04  0.13592098541E+04  0.00000000000E+00 0. -1.
         -1   -1    0    0    0  501 -0.00000000000E+00 -0.00000000000E+00 -0.23265345181E+03  0.23265345181E+03  0.00000000000E+00 0.  1.
         24    2    1    2    0    0  0.10289486585E+03 -0.16597995700E+03  0.15121347258E+03  0.25926619705E+03  0.78846351222E+02 0.  0.
        254    2    1    2    0    0 -0.10289486585E+03  0.16597995700E+03  0.97534292975E+03  0.13325971089E+04  0.88678324547E+03 0.  0.
         23    2    4    4    0    0  0.28504091248E+03  0.78382387012E+02  0.85215397038E+03  0.90667321736E+03  0.92183585594E+02 0.  0.
         23    2    4    4    0    0 -0.38793577833E+03  0.87597569991E+02  0.12318895937E+03  0.42592389153E+03  0.89822821651E+02 0.  0.
          2    1    3    3  502    0  0.11469071275E+03 -0.16125467018E+03  0.14279555816E+03  0.24402376867E+03  0.00000000000E+00 0. -1.
         -1    1    3    3    0  502 -0.11795846906E+02 -0.47252868216E+01  0.84179144158E+01  0.15242428379E+02  0.00000000000E+00 0.  1.
         13    1    5    5    0    0  0.37456066595E+01 -0.13261404314E+02  0.35259503891E+02  0.37856664252E+02  0.00000000000E+00 0. -1.
        -13    1    5    5    0    0  0.28129530582E+03  0.91643791326E+02  0.81689446649E+03  0.86881655310E+03  0.00000000000E+00 0.  1.
          2    1    6    6  503    0 -0.13665908591E+03  0.46994639840E+02  0.32622443697E+01  0.14455049005E+03  0.00000000000E+00 0. -1.
         -2    1    6    6    0  503 -0.25127669242E+03  0.40602930152E+02  0.11992671500E+03  0.28137340148E+03  0.00000000000E+00 0.  1.
<mgrwt>
<rscale>  0 0.11246775E+04</rscale>
<asrwt>0</asrwt>
<pdfrwt beam="1">  1        2 0.20910920E+00 0.11246775E+04</pdfrwt>
<pdfrwt beam="2">  1       -1 0.35792840E-01 0.11246775E+04</pdfrwt>
<totfact> 0.12851215E+02</totfact>
</mgrwt>
</event>
<event>
12    7  0.1735955E-007  0.2182670E+04  0.7818608E-02  0.8525676E-01
          2   -1    0    0  501    0  0.00000000000E+00  0.00000000000E+00  0.15282646516E+04  0.15282646516E+04  0.00000000000E+00 0. -1.
         -1   -1    0    0    0  501 -0.00000000000E+00 -0.00000000000E+00 -0.77932292996E+03  0.77932292996E+03  0.00000000000E+00 0.  1.
         24    2    1    2    0    0 -0.41512773386E+03 -0.64646232717E+03  0.81197874490E+03  0.11207588910E+04  0.80910035013E+02 0.  0.
        254    2    1    2    0    0  0.41512773386E+03  0.64646232717E+03 -0.63037023218E+02  0.11868286906E+04  0.90241016096E+03 0.  0.
         23    2    4    4    0    0 -0.16604865071E+03  0.46616911907E+03  0.16645111244E+03  0.53015744543E+03  0.92060535171E+02 0.  0.
         23    2    4    4    0    0  0.58117638457E+03  0.18029320809E+03 -0.22948813566E+03  0.65667124514E+03  0.90998290775E+02 0.  0.
          2    1    3    3  502    0 -0.27973778658E+03 -0.48591616431E+03  0.62414032374E+03  0.83899874357E+03  0.00000000000E+00 0. -1.
         -1    1    3    3    0  502 -0.13538994728E+03 -0.16054616285E+03  0.18783842116E+03  0.28176014745E+03  0.00000000000E+00 0.  1.
         13    1    5    5    0    0 -0.46597174372E+02  0.87800066966E+02  0.70736800491E+02  0.12199935804E+03  0.00000000000E+00 0. -1.
        -13    1    5    5    0    0 -0.11945147634E+03  0.37836905211E+03  0.95714311946E+02  0.40815808739E+03  0.00000000000E+00 0.  1.
          2    1    6    6  503    0  0.21048347558E+03  0.11128000915E+03 -0.82665700338E+02  0.25203204546E+03  0.00000000000E+00 0. -1.
         -2    1    6    6    0  503  0.37069290899E+03  0.69013198946E+02 -0.14682243532E+03  0.40463919968E+03  0.00000000000E+00 0.  1.
<mgrwt>
<rscale>  0 0.21826696E+04</rscale>
<asrwt>0</asrwt>
<pdfrwt beam="1">  1        2 0.23511764E+00 0.21826696E+04</pdfrwt>
<pdfrwt beam="2">  1       -1 0.11989584E+00 0.21826696E+04</pdfrwt>
<totfact> 0.79158416E+00</totfact>
</mgrwt>
</event>
<event>
12    7  0.1735955E-007  0.1334599E+04  0.7818608E-02  0.9002569E-01
         -1   -1    0    0    0  501 -0.00000000000E+00  0.00000000000E+00  0.53928838637E+03  0.53928838637E+03  0.00000000000E+00 0.  1.
          2   -1    0    0  501    0  0.00000000000E+00 -0.00000000000E+00 -0.82569666035E+03  0.82569666035E+03  0.00000000000E+00 0. -1.
         24    2    1    2    0    0  0.14156368341E+03  0.23632386693E+03 -0.30965365244E+03  0.42232626112E+03  0.81147025986E+02 0.  0.
        254    2    1    2    0    0 -0.14156368341E+03 -0.23632386693E+03  0.23245378460E+02  0.94265878559E+03  0.90120807358E+03 0.  0.
         23    2    4    4    0    0  0.26957917307E+03 -0.38193810995E+03 -0.88463853751E+02  0.48425544090E+03  0.90154468711E+02 0.  0.
         23    2    4    4    0    0 -0.41114285648E+03  0.14561424302E+03  0.11170923221E+03  0.45840334470E+03  0.86097140854E+02 0.  0.
          4    1    3    3  502    0  0.10068153112E+03  0.22201790204E+03 -0.26665471931E+03  0.36129414452E+03  0.00000000000E+00 0. -1.
         -3    1    3    3    0  502  0.40882152283E+02  0.14305964889E+02 -0.42998933130E+02  0.61032116603E+02  0.00000000000E+00 0.  1.
         13    1    5    5    0    0  0.95069677845E+02 -0.19186123660E+03 -0.92081090105E+01  0.21432164386E+03  0.00000000000E+00 0.  1.
        -13    1    5    5    0    0  0.17450949523E+03 -0.19007687335E+03 -0.79255744741E+02  0.26993379704E+03  0.00000000000E+00 0. -1.
          4    1    6    6  503    0 -0.36751953738E+03  0.10185721368E+03  0.10861582059E+03  0.39653864732E+03  0.00000000000E+00 0. -1.
         -4    1    6    6    0  503 -0.43623319099E+02  0.43757029343E+02  0.30934116172E+01  0.61864697378E+02  0.00000000000E+00 0.  1.
<mgrwt>
<rscale>  0 0.13345990E+04</rscale>
<asrwt>0</asrwt>
<pdfrwt beam="1">  1        2 0.12703026E+00 0.13345990E+04</pdfrwt>
<pdfrwt beam="2">  1       -1 0.82967444E-01 0.13345990E+04</pdfrwt>
<totfact> 0.53191150E+01</totfact>
</mgrwt>
</event>
<event>
12    7  0.1735955E-007  0.1626066E+04  0.7818608E-02  0.8804693E-01
         -1   -1    0    0    0  501 -0.00000000000E+00  0.00000000000E+00  0.28657761679E+03  0.28657761679E+03  0.00000000000E+00 0.  1.
          2   -1    0    0  501    0  0.00000000000E+00 -0.00000000000E+00 -0.23066084617E+04  0.23066084617E+04  0.00000000000E+00 0. -1.
         24    2    1    2    0    0 -0.52640471137E+03 -0.45321628152E+02 -0.40453757294E+03  0.67081034466E+03  0.84734293209E+02 0.  0.
        254    2    1    2    0    0  0.52640471137E+03  0.45321628152E+02 -0.16154932720E+04  0.19223757338E+04  0.89808350397E+03 0.  0.
         23    2    4    4    0    0  0.20838148195E+03  0.41487918940E+03 -0.43827610662E+03  0.64513076768E+03  0.92521229720E+02 0.  0.
         23    2    4    4    0    0  0.31802322942E+03 -0.36955756125E+03 -0.11772171654E+04  0.12772449662E+04  0.88333932560E+02 0.  0.
          4    1    3    3  502    0 -0.46983924189E+03 -0.47529191250E+02 -0.38975220582E+03  0.61230280024E+03  0.00000000000E+00 0. -1.
         -3    1    3    3    0  502 -0.56565469481E+02  0.22075630974E+01 -0.14785367114E+02  0.58507544412E+02  0.00000000000E+00 0.  1.
         13    1    5    5    0    0  0.18850349981E+03  0.28320432492E+03 -0.31824200839E+03  0.46585001341E+03  0.00000000000E+00 0. -1.
        -13    1    5    5    0    0  0.19877982141E+02  0.13167486449E+03 -0.12003409823E+03  0.17928075426E+03  0.00000000000E+00 0.  1.
          3    1    6    6  503    0  0.24569969716E+02 -0.78178796322E+02 -0.19278857377E+03  0.20948279591E+03  0.00000000000E+00 0. -1.
         -3    1    6    6    0  503  0.29345325970E+03 -0.29137876493E+03 -0.98442859160E+03  0.10677621703E+04  0.00000000000E+00 0.  1.
<mgrwt>
<rscale>  0 0.16260656E+04</rscale>
<asrwt>0</asrwt>
<pdfrwt beam="1">  1        2 0.35486286E+00 0.16260656E+04</pdfrwt>
<pdfrwt beam="2">  1       -1 0.44088862E-01 0.16260656E+04</pdfrwt>
<totfact> 0.24951905E+01</totfact>
</mgrwt>
</event>
<event>
12    7  0.1735955E-007  0.1083719E+04  0.7818608E-02  0.9221207E-01
          2   -1    0    0  501    0  0.00000000000E+00  0.00000000000E+00  0.16908411369E+04  0.16908411369E+04  0.00000000000E+00 0. -1.
         -1   -1    0    0    0  501 -0.00000000000E+00 -0.00000000000E+00 -0.17364837655E+03  0.17364837655E+03  0.00000000000E+00 0.  1.
         24    2    1    2    0    0  0.38179981359E+01 -0.76859079493E+02  0.12285907611E+02  0.11171191305E+03  0.80041943883E+02 0.  0.
        254    2    1    2    0    0 -0.38179981359E+01  0.76859079493E+02  0.15049068527E+04  0.17527776004E+04  0.89530038861E+03 0.  0.
         23    2    4    4    0    0 -0.41744943332E+03  0.43022020385E+01  0.10116484705E+04  0.10985701081E+04  0.95609185573E+02 0.  0.
         23    2    4    4    0    0  0.41363143518E+03  0.72556877455E+02  0.49325838224E+03  0.65420749224E+03  0.91258679690E+02 0.  0.
          2    1    3    3  502    0  0.15707105840E+02 -0.37327739727E+02  0.43892336069E+02  0.59721105922E+02  0.00000000000E+00 0. -1.
         -1    1    3    3    0  502 -0.11889107704E+02 -0.39531339767E+02 -0.31606428458E+02  0.51990807126E+02  0.00000000000E+00 0.  1.
         13    1    5    5    0    0 -0.15354622329E+02 -0.13479295946E+02  0.21091752872E+02  0.29365249620E+02  0.00000000000E+00 0. -1.
        -13    1    5    5    0    0 -0.40209481099E+03  0.17781497984E+02  0.99055671760E+03  0.10692048585E+04  0.00000000000E+00 0.  1.
          2    1    6    6  503    0  0.42572483163E+02  0.18481603798E+02  0.10311559866E+03  0.11307878974E+03  0.00000000000E+00 0. -1.
         -2    1    6    6    0  503  0.37105895202E+03  0.54075273656E+02  0.39014278358E+03  0.54112870251E+03  0.00000000000E+00 0.  1.
<mgrwt>
<rscale>  0 0.10837192E+04</rscale>
<asrwt>0</asrwt>
<pdfrwt beam="1">  1        2 0.26012939E+00 0.10837192E+04</pdfrwt>
<pdfrwt beam="2">  1       -1 0.26715136E-01 0.10837192E+04</pdfrwt>
<totfact> 0.14034689E+02</totfact>
</mgrwt>
</event>
<event>
12    7  0.1735955E-007  0.1199026E+04  0.7818608E-02  0.9113710E-01
         -1   -1    0    0    0  501 -0.00000000000E+00  0.00000000000E+00  0.28290669015E+03  0.28290669015E+03  0.00000000000E+00 0.  1.
          2   -1    0    0  501    0  0.00000000000E+00 -0.00000000000E+00 -0.12704390401E+04  0.12704390401E+04  0.00000000000E+00 0. -1.
         24    2    1    2    0    0 -0.66526986533E+02  0.65513766045E+02 -0.59025813869E+03  0.60288221678E+03  0.79651764199E+02 0.  0.
        254    2    1    2    0    0  0.66526986533E+02 -0.65513766045E+02 -0.39727421124E+03  0.95046351346E+03  0.85839163441E+03 0.  0.
         23    2    4    4    0    0  0.17559112817E+03  0.81573862390E+02 -0.61509661022E+03  0.65193632298E+03  0.95867564893E+02 0.  0.
         23    2    4    4    0    0 -0.10906414163E+03 -0.14708762844E+03  0.21782239898E+03  0.29852719048E+03  0.90233743843E+02 0.  0.
          2    1    3    3  502    0 -0.41524339712E+02  0.47326825002E+02 -0.54149917100E+03  0.54514718320E+03  0.00000000000E+00 0. -1.
         -1    1    3    3    0  502 -0.25002646821E+02  0.18186941044E+02 -0.48758967689E+02  0.57735033582E+02  0.00000000000E+00 0.  1.
         13    1    5    5    0    0  0.10199216999E+03 -0.31250731175E+01 -0.25124501833E+03  0.27117564061E+03  0.00000000000E+00 0.  1.
        -13    1    5    5    0    0  0.73598958172E+02  0.84698935508E+02 -0.36385159189E+03  0.38076068237E+03  0.00000000000E+00 0. -1.
          3    1    6    6  503    0 -0.76396470434E+02 -0.13955471865E+03  0.21109306690E+03  0.26433354514E+03  0.00000000000E+00 0. -1.
         -3    1    6    6    0  503 -0.32667671200E+02 -0.75329097843E+01  0.67293320845E+01  0.34193645342E+02  0.00000000000E+00 0.  1.
<mgrwt>
<rscale>  0 0.11990258E+04</rscale>
<asrwt>0</asrwt>
<pdfrwt beam="1">  1        2 0.19545216E+00 0.11990258E+04</pdfrwt>
<pdfrwt beam="2">  1       -1 0.43524106E-01 0.11990258E+04</pdfrwt>
<totfact> 0.10079878E+02</totfact>
</mgrwt>
</event>
<event>
12    7  0.1735955E-007  0.1446307E+04  0.7818608E-02  0.8920965E-01
         -1   -1    0    0    0  501 -0.00000000000E+00  0.00000000000E+00  0.27615072909E+03  0.27615072909E+03  0.00000000000E+00 0.  1.
          2   -1    0    0  501    0  0.00000000000E+00 -0.00000000000E+00 -0.18937164301E+04  0.18937164301E+04  0.00000000000E+00 0. -1.
         24    2    1    2    0    0 -0.10127556626E+02 -0.26543881023E+02 -0.11568269862E+04  0.11598820021E+04  0.79186096106E+02 0.  0.
        254    2    1    2    0    0  0.10127556626E+02  0.26543881023E+02 -0.46073871478E+03  0.10099851570E+04  0.89832216332E+03 0.  0.
         23    2    4    4    0    0 -0.16864824519E+03  0.23683164100E+01  0.22539574740E+03  0.29542170564E+03  0.89570651951E+02 0.  0.
         23    2    4    4    0    0  0.17877580181E+03  0.24175564613E+02 -0.68613446218E+03  0.71456345140E+03  0.85294669498E+02 0.  0.
          2    1    3    3  502    0  0.28815438037E+02 -0.29520581207E+02 -0.76551779765E+03  0.76662852328E+03  0.00000000000E+00 0. -1.
         -1    1    3    3    0  502 -0.38942994663E+02  0.29767001842E+01 -0.39130918855E+03  0.39325347884E+03  0.00000000000E+00 0.  1.
         13    1    5    5    0    0 -0.30449099567E+02 -0.10625851970E+02  0.18717397333E+01  0.32304176265E+02  0.00000000000E+00 0.  1.
        -13    1    5    5    0    0 -0.13819914562E+03  0.12994168380E+02  0.22352400766E+03  0.26311752937E+03  0.00000000000E+00 0. -1.
          3    1    6    6  503    0  0.34909396551E+02  0.88433511073E+01 -0.46739986315E+02  0.59004212960E+02  0.00000000000E+00 0.  1.
         -3    1    6    6    0  503  0.14386640526E+03  0.15332213506E+02 -0.63939447587E+03  0.65555923844E+03  0.00000000000E+00 0. -1.
<mgrwt>
<rscale>  0 0.14463073E+04</rscale>
<asrwt>0</asrwt>
<pdfrwt beam="1">  1        2 0.29134100E+00 0.14463073E+04</pdfrwt>
<pdfrwt beam="2">  1       -1 0.42484726E-01 0.14463073E+04</pdfrwt>
<totfact> 0.46116105E+01</totfact>
</mgrwt>
</event>
<event>
12    7  0.1735955E-007  0.1127007E+04  0.7818608E-02  0.9179261E-01
         -1   -1    0    0    0  501 -0.00000000000E+00  0.00000000000E+00  0.49086946596E+03  0.49086946596E+03  0.00000000000E+00 0.  1.
          2   -1    0    0  501    0  0.00000000000E+00 -0.00000000000E+00 -0.64688577690E+03  0.64688577690E+03  0.00000000000E+00 0. -1.
         24    2    1    2    0    0  0.62662474031E+02  0.87732507201E+02 -0.18280866020E+03  0.22617833421E+03  0.78192417474E+02 0.  0.
        254    2    1    2    0    0 -0.62662474031E+02 -0.87732507201E+02  0.26792349267E+02  0.91157690865E+03  0.90478232296E+03 0.  0.
         23    2    4    4    0    0 -0.83595370622E+02 -0.47582862783E+03 -0.80842170825E+02  0.49813560554E+03  0.90567962732E+02 0.  0.
         23    2    4    4    0    0  0.20932896592E+02  0.38809612063E+03  0.10763452009E+03  0.41344130311E+03  0.91058970999E+02 0.  0.
          2    1    3    3  502    0  0.66592476117E+02  0.58582657804E+02 -0.80681721106E+02  0.11990006585E+03  0.00000000000E+00 0. -1.
         -3    1    3    3    0  502 -0.39300020859E+01  0.29149849397E+02 -0.10212693910E+03  0.10627826836E+03  0.00000000000E+00 0.  1.
         13    1    5    5    0    0 -0.45108812306E+02 -0.37488003809E+03 -0.30116180773E+02  0.37878335794E+03  0.00000000000E+00 0. -1.
        -13    1    5    5    0    0 -0.38486558316E+02 -0.10094858974E+03 -0.50725990052E+02  0.11935224760E+03  0.00000000000E+00 0.  1.
          3    1    6    6  503    0  0.10579620435E+01  0.30033596713E+03  0.11836643616E+03  0.32282104275E+03  0.00000000000E+00 0. -1.
         -3    1    6    6    0  503  0.19874934548E+02  0.87760153496E+02 -0.10731916069E+02  0.90620260359E+02  0.00000000000E+00 0.  1.
<mgrwt>
<rscale>  0 0.11270075E+04</rscale>
<asrwt>0</asrwt>
<pdfrwt beam="1">  1        2 0.99520889E-01 0.11270075E+04</pdfrwt>
<pdfrwt beam="2">  1       -1 0.75518379E-01 0.11270075E+04</pdfrwt>
<totfact> 0.90313130E+01</totfact>
</mgrwt>
</event>
<event>
12    7  0.1735955E-007  0.2325050E+04  0.7818608E-02  0.8468109E-01
         -1   -1    0    0    0  501 -0.00000000000E+00  0.00000000000E+00  0.18331981413E+04  0.18331981413E+04  0.00000000000E+00 0.  1.
          2   -1    0    0  501    0  0.00000000000E+00 -0.00000000000E+00 -0.73721653740E+03  0.73721653740E+03  0.00000000000E+00 0. -1.
         24    2    1    2    0    0  0.31974095942E+02 -0.99218914920E+03  0.58626612779E+03  0.11556731299E+04  0.80067222247E+02 0.  0.
        254    2    1    2    0    0 -0.31974095942E+02  0.99218914920E+03  0.50971547613E+03  0.14147415488E+04  0.86961033378E+03 0.  0.
         23    2    4    4    0    0  0.11739976635E+03  0.29891115642E+02 -0.16536697069E+03  0.22630583267E+03  0.95874454230E+02 0.  0.
         23    2    4    4    0    0 -0.14937386229E+03  0.96229803356E+03  0.67508244682E+03  0.11884357161E+04  0.91176121800E+02 0.  0.
          2    1    3    3  502    0  0.28787129591E+02 -0.42540156712E+03  0.20938095053E+03  0.47501113100E+03  0.00000000000E+00 0. -1.
         -1    1    3    3    0  502  0.31869663519E+01 -0.56678758209E+03  0.37688517726E+03  0.68066199894E+03  0.00000000000E+00 0.  1.
         13    1    5    5    0    0  0.58299389712E+02  0.57848166329E+02 -0.57803333010E+02  0.10043134220E+03  0.00000000000E+00 0.  1.
        -13    1    5    5    0    0  0.59100376633E+02 -0.27957050687E+02 -0.10756363768E+03  0.12587449047E+03  0.00000000000E+00 0. -1.
          1    1    6    6  503    0 -0.47667423881E+02  0.28484959936E+03  0.15091788735E+03  0.32586452136E+03  0.00000000000E+00 0. -1.
         -1    1    6    6    0  503 -0.10170643841E+03  0.67744843420E+03  0.52416455947E+03  0.86257119475E+03  0.00000000000E+00 0.  1.
<mgrwt>
<rscale>  0 0.23250497E+04</rscale>
<asrwt>0</asrwt>
<pdfrwt beam="1">  1        2 0.11341793E+00 0.23250497E+04</pdfrwt>
<pdfrwt beam="2">  1       -1 0.28203048E+00 0.23250497E+04</pdfrwt>
<totfact> 0.17093651E+00</totfact>
</mgrwt>
</event>
<event>
12    7  0.1735955E-007  0.1160965E+04  0.7818608E-02  0.9147727E-01
          4   -1    0    0  501    0  0.00000000000E+00  0.00000000000E+00  0.27642668433E+03  0.27642668433E+03  0.00000000000E+00 0. -1.
         -3   -1    0    0    0  501 -0.00000000000E+00 -0.00000000000E+00 -0.12189837950E+04  0.12189837950E+04  0.00000000000E+00 0.  1.
         24    2    1    2    0    0 -0.10231981556E+03  0.97763478120E+02  0.25449821429E+02  0.16487875226E+03  0.80686226993E+02 0.  0.
        254    2    1    2    0    0  0.10231981556E+03 -0.97763478120E+02 -0.96800693208E+03  0.13305317271E+04  0.90180386662E+03 0.  0.
         23    2    4    4    0    0 -0.97837933752E+02 -0.36074933623E+03 -0.10087617675E+03  0.39813699476E+03  0.92869363559E+02 0.  0.
         23    2    4    4    0    0  0.20015774931E+03  0.26298585811E+03 -0.86713075532E+03  0.93239473229E+03  0.90661479186E+02 0.  0.
          4    1    3    3  502    0 -0.10799346251E+03  0.10272849091E+03  0.12090703543E+02  0.14953901131E+03  0.00000000000E+00 0. -1.
         -3    1    3    3    0  502  0.56736469539E+01 -0.49650127946E+01  0.13359117886E+02  0.15339740953E+02  0.00000000000E+00 0.  1.
         13    1    5    5    0    0 -0.74944787137E+02 -0.33312358951E+03 -0.65353486539E+02  0.34764799038E+03  0.00000000000E+00 0. -1.
        -13    1    5    5    0    0 -0.22893146615E+02 -0.27625746720E+02 -0.35522690216E+02  0.50489004387E+02  0.00000000000E+00 0.  1.
          3    1    6    6  503    0  0.15654113162E+03  0.24674729610E+03 -0.69161962565E+03  0.75081759476E+03  0.00000000000E+00 0. -1.
         -3    1    6    6    0  503  0.43616617687E+02  0.16238562010E+02 -0.17551112967E+03  0.18157713753E+03  0.00000000000E+00 0.  1.
<mgrwt>
<rscale>  0 0.11609645E+04</rscale>
<asrwt>0</asrwt>
<pdfrwt beam="1">  1        4 0.42527182E-01 0.11609645E+04</pdfrwt>
<pdfrwt beam="2">  1       -3 0.18753597E+00 0.11609645E+04</pdfrwt>
<totfact> 0.21496620E+00</totfact>
</mgrwt>
</event>
<event>
12    7  0.1735955E-007  0.3515367E+04  0.7818608E-02  0.8110158E-01
         -1   -1    0    0    0  501 -0.00000000000E+00  0.00000000000E+00  0.96423342400E+03  0.96423342400E+03  0.00000000000E+00 0.  1.
          2   -1    0    0  501    0  0.00000000000E+00 -0.00000000000E+00 -0.32040500588E+04  0.32040500588E+04  0.00000000000E+00 0. -1.
         24    2    1    2    0    0  0.92166553099E+03  0.20818602040E+03  0.54548079158E+03  0.10939018559E+04  0.79140421260E+02 0.  0.
        254    2    1    2    0    0 -0.92166553099E+03 -0.20818602040E+03 -0.27852974264E+04  0.30743816269E+04  0.89505969872E+03 0.  0.
         23    2    4    4    0    0 -0.73307138359E+03  0.21662741945E+03 -0.21373869346E+04  0.22718218947E+04  0.91818955394E+02 0.  0.
         23    2    4    4    0    0 -0.18859414740E+03 -0.42481343985E+03 -0.64791049181E+03  0.80255973226E+03  0.90993996149E+02 0.  0.
          2    1    3    3  502    0  0.25022658330E+03  0.21374107761E+02  0.13704867892E+03  0.28609882186E+03  0.00000000000E+00 0. -1.
         -1    1    3    3    0  502  0.67143894769E+03  0.18681191264E+03  0.40843211266E+03  0.80780303406E+03  0.00000000000E+00 0.  1.
         13    1    5    5    0    0 -0.15405578329E+03  0.53787040419E+02 -0.35556571940E+03  0.39122015656E+03  0.00000000000E+00 0.  1.
        -13    1    5    5    0    0 -0.57901560030E+03  0.16284037903E+03 -0.17818212152E+04  0.18806017381E+04  0.00000000000E+00 0. -1.
          1    1    6    6  503    0 -0.15487054460E+03 -0.40016784317E+03 -0.56245651955E+03  0.70744365477E+03  0.00000000000E+00 0. -1.
         -1    1    6    6    0  503 -0.33723602800E+02 -0.24645596680E+02 -0.85453972263E+02  0.95116077490E+02  0.00000000000E+00 0.  1.
<mgrwt>
<rscale>  0 0.35153675E+04</rscale>
<asrwt>0</asrwt>
<pdfrwt beam="1">  1        2 0.49293078E+00 0.35153675E+04</pdfrwt>
<pdfrwt beam="2">  1       -1 0.14834360E+00 0.35153675E+04</pdfrwt>
<totfact> 0.43128880E-01</totfact>
</mgrwt>
</event>
<event>
12    7  0.1735955E-007  0.1770201E+04  0.7818608E-02  0.8722308E-01
          2   -1    0    0  501    0  0.00000000000E+00  0.00000000000E+00  0.35483756404E+04  0.35483756404E+04  0.00000000000E+00 0. -1.
         -1   -1    0    0    0  501 -0.00000000000E+00 -0.00000000000E+00 -0.22077800198E+03  0.22077800198E+03  0.00000000000E+00 0.  1.
         24    2    1    2    0    0 -0.60982055075E+03 -0.65471196624E+01  0.17906958538E+04  0.18933732820E+04  0.79666648845E+02 0.  0.
        254    2    1    2    0    0  0.60982055075E+03  0.65471196624E+01  0.15369017846E+04  0.18757803605E+04  0.88575442211E+03 0.  0.
         23    2    4    4    0    0  0.42841169578E+03  0.10190010186E+03  0.15413807026E+03  0.47516659711E+03  0.90025210201E+02 0.  0.
         23    2    4    4    0    0  0.18140885498E+03 -0.95352982194E+02  0.13827637143E+04  0.14006137634E+04  0.87647364474E+02 0.  0.
          2    1    3    3  502    0 -0.46698354267E+03  0.25945392428E+02  0.13199569139E+04  0.14003688968E+04  0.00000000000E+00 0. -1.
         -1    1    3    3    0  502 -0.14283700808E+03 -0.32492512090E+02  0.47073893997E+03  0.49300438520E+03  0.00000000000E+00 0.  1.
         13    1    5    5    0    0  0.25182705702E+03  0.54432096069E+02  0.13622080172E+03  0.29143751741E+03  0.00000000000E+00 0.  1.
        -13    1    5    5    0    0  0.17658463875E+03  0.47468005787E+02  0.17917268536E+02  0.18372907970E+03  0.00000000000E+00 0. -1.
          4    1    6    6  503    0  0.12936232214E+03 -0.63802686679E+02  0.11836384860E+04  0.11923948418E+04  0.00000000000E+00 0.  1.
         -4    1    6    6    0  503  0.52046532834E+02 -0.31550295515E+02  0.19912522836E+03  0.20821892157E+03  0.00000000000E+00 0. -1.
<mgrwt>
<rscale>  0 0.17702014E+04</rscale>
<asrwt>0</asrwt>
<pdfrwt beam="1">  1        2 0.54590390E+00 0.17702014E+04</pdfrwt>
<pdfrwt beam="2">  1       -1 0.33965849E-01 0.17702014E+04</pdfrwt>
<totfact> 0.66918235E+00</totfact>
</mgrwt>
</event>
<event>
12    7  0.1735955E-007  0.1663473E+04  0.7818608E-02  0.8782476E-01
         -1   -1    0    0    0  501 -0.00000000000E+00  0.00000000000E+00  0.21524940410E+03  0.21524940410E+03  0.00000000000E+00 0.  1.
          2   -1    0    0  501    0  0.00000000000E+00 -0.00000000000E+00 -0.32138794530E+04  0.32138794530E+04  0.00000000000E+00 0. -1.
         24    2    1    2    0    0  0.32802606553E+03  0.10993278158E+03 -0.94022518557E+02  0.36714147892E+03  0.79160061973E+02 0.  0.
        254    2    1    2    0    0 -0.32802606553E+03 -0.10993278158E+03 -0.29046075303E+04  0.30619873782E+04  0.90517152117E+03 0.  0.
         23    2    4    4    0    0 -0.45724049525E+03  0.26713848160E+03 -0.13086459369E+04  0.14146500511E+04  0.90822574600E+02 0.  0.
         23    2    4    4    0    0  0.12921442972E+03 -0.37707126318E+03 -0.15959615934E+04  0.16473373271E+04  0.88021333350E+02 0.  0.
          4    1    3    3  502    0  0.20696686430E+03  0.51569573433E+02 -0.93142956006E+02  0.23274516982E+03  0.00000000000E+00 0. -1.
         -3    1    3    3    0  502  0.12105920123E+03  0.58363208145E+02 -0.87956255121E+00  0.13439630910E+03  0.00000000000E+00 0.  1.
         13    1    5    5    0    0 -0.41064964120E+02  0.24539671014E+02 -0.20404096949E+03  0.20957395822E+03  0.00000000000E+00 0. -1.
        -13    1    5    5    0    0 -0.41617553113E+03  0.24259881059E+03 -0.11046049674E+04  0.12050760929E+04  0.00000000000E+00 0.  1.
          3    1    6    6  503    0  0.60747196206E+02 -0.66116231415E+02 -0.34635898356E+03  0.35780738309E+03  0.00000000000E+00 0. -1.
         -3    1    6    6    0  503  0.68467233512E+02 -0.31095503177E+03 -0.12496026099E+04  0.12895299440E+04  0.00000000000E+00 0.  1.
<mgrwt>
<rscale>  0 0.16634730E+04</rscale>
<asrwt>0</asrwt>
<pdfrwt beam="1">  1        2 0.49444301E+00 0.16634730E+04</pdfrwt>
<pdfrwt beam="2">  1       -1 0.33115292E-01 0.16634730E+04</pdfrwt>
<totfact> 0.11907629E+01</totfact>
</mgrwt>
</event>
<event>
12    7  0.1735955E-007  0.2386075E+04  0.7818608E-02  0.8444735E-01
         -1   -1    0    0    0  501 -0.00000000000E+00  0.00000000000E+00  0.72877395633E+03  0.72877395633E+03  0.00000000000E+00 0.  1.
          2   -1    0    0  501    0  0.00000000000E+00 -0.00000000000E+00 -0.19530582290E+04  0.19530582290E+04  0.00000000000E+00 0. -1.
         24    2    1    2    0    0  0.53052756039E+03  0.15883195265E+03 -0.14866871390E+04  0.15884541505E+04  0.79125579715E+02 0.  0.
        254    2    1    2    0    0 -0.53052756039E+03 -0.15883195265E+03  0.26240286631E+03  0.10933780349E+04  0.90550161864E+03 0.  0.
         23    2    4    4    0    0  0.22682479042E+03  0.90017461527E+02  0.71736526937E+02  0.26815766559E+03  0.84910396233E+02 0.  0.
         23    2    4    4    0    0 -0.75735235081E+03 -0.24884941418E+03  0.19066633938E+03  0.82522036928E+03  0.95532144786E+02 0.  0.
          4    1    3    3  502    0  0.37397609415E+03  0.14849974315E+03 -0.10856893611E+04  0.11578565030E+04  0.00000000000E+00 0. -1.
         -3    1    3    3    0  502  0.15655146624E+03  0.10332209498E+02 -0.40099777787E+03  0.43059764745E+03  0.00000000000E+00 0.  1.
         13    1    5    5    0    0  0.65350005380E+01 -0.11723447963E+02  0.12592263278E+02  0.18404090812E+02  0.00000000000E+00 0. -1.
        -13    1    5    5    0    0  0.22028978988E+03  0.10174090949E+03  0.59144263660E+02  0.24975357478E+03  0.00000000000E+00 0.  1.
          4    1    6    6  503    0 -0.48700564788E+03 -0.20606589741E+03  0.11368809157E+03  0.54089059643E+03  0.00000000000E+00 0. -1.
         -4    1    6    6    0  503 -0.27034670292E+03 -0.42783516765E+02  0.76978247808E+02  0.28432977284E+03  0.00000000000E+00 0.  1.
<mgrwt>
<rscale>  0 0.23860746E+04</rscale>
<asrwt>0</asrwt>
<pdfrwt beam="1">  1        2 0.30047049E+00 0.23860746E+04</pdfrwt>
<pdfrwt beam="2">  1       -1 0.11211907E+00 0.23860746E+04</pdfrwt>
<totfact> 0.53018289E+00</totfact>
</mgrwt>
</event>
<event>
12    7  0.1735955E-007  0.1760612E+04  0.7818608E-02  0.8727531E-01
         -1   -1    0    0    0  501 -0.00000000000E+00  0.00000000000E+00  0.97564514173E+03  0.97564514173E+03  0.00000000000E+00 0.  1.
          2   -1    0    0  501    0  0.00000000000E+00 -0.00000000000E+00 -0.79428308219E+03  0.79428308219E+03  0.00000000000E+00 0. -1.
         24    2    1    2    0    0 -0.50674536119E+03 -0.29622965266E+03  0.34050039171E+03  0.68288793384E+03  0.76501929531E+02 0.  0.
        254    2    1    2    0    0  0.50674536119E+03  0.29622965266E+03 -0.15913833217E+03  0.10870402901E+04  0.90099318272E+03 0.  0.
         23    2    4    4    0    0  0.53354133780E+03  0.31367969571E+03 -0.45702632310E+03  0.77461227073E+03  0.89943311704E+02 0.  0.
         23    2    4    4    0    0 -0.26795976612E+02 -0.17450043051E+02  0.29788799093E+03  0.31242801935E+03  0.88608598764E+02 0.  0.
          2    1    3    3  502    0 -0.48686950220E+03 -0.27367296563E+03  0.33775198587E+03  0.65269840528E+03  0.00000000000E+00 0. -1.
         -1    1    3    3    0  502 -0.19875858987E+02 -0.22556687026E+02  0.27484058473E+01  0.30189528561E+02  0.00000000000E+00 0.  1.
         13    1    5    5    0    0  0.18253065482E+03  0.14292673201E+03 -0.13275152855E+03  0.26714875819E+03  0.00000000000E+00 0.  1.
        -13    1    5    5    0    0  0.35101068298E+03  0.17075296370E+03 -0.32427479455E+03  0.50746351254E+03  0.00000000000E+00 0. -1.
          1    1    6    6  503    0 -0.34041403359E+02  0.70008757740E+01  0.38804243983E+02  0.52092213961E+02  0.00000000000E+00 0. -1.
         -1    1    6    6    0  503  0.72454267472E+01 -0.24450918825E+02  0.25908374694E+03  0.26033580539E+03  0.00000000000E+00 0.  1.
<mgrwt>
<rscale>  0 0.17606117E+04</rscale>
<asrwt>0</asrwt>
<pdfrwt beam="1">  1        2 0.12219740E+00 0.17606117E+04</pdfrwt>
<pdfrwt beam="2">  1       -1 0.15009925E+00 0.17606117E+04</pdfrwt>
<totfact> 0.13094847E+01</totfact>
</mgrwt>
</event>
<event>
12    7  0.1735955E-007  0.1526621E+04  0.7818608E-02  0.8866941E-01
          2   -1    0    0  501    0  0.00000000000E+00  0.00000000000E+00  0.53275052401E+03  0.53275052401E+03  0.00000000000E+00 0. -1.
         -1   -1    0    0    0  501 -0.00000000000E+00 -0.00000000000E+00 -0.10936511015E+04  0.10936511015E+04  0.00000000000E+00 0.  1.
         24    2    1    2    0    0 -0.49505573490E+03 -0.19704160909E+02 -0.21080380162E+03  0.54406047844E+03  0.78071293073E+02 0.  0.
        254    2    1    2    0    0  0.49505573490E+03  0.19704160909E+02 -0.35009677587E+03  0.10823411471E+04  0.89634043284E+03 0.  0.
         23    2    4    4    0    0  0.17705669085E+03  0.12894677247E+03 -0.60488446312E+03  0.64925667879E+03  0.87593831561E+02 0.  0.
         23    2    4    4    0    0  0.31799904405E+03 -0.10924261156E+03  0.25478768725E+03  0.43308446828E+03  0.97918593180E+02 0.  0.
          4    1    3    3  502    0 -0.38502174215E+03  0.49748621871E+01 -0.19004113963E+03  0.42939739861E+03  0.00000000000E+00 0. -1.
         -3    1    3    3    0  502 -0.11003399276E+03 -0.24679023096E+02 -0.20762661988E+02  0.11466307983E+03  0.00000000000E+00 0.  1.
         13    1    5    5    0    0  0.13692552350E+03  0.48149498225E+02 -0.35133639661E+03  0.38013712887E+03  0.00000000000E+00 0. -1.
        -13    1    5    5    0    0  0.40131167354E+02  0.80797274244E+02 -0.25354806651E+03  0.26911954992E+03  0.00000000000E+00 0.  1.
          4    1    6    6  503    0  0.21904107528E+03 -0.49326640056E+02  0.21468528967E+03  0.31064752321E+03  0.00000000000E+00 0. -1.
         -4    1    6    6    0  503  0.98957968777E+02 -0.59915971504E+02  0.40102397585E+02  0.12243694507E+03  0.00000000000E+00 0.  1.
<mgrwt>
<rscale>  0 0.15266214E+04</rscale>
<asrwt>0</asrwt>
<pdfrwt beam="1">  1        2 0.81961619E-01 0.15266214E+04</pdfrwt>
<pdfrwt beam="2">  1       -1 0.16825402E+00 0.15266214E+04</pdfrwt>
<totfact> 0.15969614E+01</totfact>
</mgrwt>
</event>
<event>
12    7  0.1735955E-007  0.1157956E+04  0.7818608E-02  0.9150475E-01
         -1   -1    0    0    0  501 -0.00000000000E+00  0.00000000000E+00  0.42748485964E+03  0.42748485964E+03  0.00000000000E+00 0.  1.
          2   -1    0    0  501    0  0.00000000000E+00 -0.00000000000E+00 -0.78415756214E+03  0.78415756214E+03  0.00000000000E+00 0. -1.
         24    2    1    2    0    0 -0.34960068746E+02  0.73918776236E+02  0.14126641138E+03  0.18273433789E+03  0.82155020370E+02 0.  0.
        254    2    1    2    0    0  0.34960068746E+02 -0.73918776236E+02 -0.49793911388E+03  0.10289080839E+04  0.89667290140E+03 0.  0.
         23    2    4    4    0    0  0.42905110697E+03 -0.12695245540E+03 -0.12010246511E+03  0.47199004945E+03  0.90267526457E+02 0.  0.
         23    2    4    4    0    0 -0.39409103822E+03  0.53033679166E+02 -0.37783664877E+03  0.55691803445E+03  0.96316387052E+02 0.  0.
          2    1    3    3  502    0  0.86367103928E+01 -0.11700572441E+02  0.38211415873E+01  0.15036531678E+02  0.00000000000E+00 0. -1.
         -1    1    3    3    0  502 -0.43596779139E+02  0.85619348678E+02  0.13744526979E+03  0.16769780621E+03  0.00000000000E+00 0.  1.
         13    1    5    5    0    0  0.14478809896E+03 -0.66036786610E+02 -0.81281532219E+02  0.17869286015E+03  0.00000000000E+00 0. -1.
        -13    1    5    5    0    0  0.28426300800E+03 -0.60915668793E+02 -0.38820932891E+02  0.29329718930E+03  0.00000000000E+00 0.  1.
          1    1    6    6  503    0 -0.27920867282E+03  0.76725673727E+02 -0.24136722966E+03  0.37696478820E+03  0.00000000000E+00 0. -1.
         -1    1    6    6    0  503 -0.11488236540E+03 -0.23691994560E+02 -0.13646941911E+03  0.17995324625E+03  0.00000000000E+00 0.  1.
<mgrwt>
<rscale>  0 0.11579559E+04</rscale>
<asrwt>0</asrwt>
<pdfrwt beam="1">  1        2 0.12063962E+00 0.11579559E+04</pdfrwt>
<pdfrwt beam="2">  1       -1 0.65766902E-01 0.11579559E+04</pdfrwt>
<totfact> 0.93655127E+01</totfact>
</mgrwt>
</event>
<event>
12    7  0.1735955E-007  0.1634695E+04  0.7818608E-02  0.8799512E-01
          2   -1    0    0  501    0  0.00000000000E+00  0.00000000000E+00  0.46162882626E+04  0.46162882626E+04  0.00000000000E+00 0. -1.
         -1   -1    0    0    0  501 -0.00000000000E+00 -0.00000000000E+00 -0.14471738159E+03  0.14471738159E+03  0.00000000000E+00 0.  1.
         24    2    1    2    0    0 -0.27702710594E+03 -0.38617305613E+02  0.29502318716E+04  0.29645294507E+04  0.79570433537E+02 0.  0.
        254    2    1    2    0    0  0.27702710594E+03  0.38617305613E+02  0.15213390094E+04  0.17964761935E+04  0.91357485660E+03 0.  0.
         23    2    4    4    0    0 -0.27818685900E+03 -0.16260140849E+03  0.35142994146E+03  0.48350999544E+03  0.80322882018E+02 0.  0.
         23    2    4    4    0    0  0.55521396494E+03  0.20121871410E+03  0.11699090679E+04  0.13129661981E+04  0.80258907579E+02 0.  0.
          4    1    3    3  502    0 -0.91937911241E+02 -0.24878755850E+02  0.66690442995E+03  0.67367132246E+03  0.00000000000E+00 0. -1.
         -3    1    3    3    0  502 -0.18508919470E+03 -0.13738549763E+02  0.22833274417E+04  0.22908581282E+04  0.00000000000E+00 0.  1.
         13    1    5    5    0    0 -0.84686274680E+02 -0.61162223882E+02  0.16995797800E+03  0.19949510529E+03  0.00000000000E+00 0.  1.
        -13    1    5    5    0    0 -0.19350058432E+03 -0.10143918461E+03  0.18147196346E+03  0.28401489015E+03  0.00000000000E+00 0. -1.
          1    1    6    6  503    0  0.38472025058E+03  0.12608773510E+03  0.87517463402E+03  0.96428130138E+03  0.00000000000E+00 0. -1.
         -1    1    6    6    0  503  0.17049371436E+03  0.75130978998E+02  0.29473443391E+03  0.34868489668E+03  0.00000000000E+00 0.  1.
<mgrwt>
<rscale>  0 0.16346953E+04</rscale>
<asrwt>0</asrwt>
<pdfrwt beam="1">  1        2 0.71019808E+00 0.16346953E+04</pdfrwt>
<pdfrwt beam="2">  1       -1 0.22264216E-01 0.16346953E+04</pdfrwt>
<totfact> 0.18046046E+00</totfact>
</mgrwt>
</event>
<event>
12    7  0.1735955E-007  0.2478845E+04  0.7818608E-02  0.8410561E-01
         -1   -1    0    0    0  501 -0.00000000000E+00  0.00000000000E+00  0.19923721843E+04  0.19923721843E+04  0.00000000000E+00 0.  1.
          2   -1    0    0  501    0  0.00000000000E+00 -0.00000000000E+00 -0.77102458036E+03  0.77102458036E+03  0.00000000000E+00 0. -1.
         24    2    1    2    0    0  0.55961205672E+02  0.10607102949E+04  0.65501327600E+03  0.12504811848E+04  0.80142471407E+02 0.  0.
        254    2    1    2    0    0 -0.55961205672E+02 -0.10607102949E+04  0.56633432795E+03  0.15129155798E+04  0.91648294827E+03 0.  0.
         23    2    4    4    0    0 -0.76022415479E+02  0.12798109694E+03 -0.34046935522E+02  0.17753637339E+03  0.90561588048E+02 0.  0.
         23    2    4    4    0    0  0.20061209807E+02 -0.11886913918E+04  0.60038126347E+03  0.13353792064E+04  0.96903489810E+02 0.  0.
          4    1    3    3  502    0  0.17881129343E+02  0.56204161808E+03  0.30169527470E+03  0.63814618546E+03  0.00000000000E+00 0. -1.
         -3    1    3    3    0  502  0.38080076328E+02  0.49866867679E+03  0.35331800131E+03  0.61233499938E+03  0.00000000000E+00 0.  1.
         13    1    5    5    0    0 -0.55408110411E+02  0.24730602849E+02  0.13259934015E+02  0.62108673039E+02  0.00000000000E+00 0.  1.
        -13    1    5    5    0    0 -0.20614305068E+02  0.10325049409E+03 -0.47306869538E+02  0.11542770035E+03  0.00000000000E+00 0. -1.
          3    1    6    6  503    0  0.29407667935E+02 -0.10979355059E+04  0.57930191588E+03  0.12417398664E+04  0.00000000000E+00 0. -1.
         -3    1    6    6    0  503 -0.93464581279E+01 -0.90755885961E+02  0.21079347592E+02  0.93639340082E+02  0.00000000000E+00 0.  1.
<mgrwt>
<rscale>  0 0.24788448E+04</rscale>
<asrwt>0</asrwt>
<pdfrwt beam="1">  1        2 0.11861917E+00 0.24788448E+04</pdfrwt>
<pdfrwt beam="2">  1       -1 0.30651880E+00 0.24788448E+04</pdfrwt>
<totfact> 0.11044286E+00</totfact>
</mgrwt>
</event>
<event>
12    7  0.1735955E-007  0.1093906E+04  0.7818608E-02  0.9211152E-01
          2   -1    0    0  501    0  0.00000000000E+00  0.00000000000E+00  0.38912413966E+04  0.38912413966E+04  0.00000000000E+00 0. -1.
         -1   -1    0    0    0  501 -0.00000000000E+00 -0.00000000000E+00 -0.76879694140E+02  0.76879694140E+02  0.00000000000E+00 0.  1.
         24    2    1    2    0    0  0.20412068481E+02 -0.16160046054E+03  0.73487641177E+03  0.75698723732E+03  0.80342862230E+02 0.  0.
        254    2    1    2    0    0 -0.20412068481E+02  0.16160046054E+03  0.30794852907E+04  0.32111338534E+04  0.89533212139E+03 0.  0.
         23    2    4    4    0    0  0.10530234410E+03  0.49143963792E+03  0.22138917692E+04  0.22722463828E+04  0.95840269156E+02 0.  0.
         23    2    4    4    0    0 -0.12571441258E+03 -0.32983917739E+03  0.86559352149E+03  0.93888747058E+03  0.87518806527E+02 0.  0.
          4    1    3    3  502    0  0.16260149168E+02 -0.14256083778E+03  0.71460679088E+03  0.72886957029E+03  0.00000000000E+00 0. -1.
         -3    1    3    3    0  502  0.41519193130E+01 -0.19039622754E+02  0.20269620892E+02  0.28117667038E+02  0.00000000000E+00 0.  1.
         13    1    5    5    0    0  0.27031091654E+02  0.31382907095E+03  0.14776511381E+04  0.15108514989E+04  0.00000000000E+00 0. -1.
        -13    1    5    5    0    0  0.78271252442E+02  0.17761056697E+03  0.73624063109E+03  0.76139488396E+03  0.00000000000E+00 0.  1.
          1    1    6    6  503    0 -0.33292337464E+02 -0.18241565748E+03  0.37476040932E+03  0.41812583778E+03  0.00000000000E+00 0. -1.
         -1    1    6    6    0  503 -0.92422075114E+02 -0.14742351991E+03  0.49083311217E+03  0.52076163280E+03  0.00000000000E+00 0.  1.
<mgrwt>
<rscale>  0 0.10939058E+04</rscale>
<asrwt>0</asrwt>
<pdfrwt beam="1">  1        2 0.59865237E+00 0.10939058E+04</pdfrwt>
<pdfrwt beam="2">  1       -1 0.11827648E-01 0.10939058E+04</pdfrwt>
<totfact> 0.23859521E+01</totfact>
</mgrwt>
</event>
<event>
12    7  0.1811919E-007  0.2566600E+04  0.7818608E-02  0.8379636E-01
         -1   -1    0    0    0  501 -0.00000000000E+00  0.00000000000E+00  0.10702476656E+04  0.10702476656E+04  0.00000000000E+00 0.  1.
          2   -1    0    0  501    0  0.00000000000E+00 -0.00000000000E+00 -0.15387641657E+04  0.15387641657E+04  0.00000000000E+00 0. -1.
         24    2    1    2    0    0 -0.47258816058E+03  0.50719310973E+01 -0.12289766916E+04  0.13189923075E+04  0.77406101510E+02 0.  0.
        254    2    1    2    0    0  0.47258816058E+03 -0.50719310973E+01  0.76046019157E+03  0.12900195238E+04  0.92870090713E+03 0.  0.
         23    2    4    4    0    0  0.15806107010E+03  0.44734600984E+03  0.38876222107E+03  0.62007019039E+03  0.90825228206E+02 0.  0.
         23    2    4    4    0    0  0.31452709049E+03 -0.45241794093E+03  0.37169797050E+03  0.66994933345E+03  0.84044298960E+02 0.  0.
          4    1    3    3  502    0 -0.41845808230E+03  0.29068775074E+02 -0.10628906028E+04  0.11426673155E+04  0.00000000000E+00 0. -1.
         -3    1    3    3    0  502 -0.54130078284E+02 -0.23996843977E+02 -0.16608608880E+03  0.17632499195E+03  0.00000000000E+00 0.  1.
         13    1    5    5    0    0  0.15368387487E+03  0.33887916384E+03  0.32582107526E+03  0.49458790337E+03  0.00000000000E+00 0. -1.
        -13    1    5    5    0    0  0.43771952317E+01  0.10846684600E+03  0.62941145813E+02  0.12548228702E+03  0.00000000000E+00 0.  1.
          3    1    6    6  503    0  0.17418051333E+03 -0.31694634478E+03  0.22574806118E+03  0.42632853977E+03  0.00000000000E+00 0. -1.
         -3    1    6    6    0  503  0.14034657716E+03 -0.13547159616E+03  0.14594990932E+03  0.24362079369E+03  0.00000000000E+00 0.  1.
<mgrwt>
<rscale>  0 0.25665999E+04</rscale>
<asrwt>0</asrwt>
<pdfrwt beam="1">  1        2 0.23673295E+00 0.25665999E+04</pdfrwt>
<pdfrwt beam="2">  1       -1 0.16465349E+00 0.25665999E+04</pdfrwt>
<totfact> 0.32872844E+00</totfact>
</mgrwt>
</event>
<event>
12    7  0.1735955E-007  0.1922783E+04  0.7818608E-02  0.8643598E-01
         -1   -1    0    0    0  501 -0.00000000000E+00  0.00000000000E+00  0.12915602062E+04  0.12915602062E+04  0.00000000000E+00 0.  1.
          2   -1    0    0  501    0  0.00000000000E+00 -0.00000000000E+00 -0.71562597517E+03  0.71562597517E+03  0.00000000000E+00 0. -1.
         24    2    1    2    0    0 -0.27812163573E+03 -0.14952081386E+03  0.92045990182E+03  0.97643709201E+03  0.80466426279E+02 0.  0.
        254    2    1    2    0    0  0.27812163573E+03  0.14952081386E+03 -0.34452567076E+03  0.10307490894E+04  0.91871520582E+03 0.  0.
         23    2    4    4    0    0  0.49854909483E+02  0.48357915664E+03 -0.30623597971E+01  0.49434060137E+03  0.89604349109E+02 0.  0.
         23    2    4    4    0    0  0.22826672625E+03 -0.33405834277E+03 -0.34146331096E+03  0.53640848802E+03  0.86233396041E+02 0.  0.
          2    1    3    3  502    0 -0.13564342739E+03 -0.33132644942E+02  0.34126378457E+03  0.36872466993E+03  0.00000000000E+00 0. -1.
         -1    1    3    3    0  502 -0.14247820834E+03 -0.11638816892E+03  0.57919611725E+03  0.60771242208E+03  0.00000000000E+00 0.  1.
         13    1    5    5    0    0  0.84124146886E+01  0.23925861879E+03 -0.43282330263E+02  0.24328751612E+03  0.00000000000E+00 0. -1.
        -13    1    5    5    0    0  0.41442494794E+02  0.24432053785E+03  0.40219970466E+02  0.25105308525E+03  0.00000000000E+00 0.  1.
          4    1    6    6  503    0  0.11974349019E+02 -0.26467580747E+02 -0.86865065607E+00  0.29063248596E+02  0.00000000000E+00 0. -1.
         -4    1    6    6    0  503  0.21629237723E+03 -0.30759076203E+03 -0.34059466031E+03  0.50734523942E+03  0.00000000000E+00 0.  1.
<mgrwt>
<rscale>  0 0.19227834E+04</rscale>
<asrwt>0</asrwt>
<pdfrwt beam="1">  1        2 0.11009630E+00 0.19227834E+04</pdfrwt>
<pdfrwt beam="2">  1       -1 0.19870157E+00 0.19227834E+04</pdfrwt>
<totfact> 0.65316982E+00</totfact>
</mgrwt>
</event>
<event>
12    7  0.1735955E-007  0.1354411E+04  0.7818608E-02  0.8987496E-01
         -1   -1    0    0    0  501 -0.00000000000E+00  0.00000000000E+00  0.20985706745E+03  0.20985706745E+03  0.00000000000E+00 0.  1.
          2   -1    0    0  501    0  0.00000000000E+00 -0.00000000000E+00 -0.21853313944E+04  0.21853313944E+04  0.00000000000E+00 0. -1.
         24    2    1    2    0    0 -0.26205995767E+03  0.24121768371E+03 -0.32699237787E+03  0.49054024202E+03  0.82730414630E+02 0.  0.
        254    2    1    2    0    0  0.26205995767E+03 -0.24121768371E+03 -0.16484819491E+04  0.19046482198E+04  0.88505972256E+03 0.  0.
         23    2    4    4    0    0  0.14271429721E+03  0.17949657964E+02  0.51997153149E+02  0.17798285258E+03  0.91019948521E+02 0.  0.
         23    2    4    4    0    0  0.11934566047E+03 -0.25916734167E+03 -0.17004791022E+04  0.17266653672E+04  0.91285353085E+02 0.  0.
          4    1    3    3  502    0 -0.85081246644E+02  0.11280044415E+03 -0.17163097843E+03  0.22230598617E+03  0.00000000000E+00 0. -1.
         -3    1    3    3    0  502 -0.17697871103E+03  0.12841723956E+03 -0.15536139944E+03  0.26823425585E+03  0.00000000000E+00 0.  1.
         13    1    5    5    0    0  0.43096243273E+02  0.26106625732E+02  0.59238826863E+02  0.77769407220E+02  0.00000000000E+00 0. -1.
        -13    1    5    5    0    0  0.99618053932E+02 -0.81569677683E+01 -0.72416737138E+01  0.10021344536E+03  0.00000000000E+00 0.  1.
          1    1    6    6  503    0  0.36061981646E+01 -0.19818912545E+02 -0.37497812319E+02  0.42566182450E+02  0.00000000000E+00 0. -1.
         -1    1    6    6    0  503  0.11573946230E+03 -0.23934842912E+03 -0.16629812899E+04  0.16840991848E+04  0.00000000000E+00 0.  1.
<mgrwt>
<rscale>  0 0.13544109E+04</rscale>
<asrwt>0</asrwt>
<pdfrwt beam="1">  1        2 0.33620483E+00 0.13544109E+04</pdfrwt>
<pdfrwt beam="2">  1       -1 0.32285703E-01 0.13544109E+04</pdfrwt>
<totfact> 0.52552105E+01</totfact>
</mgrwt>
</event>
<event>
12    7  0.1735955E-007  0.2204959E+04  0.7818608E-02  0.8516367E-01
          2   -1    0    0  501    0  0.00000000000E+00  0.00000000000E+00  0.18992769146E+04  0.18992769146E+04  0.00000000000E+00 0. -1.
         -1   -1    0    0    0  501 -0.00000000000E+00 -0.00000000000E+00 -0.63995994804E+03  0.63995994804E+03  0.00000000000E+00 0.  1.
         24    2    1    2    0    0  0.78091503831E+03  0.18676334838E+03  0.10594452195E+04  0.13317080181E+04  0.79455818475E+02 0.  0.
        254    2    1    2    0    0 -0.78091503831E+03 -0.18676334838E+03  0.19987174708E+03  0.12075288445E+04  0.87947049393E+03 0.  0.
         23    2    4    4    0    0 -0.59902980469E+03 -0.20893403149E+02 -0.27436302937E+03  0.66537810870E+03  0.90441773760E+02 0.  0.
         23    2    4    4    0    0 -0.18188523361E+03 -0.16586994523E+03  0.47423477645E+03  0.54215073581E+03  0.91835288480E+02 0.  0.
          2    1    3    3  502    0  0.25703066911E+03  0.62882532730E+02  0.41253069565E+03  0.49010259399E+03  0.00000000000E+00 0. -1.
         -1    1    3    3    0  502  0.52388436919E+03  0.12388081565E+03  0.64691452382E+03  0.84160542411E+03  0.00000000000E+00 0.  1.
         13    1    5    5    0    0 -0.34628100565E+03 -0.83902468395E+01 -0.10918848492E+03  0.36318460368E+03  0.00000000000E+00 0. -1.
        -13    1    5    5    0    0 -0.25274879905E+03 -0.12503156310E+02 -0.16517454445E+03  0.30219350501E+03  0.00000000000E+00 0.  1.
          3    1    6    6  503    0 -0.15711588537E+03 -0.17079351308E+03  0.45367874891E+03  0.50958829732E+03  0.00000000000E+00 0. -1.
         -3    1    6    6    0  503 -0.24769348242E+02  0.49235678520E+01  0.20556027540E+02  0.32562438498E+02  0.00000000000E+00 0.  1.
<mgrwt>
<rscale>  0 0.22049591E+04</rscale>
<asrwt>0</asrwt>
<pdfrwt beam="1">  1        2 0.29219645E+00 0.22049591E+04</pdfrwt>
<pdfrwt beam="2">  1       -1 0.98455377E-01 0.22049591E+04</pdfrwt>
<totfact> 0.78068580E+00</totfact>
</mgrwt>
</event>
<event>
12    7  0.1735955E-007  0.1735872E+04  0.7818608E-02  0.8741165E-01
          2   -1    0    0  501    0  0.00000000000E+00  0.00000000000E+00  0.70253972269E+03  0.70253972269E+03  0.00000000000E+00 0. -1.
         -1   -1    0    0    0  501 -0.00000000000E+00 -0.00000000000E+00 -0.10722713853E+04  0.10722713853E+04  0.00000000000E+00 0.  1.
         24    2    1    2    0    0 -0.21743622260E+02 -0.29225417472E+03  0.43038944646E+03  0.52755809667E+03  0.84836206815E+02 0.  0.
        254    2    1    2    0    0  0.21743622260E+02  0.29225417472E+03 -0.80012110907E+03  0.12472530113E+04  0.91080239203E+03 0.  0.
         23    2    4    4    0    0  0.44709668197E+03  0.22968227102E+03 -0.50160525663E+03  0.71578334377E+03  0.89936494810E+02 0.  0.
         23    2    4    4    0    0 -0.42535305971E+03  0.62571903694E+02 -0.29851585244E+03  0.53146966755E+03  0.92237870907E+02 0.  0.
          4    1    3    3  502    0 -0.10016165407E+02 -0.29310962316E+03  0.41565556394E+03  0.50870730543E+03  0.00000000000E+00 0. -1.
         -3    1    3    3    0  502 -0.11727456853E+02  0.85544844655E+00  0.14733882525E+02  0.18850791245E+02  0.00000000000E+00 0.  1.
         13    1    5    5    0    0  0.35610798210E+03  0.19502296455E+03 -0.35239018395E+03  0.53761109862E+03  0.00000000000E+00 0. -1.
        -13    1    5    5    0    0  0.90988699872E+02  0.34659306473E+02 -0.14921507267E+03  0.17817224515E+03  0.00000000000E+00 0.  1.
          3    1    6    6  503    0 -0.28239933207E+03  0.73579655103E+02 -0.23486247363E+03  0.37459809118E+03  0.00000000000E+00 0. -1.
         -3    1    6    6    0  503 -0.14295372764E+03 -0.11007751409E+02 -0.63653378810E+02  0.15687157636E+03  0.00000000000E+00 0.  1.
<mgrwt>
<rscale>  0 0.17358724E+04</rscale>
<asrwt>0</asrwt>
<pdfrwt beam="1">  1        2 0.10808304E+00 0.17358724E+04</pdfrwt>
<pdfrwt beam="2">  1       -1 0.16496483E+00 0.17358724E+04</pdfrwt>
<totfact> 0.11849836E+01</totfact>
</mgrwt>
</event>
<event>
12    7  0.1735955E-007  0.1513303E+04  0.7818608E-02  0.8875654E-01
          2   -1    0    0  501    0  0.00000000000E+00  0.00000000000E+00  0.24266434983E+04  0.24266434983E+04  0.00000000000E+00 0. -1.
         -1   -1    0    0    0  501 -0.00000000000E+00 -0.00000000000E+00 -0.23593148754E+03  0.23593148754E+03  0.00000000000E+00 0.  1.
         24    2    1    2    0    0 -0.11154864100E+03  0.20358374267E+03  0.14630032959E+04  0.14832193703E+04  0.75310139534E+02 0.  0.
        254    2    1    2    0    0  0.11154864100E+03 -0.20358374267E+03  0.72770871492E+03  0.11793556156E+04  0.89857122957E+03 0.  0.
         23    2    4    4    0    0  0.32185978895E+03  0.12460471117E+03  0.13517812918E+02  0.36051879185E+03  0.10330058191E+03 0.  0.
         23    2    4    4    0    0 -0.21031114794E+03 -0.32818845385E+03  0.71419090201E+03  0.81883682372E+03  0.92123065408E+02 0.  0.
          2    1    3    3  502    0 -0.51050545395E+02  0.14810088507E+03  0.80361563677E+03  0.81874179202E+03  0.00000000000E+00 0. -1.
         -1    1    3    3    0  502 -0.60498095610E+02  0.55482857607E+02  0.65938765912E+03  0.66447757830E+03  0.00000000000E+00 0.  1.
         13    1    5    5    0    0 -0.56371524368E+01  0.84489725865E+00 -0.79246458924E+01  0.97617289193E+01  0.00000000000E+00 0. -1.
        -13    1    5    5    0    0  0.32749694138E+03  0.12375981392E+03  0.21442458811E+02  0.35075706293E+03  0.00000000000E+00 0.  1.
          2    1    6    6  503    0 -0.14955271089E+03 -0.15602744489E+03  0.34784898685E+03  0.40952349694E+03  0.00000000000E+00 0. -1.
         -2    1    6    6    0  503 -0.60758437057E+02 -0.17216100896E+03  0.36634191515E+03  0.40931332678E+03  0.00000000000E+00 0.  1.
<mgrwt>
<rscale>  0 0.15133032E+04</rscale>
<asrwt>0</asrwt>
<pdfrwt beam="1">  1        2 0.37332975E+00 0.15133032E+04</pdfrwt>
<pdfrwt beam="2">  1       -1 0.36297154E-01 0.15133032E+04</pdfrwt>
<totfact> 0.30729762E+01</totfact>
</mgrwt>
</event>
<event>
12    7  0.1735955E-007  0.1094945E+04  0.7818608E-02  0.9210133E-01
         -1   -1    0    0    0  501 -0.00000000000E+00  0.00000000000E+00  0.15518724191E+03  0.15518724191E+03  0.00000000000E+00 0.  1.
          2   -1    0    0  501    0  0.00000000000E+00 -0.00000000000E+00 -0.19313827469E+04  0.19313827469E+04  0.00000000000E+00 0. -1.
         24    2    1    2    0    0  0.22790186344E+02  0.20440305786E+02  0.25357065722E+01  0.85861713871E+02  0.80178584465E+02 0.  0.
        254    2    1    2    0    0 -0.22790186344E+02 -0.20440305786E+02 -0.17787312116E+04  0.20007082749E+04  0.91542977869E+03 0.  0.
         23    2    4    4    0    0  0.28603573085E+03  0.31090139888E+03 -0.10770608580E+04  0.11605793851E+04  0.91696773388E+02 0.  0.
         23    2    4    4    0    0 -0.30882591720E+03 -0.33134170467E+03 -0.70167035361E+03  0.84012888983E+03  0.91183847284E+02 0.  0.
          4    1    3    3  502    0 -0.29146670015E+02  0.83780483403E+00 -0.57894959102E+01  0.29727908652E+02  0.00000000000E+00 0. -1.
         -3    1    3    3    0  502  0.51936856359E+02  0.19602500952E+02  0.83252024824E+01  0.56133805220E+02  0.00000000000E+00 0.  1.
         13    1    5    5    0    0  0.18638152052E+03  0.22944376004E+03 -0.64018081204E+03  0.70513401727E+03  0.00000000000E+00 0. -1.
        -13    1    5    5    0    0  0.99654210330E+02  0.81457638839E+02 -0.43688004592E+03  0.45544536784E+03  0.00000000000E+00 0.  1.
          1    1    6    6  503    0 -0.10843215211E+03 -0.83672854508E+02 -0.15037284744E+03  0.20339781572E+03  0.00000000000E+00 0. -1.
         -1    1    6    6    0  503 -0.20039376508E+03 -0.24766885016E+03 -0.55129750617E+03  0.63673107410E+03  0.00000000000E+00 0.  1.
<mgrwt>
<rscale>  0 0.10949447E+04</rscale>
<asrwt>0</asrwt>
<pdfrwt beam="1">  1        2 0.29713579E+00 0.10949447E+04</pdfrwt>
<pdfrwt beam="2">  1       -1 0.23874961E-01 0.10949447E+04</pdfrwt>
<totfact> 0.12529642E+02</totfact>
</mgrwt>
</event>
<event>
12    7  0.1735955E-007  0.2256497E+04  0.7818608E-02  0.8495274E-01
          2   -1    0    0  501    0  0.00000000000E+00  0.00000000000E+00  0.22035958311E+04  0.22035958311E+04  0.00000000000E+00 0. -1.
         -1   -1    0    0    0  501 -0.00000000000E+00 -0.00000000000E+00 -0.57766690610E+03  0.57766690610E+03  0.00000000000E+00 0.  1.
         24    2    1    2    0    0 -0.41376436094E+03 -0.77233056981E+03  0.11349751671E+04  0.14361351183E+04  0.81363337560E+02 0.  0.
        254    2    1    2    0    0  0.41376436094E+03  0.77233056981E+03  0.49095375785E+03  0.13451276188E+04  0.89478336101E+03 0.  0.
         23    2    4    4    0    0 -0.10501599479E+03  0.70364951038E+03  0.22887729489E+03  0.75285483736E+03  0.90854814963E+02 0.  0.
         23    2    4    4    0    0  0.51878035573E+03  0.68681059427E+02  0.26207646296E+03  0.59227278146E+03  0.90845086891E+02 0.  0.
          2    1    3    3  502    0 -0.27908886589E+03 -0.46778079737E+03  0.65394235539E+03  0.85108758281E+03  0.00000000000E+00 0. -1.
         -1    1    3    3    0  502 -0.13467549506E+03 -0.30454977244E+03  0.48103281172E+03  0.58504753552E+03  0.00000000000E+00 0.  1.
         13    1    5    5    0    0  0.83775073268E+01  0.28370065836E+02  0.24101581481E+02  0.38156644172E+02  0.00000000000E+00 0. -1.
        -13    1    5    5    0    0 -0.11339350211E+03  0.67527944455E+03  0.20477571341E+03  0.71469819319E+03  0.00000000000E+00 0.  1.
          1    1    6    6  503    0  0.33311835913E+03  0.21692045991E+02  0.20779135029E+03  0.39321194197E+03  0.00000000000E+00 0. -1.
         -1    1    6    6    0  503  0.18566199660E+03  0.46989013436E+02  0.54285112670E+02  0.19906083950E+03  0.00000000000E+00 0.  1.
<mgrwt>
<rscale>  0 0.22564967E+04</rscale>
<asrwt>0</asrwt>
<pdfrwt beam="1">  1        2 0.33901474E+00 0.22564967E+04</pdfrwt>
<pdfrwt beam="2">  1       -1 0.88871833E-01 0.22564967E+04</pdfrwt>
<totfact> 0.66088647E+00</totfact>
</mgrwt>
</event>
<event>
12    7  0.1735955E-007  0.1282221E+04  0.7818608E-02  0.9043784E-01
         -1   -1    0    0    0  501 -0.00000000000E+00  0.00000000000E+00  0.10558517422E+04  0.10558517422E+04  0.00000000000E+00 0.  1.
          2   -1    0    0  501    0  0.00000000000E+00 -0.00000000000E+00 -0.38928089820E+03  0.38928089820E+03  0.00000000000E+00 0. -1.
         24    2    1    2    0    0 -0.57803890715E+02 -0.31773373282E+03  0.17816920484E+03  0.37715098331E+03  0.78756484848E+02 0.  0.
        254    2    1    2    0    0  0.57803890715E+02  0.31773373282E+03  0.48840163915E+03  0.10679816571E+04  0.89316999726E+03 0.  0.
         23    2    4    4    0    0  0.25368967449E+03 -0.37516459116E+02 -0.14673829042E+03  0.30886692372E+03  0.90003972376E+02 0.  0.
         23    2    4    4    0    0 -0.19588578378E+03  0.35525019193E+03  0.63513992957E+03  0.75911473338E+03  0.90986312908E+02 0.  0.
          2    1    3    3  502    0 -0.21139818401E+02 -0.20368758033E+02  0.33161861997E+02  0.44288681590E+02  0.00000000000E+00 0. -1.
         -1    1    3    3    0  502 -0.36664072313E+02 -0.29736497479E+03  0.14500734284E+03  0.33286230172E+03  0.00000000000E+00 0.  1.
         13    1    5    5    0    0  0.65404933938E+01 -0.23267064727E+02 -0.11295428414E+02  0.26678100718E+02  0.00000000000E+00 0. -1.
        -13    1    5    5    0    0  0.24714918110E+03 -0.14249394388E+02 -0.13544286200E+03  0.28218882300E+03  0.00000000000E+00 0.  1.
          1    1    6    6  503    0 -0.80591399174E+01  0.37375748860E+02  0.24128864797E+02  0.45211707062E+02  0.00000000000E+00 0. -1.
         -1    1    6    6    0  503 -0.18782664386E+03  0.31787444307E+03  0.61101106477E+03  0.71390302631E+03  0.00000000000E+00 0.  1.
<mgrwt>
<rscale>  0 0.12822214E+04</rscale>
<asrwt>0</asrwt>
<pdfrwt beam="1">  1        2 0.59889369E-01 0.12822214E+04</pdfrwt>
<pdfrwt beam="2">  1       -1 0.16243873E+00 0.12822214E+04</pdfrwt>
<totfact> 0.25796333E+01</totfact>
</mgrwt>
</event>
<event>
12    7  0.1735955E-007  0.1334772E+04  0.7818608E-02  0.9002436E-01
          2   -1    0    0  501    0  0.00000000000E+00  0.00000000000E+00  0.82620028550E+03  0.82620028550E+03  0.00000000000E+00 0. -1.
         -1   -1    0    0    0  501 -0.00000000000E+00 -0.00000000000E+00 -0.53909915119E+03  0.53909915119E+03  0.00000000000E+00 0.  1.
         24    2    1    2    0    0  0.11367904345E+03  0.17766034172E+03  0.37143217358E+03  0.43433920765E+03  0.78756369823E+02 0.  0.
        254    2    1    2    0    0 -0.11367904345E+03 -0.17766034172E+03 -0.84331039275E+02  0.93096022904E+03  0.90282285191E+03 0.  0.
         23    2    4    4    0    0 -0.28162513043E+03  0.29389345785E+03 -0.58712282227E+02  0.42097883810E+03  0.89944268197E+02 0.  0.
         23    2    4    4    0    0  0.16794608698E+03 -0.47155379957E+03 -0.25618757048E+02  0.50998139094E+03  0.94105389714E+02 0.  0.
          4    1    3    3  502    0  0.10512294236E+03  0.12860525745E+03  0.33045009669E+03  0.36984782229E+03  0.00000000000E+00 0. -1.
         -3    1    3    3    0  502  0.85561010907E+01  0.49055084265E+02  0.40982076897E+02  0.64491385355E+02  0.00000000000E+00 0.  1.
         13    1    5    5    0    0 -0.17635727974E+03  0.19103718865E+03  0.63296520367E+01  0.26007145568E+03  0.00000000000E+00 0. -1.
        -13    1    5    5    0    0 -0.10526785069E+03  0.10285626921E+03 -0.65041934264E+02  0.16090738242E+03  0.00000000000E+00 0.  1.
          3    1    6    6  503    0  0.63002655865E+02 -0.23020785932E+03 -0.55718479696E+02  0.24509088542E+03  0.00000000000E+00 0. -1.
         -3    1    6    6    0  503  0.10494343112E+03 -0.24134594025E+03  0.30099722648E+02  0.26489050552E+03  0.00000000000E+00 0.  1.
<mgrwt>
<rscale>  0 0.13347717E+04</rscale>
<asrwt>0</asrwt>
<pdfrwt beam="1">  1        2 0.12710774E+00 0.13347717E+04</pdfrwt>
<pdfrwt beam="2">  1       -1 0.82938331E-01 0.13347717E+04</pdfrwt>
<totfact> 0.53186798E+01</totfact>
</mgrwt>
</event>
<event>
12    7  0.1735955E-007  0.1335280E+04  0.7818608E-02  0.9002046E-01
         -1   -1    0    0    0  501 -0.00000000000E+00  0.00000000000E+00  0.12466291301E+03  0.12466291301E+03  0.00000000000E+00 0.  1.
          2   -1    0    0  501    0  0.00000000000E+00 -0.00000000000E+00 -0.35755881079E+04  0.35755881079E+04  0.00000000000E+00 0. -1.
         24    2    1    2    0    0  0.28744373647E+03 -0.19486609866E+03 -0.60026360668E+03  0.69810664373E+03  0.80248305088E+02 0.  0.
        254    2    1    2    0    0 -0.28744373647E+03  0.19486609866E+03 -0.28506615882E+04  0.30021443772E+04  0.87521578650E+03 0.  0.
         23    2    4    4    0    0 -0.52971349003E+03  0.29928845718E+03 -0.23466786532E+04  0.24260445878E+04  0.92852992795E+02 0.  0.
         23    2    4    4    0    0  0.24226975355E+03 -0.10442235852E+03 -0.50398293497E+03  0.57609978940E+03  0.91068689207E+02 0.  0.
          2    1    3    3  502    0  0.65962939440E+02 -0.80640377726E+02 -0.22060002740E+03  0.24396383336E+03  0.00000000000E+00 0. -1.
         -1    1    3    3    0  502  0.22148079703E+03 -0.11422572094E+03 -0.37966357928E+03  0.45414281037E+03  0.00000000000E+00 0.  1.
         13    1    5    5    0    0 -0.47843921969E+03  0.24751883129E+03 -0.19663501258E+04  0.20387992731E+04  0.00000000000E+00 0. -1.
        -13    1    5    5    0    0 -0.51274270338E+02  0.51769625892E+02 -0.38032852743E+03  0.38724531468E+03  0.00000000000E+00 0.  1.
          2    1    6    6  503    0  0.84669104836E+01 -0.33813910210E+02 -0.63620714073E+02  0.72544223450E+02  0.00000000000E+00 0.  1.
         -2    1    6    6    0  503  0.23380284307E+03 -0.70608448311E+02 -0.44036222090E+03  0.50355556595E+03  0.00000000000E+00 0. -1.
<mgrwt>
<rscale>  0 0.13352801E+04</rscale>
<asrwt>0</asrwt>
<pdfrwt beam="1">  1        2 0.55009051E+00 0.13352801E+04</pdfrwt>
<pdfrwt beam="2">  1       -1 0.19178909E-01 0.13352801E+04</pdfrwt>
<totfact> 0.17936621E+01</totfact>
</mgrwt>
</event>
<event>
12    7  0.1735955E-007  0.1285732E+04  0.7818608E-02  0.9040957E-01
         -1   -1    0    0    0  501 -0.00000000000E+00  0.00000000000E+00  0.15828656783E+04  0.15828656783E+04  0.00000000000E+00 0.  1.
          2   -1    0    0  501    0  0.00000000000E+00 -0.00000000000E+00 -0.26109387207E+03  0.26109387207E+03  0.00000000000E+00 0. -1.
         24    2    1    2    0    0  0.19674401251E+03  0.23951066551E+03  0.20181870794E+03  0.37900412443E+03  0.82702902691E+02 0.  0.
        254    2    1    2    0    0 -0.19674401251E+03 -0.23951066551E+03  0.11199530983E+04  0.14649554259E+04  0.89203469230E+03 0.  0.
         23    2    4    4    0    0  0.49224851836E+02  0.23667647549E+03  0.47317514288E+02  0.26245148183E+03  0.90570376302E+02 0.  0.
         23    2    4    4    0    0 -0.24596886434E+03 -0.47618714100E+03  0.10726355840E+04  0.12025039441E+04  0.90629818834E+02 0.  0.
          4    1    3    3  502    0  0.51896946189E+02  0.45600045907E+02  0.92376034674E+01  0.69699286426E+02  0.00000000000E+00 0. -1.
         -1    1    3    3    0  502  0.14484706632E+03  0.19391061960E+03  0.19258110447E+03  0.30930483801E+03  0.00000000000E+00 0.  1.
         13    1    5    5    0    0 -0.15352221941E+02  0.10820230818E+03 -0.50986481240E+01  0.10940487387E+03  0.00000000000E+00 0.  1.
        -13    1    5    5    0    0  0.64577073777E+02  0.12847416732E+03  0.52416162412E+02  0.15304660796E+03  0.00000000000E+00 0. -1.
          4    1    6    6  503    0 -0.56577674016E+02 -0.10059846046E+03  0.15688615845E+03  0.19476742581E+03  0.00000000000E+00 0. -1.
         -4    1    6    6    0  503 -0.18939119032E+03 -0.37558868055E+03  0.91574942553E+03  0.10077365183E+04  0.00000000000E+00 0.  1.
<mgrwt>
<rscale>  0 0.12857317E+04</rscale>
<asrwt>0</asrwt>
<pdfrwt beam="1">  1        2 0.40168289E-01 0.12857317E+04</pdfrwt>
<pdfrwt beam="2">  1       -1 0.24351779E+00 0.12857317E+04</pdfrwt>
<totfact> 0.11098485E+01</totfact>
</mgrwt>
</event>
<event>
12    7  0.1735955E-007  0.1118322E+04  0.7818608E-02  0.9187515E-01
          2   -1    0    0  501    0  0.00000000000E+00  0.00000000000E+00  0.14514615233E+04  0.14514615233E+04  0.00000000000E+00 0. -1.
         -1   -1    0    0    0  501 -0.00000000000E+00 -0.00000000000E+00 -0.21541131008E+03  0.21541131008E+03  0.00000000000E+00 0.  1.
         24    2    1    2    0    0  0.46678803843E+02  0.14954088350E+03  0.38959926784E+03  0.42598504599E+03  0.71653913588E+02 0.  0.
        254    2    1    2    0    0 -0.46678803843E+02 -0.14954088350E+03  0.84645094543E+03  0.12408877874E+04  0.89374599940E+03 0.  0.
         23    2    4    4    0    0 -0.13477703406E+03  0.18824242373E+03  0.84440137868E+03  0.88015265586E+03  0.89749374980E+02 0.  0.
         23    2    4    4    0    0  0.88098230214E+02 -0.33778330723E+03  0.20495667501E+01  0.36073513158E+03  0.90921799494E+02 0.  0.
          4    1    3    3  502    0  0.54575719081E+02  0.14677901927E+03  0.32405082073E+03  0.35990488192E+03  0.00000000000E+00 0. -1.
         -3    1    3    3    0  502 -0.78969152372E+01  0.27618642260E+01  0.65548447112E+02  0.66080164066E+02  0.00000000000E+00 0.  1.
         13    1    5    5    0    0 -0.56667812546E+02  0.17026594220E+02  0.17092296453E+03  0.18087511076E+03  0.00000000000E+00 0.  1.
        -13    1    5    5    0    0 -0.78109221512E+02  0.17121582951E+03  0.67347841414E+03  0.69927754510E+03  0.00000000000E+00 0. -1.
          3    1    6    6  503    0  0.10388711240E+03 -0.24166467549E+03  0.77428355729E+01  0.26316211544E+03  0.00000000000E+00 0. -1.
         -3    1    6    6    0  503 -0.15788882185E+02 -0.96118631740E+02 -0.56932688228E+01  0.97573016137E+02  0.00000000000E+00 0.  1.
<mgrwt>
<rscale>  0 0.11183224E+04</rscale>
<asrwt>0</asrwt>
<pdfrwt beam="1">  1        2 0.22330177E+00 0.11183224E+04</pdfrwt>
<pdfrwt beam="2">  1       -1 0.33140202E-01 0.11183224E+04</pdfrwt>
<totfact> 0.13066312E+02</totfact>
</mgrwt>
</event>
<event>
12    7  0.1735955E-007  0.1894181E+04  0.7818608E-02  0.8657758E-01
         -1   -1    0    0    0  501 -0.00000000000E+00  0.00000000000E+00  0.47036748501E+03  0.47036748501E+03  0.00000000000E+00 0.  1.
          2   -1    0    0  501    0  0.00000000000E+00 -0.00000000000E+00 -0.19069780104E+04  0.19069780104E+04  0.00000000000E+00 0. -1.
         24    2    1    2    0    0 -0.60185345738E+03  0.84016117019E+02 -0.10533897867E+04  0.12189022535E+04  0.82500719750E+02 0.  0.
        254    2    1    2    0    0  0.60185345738E+03 -0.84016117019E+02 -0.38322073875E+03  0.11584432420E+04  0.90876086964E+03 0.  0.
         23    2    4    4    0    0  0.13971052181E+03 -0.37462976004E+03 -0.44082771807E+03  0.60201600641E+03  0.90706713909E+02 0.  0.
         23    2    4    4    0    0  0.46214293558E+03  0.29061364302E+03  0.57606979322E+02  0.55642723557E+03  0.90886313610E+02 0.  0.
          2    1    3    3  502    0 -0.57492635973E+03  0.97504328077E+02 -0.10000168291E+04  0.11576187073E+04  0.00000000000E+00 0. -1.
         -1    1    3    3    0  502 -0.26927097650E+02 -0.13488211058E+02 -0.53372957620E+02  0.61283546165E+02  0.00000000000E+00 0.  1.
         13    1    5    5    0    0  0.69263367103E+02 -0.16712958022E+03 -0.13475118154E+03  0.22558278199E+03  0.00000000000E+00 0.  1.
        -13    1    5    5    0    0  0.70447154705E+02 -0.20750017982E+03 -0.30607653653E+03  0.37643322442E+03  0.00000000000E+00 0. -1.
          3    1    6    6  503    0  0.38617222104E+03  0.27914886953E+03  0.45844789480E+02  0.47870118068E+03  0.00000000000E+00 0. -1.
         -3    1    6    6    0  503  0.75970714540E+02  0.11464773492E+02  0.11762189841E+02  0.77726054890E+02  0.00000000000E+00 0.  1.
<mgrwt>
<rscale>  0 0.18941810E+04</rscale>
<asrwt>0</asrwt>
<pdfrwt beam="1">  1        2 0.29338123E+00 0.18941810E+04</pdfrwt>
<pdfrwt beam="2">  1       -1 0.72364229E-01 0.18941810E+04</pdfrwt>
<totfact> 0.15468963E+01</totfact>
</mgrwt>
</event>
<event>
12    7  0.1735955E-007  0.1488868E+04  0.7818608E-02  0.8891890E-01
          2   -1    0    0  501    0  0.00000000000E+00  0.00000000000E+00  0.36928615758E+04  0.36928615758E+04  0.00000000000E+00 0. -1.
         -1   -1    0    0    0  501 -0.00000000000E+00 -0.00000000000E+00 -0.15006835448E+03  0.15006835448E+03  0.00000000000E+00 0.  1.
         24    2    1    2    0    0 -0.19854240610E+03 -0.40520286969E+03  0.15096174065E+04  0.15775732974E+04  0.78640587193E+02 0.  0.
        254    2    1    2    0    0  0.19854240610E+03  0.40520286969E+03  0.20331758148E+04  0.22653566329E+04  0.89130708944E+03 0.  0.
         23    2    4    4    0    0  0.43726160925E+03  0.50024160686E+03  0.10531988399E+04  0.12485292478E+04  0.90322235076E+02 0.  0.
         23    2    4    4    0    0 -0.23871920315E+03 -0.95038737174E+02  0.97997697489E+03  0.10168273851E+04  0.86970340831E+02 0.  0.
          4    1    3    3  502    0 -0.15750194782E+03 -0.35042854935E+03  0.13564376159E+04  0.14097978712E+04  0.00000000000E+00 0. -1.
         -3    1    3    3    0  502 -0.41040458282E+02 -0.54774320338E+02  0.15317979058E+03  0.16777542617E+03  0.00000000000E+00 0.  1.
         13    1    5    5    0    0  0.32365720898E+03  0.41058240996E+03  0.87081222588E+03  0.10156996786E+04  0.00000000000E+00 0.  1.
        -13    1    5    5    0    0  0.11360440026E+03  0.89659196905E+02  0.18238661404E+03  0.23282956928E+03  0.00000000000E+00 0. -1.
          1    1    6    6  503    0 -0.17351125925E+02 -0.19640230785E+02  0.22341633779E+03  0.22494812786E+03  0.00000000000E+00 0. -1.
         -1    1    6    6    0  503 -0.22136807722E+03 -0.75398506389E+02  0.75656063710E+03  0.79187925720E+03  0.00000000000E+00 0.  1.
<mgrwt>
<rscale>  0 0.14888676E+04</rscale>
<asrwt>0</asrwt>
<pdfrwt beam="1">  1        2 0.56813248E+00 0.14888676E+04</pdfrwt>
<pdfrwt beam="2">  1       -1 0.23087442E-01 0.14888676E+04</pdfrwt>
<totfact> 0.10630598E+01</totfact>
</mgrwt>
</event>
<event>
12    7  0.1735955E-007  0.2360846E+04  0.7818608E-02  0.8454309E-01
          2   -1    0    0  501    0  0.00000000000E+00  0.00000000000E+00  0.15451833623E+04  0.15451833623E+04  0.00000000000E+00 0. -1.
         -1   -1    0    0    0  501 -0.00000000000E+00 -0.00000000000E+00 -0.90176892295E+03  0.90176892295E+03  0.00000000000E+00 0.  1.
         24    2    1    2    0    0  0.15193989657E+03 -0.53832639039E+03  0.11436497603E+04  0.12756203979E+04  0.79947423266E+02 0.  0.
        254    2    1    2    0    0 -0.15193989657E+03  0.53832639039E+03 -0.50023532101E+03  0.11713318873E+04  0.89938978152E+03 0.  0.
         23    2    4    4    0    0 -0.47847895289E+03  0.11972568343E+03 -0.13288935426E+03  0.51877428788E+03  0.90503224591E+02 0.  0.
         23    2    4    4    0    0  0.32653905632E+03  0.41860070696E+03 -0.36734596675E+03  0.65255759944E+03  0.95047641373E+02 0.  0.
          2    1    3    3  502    0  0.94243159979E+02 -0.43719633468E+03  0.86977360234E+03  0.97802276435E+03  0.00000000000E+00 0. -1.
         -1    1    3    3    0  502  0.57696736590E+02 -0.10113005571E+03  0.27387615801E+03  0.29759763357E+03  0.00000000000E+00 0.  1.
         13    1    5    5    0    0 -0.10950142085E+03 -0.57995866033E+01 -0.48992465606E+02  0.12010186535E+03  0.00000000000E+00 0. -1.
        -13    1    5    5    0    0 -0.36897753203E+03  0.12552527003E+03 -0.83896888652E+02  0.39867242253E+03  0.00000000000E+00 0.  1.
          4    1    6    6  503    0  0.26914888900E+03  0.29007613283E+03 -0.24037986593E+03  0.46299866871E+03  0.00000000000E+00 0. -1.
         -4    1    6    6    0  503  0.57390167321E+02  0.12852457413E+03 -0.12696610082E+03  0.18955893073E+03  0.00000000000E+00 0.  1.
<mgrwt>
<rscale>  0 0.23608459E+04</rscale>
<asrwt>0</asrwt>
<pdfrwt beam="1">  1        2 0.23772052E+00 0.23608459E+04</pdfrwt>
<pdfrwt beam="2">  1       -1 0.13873368E+00 0.23608459E+04</pdfrwt>
<totfact> 0.52797000E+00</totfact>
</mgrwt>
</event>
<event>
12    7  0.1735955E-007  0.1191345E+04  0.7818608E-02  0.9120467E-01
         -1   -1    0    0    0  501 -0.00000000000E+00  0.00000000000E+00  0.56033661815E+03  0.56033661815E+03  0.00000000000E+00 0.  1.
          2   -1    0    0  501    0  0.00000000000E+00 -0.00000000000E+00 -0.63323624483E+03  0.63323624483E+03  0.00000000000E+00 0. -1.
         24    2    1    2    0    0  0.90280096996E+02  0.27722181540E+02  0.20982138720E+03  0.24352653535E+03  0.79756777964E+02 0.  0.
        254    2    1    2    0    0 -0.90280096996E+02 -0.27722181540E+02 -0.28272101388E+03  0.95004632762E+03  0.90207418635E+03 0.  0.
         23    2    4    4    0    0  0.36214038582E+02  0.13738012433E+03 -0.56396450425E+03  0.58823661392E+03  0.88213359291E+02 0.  0.
         23    2    4    4    0    0 -0.12649413558E+03 -0.16510230587E+03  0.28124349037E+03  0.36180971370E+03  0.92459884911E+02 0.  0.
          4    1    3    3  502    0  0.93230509080E+02 -0.23797989487E+01  0.15401173857E+03  0.18004779055E+03  0.00000000000E+00 0. -1.
         -3    1    3    3    0  502 -0.29504120840E+01  0.30101980489E+02  0.55809648633E+02  0.63478744800E+02  0.00000000000E+00 0.  1.
         13    1    5    5    0    0  0.21571744210E+02  0.14549664133E+03 -0.46031372708E+03  0.48324252724E+03  0.00000000000E+00 0. -1.
        -13    1    5    5    0    0  0.14642294372E+02 -0.81165170029E+01 -0.10365077716E+03  0.10499408668E+03  0.00000000000E+00 0.  1.
          3    1    6    6  503    0 -0.13377225103E+03 -0.15724654616E+03  0.22833566172E+03  0.30782895549E+03  0.00000000000E+00 0. -1.
         -3    1    6    6    0  503  0.72781154497E+01 -0.78557597055E+01  0.52907828649E+02  0.53980758214E+02  0.00000000000E+00 0.  1.
<mgrwt>
<rscale>  0 0.11913445E+04</rscale>
<asrwt>0</asrwt>
<pdfrwt beam="1">  1        2 0.97420961E-01 0.11913445E+04</pdfrwt>
<pdfrwt beam="2">  1       -1 0.86205633E-01 0.11913445E+04</pdfrwt>
<totfact> 0.69592590E+01</totfact>
</mgrwt>
</event>
<event>
12    7  0.1744118E-007  0.2368115E+04  0.7818608E-02  0.8451538E-01
         -1   -1    0    0    0  501 -0.00000000000E+00  0.00000000000E+00  0.11431033132E+04  0.11431033132E+04  0.00000000000E+00 0.  1.
          2   -1    0    0  501    0  0.00000000000E+00 -0.00000000000E+00 -0.12264784639E+04  0.12264784639E+04  0.00000000000E+00 0. -1.
         24    2    1    2    0    0  0.43979686917E+03  0.28395008280E+03 -0.90102020004E+03  0.10449179654E+04  0.77247769340E+02 0.  0.
        254    2    1    2    0    0 -0.43979686917E+03 -0.28395008280E+03  0.81764504932E+03  0.13246638116E+04  0.90118913194E+03 0.  0.
         23    2    4    4    0    0  0.12504496012E+03 -0.36063151571E+03  0.10266273358E+03  0.40574971243E+03  0.91661661007E+02 0.  0.
         23    2    4    4    0    0 -0.56484182929E+03  0.76681432908E+02  0.71498231575E+03  0.91891409921E+03  0.90978434962E+02 0.  0.
          2    1    3    3  502    0  0.37128710325E+03  0.24190051056E+03 -0.81145555932E+03  0.92457022167E+03  0.00000000000E+00 0. -1.
         -1    1    3    3    0  502  0.68509765918E+02  0.42049572239E+02 -0.89564640722E+02  0.12034774372E+03  0.00000000000E+00 0.  1.
         13    1    5    5    0    0  0.67545543728E+02 -0.12569481007E+03  0.78010263183E+02  0.16262591097E+03  0.00000000000E+00 0.  1.
        -13    1    5    5    0    0  0.57499416394E+02 -0.23493670563E+03  0.24652470393E+02  0.24312380146E+03  0.00000000000E+00 0. -1.
          3    1    6    6  503    0 -0.19023055088E+03  0.20031847841E+02  0.31061144295E+03  0.36478542447E+03  0.00000000000E+00 0. -1.
         -3    1    6    6    0  503 -0.37461127841E+03  0.56649585067E+02  0.40437087280E+03  0.55412867474E+03  0.00000000000E+00 0.  1.
<mgrwt>
<rscale>  0 0.23681145E+04</rscale>
<asrwt>0</asrwt>
<pdfrwt beam="1">  1        2 0.18868899E+00 0.23681145E+04</pdfrwt>
<pdfrwt beam="2">  1       -1 0.17586205E+00 0.23681145E+04</pdfrwt>
<totfact> 0.41844793E+00</totfact>
</mgrwt>
</event>
<event>
12    7  0.1735955E-007  0.4695770E+04  0.7818608E-02  0.7877232E-01
          2   -1    0    0  501    0  0.00000000000E+00  0.00000000000E+00  0.21058921983E+04  0.21058921983E+04  0.00000000000E+00 0. -1.
         -3   -1    0    0    0  501 -0.00000000000E+00 -0.00000000000E+00 -0.26176855720E+04  0.26176855720E+04  0.00000000000E+00 0.  1.
         24    2    1    2    0    0  0.19541369528E+03 -0.17705367942E+04  0.11535139725E+04  0.21237330768E+04  0.81612772335E+02 0.  0.
        254    2    1    2    0    0 -0.19541369528E+03  0.17705367942E+04 -0.16653073461E+04  0.25998446936E+04  0.90164118222E+03 0.  0.
         23    2    4    4    0    0  0.26416077666E+03  0.19048633789E+03 -0.18051250714E+03  0.38156793213E+03  0.83326830901E+02 0.  0.
         23    2    4    4    0    0 -0.45957447194E+03  0.15800504563E+04 -0.14847948390E+04  0.22182767614E+04  0.91476426044E+02 0.  0.
          2    1    3    3  502    0  0.17932771427E+03 -0.16233393743E+04  0.10835160800E+04  0.19599480220E+04  0.00000000000E+00 0. -1.
         -1    1    3    3    0  502  0.16085981006E+02 -0.14719741990E+03  0.69997892493E+02  0.16378505476E+03  0.00000000000E+00 0.  1.
         13    1    5    5    0    0  0.47461323967E+01  0.93964244283E+00  0.77883352928E+01  0.91687985735E+01  0.00000000000E+00 0. -1.
        -13    1    5    5    0    0  0.25941464426E+03  0.18954669545E+03 -0.18830084243E+03  0.37239913356E+03  0.00000000000E+00 0.  1.
          3    1    6    6  503    0 -0.18441435676E+02  0.22652177590E+02 -0.30962824790E+02  0.42566468239E+02  0.00000000000E+00 0. -1.
         -3    1    6    6    0  503 -0.44113303626E+03  0.15573982788E+04 -0.14538320142E+04  0.21757102932E+04  0.00000000000E+00 0.  1.
<mgrwt>
<rscale>  0 0.46957699E+04</rscale>
<asrwt>0</asrwt>
<pdfrwt beam="1">  1        2 0.32398342E+00 0.46957699E+04</pdfrwt>
<pdfrwt beam="2">  1       -3 0.40272086E+00 0.46957699E+04</pdfrwt>
<totfact> 0.27853649E-02</totfact>
</mgrwt>
</event>
<event>
12    7  0.1735955E-007  0.1905547E+04  0.7818608E-02  0.8652100E-01
         -3   -1    0    0    0  501 -0.00000000000E+00  0.00000000000E+00  0.35901454540E+03  0.35901454540E+03  0.00000000000E+00 0.  1.
          4   -1    0    0  501    0  0.00000000000E+00 -0.00000000000E+00 -0.25285247028E+04  0.25285247028E+04  0.00000000000E+00 0. -1.
         24    2    1    2    0    0 -0.56197487302E+03 -0.44408121002E+03 -0.58535642015E+03  0.92834614023E+03  0.78489097712E+02 0.  0.
        254    2    1    2    0    0  0.56197487302E+03  0.44408121002E+03 -0.15841537372E+04  0.19591931080E+04  0.90325560727E+03 0.  0.
         23    2    4    4    0    0  0.97926793271E+02 -0.25094262078E+03 -0.60429094412E+03  0.66823005229E+03  0.93818984655E+02 0.  0.
         23    2    4    4    0    0  0.46404807975E+03  0.69502383080E+03 -0.97986279313E+03  0.12909630557E+04  0.89753952825E+02 0.  0.
          2    1    3    3  502    0 -0.36623414457E+03 -0.31429362382E+03 -0.35262743998E+03  0.59770732140E+03  0.00000000000E+00 0. -1.
         -1    1    3    3    0  502 -0.19574072845E+03 -0.12978758620E+03 -0.23272898016E+03  0.33063881882E+03  0.00000000000E+00 0.  1.
         13    1    5    5    0    0  0.89532726831E+02 -0.10142274780E+03 -0.27431304791E+03  0.30585998627E+03  0.00000000000E+00 0.  1.
        -13    1    5    5    0    0  0.83940664399E+01 -0.14951987298E+03 -0.32997789621E+03  0.36237006603E+03  0.00000000000E+00 0. -1.
          2    1    6    6  503    0  0.45411598114E+03  0.66079822934E+03 -0.95757576506E+03  0.12489303303E+04  0.00000000000E+00 0. -1.
         -2    1    6    6    0  503  0.99320986098E+01  0.34225601464E+02 -0.22287028073E+02  0.42032725331E+02  0.00000000000E+00 0.  1.
<mgrwt>
<rscale>  0 0.19055468E+04</rscale>
<asrwt>0</asrwt>
<pdfrwt beam="1">  1        4 0.38900381E+00 0.19055468E+04</pdfrwt>
<pdfrwt beam="2">  1       -3 0.55233006E-01 0.19055468E+04</pdfrwt>
<totfact> 0.56380185E-02</totfact>
</mgrwt>
</event>
<event>
12    7  0.1735955E-007  0.2091919E+04  0.7818608E-02  0.8564811E-01
          2   -1    0    0  501    0  0.00000000000E+00  0.00000000000E+00  0.35008164216E+04  0.35008164216E+04  0.00000000000E+00 0. -1.
         -1   -1    0    0    0  501 -0.00000000000E+00 -0.00000000000E+00 -0.31250748868E+03  0.31250748868E+03  0.00000000000E+00 0.  1.
         24    2    1    2    0    0 -0.67743744766E+02 -0.68175298006E+03  0.22214946356E+04  0.23260678523E+04  0.78593235230E+02 0.  0.
        254    2    1    2    0    0  0.67743744766E+02  0.68175298006E+03  0.96681429730E+03  0.14872560580E+04  0.89879049602E+03 0.  0.
         23    2    4    4    0    0 -0.38751780639E+03  0.16836997716E+03  0.45711295683E+03  0.62841966648E+03  0.86258462968E+02 0.  0.
         23    2    4    4    0    0  0.45526155115E+03  0.51338300290E+03  0.50970134047E+03  0.85883639150E+03  0.83542224438E+02 0.  0.
          2    1    3    3  502    0 -0.77515709795E+02 -0.56542306550E+03  0.19087941193E+04  0.19922868564E+04  0.00000000000E+00 0. -1.
         -1    1    3    3    0  502  0.97719650294E+01 -0.11632991456E+03  0.31270051629E+03  0.33378099588E+03  0.00000000000E+00 0.  1.
         13    1    5    5    0    0 -0.34099742754E+03  0.15877435031E+03  0.43765800284E+03  0.57709017264E+03  0.00000000000E+00 0.  1.
        -13    1    5    5    0    0 -0.46520378848E+02  0.95956268571E+01  0.19454953989E+02  0.51329493838E+02  0.00000000000E+00 0. -1.
          2    1    6    6  503    0  0.19801000695E+03  0.16252184231E+03  0.18990389228E+03  0.31888054250E+03  0.00000000000E+00 0. -1.
         -2    1    6    6    0  503  0.25725154421E+03  0.35086116058E+03  0.31979744819E+03  0.53995584900E+03  0.00000000000E+00 0.  1.
<mgrwt>
<rscale>  0 0.20919191E+04</rscale>
<asrwt>0</asrwt>
<pdfrwt beam="1">  1        2 0.53858711E+00 0.20919191E+04</pdfrwt>
<pdfrwt beam="2">  1       -1 0.48078078E-01 0.20919191E+04</pdfrwt>
<totfact> 0.37015585E+00</totfact>
</mgrwt>
</event>
<event>
12    7  0.1735955E-007  0.1989904E+04  0.7818608E-02  0.8611356E-01
          2   -1    0    0  501    0  0.00000000000E+00  0.00000000000E+00  0.28322028646E+04  0.28322028646E+04  0.00000000000E+00 0. -1.
         -1   -1    0    0    0  501 -0.00000000000E+00 -0.00000000000E+00 -0.34952621153E+03  0.34952621153E+03  0.00000000000E+00 0.  1.
         24    2    1    2    0    0 -0.25169198644E+03 -0.65131243023E+02 -0.20089519150E+03  0.33855941363E+03  0.81686374234E+02 0.  0.
        254    2    1    2    0    0  0.25169198644E+03  0.65131243023E+02  0.26835718446E+04  0.28431696625E+04  0.90247711878E+03 0.  0.
         23    2    4    4    0    0 -0.53305419671E+02  0.42878782398E+03  0.15249104609E+04  0.15876840011E+04  0.93210019404E+02 0.  0.
         23    2    4    4    0    0  0.30499740611E+03 -0.36365658095E+03  0.11586613837E+04  0.12554856615E+04  0.92078865420E+02 0.  0.
          2    1    3    3  502    0 -0.46303609906E+02  0.18701975690E+02 -0.46910484354E+02  0.68515558287E+02  0.00000000000E+00 0. -1.
         -1    1    3    3    0  502 -0.20538837653E+03 -0.83833218713E+02 -0.15398470715E+03  0.27004385534E+03  0.00000000000E+00 0.  1.
         13    1    5    5    0    0 -0.77270183879E+02  0.30287304854E+03  0.10247767024E+04  0.10713869771E+04  0.00000000000E+00 0.  1.
        -13    1    5    5    0    0  0.23964764208E+02  0.12591477544E+03  0.50013375849E+03  0.51629702399E+03  0.00000000000E+00 0. -1.
          1    1    6    6  503    0  0.96768310272E+02 -0.57222098548E+02  0.24478436587E+03  0.26936566264E+03  0.00000000000E+00 0. -1.
         -1    1    6    6    0  503  0.20822909583E+03 -0.30643448240E+03  0.91387701784E+03  0.98611999883E+03  0.00000000000E+00 0.  1.
<mgrwt>
<rscale>  0 0.19899037E+04</rscale>
<asrwt>0</asrwt>
<pdfrwt beam="1">  1        2 0.43572350E+00 0.19899037E+04</pdfrwt>
<pdfrwt beam="2">  1       -1 0.53773265E-01 0.19899037E+04</pdfrwt>
<totfact> 0.81802114E+00</totfact>
</mgrwt>
</event>
<event>
12    7  0.1735955E-007  0.2191648E+04  0.7818608E-02  0.8521912E-01
         -1   -1    0    0    0  501 -0.00000000000E+00  0.00000000000E+00  0.15216449238E+04  0.15216449238E+04  0.00000000000E+00 0.  1.
          2   -1    0    0  501    0  0.00000000000E+00 -0.00000000000E+00 -0.78916601255E+03  0.78916601255E+03  0.00000000000E+00 0. -1.
         24    2    1    2    0    0  0.38983545005E+03 -0.14669938152E+03 -0.54740873316E+03  0.69246585654E+03  0.79751204857E+02 0.  0.
        254    2    1    2    0    0 -0.38983545005E+03  0.14669938152E+03  0.12798876444E+04  0.16183450798E+04  0.89857444229E+03 0.  0.
         23    2    4    4    0    0 -0.41273457897E+03  0.34642135104E+03  0.12860119997E+04  0.13973328384E+04  0.91403571241E+02 0.  0.
         23    2    4    4    0    0  0.22899128915E+02 -0.19972196953E+03 -0.61243553310E+01  0.22101224134E+03  0.91627877190E+02 0.  0.
          2    1    3    3  502    0  0.24428948921E+03 -0.74375591141E+02 -0.27516496390E+03  0.37539957439E+03  0.00000000000E+00 0. -1.
         -1    1    3    3    0  502  0.14554596084E+03 -0.72323790377E+02 -0.27224376927E+03  0.31706628215E+03  0.00000000000E+00 0.  1.
         13    1    5    5    0    0 -0.36293032204E+03  0.26938862220E+03  0.11180614184E+04  0.12059643377E+04  0.00000000000E+00 0.  1.
        -13    1    5    5    0    0 -0.49804256924E+02  0.77032728840E+02  0.16795058131E+03  0.19136850076E+03  0.00000000000E+00 0. -1.
          4    1    6    6  503    0 -0.33700571892E+02 -0.10809543306E+03 -0.36050006084E+01  0.11328436443E+03  0.00000000000E+00 0. -1.
         -4    1    6    6    0  503  0.56599700807E+02 -0.91626536462E+02 -0.25193547226E+01  0.10772787691E+03  0.00000000000E+00 0.  1.
<mgrwt>
<rscale>  0 0.21916482E+04</rscale>
<asrwt>0</asrwt>
<pdfrwt beam="1">  1        2 0.12141016E+00 0.21916482E+04</pdfrwt>
<pdfrwt beam="2">  1       -1 0.23409922E+00 0.21916482E+04</pdfrwt>
<totfact> 0.32457400E+00</totfact>
</mgrwt>
</event>
<event>
12    7  0.1735955E-007  0.1413359E+04  0.7818608E-02  0.8944205E-01
          2   -1    0    0  501    0  0.00000000000E+00  0.00000000000E+00  0.16577299731E+04  0.16577299731E+04  0.00000000000E+00 0. -1.
         -1   -1    0    0    0  501 -0.00000000000E+00 -0.00000000000E+00 -0.30125304562E+03  0.30125304562E+03  0.00000000000E+00 0.  1.
         24    2    1    2    0    0  0.35802591521E+03  0.22565428432E+03  0.48965291222E+03  0.65213244524E+03  0.80089572915E+02 0.  0.
        254    2    1    2    0    0 -0.35802591521E+03 -0.22565428432E+03  0.86682401527E+03  0.13068505735E+04  0.88168709642E+03 0.  0.
         23    2    4    4    0    0 -0.54872090037E+03 -0.41274675744E+03  0.57409163456E+03  0.89952188927E+03  0.90021731340E+02 0.  0.
         23    2    4    4    0    0  0.19069498516E+03  0.18709247312E+03  0.29273238071E+03  0.40732868423E+03  0.94107594894E+02 0.  0.
          2    1    3    3  502    0  0.30126029457E+03  0.17572484155E+03  0.35467171510E+03  0.49742236632E+03  0.00000000000E+00 0. -1.
         -1    1    3    3    0  502  0.56765620636E+02  0.49929442768E+02  0.13498119713E+03  0.15471007892E+03  0.00000000000E+00 0.  1.
         13    1    5    5    0    0 -0.53165659774E+03 -0.39775651012E+03  0.57256852887E+03  0.87675749185E+03  0.00000000000E+00 0. -1.
        -13    1    5    5    0    0 -0.17064302625E+02 -0.14990247317E+02  0.15231056986E+01  0.22764397415E+02  0.00000000000E+00 0.  1.
          2    1    6    6  503    0  0.18437871767E+03  0.16027336446E+03  0.21707278456E+03  0.32680828735E+03  0.00000000000E+00 0. -1.
         -2    1    6    6    0  503  0.63162674953E+01  0.26819108658E+02  0.75659596146E+02  0.80520396877E+02  0.00000000000E+00 0.  1.
<mgrwt>
<rscale>  0 0.14133594E+04</rscale>
<asrwt>0</asrwt>
<pdfrwt beam="1">  1        2 0.25503537E+00 0.14133594E+04</pdfrwt>
<pdfrwt beam="2">  1       -1 0.46346624E-01 0.14133594E+04</pdfrwt>
<totfact> 0.53146877E+01</totfact>
</mgrwt>
</event>
<event>
12    7  0.1735955E-007  0.2151116E+04  0.7818608E-02  0.8539055E-01
         -1   -1    0    0    0  501 -0.00000000000E+00  0.00000000000E+00  0.12578490424E+04  0.12578490424E+04  0.00000000000E+00 0.  1.
          2   -1    0    0  501    0  0.00000000000E+00 -0.00000000000E+00 -0.91968507196E+03  0.91968507196E+03  0.00000000000E+00 0. -1.
         24    2    1    2    0    0  0.76599573352E+03 -0.75917528410E+02 -0.32519412692E+03  0.83939400434E+03  0.79486724975E+02 0.  0.
        254    2    1    2    0    0 -0.76599573352E+03  0.75917528410E+02  0.66335809741E+03  0.13381401101E+04  0.87066759092E+03 0.  0.
         23    2    4    4    0    0 -0.56391892603E+03  0.18966544298E+03 -0.28295049984E+02  0.60311685922E+03  0.94719589421E+02 0.  0.
         23    2    4    4    0    0 -0.20207680749E+03 -0.11374791457E+03  0.69165314740E+03  0.73502325085E+03  0.90008215089E+02 0.  0.
          2    1    3    3  502    0  0.10931334517E+03 -0.19024364487E+02 -0.77071682378E+02  0.13509766135E+03  0.00000000000E+00 0. -1.
         -1    1    3    3    0  502  0.65668238835E+03 -0.56893163923E+02 -0.24812244454E+03  0.70429634299E+03  0.00000000000E+00 0.  1.
         13    1    5    5    0    0 -0.66378041570E+02  0.28528731432E+02 -0.34573808259E+02  0.80095450167E+02  0.00000000000E+00 0.  1.
        -13    1    5    5    0    0 -0.49754088446E+03  0.16113671155E+03  0.62787582760E+01  0.52302140905E+03  0.00000000000E+00 0. -1.
          3    1    6    6  503    0 -0.14038241139E+03 -0.95035014593E+02  0.59623424611E+03  0.61986623691E+03  0.00000000000E+00 0. -1.
         -3    1    6    6    0  503 -0.61694396097E+02 -0.18712899981E+02  0.95418901286E+02  0.11515701393E+03  0.00000000000E+00 0.  1.
<mgrwt>
<rscale>  0 0.21511160E+04</rscale>
<asrwt>0</asrwt>
<pdfrwt beam="1">  1        2 0.14149001E+00 0.21511160E+04</pdfrwt>
<pdfrwt beam="2">  1       -1 0.19351524E+00 0.21511160E+04</pdfrwt>
<totfact> 0.49703324E+00</totfact>
</mgrwt>
</event>
<event>
12    7  0.1735955E-007  0.1550239E+04  0.7818608E-02  0.8851715E-01
          2   -1    0    0  501    0  0.00000000000E+00  0.00000000000E+00  0.13850572382E+04  0.13850572382E+04  0.00000000000E+00 0. -1.
         -1   -1    0    0    0  501 -0.00000000000E+00 -0.00000000000E+00 -0.43377991903E+03  0.43377991903E+03  0.00000000000E+00 0.  1.
         24    2    1    2    0    0  0.28186119127E+03  0.35496779679E+03  0.23220126713E+03  0.51571240100E+03  0.81203350790E+02 0.  0.
        254    2    1    2    0    0 -0.28186119127E+03 -0.35496779679E+03  0.71907605207E+03  0.13031247563E+04  0.98773270365E+03 0.  0.
         23    2    4    4    0    0 -0.18625556033E+03 -0.54477596102E+03  0.85549556143E+03  0.10351601970E+04  0.90620065883E+02 0.  0.
         23    2    4    4    0    0 -0.95605630948E+02  0.18980816424E+03 -0.13641950936E+03  0.26796455929E+03  0.89594344821E+02 0.  0.
          4    1    3    3  502    0  0.27036592076E+03  0.34563721902E+03  0.20412793107E+03  0.48397420440E+03  0.00000000000E+00 0. -1.
         -3    1    3    3    0  502  0.11495270516E+02  0.93305777677E+01  0.28073336058E+02  0.31738196596E+02  0.00000000000E+00 0.  1.
         13    1    5    5    0    0 -0.15784062534E+03 -0.42346941981E+03  0.72820912758E+03  0.85704640832E+03  0.00000000000E+00 0. -1.
        -13    1    5    5    0    0 -0.28414934990E+02 -0.12130654122E+03  0.12728643385E+03  0.17811378867E+03  0.00000000000E+00 0.  1.
          2    1    6    6  503    0 -0.96033501462E+02  0.14404046194E+03 -0.68751166264E+02  0.18627080002E+03  0.00000000000E+00 0.  1.
         -2    1    6    6    0  503  0.42787051359E+00  0.45767702298E+02 -0.67668343091E+02  0.81693759269E+02  0.00000000000E+00 0. -1.
<mgrwt>
<rscale>  0 0.15502387E+04</rscale>
<asrwt>0</asrwt>
<pdfrwt beam="1">  1        2 0.21308573E+00 0.15502387E+04</pdfrwt>
<pdfrwt beam="2">  1       -1 0.66735373E-01 0.15502387E+04</pdfrwt>
<totfact> 0.36835322E+01</totfact>
</mgrwt>
</event>
<event>
12    7  0.1735955E-007  0.1627953E+04  0.7818608E-02  0.8803557E-01
          2   -1    0    0  501    0  0.00000000000E+00  0.00000000000E+00  0.28826796749E+04  0.28826796749E+04  0.00000000000E+00 0. -1.
         -1   -1    0    0    0  501 -0.00000000000E+00 -0.00000000000E+00 -0.22984080721E+03  0.22984080721E+03  0.00000000000E+00 0.  1.
         24    2    1    2    0    0  0.29700271829E+02  0.45849839317E+03  0.31873335592E+03  0.56499034410E+03  0.80748090187E+02 0.  0.
        254    2    1    2    0    0 -0.29700271829E+02 -0.45849839317E+03  0.23341055118E+04  0.25475301380E+04  0.91145947871E+03 0.  0.
         23    2    4    4    0    0 -0.32972964198E+03 -0.34812897956E+03  0.56169785989E+03  0.74421962442E+03  0.91885474162E+02 0.  0.
         23    2    4    4    0    0  0.30002937015E+03 -0.11036941362E+03  0.17724076519E+04  0.18033105136E+04  0.91109239795E+02 0.  0.
          2    1    3    3  502    0 -0.25075683311E+02  0.12580231696E+03  0.10509025687E+03  0.16582814880E+03  0.00000000000E+00 0. -1.
         -1    1    3    3    0  502  0.54775955139E+02  0.33269607621E+03  0.21364309905E+03  0.39916219530E+03  0.00000000000E+00 0.  1.
         13    1    5    5    0    0 -0.20411713616E+03 -0.22198426459E+03  0.28324909733E+03  0.41372801469E+03  0.00000000000E+00 0. -1.
        -13    1    5    5    0    0 -0.12561250582E+03 -0.12614471496E+03  0.27844876257E+03  0.33049160974E+03  0.00000000000E+00 0.  1.
          4    1    6    6  503    0  0.20746473538E+03 -0.11803468119E+03  0.12163085218E+04  0.12395080567E+04  0.00000000000E+00 0. -1.
         -4    1    6    6    0  503  0.92564634765E+02  0.76652675697E+01  0.55609913006E+03  0.56380245689E+03  0.00000000000E+00 0.  1.
<mgrwt>
<rscale>  0 0.16279526E+04</rscale>
<asrwt>0</asrwt>
<pdfrwt beam="1">  1        2 0.44348915E+00 0.16279526E+04</pdfrwt>
<pdfrwt beam="2">  1       -1 0.35360126E-01 0.16279526E+04</pdfrwt>
<totfact> 0.17170086E+01</totfact>
</mgrwt>
</event>
<event>
12    7  0.1735955E-007  0.1116429E+04  0.7818608E-02  0.9189326E-01
         -1   -1    0    0    0  501 -0.00000000000E+00  0.00000000000E+00  0.24357200395E+03  0.24357200395E+03  0.00000000000E+00 0.  1.
          2   -1    0    0  501    0  0.00000000000E+00 -0.00000000000E+00 -0.12793061456E+04  0.12793061456E+04  0.00000000000E+00 0. -1.
         24    2    1    2    0    0  0.50370272408E+02  0.18473893444E+02 -0.42300094847E+03  0.43345195532E+03  0.77925259568E+02 0.  0.
        254    2    1    2    0    0 -0.50370272408E+02 -0.18473893444E+02 -0.61273319321E+03  0.10894261943E+04  0.89918241621E+03 0.  0.
         23    2    4    4    0    0 -0.43073777117E+03 -0.77186139766E+02 -0.51567539337E+03  0.68210148668E+03  0.88592319778E+02 0.  0.
         23    2    4    4    0    0  0.38036749876E+03  0.58712246322E+02 -0.97057799838E+02  0.40732470758E+03  0.91469333190E+02 0.  0.
          4    1    3    3  502    0  0.47486672400E+02 -0.46294514320E+01 -0.39087573927E+03  0.39377691582E+03  0.00000000000E+00 0. -1.
         -3    1    3    3    0  502  0.28836000086E+01  0.23103344876E+02 -0.32125209199E+02  0.39675039503E+02  0.00000000000E+00 0.  1.
         13    1    5    5    0    0  0.70328024253E+00  0.48002917003E+01 -0.16704221700E+02  0.17394494132E+02  0.00000000000E+00 0. -1.
        -13    1    5    5    0    0 -0.43144105142E+03 -0.81986431467E+02 -0.49897117167E+03  0.66470699255E+03  0.00000000000E+00 0.  1.
          2    1    6    6  503    0  0.32673010322E+03  0.25901019169E+02 -0.56736419802E+02  0.33262959050E+03  0.00000000000E+00 0.  1.
         -2    1    6    6    0  503  0.53637395541E+02  0.32811227153E+02 -0.40321380035E+02  0.74695117081E+02  0.00000000000E+00 0. -1.
<mgrwt>
<rscale>  0 0.11164285E+04</rscale>
<asrwt>0</asrwt>
<pdfrwt beam="1">  1        2 0.19681633E+00 0.11164285E+04</pdfrwt>
<pdfrwt beam="2">  1       -1 0.37472616E-01 0.11164285E+04</pdfrwt>
<totfact> 0.13172817E+02</totfact>
</mgrwt>
</event>
<event>
12    7  0.1735955E-007  0.2282396E+04  0.7818608E-02  0.8484895E-01
          2   -1    0    0  501    0  0.00000000000E+00  0.00000000000E+00  0.17549932225E+04  0.17549932225E+04  0.00000000000E+00 0. -1.
         -1   -1    0    0    0  501 -0.00000000000E+00 -0.00000000000E+00 -0.74207273517E+03  0.74207273517E+03  0.00000000000E+00 0.  1.
         24    2    1    2    0    0 -0.41730318029E+03 -0.86576091497E+03  0.42924489448E+03  0.10558416541E+04  0.82864424487E+02 0.  0.
        254    2    1    2    0    0  0.41730318029E+03  0.86576091497E+03  0.58367559284E+03  0.14412243036E+04  0.90153557302E+03 0.  0.
         23    2    4    4    0    0  0.38293203934E+03  0.76330584483E+03  0.80604465690E+03  0.11778512357E+04  0.91393571591E+02 0.  0.
         23    2    4    4    0    0  0.34371140955E+02  0.10245507014E+03 -0.22236906405E+03  0.26337306794E+03  0.90768692507E+02 0.  0.
          2    1    3    3  502    0 -0.32739446878E+03 -0.63868278848E+03  0.35414844678E+03  0.80032741103E+03  0.00000000000E+00 0. -1.
         -1    1    3    3    0  502 -0.89908711513E+02 -0.22707812649E+03  0.75096447702E+02  0.25551424303E+03  0.00000000000E+00 0.  1.
         13    1    5    5    0    0  0.31902676741E+03  0.60167622143E+03  0.68587317416E+03  0.96654765262E+03  0.00000000000E+00 0.  1.
        -13    1    5    5    0    0  0.63905271924E+02  0.16162962340E+03  0.12017148274E+03  0.21130358304E+03  0.00000000000E+00 0. -1.
          2    1    6    6  503    0  0.49876996036E+02  0.99228400699E+02 -0.22117247681E+03  0.24748990835E+03  0.00000000000E+00 0.  1.
         -2    1    6    6    0  503 -0.15505855080E+02  0.32266694404E+01 -0.11965872472E+01  0.15883159588E+02  0.00000000000E+00 0. -1.
<mgrwt>
<rscale>  0 0.22823958E+04</rscale>
<asrwt>0</asrwt>
<pdfrwt beam="1">  1        2 0.26999896E+00 0.22823958E+04</pdfrwt>
<pdfrwt beam="2">  1       -1 0.11416504E+00 0.22823958E+04</pdfrwt>
<totfact> 0.65996160E+00</totfact>
</mgrwt>
</event>
<event>
12    7  0.1735955E-007  0.1572567E+04  0.7818608E-02  0.8837580E-01
         -1   -1    0    0    0  501 -0.00000000000E+00  0.00000000000E+00  0.32069386292E+03  0.32069386292E+03  0.00000000000E+00 0.  1.
          2   -1    0    0  501    0  0.00000000000E+00 -0.00000000000E+00 -0.19278259109E+04  0.19278259109E+04  0.00000000000E+00 0. -1.
         24    2    1    2    0    0  0.12764973421E+03  0.36032340837E+03 -0.58884797139E+02  0.39445346157E+03  0.77451279827E+02 0.  0.
        254    2    1    2    0    0 -0.12764973421E+03 -0.36032340837E+03 -0.15482472509E+04  0.18540663123E+04  0.94570869045E+03 0.  0.
         23    2    4    4    0    0 -0.33242159859E+03 -0.38404078543E+03 -0.32530671503E+03  0.61067445280E+03  0.95432616933E+02 0.  0.
         23    2    4    4    0    0  0.20477186438E+03  0.23717377054E+02 -0.12229405358E+04  0.12433918595E+04  0.89138833224E+02 0.  0.
          2    1    3    3  502    0 -0.36502948440E+01  0.84080232638E+01 -0.13204645718E+02  0.16074270627E+02  0.00000000000E+00 0. -1.
         -1    1    3    3    0  502  0.13130002906E+03  0.35191538511E+03 -0.45680151420E+02  0.37837919095E+03  0.00000000000E+00 0.  1.
         13    1    5    5    0    0 -0.25878278982E+03 -0.28456949399E+03 -0.19605572257E+03  0.43172465248E+03  0.00000000000E+00 0.  1.
        -13    1    5    5    0    0 -0.73638808775E+02 -0.99471291442E+02 -0.12925099247E+03  0.17894980031E+03  0.00000000000E+00 0. -1.
          2    1    6    6  503    0  0.94285280495E+02  0.53752888354E+02 -0.52221734563E+03  0.53337608046E+03  0.00000000000E+00 0. -1.
         -2    1    6    6    0  503  0.11048658388E+03 -0.30035511301E+02 -0.70072319019E+03  0.71001577900E+03  0.00000000000E+00 0.  1.
<mgrwt>
<rscale>  0 0.15725672E+04</rscale>
<asrwt>0</asrwt>
<pdfrwt beam="1">  1        2 0.29658860E+00 0.15725672E+04</pdfrwt>
<pdfrwt beam="2">  1       -1 0.49337517E-01 0.15725672E+04</pdfrwt>
<totfact> 0.33028622E+01</totfact>
</mgrwt>
</event>
<event>
12    7  0.1735955E-007  0.2630633E+04  0.7818608E-02  0.8357870E-01
          2   -1    0    0  501    0  0.00000000000E+00  0.00000000000E+00  0.26123988194E+04  0.26123988194E+04  0.00000000000E+00 0. -1.
         -1   -1    0    0    0  501 -0.00000000000E+00 -0.00000000000E+00 -0.66224885849E+03  0.66224885849E+03  0.00000000000E+00 0.  1.
         24    2    1    2    0    0  0.38374787686E+03 -0.35015339343E+02  0.22269461924E+04  0.22614447430E+04  0.79714961638E+02 0.  0.
        254    2    1    2    0    0 -0.38374787686E+03  0.35015339343E+02 -0.27679623152E+03  0.10132029348E+04  0.89525165531E+03 0.  0.
         23    2    4    4    0    0 -0.19527057426E+03  0.44117790599E+03 -0.26136545405E+03  0.55602352871E+03  0.89898398215E+02 0.  0.
         23    2    4    4    0    0 -0.18847730260E+03 -0.40616256665E+03 -0.15430777461E+02  0.45717940609E+03  0.91011957035E+02 0.  0.
          4    1    3    3  502    0  0.21615493470E+03 -0.25408755453E+02  0.10265831528E+04  0.10494005576E+04  0.00000000000E+00 0. -1.
         -3    1    3    3    0  502  0.16759294216E+03 -0.96065838891E+01  0.12003630396E+04  0.12120441855E+04  0.00000000000E+00 0.  1.
         13    1    5    5    0    0 -0.11892117643E+03  0.25295854887E+03 -0.10090486225E+03  0.29717345924E+03  0.00000000000E+00 0.  1.
        -13    1    5    5    0    0 -0.76349397829E+02  0.18821935712E+03 -0.16046059181E+03  0.25885006948E+03  0.00000000000E+00 0. -1.
          4    1    6    6  503    0 -0.17663563172E+02 -0.18720951047E+02  0.19536750277E+02  0.32313465977E+02  0.00000000000E+00 0.  1.
         -4    1    6    6    0  503 -0.17081373942E+03 -0.38744161560E+03 -0.34967527739E+02  0.42486594012E+03  0.00000000000E+00 0. -1.
<mgrwt>
<rscale>  0 0.26306335E+04</rscale>
<asrwt>0</asrwt>
<pdfrwt beam="1">  1        2 0.40190750E+00 0.26306335E+04</pdfrwt>
<pdfrwt beam="2">  1       -1 0.10188444E+00 0.26306335E+04</pdfrwt>
<totfact> 0.27404629E+00</totfact>
</mgrwt>
</event>
<event>
12    7  0.1735955E-007  0.1068882E+04  0.7818608E-02  0.9236064E-01
         -1   -1    0    0    0  501 -0.00000000000E+00  0.00000000000E+00  0.23900981786E+03  0.23900981786E+03  0.00000000000E+00 0.  1.
          2   -1    0    0  501    0  0.00000000000E+00 -0.00000000000E+00 -0.11950427533E+04  0.11950427533E+04  0.00000000000E+00 0. -1.
         24    2    1    2    0    0 -0.33595223187E+02 -0.40923443725E+02 -0.40377464184E+03  0.41453358579E+03  0.77464605406E+02 0.  0.
        254    2    1    2    0    0  0.33595223187E+02  0.40923443725E+02 -0.55225829364E+03  0.10195189854E+04  0.85535160690E+03 0.  0.
         23    2    4    4    0    0  0.85307728216E+02 -0.15695504502E+03 -0.71510041986E+03  0.74284030990E+03  0.92362442990E+02 0.  0.
         23    2    4    4    0    0 -0.51712505029E+02  0.19787848874E+03  0.16284212622E+03  0.27667867550E+03  0.90572909403E+02 0.  0.
          4    1    3    3  502    0 -0.57834292600E+01 -0.46094030947E+02 -0.35595219964E+03  0.35897085699E+03  0.00000000000E+00 0. -1.
         -3    1    3    3    0  502 -0.27811793927E+02  0.51705872219E+01 -0.47822442202E+02  0.55562728801E+02  0.00000000000E+00 0.  1.
         13    1    5    5    0    0  0.99312547501E+02 -0.10447701920E+03 -0.56886390916E+03  0.58684288935E+03  0.00000000000E+00 0. -1.
        -13    1    5    5    0    0 -0.14004819286E+02 -0.52478025815E+02 -0.14623651070E+03  0.15599742055E+03  0.00000000000E+00 0.  1.
          1    1    6    6  503    0 -0.59130699784E+00  0.10258295855E+03  0.12589819418E+03  0.16240064140E+03  0.00000000000E+00 0. -1.
         -1    1    6    6    0  503 -0.51121198031E+02  0.95295530191E+02  0.36943932048E+02  0.11427803410E+03  0.00000000000E+00 0.  1.
<mgrwt>
<rscale>  0 0.10688816E+04</rscale>
<asrwt>0</asrwt>
<pdfrwt beam="1">  1        2 0.18385273E+00 0.10688816E+04</pdfrwt>
<pdfrwt beam="2">  1       -1 0.36770742E-01 0.10688816E+04</pdfrwt>
<totfact> 0.15334511E+02</totfact>
</mgrwt>
</event>
<event>
12    7  0.1735955E-007  0.1258549E+04  0.7818608E-02  0.9063098E-01
         -1   -1    0    0    0  501 -0.00000000000E+00  0.00000000000E+00  0.28027677017E+03  0.28027677017E+03  0.00000000000E+00 0.  1.
          2   -1    0    0  501    0  0.00000000000E+00 -0.00000000000E+00 -0.14128405148E+04  0.14128405148E+04  0.00000000000E+00 0. -1.
         24    2    1    2    0    0  0.71617775255E+02 -0.56511423429E+02  0.10359727986E+03  0.15719355866E+03  0.75198216600E+02 0.  0.
        254    2    1    2    0    0 -0.71617775255E+02  0.56511423429E+02 -0.12361610245E+04  0.15359237263E+04  0.90699777721E+03 0.  0.
         23    2    4    4    0    0 -0.58426361510E+02 -0.41510154541E+03 -0.52969065372E+03  0.68161271047E+03  0.91108538070E+02 0.  0.
         23    2    4    4    0    0 -0.13191413745E+02  0.47161296884E+03 -0.70647037075E+03  0.85431101582E+03  0.90300172991E+02 0.  0.
          2    1    3    3  502    0 -0.15423933859E+02 -0.79589897502E+01  0.80764345772E+01  0.19143459693E+02  0.00000000000E+00 0. -1.
         -1    1    3    3    0  502  0.87041709114E+02 -0.48552433678E+02  0.95520845281E+02  0.13805009897E+03  0.00000000000E+00 0.  1.
         13    1    5    5    0    0 -0.74966188902E+02 -0.33887663772E+03 -0.39368826966E+03  0.52483117165E+03  0.00000000000E+00 0. -1.
        -13    1    5    5    0    0  0.16539827392E+02 -0.76224907690E+02 -0.13600238406E+03  0.15678153881E+03  0.00000000000E+00 0.  1.
          3    1    6    6  503    0  0.55234982992E+00  0.32386185735E+03 -0.40733289491E+03  0.52039109813E+03  0.00000000000E+00 0. -1.
         -3    1    6    6    0  503 -0.13743763575E+02  0.14775111149E+03 -0.29913747583E+03  0.33391991769E+03  0.00000000000E+00 0.  1.
<mgrwt>
<rscale>  0 0.12585490E+04</rscale>
<asrwt>0</asrwt>
<pdfrwt beam="1">  1        2 0.21736008E+00 0.12585490E+04</pdfrwt>
<pdfrwt beam="2">  1       -1 0.43119503E-01 0.12585490E+04</pdfrwt>
<totfact> 0.84479356E+01</totfact>
</mgrwt>
</event>
<event>
12    7  0.1735955E-007  0.1314562E+04  0.7818608E-02  0.9018096E-01
          4   -1    0    0  501    0  0.00000000000E+00  0.00000000000E+00  0.65256241966E+03  0.65256241966E+03  0.00000000000E+00 0. -1.
         -3   -1    0    0    0  501 -0.00000000000E+00 -0.00000000000E+00 -0.66203392704E+03  0.66203392704E+03  0.00000000000E+00 0.  1.
         24    2    1    2    0    0 -0.31077614101E+03  0.15783773021E+01  0.14669184116E+03  0.35302578980E+03  0.80773825591E+02 0.  0.
        254    2    1    2    0    0  0.31077614101E+03 -0.15783773021E+01 -0.15616334854E+03  0.96157055690E+03  0.89646340883E+03 0.  0.
         23    2    4    4    0    0  0.49876684734E+02  0.29416475848E+03 -0.38621071453E+03  0.49628326207E+03  0.90098675808E+02 0.  0.
         23    2    4    4    0    0  0.26089945628E+03 -0.29574313578E+03  0.23004736599E+03  0.46528729483E+03  0.89654600997E+02 0.  0.
          2    1    3    3  502    0 -0.30871457339E+03  0.12739975108E+02  0.14577276969E+03  0.34163825192E+03  0.00000000000E+00 0. -1.
         -3    1    3    3    0  502 -0.20615676216E+01 -0.11161597806E+02  0.91907147629E+00  0.11387537882E+02  0.00000000000E+00 0.  1.
         13    1    5    5    0    0  0.69251386880E+02  0.14025205428E+03 -0.20094653685E+03  0.25464858921E+03  0.00000000000E+00 0.  1.
        -13    1    5    5    0    0 -0.19374702146E+02  0.15391270420E+03 -0.18526417768E+03  0.24163467286E+03  0.00000000000E+00 0. -1.
          3    1    6    6  503    0  0.25550561569E+03 -0.25381412920E+03  0.19062313332E+03  0.40748240550E+03  0.00000000000E+00 0. -1.
         -3    1    6    6    0  503  0.53938405899E+01 -0.41929006582E+02  0.39424232669E+02  0.57804889333E+02  0.00000000000E+00 0.  1.
<mgrwt>
<rscale>  0 0.13145622E+04</rscale>
<asrwt>0</asrwt>
<pdfrwt beam="1">  1        4 0.10039422E+00 0.13145622E+04</pdfrwt>
<pdfrwt beam="2">  1       -3 0.10185137E+00 0.13145622E+04</pdfrwt>
<totfact> 0.15329966E+00</totfact>
</mgrwt>
</event>
<event>
12    7  0.1735955E-007  0.1892000E+04  0.7818608E-02  0.8658849E-01
         -1   -1    0    0    0  501 -0.00000000000E+00  0.00000000000E+00  0.66188488503E+03  0.66188488503E+03  0.00000000000E+00 0.  1.
          2   -1    0    0  501    0  0.00000000000E+00 -0.00000000000E+00 -0.13520724882E+04  0.13520724882E+04  0.00000000000E+00 0. -1.
         24    2    1    2    0    0  0.40882018986E+03  0.23392171486E+03 -0.86081574395E+03  0.98452235307E+03  0.80169834385E+02 0.  0.
        254    2    1    2    0    0 -0.40882018986E+03 -0.23392171486E+03  0.17062814077E+03  0.10294350202E+04  0.89931595228E+03 0.  0.
         23    2    4    4    0    0  0.26484453679E+03  0.38674094566E+02  0.56178063654E+02  0.28792730768E+03  0.90043575098E+02 0.  0.
         23    2    4    4    0    0 -0.67366472665E+03 -0.27259580943E+03  0.11445007711E+03  0.74150771249E+03  0.92748198289E+02 0.  0.
          2    1    3    3  502    0  0.25365760998E+03  0.16593507130E+03 -0.61953842062E+03  0.68971333583E+03  0.00000000000E+00 0. -1.
         -1    1    3    3    0  502  0.15516257988E+03  0.67986643557E+02 -0.24127732333E+03  0.29480901725E+03  0.00000000000E+00 0.  1.
         13    1    5    5    0    0  0.21834743111E+03 -0.49833023972E+01  0.38825439391E+02  0.22182842180E+03  0.00000000000E+00 0.  1.
        -13    1    5    5    0    0  0.46497105683E+02  0.43657396963E+02  0.17352624263E+02  0.66098885885E+02  0.00000000000E+00 0. -1.
          2    1    6    6  503    0 -0.28370133172E+03 -0.11165119941E+03  0.19202060400E+01  0.30488706621E+03  0.00000000000E+00 0. -1.
         -2    1    6    6    0  503 -0.38996339493E+03 -0.16094461002E+03  0.11252987107E+03  0.43662064628E+03  0.00000000000E+00 0.  1.
<mgrwt>
<rscale>  0 0.18920004E+04</rscale>
<asrwt>0</asrwt>
<pdfrwt beam="1">  1        2 0.20801115E+00 0.18920004E+04</pdfrwt>
<pdfrwt beam="2">  1       -1 0.10182844E+00 0.18920004E+04</pdfrwt>
<totfact> 0.15057945E+01</totfact>
</mgrwt>
</event>
<event>
12    7  0.1735955E-007  0.2812095E+04  0.7818608E-02  0.8299523E-01
          2   -1    0    0  501    0  0.00000000000E+00  0.00000000000E+00  0.16951790277E+04  0.16951790277E+04  0.00000000000E+00 0. -1.
         -1   -1    0    0    0  501 -0.00000000000E+00 -0.00000000000E+00 -0.11662302762E+04  0.11662302762E+04  0.00000000000E+00 0.  1.
         24    2    1    2    0    0  0.24345561341E+03  0.83572795512E+03 -0.68862222407E+03  0.11126899987E+04  0.78527797570E+02 0.  0.
        254    2    1    2    0    0 -0.24345561341E+03 -0.83572795512E+03  0.12175709756E+04  0.17487193052E+04  0.90433858544E+03 0.  0.
         23    2    4    4    0    0 -0.19280779563E+03  0.71660112088E+02 -0.33203905095E+01  0.22398679202E+03  0.88594809578E+02 0.  0.
         23    2    4    4    0    0 -0.50647817772E+02 -0.90738806721E+03  0.12208913661E+04  0.15247325132E+04  0.91187734766E+02 0.  0.
          2    1    3    3  502    0  0.37759239925E+02  0.10361874147E+03 -0.12121573784E+03  0.16387757285E+03  0.00000000000E+00 0. -1.
         -1    1    3    3    0  502  0.20569637348E+03  0.73210921365E+03 -0.56740648623E+03  0.94881242581E+03  0.00000000000E+00 0.  1.
         13    1    5    5    0    0 -0.46468326522E+02 -0.17877632024E+02  0.13553940728E+02  0.51600624084E+02  0.00000000000E+00 0. -1.
        -13    1    5    5    0    0 -0.14633946911E+03  0.89537744112E+02 -0.16874331238E+02  0.17238616793E+03  0.00000000000E+00 0.  1.
          3    1    6    6  503    0  0.12060166344E+02 -0.57409407252E+03  0.76632578166E+03  0.95759315753E+03  0.00000000000E+00 0. -1.
         -3    1    6    6    0  503 -0.62707984116E+02 -0.33329399469E+03  0.45456558446E+03  0.56713935567E+03  0.00000000000E+00 0.  1.
<mgrwt>
<rscale>  0 0.28120947E+04</rscale>
<asrwt>0</asrwt>
<pdfrwt beam="1">  1        2 0.26079677E+00 0.28120947E+04</pdfrwt>
<pdfrwt beam="2">  1       -1 0.17942004E+00 0.28120947E+04</pdfrwt>
<totfact> 0.20517841E+00</totfact>
</mgrwt>
</event>
<event>
12    7  0.1735955E-007  0.1742943E+04  0.7818608E-02  0.8737244E-01
          2   -1    0    0  501    0  0.00000000000E+00  0.00000000000E+00  0.86686844704E+03  0.86686844704E+03  0.00000000000E+00 0. -1.
         -1   -1    0    0    0  501 -0.00000000000E+00 -0.00000000000E+00 -0.87609945713E+03  0.87609945713E+03  0.00000000000E+00 0.  1.
         24    2    1    2    0    0  0.60723758219E+02 -0.51622300789E+03 -0.35459549353E+03  0.63416547040E+03  0.79084202807E+02 0.  0.
        254    2    1    2    0    0 -0.60723758219E+02  0.51622300789E+03  0.34536448344E+03  0.11088024338E+04  0.91651112487E+03 0.  0.
         23    2    4    4    0    0 -0.28593630183E+03  0.64030042570E+03  0.52316411620E+02  0.70866061867E+03  0.87855914240E+02 0.  0.
         23    2    4    4    0    0  0.22521254361E+03 -0.12407741781E+03  0.29304807182E+03  0.40014181510E+03  0.90113286361E+02 0.  0.
          4    1    3    3  502    0 -0.21440181363E+00 -0.61470189927E+02 -0.74590878375E+02  0.96656243225E+02  0.00000000000E+00 0. -1.
         -3    1    3    3    0  502  0.60938160032E+02 -0.45475281796E+03 -0.28000461515E+03  0.53750922718E+03  0.00000000000E+00 0.  1.
         13    1    5    5    0    0 -0.10537895815E+03  0.15521631009E+03  0.34515266301E+02  0.19075673342E+03  0.00000000000E+00 0.  1.
        -13    1    5    5    0    0 -0.18055734368E+03  0.48508411561E+03  0.17801145319E+02  0.51790388525E+03  0.00000000000E+00 0. -1.
          3    1    6    6  503    0  0.66010245602E+02 -0.43489099296E+02  0.15692628296E+03  0.17571144688E+03  0.00000000000E+00 0. -1.
         -3    1    6    6    0  503  0.15920229801E+03 -0.80588318516E+02  0.13612178886E+03  0.22443036821E+03  0.00000000000E+00 0.  1.
<mgrwt>
<rscale>  0 0.17429435E+04</rscale>
<asrwt>0</asrwt>
<pdfrwt beam="1">  1        2 0.13336438E+00 0.17429435E+04</pdfrwt>
<pdfrwt beam="2">  1       -1 0.13478453E+00 0.17429435E+04</pdfrwt>
<totfact> 0.15468281E+01</totfact>
</mgrwt>
</event>
<event>
12    7  0.1735955E-007  0.2290513E+04  0.7818608E-02  0.8481671E-01
         -1   -1    0    0    0  501 -0.00000000000E+00  0.00000000000E+00  0.13924500397E+04  0.13924500397E+04  0.00000000000E+00 0.  1.
          2   -1    0    0  501    0  0.00000000000E+00 -0.00000000000E+00 -0.94194588196E+03  0.94194588196E+03  0.00000000000E+00 0. -1.
         24    2    1    2    0    0 -0.77791750881E+03  0.31435055058E+03  0.67547001547E+03  0.10802878853E+04  0.82402997941E+02 0.  0.
        254    2    1    2    0    0  0.77791750881E+03 -0.31435055058E+03 -0.22496585771E+03  0.12541080364E+04  0.90454707489E+03 0.  0.
         23    2    4    4    0    0  0.60435655669E+03  0.13495804436E+03 -0.38985483883E+03  0.73702964301E+03  0.88121381991E+02 0.  0.
         23    2    4    4    0    0  0.17356095212E+03 -0.44930859493E+03  0.16488898112E+03  0.51707839340E+03  0.90443746289E+02 0.  0.
          2    1    3    3  502    0 -0.58607352233E+02  0.16495097588E+01  0.51210482412E+02  0.77846362324E+02  0.00000000000E+00 0. -1.
         -1    1    3    3    0  502 -0.71931015658E+03  0.31270104082E+03  0.62425953305E+03  0.10024415229E+04  0.00000000000E+00 0.  1.
         13    1    5    5    0    0  0.14891885636E+03  0.70473592101E+02 -0.87147816825E+02  0.18638158423E+03  0.00000000000E+00 0.  1.
        -13    1    5    5    0    0  0.45543770033E+03  0.64484452258E+02 -0.30270702201E+03  0.55064805878E+03  0.00000000000E+00 0. -1.
          3    1    6    6  503    0 -0.10229370715E+02 -0.12326721794E+02  0.49412289211E+01  0.16763169111E+02  0.00000000000E+00 0. -1.
         -3    1    6    6    0  503  0.18379032283E+03 -0.43698187314E+03  0.15994775219E+03  0.50031522429E+03  0.00000000000E+00 0.  1.
<mgrwt>
<rscale>  0 0.22905131E+04</rscale>
<asrwt>0</asrwt>
<pdfrwt beam="1">  1        2 0.14491475E+00 0.22905131E+04</pdfrwt>
<pdfrwt beam="2">  1       -1 0.21422308E+00 0.22905131E+04</pdfrwt>
<totfact> 0.34228854E+00</totfact>
</mgrwt>
</event>
<event>
12    7  0.1735955E-007  0.2025199E+04  0.7818608E-02  0.8594929E-01
         -1   -1    0    0    0  501 -0.00000000000E+00  0.00000000000E+00  0.67432918236E+03  0.67432918236E+03  0.00000000000E+00 0.  1.
          2   -1    0    0  501    0  0.00000000000E+00 -0.00000000000E+00 -0.15205603765E+04  0.15205603765E+04  0.00000000000E+00 0. -1.
         24    2    1    2    0    0  0.28624528794E+03  0.73594891755E+03 -0.54112016246E+03  0.96065961355E+03  0.80614445144E+02 0.  0.
        254    2    1    2    0    0 -0.28624528794E+03 -0.73594891755E+03 -0.30511103168E+03  0.12342299453E+04  0.89815012226E+03 0.  0.
         23    2    4    4    0    0 -0.28678491571E+03 -0.92687273621E+03 -0.19628943851E+03  0.99397642151E+03  0.90116179705E+02 0.  0.
         23    2    4    4    0    0  0.53962776612E+00  0.19092381866E+03 -0.10882159316E+03  0.24025352379E+03  0.97094906279E+02 0.  0.
          4    1    3    3  502    0  0.22246324593E+03  0.63253125771E+03 -0.48026948371E+03  0.82476934033E+03  0.00000000000E+00 0. -1.
         -3    1    3    3    0  502  0.63782042008E+02  0.10341765984E+03 -0.60850678753E+02  0.13589027321E+03  0.00000000000E+00 0.  1.
         13    1    5    5    0    0 -0.12629726873E+03 -0.28918087091E+03 -0.87472215565E+02  0.32745681346E+03  0.00000000000E+00 0. -1.
        -13    1    5    5    0    0 -0.16048764698E+03 -0.63769186530E+03 -0.10881722295E+03  0.66651960805E+03  0.00000000000E+00 0.  1.
          3    1    6    6  503    0 -0.55869816375E+01  0.52067394735E+02  0.14610316077E+02  0.54366251427E+02  0.00000000000E+00 0. -1.
         -3    1    6    6    0  503  0.61266094036E+01  0.13885642392E+03 -0.12343190924E+03  0.18588727236E+03  0.00000000000E+00 0.  1.
<mgrwt>
<rscale>  0 0.20251995E+04</rscale>
<asrwt>0</asrwt>
<pdfrwt beam="1">  1        2 0.23393236E+00 0.20251995E+04</pdfrwt>
<pdfrwt beam="2">  1       -1 0.10374295E+00 0.20251995E+04</pdfrwt>
<totfact> 0.11430922E+01</totfact>
</mgrwt>
</event>
<event>
12    7  0.1735955E-007  0.2133870E+04  0.7818608E-02  0.8546469E-01
          2   -1    0    0  501    0  0.00000000000E+00  0.00000000000E+00  0.14070573889E+04  0.14070573889E+04  0.00000000000E+00 0. -1.
         -1   -1    0    0    0  501 -0.00000000000E+00 -0.00000000000E+00 -0.80902873693E+03  0.80902873693E+03  0.00000000000E+00 0.  1.
         24    2    1    2    0    0 -0.99041439390E+02  0.31605854675E+03  0.10861801266E+04  0.11385724613E+04  0.82811655887E+02 0.  0.
        254    2    1    2    0    0  0.99041439390E+02 -0.31605854675E+03 -0.48815147461E+03  0.10775136646E+04  0.90168820753E+03 0.  0.
         23    2    4    4    0    0  0.42275136919E+03 -0.17358156159E+03 -0.53411622089E+03  0.70908293355E+03  0.93108488079E+02 0.  0.
         23    2    4    4    0    0 -0.32370992980E+03 -0.14247698516E+03  0.45964746279E+02  0.36843073108E+03  0.92415560082E+02 0.  0.
          2    1    3    3  502    0 -0.11245628239E+03  0.29557003948E+03  0.98763000891E+03  0.10370251194E+04  0.00000000000E+00 0. -1.
         -1    1    3    3    0  502  0.13414843001E+02  0.20488507274E+02  0.98550117723E+02  0.10154734190E+03  0.00000000000E+00 0.  1.
         13    1    5    5    0    0  0.24548559946E+03 -0.85961379652E+02 -0.36907960195E+03  0.45152219316E+03  0.00000000000E+00 0. -1.
        -13    1    5    5    0    0  0.17726576973E+03 -0.87620181937E+02 -0.16503661894E+03  0.25756074039E+03  0.00000000000E+00 0.  1.
          2    1    6    6  503    0 -0.21027022015E+03 -0.13770538882E+03  0.41903835294E+02  0.25481811357E+03  0.00000000000E+00 0. -1.
         -2    1    6    6    0  503 -0.11343970966E+03 -0.47715963453E+01  0.40609109853E+01  0.11361261751E+03  0.00000000000E+00 0.  1.
<mgrwt>
<rscale>  0 0.21338696E+04</rscale>
<asrwt>0</asrwt>
<pdfrwt beam="1">  1        2 0.21647037E+00 0.21338696E+04</pdfrwt>
<pdfrwt beam="2">  1       -1 0.12446596E+00 0.21338696E+04</pdfrwt>
<totfact> 0.84924847E+00</totfact>
</mgrwt>
</event>
<event>
12    7  0.1735955E-007  0.2891095E+04  0.7818608E-02  0.8275532E-01
         -1   -1    0    0    0  501 -0.00000000000E+00  0.00000000000E+00  0.10992629551E+04  0.10992629551E+04  0.00000000000E+00 0.  1.
          2   -1    0    0  501    0  0.00000000000E+00 -0.00000000000E+00 -0.19009173825E+04  0.19009173825E+04  0.00000000000E+00 0. -1.
         24    2    1    2    0    0  0.38721475591E+03 -0.35544872553E+03 -0.15785679006E+04  0.16654953907E+04  0.75625498135E+02 0.  0.
        254    2    1    2    0    0 -0.38721475591E+03  0.35544872553E+03  0.77691347322E+03  0.13346849470E+04  0.94947896190E+03 0.  0.
         23    2    4    4    0    0  0.25031021936E+03  0.35124202976E+03  0.31650156715E+03  0.54297208105E+03  0.92840020547E+02 0.  0.
         23    2    4    4    0    0 -0.63752497527E+03  0.42066957753E+01  0.46041190607E+03  0.79171286590E+03  0.91511465912E+02 0.  0.
          4    1    3    3  502    0  0.38435275797E+03 -0.33472142707E+03 -0.15283571158E+04  0.16110992985E+04  0.00000000000E+00 0. -1.
         -3    1    3    3    0  502  0.28619979442E+01 -0.20727298457E+02 -0.50210784773E+02  0.54396092149E+02  0.00000000000E+00 0.  1.
         13    1    5    5    0    0  0.88460386614E+02  0.18331229015E+03  0.18594199168E+03  0.27568652486E+03  0.00000000000E+00 0. -1.
        -13    1    5    5    0    0  0.16184983275E+03  0.16792973961E+03  0.13055957547E+03  0.26728555620E+03  0.00000000000E+00 0.  1.
          3    1    6    6  503    0 -0.25681933959E+03 -0.40650083207E+02  0.20450962110E+03  0.33080626895E+03  0.00000000000E+00 0. -1.
         -3    1    6    6    0  503 -0.38070563568E+03  0.44856778982E+02  0.25590228497E+03  0.46090659696E+03  0.00000000000E+00 0.  1.
<mgrwt>
<rscale>  0 0.28910953E+04</rscale>
<asrwt>0</asrwt>
<pdfrwt beam="1">  1        2 0.29244882E+00 0.28910953E+04</pdfrwt>
<pdfrwt beam="2">  1       -1 0.16911738E+00 0.28910953E+04</pdfrwt>
<totfact> 0.18617212E+00</totfact>
</mgrwt>
</event>
<event>
12    7  0.1735955E-007  0.3035750E+04  0.7818608E-02  0.8233595E-01
         -1   -1    0    0    0  501 -0.00000000000E+00  0.00000000000E+00  0.92254643713E+03  0.92254643713E+03  0.00000000000E+00 0.  1.
          2   -1    0    0  501    0  0.00000000000E+00 -0.00000000000E+00 -0.24973747325E+04  0.24973747325E+04  0.00000000000E+00 0. -1.
         24    2    1    2    0    0  0.36653163221E+03  0.35026703361E+03 -0.21685068201E+04  0.22284663085E+04  0.81288542713E+02 0.  0.
        254    2    1    2    0    0 -0.36653163221E+03 -0.35026703361E+03  0.59367852475E+03  0.11914548611E+04  0.90004336729E+03 0.  0.
         23    2    4    4    0    0 -0.51545029006E+02  0.10572995663E+03  0.61215498141E+03  0.62981316276E+03  0.89973245850E+02 0.  0.
         23    2    4    4    0    0 -0.31498660320E+03 -0.45599699024E+03 -0.18476456666E+02  0.56164169833E+03  0.89163908280E+02 0.  0.
          2    1    3    3  502    0  0.23662031125E+03  0.17491955395E+03 -0.11765948585E+04  0.12128320094E+04  0.00000000000E+00 0. -1.
         -1    1    3    3    0  502  0.12991132096E+03  0.17534747966E+03 -0.99191196163E+03  0.10156342991E+04  0.00000000000E+00 0.  1.
         13    1    5    5    0    0 -0.42979972267E+02  0.11192722513E+03  0.40463955008E+03  0.42202860949E+03  0.00000000000E+00 0. -1.
        -13    1    5    5    0    0 -0.85650567391E+01 -0.61972685006E+01  0.20751543134E+03  0.20778455327E+03  0.00000000000E+00 0.  1.
          4    1    6    6  503    0 -0.10838285131E+03 -0.97932815949E+02  0.15279885401E+02  0.14687121500E+03  0.00000000000E+00 0. -1.
         -4    1    6    6    0  503 -0.20660375190E+03 -0.35806417429E+03 -0.33756342068E+02  0.41477048333E+03  0.00000000000E+00 0.  1.
<mgrwt>
<rscale>  0 0.30357498E+04</rscale>
<asrwt>0</asrwt>
<pdfrwt beam="1">  1        2 0.38421150E+00 0.30357498E+04</pdfrwt>
<pdfrwt beam="2">  1       -1 0.14193022E+00 0.30357498E+04</pdfrwt>
<totfact> 0.13699806E+00</totfact>
</mgrwt>
</event>
<event>
12    7  0.1735955E-007  0.1304749E+04  0.7818608E-02  0.9025808E-01
          2   -1    0    0  501    0  0.00000000000E+00  0.00000000000E+00  0.17687555926E+04  0.17687555926E+04  0.00000000000E+00 0. -1.
         -1   -1    0    0    0  501 -0.00000000000E+00 -0.00000000000E+00 -0.24061680374E+03  0.24061680374E+03  0.00000000000E+00 0.  1.
         24    2    1    2    0    0  0.27614324123E+01  0.11569059757E+03  0.91954573248E+03  0.93023569355E+03  0.79888369389E+02 0.  0.
        254    2    1    2    0    0 -0.27614324123E+01 -0.11569059757E+03  0.60859305643E+03  0.10791367028E+04  0.88360544090E+03 0.  0.
         23    2    4    4    0    0 -0.38077360098E+02  0.33997466615E+03  0.47882287107E+03  0.59545219050E+03  0.90880747848E+02 0.  0.
         23    2    4    4    0    0  0.35315927685E+02 -0.45566526372E+03  0.12977018535E+03  0.48368451233E+03  0.90732348999E+02 0.  0.
          4    1    3    3  502    0  0.20765108093E+02  0.11517510046E+03  0.67860531597E+03  0.68862302339E+03  0.00000000000E+00 0. -1.
         -1    1    3    3    0  502 -0.18003675681E+02  0.51549710773E+00  0.24094041651E+03  0.24161267016E+03  0.00000000000E+00 0.  1.
         13    1    5    5    0    0 -0.41933425423E+02  0.17213186239E+03  0.31189781671E+03  0.35870327332E+03  0.00000000000E+00 0.  1.
        -13    1    5    5    0    0  0.38560653259E+01  0.16784280375E+03  0.16692505436E+03  0.23674891718E+03  0.00000000000E+00 0. -1.
          4    1    6    6  503    0  0.44564189054E+00 -0.39507657667E+03  0.12122968735E+03  0.41325819669E+03  0.00000000000E+00 0. -1.
         -4    1    6    6    0  503  0.34870285795E+02 -0.60588687046E+02  0.85404979984E+01  0.70426315646E+02  0.00000000000E+00 0.  1.
<mgrwt>
<rscale>  0 0.13047487E+04</rscale>
<asrwt>0</asrwt>
<pdfrwt beam="1">  1        2 0.27211624E+00 0.13047487E+04</pdfrwt>
<pdfrwt beam="2">  1       -1 0.37017971E-01 0.13047487E+04</pdfrwt>
<totfact> 0.70317272E+01</totfact>
</mgrwt>
</event>
<event>
12    7  0.1735955E-007  0.1131764E+04  0.7818608E-02  0.9174774E-01
         -1   -1    0    0    0  501 -0.00000000000E+00  0.00000000000E+00  0.23209100974E+03  0.23209100974E+03  0.00000000000E+00 0.  1.
          2   -1    0    0  501    0  0.00000000000E+00 -0.00000000000E+00 -0.13797269261E+04  0.13797269261E+04  0.00000000000E+00 0. -1.
         24    2    1    2    0    0 -0.67052788774E+02 -0.54543223396E+02  0.37283364414E+02  0.12479233925E+03  0.81927034444E+02 0.  0.
        254    2    1    2    0    0  0.67052788774E+02  0.54543223396E+02 -0.11849192808E+04  0.14870255966E+04  0.89428204906E+03 0.  0.
         23    2    4    4    0    0 -0.71780466008E+01  0.42984746396E+03 -0.89899466713E+03  0.10006981117E+04  0.91569277530E+02 0.  0.
         23    2    4    4    0    0  0.74230835375E+02 -0.37530424057E+03 -0.28592461364E+03  0.48632748490E+03  0.91640864119E+02 0.  0.
          2    1    3    3  502    0  0.17848735975E+02 -0.10482423595E+01  0.11238533397E+02  0.21118257998E+02  0.00000000000E+00 0. -1.
         -1    1    3    3    0  502 -0.84901524750E+02 -0.53494981037E+02  0.26044831017E+02  0.10367408125E+03  0.00000000000E+00 0.  1.
         13    1    5    5    0    0 -0.33798306949E+02  0.23264383952E+03 -0.56439366097E+03  0.61139650487E+03  0.00000000000E+00 0. -1.
        -13    1    5    5    0    0  0.26620260348E+02  0.19720362444E+03 -0.33460100616E+03  0.38930160682E+03  0.00000000000E+00 0.  1.
          4    1    6    6  503    0  0.12997255895E+02 -0.23090409277E+03 -0.20863685064E+03  0.31147225264E+03  0.00000000000E+00 0.  1.
         -4    1    6    6    0  503  0.61233579480E+02 -0.14440014779E+03 -0.77287762997E+02  0.17485523226E+03  0.00000000000E+00 0. -1.
<mgrwt>
<rscale>  0 0.11317636E+04</rscale>
<asrwt>0</asrwt>
<pdfrwt beam="1">  1        2 0.21226568E+00 0.11317636E+04</pdfrwt>
<pdfrwt beam="2">  1       -1 0.35706309E-01 0.11317636E+04</pdfrwt>
<totfact> 0.12555572E+02</totfact>
</mgrwt>
</event>
<event>
12    7  0.1735955E-007  0.1657423E+04  0.7818608E-02  0.8786027E-01
          2   -1    0    0  501    0  0.00000000000E+00  0.00000000000E+00  0.84970646724E+03  0.84970646724E+03  0.00000000000E+00 0. -1.
         -1   -1    0    0    0  501 -0.00000000000E+00 -0.00000000000E+00 -0.80823503310E+03  0.80823503310E+03  0.00000000000E+00 0.  1.
         24    2    1    2    0    0  0.23986446804E+03 -0.45198522115E+03 -0.25891766997E+03  0.57890034684E+03  0.79130579377E+02 0.  0.
        254    2    1    2    0    0 -0.23986446804E+03  0.45198522115E+03  0.30038910410E+03  0.10790411535E+04  0.90126055829E+03 0.  0.
         23    2    4    4    0    0 -0.55119195441E+03  0.26446831397E+03  0.33259628482E+03  0.70228301585E+03  0.93941928779E+02 0.  0.
         23    2    4    4    0    0  0.31132748637E+03  0.18751690718E+03 -0.32207180713E+02  0.37675813765E+03  0.93925489355E+02 0.  0.
          4    1    3    3  502    0  0.14604334190E+03 -0.27884700681E+03 -0.11554736293E+03  0.33531403788E+03  0.00000000000E+00 0. -1.
         -3    1    3    3    0  502  0.93821126136E+02 -0.17313821433E+03 -0.14337030704E+03  0.24358630896E+03  0.00000000000E+00 0.  1.
         13    1    5    5    0    0 -0.26390142890E+03  0.17478115432E+03  0.15017711576E+03  0.35035065603E+03  0.00000000000E+00 0. -1.
        -13    1    5    5    0    0 -0.28729052550E+03  0.89687159649E+02  0.18241916906E+03  0.35193235982E+03  0.00000000000E+00 0.  1.
          2    1    6    6  503    0  0.10411283735E+03  0.16904564598E+02  0.59540788289E+01  0.10564420599E+03  0.00000000000E+00 0. -1.
         -2    1    6    6    0  503  0.20721464902E+03  0.17061234258E+03 -0.38161259542E+02  0.27111393166E+03  0.00000000000E+00 0.  1.
<mgrwt>
<rscale>  0 0.16574227E+04</rscale>
<asrwt>0</asrwt>
<pdfrwt beam="1">  1        2 0.13072407E+00 0.16574227E+04</pdfrwt>
<pdfrwt beam="2">  1       -1 0.12434385E+00 0.16574227E+04</pdfrwt>
<totfact> 0.19624492E+01</totfact>
</mgrwt>
</event>
<event>
12    7  0.1735955E-007  0.1608739E+04  0.7818608E-02  0.8815197E-01
          2   -1    0    0  501    0  0.00000000000E+00  0.00000000000E+00  0.43006916351E+03  0.43006916351E+03  0.00000000000E+00 0. -1.
         -1   -1    0    0    0  501 -0.00000000000E+00 -0.00000000000E+00 -0.15044326942E+04  0.15044326942E+04  0.00000000000E+00 0.  1.
         24    2    1    2    0    0 -0.26950369531E+03 -0.31199361148E+03 -0.78915960562E+03  0.89389853857E+03  0.79432101355E+02 0.  0.
        254    2    1    2    0    0  0.26950369531E+03  0.31199361148E+03 -0.28520392506E+03  0.10406033191E+04  0.91188910156E+03 0.  0.
         23    2    4    4    0    0  0.92993219059E+02  0.48717035197E+03 -0.49207321401E+03  0.70445944658E+03  0.90246181672E+02 0.  0.
         23    2    4    4    0    0  0.17651047625E+03 -0.17517674049E+03  0.20686928895E+03  0.33614387256E+03  0.91405479677E+02 0.  0.
          4    1    3    3  502    0 -0.94636360259E+02 -0.94890332783E+02 -0.18414390374E+03  0.22774809159E+03  0.00000000000E+00 0. -1.
         -3    1    3    3    0  502 -0.17486733505E+03 -0.21710327870E+03 -0.60501570189E+03  0.66615044698E+03  0.00000000000E+00 0.  1.
         13    1    5    5    0    0  0.27044660894E+02  0.35834081514E+03 -0.34780696931E+03  0.50010922945E+03  0.00000000000E+00 0.  1.
        -13    1    5    5    0    0  0.65948558165E+02  0.12882953683E+03 -0.14426624470E+03  0.20435021713E+03  0.00000000000E+00 0. -1.
          4    1    6    6  503    0 -0.10492813987E+02 -0.16640961724E+02  0.18043524334E+02  0.26694372494E+02  0.00000000000E+00 0. -1.
         -4    1    6    6    0  503  0.18700329024E+03 -0.15853577876E+03  0.18882576461E+03  0.30944950006E+03  0.00000000000E+00 0.  1.
<mgrwt>
<rscale>  0 0.16087388E+04</rscale>
<asrwt>0</asrwt>
<pdfrwt beam="1">  1        2 0.66164487E-01 0.16087388E+04</pdfrwt>
<pdfrwt beam="2">  1       -1 0.23145118E+00 0.16087388E+04</pdfrwt>
<totfact> 0.74107097E+00</totfact>
</mgrwt>
</event>
<event>
12    7  0.1735955E-007  0.1761807E+04  0.7818608E-02  0.8726878E-01
          2   -1    0    0  501    0  0.00000000000E+00  0.00000000000E+00  0.10884867859E+04  0.10884867859E+04  0.00000000000E+00 0. -1.
         -1   -1    0    0    0  501 -0.00000000000E+00 -0.00000000000E+00 -0.71290826912E+03  0.71290826912E+03  0.00000000000E+00 0.  1.
         24    2    1    2    0    0 -0.27615155770E+03 -0.58600410780E+03  0.20821776784E+03  0.68538068506E+03  0.82046008022E+02 0.  0.
        254    2    1    2    0    0  0.27615155770E+03  0.58600410780E+03  0.16736074896E+03  0.11160143700E+04  0.89320655871E+03 0.  0.
         23    2    4    4    0    0  0.34562408407E+03 -0.10956892985E+03  0.17018573412E+03  0.41093415090E+03  0.91882176686E+02 0.  0.
         23    2    4    4    0    0 -0.69472526373E+02  0.69557303765E+03 -0.28249851619E+01  0.70508021908E+03  0.92096971539E+02 0.  0.
          4    1    3    3  502    0 -0.61062071759E+02 -0.16306285907E+03  0.91700204730E+02  0.19679176854E+03  0.00000000000E+00 0. -1.
         -3    1    3    3    0  502 -0.21508948594E+03 -0.42294124873E+03  0.11651756311E+03  0.48858891653E+03  0.00000000000E+00 0.  1.
         13    1    5    5    0    0  0.26952959758E+03 -0.12364806037E+03  0.13901965144E+03  0.32750803088E+03  0.00000000000E+00 0.  1.
        -13    1    5    5    0    0  0.76094486491E+02  0.14079130519E+02  0.31166082688E+02  0.83426120014E+02  0.00000000000E+00 0. -1.
          4    1    6    6  503    0 -0.49626983962E+02  0.13700356627E+03 -0.10650252230E+02  0.14610353377E+03  0.00000000000E+00 0. -1.
         -4    1    6    6    0  503 -0.19845542411E+02  0.55856947138E+03  0.78252670680E+01  0.55897668531E+03  0.00000000000E+00 0.  1.
<mgrwt>
<rscale>  0 0.17618073E+04</rscale>
<asrwt>0</asrwt>
<pdfrwt beam="1">  1        2 0.16745951E+00 0.17618073E+04</pdfrwt>
<pdfrwt beam="2">  1       -1 0.10967820E+00 0.17618073E+04</pdfrwt>
<totfact> 0.18385169E+01</totfact>
</mgrwt>
</event>
<event>
12    7  0.1735955E-007  0.1522493E+04  0.7818608E-02  0.8869632E-01
         -1   -1    0    0    0  501 -0.00000000000E+00  0.00000000000E+00  0.45656444508E+03  0.45656444508E+03  0.00000000000E+00 0.  1.
          2   -1    0    0  501    0  0.00000000000E+00 -0.00000000000E+00 -0.12692532262E+04  0.12692532262E+04  0.00000000000E+00 0. -1.
         24    2    1    2    0    0  0.15277128285E+02  0.14558728604E+03 -0.80867353877E+03  0.82567920432E+03  0.79775984052E+02 0.  0.
        254    2    1    2    0    0 -0.15277128285E+02 -0.14558728604E+03 -0.40152423677E+01  0.90013846698E+03  0.88814643447E+03 0.  0.
         23    2    4    4    0    0 -0.25426847864E+02  0.12449659131E+03 -0.38994163123E+03  0.42003356735E+03  0.90707199810E+02 0.  0.
         23    2    4    4    0    0  0.10149719579E+02 -0.27008387735E+03  0.38592638886E+03  0.48010489962E+03  0.92267109023E+02 0.  0.
          4    1    3    3  502    0  0.24511785804E+02  0.17903109081E+02 -0.28382997171E+03  0.28544842231E+03  0.00000000000E+00 0. -1.
         -3    1    3    3    0  502 -0.92346575197E+01  0.12768417696E+03 -0.52484356706E+03  0.54023078201E+03  0.00000000000E+00 0.  1.
         13    1    5    5    0    0 -0.59356185644E+02  0.85933606602E+02 -0.24855381101E+03  0.26960478201E+03  0.00000000000E+00 0.  1.
        -13    1    5    5    0    0  0.33929337780E+02  0.38562984704E+02 -0.14138782022E+03  0.15042878534E+03  0.00000000000E+00 0. -1.
          4    1    6    6  503    0 -0.25079843424E+02 -0.16236667696E+03  0.28183182422E+03  0.32622249075E+03  0.00000000000E+00 0. -1.
         -4    1    6    6    0  503  0.35229563004E+02 -0.10771720039E+03  0.10409456465E+03  0.15388240887E+03  0.00000000000E+00 0.  1.
<mgrwt>
<rscale>  0 0.15224926E+04</rscale>
<asrwt>0</asrwt>
<pdfrwt beam="1">  1        2 0.19526973E+00 0.15224926E+04</pdfrwt>
<pdfrwt beam="2">  1       -1 0.70240684E-01 0.15224926E+04</pdfrwt>
<totfact> 0.38822276E+01</totfact>
</mgrwt>
</event>
<event>
12    7  0.1735955E-007  0.1584664E+04  0.7818608E-02  0.8830025E-01
          2   -1    0    0  501    0  0.00000000000E+00  0.00000000000E+00  0.15118566829E+04  0.15118566829E+04  0.00000000000E+00 0. -1.
         -1   -1    0    0    0  501 -0.00000000000E+00 -0.00000000000E+00 -0.41524430825E+03  0.41524430825E+03  0.00000000000E+00 0.  1.
         24    2    1    2    0    0 -0.30777708516E+03 -0.37337914075E+03  0.93223625557E+02  0.49932708721E+03  0.80611281847E+02 0.  0.
        254    2    1    2    0    0  0.30777708516E+03  0.37337914075E+03  0.10033887490E+04  0.14277739039E+04  0.89309048928E+03 0.  0.
         23    2    4    4    0    0  0.42325415632E+03 -0.13712762529E+03  0.29084881810E+03  0.53906255293E+03  0.89706936855E+02 0.  0.
         23    2    4    4    0    0 -0.11547707117E+03  0.51050676604E+03  0.71253993095E+03  0.88871135097E+03  0.90236356337E+02 0.  0.
          2    1    3    3  502    0 -0.14555463236E+03 -0.23876770006E+03  0.47859106644E+02  0.28370170899E+03  0.00000000000E+00 0. -1.
         -1    1    3    3    0  502 -0.16222245279E+03 -0.13461144069E+03  0.45364518913E+02  0.21562537822E+03  0.00000000000E+00 0.  1.
         13    1    5    5    0    0  0.41834575866E+03 -0.14390880005E+03  0.29272758227E+03  0.53048313257E+03  0.00000000000E+00 0. -1.
        -13    1    5    5    0    0  0.49083976660E+01  0.67811747643E+01 -0.18787641774E+01  0.85794203572E+01  0.00000000000E+00 0.  1.
          4    1    6    6  503    0 -0.27153860934E+02  0.16459095680E+03  0.29897507400E+03  0.34236473256E+03  0.00000000000E+00 0.  1.
         -4    1    6    6    0  503 -0.88323210235E+02  0.34591580924E+03  0.41356485695E+03  0.54634661841E+03  0.00000000000E+00 0. -1.
<mgrwt>
<rscale>  0 0.15846639E+04</rscale>
<asrwt>0</asrwt>
<pdfrwt beam="1">  1        2 0.23259333E+00 0.15846639E+04</pdfrwt>
<pdfrwt beam="2">  1       -1 0.63883740E-01 0.15846639E+04</pdfrwt>
<totfact> 0.33978484E+01</totfact>
</mgrwt>
</event>
<event>
12    7  0.1735955E-007  0.1544484E+04  0.7818608E-02  0.8855399E-01
          2   -1    0    0  501    0  0.00000000000E+00  0.00000000000E+00  0.74246952852E+03  0.74246952852E+03  0.00000000000E+00 0. -1.
         -1   -1    0    0    0  501 -0.00000000000E+00 -0.00000000000E+00 -0.80320791163E+03  0.80320791163E+03  0.00000000000E+00 0.  1.
         24    2    1    2    0    0 -0.16522828168E+03  0.47324996391E+03 -0.82965428924E+02  0.51474373505E+03  0.82534459256E+02 0.  0.
        254    2    1    2    0    0  0.16522828168E+03 -0.47324996391E+03  0.22227045813E+02  0.10309337051E+04  0.90059111107E+03 0.  0.
         23    2    4    4    0    0 -0.26343646545E+03 -0.51943367210E+03  0.45298932695E+01  0.58943548130E+03  0.90573481976E+02 0.  0.
         23    2    4    4    0    0  0.42866474713E+03  0.46183708190E+02  0.17697152543E+02  0.44149822380E+03  0.93386787480E+02 0.  0.
          4    1    3    3  502    0 -0.37873249184E+01  0.75273817484E+02  0.78367417692E+01  0.75775365061E+02  0.00000000000E+00 0. -1.
         -3    1    3    3    0  502 -0.16144095676E+03  0.39797614643E+03 -0.90802170693E+02  0.43896836999E+03  0.00000000000E+00 0.  1.
         13    1    5    5    0    0 -0.20184384661E+03 -0.43952165115E+03 -0.25030716847E+02  0.48430027569E+03  0.00000000000E+00 0.  1.
        -13    1    5    5    0    0 -0.61592618847E+02 -0.79912020951E+02  0.29560610116E+02  0.10513520561E+03  0.00000000000E+00 0. -1.
          3    1    6    6  503    0  0.35979728477E+03  0.27064721794E+02 -0.18688325451E+02  0.36129743813E+03  0.00000000000E+00 0. -1.
         -3    1    6    6    0  503  0.68867462364E+02  0.19118986395E+02  0.36385477994E+02  0.80200785670E+02  0.00000000000E+00 0.  1.
<mgrwt>
<rscale>  0 0.15444836E+04</rscale>
<asrwt>0</asrwt>
<pdfrwt beam="1">  1        2 0.11422608E+00 0.15444836E+04</pdfrwt>
<pdfrwt beam="2">  1       -1 0.12357045E+00 0.15444836E+04</pdfrwt>
<totfact> 0.24066399E+01</totfact>
</mgrwt>
</event>
<event>
12    7  0.1735955E-007  0.1391331E+04  0.7818608E-02  0.8960118E-01
         -1   -1    0    0    0  501 -0.00000000000E+00  0.00000000000E+00  0.35131341070E+03  0.35131341070E+03  0.00000000000E+00 0.  1.
          2   -1    0    0  501    0  0.00000000000E+00 -0.00000000000E+00 -0.13775463878E+04  0.13775463878E+04  0.00000000000E+00 0. -1.
         24    2    1    2    0    0 -0.18089764914E+03  0.74083716442E+02  0.13454365660E+03  0.25034796072E+03  0.79748036973E+02 0.  0.
        254    2    1    2    0    0  0.18089764914E+03 -0.74083716442E+02 -0.11607766337E+04  0.14785118378E+04  0.89464099202E+03 0.  0.
         23    2    4    4    0    0 -0.31526824015E+03 -0.20734623544E+03 -0.56932212757E+03  0.68971229665E+03  0.95858450911E+02 0.  0.
         23    2    4    4    0    0  0.49616588928E+03  0.13326251900E+03 -0.59145450610E+03  0.78879954111E+03  0.91906444848E+02 0.  0.
          4    1    3    3  502    0 -0.92072489915E+02  0.15714588077E+02  0.22835868872E+02  0.96154919712E+02  0.00000000000E+00 0. -1.
         -3    1    3    3    0  502 -0.88825159221E+02  0.58369128365E+02  0.11170778773E+03  0.15419304101E+03  0.00000000000E+00 0.  1.
         13    1    5    5    0    0 -0.33854858237E+02 -0.59630672460E+01 -0.18045098234E+02  0.38824414581E+02  0.00000000000E+00 0.  1.
        -13    1    5    5    0    0 -0.28141338191E+03 -0.20138316820E+03 -0.55127702934E+03  0.65088788207E+03  0.00000000000E+00 0. -1.
          3    1    6    6  503    0  0.43358352837E+03  0.86392963259E+02 -0.47909565274E+03  0.65191338738E+03  0.00000000000E+00 0. -1.
         -3    1    6    6    0  503  0.62582360916E+02  0.46869555743E+02 -0.11235885336E+03  0.13688615373E+03  0.00000000000E+00 0.  1.
<mgrwt>
<rscale>  0 0.13913310E+04</rscale>
<asrwt>0</asrwt>
<pdfrwt beam="1">  1        2 0.21193022E+00 0.13913310E+04</pdfrwt>
<pdfrwt beam="2">  1       -1 0.54048216E-01 0.13913310E+04</pdfrwt>
<totfact> 0.57179881E+01</totfact>
</mgrwt>
</event>
<event>
12    7  0.1735955E-007  0.2656479E+04  0.7818608E-02  0.8349266E-01
          2   -1    0    0  501    0  0.00000000000E+00  0.00000000000E+00  0.22638804397E+04  0.22638804397E+04  0.00000000000E+00 0. -1.
         -1   -1    0    0    0  501 -0.00000000000E+00 -0.00000000000E+00 -0.77929017531E+03  0.77929017531E+03  0.00000000000E+00 0.  1.
         24    2    1    2    0    0  0.23062292604E+03  0.52417924306E+02 -0.65957351259E+03  0.70529354850E+03  0.80418892255E+02 0.  0.
        254    2    1    2    0    0 -0.23062292604E+03 -0.52417924306E+02  0.21441637770E+04  0.23378770666E+04  0.90127482091E+03 0.  0.
         23    2    4    4    0    0  0.18041382088E+03  0.17834323574E+03  0.20169250663E+03  0.33685385452E+03  0.91843320802E+02 0.  0.
         23    2    4    4    0    0 -0.41103674692E+03 -0.23076116005E+03  0.19424712704E+04  0.20010232120E+04  0.93259522203E+02 0.  0.
          4    1    3    3  502    0  0.12708359468E+02 -0.15514383496E+02 -0.35303142810E+02  0.40601852026E+02  0.00000000000E+00 0. -1.
         -3    1    3    3    0  502  0.21791456657E+03  0.67932307802E+02 -0.62427036978E+03  0.66469169647E+03  0.00000000000E+00 0.  1.
         13    1    5    5    0    0  0.95261970509E+02  0.15349059883E+03  0.14423291156E+03  0.23116517845E+03  0.00000000000E+00 0. -1.
        -13    1    5    5    0    0  0.85151850369E+02  0.24852636917E+02  0.57459595073E+02  0.10568867607E+03  0.00000000000E+00 0.  1.
          3    1    6    6  503    0 -0.40590222739E+03 -0.22137145690E+03  0.19299218850E+04  0.19845302775E+04  0.00000000000E+00 0. -1.
         -3    1    6    6    0  503 -0.51345195236E+01 -0.93897031471E+01  0.12549385451E+02  0.16492934582E+02  0.00000000000E+00 0.  1.
<mgrwt>
<rscale>  0 0.26564787E+04</rscale>
<asrwt>0</asrwt>
<pdfrwt beam="1">  1        2 0.34828930E+00 0.26564787E+04</pdfrwt>
<pdfrwt beam="2">  1       -1 0.11989080E+00 0.26564787E+04</pdfrwt>
<totfact> 0.29522414E+00</totfact>
</mgrwt>
</event>
<event>
12    7  0.1735955E-007  0.2363983E+04  0.7818608E-02  0.8453112E-01
          2   -1    0    0  501    0  0.00000000000E+00  0.00000000000E+00  0.19301682459E+04  0.19301682459E+04  0.00000000000E+00 0. -1.
         -1   -1    0    0    0  501 -0.00000000000E+00 -0.00000000000E+00 -0.72382492057E+03  0.72382492057E+03  0.00000000000E+00 0.  1.
         24    2    1    2    0    0 -0.10042704406E+04 -0.91628248515E+02  0.38774581242E+03  0.10828235273E+04  0.72146534429E+02 0.  0.
        254    2    1    2    0    0  0.10042704406E+04  0.91628248515E+02  0.81859751291E+03  0.15711696392E+04  0.88403466744E+03 0.  0.
         23    2    4    4    0    0  0.10209994762E+04 -0.61306850244E+02  0.37554247239E+03  0.10936560917E+04  0.94090584913E+02 0.  0.
         23    2    4    4    0    0 -0.16729035601E+02  0.15293509876E+03  0.44305504052E+03  0.47751354747E+03  0.89735244007E+02 0.  0.
          4    1    3    3  502    0 -0.44767994832E+03 -0.73615372944E+02  0.19007630582E+03  0.49189995049E+03  0.00000000000E+00 0. -1.
         -3    1    3    3    0  502 -0.55659049225E+03 -0.18012875571E+02  0.19766950659E+03  0.59092357677E+03  0.00000000000E+00 0.  1.
         13    1    5    5    0    0  0.27400106500E+03 -0.34496521665E+02  0.61753908413E+02  0.28298434379E+03  0.00000000000E+00 0.  1.
        -13    1    5    5    0    0  0.74699841117E+03 -0.26810328579E+02  0.31378856398E+03  0.81067174793E+03  0.00000000000E+00 0. -1.
          4    1    6    6  503    0 -0.36205810535E+02  0.11043554428E+03  0.21190047684E+03  0.24167888249E+03  0.00000000000E+00 0. -1.
         -4    1    6    6    0  503  0.19476774934E+02  0.42499554477E+02  0.23115456368E+03  0.23583466497E+03  0.00000000000E+00 0.  1.
<mgrwt>
<rscale>  0 0.23639830E+04</rscale>
<asrwt>0</asrwt>
<pdfrwt beam="1">  1        2 0.29694896E+00 0.23639830E+04</pdfrwt>
<pdfrwt beam="2">  1       -1 0.11135768E+00 0.23639830E+04</pdfrwt>
<totfact> 0.55590393E+00</totfact>
</mgrwt>
</event>
<event>
12    7  0.1735955E-007  0.1264070E+04  0.7818608E-02  0.9058554E-01
          2   -1    0    0  501    0  0.00000000000E+00  0.00000000000E+00  0.12921894831E+04  0.12921894831E+04  0.00000000000E+00 0. -1.
         -1   -1    0    0    0  501 -0.00000000000E+00 -0.00000000000E+00 -0.30914042966E+03  0.30914042966E+03  0.00000000000E+00 0.  1.
         24    2    1    2    0    0  0.13720887435E+03  0.22583037606E+03  0.44072098992E+02  0.27961193124E+03  0.80092747690E+02 0.  0.
        254    2    1    2    0    0 -0.13720887435E+03 -0.22583037606E+03  0.93897695446E+03  0.13217179815E+04  0.89187166551E+03 0.  0.
         23    2    4    4    0    0 -0.48280727903E+03 -0.27981211461E+03  0.62303900030E+03  0.84165315539E+03  0.93833628943E+02 0.  0.
         23    2    4    4    0    0  0.34559840468E+03  0.53981738548E+02  0.31593795416E+03  0.48006482613E+03  0.91066794132E+02 0.  0.
          2    1    3    3  502    0  0.54314734699E+02  0.72654458151E+02  0.53278163876E+02  0.10520134714E+03  0.00000000000E+00 0. -1.
         -1    1    3    3    0  502  0.82894139648E+02  0.15317591791E+03 -0.92060648841E+01  0.17441058410E+03  0.00000000000E+00 0.  1.
         13    1    5    5    0    0 -0.36195972248E+03 -0.24166065176E+03  0.52162534143E+03  0.67934358621E+03  0.00000000000E+00 0. -1.
        -13    1    5    5    0    0 -0.12084755655E+03 -0.38151462846E+02  0.10141365887E+03  0.16230956918E+03  0.00000000000E+00 0.  1.
          4    1    6    6  503    0  0.32247831368E+03  0.37219322026E+02  0.25510810660E+03  0.41286521624E+03  0.00000000000E+00 0. -1.
         -4    1    6    6    0  503  0.23120091002E+02  0.16762416522E+02  0.60829847558E+02  0.67199609891E+02  0.00000000000E+00 0.  1.
<mgrwt>
<rscale>  0 0.12640696E+04</rscale>
<asrwt>0</asrwt>
<pdfrwt beam="1">  1        2 0.19879838E+00 0.12640696E+04</pdfrwt>
<pdfrwt beam="2">  1       -1 0.47560067E-01 0.12640696E+04</pdfrwt>
<totfact> 0.82554449E+01</totfact>
</mgrwt>
</event>
<event>
12    7  0.1735955E-007  0.2506923E+04  0.7818608E-02  0.8400523E-01
         -1   -1    0    0    0  501 -0.00000000000E+00  0.00000000000E+00  0.85347730876E+03  0.85347730876E+03  0.00000000000E+00 0.  1.
          2   -1    0    0  501    0  0.00000000000E+00 -0.00000000000E+00 -0.18408998747E+04  0.18408998747E+04  0.00000000000E+00 0. -1.
         24    2    1    2    0    0  0.41113076448E+03 -0.44452366289E+03 -0.14086810250E+04  0.15347430770E+04  0.66515336181E+02 0.  0.
        254    2    1    2    0    0 -0.41113076448E+03  0.44452366289E+03  0.42125845904E+03  0.11596341064E+04  0.89479761910E+03 0.  0.
         23    2    4    4    0    0 -0.21074981794E+03 -0.43108671471E+02  0.56059437131E+03  0.60684877553E+03  0.87895073228E+02 0.  0.
         23    2    4    4    0    0 -0.20038094654E+03  0.48763233436E+03 -0.13933591227E+03  0.55278533092E+03  0.90660401366E+02 0.  0.
          4    1    3    3  502    0  0.28758337710E+03 -0.29046494219E+03 -0.10177954490E+04  0.10968052049E+04  0.00000000000E+00 0. -1.
         -3    1    3    3    0  502  0.12354738737E+03 -0.15405872070E+03 -0.39088557596E+03  0.43793787213E+03  0.00000000000E+00 0.  1.
         13    1    5    5    0    0  0.64420081335E+01 -0.72685550294E+01  0.10288201942E+02  0.14148443738E+02  0.00000000000E+00 0. -1.
        -13    1    5    5    0    0 -0.21719182607E+03 -0.35840116441E+02  0.55030616937E+03  0.59270033179E+03  0.00000000000E+00 0.  1.
          1    1    6    6  503    0 -0.24276882838E+02  0.16506279727E+02 -0.20982059785E+02  0.36084222918E+02  0.00000000000E+00 0. -1.
         -1    1    6    6    0  503 -0.17610406370E+03  0.47112605464E+03 -0.11835385249E+03  0.51670110800E+03  0.00000000000E+00 0.  1.
<mgrwt>
<rscale>  0 0.25069234E+04</rscale>
<asrwt>0</asrwt>
<pdfrwt beam="1">  1        2 0.28321536E+00 0.25069234E+04</pdfrwt>
<pdfrwt beam="2">  1       -1 0.13130420E+00 0.25069234E+04</pdfrwt>
<totfact> 0.41082678E+00</totfact>
</mgrwt>
</event>
<event>
12    7  0.1735955E-007  0.2783079E+04  0.7818608E-02  0.8308541E-01
          2   -1    0    0  501    0  0.00000000000E+00  0.00000000000E+00  0.39968295162E+04  0.39968295162E+04  0.00000000000E+00 0. -1.
         -1   -1    0    0    0  501 -0.00000000000E+00 -0.00000000000E+00 -0.48447950566E+03  0.48447950566E+03  0.00000000000E+00 0.  1.
         24    2    1    2    0    0  0.11604209084E+04  0.37724557204E+03  0.20204668912E+04  0.23616824535E+04  0.79791268149E+02 0.  0.
        254    2    1    2    0    0 -0.11604209084E+04 -0.37724557204E+03  0.14918831194E+04  0.21196265684E+04  0.88216248014E+03 0.  0.
         23    2    4    4    0    0 -0.10600054106E+04 -0.45781121122E+03  0.15619731389E+04  0.19445920760E+04  0.92063454655E+02 0.  0.
         23    2    4    4    0    0 -0.10041549776E+03  0.80565639177E+02 -0.70090019471E+02  0.17503449245E+03  0.95657557527E+02 0.  0.
          2    1    3    3  502    0  0.10744380500E+04  0.37061398151E+03  0.18758285053E+04  0.21932862166E+04  0.00000000000E+00 0. -1.
         -1    1    3    3    0  502  0.85982858378E+02  0.66315905289E+01  0.14463838583E+03  0.16839623684E+03  0.00000000000E+00 0.  1.
         13    1    5    5    0    0 -0.57044421974E+03 -0.20895122898E+03  0.76896891931E+03  0.97999001158E+03  0.00000000000E+00 0.  1.
        -13    1    5    5    0    0 -0.48956119089E+03 -0.24885998224E+03  0.79300421958E+03  0.96460206441E+03  0.00000000000E+00 0. -1.
          4    1    6    6  503    0 -0.52858016732E+02 -0.13632895665E+02 -0.19052597011E+02  0.57817188015E+02  0.00000000000E+00 0. -1.
         -4    1    6    6    0  503 -0.47557481026E+02  0.94198534842E+02 -0.51037422460E+02  0.11721730444E+03  0.00000000000E+00 0.  1.
<mgrwt>
<rscale>  0 0.27830789E+04</rscale>
<asrwt>0</asrwt>
<pdfrwt beam="1">  1        2 0.61489683E+00 0.27830789E+04</pdfrwt>
<pdfrwt beam="2">  1       -1 0.74535311E-01 0.27830789E+04</pdfrwt>
<totfact> 0.61788797E-01</totfact>
</mgrwt>
</event>
<event>
12    7  0.1735955E-007  0.1417393E+04  0.7818608E-02  0.8941324E-01
         -1   -1    0    0    0  501 -0.00000000000E+00  0.00000000000E+00  0.26294598859E+03  0.26294598859E+03  0.00000000000E+00 0.  1.
          2   -1    0    0  501    0  0.00000000000E+00 -0.00000000000E+00 -0.19100899233E+04  0.19100899233E+04  0.00000000000E+00 0. -1.
         24    2    1    2    0    0  0.21698635457E+03 -0.16570257954E+03 -0.97572936179E+03  0.10163675644E+04  0.80092544133E+02 0.  0.
        254    2    1    2    0    0 -0.21698635457E+03  0.16570257954E+03 -0.67141457296E+03  0.11566683475E+04  0.90141206693E+03 0.  0.
         23    2    4    4    0    0 -0.12471656462E+03  0.13968851777E+03 -0.88243901103E+03  0.90677974594E+03  0.92107523953E+02 0.  0.
         23    2    4    4    0    0 -0.92269789947E+02  0.26014061768E+02  0.21102443808E+03  0.24988860156E+03  0.93394615358E+02 0.  0.
          4    1    3    3  502    0  0.68084609350E+02 -0.85110676675E+02 -0.48998356671E+03  0.50195939772E+03  0.00000000000E+00 0. -1.
         -3    1    3    3    0  502  0.14890174522E+03 -0.80591902865E+02 -0.48574579508E+03  0.51440816671E+03  0.00000000000E+00 0.  1.
         13    1    5    5    0    0 -0.79735594187E+02  0.13255531880E+03 -0.77152177956E+03  0.78687644129E+03  0.00000000000E+00 0. -1.
        -13    1    5    5    0    0 -0.44980970434E+02  0.71331989780E+01 -0.11091723147E+03  0.11990330465E+03  0.00000000000E+00 0.  1.
          1    1    6    6  503    0 -0.35877460065E+02  0.41179458944E+02  0.16990651144E+03  0.17846894018E+03  0.00000000000E+00 0. -1.
         -1    1    6    6    0  503 -0.56392329882E+02 -0.15165397177E+02  0.41117926643E+02  0.71419661386E+02  0.00000000000E+00 0.  1.
<mgrwt>
<rscale>  0 0.14173927E+04</rscale>
<asrwt>0</asrwt>
<pdfrwt beam="1">  1        2 0.29386000E+00 0.14173927E+04</pdfrwt>
<pdfrwt beam="2">  1       -1 0.40453228E-01 0.14173927E+04</pdfrwt>
<totfact> 0.49540165E+01</totfact>
</mgrwt>
</event>
<event>
12    7  0.1735955E-007  0.1918804E+04  0.7818608E-02  0.8645553E-01
         -1   -1    0    0    0  501 -0.00000000000E+00  0.00000000000E+00  0.77485438722E+03  0.77485438722E+03  0.00000000000E+00 0.  1.
          2   -1    0    0  501    0  0.00000000000E+00 -0.00000000000E+00 -0.11879032692E+04  0.11879032692E+04  0.00000000000E+00 0. -1.
         24    2    1    2    0    0 -0.73416419309E+03  0.13419762583E+03 -0.15166546046E+03  0.76577904530E+03  0.80056662052E+02 0.  0.
        254    2    1    2    0    0  0.73416419309E+03 -0.13419762583E+03 -0.26138342156E+03  0.11969786112E+04  0.89857133122E+03 0.  0.
         23    2    4    4    0    0 -0.45509207395E+02  0.12920340778E+03 -0.32860947831E+03  0.36615373647E+03  0.85555601573E+02 0.  0.
         23    2    4    4    0    0  0.77967340048E+03 -0.26340103361E+03  0.67226056745E+02  0.83082487468E+03  0.92086447138E+02 0.  0.
          4    1    3    3  502    0 -0.44322860917E+03  0.11598440728E+03 -0.73851324532E+02  0.46406680645E+03  0.00000000000E+00 0. -1.
         -3    1    3    3    0  502 -0.29093558392E+03  0.18213218541E+02 -0.77814135928E+02  0.30171223885E+03  0.00000000000E+00 0.  1.
         13    1    5    5    0    0 -0.87598154062E+01 -0.74452721867E+01 -0.42237693132E+01  0.12247721057E+02  0.00000000000E+00 0. -1.
        -13    1    5    5    0    0 -0.36749391989E+02  0.13664867997E+03 -0.32438570900E+03  0.35390601542E+03  0.00000000000E+00 0.  1.
          4    1    6    6  503    0  0.20841216725E+03 -0.54242698053E+02 -0.19888624068E+02  0.21627172519E+03  0.00000000000E+00 0. -1.
         -4    1    6    6    0  503  0.57126123323E+03 -0.20915833555E+03  0.87114680814E+02  0.61455314948E+03  0.00000000000E+00 0.  1.
<mgrwt>
<rscale>  0 0.19188039E+04</rscale>
<asrwt>0</asrwt>
<pdfrwt beam="1">  1        2 0.18275435E+00 0.19188039E+04</pdfrwt>
<pdfrwt beam="2">  1       -1 0.11920837E+00 0.19188039E+04</pdfrwt>
<totfact> 0.12923166E+01</totfact>
</mgrwt>
</event>
<event>
12    7  0.1735955E-007  0.1303899E+04  0.7818608E-02  0.9026479E-01
          2   -1    0    0  501    0  0.00000000000E+00  0.00000000000E+00  0.11538772856E+04  0.11538772856E+04  0.00000000000E+00 0. -1.
         -1   -1    0    0    0  501 -0.00000000000E+00 -0.00000000000E+00 -0.36835645146E+03  0.36835645146E+03  0.00000000000E+00 0.  1.
         24    2    1    2    0    0  0.14761550385E+03 -0.17455359798E+03 -0.79873644239E+02  0.25509273820E+03  0.80207297008E+02 0.  0.
        254    2    1    2    0    0 -0.14761550385E+03  0.17455359798E+03  0.86539447833E+03  0.12671409988E+04  0.89692776309E+03 0.  0.
         23    2    4    4    0    0 -0.13851945491E+03 -0.11631422693E+03  0.93303197078E+03  0.95470113911E+03  0.90492915414E+02 0.  0.
         23    2    4    4    0    0 -0.90960489425E+01  0.29086782492E+03 -0.67637492447E+02  0.31243985971E+03  0.91416660800E+02 0.  0.
          2    1    3    3  502    0  0.96396426426E+02 -0.10105062126E+03 -0.73835582178E+01  0.13984997682E+03  0.00000000000E+00 0. -1.
         -1    1    3    3    0  502  0.51219077422E+02 -0.73502976726E+02 -0.72490086021E+02  0.11524276138E+03  0.00000000000E+00 0.  1.
         13    1    5    5    0    0 -0.10692647393E+03 -0.51145933657E+02  0.72010292132E+03  0.72979270663E+03  0.00000000000E+00 0. -1.
        -13    1    5    5    0    0 -0.31592980974E+02 -0.65168293274E+02  0.21292904946E+03  0.22490843248E+03  0.00000000000E+00 0.  1.
          2    1    6    6  503    0 -0.20264720301E+02  0.10168954413E+03  0.16677953547E+02  0.10502179016E+03  0.00000000000E+00 0.  1.
         -2    1    6    6    0  503  0.11168671359E+02  0.18917828079E+03 -0.84315445994E+02  0.20741806955E+03  0.00000000000E+00 0. -1.
<mgrwt>
<rscale>  0 0.13038990E+04</rscale>
<asrwt>0</asrwt>
<pdfrwt beam="1">  1        2 0.17751958E+00 0.13038990E+04</pdfrwt>
<pdfrwt beam="2">  1       -1 0.56670224E-01 0.13038990E+04</pdfrwt>
<totfact> 0.71105561E+01</totfact>
</mgrwt>
</event>
<event>
12    7  0.1735955E-007  0.1705124E+04  0.7818608E-02  0.8758447E-01
         -1   -1    0    0    0  501 -0.00000000000E+00  0.00000000000E+00  0.28631098844E+03  0.28631098844E+03  0.00000000000E+00 0.  1.
          2   -1    0    0  501    0  0.00000000000E+00 -0.00000000000E+00 -0.25387152795E+04  0.25387152795E+04  0.00000000000E+00 0. -1.
         24    2    1    2    0    0  0.49619239650E+03 -0.15605505280E+03 -0.13440660470E+04  0.14433575504E+04  0.78787091546E+02 0.  0.
        254    2    1    2    0    0 -0.49619239650E+03  0.15605505280E+03 -0.90833824403E+03  0.13816687175E+04  0.90187028196E+03 0.  0.
         23    2    4    4    0    0  0.91977285819E+02 -0.25079170584E+03 -0.10148578688E+03  0.29990158732E+03  0.91023603040E+02 0.  0.
         23    2    4    4    0    0 -0.58816968232E+03  0.40684675864E+03 -0.80685245715E+03  0.10817671302E+04  0.87985090219E+02 0.  0.
          2    1    3    3  502    0  0.19272905503E+03 -0.39434639162E+02 -0.59829873096E+03  0.62981024990E+03  0.00000000000E+00 0. -1.
         -1    1    3    3    0  502  0.30346334147E+03 -0.11662041363E+03 -0.74576731606E+03  0.81354730052E+03  0.00000000000E+00 0.  1.
         13    1    5    5    0    0 -0.17161664346E+02 -0.23822167041E+02 -0.31132662643E+01  0.29524748813E+02  0.00000000000E+00 0.  1.
        -13    1    5    5    0    0  0.10913895016E+03 -0.22696953880E+03 -0.98372520620E+02  0.27037683851E+03  0.00000000000E+00 0. -1.
          1    1    6    6  503    0 -0.48797012023E+03  0.37485424901E+03 -0.68456789303E+03  0.92046930769E+03  0.00000000000E+00 0. -1.
         -1    1    6    6    0  503 -0.10019956209E+03  0.31992509634E+02 -0.12228456412E+03  0.16129782248E+03  0.00000000000E+00 0.  1.
<mgrwt>
<rscale>  0 0.17051241E+04</rscale>
<asrwt>0</asrwt>
<pdfrwt beam="1">  1        2 0.39057158E+00 0.17051241E+04</pdfrwt>
<pdfrwt beam="2">  1       -1 0.44047845E-01 0.17051241E+04</pdfrwt>
<totfact> 0.18279110E+01</totfact>
</mgrwt>
</event>
<event>
12    7  0.1735955E-007  0.1837820E+04  0.7818608E-02  0.8686442E-01
          2   -1    0    0  501    0  0.00000000000E+00  0.00000000000E+00  0.11888048910E+04  0.11888048910E+04  0.00000000000E+00 0. -1.
         -1   -1    0    0    0  501 -0.00000000000E+00 -0.00000000000E+00 -0.71028974135E+03  0.71028974135E+03  0.00000000000E+00 0.  1.
         24    2    1    2    0    0 -0.79627487538E+02  0.14289140079E+03  0.86486496904E+03  0.88338438103E+03  0.74953724252E+02 0.  0.
        254    2    1    2    0    0  0.79627487538E+02 -0.14289140079E+03 -0.38634981940E+03  0.10157102513E+04  0.92500953642E+03 0.  0.
         23    2    4    4    0    0 -0.30653071371E+03 -0.26498534574E+03  0.44284975999E+02  0.41768386112E+03  0.91215880401E+02 0.  0.
         23    2    4    4    0    0  0.38615820125E+03  0.12209394495E+03 -0.43063479540E+03  0.59802639019E+03  0.90355678109E+02 0.  0.
          2    1    3    3  502    0 -0.22968837453E+02  0.11406251935E+03  0.55451579702E+03  0.56659120622E+03  0.00000000000E+00 0. -1.
         -1    1    3    3    0  502 -0.56658650085E+02  0.28828881434E+02  0.31034917202E+03  0.31679317481E+03  0.00000000000E+00 0.  1.
         13    1    5    5    0    0 -0.53658336005E+02 -0.28464642247E+02  0.37474132714E+02  0.71370606721E+02  0.00000000000E+00 0. -1.
        -13    1    5    5    0    0 -0.25287237770E+03 -0.23652070349E+03  0.68108432853E+01  0.34631325440E+03  0.00000000000E+00 0.  1.
          1    1    6    6  503    0  0.14167484673E+01  0.14924584350E+02 -0.10199158574E+02  0.18132104949E+02  0.00000000000E+00 0. -1.
         -1    1    6    6    0  503  0.38474145278E+03  0.10716936060E+03 -0.42043563683E+03  0.57989428524E+03  0.00000000000E+00 0.  1.
<mgrwt>
<rscale>  0 0.18378204E+04</rscale>
<asrwt>0</asrwt>
<pdfrwt beam="1">  1        2 0.18289306E+00 0.18378204E+04</pdfrwt>
<pdfrwt beam="2">  1       -1 0.10927534E+00 0.18378204E+04</pdfrwt>
<totfact> 0.16005685E+01</totfact>
</mgrwt>
</event>
<event>
12    7  0.1735955E-007  0.1558239E+04  0.7818608E-02  0.8846622E-01
          4   -1    0    0  501    0  0.00000000000E+00  0.00000000000E+00  0.80168512642E+03  0.80168512642E+03  0.00000000000E+00 0. -1.
         -3   -1    0    0    0  501 -0.00000000000E+00 -0.00000000000E+00 -0.75718872242E+03  0.75718872242E+03  0.00000000000E+00 0.  1.
         24    2    1    2    0    0  0.27988406210E+03  0.14304174985E+03  0.41944677482E+03  0.53024802130E+03  0.80195615613E+02 0.  0.
        254    2    1    2    0    0 -0.27988406210E+03 -0.14304174985E+03 -0.37495037082E+03  0.10286258275E+04  0.90481339627E+03 0.  0.
         23    2    4    4    0    0  0.20714982894E+03 -0.33596616597E+03 -0.27041572229E+03  0.48689591972E+03  0.90325286980E+02 0.  0.
         23    2    4    4    0    0 -0.48703389104E+03  0.19292441613E+03 -0.10453464853E+03  0.54172990782E+03  0.90121911457E+02 0.  0.
          4    1    3    3  502    0  0.28320246587E+03  0.13319734446E+03  0.39708090964E+03  0.50558720123E+03  0.00000000000E+00 0. -1.
         -3    1    3    3    0  502 -0.33184037719E+01  0.98444053877E+01  0.22365865181E+02  0.24660820066E+02  0.00000000000E+00 0.  1.
         13    1    5    5    0    0  0.67409384312E+02 -0.19057563477E+03 -0.11747959738E+03  0.23380451977E+03  0.00000000000E+00 0.  1.
        -13    1    5    5    0    0  0.13974044462E+03 -0.14539053120E+03 -0.15293612491E+03  0.25309139995E+03  0.00000000000E+00 0. -1.
          1    1    6    6  503    0 -0.14477435260E+02 -0.46402948800E+01 -0.15765681762E+02  0.21901716593E+02  0.00000000000E+00 0. -1.
         -1    1    6    6    0  503 -0.47255645578E+03  0.19756471101E+03 -0.88768966768E+02  0.51982819123E+03  0.00000000000E+00 0.  1.
<mgrwt>
<rscale>  0 0.15582387E+04</rscale>
<asrwt>0</asrwt>
<pdfrwt beam="1">  1        4 0.12333617E+00 0.15582387E+04</pdfrwt>
<pdfrwt beam="2">  1       -3 0.11649057E+00 0.15582387E+04</pdfrwt>
<totfact> 0.66085660E-01</totfact>
</mgrwt>
</event>
<event>
12    7  0.1735955E-007  0.1451250E+04  0.7818608E-02  0.8917535E-01
          2   -1    0    0  501    0  0.00000000000E+00  0.00000000000E+00  0.53714708651E+03  0.53714708651E+03  0.00000000000E+00 0. -1.
         -1   -1    0    0    0  501 -0.00000000000E+00 -0.00000000000E+00 -0.98023689250E+03  0.98023689250E+03  0.00000000000E+00 0.  1.
         24    2    1    2    0    0  0.37750787787E+03  0.20584270376E+03 -0.23069591499E+02  0.43799390379E+03  0.80143852891E+02 0.  0.
        254    2    1    2    0    0 -0.37750787787E+03 -0.20584270376E+03 -0.42002021449E+03  0.10793900752E+04  0.89653920012E+03 0.  0.
         23    2    4    4    0    0 -0.56326802507E+03  0.11352099447E+03 -0.38382032250E+03  0.69708098112E+03  0.91901958763E+02 0.  0.
         23    2    4    4    0    0  0.18576014720E+03 -0.31936369823E+03 -0.36199891992E+02  0.38230909410E+03  0.91377279524E+02 0.  0.
          2    1    3    3  502    0  0.26507640952E+03  0.11966961141E+03  0.15278415390E+02  0.29123830235E+03  0.00000000000E+00 0. -1.
         -1    1    3    3    0  502  0.11243146835E+03  0.86173092347E+02 -0.38348006889E+02  0.14675560144E+03  0.00000000000E+00 0.  1.
         13    1    5    5    0    0 -0.65745614060E+02  0.44873644551E+02 -0.49071318080E+02  0.93510020861E+02  0.00000000000E+00 0. -1.
        -13    1    5    5    0    0 -0.49752241101E+03  0.68647349924E+02 -0.33474900442E+03  0.60357096026E+03  0.00000000000E+00 0.  1.
          3    1    6    6  503    0  0.51383592501E+01 -0.77191164110E+02  0.43686845792E+01  0.77485249934E+02  0.00000000000E+00 0. -1.
         -3    1    6    6    0  503  0.18062178795E+03 -0.24217253412E+03 -0.40568576572E+02  0.30482384416E+03  0.00000000000E+00 0.  1.
<mgrwt>
<rscale>  0 0.14512497E+04</rscale>
<asrwt>0</asrwt>
<pdfrwt beam="1">  1        2 0.82638014E-01 0.14512497E+04</pdfrwt>
<pdfrwt beam="2">  1       -1 0.15080567E+00 0.14512497E+04</pdfrwt>
<totfact> 0.21582106E+01</totfact>
</mgrwt>
</event>
<event>
12    7  0.1735955E-007  0.1970137E+04  0.7818608E-02  0.8620711E-01
          2   -1    0    0  501    0  0.00000000000E+00  0.00000000000E+00  0.28163896436E+04  0.28163896436E+04  0.00000000000E+00 0. -1.
         -1   -1    0    0    0  501 -0.00000000000E+00 -0.00000000000E+00 -0.34454047552E+03  0.34454047552E+03  0.00000000000E+00 0.  1.
         24    2    1    2    0    0 -0.15594632633E+03 -0.72585901080E+03  0.68728946484E+03  0.10159629286E+04  0.92861744155E+02 0.  0.
        254    2    1    2    0    0  0.15594632633E+03  0.72585901080E+03  0.17845597032E+04  0.21449671905E+04  0.93007545596E+03 0.  0.
         23    2    4    4    0    0  0.29187560940E+03  0.89596302567E+03  0.13348548591E+04  0.16364994103E+04  0.91387692188E+02 0.  0.
         23    2    4    4    0    0 -0.13592928308E+03 -0.17010401487E+03  0.44970484416E+03  0.50846778026E+03  0.94302125243E+02 0.  0.
          4    1    3    3  502    0 -0.15749537760E+03 -0.70524744683E+03  0.68405309721E+03  0.99504140368E+03  0.00000000000E+00 0. -1.
         -3    1    3    3    0  502  0.15490512712E+01 -0.20611563968E+02  0.32363676267E+01  0.20921524908E+02  0.00000000000E+00 0.  1.
         13    1    5    5    0    0  0.18925603567E+03  0.68289579781E+03  0.95850434908E+03  0.11920130473E+04  0.00000000000E+00 0.  1.
        -13    1    5    5    0    0  0.10261957373E+03  0.21306722786E+03  0.37635051001E+03  0.44448636299E+03  0.00000000000E+00 0. -1.
          3    1    6    6  503    0 -0.13466138367E+03 -0.11965681394E+03  0.29411080602E+03  0.34489506751E+03  0.00000000000E+00 0. -1.
         -3    1    6    6    0  503 -0.12678994054E+01 -0.50447200937E+02  0.15559403815E+03  0.16357271275E+03  0.00000000000E+00 0.  1.
<mgrwt>
<rscale>  0 0.19701373E+04</rscale>
<asrwt>0</asrwt>
<pdfrwt beam="1">  1        2 0.43329070E+00 0.19701373E+04</pdfrwt>
<pdfrwt beam="2">  1       -1 0.53006229E-01 0.19701373E+04</pdfrwt>
<totfact> 0.86129444E+00</totfact>
</mgrwt>
</event>
<event>
12    7  0.2250404E-007  0.1878458E+04  0.7818608E-02  0.8665654E-01
         -1   -1    0    0    0  501 -0.00000000000E+00  0.00000000000E+00  0.50370369236E+03  0.50370369236E+03  0.00000000000E+00 0.  1.
          2   -1    0    0  501    0  0.00000000000E+00 -0.00000000000E+00 -0.17513297351E+04  0.17513297351E+04  0.00000000000E+00 0. -1.
         24    2    1    2    0    0  0.10377880460E+03 -0.45168976578E+02 -0.13499143376E+04  0.13569483538E+04  0.78929331464E+02 0.  0.
        254    2    1    2    0    0 -0.10377880460E+03  0.45168976578E+02  0.10228829490E+03  0.89808507361E+03  0.88503312222E+03 0.  0.
         23    2    4    4    0    0 -0.20078122652E+03  0.17497361896E+03  0.43419412377E+03  0.51740605124E+03  0.90860423116E+02 0.  0.
         23    2    4    4    0    0  0.97002421925E+02 -0.12980464238E+03 -0.33190582887E+03  0.38067902237E+03  0.92175505350E+02 0.  0.
          2    1    3    3  502    0  0.94949785972E+02 -0.14635022770E+02 -0.11921059464E+04  0.11959708329E+04  0.00000000000E+00 0. -1.
         -1    1    3    3    0  502  0.88290186252E+01 -0.30533953807E+02 -0.15780839124E+03  0.16097752095E+03  0.00000000000E+00 0.  1.
         13    1    5    5    0    0 -0.16221963524E+02  0.52659062794E+01  0.12478610861E+01  0.17100848716E+02  0.00000000000E+00 0. -1.
        -13    1    5    5    0    0 -0.18455926300E+03  0.16970771268E+03  0.43294626268E+03  0.50030520252E+03  0.00000000000E+00 0.  1.
          3    1    6    6  503    0  0.52820047494E+02 -0.52295772138E+02 -0.63254641226E+02  0.97600998137E+02  0.00000000000E+00 0. -1.
         -3    1    6    6    0  503  0.44182374431E+02 -0.77508870241E+02 -0.26865118765E+03  0.28307802423E+03  0.00000000000E+00 0.  1.
<mgrwt>
<rscale>  0 0.18784581E+04</rscale>
<asrwt>0</asrwt>
<pdfrwt beam="1">  1        2 0.26943534E+00 0.18784581E+04</pdfrwt>
<pdfrwt beam="2">  1       -1 0.77492876E-01 0.18784581E+04</pdfrwt>
<totfact> 0.16376340E+01</totfact>
</mgrwt>
</event>
<event>
12    7  0.1735955E-007  0.1218325E+04  0.7818608E-02  0.9096966E-01
         -3   -1    0    0    0  501 -0.00000000000E+00  0.00000000000E+00  0.16644850400E+03  0.16644850400E+03  0.00000000000E+00 0.  1.
          2   -1    0    0  501    0  0.00000000000E+00 -0.00000000000E+00 -0.22293915144E+04  0.22293915144E+04  0.00000000000E+00 0. -1.
         24    2    1    2    0    0 -0.91439378059E+01  0.21965800336E+03 -0.77933190852E+03  0.81374580181E+03  0.80565230059E+02 0.  0.
        254    2    1    2    0    0  0.91439378059E+01 -0.21965800336E+03 -0.12836111019E+04  0.15820942166E+04  0.89834926351E+03 0.  0.
         23    2    4    4    0    0  0.22869334815E+03 -0.46636924709E+03 -0.10249541422E+04  0.11525602541E+04  0.89795454344E+02 0.  0.
         23    2    4    4    0    0 -0.21954941035E+03  0.24671124373E+03 -0.25865695972E+03  0.42953396251E+03  0.92345117744E+02 0.  0.
          2    1    3    3  502    0 -0.17709499476E+01  0.83155565884E+02 -0.44217781267E+03  0.44993244206E+03  0.00000000000E+00 0. -1.
         -1    1    3    3    0  502 -0.73729878584E+01  0.13650243748E+03 -0.33715409585E+03  0.36381335975E+03  0.00000000000E+00 0.  1.
         13    1    5    5    0    0  0.17097415341E+03 -0.29011874585E+03 -0.73341124646E+03  0.80702732559E+03  0.00000000000E+00 0. -1.
        -13    1    5    5    0    0  0.57719194742E+02 -0.17625050124E+03 -0.29154289573E+03  0.34553292851E+03  0.00000000000E+00 0.  1.
          1    1    6    6  503    0 -0.93789938415E+02  0.15411222141E+03 -0.97290884865E+02  0.20496986513E+03  0.00000000000E+00 0. -1.
         -1    1    6    6    0  503 -0.12575947193E+03  0.92599022318E+02 -0.16136607486E+03  0.22456409737E+03  0.00000000000E+00 0.  1.
<mgrwt>
<rscale>  0 0.12183249E+04</rscale>
<asrwt>0</asrwt>
<pdfrwt beam="1">  1        2 0.34298332E+00 0.12183249E+04</pdfrwt>
<pdfrwt beam="2">  1       -3 0.25607461E-01 0.12183249E+04</pdfrwt>
<totfact> 0.46555151E+01</totfact>
</mgrwt>
</event>
<event>
12    7  0.1735955E-007  0.1232506E+04  0.7818608E-02  0.9084870E-01
         -1   -1    0    0    0  501 -0.00000000000E+00  0.00000000000E+00  0.50823201084E+03  0.50823201084E+03  0.00000000000E+00 0.  1.
          2   -1    0    0  501    0  0.00000000000E+00 -0.00000000000E+00 -0.74723326912E+03  0.74723326912E+03  0.00000000000E+00 0. -1.
         24    2    1    2    0    0 -0.43030804257E+02  0.65315526479E+01  0.22349446434E+03  0.24293394608E+03  0.84692474715E+02 0.  0.
        254    2    1    2    0    0  0.43030804257E+02 -0.65315526479E+01 -0.46249572262E+03  0.10125313339E+04  0.89967944144E+03 0.  0.
         23    2    4    4    0    0 -0.18748148944E+03 -0.39092123477E+03 -0.24264277291E+03  0.50508339434E+03  0.90912041661E+02 0.  0.
         23    2    4    4    0    0  0.23051229370E+03  0.38438968212E+03 -0.21985294970E+03  0.50744793954E+03  0.90976626563E+02 0.  0.
          2    1    3    3  502    0  0.22373121020E+02  0.25089735709E+01  0.23790644770E+02  0.32754332097E+02  0.00000000000E+00 0. -1.
         -1    1    3    3    0  502 -0.65403925276E+02  0.40225790769E+01  0.19970381957E+03  0.21017961399E+03  0.00000000000E+00 0.  1.
         13    1    5    5    0    0 -0.10884931215E+02 -0.91474878613E+02 -0.27016714948E+02  0.96000198081E+02  0.00000000000E+00 0.  1.
        -13    1    5    5    0    0 -0.17659655822E+03 -0.29944635616E+03 -0.21562605796E+03  0.40908319626E+03  0.00000000000E+00 0. -1.
          1    1    6    6  503    0  0.13064008391E+03  0.23803313282E+03 -0.84152400879E+02  0.28426788496E+03  0.00000000000E+00 0. -1.
         -1    1    6    6    0  503  0.99872209786E+02  0.14635654930E+03 -0.13570054883E+03  0.22318005458E+03  0.00000000000E+00 0.  1.
<mgrwt>
<rscale>  0 0.12325062E+04</rscale>
<asrwt>0</asrwt>
<pdfrwt beam="1">  1        2 0.11495896E+00 0.12325062E+04</pdfrwt>
<pdfrwt beam="2">  1       -1 0.78189540E-01 0.12325062E+04</pdfrwt>
<totfact> 0.69416229E+01</totfact>
</mgrwt>
</event>
<event>
12    7  0.1735955E-007  0.3302242E+04  0.7818608E-02  0.8162325E-01
         -1   -1    0    0    0  501 -0.00000000000E+00  0.00000000000E+00  0.85296190841E+03  0.85296190841E+03  0.00000000000E+00 0.  1.
          2   -1    0    0  501    0  0.00000000000E+00 -0.00000000000E+00 -0.31961581447E+04  0.31961581447E+04  0.00000000000E+00 0. -1.
         24    2    1    2    0    0  0.56763098775E+03  0.59856788528E+03 -0.26604529612E+04  0.27865368708E+04  0.79305245964E+02 0.  0.
        254    2    1    2    0    0 -0.56763098775E+03 -0.59856788528E+03  0.31725672483E+03  0.12625831824E+04  0.90165182385E+03 0.  0.
         23    2    4    4    0    0 -0.16980202520E+03  0.19395386806E+03  0.24542701243E+03  0.36869280532E+03  0.96172426240E+02 0.  0.
         23    2    4    4    0    0 -0.39782896255E+03 -0.79252175334E+03  0.71829712398E+02  0.89389037706E+03  0.86728805272E+02 0.  0.
          2    1    3    3  502    0  0.56288187500E+03  0.57595304857E+03 -0.25973826728E+04  0.27193665932E+04  0.00000000000E+00 0. -1.
         -1    1    3    3    0  502  0.47491127468E+01  0.22614836709E+02 -0.63070288330E+02  0.67170277514E+02  0.00000000000E+00 0.  1.
         13    1    5    5    0    0  0.31923068416E+01  0.37487930072E+02  0.59520397556E+02  0.70414582646E+02  0.00000000000E+00 0.  1.
        -13    1    5    5    0    0 -0.17299433204E+03  0.15646593798E+03  0.18590661488E+03  0.29827822268E+03  0.00000000000E+00 0. -1.
          2    1    6    6  503    0 -0.14874094864E+03 -0.39221594070E+03  0.38602674578E+02  0.42124503608E+03  0.00000000000E+00 0. -1.
         -2    1    6    6    0  503 -0.24908801391E+03 -0.40030581264E+03  0.33227037821E+02  0.47264534098E+03  0.00000000000E+00 0.  1.
<mgrwt>
<rscale>  0 0.33022424E+04</rscale>
<asrwt>0</asrwt>
<pdfrwt beam="1">  1        2 0.49171664E+00 0.33022424E+04</pdfrwt>
<pdfrwt beam="2">  1       -1 0.13122491E+00 0.33022424E+04</pdfrwt>
<totfact> 0.61190892E-01</totfact>
</mgrwt>
</event>
<event>
12    7  0.1735955E-007  0.1745493E+04  0.7818608E-02  0.8735835E-01
          2   -1    0    0  501    0  0.00000000000E+00  0.00000000000E+00  0.34474318749E+04  0.34474318749E+04  0.00000000000E+00 0. -1.
         -1   -1    0    0    0  501 -0.00000000000E+00 -0.00000000000E+00 -0.22094326150E+03  0.22094326150E+03  0.00000000000E+00 0.  1.
         24    2    1    2    0    0  0.11453833473E+03 -0.50030984296E+03  0.40989253713E+03  0.66162154323E+03  0.79386430711E+02 0.  0.
        254    2    1    2    0    0 -0.11453833473E+03  0.50030984296E+03  0.28165960763E+04  0.30067535932E+04  0.91865376723E+03 0.  0.
         23    2    4    4    0    0 -0.46340687436E+03  0.50064018351E+03  0.17209152992E+04  0.18533760042E+04  0.89814371252E+02 0.  0.
         23    2    4    4    0    0  0.34886853963E+03 -0.33034054997E+00  0.10956807770E+04  0.11533775890E+04  0.89744807476E+02 0.  0.
          4    1    3    3  502    0  0.22758356441E+02 -0.31598186013E+02  0.14400502951E+02  0.41518220487E+02  0.00000000000E+00 0. -1.
         -1    1    3    3    0  502  0.91779978289E+02 -0.46871165695E+03  0.39549203418E+03  0.62010332274E+03  0.00000000000E+00 0.  1.
         13    1    5    5    0    0 -0.24479103101E+03  0.32455558344E+03  0.10628019683E+04  0.11378958649E+04  0.00000000000E+00 0. -1.
        -13    1    5    5    0    0 -0.21861584335E+03  0.17608460008E+03  0.65811333097E+03  0.71548013931E+03  0.00000000000E+00 0.  1.
          4    1    6    6  503    0  0.17650104462E+03 -0.34543310296E+02  0.64635306241E+03  0.67090844407E+03  0.00000000000E+00 0. -1.
         -4    1    6    6    0  503  0.17236749501E+03  0.34212969746E+02  0.44932771463E+03  0.48246914489E+03  0.00000000000E+00 0.  1.
<mgrwt>
<rscale>  0 0.17454934E+04</rscale>
<asrwt>0</asrwt>
<pdfrwt beam="1">  1        2 0.53037410E+00 0.17454934E+04</pdfrwt>
<pdfrwt beam="2">  1       -1 0.33991273E-01 0.17454934E+04</pdfrwt>
<totfact> 0.78741350E+00</totfact>
</mgrwt>
</event>
<event>
12    7  0.1735955E-007  0.2415344E+04  0.7818608E-02  0.8433781E-01
         -1   -1    0    0    0  501 -0.00000000000E+00  0.00000000000E+00  0.43570570949E+03  0.43570570949E+03  0.00000000000E+00 0.  1.
          2   -1    0    0  501    0  0.00000000000E+00 -0.00000000000E+00 -0.33473772013E+04  0.33473772013E+04  0.00000000000E+00 0. -1.
         24    2    1    2    0    0 -0.33436633573E+03 -0.80660872260E+03 -0.21261304979E+04  0.22998236131E+04  0.79619590768E+02 0.  0.
        254    2    1    2    0    0  0.33436633573E+03  0.80660872260E+03 -0.78554099388E+03  0.14832592977E+04  0.90585043651E+03 0.  0.
         23    2    4    4    0    0 -0.14453334751E+03  0.51826794388E+03 -0.40085315794E+02  0.54711617569E+03  0.90761924621E+02 0.  0.
         23    2    4    4    0    0  0.47889968325E+03  0.28834077872E+03 -0.74545567809E+03  0.93614312202E+03  0.90412751433E+02 0.  0.
          2    1    3    3  502    0 -0.13187373461E+03 -0.35088527977E+03 -0.10114726137E+04  0.10786973671E+04  0.00000000000E+00 0. -1.
         -1    1    3    3    0  502 -0.20249260113E+03 -0.45572344283E+03 -0.11146578842E+04  0.12211262460E+04  0.00000000000E+00 0.  1.
         13    1    5    5    0    0 -0.49973602910E-01  0.12970282810E+03 -0.26219240349E+02  0.13232639449E+03  0.00000000000E+00 0. -1.
        -13    1    5    5    0    0 -0.14448337391E+03  0.38856511578E+03 -0.13866075444E+02  0.41478978120E+03  0.00000000000E+00 0.  1.
          2    1    6    6  503    0  0.43002354096E+03  0.24722027865E+03 -0.69922694470E+03  0.85729600031E+03  0.00000000000E+00 0. -1.
         -2    1    6    6    0  503  0.48876142289E+02  0.41120500066E+02 -0.46228733387E+02  0.78847121705E+02  0.00000000000E+00 0.  1.
<mgrwt>
<rscale>  0 0.24153438E+04</rscale>
<asrwt>0</asrwt>
<pdfrwt beam="1">  1        2 0.51498112E+00 0.24153438E+04</pdfrwt>
<pdfrwt beam="2">  1       -1 0.67031646E-01 0.24153438E+04</pdfrwt>
<totfact> 0.23871887E+00</totfact>
</mgrwt>
</event>
<event>
12    7  0.1735955E-007  0.1432077E+04  0.7818608E-02  0.8930921E-01
         -1   -1    0    0    0  501 -0.00000000000E+00  0.00000000000E+00  0.65258428689E+03  0.65258428689E+03  0.00000000000E+00 0.  1.
          2   -1    0    0  501    0  0.00000000000E+00 -0.00000000000E+00 -0.78566262061E+03  0.78566262061E+03  0.00000000000E+00 0. -1.
         24    2    1    2    0    0  0.36278304916E+03  0.39962755695E+02 -0.28292864140E+03  0.46861825579E+03  0.79661100504E+02 0.  0.
        254    2    1    2    0    0 -0.36278304916E+03 -0.39962755695E+02  0.14985030767E+03  0.96962865171E+03  0.88572910357E+03 0.  0.
         23    2    4    4    0    0 -0.40154706304E+03  0.35032029282E+03  0.17257662824E+03  0.56682027355E+03  0.86822684214E+02 0.  0.
         23    2    4    4    0    0  0.38764013879E+02 -0.39028304852E+03 -0.22726320565E+02  0.40280837816E+03  0.88964021600E+02 0.  0.
          4    1    3    3  502    0  0.20458546669E+03  0.33948757144E+02 -0.20709691520E+03  0.29308166708E+03  0.00000000000E+00 0. -1.
         -3    1    3    3    0  502  0.15819758247E+03  0.60139985512E+01 -0.75831726202E+02  0.17553658871E+03  0.00000000000E+00 0.  1.
         13    1    5    5    0    0 -0.23494617191E+03  0.17265350964E+03  0.13139958924E+03  0.31980429976E+03  0.00000000000E+00 0. -1.
        -13    1    5    5    0    0 -0.16660089113E+03  0.17766678318E+03  0.41177038997E+02  0.24701597379E+03  0.00000000000E+00 0.  1.
          3    1    6    6  503    0  0.61406272510E+02 -0.17479415443E+03 -0.37615387449E+01  0.18530481888E+03  0.00000000000E+00 0. -1.
         -3    1    6    6    0  503 -0.22642258630E+02 -0.21548889409E+03 -0.18964781821E+02  0.21750355929E+03  0.00000000000E+00 0.  1.
<mgrwt>
<rscale>  0 0.14320769E+04</rscale>
<asrwt>0</asrwt>
<pdfrwt beam="1">  1        2 0.12087117E+00 0.14320769E+04</pdfrwt>
<pdfrwt beam="2">  1       -1 0.10039758E+00 0.14320769E+04</pdfrwt>
<totfact> 0.36962982E+01</totfact>
</mgrwt>
</event>
<event>
12    7  0.1735955E-007  0.1502616E+04  0.7818608E-02  0.8882715E-01
         -1   -1    0    0    0  501 -0.00000000000E+00  0.00000000000E+00  0.48553849250E+03  0.48553849250E+03  0.00000000000E+00 0.  1.
          2   -1    0    0  501    0  0.00000000000E+00 -0.00000000000E+00 -0.11625517502E+04  0.11625517502E+04  0.00000000000E+00 0. -1.
         24    2    1    2    0    0  0.28365500387E+03 -0.27529632499E+03  0.75492565599E+02  0.41046113316E+03  0.80814519755E+02 0.  0.
        254    2    1    2    0    0 -0.28365500387E+03  0.27529632499E+03 -0.75250582329E+03  0.12376291095E+04  0.89956243302E+03 0.  0.
         23    2    4    4    0    0 -0.13409819407E+03  0.46039523398E+03 -0.49953166903E+02  0.49044338578E+03  0.89962762579E+02 0.  0.
         23    2    4    4    0    0 -0.14955680980E+03 -0.18509890899E+03 -0.70255265639E+03  0.74718572375E+03  0.89874497575E+02 0.  0.
          2    1    3    3  502    0  0.61659568155E+02 -0.64040748075E+02 -0.16679858232E+02  0.90450745877E+02  0.00000000000E+00 0. -1.
         -1    1    3    3    0  502  0.22199543571E+03 -0.21125557692E+03  0.92172423831E+02  0.32001038728E+03  0.00000000000E+00 0.  1.
         13    1    5    5    0    0 -0.12873663711E+03  0.35098503027E+03 -0.10447043309E+02  0.37399566030E+03  0.00000000000E+00 0. -1.
        -13    1    5    5    0    0 -0.53615569546E+01  0.10941020371E+03 -0.39506123594E+02  0.11644772548E+03  0.00000000000E+00 0.  1.
          1    1    6    6  503    0 -0.15687992224E+03 -0.14511424909E+03 -0.58676708028E+03  0.62447182626E+03  0.00000000000E+00 0. -1.
         -1    1    6    6    0  503  0.73231124416E+01 -0.39984659902E+02 -0.11578557611E+03  0.12271389749E+03  0.00000000000E+00 0.  1.
<mgrwt>
<rscale>  0 0.15026159E+04</rscale>
<asrwt>0</asrwt>
<pdfrwt beam="1">  1        2 0.17885411E+00 0.15026159E+04</pdfrwt>
<pdfrwt beam="2">  1       -1 0.74698230E-01 0.15026159E+04</pdfrwt>
<totfact> 0.39629726E+01</totfact>
</mgrwt>
</event>
<event>
12    7  0.1735955E-007  0.1640261E+04  0.7818608E-02  0.8796189E-01
          2   -1    0    0  501    0  0.00000000000E+00  0.00000000000E+00  0.23190149879E+04  0.23190149879E+04  0.00000000000E+00 0. -1.
         -1   -1    0    0    0  501 -0.00000000000E+00 -0.00000000000E+00 -0.29004295761E+03  0.29004295761E+03  0.00000000000E+00 0.  1.
         24    2    1    2    0    0 -0.10864137395E+03  0.43788167187E+03  0.15379641007E+03  0.48406784626E+03  0.84409936259E+02 0.  0.
        254    2    1    2    0    0  0.10864137395E+03 -0.43788167187E+03  0.18751756203E+04  0.21249900993E+04  0.89205157284E+03 0.  0.
         23    2    4    4    0    0  0.65150998677E+02  0.26562525982E+03  0.52240110623E+03  0.59676555997E+03  0.91786635639E+02 0.  0.
         23    2    4    4    0    0  0.43490375270E+02 -0.70350693169E+03  0.13527745140E+04  0.15282245393E+04  0.93048058234E+02 0.  0.
          2    1    3    3  502    0 -0.22512489629E+02  0.23844242788E+03  0.56748815796E+02  0.24613417418E+03  0.00000000000E+00 0. -1.
         -1    1    3    3    0  502 -0.86128884318E+02  0.19943924399E+03  0.97047594273E+02  0.23793367208E+03  0.00000000000E+00 0.  1.
         13    1    5    5    0    0  0.78713080949E+02  0.15778187059E+03  0.27684068808E+03  0.32822497524E+03  0.00000000000E+00 0.  1.
        -13    1    5    5    0    0 -0.13562082273E+02  0.10784338923E+03  0.24556041816E+03  0.26854058472E+03  0.00000000000E+00 0. -1.
          4    1    6    6  503    0  0.64283947379E+02 -0.30036846580E+03  0.57066389861E+03  0.64808249962E+03  0.00000000000E+00 0. -1.
         -4    1    6    6    0  503 -0.20793572108E+02 -0.40313846589E+03  0.78211061540E+03  0.88014203970E+03  0.00000000000E+00 0.  1.
<mgrwt>
<rscale>  0 0.16402609E+04</rscale>
<asrwt>0</asrwt>
<pdfrwt beam="1">  1        2 0.35677152E+00 0.16402609E+04</pdfrwt>
<pdfrwt beam="2">  1       -1 0.44621995E-01 0.16402609E+04</pdfrwt>
<totfact> 0.23979045E+01</totfact>
</mgrwt>
</event>
<event>
12    7  0.1735955E-007  0.1220491E+04  0.7818608E-02  0.9095107E-01
          2   -1    0    0  501    0  0.00000000000E+00  0.00000000000E+00  0.20772092257E+04  0.20772092257E+04  0.00000000000E+00 0. -1.
         -1   -1    0    0    0  501 -0.00000000000E+00 -0.00000000000E+00 -0.17927892556E+03  0.17927892556E+03  0.00000000000E+00 0.  1.
         24    2    1    2    0    0 -0.35274996285E+02 -0.24917631720E+03  0.43684669893E+03  0.51041045296E+03  0.79690838294E+02 0.  0.
        254    2    1    2    0    0  0.35274996285E+02  0.24917631720E+03  0.14610836012E+04  0.17460776983E+04  0.92232796572E+03 0.  0.
         23    2    4    4    0    0  0.15485997709E+03  0.51218968706E+03  0.12881181168E+04  0.13971566542E+04  0.80489412259E+02 0.  0.
         23    2    4    4    0    0 -0.11958498080E+03 -0.26301336986E+03  0.17296548444E+03  0.34892104413E+03  0.91390567751E+02 0.  0.
          4    1    3    3  502    0 -0.22195163517E+02 -0.10799570789E+03  0.26885045439E+03  0.29057918892E+03  0.00000000000E+00 0. -1.
         -3    1    3    3    0  502 -0.13079832768E+02 -0.14118060931E+03  0.16799624454E+03  0.21983126404E+03  0.00000000000E+00 0.  1.
         13    1    5    5    0    0  0.14760868209E+03  0.39643922825E+03  0.95743714940E+03  0.10467274143E+04  0.00000000000E+00 0. -1.
        -13    1    5    5    0    0  0.72512949997E+01  0.11575045881E+03  0.33068096740E+03  0.35042923993E+03  0.00000000000E+00 0.  1.
          3    1    6    6  503    0 -0.29232074516E+02 -0.98330936199E+02  0.11095264335E+03  0.15110915346E+03  0.00000000000E+00 0. -1.
         -3    1    6    6    0  503 -0.90352906287E+02 -0.16468243366E+03  0.62012841090E+02  0.19781189067E+03  0.00000000000E+00 0.  1.
<mgrwt>
<rscale>  0 0.12204914E+04</rscale>
<asrwt>0</asrwt>
<pdfrwt beam="1">  1        2 0.31957063E+00 0.12204914E+04</pdfrwt>
<pdfrwt beam="2">  1       -1 0.27581375E-01 0.12204914E+04</pdfrwt>
<totfact> 0.80420408E+01</totfact>
</mgrwt>
</event>
<event>
12    7  0.1735955E-007  0.1234867E+04  0.7818608E-02  0.9082874E-01
         -1   -1    0    0    0  501 -0.00000000000E+00  0.00000000000E+00  0.47575560963E+03  0.47575560963E+03  0.00000000000E+00 0.  1.
          2   -1    0    0  501    0  0.00000000000E+00 -0.00000000000E+00 -0.80130181274E+03  0.80130181274E+03  0.00000000000E+00 0. -1.
         24    2    1    2    0    0 -0.19337026240E+03  0.16464598912E+03  0.54200982132E+02  0.27187426606E+03  0.80482979363E+02 0.  0.
        254    2    1    2    0    0  0.19337026240E+03 -0.16464598912E+03 -0.37974718524E+03  0.10051831563E+04  0.89536857936E+03 0.  0.
         23    2    4    4    0    0 -0.30757298658E+03  0.48328684950E+02 -0.30999828408E+03  0.44865090678E+03  0.90839948048E+02 0.  0.
         23    2    4    4    0    0  0.50094324899E+03 -0.21297467407E+03 -0.69748901165E+02  0.55653224952E+03  0.92525050883E+02 0.  0.
          2    1    3    3  502    0 -0.32468512500E+01  0.18830684552E+02 -0.12898359312E+02  0.23054379121E+02  0.00000000000E+00 0. -1.
         -3    1    3    3    0  502 -0.19012341115E+03  0.14581530457E+03  0.67099341443E+02  0.24881988694E+03  0.00000000000E+00 0.  1.
         13    1    5    5    0    0 -0.28628988631E+03  0.69168487228E+02 -0.28031144702E+03  0.40659646575E+03  0.00000000000E+00 0. -1.
        -13    1    5    5    0    0 -0.21283100274E+02 -0.20839802278E+02 -0.29686837057E+02  0.42054441035E+02  0.00000000000E+00 0.  1.
          1    1    6    6  503    0  0.38436284894E+03 -0.12121038109E+03 -0.63877417863E+02  0.40805279149E+03  0.00000000000E+00 0. -1.
         -1    1    6    6    0  503  0.11658040005E+03 -0.91764292976E+02 -0.58714833019E+01  0.14847945803E+03  0.00000000000E+00 0.  1.
<mgrwt>
<rscale>  0 0.12348665E+04</rscale>
<asrwt>0</asrwt>
<pdfrwt beam="1">  1        2 0.12327720E+00 0.12348665E+04</pdfrwt>
<pdfrwt beam="2">  1       -1 0.73193171E-01 0.12348665E+04</pdfrwt>
<totfact> 0.72703793E+01</totfact>
</mgrwt>
</event>
<event>
12    7  0.1735955E-007  0.1090789E+04  0.7818608E-02  0.9214216E-01
          2   -1    0    0  501    0  0.00000000000E+00  0.00000000000E+00  0.65248550944E+03  0.65248550944E+03  0.00000000000E+00 0. -1.
         -1   -1    0    0    0  501 -0.00000000000E+00 -0.00000000000E+00 -0.45588029385E+03  0.45588029385E+03  0.00000000000E+00 0.  1.
         24    2    1    2    0    0  0.92961307372E+02  0.45201869142E+00 -0.95473495598E+02  0.15495737019E+03  0.79085960982E+02 0.  0.
        254    2    1    2    0    0 -0.92961307372E+02 -0.45201869142E+00  0.29207871119E+03  0.95340843310E+03  0.90279325307E+03 0.  0.
         23    2    4    4    0    0 -0.13433562367E+03 -0.14096035114E+03 -0.28164803974E+03  0.35459643140E+03  0.92179881153E+02 0.  0.
         23    2    4    4    0    0  0.41374316299E+02  0.14050833244E+03  0.57372675093E+03  0.59881200170E+03  0.89213245175E+02 0.  0.
          4    1    3    3  502    0  0.31987136922E+02 -0.37588439495E+02 -0.30138816611E+02  0.57830925800E+02  0.00000000000E+00 0. -1.
         -3    1    3    3    0  502  0.60974170450E+02  0.38040458186E+02 -0.65334678987E+02  0.97126444387E+02  0.00000000000E+00 0.  1.
         13    1    5    5    0    0 -0.85871851991E+02 -0.12699193120E+03 -0.15377116886E+03  0.21713244328E+03  0.00000000000E+00 0.  1.
        -13    1    5    5    0    0 -0.48463771680E+02 -0.13968419936E+02 -0.12787687088E+03  0.13746398811E+03  0.00000000000E+00 0. -1.
          1    1    6    6  503    0  0.33653706965E+02  0.29468880644E+02  0.30004866090E+03  0.30336477354E+03  0.00000000000E+00 0. -1.
         -1    1    6    6    0  503  0.77206093347E+01  0.11103945180E+03  0.27367809003E+03  0.29544722816E+03  0.00000000000E+00 0.  1.
<mgrwt>
<rscale>  0 0.10907892E+04</rscale>
<asrwt>0</asrwt>
<pdfrwt beam="1">  1        2 0.10038239E+00 0.10907892E+04</pdfrwt>
<pdfrwt beam="2">  1       -1 0.70135430E-01 0.10907892E+04</pdfrwt>
<totfact> 0.10440773E+02</totfact>
</mgrwt>
</event>
<event>
12    7  0.1735955E-007  0.1727352E+04  0.7818608E-02  0.8745917E-01
         -1   -1    0    0    0  501 -0.00000000000E+00  0.00000000000E+00  0.11348524303E+04  0.11348524303E+04  0.00000000000E+00 0.  1.
          2   -1    0    0  501    0  0.00000000000E+00 -0.00000000000E+00 -0.65729774126E+03  0.65729774126E+03  0.00000000000E+00 0. -1.
         24    2    1    2    0    0 -0.24195771570E+03 -0.26668014275E+03  0.71135241596E+03  0.80129180279E+03  0.79902808433E+02 0.  0.
        254    2    1    2    0    0  0.24195771570E+03  0.26668014275E+03 -0.23379772694E+03  0.99085836876E+03  0.89301573060E+03 0.  0.
         23    2    4    4    0    0  0.48184276186E+03  0.43508596780E+03 -0.15123928100E+03  0.67235992319E+03  0.87876616125E+02 0.  0.
         23    2    4    4    0    0 -0.23988504616E+03 -0.16840582505E+03 -0.82558445935E+02  0.31849844558E+03  0.93380969996E+02 0.  0.
          2    1    3    3  502    0 -0.59916755738E+02 -0.47132121101E+02  0.92374205321E+02  0.11976831078E+03  0.00000000000E+00 0. -1.
         -1    1    3    3    0  502 -0.18204095996E+03 -0.21954802165E+03  0.61897821064E+03  0.68152349201E+03  0.00000000000E+00 0.  1.
         13    1    5    5    0    0  0.11399396549E+03  0.68569552271E+02 -0.60340900115E+01  0.13316462709E+03  0.00000000000E+00 0.  1.
        -13    1    5    5    0    0  0.36784879637E+03  0.36651641552E+03 -0.14520519099E+03  0.53919529610E+03  0.00000000000E+00 0. -1.
          1    1    6    6  503    0 -0.11275940017E+03 -0.47195151443E+02  0.47833785780E+01  0.12233129345E+03  0.00000000000E+00 0. -1.
         -1    1    6    6    0  503 -0.12712564599E+03 -0.12121067360E+03 -0.87341824513E+02  0.19616715213E+03  0.00000000000E+00 0.  1.
<mgrwt>
<rscale>  0 0.17273517E+04</rscale>
<asrwt>0</asrwt>
<pdfrwt beam="1">  1        2 0.10112273E+00 0.17273517E+04</pdfrwt>
<pdfrwt beam="2">  1       -1 0.17459268E+00 0.17273517E+04</pdfrwt>
<totfact> 0.10950690E+01</totfact>
</mgrwt>
</event>
<event>
12    7  0.1735955E-007  0.1825677E+04  0.7818608E-02  0.8692762E-01
          2   -1    0    0  501    0  0.00000000000E+00  0.00000000000E+00  0.46131633827E+04  0.46131633827E+04  0.00000000000E+00 0. -1.
         -1   -1    0    0    0  501 -0.00000000000E+00 -0.00000000000E+00 -0.18062973285E+03  0.18062973285E+03  0.00000000000E+00 0.  1.
         24    2    1    2    0    0 -0.18160491658E+03 -0.43913461557E+03  0.29861770688E+04  0.30247809401E+04  0.78909397730E+02 0.  0.
        254    2    1    2    0    0  0.18160491658E+03  0.43913461557E+03  0.14463565811E+04  0.17690121755E+04  0.90090907481E+03 0.  0.
         23    2    4    4    0    0  0.38379440505E+03  0.37724236332E+03  0.14390499267E+04  0.15389957696E+04  0.89628908826E+02 0.  0.
         23    2    4    4    0    0 -0.20218948847E+03  0.61892252247E+02  0.73066544396E+01  0.23001640594E+03  0.90238127548E+02 0.  0.
          4    1    3    3  502    0 -0.11158644711E+03 -0.31577777361E+03  0.18871385500E+04  0.19166269967E+04  0.00000000000E+00 0. -1.
         -3    1    3    3    0  502 -0.70018469463E+02 -0.12335684196E+03  0.10990385188E+04  0.11081539434E+04  0.00000000000E+00 0.  1.
         13    1    5    5    0    0  0.11886808926E+03  0.17767137575E+03  0.57944094992E+03  0.61761521585E+03  0.00000000000E+00 0. -1.
        -13    1    5    5    0    0  0.26492631579E+03  0.19957098757E+03  0.85960897675E+03  0.92138055373E+03  0.00000000000E+00 0.  1.
          1    1    6    6  503    0 -0.40081196377E+02 -0.13620941067E+02  0.26832991736E+02  0.50120273185E+02  0.00000000000E+00 0. -1.
         -1    1    6    6    0  503 -0.16210829210E+03  0.75513193314E+02 -0.19526337297E+02  0.17989613275E+03  0.00000000000E+00 0.  1.
<mgrwt>
<rscale>  0 0.18256774E+04</rscale>
<asrwt>0</asrwt>
<pdfrwt beam="1">  1        2 0.70971735E+00 0.18256774E+04</pdfrwt>
<pdfrwt beam="2">  1       -1 0.27789193E-01 0.18256774E+04</pdfrwt>
<totfact> 0.12138418E+00</totfact>
</mgrwt>
</event>
<event>
12    7  0.1735955E-007  0.2381447E+04  0.7818608E-02  0.8446482E-01
          2   -1    0    0  501    0  0.00000000000E+00  0.00000000000E+00  0.13167027380E+04  0.13167027380E+04  0.00000000000E+00 0. -1.
         -1   -1    0    0    0  501 -0.00000000000E+00 -0.00000000000E+00 -0.10767973468E+04  0.10767973468E+04  0.00000000000E+00 0.  1.
         24    2    1    2    0    0  0.92107059521E+03  0.43343775378E+03  0.16197682116E+03  0.10337010483E+04  0.77859096538E+02 0.  0.
        254    2    1    2    0    0 -0.92107059521E+03 -0.43343775378E+03  0.77928570063E+02  0.13597990366E+04  0.89818774766E+03 0.  0.
         23    2    4    4    0    0 -0.60323336407E+03  0.94188665907E+02  0.31580953609E+03  0.69342538513E+03  0.91329652074E+02 0.  0.
         23    2    4    4    0    0 -0.31783723114E+03 -0.52762641969E+03 -0.23788096602E+03  0.66637365144E+03  0.89757145010E+02 0.  0.
          2    1    3    3  502    0  0.88330476879E+03  0.42473058593E+03  0.16821876066E+03  0.99444503952E+03  0.00000000000E+00 0. -1.
         -1    1    3    3    0  502  0.37765826420E+02  0.87071678521E+01 -0.62419394932E+01  0.39256008786E+02  0.00000000000E+00 0.  1.
         13    1    5    5    0    0  0.13145904910E+01 -0.34521178545E+01 -0.11623889877E+01  0.38725203678E+01  0.00000000000E+00 0.  1.
        -13    1    5    5    0    0 -0.60454795456E+03  0.97640783762E+02  0.31697192507E+03  0.68955286476E+03  0.00000000000E+00 0. -1.
          1    1    6    6  503    0 -0.24728628551E+03 -0.40303137788E+03 -0.22182236451E+03  0.52229298287E+03  0.00000000000E+00 0. -1.
         -1    1    6    6    0  503 -0.70550945628E+02 -0.12459504181E+03 -0.16058601517E+02  0.14408066857E+03  0.00000000000E+00 0.  1.
<mgrwt>
<rscale>  0 0.23814466E+04</rscale>
<asrwt>0</asrwt>
<pdfrwt beam="1">  1        2 0.20256965E+00 0.23814466E+04</pdfrwt>
<pdfrwt beam="2">  1       -1 0.16566113E+00 0.23814466E+04</pdfrwt>
<totfact> 0.43957551E+00</totfact>
</mgrwt>
</event>
<event>
12    7  0.1735955E-007  0.1878739E+04  0.7818608E-02  0.8665512E-01
         -1   -1    0    0    0  501 -0.00000000000E+00  0.00000000000E+00  0.73816395766E+03  0.73816395766E+03  0.00000000000E+00 0.  1.
          2   -1    0    0  501    0  0.00000000000E+00 -0.00000000000E+00 -0.11954185606E+04  0.11954185606E+04  0.00000000000E+00 0. -1.
         24    2    1    2    0    0 -0.36850346580E+03  0.13225402842E+03 -0.77636249649E+03  0.87324840447E+03  0.80858627314E+02 0.  0.
        254    2    1    2    0    0  0.36850346580E+03 -0.13225402842E+03  0.31910789359E+03  0.10603341137E+04  0.93230502128E+03 0.  0.
         23    2    4    4    0    0  0.40702125728E+03 -0.47853082400E+03  0.29467689395E+03  0.70046116576E+03  0.95672982206E+02 0.  0.
         23    2    4    4    0    0 -0.38517791480E+02  0.34627679558E+03  0.24430999638E+02  0.35987294799E+03  0.86720387045E+02 0.  0.
          2    1    3    3  502    0 -0.11678269186E+03  0.31547112875E+02 -0.16619120832E+03  0.20555518766E+03  0.00000000000E+00 0. -1.
         -1    1    3    3    0  502 -0.25172077393E+03  0.10070691554E+03 -0.61017128817E+03  0.66769321681E+03  0.00000000000E+00 0.  1.
         13    1    5    5    0    0  0.16390087034E+03 -0.18525744046E+03  0.65437420000E+02  0.25586299162E+03  0.00000000000E+00 0.  1.
        -13    1    5    5    0    0  0.24312038693E+03 -0.29327338354E+03  0.22923947395E+03  0.44459817414E+03  0.00000000000E+00 0. -1.
          4    1    6    6  503    0  0.89020985888E+01  0.13241243503E+03  0.44313060162E+02  0.13991407224E+03  0.00000000000E+00 0.  1.
         -4    1    6    6    0  503 -0.47419890069E+02  0.21386436056E+03 -0.19882060524E+02  0.21995887575E+03  0.00000000000E+00 0. -1.
<mgrwt>
<rscale>  0 0.18787388E+04</rscale>
<asrwt>0</asrwt>
<pdfrwt beam="1">  1        2 0.18391055E+00 0.18787388E+04</pdfrwt>
<pdfrwt beam="2">  1       -1 0.11356369E+00 0.18787388E+04</pdfrwt>
<totfact> 0.14425309E+01</totfact>
</mgrwt>
</event>
<event>
12    7  0.1735955E-007  0.1349344E+04  0.7818608E-02  0.8991325E-01
          2   -1    0    0  501    0  0.00000000000E+00  0.00000000000E+00  0.25836004633E+04  0.25836004633E+04  0.00000000000E+00 0. -1.
         -1   -1    0    0    0  501 -0.00000000000E+00 -0.00000000000E+00 -0.17618134649E+03  0.17618134649E+03  0.00000000000E+00 0.  1.
         24    2    1    2    0    0 -0.22211930251E+03  0.14550009779E+02  0.13389083214E+04  0.13597042589E+04  0.81064735762E+02 0.  0.
        254    2    1    2    0    0  0.22211930251E+03 -0.14550009779E+02  0.10685107954E+04  0.14000775509E+04  0.87689973264E+03 0.  0.
         23    2    4    4    0    0 -0.15082372717E+03 -0.32100287886E+03  0.24153691988E+03  0.43830975003E+03  0.89357195528E+02 0.  0.
         23    2    4    4    0    0  0.37294302968E+03  0.30645286908E+03  0.82697387556E+03  0.96176780082E+03  0.90064685052E+02 0.  0.
          2    1    3    3  502    0 -0.13333413915E+03 -0.43646658112E+01  0.99959213849E+03  0.10084549996E+04  0.00000000000E+00 0. -1.
         -1    1    3    3    0  502 -0.88785163365E+02  0.18914675590E+02  0.33931618288E+03  0.35124925929E+03  0.00000000000E+00 0.  1.
         13    1    5    5    0    0 -0.33299604238E+01 -0.98743516386E+02  0.58794806952E+02  0.11497043093E+03  0.00000000000E+00 0.  1.
        -13    1    5    5    0    0 -0.14749376674E+03 -0.22225936247E+03  0.18274211293E+03  0.32333931909E+03  0.00000000000E+00 0. -1.
          1    1    6    6  503    0  0.22003242006E+03  0.23597774078E+03  0.53967461821E+03  0.62876740816E+03  0.00000000000E+00 0. -1.
         -1    1    6    6    0  503  0.15291060962E+03  0.70475128296E+02  0.28729925735E+03  0.33300039267E+03  0.00000000000E+00 0.  1.
<mgrwt>
<rscale>  0 0.13493439E+04</rscale>
<asrwt>0</asrwt>
<pdfrwt beam="1">  1        2 0.39747697E+00 0.13493439E+04</pdfrwt>
<pdfrwt beam="2">  1       -1 0.27104824E-01 0.13493439E+04</pdfrwt>
<totfact> 0.42383966E+01</totfact>
</mgrwt>
</event>
<event>
12    7  0.1735955E-007  0.1308331E+04  0.7818608E-02  0.9022984E-01
          2   -1    0    0  501    0  0.00000000000E+00  0.00000000000E+00  0.30927465301E+03  0.30927465301E+03  0.00000000000E+00 0. -1.
         -1   -1    0    0    0  501 -0.00000000000E+00 -0.00000000000E+00 -0.13836655665E+04  0.13836655665E+04  0.00000000000E+00 0.  1.
         24    2    1    2    0    0 -0.32205113262E+03 -0.75552900324E+02 -0.19633876052E+03  0.39357691566E+03  0.83238854442E+02 0.  0.
        254    2    1    2    0    0  0.32205113262E+03  0.75552900324E+02 -0.87805215301E+03  0.12993633039E+04  0.89885718517E+03 0.  0.
         23    2    4    4    0    0  0.39163127883E+03 -0.49864412778E+02 -0.10071872413E+04  0.10856442548E+04  0.91300551425E+02 0.  0.
         23    2    4    4    0    0 -0.69580146211E+02  0.12541731310E+03  0.12913508830E+03  0.21371904909E+03  0.91809921802E+02 0.  0.
          2    1    3    3  502    0 -0.45421217755E+02 -0.31393281682E+02 -0.74578921874E+01  0.55715754621E+02  0.00000000000E+00 0. -1.
         -1    1    3    3    0  502 -0.27662991486E+03 -0.44159618643E+02 -0.18888086833E+03  0.33786116104E+03  0.00000000000E+00 0.  1.
         13    1    5    5    0    0  0.22337329271E+03  0.16317918160E+02 -0.53208820599E+03  0.57730387258E+03  0.00000000000E+00 0.  1.
        -13    1    5    5    0    0  0.16825798612E+03 -0.66182330938E+02 -0.47509903533E+03  0.50834038222E+03  0.00000000000E+00 0. -1.
          1    1    6    6  503    0 -0.68264704095E+02  0.30101019677E+02  0.63638901572E+02  0.98061465439E+02  0.00000000000E+00 0. -1.
         -1    1    6    6    0  503 -0.13154421167E+01  0.95316293425E+02  0.65496186733E+02  0.11565758365E+03  0.00000000000E+00 0.  1.
<mgrwt>
<rscale>  0 0.13083313E+04</rscale>
<asrwt>0</asrwt>
<pdfrwt beam="1">  1        2 0.47580715E-01 0.13083313E+04</pdfrwt>
<pdfrwt beam="2">  1       -1 0.21287163E+00 0.13083313E+04</pdfrwt>
<totfact> 0.14640750E+01</totfact>
</mgrwt>
</event>
<event>
12    7  0.1735955E-007  0.1467724E+04  0.7818608E-02  0.8906204E-01
         -1   -1    0    0    0  501 -0.00000000000E+00  0.00000000000E+00  0.16639551095E+03  0.16639551095E+03  0.00000000000E+00 0.  1.
          2   -1    0    0  501    0  0.00000000000E+00 -0.00000000000E+00 -0.32365875503E+04  0.32365875503E+04  0.00000000000E+00 0. -1.
         24    2    1    2    0    0  0.11921711461E+03  0.38412894114E+03 -0.47536963373E+03  0.62826989759E+03  0.83540479460E+02 0.  0.
        254    2    1    2    0    0 -0.11921711461E+03 -0.38412894114E+03 -0.25948224056E+04  0.27747131637E+04  0.89675083497E+03 0.  0.
         23    2    4    4    0    0  0.32289607578E+03 -0.18933110916E+03 -0.54740431722E+03  0.66904919108E+03  0.88697175367E+02 0.  0.
         23    2    4    4    0    0 -0.44211319039E+03 -0.19479783198E+03 -0.20474180884E+04  0.21056639726E+04  0.92139395772E+02 0.  0.
          4    1    3    3  502    0  0.64014991407E+02  0.19671686187E+03 -0.30791177388E+03  0.37095161862E+03  0.00000000000E+00 0. -1.
         -1    1    3    3    0  502  0.55202123205E+02  0.18741207927E+03 -0.16745785985E+03  0.25731827897E+03  0.00000000000E+00 0.  1.
         13    1    5    5    0    0  0.78027091386E+02 -0.85622761803E+02 -0.12992245307E+03  0.17406702198E+03  0.00000000000E+00 0. -1.
        -13    1    5    5    0    0  0.24486898440E+03 -0.10370834736E+03 -0.41748186415E+03  0.49498216910E+03  0.00000000000E+00 0.  1.
          1    1    6    6  503    0 -0.16522139189E+03 -0.70384967723E+02 -0.96086740387E+03  0.97750617382E+03  0.00000000000E+00 0. -1.
         -1    1    6    6    0  503 -0.27689179851E+03 -0.12441286425E+03 -0.10865506845E+04  0.11281577988E+04  0.00000000000E+00 0.  1.
<mgrwt>
<rscale>  0 0.14677243E+04</rscale>
<asrwt>0</asrwt>
<pdfrwt beam="1">  1        2 0.49793650E+00 0.14677243E+04</pdfrwt>
<pdfrwt beam="2">  1       -1 0.25599312E-01 0.14677243E+04</pdfrwt>
<totfact> 0.18400714E+01</totfact>
</mgrwt>
</event>
<event>
12    7  0.1767777E-007  0.1990824E+04  0.7818608E-02  0.8610923E-01
         -3   -1    0    0    0  501 -0.00000000000E+00  0.00000000000E+00  0.11636115341E+04  0.11636115341E+04  0.00000000000E+00 0.  1.
          4   -1    0    0  501    0  0.00000000000E+00 -0.00000000000E+00 -0.85152572212E+03  0.85152572212E+03  0.00000000000E+00 0. -1.
         24    2    1    2    0    0 -0.33815767916E+03 -0.34165227964E+03 -0.50063550218E+03  0.69873253091E+03  0.80711508170E+02 0.  0.
        254    2    1    2    0    0  0.33815767916E+03  0.34165227964E+03  0.81272131421E+03  0.13164047253E+04  0.91723964708E+03 0.  0.
         23    2    4    4    0    0  0.24423527291E+03  0.23744525229E+03  0.10030729851E+04  0.10633912870E+04  0.92814328371E+02 0.  0.
         23    2    4    4    0    0  0.93922406248E+02  0.10420702735E+03 -0.19035167089E+03  0.25301343830E+03  0.90008435184E+02 0.  0.
          2    1    3    3  502    0 -0.32088298872E+03 -0.34247651783E+03 -0.47445580972E+03  0.66735625650E+03  0.00000000000E+00 0. -1.
         -1    1    3    3    0  502 -0.17274690443E+02  0.82423819017E+00 -0.26179692466E+02  0.31376274414E+02  0.00000000000E+00 0.  1.
         13    1    5    5    0    0  0.22857290745E+03  0.19020152414E+03  0.91647985381E+03  0.96351311161E+03  0.00000000000E+00 0.  1.
        -13    1    5    5    0    0  0.15662365460E+02  0.47243728145E+02  0.86593131293E+02  0.99878175434E+02  0.00000000000E+00 0. -1.
          1    1    6    6  503    0  0.29734610552E+02 -0.10021393580E+02 -0.16916551270E+02  0.35647511846E+02  0.00000000000E+00 0. -1.
         -1    1    6    6    0  503  0.64187795696E+02  0.11422842093E+03 -0.17343511962E+03  0.21736592646E+03  0.00000000000E+00 0.  1.
<mgrwt>
<rscale>  0 0.19908241E+04</rscale>
<asrwt>0</asrwt>
<pdfrwt beam="1">  1        4 0.13100396E+00 0.19908241E+04</pdfrwt>
<pdfrwt beam="2">  1       -3 0.17901716E+00 0.19908241E+04</pdfrwt>
<totfact> 0.18096206E-01</totfact>
</mgrwt>
</event>
<event>
12    7  0.1735955E-007  0.1811033E+04  0.7818608E-02  0.8700454E-01
         -1   -1    0    0    0  501 -0.00000000000E+00  0.00000000000E+00  0.81296280343E+03  0.81296280343E+03  0.00000000000E+00 0.  1.
          2   -1    0    0  501    0  0.00000000000E+00 -0.00000000000E+00 -0.10086069000E+04  0.10086069000E+04  0.00000000000E+00 0. -1.
         24    2    1    2    0    0  0.14501651793E+03  0.49386346648E+03 -0.51780970346E+03  0.73436424838E+03  0.78949644125E+02 0.  0.
        254    2    1    2    0    0 -0.14501651793E+03 -0.49386346648E+03  0.32216560693E+03  0.10872054550E+04  0.90182820377E+03 0.  0.
         23    2    4    4    0    0  0.25651496455E+03 -0.40347827197E+03  0.43320456413E+03  0.65127734138E+03  0.88889470804E+02 0.  0.
         23    2    4    4    0    0 -0.40153148248E+03 -0.90385194511E+02 -0.11103895721E+03  0.43592811363E+03  0.91140854868E+02 0.  0.
          4    1    3    3  502    0  0.50635336864E+02  0.30946587113E+03 -0.31340666269E+03  0.44334726677E+03  0.00000000000E+00 0. -1.
         -3    1    3    3    0  502  0.94381181071E+02  0.18439759535E+03 -0.20440304077E+03  0.29101698161E+03  0.00000000000E+00 0.  1.
         13    1    5    5    0    0  0.23635532319E+03 -0.32130999700E+03  0.32902000866E+03  0.51706684197E+03  0.00000000000E+00 0. -1.
        -13    1    5    5    0    0  0.20159641361E+02 -0.82168274971E+02  0.10418455548E+03  0.13421049941E+03  0.00000000000E+00 0.  1.
          1    1    6    6  503    0 -0.34701672121E+03 -0.53914565704E+02 -0.68632048434E+02  0.35782362033E+03  0.00000000000E+00 0. -1.
         -1    1    6    6    0  503 -0.54514761271E+02 -0.36470628807E+02 -0.42406908772E+02  0.78104493300E+02  0.00000000000E+00 0.  1.
<mgrwt>
<rscale>  0 0.18110327E+04</rscale>
<asrwt>0</asrwt>
<pdfrwt beam="1">  1        2 0.15517029E+00 0.18110327E+04</pdfrwt>
<pdfrwt beam="2">  1       -1 0.12507120E+00 0.18110327E+04</pdfrwt>
<totfact> 0.14957300E+01</totfact>
</mgrwt>
</event>
<event>
12    7  0.1735955E-007  0.3146927E+04  0.7818608E-02  0.8202976E-01
         -3   -1    0    0    0  501 -0.00000000000E+00  0.00000000000E+00  0.11263208732E+04  0.11263208732E+04  0.00000000000E+00 0.  1.
          2   -1    0    0  501    0  0.00000000000E+00 -0.00000000000E+00 -0.21981183995E+04  0.21981183995E+04  0.00000000000E+00 0. -1.
         24    2    1    2    0    0 -0.68358615336E+03  0.24534118247E+03 -0.18138875427E+04  0.19555080859E+04  0.79633735492E+02 0.  0.
        254    2    1    2    0    0  0.68358615336E+03 -0.24534118247E+03  0.74209001637E+03  0.13689311867E+04  0.89207212531E+03 0.  0.
         23    2    4    4    0    0 -0.28834175742E+02 -0.22844827373E+03 -0.95857505977E+02  0.26512106392E+03  0.89891565886E+02 0.  0.
         23    2    4    4    0    0  0.71242032910E+03 -0.16892908737E+02  0.83794752235E+03  0.11038101228E+04  0.91720452243E+02 0.  0.
          2    1    3    3  502    0 -0.50413026689E+03  0.17617606941E+03 -0.14220470002E+04  0.15190138262E+04  0.00000000000E+00 0. -1.
         -1    1    3    3    0  502 -0.17945588647E+03  0.69165113065E+02 -0.39184054244E+03  0.43649425970E+03  0.00000000000E+00 0.  1.
         13    1    5    5    0    0 -0.14052566348E+01 -0.61167750259E+01  0.14202710689E+02  0.15527610049E+02  0.00000000000E+00 0. -1.
        -13    1    5    5    0    0 -0.27428919107E+02 -0.22233149871E+03 -0.11006021667E+03  0.24959345387E+03  0.00000000000E+00 0.  1.
          2    1    6    6  503    0  0.11234703104E+03  0.14214093942E+02  0.18102773144E+03  0.21352970613E+03  0.00000000000E+00 0. -1.
         -2    1    6    6    0  503  0.60007329806E+03 -0.31107002679E+02  0.65691979091E+03  0.89028041670E+03  0.00000000000E+00 0.  1.
<mgrwt>
<rscale>  0 0.31469265E+04</rscale>
<asrwt>0</asrwt>
<pdfrwt beam="1">  1        2 0.33817206E+00 0.31469265E+04</pdfrwt>
<pdfrwt beam="2">  1       -3 0.17328013E+00 0.31469265E+04</pdfrwt>
<totfact> 0.60960521E-01</totfact>
</mgrwt>
</event>
<event>
12    7  0.1735955E-007  0.2336325E+04  0.7818608E-02  0.8463735E-01
          2   -1    0    0  501    0  0.00000000000E+00  0.00000000000E+00  0.23352535654E+04  0.23352535654E+04  0.00000000000E+00 0. -1.
         -1   -1    0    0    0  501 -0.00000000000E+00 -0.00000000000E+00 -0.58434941244E+03  0.58434941244E+03  0.00000000000E+00 0.  1.
         24    2    1    2    0    0  0.43595498943E+03  0.88703132661E+03  0.61506672867E+03  0.11666024626E+04  0.75979587539E+02 0.  0.
        254    2    1    2    0    0 -0.43595498943E+03 -0.88703132661E+03  0.11358374243E+04  0.17530005153E+04  0.89777660083E+03 0.  0.
         23    2    4    4    0    0 -0.48540592047E+03 -0.10360142654E+04  0.92049877121E+03  0.14713010532E+04  0.92001823538E+02 0.  0.
         23    2    4    4    0    0  0.49450931040E+02  0.14898293879E+03  0.21533865312E+03  0.28169946214E+03  0.91337510429E+02 0.  0.
          4    1    3    3  502    0  0.21321226857E+03  0.35170251441E+03  0.26638081741E+03  0.49001313247E+03  0.00000000000E+00 0. -1.
         -3    1    3    3    0  502  0.22274272086E+03  0.53532881221E+03  0.34868591126E+03  0.67658933009E+03  0.00000000000E+00 0.  1.
         13    1    5    5    0    0 -0.41427201957E+03 -0.86464620569E+03  0.72711015750E+03  0.12032969494E+04  0.00000000000E+00 0. -1.
        -13    1    5    5    0    0 -0.71133900899E+02 -0.17136805972E+03  0.19338861371E+03  0.26800410381E+03  0.00000000000E+00 0.  1.
          2    1    6    6  503    0  0.66344094364E+02  0.14968098898E+03  0.20284809936E+03  0.26067851605E+03  0.00000000000E+00 0. -1.
         -2    1    6    6    0  503 -0.16893163325E+02 -0.69805018461E+00  0.12490553758E+02  0.21020946086E+02  0.00000000000E+00 0.  1.
<mgrwt>
<rscale>  0 0.23363254E+04</rscale>
<asrwt>0</asrwt>
<pdfrwt beam="1">  1        2 0.35926978E+00 0.23363254E+04</pdfrwt>
<pdfrwt beam="2">  1       -1 0.89899911E-01 0.23363254E+04</pdfrwt>
<totfact> 0.53906807E+00</totfact>
</mgrwt>
</event>
<event>
12    7  0.1735955E-007  0.2341501E+04  0.7818608E-02  0.8461735E-01
          2   -1    0    0  501    0  0.00000000000E+00  0.00000000000E+00  0.25315222661E+04  0.25315222661E+04  0.00000000000E+00 0. -1.
         -1   -1    0    0    0  501 -0.00000000000E+00 -0.00000000000E+00 -0.54143586902E+03  0.54143586902E+03  0.00000000000E+00 0.  1.
         24    2    1    2    0    0  0.26655953435E+03  0.79749584736E+03  0.15586488546E+04  0.17727453233E+04  0.78651876040E+02 0.  0.
        254    2    1    2    0    0 -0.26655953435E+03 -0.79749584736E+03  0.43143754253E+03  0.13002128118E+04  0.89295094544E+03 0.  0.
         23    2    4    4    0    0 -0.82186498341E+01 -0.32318589354E+03  0.63322990418E+03  0.71688162885E+03  0.91774126269E+02 0.  0.
         23    2    4    4    0    0 -0.25834088452E+03 -0.47430995382E+03 -0.20179236165E+03  0.58333118295E+03  0.88572946635E+02 0.  0.
          2    1    3    3  502    0  0.22419040150E+03  0.72912494538E+03  0.14368751699E+04  0.16268050824E+04  0.00000000000E+00 0. -1.
         -1    1    3    3    0  502  0.42369132852E+02  0.68370901977E+02  0.12177368468E+03  0.14594024097E+03  0.00000000000E+00 0.  1.
         13    1    5    5    0    0 -0.12074791049E+02 -0.29589127242E+03  0.50243798759E+03  0.58321640670E+03  0.00000000000E+00 0. -1.
        -13    1    5    5    0    0  0.38561412152E+01 -0.27294621114E+02  0.13079191659E+03  0.13366522215E+03  0.00000000000E+00 0.  1.
          1    1    6    6  503    0 -0.22787246245E+03 -0.38742234636E+03 -0.19808463588E+03  0.49118169405E+03  0.00000000000E+00 0. -1.
         -1    1    6    6    0  503 -0.30468422069E+02 -0.86887607468E+02 -0.37077257729E+01  0.92149488904E+02  0.00000000000E+00 0.  1.
<mgrwt>
<rscale>  0 0.23415012E+04</rscale>
<asrwt>0</asrwt>
<pdfrwt beam="1">  1        2 0.38946496E+00 0.23415012E+04</pdfrwt>
<pdfrwt beam="2">  1       -1 0.83297827E-01 0.23415012E+04</pdfrwt>
<totfact> 0.49068359E+00</totfact>
</mgrwt>
</event>
<event>
12    7  0.1735955E-007  0.1524916E+04  0.7818608E-02  0.8868051E-01
         -1   -1    0    0    0  501 -0.00000000000E+00  0.00000000000E+00  0.21812825426E+03  0.21812825426E+03  0.00000000000E+00 0.  1.
          2   -1    0    0  501    0  0.00000000000E+00 -0.00000000000E+00 -0.26651390426E+04  0.26651390426E+04  0.00000000000E+00 0. -1.
         24    2    1    2    0    0  0.20661140922E+03  0.74428139854E+02 -0.16361071914E+04  0.16527118300E+04  0.79886348361E+02 0.  0.
        254    2    1    2    0    0 -0.20661140922E+03 -0.74428139854E+02 -0.81090359690E+03  0.12305554669E+04  0.89915198447E+03 0.  0.
         23    2    4    4    0    0 -0.24879265897E+03  0.15977378412E+03  0.66879130298E+02  0.31651448728E+03  0.91011830753E+02 0.  0.
         23    2    4    4    0    0  0.42181249758E+02 -0.23420192397E+03 -0.87778272719E+03  0.91404097959E+03  0.91315919699E+02 0.  0.
          4    1    3    3  502    0  0.13290857909E+03  0.28793670681E+02 -0.73752298207E+03  0.74995594200E+03  0.00000000000E+00 0. -1.
         -3    1    3    3    0  502  0.73702830128E+02  0.45634469173E+02 -0.89858420936E+03  0.90275588797E+03  0.00000000000E+00 0.  1.
         13    1    5    5    0    0 -0.19876813971E+03  0.14084743795E+03  0.87987649526E+02  0.25901467257E+03  0.00000000000E+00 0.  1.
        -13    1    5    5    0    0 -0.50024519265E+02  0.18926346172E+02 -0.21108519228E+02  0.57499814705E+02  0.00000000000E+00 0. -1.
          1    1    6    6  503    0  0.78185250807E+01 -0.12790328916E+03 -0.31120324513E+03  0.33655287919E+03  0.00000000000E+00 0. -1.
         -1    1    6    6    0  503  0.34362724677E+02 -0.10629863482E+03 -0.56657948206E+03  0.57748810040E+03  0.00000000000E+00 0.  1.
<mgrwt>
<rscale>  0 0.15249159E+04</rscale>
<asrwt>0</asrwt>
<pdfrwt beam="1">  1        2 0.41002139E+00 0.15249159E+04</pdfrwt>
<pdfrwt beam="2">  1       -1 0.33558193E-01 0.15249159E+04</pdfrwt>
<totfact> 0.25690905E+01</totfact>
</mgrwt>
</event>
<event>
12    7  0.1735955E-007  0.2419913E+04  0.7818608E-02  0.8432086E-01
         -1   -1    0    0    0  501 -0.00000000000E+00  0.00000000000E+00  0.15483614092E+04  0.15483614092E+04  0.00000000000E+00 0.  1.
          2   -1    0    0  501    0  0.00000000000E+00 -0.00000000000E+00 -0.94551198722E+03  0.94551198722E+03  0.00000000000E+00 0. -1.
         24    2    1    2    0    0 -0.92050407970E+01 -0.93989381361E+03 -0.18346308772E+03  0.96099479632E+03  0.79794613543E+02 0.  0.
        254    2    1    2    0    0  0.92050407970E+01  0.93989381361E+03  0.78631250974E+03  0.15328786001E+04  0.92083892519E+03 0.  0.
         23    2    4    4    0    0  0.33335462977E+03  0.90710280774E+03  0.51285218952E+03  0.10978673767E+04  0.91294005424E+02 0.  0.
         23    2    4    4    0    0 -0.32414958897E+03  0.32791005876E+02  0.27346032022E+03  0.43501122349E+03  0.91137323461E+02 0.  0.
          2    1    3    3  502    0 -0.43643443706E+02 -0.60812959385E+03 -0.11262463503E+03  0.62000859793E+03  0.00000000000E+00 0. -1.
         -1    1    3    3    0  502  0.34438402909E+02 -0.33176421977E+03 -0.70838452687E+02  0.34098619839E+03  0.00000000000E+00 0.  1.
         13    1    5    5    0    0  0.19501530478E+03  0.48289844160E+03  0.32403800070E+03  0.61336979050E+03  0.00000000000E+00 0.  1.
        -13    1    5    5    0    0  0.13833932499E+03  0.42420436613E+03  0.18881418882E+03  0.48449758615E+03  0.00000000000E+00 0. -1.
          3    1    6    6  503    0 -0.22838644699E+03  0.35154226107E+02  0.24096648565E+03  0.33385780804E+03  0.00000000000E+00 0. -1.
         -3    1    6    6    0  503 -0.95763141982E+02 -0.23632202313E+01  0.32493834575E+02  0.10115341545E+03  0.00000000000E+00 0.  1.
<mgrwt>
<rscale>  0 0.24199126E+04</rscale>
<asrwt>0</asrwt>
<pdfrwt beam="1">  1        2 0.14546338E+00 0.24199126E+04</pdfrwt>
<pdfrwt beam="2">  1       -1 0.23820945E+00 0.24199126E+04</pdfrwt>
<totfact> 0.23311056E+00</totfact>
</mgrwt>
</event>
<event>
12    7  0.1735955E-007  0.2398499E+04  0.7818608E-02  0.8440066E-01
          2   -1    0    0  501    0  0.00000000000E+00  0.00000000000E+00  0.28540737088E+04  0.28540737088E+04  0.00000000000E+00 0. -1.
         -1   -1    0    0    0  501 -0.00000000000E+00 -0.00000000000E+00 -0.50391092254E+03  0.50391092254E+03  0.00000000000E+00 0.  1.
         24    2    1    2    0    0 -0.16045718575E+03 -0.43795001791E+03 -0.27289118812E+03  0.54642061915E+03  0.80988677151E+02 0.  0.
        254    2    1    2    0    0  0.16045718575E+03  0.43795001791E+03  0.26230539743E+04  0.28115640121E+04  0.89829467075E+03 0.  0.
         23    2    4    4    0    0  0.20992444980E+03 -0.51701519857E+02  0.19912759408E+04  0.20054697875E+04  0.99939354225E+02 0.  0.
         23    2    4    4    0    0 -0.49467264046E+02  0.48965153777E+03  0.63177803352E+03  0.80609422461E+03  0.91862814288E+02 0.  0.
          4    1    3    3  502    0 -0.45552637292E+02 -0.96819229690E+02 -0.26577884128E+02  0.11025148492E+03  0.00000000000E+00 0. -1.
         -3    1    3    3    0  502 -0.11490454846E+03 -0.34113078822E+03 -0.24631330400E+03  0.43616913423E+03  0.00000000000E+00 0.  1.
         13    1    5    5    0    0  0.18528249455E+03 -0.77871826435E+02  0.17559116047E+04  0.17673763571E+04  0.00000000000E+00 0. -1.
        -13    1    5    5    0    0  0.24641955245E+02  0.26170306578E+02  0.23536433613E+03  0.23809343045E+03  0.00000000000E+00 0.  1.
          4    1    6    6  503    0 -0.49769855161E+02  0.48904811616E+03  0.63486670666E+03  0.80293264577E+03  0.00000000000E+00 0. -1.
         -4    1    6    6    0  503  0.30259111539E+00  0.60342160289E+00 -0.30886731380E+01  0.31615788409E+01  0.00000000000E+00 0.  1.
<mgrwt>
<rscale>  0 0.23984986E+04</rscale>
<asrwt>0</asrwt>
<pdfrwt beam="1">  1        2 0.43908825E+00 0.23984986E+04</pdfrwt>
<pdfrwt beam="2">  1       -1 0.77524759E-01 0.23984986E+04</pdfrwt>
<totfact> 0.36577574E+00</totfact>
</mgrwt>
</event>
<event>
12    7  0.1735955E-007  0.2040454E+04  0.7818608E-02  0.8587937E-01
         -1   -1    0    0    0  501 -0.00000000000E+00  0.00000000000E+00  0.68559268008E+03  0.68559268008E+03  0.00000000000E+00 0.  1.
          2   -1    0    0  501    0  0.00000000000E+00 -0.00000000000E+00 -0.15181942685E+04  0.15181942685E+04  0.00000000000E+00 0. -1.
         24    2    1    2    0    0  0.29225311699E+03 -0.52774958518E+03  0.29375468332E+03  0.67562766030E+03  0.79053224776E+02 0.  0.
        254    2    1    2    0    0 -0.29225311699E+03  0.52774958518E+03 -0.11263562717E+04  0.15281592883E+04  0.83824868053E+03 0.  0.
         23    2    4    4    0    0 -0.33117680805E+03 -0.12450574605E+03 -0.49617422574E+03  0.61577436411E+03  0.88371071168E+02 0.  0.
         23    2    4    4    0    0  0.38923691058E+02  0.65225533123E+03 -0.63018204599E+03  0.91238492416E+03  0.91459105060E+02 0.  0.
          4    1    3    3  502    0  0.53266651874E+02 -0.99214218242E+02  0.22031783849E+02  0.11474404910E+03  0.00000000000E+00 0. -1.
         -3    1    3    3    0  502  0.23898646511E+03 -0.42853536694E+03  0.27172289948E+03  0.56088361121E+03  0.00000000000E+00 0.  1.
         13    1    5    5    0    0 -0.72801148783E+02 -0.68494617647E+02 -0.14824138483E+03  0.17879325515E+03  0.00000000000E+00 0. -1.
        -13    1    5    5    0    0 -0.25837565926E+03 -0.56011128405E+02 -0.34793284092E+03  0.43698110897E+03  0.00000000000E+00 0.  1.
          3    1    6    6  503    0 -0.35753433843E+01  0.16092355625E+02 -0.82468836915E+00  0.16505365818E+02  0.00000000000E+00 0. -1.
         -3    1    6    6    0  503  0.42499034442E+02  0.63616297561E+03 -0.62935735762E+03  0.89587955834E+03  0.00000000000E+00 0.  1.
<mgrwt>
<rscale>  0 0.20404538E+04</rscale>
<asrwt>0</asrwt>
<pdfrwt beam="1">  1        2 0.23356835E+00 0.20404538E+04</pdfrwt>
<pdfrwt beam="2">  1       -1 0.10547580E+00 0.20404538E+04</pdfrwt>
<totfact> 0.11018309E+01</totfact>
</mgrwt>
</event>
<event>
12    7  0.1735955E-007  0.2238455E+04  0.7818608E-02  0.8502591E-01
         -1   -1    0    0    0  501 -0.00000000000E+00  0.00000000000E+00  0.98559353938E+03  0.98559353938E+03  0.00000000000E+00 0.  1.
          2   -1    0    0  501    0  0.00000000000E+00 -0.00000000000E+00 -0.12709808446E+04  0.12709808446E+04  0.00000000000E+00 0. -1.
         24    2    1    2    0    0  0.62661768280E+03 -0.16614108725E+03  0.56072134790E+03  0.86084012320E+03  0.79904358099E+02 0.  0.
        254    2    1    2    0    0 -0.62661768280E+03  0.16614108725E+03 -0.84610865317E+03  0.13957342608E+04  0.90106697453E+03 0.  0.
         23    2    4    4    0    0  0.18327198249E+03  0.16675307122E+03 -0.75840545748E+02  0.27433954182E+03  0.90084346579E+02 0.  0.
         23    2    4    4    0    0 -0.80988966529E+03 -0.61198396853E+00 -0.77026810743E+03  0.11213947190E+04  0.91057751144E+02 0.  0.
          2    1    3    3  502    0  0.17536357293E+02 -0.18993663582E+01  0.13000520032E+01  0.17686762136E+02  0.00000000000E+00 0. -1.
         -1    1    3    3    0  502  0.60908132551E+03 -0.16424172089E+03  0.55942129590E+03  0.84315336106E+03  0.00000000000E+00 0.  1.
         13    1    5    5    0    0  0.68351264853E+02  0.77561194840E+02  0.12518022184E+02  0.10413613797E+03  0.00000000000E+00 0.  1.
        -13    1    5    5    0    0  0.11492071763E+03  0.89191876379E+02 -0.88358567932E+02  0.17020340385E+03  0.00000000000E+00 0. -1.
          3    1    6    6  503    0 -0.22531410250E+03 -0.15379940722E+02 -0.16424263597E+03  0.27924654131E+03  0.00000000000E+00 0. -1.
         -3    1    6    6    0  503 -0.58457556279E+03  0.14767956753E+02 -0.60602547145E+03  0.84214817770E+03  0.00000000000E+00 0.  1.
<mgrwt>
<rscale>  0 0.22384553E+04</rscale>
<asrwt>0</asrwt>
<pdfrwt beam="1">  1        2 0.19553551E+00 0.22384553E+04</pdfrwt>
<pdfrwt beam="2">  1       -1 0.15162978E+00 0.22384553E+04</pdfrwt>
<totfact> 0.60499473E+00</totfact>
</mgrwt>
</event>
<event>
12    7  0.1735955E-007  0.2318933E+04  0.7818608E-02  0.8470493E-01
         -1   -1    0    0    0  501 -0.00000000000E+00  0.00000000000E+00  0.60757013559E+03  0.60757013559E+03  0.00000000000E+00 0.  1.
          2   -1    0    0  501    0  0.00000000000E+00 -0.00000000000E+00 -0.22126870051E+04  0.22126870051E+04  0.00000000000E+00 0. -1.
         24    2    1    2    0    0 -0.15842602635E+03  0.80502855615E+03 -0.13189751134E+04  0.15552969535E+04  0.77996678171E+02 0.  0.
        254    2    1    2    0    0  0.15842602635E+03 -0.80502855615E+03 -0.28614175611E+03  0.12649601872E+04  0.91928090836E+03 0.  0.
         23    2    4    4    0    0  0.41678277370E+03 -0.65904562914E+02 -0.18770625306E+03  0.47015518023E+03  0.88096334711E+02 0.  0.
         23    2    4    4    0    0 -0.25835674736E+03 -0.73912399324E+03 -0.98435503050E+02  0.79480500694E+03  0.94725733078E+02 0.  0.
          2    1    3    3  502    0 -0.16120087313E+03  0.67063291902E+03 -0.11065263091E+04  0.13038921375E+04  0.00000000000E+00 0. -1.
         -1    1    3    3    0  502  0.27748467846E+01  0.13439563713E+03 -0.21244880425E+03  0.25140481595E+03  0.00000000000E+00 0.  1.
         13    1    5    5    0    0  0.36793102640E+03 -0.71182691067E+02 -0.19154801267E+03  0.42086916833E+03  0.00000000000E+00 0.  1.
        -13    1    5    5    0    0  0.48851747306E+02  0.52781281531E+01  0.38417596161E+01  0.49286011896E+02  0.00000000000E+00 0. -1.
          1    1    6    6  503    0 -0.57859211748E+01 -0.20040508149E+02  0.12959524876E+02  0.24557038415E+02  0.00000000000E+00 0. -1.
         -1    1    6    6    0  503 -0.25257082618E+03 -0.71908348509E+03 -0.11139502793E+03  0.77024796852E+03  0.00000000000E+00 0.  1.
<mgrwt>
<rscale>  0 0.23189330E+04</rscale>
<asrwt>0</asrwt>
<pdfrwt beam="1">  1        2 0.34041338E+00 0.23189330E+04</pdfrwt>
<pdfrwt beam="2">  1       -1 0.93472331E-01 0.23189330E+04</pdfrwt>
<totfact> 0.58090199E+00</totfact>
</mgrwt>
</event>
<event>
12    7  0.1735955E-007  0.1222061E+04  0.7818608E-02  0.9093763E-01
         -1   -1    0    0    0  501 -0.00000000000E+00  0.00000000000E+00  0.14863954059E+04  0.14863954059E+04  0.00000000000E+00 0.  1.
          2   -1    0    0  501    0  0.00000000000E+00 -0.00000000000E+00 -0.25118361233E+03  0.25118361233E+03  0.00000000000E+00 0. -1.
         24    2    1    2    0    0  0.14764804628E+03 -0.37397657402E+02 -0.31228054014E+02  0.17391392132E+03  0.77925158464E+02 0.  0.
        254    2    1    2    0    0 -0.14764804628E+03  0.37397657402E+02  0.12664398476E+04  0.15636650969E+04  0.90442253256E+03 0.  0.
         23    2    4    4    0    0 -0.10791800744E+03  0.43020911979E+03  0.39463024555E+03  0.60227716213E+03  0.10138326410E+03 0.  0.
         23    2    4    4    0    0 -0.39730038847E+02 -0.39281146238E+03  0.87180960205E+03  0.96138793480E+03  0.91298729346E+02 0.  0.
          2    1    3    3  502    0  0.10032750948E+03 -0.55487692098E+02 -0.42037210456E+02  0.12211314506E+03  0.00000000000E+00 0. -1.
         -1    1    3    3    0  502  0.47320536801E+02  0.18090034696E+02  0.10809156442E+02  0.51800776263E+02  0.00000000000E+00 0.  1.
         13    1    5    5    0    0 -0.61175521145E+02  0.38436810743E+03  0.32990872214E+03  0.51021667097E+03  0.00000000000E+00 0. -1.
        -13    1    5    5    0    0 -0.46742486292E+02  0.45841012357E+02  0.64721523408E+02  0.92060491151E+02  0.00000000000E+00 0.  1.
          1    1    6    6  503    0 -0.46711449688E+02 -0.20868246259E+03  0.55668286927E+03  0.59634398351E+03  0.00000000000E+00 0. -1.
         -1    1    6    6    0  503  0.69814108415E+01 -0.18412899979E+03  0.31512673278E+03  0.36504395129E+03  0.00000000000E+00 0.  1.
<mgrwt>
<rscale>  0 0.12220608E+04</rscale>
<asrwt>0</asrwt>
<pdfrwt beam="1">  1        2 0.38643633E-01 0.12220608E+04</pdfrwt>
<pdfrwt beam="2">  1       -1 0.22867621E+00 0.12220608E+04</pdfrwt>
<totfact> 0.14584446E+01</totfact>
</mgrwt>
</event>
<event>
12    7  0.1735955E-007  0.1529834E+04  0.7818608E-02  0.8864852E-01
         -1   -1    0    0    0  501 -0.00000000000E+00  0.00000000000E+00  0.57718524422E+03  0.57718524422E+03  0.00000000000E+00 0.  1.
          2   -1    0    0  501    0  0.00000000000E+00 -0.00000000000E+00 -0.10137095131E+04  0.10137095131E+04  0.00000000000E+00 0. -1.
         24    2    1    2    0    0  0.92454345907E+02 -0.45344253469E+03  0.37977528842E+02  0.47101683957E+03  0.79098875618E+02 0.  0.
        254    2    1    2    0    0 -0.92454345907E+02  0.45344253469E+03 -0.47450179774E+03  0.11198779178E+04  0.90267195386E+03 0.  0.
         23    2    4    4    0    0 -0.13710005091E+03  0.84016098063E+02 -0.66690969989E+03  0.69088159928E+03  0.81815082468E+02 0.  0.
         23    2    4    4    0    0  0.44645705006E+02  0.36942643662E+03  0.19240790215E+03  0.42899631849E+03  0.92454904755E+02 0.  0.
          2    1    3    3  502    0  0.53457167537E+02 -0.10258024508E+03  0.21164624044E+02  0.11759386358E+03  0.00000000000E+00 0. -1.
         -1    1    3    3    0  502  0.38997178370E+02 -0.35086228961E+03  0.16812904798E+02  0.35342297599E+03  0.00000000000E+00 0.  1.
         13    1    5    5    0    0 -0.11935941769E+03  0.43854131557E+02 -0.38200222895E+03  0.40261092679E+03  0.00000000000E+00 0.  1.
        -13    1    5    5    0    0 -0.17740633224E+02  0.40161966506E+02 -0.28490747094E+03  0.28827067249E+03  0.00000000000E+00 0. -1.
          2    1    6    6  503    0 -0.23468159905E+02  0.72110882301E+02  0.58988001064E+02  0.96074544730E+02  0.00000000000E+00 0. -1.
         -2    1    6    6    0  503  0.68113864911E+02  0.29731555432E+03  0.13341990109E+03  0.33292177376E+03  0.00000000000E+00 0.  1.
<mgrwt>
<rscale>  0 0.15298342E+04</rscale>
<asrwt>0</asrwt>
<pdfrwt beam="1">  1        2 0.15595531E+00 0.15298342E+04</pdfrwt>
<pdfrwt beam="2">  1       -1 0.88797731E-01 0.15298342E+04</pdfrwt>
<totfact> 0.33788178E+01</totfact>
</mgrwt>
</event>
<event>
12    7  0.1735955E-007  0.1599273E+04  0.7818608E-02  0.8820995E-01
         -1   -1    0    0    0  501 -0.00000000000E+00  0.00000000000E+00  0.18464226278E+03  0.18464226278E+03  0.00000000000E+00 0.  1.
          2   -1    0    0  501    0  0.00000000000E+00 -0.00000000000E+00 -0.34630129822E+04  0.34630129822E+04  0.00000000000E+00 0. -1.
         24    2    1    2    0    0 -0.38250098453E+03  0.17805394746E+03 -0.19121129599E+04  0.19597876994E+04  0.81127332689E+02 0.  0.
        254    2    1    2    0    0  0.38250098453E+03 -0.17805394746E+03 -0.13662577595E+04  0.16878675455E+04  0.89678669393E+03 0.  0.
         23    2    4    4    0    0  0.17796249780E+03 -0.47582389423E+03 -0.11419444825E+04  0.12531289082E+04  0.90641218037E+02 0.  0.
         23    2    4    4    0    0  0.20453848673E+03  0.29776994677E+03 -0.22431327701E+03  0.43473863736E+03  0.90433969371E+02 0.  0.
          2    1    3    3  502    0 -0.31221272057E+03  0.17693299130E+03 -0.15630785701E+04  0.16037445814E+04  0.00000000000E+00 0. -1.
         -1    1    3    3    0  502 -0.70288263960E+02  0.11209561606E+01 -0.34903438982E+03  0.35604311799E+03  0.00000000000E+00 0.  1.
         13    1    5    5    0    0  0.18197918926E+03 -0.40635940107E+03 -0.95624598401E+03  0.10548226249E+04  0.00000000000E+00 0.  1.
        -13    1    5    5    0    0 -0.40166914570E+01 -0.69464493154E+02 -0.18569849851E+03  0.19830628323E+03  0.00000000000E+00 0. -1.
          4    1    6    6  503    0  0.13106094703E+03  0.23081415503E+03 -0.12212840926E+03  0.29217716260E+03  0.00000000000E+00 0.  1.
         -4    1    6    6    0  503  0.73477539696E+02  0.66955791744E+02 -0.10218486775E+03  0.14256147476E+03  0.00000000000E+00 0. -1.
<mgrwt>
<rscale>  0 0.15992730E+04</rscale>
<asrwt>0</asrwt>
<pdfrwt beam="1">  1        2 0.53277121E+00 0.15992730E+04</pdfrwt>
<pdfrwt beam="2">  1       -1 0.28406503E-01 0.15992730E+04</pdfrwt>
<totfact> 0.10698022E+01</totfact>
</mgrwt>
</event>
<event>
12    7  0.1735955E-007  0.2247340E+04  0.7818608E-02  0.8498978E-01
         -1   -1    0    0    0  501 -0.00000000000E+00  0.00000000000E+00  0.87312630241E+03  0.87312630241E+03  0.00000000000E+00 0.  1.
          2   -1    0    0  501    0  0.00000000000E+00 -0.00000000000E+00 -0.14461078335E+04  0.14461078335E+04  0.00000000000E+00 0. -1.
         24    2    1    2    0    0 -0.23292565011E+03 -0.86772793476E+03  0.56970938143E+02  0.90404905029E+03  0.82782065049E+02 0.  0.
        254    2    1    2    0    0  0.23292565011E+03  0.86772793476E+03 -0.62995246928E+03  0.14151850857E+04  0.89370162019E+03 0.  0.
         23    2    4    4    0    0 -0.29764373087E+03  0.39191989858E+03 -0.45375355640E+03  0.67565613946E+03  0.91792872359E+02 0.  0.
         23    2    4    4    0    0  0.53056938098E+03  0.47580803618E+03 -0.17619891288E+03  0.73952894622E+03  0.89217991817E+02 0.  0.
          4    1    3    3  502    0 -0.42354234742E+02 -0.12276971520E+03  0.36200059137E+02  0.13482109795E+03  0.00000000000E+00 0. -1.
         -3    1    3    3    0  502 -0.19057141537E+03 -0.74495821956E+03  0.20770879006E+02  0.76922795234E+03  0.00000000000E+00 0.  1.
         13    1    5    5    0    0 -0.25065166908E+03  0.28346979919E+03 -0.30729174729E+03  0.48745215582E+03  0.00000000000E+00 0. -1.
        -13    1    5    5    0    0 -0.46992061795E+02  0.10845009939E+03 -0.14646180911E+03  0.18820398364E+03  0.00000000000E+00 0.  1.
          4    1    6    6  503    0  0.30798625934E+03  0.33354382475E+03 -0.11664556318E+03  0.46873575325E+03  0.00000000000E+00 0. -1.
         -4    1    6    6    0  503  0.22258312164E+03  0.14226421143E+03 -0.59553349701E+02  0.27079319296E+03  0.00000000000E+00 0.  1.
<mgrwt>
<rscale>  0 0.22473405E+04</rscale>
<asrwt>0</asrwt>
<pdfrwt beam="1">  1        2 0.22247813E+00 0.22473405E+04</pdfrwt>
<pdfrwt beam="2">  1       -1 0.13432712E+00 0.22473405E+04</pdfrwt>
<totfact> 0.65923199E+00</totfact>
</mgrwt>
</event>
<event>
12    7  0.1735955E-007  0.1592325E+04  0.7818608E-02  0.8825277E-01
         -1   -1    0    0    0  501 -0.00000000000E+00  0.00000000000E+00  0.48745612639E+03  0.48745612639E+03  0.00000000000E+00 0.  1.
          2   -1    0    0  501    0  0.00000000000E+00 -0.00000000000E+00 -0.13003727396E+04  0.13003727396E+04  0.00000000000E+00 0. -1.
         24    2    1    2    0    0 -0.25247435917E+03 -0.21575913498E+03 -0.76199282957E+03  0.83477857218E+03  0.76986270736E+02 0.  0.
        254    2    1    2    0    0  0.25247435917E+03  0.21575913498E+03 -0.50923783679E+02  0.95305029386E+03  0.89186115764E+03 0.  0.
         23    2    4    4    0    0  0.20478254295E+03  0.33372954813E+03  0.34338059038E+03  0.52903995097E+03  0.93068462332E+02 0.  0.
         23    2    4    4    0    0  0.47691816219E+02 -0.11797041315E+03 -0.39430437406E+03  0.42401034289E+03  0.90096080707E+02 0.  0.
          4    1    3    3  502    0 -0.19223460269E+03 -0.15406082446E+03 -0.63654492114E+03  0.68255279410E+03  0.00000000000E+00 0. -1.
         -3    1    3    3    0  502 -0.60239756482E+02 -0.61698310512E+02 -0.12544790844E+03  0.15222577808E+03  0.00000000000E+00 0.  1.
         13    1    5    5    0    0  0.69974622411E+02  0.59014734197E+02  0.11617673939E+03  0.14790612363E+03  0.00000000000E+00 0. -1.
        -13    1    5    5    0    0  0.13480792054E+03  0.27471481393E+03  0.22720385100E+03  0.38113382734E+03  0.00000000000E+00 0.  1.
          2    1    6    6  503    0 -0.27107642478E+02 -0.30702105837E+02 -0.10648151058E+03  0.11408661481E+03  0.00000000000E+00 0. -1.
         -2    1    6    6    0  503  0.74799458697E+02 -0.87268307315E+02 -0.28782286348E+03  0.30992372807E+03  0.00000000000E+00 0.  1.
<mgrwt>
<rscale>  0 0.15923249E+04</rscale>
<asrwt>0</asrwt>
<pdfrwt beam="1">  1        2 0.20005734E+00 0.15923249E+04</pdfrwt>
<pdfrwt beam="2">  1       -1 0.74993250E-01 0.15923249E+04</pdfrwt>
<totfact> 0.32320881E+01</totfact>
</mgrwt>
</event>
<event>
12    7  0.1735955E-007  0.1747122E+04  0.7818608E-02  0.8734936E-01
          2   -1    0    0  501    0  0.00000000000E+00  0.00000000000E+00  0.81506751178E+03  0.81506751178E+03  0.00000000000E+00 0. -1.
         -1   -1    0    0    0  501 -0.00000000000E+00 -0.00000000000E+00 -0.93625262989E+03  0.93625262989E+03  0.00000000000E+00 0.  1.
         24    2    1    2    0    0 -0.18495470992E+03 -0.17953509428E+03  0.55483243562E+03  0.61900914381E+03  0.94298428986E+02 0.  0.
        254    2    1    2    0    0  0.18495470992E+03  0.17953509428E+03 -0.67601755373E+03  0.11323109979E+04  0.87102661734E+03 0.  0.
         23    2    4    4    0    0  0.47647514490E+03 -0.32248015861E+02 -0.19493589240E+03  0.52398081733E+03  0.92127067367E+02 0.  0.
         23    2    4    4    0    0 -0.29152043498E+03  0.21178311014E+03 -0.48108166133E+03  0.60833018053E+03  0.93753900823E+02 0.  0.
          2    1    3    3  502    0 -0.15115107818E+03 -0.13213878175E+03  0.50095393566E+03  0.53968708687E+03  0.00000000000E+00 0. -1.
         -1    1    3    3    0  502 -0.33803631741E+02 -0.47396312528E+02  0.53878499955E+02  0.79322056942E+02  0.00000000000E+00 0.  1.
         13    1    5    5    0    0  0.12824821626E+03 -0.40896729360E+02 -0.27060849136E+02  0.13730417693E+03  0.00000000000E+00 0.  1.
        -13    1    5    5    0    0  0.34822692865E+03  0.86487134989E+01 -0.16787504326E+03  0.38667664040E+03  0.00000000000E+00 0. -1.
          3    1    6    6  503    0 -0.16432889718E+03  0.62052434101E+02 -0.21691700153E+03  0.27911910823E+03  0.00000000000E+00 0. -1.
         -3    1    6    6    0  503 -0.12719153780E+03  0.14973067604E+03 -0.26416465980E+03  0.32921107229E+03  0.00000000000E+00 0.  1.
<mgrwt>
<rscale>  0 0.17471223E+04</rscale>
<asrwt>0</asrwt>
<pdfrwt beam="1">  1        2 0.12539500E+00 0.17471223E+04</pdfrwt>
<pdfrwt beam="2">  1       -1 0.14403887E+00 0.17471223E+04</pdfrwt>
<totfact> 0.14140429E+01</totfact>
</mgrwt>
</event>
<event>
12    7  0.1735955E-007  0.1580211E+04  0.7818608E-02  0.8832798E-01
          2   -1    0    0  501    0  0.00000000000E+00  0.00000000000E+00  0.12457836721E+04  0.12457836721E+04  0.00000000000E+00 0. -1.
         -1   -1    0    0    0  501 -0.00000000000E+00 -0.00000000000E+00 -0.50110356990E+03  0.50110356990E+03  0.00000000000E+00 0.  1.
         24    2    1    2    0    0  0.23273101188E+03 -0.36202257609E+03  0.58230987077E+03  0.72861172426E+03  0.81032028508E+02 0.  0.
        254    2    1    2    0    0 -0.23273101188E+03  0.36202257609E+03  0.16237023145E+03  0.10182755178E+04  0.90845851227E+03 0.  0.
         23    2    4    4    0    0  0.19721917140E+03 -0.14281901695E+03  0.22813102961E+03  0.34573711210E+03  0.90541210746E+02 0.  0.
         23    2    4    4    0    0 -0.42995018328E+03  0.50484159304E+03 -0.65760798153E+02  0.67253840565E+03  0.90891310565E+02 0.  0.
          4    1    3    3  502    0  0.19795205245E+03 -0.32534617395E+03  0.46620422289E+03  0.60198133311E+03  0.00000000000E+00 0. -1.
         -3    1    3    3    0  502  0.34778959429E+02 -0.36676402137E+02  0.11610564788E+03  0.12663039115E+03  0.00000000000E+00 0.  1.
         13    1    5    5    0    0  0.10397655563E+03 -0.10976462832E+03  0.18192443803E+03  0.23654999239E+03  0.00000000000E+00 0. -1.
        -13    1    5    5    0    0  0.93242615778E+02 -0.33054388631E+02  0.46206591580E+02  0.10918711971E+03  0.00000000000E+00 0.  1.
          4    1    6    6  503    0 -0.18863326249E+03  0.15852492521E+03 -0.40271544830E+02  0.24966869438E+03  0.00000000000E+00 0.  1.
         -4    1    6    6    0  503 -0.24131692080E+03  0.34631666783E+03 -0.25489253323E+02  0.42286971127E+03  0.00000000000E+00 0. -1.
<mgrwt>
<rscale>  0 0.15802109E+04</rscale>
<asrwt>0</asrwt>
<pdfrwt beam="1">  1        2 0.19165903E+00 0.15802109E+04</pdfrwt>
<pdfrwt beam="2">  1       -1 0.77092857E-01 0.15802109E+04</pdfrwt>
<totfact> 0.32870479E+01</totfact>
</mgrwt>
</event>
<event>
12    7  0.1735955E-007  0.1709906E+04  0.7818608E-02  0.8755735E-01
         -1   -1    0    0    0  501 -0.00000000000E+00  0.00000000000E+00  0.36083305792E+03  0.36083305792E+03  0.00000000000E+00 0.  1.
          2   -1    0    0  501    0  0.00000000000E+00 -0.00000000000E+00 -0.20257142317E+04  0.20257142317E+04  0.00000000000E+00 0. -1.
         24    2    1    2    0    0  0.19158984882E+03  0.33946103141E+03 -0.13035450624E+04  0.13629801600E+04  0.80899473836E+02 0.  0.
        254    2    1    2    0    0 -0.19158984882E+03 -0.33946103141E+03 -0.36133611134E+03  0.10235671296E+04  0.87474877613E+03 0.  0.
         23    2    4    4    0    0  0.27188694912E+03 -0.35073686452E+03 -0.46174674853E+02  0.45584034956E+03  0.93378061957E+02 0.  0.
         23    2    4    4    0    0 -0.46347679794E+03  0.11275833111E+02 -0.31516143649E+03  0.56772678000E+03  0.89716659763E+02 0.  0.
          4    1    3    3  502    0  0.17624527764E+03  0.24454242260E+03 -0.10171345065E+04  0.10608609704E+04  0.00000000000E+00 0. -1.
         -3    1    3    3    0  502  0.15344571174E+02  0.94918608809E+02 -0.28641055595E+03  0.30211918959E+03  0.00000000000E+00 0.  1.
         13    1    5    5    0    0  0.27426663193E+03 -0.34470756507E+03 -0.56019038305E+02  0.44405362679E+03  0.00000000000E+00 0. -1.
        -13    1    5    5    0    0 -0.23796828056E+01 -0.60292994490E+01  0.98443634522E+01  0.11786722780E+02  0.00000000000E+00 0.  1.
          1    1    6    6  503    0 -0.43814251426E+03 -0.10204569002E+02 -0.30069408032E+03  0.53149781370E+03  0.00000000000E+00 0. -1.
         -1    1    6    6    0  503 -0.25334283677E+02  0.21480402114E+02 -0.14467356172E+02  0.36228966298E+02  0.00000000000E+00 0.  1.
<mgrwt>
<rscale>  0 0.17099060E+04</rscale>
<asrwt>0</asrwt>
<pdfrwt beam="1">  1        2 0.31164835E+00 0.17099060E+04</pdfrwt>
<pdfrwt beam="2">  1       -1 0.55512778E-01 0.17099060E+04</pdfrwt>
<totfact> 0.22973728E+01</totfact>
</mgrwt>
</event>
<event>
12    7  0.1735955E-007  0.1416313E+04  0.7818608E-02  0.8942094E-01
          2   -1    0    0  501    0  0.00000000000E+00  0.00000000000E+00  0.29212681770E+03  0.29212681770E+03  0.00000000000E+00 0. -1.
         -1   -1    0    0    0  501 -0.00000000000E+00 -0.00000000000E+00 -0.17166705106E+04  0.17166705106E+04  0.00000000000E+00 0.  1.
         24    2    1    2    0    0  0.66385773503E+01 -0.41484412635E+03 -0.38466208910E+03  0.57141783873E+03  0.80085602605E+02 0.  0.
        254    2    1    2    0    0 -0.66385773503E+01  0.41484412635E+03 -0.10398816038E+04  0.14373794896E+04  0.90142460985E+03 0.  0.
         23    2    4    4    0    0  0.26489833559E+03 -0.11486373549E+00 -0.85697069602E+03  0.90156881074E+03  0.90864763658E+02 0.  0.
         23    2    4    4    0    0 -0.27153691294E+03  0.41495899009E+03 -0.18291090779E+03  0.53581067884E+03  0.87826105588E+02 0.  0.
          2    1    3    3  502    0  0.26378472066E+02 -0.12843974431E+03 -0.84064148768E+02  0.15575420641E+03  0.00000000000E+00 0. -1.
         -1    1    3    3    0  502 -0.19739894715E+02 -0.28640438204E+03 -0.30059794033E+03  0.41566363231E+03  0.00000000000E+00 0.  1.
         13    1    5    5    0    0  0.58439465847E+02 -0.33799239091E+02 -0.27427620893E+03  0.28246238425E+03  0.00000000000E+00 0. -1.
        -13    1    5    5    0    0  0.20645886974E+03  0.33684375355E+02 -0.58269448709E+03  0.61910642650E+03  0.00000000000E+00 0.  1.
          1    1    6    6  503    0 -0.30914270708E+02  0.76302471533E+02 -0.11058374151E+01  0.82334574584E+02  0.00000000000E+00 0. -1.
         -1    1    6    6    0  503 -0.24062264223E+03  0.33865651856E+03 -0.18180507038E+03  0.45347610425E+03  0.00000000000E+00 0.  1.
<mgrwt>
<rscale>  0 0.14163128E+04</rscale>
<asrwt>0</asrwt>
<pdfrwt beam="1">  1        2 0.44942587E-01 0.14163128E+04</pdfrwt>
<pdfrwt beam="2">  1       -1 0.26410316E+00 0.14163128E+04</pdfrwt>
<totfact> 0.71171595E+00</totfact>
</mgrwt>
</event>
<event>
12    7  0.1735955E-007  0.2638414E+04  0.7818608E-02  0.8355269E-01
          2   -1    0    0  501    0  0.00000000000E+00  0.00000000000E+00  0.17349280178E+04  0.17349280178E+04  0.00000000000E+00 0. -1.
         -1   -1    0    0    0  501 -0.00000000000E+00 -0.00000000000E+00 -0.10031004960E+04  0.10031004960E+04  0.00000000000E+00 0.  1.
         24    2    1    2    0    0 -0.98333293955E+03  0.49099698522E+03 -0.79367930483E+02  0.11047343206E+04  0.78210875932E+02 0.  0.
        254    2    1    2    0    0  0.98333293955E+03 -0.49099698522E+03  0.81119545231E+03  0.16332941933E+04  0.89531567084E+03 0.  0.
         23    2    4    4    0    0  0.63436693523E+03 -0.62332829655E+03  0.20816768524E+03  0.91804616501E+03  0.92278936479E+02 0.  0.
         23    2    4    4    0    0  0.34896600432E+03  0.13233131134E+03  0.60302776707E+03  0.71524802827E+03  0.92996806143E+02 0.  0.
          4    1    3    3  502    0 -0.24151896103E+03  0.11744271071E+03  0.14110479664E+02  0.26892992484E+03  0.00000000000E+00 0. -1.
         -3    1    3    3    0  502 -0.74181397852E+03  0.37355427451E+03 -0.93478410147E+02  0.83580439572E+03  0.00000000000E+00 0.  1.
         13    1    5    5    0    0  0.32431186030E+03 -0.37540803219E+03  0.13773657129E+03  0.51485991924E+03  0.00000000000E+00 0.  1.
        -13    1    5    5    0    0  0.31005507493E+03 -0.24792026436E+03  0.70431113957E+02  0.40318624578E+03  0.00000000000E+00 0. -1.
          1    1    6    6  503    0  0.13152300610E+02  0.11328687385E+02  0.81080643523E+02  0.82917989141E+02  0.00000000000E+00 0. -1.
         -1    1    6    6    0  503  0.33581370371E+03  0.12100262395E+03  0.52194712355E+03  0.63233003913E+03  0.00000000000E+00 0.  1.
<mgrwt>
<rscale>  0 0.26384140E+04</rscale>
<asrwt>0</asrwt>
<pdfrwt beam="1">  1        2 0.26691200E+00 0.26384140E+04</pdfrwt>
<pdfrwt beam="2">  1       -1 0.15432315E+00 0.26384140E+04</pdfrwt>
<totfact> 0.30401756E+00</totfact>
</mgrwt>
</event>
<event>
12    7  0.1735955E-007  0.1394487E+04  0.7818608E-02  0.8957819E-01
         -1   -1    0    0    0  501 -0.00000000000E+00  0.00000000000E+00  0.25655275626E+03  0.25655275626E+03  0.00000000000E+00 0.  1.
          2   -1    0    0  501    0  0.00000000000E+00 -0.00000000000E+00 -0.18949266413E+04  0.18949266413E+04  0.00000000000E+00 0. -1.
         24    2    1    2    0    0 -0.20367111892E+03  0.72675163696E+02 -0.95923854427E+03  0.98659169523E+03  0.80380247389E+02 0.  0.
        254    2    1    2    0    0  0.20367111892E+03 -0.72675163696E+02 -0.67913534079E+03  0.11648877024E+04  0.92139836331E+03 0.  0.
         23    2    4    4    0    0 -0.16427063582E+02  0.33385326684E+03 -0.10231563926E+02  0.34672660054E+03  0.91579465065E+02 0.  0.
         23    2    4    4    0    0  0.22009818250E+03 -0.40652843054E+03 -0.66890377686E+03  0.81816110182E+03  0.90811624043E+02 0.  0.
          4    1    3    3  502    0 -0.13355540259E+03  0.64964448049E+02 -0.77920592642E+03  0.79323344662E+03  0.00000000000E+00 0. -1.
         -3    1    3    3    0  502 -0.70115716332E+02  0.77107156462E+01 -0.18003261785E+03  0.19335824860E+03  0.00000000000E+00 0.  1.
         13    1    5    5    0    0 -0.22354533116E+02  0.83622558500E+02 -0.38691472125E+02  0.94812907645E+02  0.00000000000E+00 0. -1.
        -13    1    5    5    0    0  0.59274695344E+01  0.25023070834E+03  0.28459908200E+02  0.25191369289E+03  0.00000000000E+00 0.  1.
          3    1    6    6  503    0  0.79799471751E+02 -0.16503904970E+03 -0.34336143796E+03  0.38923376099E+03  0.00000000000E+00 0. -1.
         -3    1    6    6    0  503  0.14029871075E+03 -0.24148938084E+03 -0.32554233890E+03  0.42892734083E+03  0.00000000000E+00 0.  1.
<mgrwt>
<rscale>  0 0.13944872E+04</rscale>
<asrwt>0</asrwt>
<pdfrwt beam="1">  1        2 0.29152718E+00 0.13944872E+04</pdfrwt>
<pdfrwt beam="2">  1       -1 0.39469654E-01 0.13944872E+04</pdfrwt>
<totfact> 0.52928951E+01</totfact>
</mgrwt>
</event>
<event>
12    7  0.1735955E-007  0.1975325E+04  0.7818608E-02  0.8618245E-01
          2   -1    0    0  501    0  0.00000000000E+00  0.00000000000E+00  0.11523536608E+04  0.11523536608E+04  0.00000000000E+00 0. -1.
         -1   -1    0    0    0  501 -0.00000000000E+00 -0.00000000000E+00 -0.84650854259E+03  0.84650854259E+03  0.00000000000E+00 0.  1.
         24    2    1    2    0    0 -0.71415496300E+03 -0.11346266272E+03 -0.17504157294E+03  0.74847823907E+03  0.81786521492E+02 0.  0.
        254    2    1    2    0    0  0.71415496300E+03  0.11346266272E+03  0.48088669111E+03  0.12503839643E+04  0.89962045408E+03 0.  0.
         23    2    4    4    0    0 -0.84132822361E+01 -0.29252779664E+03  0.22453939593E+03  0.37816179639E+03  0.83337319377E+02 0.  0.
         23    2    4    4    0    0  0.72256824524E+03  0.40599045936E+03  0.25634729518E+03  0.87222216788E+03  0.90135743580E+02 0.  0.
          4    1    3    3  502    0 -0.18199576755E+03 -0.49706752611E+02 -0.76233788624E+02  0.20348172200E+03  0.00000000000E+00 0. -1.
         -3    1    3    3    0  502 -0.53215919546E+03 -0.63755910112E+02 -0.98807784317E+02  0.54499651707E+03  0.00000000000E+00 0.  1.
         13    1    5    5    0    0 -0.34435910955E+02 -0.18523282589E+03  0.17503411476E+03  0.25716526414E+03  0.00000000000E+00 0. -1.
        -13    1    5    5    0    0  0.26022628719E+02 -0.10729497075E+03  0.49505281178E+02  0.12099653226E+03  0.00000000000E+00 0.  1.
          1    1    6    6  503    0  0.40401656776E+03  0.18257609812E+03  0.16040982237E+03  0.47148142036E+03  0.00000000000E+00 0. -1.
         -1    1    6    6    0  503  0.31855167748E+03  0.22341436124E+03  0.95937472802E+02  0.40074074752E+03  0.00000000000E+00 0.  1.
<mgrwt>
<rscale>  0 0.19753250E+04</rscale>
<asrwt>0</asrwt>
<pdfrwt beam="1">  1        2 0.17728518E+00 0.19753250E+04</pdfrwt>
<pdfrwt beam="2">  1       -1 0.13023208E+00 0.19753250E+04</pdfrwt>
<totfact> 0.10845739E+01</totfact>
</mgrwt>
</event>
<event>
12    7  0.1735955E-007  0.1298206E+04  0.7818608E-02  0.9030989E-01
         -1   -1    0    0    0  501 -0.00000000000E+00  0.00000000000E+00  0.41103800304E+03  0.41103800304E+03  0.00000000000E+00 0.  1.
          2   -1    0    0  501    0  0.00000000000E+00 -0.00000000000E+00 -0.10250501938E+04  0.10250501938E+04  0.00000000000E+00 0. -1.
         24    2    1    2    0    0 -0.15258107120E+03 -0.16527716063E+03 -0.42266050464E+03  0.48792018569E+03  0.93950424718E+02 0.  0.
        254    2    1    2    0    0  0.15258107120E+03  0.16527716063E+03 -0.19135168615E+03  0.94816801118E+03  0.90100476498E+03 0.  0.
         23    2    4    4    0    0  0.18525219511E+03  0.48965816622E+03  0.45128835981E+02  0.53342903785E+03  0.91795593872E+02 0.  0.
         23    2    4    4    0    0 -0.32671123906E+02 -0.32438100559E+03 -0.23648052213E+03  0.41473897332E+03  0.98969386809E+02 0.  0.
          4    1    3    3  502    0 -0.12926536056E+03 -0.16352404765E+03 -0.31481186655E+03  0.37756609874E+03  0.00000000000E+00 0. -1.
         -3    1    3    3    0  502 -0.23315710641E+02 -0.17531129864E+01 -0.10784863809E+03  0.11035408695E+03  0.00000000000E+00 0.  1.
         13    1    5    5    0    0  0.73431617055E+02  0.88456156263E+02  0.64875840281E+01  0.11514678767E+03  0.00000000000E+00 0. -1.
        -13    1    5    5    0    0  0.11182057805E+03  0.40120200996E+03  0.38641251953E+02  0.41828225019E+03  0.00000000000E+00 0.  1.
          2    1    6    6  503    0 -0.14748076274E+02 -0.12215531226E+01 -0.21829263620E+02  0.26372612613E+02  0.00000000000E+00 0. -1.
         -2    1    6    6    0  503 -0.17923047632E+02 -0.32315945246E+03 -0.21465125851E+03  0.38836636071E+03  0.00000000000E+00 0.  1.
<mgrwt>
<rscale>  0 0.12982058E+04</rscale>
<asrwt>0</asrwt>
<pdfrwt beam="1">  1        2 0.15770003E+00 0.12982058E+04</pdfrwt>
<pdfrwt beam="2">  1       -1 0.63236617E-01 0.12982058E+04</pdfrwt>
<totfact> 0.68855059E+01</totfact>
</mgrwt>
</event>
<event>
12    7  0.1735955E-007  0.2063861E+04  0.7818608E-02  0.8577332E-01
         -1   -1    0    0    0  501 -0.00000000000E+00  0.00000000000E+00  0.61691593326E+03  0.61691593326E+03  0.00000000000E+00 0.  1.
          2   -1    0    0  501    0  0.00000000000E+00 -0.00000000000E+00 -0.17261349758E+04  0.17261349758E+04  0.00000000000E+00 0. -1.
         24    2    1    2    0    0  0.33156130799E+03 -0.15889147331E+03 -0.12926187087E+04  0.13463537135E+04  0.81398983602E+02 0.  0.
        254    2    1    2    0    0 -0.33156130799E+03  0.15889147331E+03  0.18339966620E+03  0.99669719552E+03  0.90806963431E+03 0.  0.
         23    2    4    4    0    0 -0.52376164885E+02  0.49185183347E+02  0.52232407914E+03  0.53513927404E+03  0.91592325354E+02 0.  0.
         23    2    4    4    0    0 -0.27918514310E+03  0.10970628996E+03 -0.33892441294E+03  0.46155792148E+03  0.90477306606E+02 0.  0.
          2    1    3    3  502    0  0.87006359863E+02 -0.44375472129E+02 -0.22835137491E+03  0.24836191256E+03  0.00000000000E+00 0. -1.
         -1    1    3    3    0  502  0.24455494813E+03 -0.11451600118E+03 -0.10642673338E+04  0.10979918010E+04  0.00000000000E+00 0.  1.
         13    1    5    5    0    0 -0.34325960051E+02  0.76396239601E+02  0.37373625298E+03  0.38300580119E+03  0.00000000000E+00 0.  1.
        -13    1    5    5    0    0 -0.18050204834E+02 -0.27211056255E+02  0.14858782616E+03  0.15213347285E+03  0.00000000000E+00 0. -1.
          3    1    6    6  503    0 -0.83450467420E+02  0.69567922763E+02 -0.82174076650E+02  0.13622134658E+03  0.00000000000E+00 0. -1.
         -3    1    6    6    0  503 -0.19573467568E+03  0.40138367197E+02 -0.25675033629E+03  0.32533657490E+03  0.00000000000E+00 0.  1.
<mgrwt>
<rscale>  0 0.20638606E+04</rscale>
<asrwt>0</asrwt>
<pdfrwt beam="1">  1        2 0.26555922E+00 0.20638606E+04</pdfrwt>
<pdfrwt beam="2">  1       -1 0.94910144E-01 0.20638606E+04</pdfrwt>
<totfact> 0.10711539E+01</totfact>
</mgrwt>
</event>
<event>
12    7  0.1735955E-007  0.1728513E+04  0.7818608E-02  0.8745267E-01
          2   -1    0    0  501    0  0.00000000000E+00  0.00000000000E+00  0.31230418271E+04  0.31230418271E+04  0.00000000000E+00 0. -1.
         -1   -1    0    0    0  501 -0.00000000000E+00 -0.00000000000E+00 -0.23917049436E+03  0.23917049436E+03  0.00000000000E+00 0.  1.
         24    2    1    2    0    0  0.57691390810E+03 -0.12042138160E+03  0.14960788844E+04  0.16100012849E+04  0.80753591972E+02 0.  0.
        254    2    1    2    0    0 -0.57691390810E+03  0.12042138160E+03  0.13877924484E+04  0.17522110365E+04  0.89271757592E+03 0.  0.
         23    2    4    4    0    0 -0.82695480754E+02 -0.43802467316E+02  0.11745006768E+04  0.11817606373E+04  0.91373767040E+02 0.  0.
         23    2    4    4    0    0 -0.49421842734E+03  0.16422384892E+03  0.21329177153E+03  0.57045039925E+03  0.93268171003E+02 0.  0.
          2    1    3    3  502    0  0.20922897074E+02 -0.10304283879E+02  0.11130798679E+03  0.11372516789E+03  0.00000000000E+00 0. -1.
         -1    1    3    3    0  502  0.55599101102E+03 -0.11011709772E+03  0.13847708976E+04  0.14962761170E+04  0.00000000000E+00 0.  1.
         13    1    5    5    0    0 -0.78403262832E+01 -0.31138028831E+02  0.11093017259E+03  0.11548398481E+03  0.00000000000E+00 0.  1.
        -13    1    5    5    0    0 -0.74855154471E+02 -0.12664438485E+02  0.10635705042E+04  0.10662766525E+04  0.00000000000E+00 0. -1.
          1    1    6    6  503    0 -0.44182848218E+03  0.11439605068E+03  0.17662281037E+03  0.48938173364E+03  0.00000000000E+00 0. -1.
         -1    1    6    6    0  503 -0.52389945159E+02  0.49827798234E+02  0.36668961154E+02  0.81068665603E+02  0.00000000000E+00 0.  1.
<mgrwt>
<rscale>  0 0.17285132E+04</rscale>
<asrwt>0</asrwt>
<pdfrwt beam="1">  1        2 0.48046794E+00 0.17285132E+04</pdfrwt>
<pdfrwt beam="2">  1       -1 0.36795463E-01 0.17285132E+04</pdfrwt>
<totfact> 0.11211310E+01</totfact>
</mgrwt>
</event>
<event>
12    7  0.1735955E-007  0.2222582E+04  0.7818608E-02  0.8509087E-01
          2   -1    0    0  501    0  0.00000000000E+00  0.00000000000E+00  0.23929264883E+04  0.23929264883E+04  0.00000000000E+00 0. -1.
         -1   -1    0    0    0  501 -0.00000000000E+00 -0.00000000000E+00 -0.51609113234E+03  0.51609113234E+03  0.00000000000E+00 0.  1.
         24    2    1    2    0    0  0.73364412986E+02 -0.49604802381E+03  0.18119880544E+04  0.18817704362E+04  0.79456190746E+02 0.  0.
        254    2    1    2    0    0 -0.73364412986E+02  0.49604802381E+03  0.64847301598E+02  0.10272471845E+04  0.89419551915E+03 0.  0.
         23    2    4    4    0    0 -0.45647042105E+03  0.32909424817E+03 -0.79759462571E+02  0.57580300546E+03  0.92299836173E+02 0.  0.
         23    2    4    4    0    0  0.38310600806E+03  0.16695377564E+03  0.14460676417E+03  0.45144417902E+03  0.90812740937E+02 0.  0.
          2    1    3    3  502    0  0.86951403537E+02 -0.35284236139E+03  0.13332606352E+04  0.13818980425E+04  0.00000000000E+00 0. -1.
         -1    1    3    3    0  502 -0.13586990551E+02 -0.14320566242E+03  0.47872741920E+03  0.49987239367E+03  0.00000000000E+00 0.  1.
         13    1    5    5    0    0 -0.35927325341E+03  0.27721045015E+03 -0.97668404047E+02  0.46417886794E+03  0.00000000000E+00 0. -1.
        -13    1    5    5    0    0 -0.97197167631E+02  0.51883798023E+02  0.17908941476E+02  0.11162413752E+03  0.00000000000E+00 0.  1.
          3    1    6    6  503    0  0.26995331040E+03  0.79714409585E+02  0.69070200528E+02  0.28982730978E+03  0.00000000000E+00 0. -1.
         -3    1    6    6    0  503  0.11315269766E+03  0.87239366058E+02  0.75536563642E+02  0.16161686924E+03  0.00000000000E+00 0.  1.
<mgrwt>
<rscale>  0 0.22225824E+04</rscale>
<asrwt>0</asrwt>
<pdfrwt beam="1">  1        2 0.36814253E+00 0.22225824E+04</pdfrwt>
<pdfrwt beam="2">  1       -1 0.79398637E-01 0.22225824E+04</pdfrwt>
<totfact> 0.66038139E+00</totfact>
</mgrwt>
</event>
<event>
12    7  0.1735955E-007  0.1791383E+04  0.7818608E-02  0.8710895E-01
         -1   -1    0    0    0  501 -0.00000000000E+00  0.00000000000E+00  0.22271716403E+03  0.22271716403E+03  0.00000000000E+00 0.  1.
          2   -1    0    0  501    0  0.00000000000E+00 -0.00000000000E+00 -0.36021634076E+04  0.36021634076E+04  0.00000000000E+00 0. -1.
         24    2    1    2    0    0 -0.77347536909E+02  0.37113266261E+03 -0.11458004816E+03  0.40388140987E+03  0.79180244249E+02 0.  0.
        254    2    1    2    0    0  0.77347536909E+02 -0.37113266261E+03 -0.32648661954E+04  0.34209991618E+04  0.94876862099E+03 0.  0.
         23    2    4    4    0    0  0.88732760846E+02 -0.53886469808E+03 -0.96025538698E+03  0.11084205759E+04  0.90868581622E+02 0.  0.
         23    2    4    4    0    0 -0.11385223937E+02  0.16773203547E+03 -0.23046108084E+04  0.23125785859E+04  0.92331351929E+02 0.  0.
          2    1    3    3  502    0 -0.25444443204E+02  0.73025729758E+02  0.72801418865E+01  0.77673530643E+02  0.00000000000E+00 0. -1.
         -3    1    3    3    0  502 -0.51903093705E+02  0.29810693285E+03 -0.12186019005E+03  0.32620787923E+03  0.00000000000E+00 0.  1.
         13    1    5    5    0    0  0.62745621601E+02 -0.49836365706E+03 -0.90580181946E+03  0.10357510723E+04  0.00000000000E+00 0. -1.
        -13    1    5    5    0    0  0.25987139246E+02 -0.40501041016E+02 -0.54453567529E+02  0.72669503550E+02  0.00000000000E+00 0.  1.
          1    1    6    6  503    0 -0.11919759843E+02  0.16535688685E+03 -0.23041429250E+04  0.23100994783E+04  0.00000000000E+00 0. -1.
         -1    1    6    6    0  503  0.53453590600E+00  0.23751486205E+01 -0.46788341355E+00  0.24791076001E+01  0.00000000000E+00 0.  1.
<mgrwt>
<rscale>  0 0.17913834E+04</rscale>
<asrwt>0</asrwt>
<pdfrwt beam="1">  1        2 0.55417893E+00 0.17913834E+04</pdfrwt>
<pdfrwt beam="2">  1       -1 0.34264182E-01 0.17913834E+04</pdfrwt>
<totfact> 0.60212883E+00</totfact>
</mgrwt>
</event>
<event>
12    7  0.1735955E-007  0.1697494E+04  0.7818608E-02  0.8762795E-01
          2   -1    0    0  501    0  0.00000000000E+00  0.00000000000E+00  0.87253899535E+03  0.87253899535E+03  0.00000000000E+00 0. -1.
         -1   -1    0    0    0  501 -0.00000000000E+00 -0.00000000000E+00 -0.82560332485E+03  0.82560332485E+03  0.00000000000E+00 0.  1.
         24    2    1    2    0    0  0.42962155053E+03 -0.14617618134E+03  0.42172214952E+03  0.62467412612E+03  0.80162583430E+02 0.  0.
        254    2    1    2    0    0 -0.42962155053E+03  0.14617618134E+03 -0.37478647902E+03  0.10734681941E+04  0.89773431825E+03 0.  0.
         23    2    4    4    0    0 -0.67108680983E+03  0.22889617324E+03 -0.17428100988E+03  0.73583595162E+03  0.91267260487E+02 0.  0.
         23    2    4    4    0    0  0.24146525930E+03 -0.82719991900E+02 -0.20050546914E+03  0.33763224245E+03  0.92978596873E+02 0.  0.
          2    1    3    3  502    0  0.25265240549E+03 -0.10050746101E+03  0.20117805655E+03  0.33824192252E+03  0.00000000000E+00 0. -1.
         -1    1    3    3    0  502  0.17696914504E+03 -0.45668720333E+02  0.22054409297E+03  0.28643220360E+03  0.00000000000E+00 0.  1.
         13    1    5    5    0    0 -0.14547514372E+03  0.48366555920E+02  0.31474582502E+00  0.15330505614E+03  0.00000000000E+00 0. -1.
        -13    1    5    5    0    0 -0.52561166611E+03  0.18052961732E+03 -0.17459575570E+03  0.58253089548E+03  0.00000000000E+00 0.  1.
          1    1    6    6  503    0  0.84114111404E+02 -0.53434614729E+02 -0.12720997371E+03  0.16159461377E+03  0.00000000000E+00 0. -1.
         -1    1    6    6    0  503  0.15735114790E+03 -0.29285377171E+02 -0.73295495436E+02  0.17603762868E+03  0.00000000000E+00 0.  1.
<mgrwt>
<rscale>  0 0.16974936E+04</rscale>
<asrwt>0</asrwt>
<pdfrwt beam="1">  1        2 0.13423677E+00 0.16974936E+04</pdfrwt>
<pdfrwt beam="2">  1       -1 0.12701590E+00 0.16974936E+04</pdfrwt>
<totfact> 0.17884964E+01</totfact>
</mgrwt>
</event>
<event>
12    7  0.1735955E-007  0.1642540E+04  0.7818608E-02  0.8794832E-01
          2   -1    0    0  501    0  0.00000000000E+00  0.00000000000E+00  0.11086547942E+04  0.11086547942E+04  0.00000000000E+00 0. -1.
         -1   -1    0    0    0  501 -0.00000000000E+00 -0.00000000000E+00 -0.60838124981E+03  0.60838124981E+03  0.00000000000E+00 0.  1.
         24    2    1    2    0    0  0.40389932220E+03  0.18122873540E+03 -0.19760092473E+03  0.49102012291E+03  0.77949462131E+02 0.  0.
        254    2    1    2    0    0 -0.40389932220E+03 -0.18122873540E+03  0.69787446911E+03  0.12260159211E+04  0.90559800525E+03 0.  0.
         23    2    4    4    0    0 -0.36941356687E+03 -0.52005038203E+03  0.53509842329E+03  0.83791207368E+03  0.94061349006E+02 0.  0.
         23    2    4    4    0    0 -0.34485755330E+02  0.33882164663E+03  0.16277604582E+03  0.38810384741E+03  0.90217402606E+02 0.  0.
          4    1    3    3  502    0  0.11646250768E+03  0.52170354221E+02 -0.96914721426E+02  0.16024270587E+03  0.00000000000E+00 0. -1.
         -3    1    3    3    0  502  0.28743681451E+03  0.12905838118E+03 -0.10068620330E+03  0.33077741704E+03  0.00000000000E+00 0.  1.
         13    1    5    5    0    0 -0.28402375709E+03 -0.38585935976E+03  0.45098490751E+03  0.65798505067E+03  0.00000000000E+00 0.  1.
        -13    1    5    5    0    0 -0.85389809778E+02 -0.13419102227E+03  0.84113515775E+02  0.17992702300E+03  0.00000000000E+00 0. -1.
          1    1    6    6  503    0 -0.29982218012E+02  0.91181404247E+02  0.85784584012E+02  0.12873218996E+03  0.00000000000E+00 0. -1.
         -1    1    6    6    0  503 -0.45035373184E+01  0.24764024238E+03  0.76991461808E+02  0.25937165745E+03  0.00000000000E+00 0.  1.
<mgrwt>
<rscale>  0 0.16425405E+04</rscale>
<asrwt>0</asrwt>
<pdfrwt beam="1">  1        2 0.17056228E+00 0.16425405E+04</pdfrwt>
<pdfrwt beam="2">  1       -1 0.93597115E-01 0.16425405E+04</pdfrwt>
<totfact> 0.25977106E+01</totfact>
</mgrwt>
</event>
<event>
12    7  0.1735955E-007  0.1732382E+04  0.7818608E-02  0.8743108E-01
          2   -1    0    0  501    0  0.00000000000E+00  0.00000000000E+00  0.75840226694E+03  0.75840226694E+03  0.00000000000E+00 0. -1.
         -1   -1    0    0    0  501 -0.00000000000E+00 -0.00000000000E+00 -0.98929982097E+03  0.98929982097E+03  0.00000000000E+00 0.  1.
         24    2    1    2    0    0  0.84666199802E+02  0.10478360659E+03 -0.73725839793E+03  0.75365053494E+03  0.79317172819E+02 0.  0.
        254    2    1    2    0    0 -0.84666199802E+02 -0.10478360659E+03  0.50636084390E+03  0.99405155296E+03  0.84474210035E+03 0.  0.
         23    2    4    4    0    0 -0.38156827846E+03 -0.25238483362E+02  0.54409508175E+03  0.67166815879E+03  0.94166476958E+02 0.  0.
         23    2    4    4    0    0  0.29690207866E+03 -0.79545123232E+02 -0.37734237841E+02  0.32238339417E+03  0.89604180656E+02 0.  0.
          4    1    3    3  502    0 -0.34999183925E+01  0.23819776443E+02 -0.44205582246E+02  0.50336514384E+02  0.00000000000E+00 0. -1.
         -1    1    3    3    0  502  0.88166118195E+02  0.80963830151E+02 -0.69305281568E+03  0.70331402056E+03  0.00000000000E+00 0.  1.
         13    1    5    5    0    0 -0.36522346195E+03 -0.18298743410E+02  0.47014911574E+03  0.59562002334E+03  0.00000000000E+00 0. -1.
        -13    1    5    5    0    0 -0.16344816511E+02 -0.69397399525E+01  0.73945966004E+02  0.76048135451E+02  0.00000000000E+00 0.  1.
          4    1    6    6  503    0  0.15544815809E+03 -0.87265467463E+02 -0.14885258500E+02  0.17888812868E+03  0.00000000000E+00 0. -1.
         -4    1    6    6    0  503  0.14145392057E+03  0.77203442305E+01 -0.22848979341E+02  0.14349526549E+03  0.00000000000E+00 0.  1.
<mgrwt>
<rscale>  0 0.17323824E+04</rscale>
<asrwt>0</asrwt>
<pdfrwt beam="1">  1        2 0.11667727E+00 0.17323824E+04</pdfrwt>
<pdfrwt beam="2">  1       -1 0.15219997E+00 0.17323824E+04</pdfrwt>
<totfact> 0.13434200E+01</totfact>
</mgrwt>
</event>
<event>
12    7  0.1735955E-007  0.1335659E+04  0.7818608E-02  0.9001756E-01
          2   -1    0    0  501    0  0.00000000000E+00  0.00000000000E+00  0.10684886412E+04  0.10684886412E+04  0.00000000000E+00 0. -1.
         -1   -1    0    0    0  501 -0.00000000000E+00 -0.00000000000E+00 -0.41740856917E+03  0.41740856917E+03  0.00000000000E+00 0.  1.
         24    2    1    2    0    0 -0.19663533561E+03  0.92592800263E+02 -0.13376058091E+03  0.26716947374E+03  0.79049053258E+02 0.  0.
        254    2    1    2    0    0  0.19663533561E+03 -0.92592800263E+02  0.78484065295E+03  0.12187277366E+04  0.90668823950E+03 0.  0.
         23    2    4    4    0    0  0.36518412090E+03  0.11456819402E+03  0.84286010584E+03  0.93030200662E+03  0.92538382670E+02 0.  0.
         23    2    4    4    0    0 -0.16854878529E+03 -0.20716099429E+03 -0.58019452895E+02  0.28842573001E+03  0.92188796731E+02 0.  0.
          4    1    3    3  502    0 -0.15069858910E+03  0.61413908143E+02 -0.13529739249E+03  0.21162967015E+03  0.00000000000E+00 0. -1.
         -3    1    3    3    0  502 -0.45936746510E+02  0.31178892120E+02  0.15368115765E+01  0.55539803598E+02  0.00000000000E+00 0.  1.
         13    1    5    5    0    0  0.30333230806E+03  0.71980265589E+02  0.73961795058E+03  0.80263712883E+03  0.00000000000E+00 0. -1.
        -13    1    5    5    0    0  0.61851812843E+02  0.42587928435E+02  0.10324215526E+03  0.12766487780E+03  0.00000000000E+00 0.  1.
          2    1    6    6  503    0 -0.78106038060E+02 -0.42915359833E+02 -0.46624821363E+02  0.10057909951E+03  0.00000000000E+00 0. -1.
         -2    1    6    6    0  503 -0.90442747228E+02 -0.16424563445E+03 -0.11394631532E+02  0.18784663050E+03  0.00000000000E+00 0.  1.
<mgrwt>
<rscale>  0 0.13356591E+04</rscale>
<asrwt>0</asrwt>
<pdfrwt beam="1">  1        2 0.16438287E+00 0.13356591E+04</pdfrwt>
<pdfrwt beam="2">  1       -1 0.64216703E-01 0.13356591E+04</pdfrwt>
<totfact> 0.62507756E+01</totfact>
</mgrwt>
</event>
<event>
12    7  0.1735955E-007  0.1753674E+04  0.7818608E-02  0.8731330E-01
         -1   -1    0    0    0  501 -0.00000000000E+00  0.00000000000E+00  0.21912663404E+03  0.21912663404E+03  0.00000000000E+00 0.  1.
          2   -1    0    0  501    0  0.00000000000E+00 -0.00000000000E+00 -0.35086722791E+04  0.35086722791E+04  0.00000000000E+00 0. -1.
         24    2    1    2    0    0  0.48153093788E+03  0.42833487365E+03 -0.13437300119E+04  0.14923715384E+04  0.78864792981E+02 0.  0.
        254    2    1    2    0    0 -0.48153093788E+03 -0.42833487365E+03 -0.19458156332E+04  0.22354273748E+04  0.89196090804E+03 0.  0.
         23    2    4    4    0    0 -0.42331253191E+03 -0.69134002369E+03 -0.14459272659E+04  0.16603359293E+04  0.94155254540E+02 0.  0.
         23    2    4    4    0    0 -0.58218405969E+02  0.26300515004E+03 -0.49988836735E+03  0.57509144550E+03  0.90998346882E+02 0.  0.
          2    1    3    3  502    0  0.41774927723E+03  0.35857572090E+03 -0.12011329297E+04  0.13212915353E+04  0.00000000000E+00 0. -1.
         -1    1    3    3    0  502  0.63781660649E+02  0.69759152745E+02 -0.14259708216E+03  0.17108000312E+03  0.00000000000E+00 0.  1.
         13    1    5    5    0    0 -0.89725966033E+02 -0.20209008910E+03 -0.45690130130E+03  0.50759230907E+03  0.00000000000E+00 0.  1.
        -13    1    5    5    0    0 -0.33358656587E+03 -0.48924993458E+03 -0.98902596455E+03  0.11527436202E+04  0.00000000000E+00 0. -1.
          1    1    6    6  503    0 -0.31505025733E+02  0.25274433100E+03 -0.43329584459E+03  0.50261073649E+03  0.00000000000E+00 0. -1.
         -1    1    6    6    0  503 -0.26713380235E+02  0.10260819044E+02 -0.66592522755E+02  0.72480709005E+02  0.00000000000E+00 0.  1.
<mgrwt>
<rscale>  0 0.17536745E+04</rscale>
<asrwt>0</asrwt>
<pdfrwt beam="1">  1        2 0.53979567E+00 0.17536745E+04</pdfrwt>
<pdfrwt beam="2">  1       -1 0.33711794E-01 0.17536745E+04</pdfrwt>
<totfact> 0.72425808E+00</totfact>
</mgrwt>
</event>
<event>
12    7  0.1735955E-007  0.2100290E+04  0.7818608E-02  0.8561116E-01
         -1   -1    0    0    0  501 -0.00000000000E+00  0.00000000000E+00  0.40037498854E+03  0.40037498854E+03  0.00000000000E+00 0.  1.
          2   -1    0    0  501    0  0.00000000000E+00 -0.00000000000E+00 -0.27544279456E+04  0.27544279456E+04  0.00000000000E+00 0. -1.
         24    2    1    2    0    0 -0.64113605715E+03  0.31847014764E+03 -0.17295374565E+04  0.18734874734E+04  0.78592754166E+02 0.  0.
        254    2    1    2    0    0  0.64113605715E+03 -0.31847014764E+03 -0.62451550065E+03  0.12813154608E+04  0.85980871174E+03 0.  0.
         23    2    4    4    0    0 -0.53315201892E+02 -0.17009844854E+03 -0.52085859699E+03  0.55798738670E+03  0.90995893933E+02 0.  0.
         23    2    4    4    0    0  0.69445125904E+03 -0.14837169910E+03 -0.10365690367E+03  0.72332807409E+03  0.90454611881E+02 0.  0.
          4    1    3    3  502    0 -0.58312347540E+03  0.27630560127E+03 -0.16036686921E+04  0.17286211403E+04  0.00000000000E+00 0. -1.
         -3    1    3    3    0  502 -0.58012581751E+02  0.42164546374E+02 -0.12586876440E+03  0.14486633309E+03  0.00000000000E+00 0.  1.
         13    1    5    5    0    0 -0.39013527757E+02 -0.15177217493E+03 -0.50757190870E+03  0.53121190775E+03  0.00000000000E+00 0.  1.
        -13    1    5    5    0    0 -0.14301674136E+02 -0.18326273608E+02 -0.13286688284E+02  0.26775478950E+02  0.00000000000E+00 0. -1.
          3    1    6    6  503    0  0.37239482577E+02  0.12040327244E+02 -0.97738716683E+01  0.40339522929E+02  0.00000000000E+00 0. -1.
         -3    1    6    6    0  503  0.65721177646E+03 -0.16041202634E+03 -0.93883031997E+02  0.68298855116E+03  0.00000000000E+00 0.  1.
<mgrwt>
<rscale>  0 0.21002896E+04</rscale>
<asrwt>0</asrwt>
<pdfrwt beam="1">  1        2 0.42375813E+00 0.21002896E+04</pdfrwt>
<pdfrwt beam="2">  1       -1 0.61596154E-01 0.21002896E+04</pdfrwt>
<totfact> 0.69133052E+00</totfact>
</mgrwt>
</event>
<event>
12    7  0.1735955E-007  0.1480984E+04  0.7818608E-02  0.8897197E-01
          2   -1    0    0  501    0  0.00000000000E+00  0.00000000000E+00  0.17074712388E+04  0.17074712388E+04  0.00000000000E+00 0. -1.
         -1   -1    0    0    0  501 -0.00000000000E+00 -0.00000000000E+00 -0.32113497817E+03  0.32113497817E+03  0.00000000000E+00 0.  1.
         24    2    1    2    0    0 -0.46263268964E+03  0.79963980358E+02  0.58336176920E+03  0.75310807396E+03  0.80234491443E+02 0.  0.
        254    2    1    2    0    0  0.46263268964E+03 -0.79963980358E+02  0.80297449146E+03  0.12754981430E+04  0.87275668733E+03 0.  0.
         23    2    4    4    0    0  0.58081813566E+01 -0.12915969149E+03 -0.14722601293E+03  0.21579333277E+03  0.90417380569E+02 0.  0.
         23    2    4    4    0    0  0.45682450828E+03  0.49195711129E+02  0.95020050438E+03  0.10597048103E+04  0.94786270191E+02 0.  0.
          4    1    3    3  502    0 -0.56103183211E+02  0.14365939053E+02  0.36168005861E+02  0.68279367449E+02  0.00000000000E+00 0. -1.
         -3    1    3    3    0  502 -0.40652950643E+03  0.65598041305E+02  0.54719376334E+03  0.68482870651E+03  0.00000000000E+00 0.  1.
         13    1    5    5    0    0 -0.30174906342E+02 -0.18695429134E+02 -0.11899237341E+02  0.37438428019E+02  0.00000000000E+00 0. -1.
        -13    1    5    5    0    0  0.35983087698E+02 -0.11046426235E+03 -0.13532677559E+03  0.17835490475E+03  0.00000000000E+00 0.  1.
          3    1    6    6  503    0  0.22082547261E+03  0.17478702768E+02  0.35258025966E+03  0.41639192344E+03  0.00000000000E+00 0. -1.
         -3    1    6    6    0  503  0.23599903567E+03  0.31717008362E+02  0.59762024472E+03  0.64331288683E+03  0.00000000000E+00 0.  1.
<mgrwt>
<rscale>  0 0.14809845E+04</rscale>
<asrwt>0</asrwt>
<pdfrwt beam="1">  1        2 0.26268788E+00 0.14809845E+04</pdfrwt>
<pdfrwt beam="2">  1       -1 0.49405382E-01 0.14809845E+04</pdfrwt>
<totfact> 0.43965770E+01</totfact>
</mgrwt>
</event>
<event>
12    7  0.1735955E-007  0.1505582E+04  0.7818608E-02  0.8880750E-01
          2   -1    0    0  501    0  0.00000000000E+00  0.00000000000E+00  0.10153307915E+04  0.10153307915E+04  0.00000000000E+00 0. -1.
         -1   -1    0    0    0  501 -0.00000000000E+00 -0.00000000000E+00 -0.55813734389E+03  0.55813734389E+03  0.00000000000E+00 0.  1.
         24    2    1    2    0    0  0.25718508522E+03  0.33325910152E+03  0.39263366639E+03  0.58096561688E+03  0.78447786534E+02 0.  0.
        254    2    1    2    0    0 -0.25718508522E+03 -0.33325910152E+03  0.64559781212E+02  0.99250251850E+03  0.89648618901E+03 0.  0.
         23    2    4    4    0    0 -0.36857385365E+03 -0.58632325143E+03  0.29311882295E+02  0.69870020949E+03  0.87756227871E+02 0.  0.
         23    2    4    4    0    0  0.11138876843E+03  0.25306414991E+03  0.35247898916E+02  0.29380230902E+03  0.92889508034E+02 0.  0.
          2    1    3    3  502    0 -0.35573980677E+01  0.19638753333E+02  0.13369561913E+02  0.24022508180E+02  0.00000000000E+00 0. -1.
         -1    1    3    3    0  502  0.26074248329E+03  0.31362034819E+03  0.37926410447E+03  0.55694310870E+03  0.00000000000E+00 0.  1.
         13    1    5    5    0    0 -0.17446147255E+02 -0.10500581579E+02 -0.10845871422E+02  0.23070829948E+02  0.00000000000E+00 0. -1.
        -13    1    5    5    0    0 -0.35112770639E+03 -0.57582266985E+03  0.40157753717E+02  0.67562937954E+03  0.00000000000E+00 0.  1.
          3    1    6    6  503    0  0.11924205972E+03  0.19141174504E+03  0.47480455350E+02  0.23045936429E+03  0.00000000000E+00 0. -1.
         -3    1    6    6    0  503 -0.78532912928E+01  0.61652404868E+02 -0.12232556434E+02  0.63342944730E+02  0.00000000000E+00 0.  1.
<mgrwt>
<rscale>  0 0.15055817E+04</rscale>
<asrwt>0</asrwt>
<pdfrwt beam="1">  1        2 0.15620474E+00 0.15055817E+04</pdfrwt>
<pdfrwt beam="2">  1       -1 0.85867284E-01 0.15055817E+04</pdfrwt>
<totfact> 0.36343684E+01</totfact>
</mgrwt>
</event>
<event>
12    7  0.1735955E-007  0.1337925E+04  0.7818608E-02  0.9000019E-01
          2   -1    0    0  501    0  0.00000000000E+00  0.00000000000E+00  0.14608280484E+04  0.14608280484E+04  0.00000000000E+00 0. -1.
         -1   -1    0    0    0  501 -0.00000000000E+00 -0.00000000000E+00 -0.30634073773E+03  0.30634073773E+03  0.00000000000E+00 0.  1.
         24    2    1    2    0    0 -0.28435388179E+03  0.58651373321E+02  0.61297528660E+03  0.68222997157E+03  0.73497744471E+02 0.  0.
        254    2    1    2    0    0  0.28435388179E+03 -0.58651373321E+02  0.54151202411E+03  0.10849388146E+04  0.89418110330E+03 0.  0.
         23    2    4    4    0    0 -0.15438797395E+03 -0.33882743331E+03  0.36107355150E+03  0.52652326694E+03  0.90625410228E+02 0.  0.
         23    2    4    4    0    0  0.43874185574E+03  0.28017605999E+03  0.18043847261E+03  0.55841554766E+03  0.90977144981E+02 0.  0.
          4    1    3    3  502    0 -0.91838245027E+02  0.40338678811E+02  0.27661762187E+03  0.29424272461E+03  0.00000000000E+00 0. -1.
         -3    1    3    3    0  502 -0.19251563676E+03  0.18312694510E+02  0.33635766473E+03  0.38798724696E+03  0.00000000000E+00 0.  1.
         13    1    5    5    0    0 -0.58503391383E+02 -0.20246598837E+03  0.24617396694E+03  0.32406287237E+03  0.00000000000E+00 0. -1.
        -13    1    5    5    0    0 -0.95884582565E+02 -0.13636144494E+03  0.11489958456E+03  0.20246039457E+03  0.00000000000E+00 0.  1.
          1    1    6    6  503    0  0.11080261327E+03  0.82100371926E+02  0.75926197722E+01  0.13811349700E+03  0.00000000000E+00 0. -1.
         -1    1    6    6    0  503  0.32793924247E+03  0.19807568806E+03  0.17284585284E+03  0.42030205067E+03  0.00000000000E+00 0.  1.
<mgrwt>
<rscale>  0 0.13379255E+04</rscale>
<asrwt>0</asrwt>
<pdfrwt beam="1">  1        2 0.22474277E+00 0.13379255E+04</pdfrwt>
<pdfrwt beam="2">  1       -1 0.47129345E-01 0.13379255E+04</pdfrwt>
<totfact> 0.66810162E+01</totfact>
</mgrwt>
</event>
<event>
12    7  0.1735955E-007  0.1311676E+04  0.7818608E-02  0.9020357E-01
          2   -1    0    0  501    0  0.00000000000E+00  0.00000000000E+00  0.43850609078E+03  0.43850609078E+03  0.00000000000E+00 0. -1.
         -1   -1    0    0    0  501 -0.00000000000E+00 -0.00000000000E+00 -0.98088385487E+03  0.98088385487E+03  0.00000000000E+00 0.  1.
         24    2    1    2    0    0  0.22310586106E+03 -0.25355740017E+03 -0.22406605317E+03  0.41262391620E+03  0.77364847412E+02 0.  0.
        254    2    1    2    0    0 -0.22310586106E+03  0.25355740017E+03 -0.31831171093E+03  0.10067660295E+04  0.89341362891E+03 0.  0.
         23    2    4    4    0    0 -0.28183300664E+03  0.27726981992E+03 -0.58851967988E+03  0.71481448300E+03  0.91082022535E+02 0.  0.
         23    2    4    4    0    0  0.58727145577E+02 -0.23712419748E+02  0.27020796895E+03  0.29195154645E+03  0.90621203440E+02 0.  0.
          2    1    3    3  502    0  0.17844453928E+03 -0.19281913997E+03 -0.13320864859E+03  0.29456106056E+03  0.00000000000E+00 0. -1.
         -1    1    3    3    0  502  0.44661321776E+02 -0.60738260205E+02 -0.90857404574E+02  0.11806285564E+03  0.00000000000E+00 0.  1.
         13    1    5    5    0    0 -0.26279765008E+02  0.44265422200E+01 -0.16096556744E+02  0.31133895740E+02  0.00000000000E+00 0. -1.
        -13    1    5    5    0    0 -0.25555324163E+03  0.27284327770E+03 -0.57242312314E+03  0.68368058726E+03  0.00000000000E+00 0.  1.
          4    1    6    6  503    0  0.36781335950E+02 -0.13047967488E+01  0.24416707693E+02  0.44167236538E+02  0.00000000000E+00 0. -1.
         -4    1    6    6    0  503  0.21945809627E+02 -0.22407622999E+02  0.24579126126E+03  0.24778430991E+03  0.00000000000E+00 0.  1.
<mgrwt>
<rscale>  0 0.13116761E+04</rscale>
<asrwt>0</asrwt>
<pdfrwt beam="1">  1        2 0.67462476E-01 0.13116761E+04</pdfrwt>
<pdfrwt beam="2">  1       -1 0.15090521E+00 0.13116761E+04</pdfrwt>
<totfact> 0.27554800E+01</totfact>
</mgrwt>
</event>
<event>
12    7  0.1735955E-007  0.1973086E+04  0.7818608E-02  0.8619308E-01
          2   -1    0    0  501    0  0.00000000000E+00  0.00000000000E+00  0.14292750567E+04  0.14292750567E+04  0.00000000000E+00 0. -1.
         -1   -1    0    0    0  501 -0.00000000000E+00 -0.00000000000E+00 -0.68095132134E+03  0.68095132134E+03  0.00000000000E+00 0.  1.
         24    2    1    2    0    0 -0.53154631811E+03 -0.54929373920E+03  0.12660034591E+03  0.77904929531E+03  0.81394451431E+02 0.  0.
        254    2    1    2    0    0  0.53154631811E+03  0.54929373920E+03  0.62172338942E+03  0.13311770827E+04  0.89511303885E+03 0.  0.
         23    2    4    4    0    0 -0.13403739441E+03  0.81211202908E+02 -0.12795432686E+03  0.22084555401E+03  0.88539066997E+02 0.  0.
         23    2    4    4    0    0  0.66558371252E+03  0.46808253629E+03  0.74967771628E+03  0.11103315287E+04  0.93362123761E+02 0.  0.
          2    1    3    3  502    0 -0.16044036304E+03 -0.11574101503E+03  0.25389574054E+02  0.19945356132E+03  0.00000000000E+00 0. -1.
         -1    1    3    3    0  502 -0.37110595507E+03 -0.43355272417E+03  0.10121077186E+03  0.57959573399E+03  0.00000000000E+00 0.  1.
         13    1    5    5    0    0 -0.66730833047E+01  0.47864778059E+02 -0.35676058409E+02  0.60069527742E+02  0.00000000000E+00 0. -1.
        -13    1    5    5    0    0 -0.12736431111E+03  0.33346424849E+02 -0.92278268450E+02  0.16077602627E+03  0.00000000000E+00 0.  1.
          1    1    6    6  503    0  0.21126180131E+03  0.18177495928E+03  0.30452410247E+03  0.41280578181E+03  0.00000000000E+00 0. -1.
         -1    1    6    6    0  503  0.45432191121E+03  0.28630757701E+03  0.44515361381E+03  0.69752574687E+03  0.00000000000E+00 0.  1.
<mgrwt>
<rscale>  0 0.19730856E+04</rscale>
<asrwt>0</asrwt>
<pdfrwt beam="1">  1        2 0.21988847E+00 0.19730856E+04</pdfrwt>
<pdfrwt beam="2">  1       -1 0.10476174E+00 0.19730856E+04</pdfrwt>
<totfact> 0.12644588E+01</totfact>
</mgrwt>
</event>
<event>
12    7  0.1735955E-007  0.1601778E+04  0.7818608E-02  0.8819457E-01
          2   -1    0    0  501    0  0.00000000000E+00  0.00000000000E+00  0.23572146909E+04  0.23572146909E+04  0.00000000000E+00 0. -1.
         -1   -1    0    0    0  501 -0.00000000000E+00 -0.00000000000E+00 -0.27211059705E+03  0.27211059705E+03  0.00000000000E+00 0.  1.
         24    2    1    2    0    0  0.52594941596E+03  0.10350120006E+03  0.85695550443E+03  0.10139649500E+04  0.80105535092E+02 0.  0.
        254    2    1    2    0    0 -0.52594941596E+03 -0.10350120006E+03  0.12281485894E+04  0.16153603379E+04  0.90205586140E+03 0.  0.
         23    2    4    4    0    0  0.60153895103E+02 -0.33325096942E+03  0.19790800686E+03  0.40463567306E+03  0.99437161160E+02 0.  0.
         23    2    4    4    0    0 -0.58610331106E+03  0.22974976936E+03  0.10302405825E+04  0.12107246649E+04  0.90313389882E+02 0.  0.
          4    1    3    3  502    0  0.31728747783E+03  0.44994652034E+02  0.57597466814E+03  0.65912265978E+03  0.00000000000E+00 0. -1.
         -3    1    3    3    0  502  0.20866193812E+03  0.58506548026E+02  0.28098083629E+03  0.35484229024E+03  0.00000000000E+00 0.  1.
         13    1    5    5    0    0  0.59673174512E+02 -0.88433123958E+02  0.77138994404E+02  0.13165002707E+03  0.00000000000E+00 0. -1.
        -13    1    5    5    0    0  0.48072059060E+00 -0.24481784547E+03  0.12076901245E+03  0.27298564599E+03  0.00000000000E+00 0.  1.
          4    1    6    6  503    0 -0.52049492372E+02  0.93552664440E+01  0.13779219455E+03  0.14759186815E+03  0.00000000000E+00 0. -1.
         -4    1    6    6    0  503 -0.53405381869E+03  0.22039450292E+03  0.89244838800E+03  0.10631327967E+04  0.00000000000E+00 0.  1.
<mgrwt>
<rscale>  0 0.16017779E+04</rscale>
<asrwt>0</asrwt>
<pdfrwt beam="1">  1        2 0.36264840E+00 0.16017779E+04</pdfrwt>
<pdfrwt beam="2">  1       -1 0.41863170E-01 0.16017779E+04</pdfrwt>
<totfact> 0.25761354E+01</totfact>
</mgrwt>
</event>
<event>
12    7  0.1735955E-007  0.1636261E+04  0.7818608E-02  0.8798576E-01
         -1   -1    0    0    0  501 -0.00000000000E+00  0.00000000000E+00  0.20469083573E+03  0.20469083573E+03  0.00000000000E+00 0.  1.
          2   -1    0    0  501    0  0.00000000000E+00 -0.00000000000E+00 -0.32699940007E+04  0.32699940007E+04  0.00000000000E+00 0. -1.
         24    2    1    2    0    0  0.79536871087E+02 -0.44346426179E+03 -0.34025165387E+03  0.57084273851E+03  0.84282731307E+02 0.  0.
        254    2    1    2    0    0 -0.79536871087E+02  0.44346426179E+03 -0.27250515111E+04  0.29038420980E+04  0.89632947413E+03 0.  0.
         23    2    4    4    0    0  0.23752822260E+03 -0.52622666275E+02 -0.16871448398E+04  0.17069988615E+04  0.90546126604E+02 0.  0.
         23    2    4    4    0    0 -0.31706509369E+03  0.49608692806E+03 -0.10379066713E+04  0.11968432365E+04  0.92471403685E+02 0.  0.
          2    1    3    3  502    0  0.86065412212E+01 -0.23883921310E+02 -0.48986159248E+02  0.55173889176E+02  0.00000000000E+00 0. -1.
         -1    1    3    3    0  502  0.70930329866E+02 -0.41958034048E+03 -0.29126549462E+03  0.51566884933E+03  0.00000000000E+00 0.  1.
         13    1    5    5    0    0  0.68213388708E+02 -0.50332678213E+01 -0.25200437852E+03  0.26112182401E+03  0.00000000000E+00 0.  1.
        -13    1    5    5    0    0  0.16931483389E+03 -0.47589398454E+02 -0.14351404613E+04  0.14458770375E+04  0.00000000000E+00 0. -1.
          2    1    6    6  503    0 -0.94519835089E+02  0.13950513754E+03 -0.38596487877E+03  0.42114673247E+03  0.00000000000E+00 0. -1.
         -2    1    6    6    0  503 -0.22254525860E+03  0.35658179052E+03 -0.65194179256E+03  0.77569650401E+03  0.00000000000E+00 0.  1.
<mgrwt>
<rscale>  0 0.16362614E+04</rscale>
<asrwt>0</asrwt>
<pdfrwt beam="1">  1        2 0.50307600E+00 0.16362614E+04</pdfrwt>
<pdfrwt beam="2">  1       -1 0.31490898E-01 0.16362614E+04</pdfrwt>
<totfact> 0.11994397E+01</totfact>
</mgrwt>
</event>
<event>
12    7  0.1735955E-007  0.2161992E+04  0.7818608E-02  0.8534417E-01
         -1   -1    0    0    0  501 -0.00000000000E+00  0.00000000000E+00  0.23308579012E+04  0.23308579012E+04  0.00000000000E+00 0.  1.
          2   -1    0    0  501    0  0.00000000000E+00 -0.00000000000E+00 -0.50133986897E+03  0.50133986897E+03  0.00000000000E+00 0. -1.
         24    2    1    2    0    0  0.37788958243E+03  0.33110114931E+03 -0.20654727395E+03  0.54990389055E+03  0.85463471076E+02 0.  0.
        254    2    1    2    0    0 -0.37788958243E+03 -0.33110114931E+03  0.20360653062E+04  0.22822938797E+04  0.90048593236E+03 0.  0.
         23    2    4    4    0    0  0.12724181220E+03 -0.23067992779E+03  0.13270983783E+03  0.30835213760E+03  0.89807749393E+02 0.  0.
         23    2    4    4    0    0 -0.50513139462E+03 -0.10042122152E+03  0.19033554684E+04  0.19739417421E+04  0.91879347100E+02 0.  0.
          2    1    3    3  502    0  0.30554595569E+03  0.30749144674E+03 -0.17278708817E+03  0.46665265316E+03  0.00000000000E+00 0. -1.
         -1    1    3    3    0  502  0.72343626734E+02  0.23609702571E+02 -0.33760185780E+02  0.83251237398E+02  0.00000000000E+00 0.  1.
         13    1    5    5    0    0  0.13035396023E+03 -0.16464551849E+03  0.83733496324E+02  0.22607874759E+03  0.00000000000E+00 0.  1.
        -13    1    5    5    0    0 -0.31121480287E+01 -0.66034409297E+02  0.48976341503E+02  0.82273390009E+02  0.00000000000E+00 0. -1.
          3    1    6    6  503    0 -0.25752044850E+03 -0.81057053927E+01  0.10075913929E+04  0.10400110090E+04  0.00000000000E+00 0. -1.
         -3    1    6    6    0  503 -0.24761094612E+03 -0.92315516129E+02  0.89576407552E+03  0.93393073305E+03  0.00000000000E+00 0.  1.
<mgrwt>
<rscale>  0 0.21619917E+04</rscale>
<asrwt>0</asrwt>
<pdfrwt beam="1">  1        2 0.77129212E-01 0.21619917E+04</pdfrwt>
<pdfrwt beam="2">  1       -1 0.35859352E+00 0.21619917E+04</pdfrwt>
<totfact> 0.87658462E-01</totfact>
</mgrwt>
</event>
<event>
12    7  0.1735955E-007  0.3048979E+04  0.7818608E-02  0.8229881E-01
          2   -1    0    0  501    0  0.00000000000E+00  0.00000000000E+00  0.45222566165E+04  0.45222566165E+04  0.00000000000E+00 0. -1.
         -1   -1    0    0    0  501 -0.00000000000E+00 -0.00000000000E+00 -0.51391778459E+03  0.51391778459E+03  0.00000000000E+00 0.  1.
         24    2    1    2    0    0  0.51430865577E+03  0.11077485661E+04  0.29057675810E+04  0.31530385367E+04  0.80910443175E+02 0.  0.
        254    2    1    2    0    0 -0.51430865577E+03 -0.11077485661E+04  0.11025712509E+04  0.18831358644E+04  0.91592414599E+03 0.  0.
         23    2    4    4    0    0 -0.10719926392E+03 -0.45093209328E+03  0.99007990917E+03  0.10968771832E+04  0.89721199233E+02 0.  0.
         23    2    4    4    0    0 -0.40710939185E+03 -0.65681647286E+03  0.11249134169E+03  0.78625868114E+03  0.91665019243E+02 0.  0.
          4    1    3    3  502    0  0.45648389368E+03  0.10130867136E+04  0.26888238581E+04  0.29093806857E+04  0.00000000000E+00 0. -1.
         -3    1    3    3    0  502  0.57824762093E+02  0.94661852534E+02  0.21694372294E+03  0.24365785101E+03  0.00000000000E+00 0.  1.
         13    1    5    5    0    0 -0.75041877173E+02 -0.32733818538E+03  0.80265473248E+03  0.87007826689E+03  0.00000000000E+00 0. -1.
        -13    1    5    5    0    0 -0.32157386750E+02 -0.12359390789E+03  0.18742517668E+03  0.22679891633E+03  0.00000000000E+00 0.  1.
          1    1    6    6  503    0 -0.38110558874E+03 -0.63048727876E+03  0.88171842283E+02  0.74197705639E+03  0.00000000000E+00 0. -1.
         -1    1    6    6    0  503 -0.26003803112E+02 -0.26329194105E+02  0.24319499409E+02  0.44281624744E+02  0.00000000000E+00 0.  1.
<mgrwt>
<rscale>  0 0.30489789E+04</rscale>
<asrwt>0</asrwt>
<pdfrwt beam="1">  1        2 0.69573176E+00 0.30489789E+04</pdfrwt>
<pdfrwt beam="2">  1       -1 0.79064277E-01 0.30489789E+04</pdfrwt>
<totfact> 0.18105239E-01</totfact>
</mgrwt>
</event>
<event>
12    7  0.1735955E-007  0.1967701E+04  0.7818608E-02  0.8621872E-01
         -1   -1    0    0    0  501 -0.00000000000E+00  0.00000000000E+00  0.30647320931E+03  0.30647320931E+03  0.00000000000E+00 0.  1.
          2   -1    0    0  501    0  0.00000000000E+00 -0.00000000000E+00 -0.31583909536E+04  0.31583909536E+04  0.00000000000E+00 0. -1.
         24    2    1    2    0    0 -0.16821781334E+03 -0.30084320338E+03  0.93569647119E+02  0.36566689615E+03  0.78441916959E+02 0.  0.
        254    2    1    2    0    0  0.16821781334E+03  0.30084320338E+03 -0.29454873914E+04  0.30991972668E+04  0.90017990404E+03 0.  0.
         23    2    4    4    0    0 -0.25096195538E+03 -0.16509408222E+03 -0.12655035141E+04  0.13038380071E+04  0.90864984826E+02 0.  0.
         23    2    4    4    0    0  0.41917976872E+03  0.46593728560E+03 -0.16799838773E+04  0.17953592597E+04  0.90331670674E+02 0.  0.
          4    1    3    3  502    0 -0.57589762154E+02 -0.70671425381E+02 -0.64699633386E+01  0.91394154605E+02  0.00000000000E+00 0. -1.
         -3    1    3    3    0  502 -0.11062805118E+03 -0.23017177800E+03  0.10003961046E+03  0.27427274155E+03  0.00000000000E+00 0.  1.
         13    1    5    5    0    0 -0.95549871013E+02 -0.46487464899E+02 -0.28801946651E+03  0.30699523666E+03  0.00000000000E+00 0. -1.
        -13    1    5    5    0    0 -0.15541208437E+03 -0.11860661732E+03 -0.97748404759E+03  0.99684277042E+03  0.00000000000E+00 0.  1.
          4    1    6    6  503    0  0.11031206129E+03  0.11828219827E+03 -0.32963300856E+03  0.36717482161E+03  0.00000000000E+00 0. -1.
         -4    1    6    6    0  503  0.30886770742E+03  0.34765508733E+03 -0.13503508688E+04  0.14281844381E+04  0.00000000000E+00 0.  1.
<mgrwt>
<rscale>  0 0.19677014E+04</rscale>
<asrwt>0</asrwt>
<pdfrwt beam="1">  1        2 0.48590630E+00 0.19677014E+04</pdfrwt>
<pdfrwt beam="2">  1       -1 0.47149724E-01 0.19677014E+04</pdfrwt>
<totfact> 0.65881598E+00</totfact>
</mgrwt>
</event>
<event>
12    7  0.1735955E-007  0.1379383E+04  0.7818608E-02  0.8968879E-01
          2   -1    0    0  501    0  0.00000000000E+00  0.00000000000E+00  0.17243750494E+04  0.17243750494E+04  0.00000000000E+00 0. -1.
         -1   -1    0    0    0  501 -0.00000000000E+00 -0.00000000000E+00 -0.27585328960E+03  0.27585328960E+03  0.00000000000E+00 0.  1.
         24    2    1    2    0    0  0.29085573822E+03 -0.18352858026E+03  0.15295411184E+03  0.38460640943E+03  0.79040050746E+02 0.  0.
        254    2    1    2    0    0 -0.29085573822E+03  0.18352858026E+03  0.12955676480E+04  0.16156219296E+04  0.90191955775E+03 0.  0.
         23    2    4    4    0    0  0.23623315070E+03 -0.11742720196E+03  0.15566333113E+03  0.32118268927E+03  0.96602266931E+02 0.  0.
         23    2    4    4    0    0 -0.52708888892E+03  0.30095578222E+03  0.11399043168E+04  0.12944392403E+04  0.88283722436E+02 0.  0.
          4    1    3    3  502    0  0.73302966830E+02 -0.21023941588E+02  0.76831946783E+01  0.76644390182E+02  0.00000000000E+00 0. -1.
         -3    1    3    3    0  502  0.21755277139E+03 -0.16250463867E+03  0.14527091716E+03  0.30796201925E+03  0.00000000000E+00 0.  1.
         13    1    5    5    0    0  0.11006283543E+03 -0.50045273580E+02  0.12691247314E+03  0.17528586078E+03  0.00000000000E+00 0.  1.
        -13    1    5    5    0    0  0.12617031527E+03 -0.67381928383E+02  0.28750857991E+02  0.14589682849E+03  0.00000000000E+00 0. -1.
          1    1    6    6  503    0 -0.52330336136E+03  0.29012966095E+03  0.11323144019E+04  0.12806863522E+04  0.00000000000E+00 0. -1.
         -1    1    6    6    0  503 -0.37855275533E+01  0.10826121274E+02  0.75899149685E+01  0.13752888057E+02  0.00000000000E+00 0.  1.
<mgrwt>
<rscale>  0 0.13793832E+04</rscale>
<asrwt>0</asrwt>
<pdfrwt beam="1">  1        2 0.26528846E+00 0.13793832E+04</pdfrwt>
<pdfrwt beam="2">  1       -1 0.42438969E-01 0.13793832E+04</pdfrwt>
<totfact> 0.57648962E+01</totfact>
</mgrwt>
</event>
<event>
12    7  0.1735955E-007  0.1472880E+04  0.7818608E-02  0.8902690E-01
          2   -1    0    0  501    0  0.00000000000E+00  0.00000000000E+00  0.93115937804E+03  0.93115937804E+03  0.00000000000E+00 0. -1.
         -1   -1    0    0    0  501 -0.00000000000E+00 -0.00000000000E+00 -0.58243934649E+03  0.58243934649E+03  0.00000000000E+00 0.  1.
         24    2    1    2    0    0 -0.22631244003E+03  0.32659684758E+03  0.36445706961E+03  0.54480403730E+03  0.78100333567E+02 0.  0.
        254    2    1    2    0    0  0.22631244003E+03 -0.32659684758E+03 -0.15737038054E+02  0.96879468723E+03  0.88342100399E+03 0.  0.
         23    2    4    4    0    0  0.10853911790E+03 -0.59506646455E+03 -0.15707205280E+03  0.63143821532E+03  0.90320278179E+02 0.  0.
         23    2    4    4    0    0  0.11777332213E+03  0.26846961697E+03  0.14133501475E+03  0.33735647191E+03  0.88810540523E+02 0.  0.
          4    1    3    3  502    0 -0.15772549542E+03  0.27922491071E+03  0.30348823542E+03  0.44153028402E+03  0.00000000000E+00 0. -1.
         -3    1    3    3    0  502 -0.68586944608E+02  0.47371936867E+02  0.60968834197E+02  0.10327375328E+03  0.00000000000E+00 0.  1.
         13    1    5    5    0    0  0.11022587383E+03 -0.47860751164E+03 -0.97902568058E+02  0.50079916763E+03  0.00000000000E+00 0. -1.
        -13    1    5    5    0    0 -0.16867559283E+01 -0.11645895290E+03 -0.59169484745E+02  0.13063904769E+03  0.00000000000E+00 0.  1.
          1    1    6    6  503    0  0.11663390993E+03  0.24760993132E+03  0.10065478118E+03  0.29162567103E+03  0.00000000000E+00 0. -1.
         -1    1    6    6    0  503  0.11394121999E+01  0.20859685651E+02  0.40680233573E+02  0.45730800880E+02  0.00000000000E+00 0.  1.
<mgrwt>
<rscale>  0 0.14728800E+04</rscale>
<asrwt>0</asrwt>
<pdfrwt beam="1">  1        2 0.14325529E+00 0.14728800E+04</pdfrwt>
<pdfrwt beam="2">  1       -1 0.89606053E-01 0.14728800E+04</pdfrwt>
<totfact> 0.37664483E+01</totfact>
</mgrwt>
</event>
<event>
12    7  0.1735955E-007  0.2444265E+04  0.7818608E-02  0.8423115E-01
         -1   -1    0    0    0  501 -0.00000000000E+00  0.00000000000E+00  0.73671817339E+03  0.73671817339E+03  0.00000000000E+00 0.  1.
          2   -1    0    0  501    0  0.00000000000E+00 -0.00000000000E+00 -0.20273798468E+04  0.20273798468E+04  0.00000000000E+00 0. -1.
         24    2    1    2    0    0  0.66731929824E+03  0.72950180243E+03 -0.96091191597E+03  0.13810880436E+04  0.81021900260E+02 0.  0.
        254    2    1    2    0    0 -0.66731929824E+03 -0.72950180243E+03 -0.32974975744E+03  0.13830099766E+04  0.90911702620E+03 0.  0.
         23    2    4    4    0    0 -0.70370288007E+03 -0.81625888545E+03 -0.61251314352E+02  0.10831358408E+04  0.89192009959E+02 0.  0.
         23    2    4    4    0    0  0.36383581832E+02  0.86757083025E+02 -0.26849844309E+03  0.29987413580E+03  0.94776193734E+02 0.  0.
          4    1    3    3  502    0  0.38477759346E+03  0.40615091640E+03 -0.48902461479E+03  0.74307296896E+03  0.00000000000E+00 0. -1.
         -3    1    3    3    0  502  0.28254170477E+03  0.32335088603E+03 -0.47188730118E+03  0.63801507462E+03  0.00000000000E+00 0.  1.
         13    1    5    5    0    0 -0.65600117189E+03 -0.76285483048E+03 -0.34561168925E+02  0.10067171918E+04  0.00000000000E+00 0. -1.
        -13    1    5    5    0    0 -0.47701708182E+02 -0.53404054977E+02 -0.26690145427E+02  0.76418648995E+02  0.00000000000E+00 0.  1.
          4    1    6    6  503    0  0.46476177823E+02  0.10296711479E+03 -0.21177298627E+03  0.24002095648E+03  0.00000000000E+00 0. -1.
         -4    1    6    6    0  503 -0.10092595992E+02 -0.16210031769E+02 -0.56725456820E+02  0.59853179325E+02  0.00000000000E+00 0.  1.
<mgrwt>
<rscale>  0 0.24442648E+04</rscale>
<asrwt>0</asrwt>
<pdfrwt beam="1">  1        2 0.31190459E+00 0.24442648E+04</pdfrwt>
<pdfrwt beam="2">  1       -1 0.11334126E+00 0.24442648E+04</pdfrwt>
<totfact> 0.46738995E+00</totfact>
</mgrwt>
</event>
<event>
12    7  0.1735955E-007  0.2558340E+04  0.7818608E-02  0.8382492E-01
          2   -1    0    0  501    0  0.00000000000E+00  0.00000000000E+00  0.27166821982E+04  0.27166821982E+04  0.00000000000E+00 0. -1.
         -1   -1    0    0    0  501 -0.00000000000E+00 -0.00000000000E+00 -0.60230653279E+03  0.60230653279E+03  0.00000000000E+00 0.  1.
         24    2    1    2    0    0 -0.53318164021E+03 -0.31707478912E+03 -0.27919776903E+03  0.68521042131E+03  0.82114821407E+02 0.  0.
        254    2    1    2    0    0  0.53318164021E+03  0.31707478912E+03  0.23935734345E+04  0.26337783097E+04  0.90706963083E+03 0.  0.
         23    2    4    4    0    0 -0.22873804035E+03 -0.11659518051E+02  0.36915483401E+03  0.44394322205E+03  0.91396156760E+02 0.  0.
         23    2    4    4    0    0  0.76191968056E+03  0.32873430717E+03  0.20244186005E+04  0.21898350877E+04  0.92299495889E+02 0.  0.
          2    1    3    3  502    0 -0.64964126064E+02 -0.33288152047E+02 -0.57648332333E+01  0.73223439172E+02  0.00000000000E+00 0. -1.
         -1    1    3    3    0  502 -0.46821751415E+03 -0.28378663707E+03 -0.27343293579E+03  0.61198698214E+03  0.00000000000E+00 0.  1.
         13    1    5    5    0    0 -0.10242805672E+03 -0.29018169016E+02  0.99736493309E+02  0.14587984451E+03  0.00000000000E+00 0. -1.
        -13    1    5    5    0    0 -0.12630998363E+03  0.17358650965E+02  0.26941834070E+03  0.29806337754E+03  0.00000000000E+00 0.  1.
          2    1    6    6  503    0  0.28274203308E+02  0.14425903985E+02  0.40998806483E+02  0.51850163081E+02  0.00000000000E+00 0. -1.
         -2    1    6    6    0  503  0.73364547725E+03  0.31430840318E+03  0.19834197940E+04  0.21379849246E+04  0.00000000000E+00 0.  1.
<mgrwt>
<rscale>  0 0.25583396E+04</rscale>
<asrwt>0</asrwt>
<pdfrwt beam="1">  1        2 0.41795110E+00 0.25583396E+04</pdfrwt>
<pdfrwt beam="2">  1       -1 0.92662545E-01 0.25583396E+04</pdfrwt>
<totfact> 0.29653971E+00</totfact>
</mgrwt>
</event>
<event>
12    7  0.1735955E-007  0.2678334E+04  0.7818608E-02  0.8342069E-01
         -1   -1    0    0    0  501 -0.00000000000E+00  0.00000000000E+00  0.55627920670E+03  0.55627920670E+03  0.00000000000E+00 0.  1.
          2   -1    0    0  501    0  0.00000000000E+00 -0.00000000000E+00 -0.32238642519E+04  0.32238642519E+04  0.00000000000E+00 0. -1.
         24    2    1    2    0    0  0.11115036637E+04  0.40440451115E+03 -0.12976055511E+04  0.17575608025E+04  0.79097441565E+02 0.  0.
        254    2    1    2    0    0 -0.11115036637E+04 -0.40440451115E+03 -0.13699794941E+04  0.20225826561E+04  0.90278091672E+03 0.  0.
         23    2    4    4    0    0 -0.11197769903E+04 -0.57727683386E+03 -0.13058125165E+04  0.18168107251E+04  0.92227066354E+02 0.  0.
         23    2    4    4    0    0  0.82733266345E+01  0.17287232271E+03 -0.64166977646E+02  0.20577193102E+03  0.90947230225E+02 0.  0.
          2    1    3    3  502    0  0.30767160416E+01 -0.31823829298E+01 -0.43828414110E+01  0.62292087416E+01  0.00000000000E+00 0. -1.
         -1    1    3    3    0  502  0.11084269476E+04  0.40758689408E+03 -0.12932227097E+04  0.17513315938E+04  0.00000000000E+00 0.  1.
         13    1    5    5    0    0 -0.85656449559E+03 -0.46035322126E+03 -0.10561972395E+04  0.14356811735E+04  0.00000000000E+00 0. -1.
        -13    1    5    5    0    0 -0.26321249470E+03 -0.11692361260E+03 -0.24961527700E+03  0.38112955154E+03  0.00000000000E+00 0.  1.
          4    1    6    6  503    0  0.72332277381E+01 -0.34740610263E+01  0.11377725312E+02  0.13922690717E+02  0.00000000000E+00 0.  1.
         -4    1    6    6    0  503  0.10400988964E+01  0.17634638373E+03 -0.75544702958E+02  0.19184924031E+03  0.00000000000E+00 0. -1.
<mgrwt>
<rscale>  0 0.26783343E+04</rscale>
<asrwt>0</asrwt>
<pdfrwt beam="1">  1        2 0.49597913E+00 0.26783343E+04</pdfrwt>
<pdfrwt beam="2">  1       -1 0.85581415E-01 0.26783343E+04</pdfrwt>
<totfact> 0.16857416E+00</totfact>
</mgrwt>
</event>
<event>
12    7  0.1735955E-007  0.1796065E+04  0.7818608E-02  0.8708395E-01
          2   -1    0    0  501    0  0.00000000000E+00  0.00000000000E+00  0.11732763473E+04  0.11732763473E+04  0.00000000000E+00 0. -1.
         -1   -1    0    0    0  501 -0.00000000000E+00 -0.00000000000E+00 -0.68735940447E+03  0.68735940447E+03  0.00000000000E+00 0.  1.
         24    2    1    2    0    0  0.57936130017E+03  0.16280621533E+03  0.91661625644E+02  0.61505510371E+03  0.87895091461E+02 0.  0.
        254    2    1    2    0    0 -0.57936130017E+03 -0.16280621533E+03  0.39425531722E+03  0.12455806481E+04  0.10167932513E+04 0.  0.
         23    2    4    4    0    0 -0.22071417329E+03  0.69533110321E+02  0.67964165860E+03  0.72376826762E+03  0.91532078487E+02 0.  0.
         23    2    4    4    0    0 -0.35864712687E+03 -0.23233932565E+03 -0.28538634138E+03  0.52181238047E+03  0.90738485281E+02 0.  0.
          2    1    3    3  502    0  0.10912770506E+03  0.67189415583E+02  0.25384968112E+02  0.13064329368E+03  0.00000000000E+00 0. -1.
         -1    1    3    3    0  502  0.47023359511E+03  0.95616799746E+02  0.66276657533E+02  0.48441181003E+03  0.00000000000E+00 0.  1.
         13    1    5    5    0    0 -0.98603790554E+01 -0.24680168427E+01  0.13405202519E+03  0.13443683885E+03  0.00000000000E+00 0.  1.
        -13    1    5    5    0    0 -0.21085379424E+03  0.72001127164E+02  0.54558963340E+03  0.58933142877E+03  0.00000000000E+00 0. -1.
          1    1    6    6  503    0 -0.15063308809E+03 -0.49527436551E+02 -0.12395033593E+03  0.20126345912E+03  0.00000000000E+00 0. -1.
         -1    1    6    6    0  503 -0.20801403879E+03 -0.18281188910E+03 -0.16143600545E+03  0.32054892136E+03  0.00000000000E+00 0.  1.
<mgrwt>
<rscale>  0 0.17960652E+04</rscale>
<asrwt>0</asrwt>
<pdfrwt beam="1">  1        2 0.18050405E+00 0.17960652E+04</pdfrwt>
<pdfrwt beam="2">  1       -1 0.10574760E+00 0.17960652E+04</pdfrwt>
<totfact> 0.17725425E+01</totfact>
</mgrwt>
</event>
<event>
12    7  0.1735955E-007  0.3720818E+04  0.7818608E-02  0.8063364E-01
         -1   -1    0    0    0  501 -0.00000000000E+00  0.00000000000E+00  0.21795770798E+04  0.21795770798E+04  0.00000000000E+00 0.  1.
          2   -1    0    0  501    0  0.00000000000E+00 -0.00000000000E+00 -0.15879789355E+04  0.15879789355E+04  0.00000000000E+00 0. -1.
         24    2    1    2    0    0 -0.93524028757E+03  0.40028701943E+02  0.17765668340E+04  0.20096818485E+04  0.79716523759E+02 0.  0.
        254    2    1    2    0    0  0.93524028757E+03 -0.40028701943E+02 -0.11849686897E+04  0.17578741668E+04  0.89983003860E+03 0.  0.
         23    2    4    4    0    0  0.55506335846E+03 -0.45796952376E+03 -0.71156890075E+03  0.10161257729E+04  0.91377618910E+02 0.  0.
         23    2    4    4    0    0  0.38017692911E+03  0.41794082181E+03 -0.47339978891E+03  0.74174839391E+03  0.82911348758E+02 0.  0.
          2    1    3    3  502    0 -0.15723861273E+03 -0.11083933920E+02  0.35273172054E+03  0.38635023178E+03  0.00000000000E+00 0. -1.
         -1    1    3    3    0  502 -0.77800167484E+03  0.51112635864E+02  0.14238351134E+04  0.16233316167E+04  0.00000000000E+00 0.  1.
         13    1    5    5    0    0  0.15793517978E+03 -0.84669912470E+02 -0.15195460668E+03  0.23495258581E+03  0.00000000000E+00 0.  1.
        -13    1    5    5    0    0  0.39712817868E+03 -0.37329961129E+03 -0.55961429407E+03  0.78117318708E+03  0.00000000000E+00 0. -1.
          4    1    6    6  503    0  0.36148614461E+03  0.41392201540E+03 -0.44315285376E+03  0.70596608939E+03  0.00000000000E+00 0. -1.
         -4    1    6    6    0  503  0.18690784499E+02  0.40188064172E+01 -0.30246935151E+02  0.35782304512E+02  0.00000000000E+00 0.  1.
<mgrwt>
<rscale>  0 0.37208185E+04</rscale>
<asrwt>0</asrwt>
<pdfrwt beam="1">  1        2 0.24430445E+00 0.37208185E+04</pdfrwt>
<pdfrwt beam="2">  1       -1 0.33531955E+00 0.37208185E+04</pdfrwt>
<totfact> 0.20207336E-01</totfact>
</mgrwt>
</event>
<event>
12    7  0.1735955E-007  0.3510800E+04  0.7818608E-02  0.8111235E-01
         -1   -1    0    0    0  501 -0.00000000000E+00  0.00000000000E+00  0.13034073165E+04  0.13034073165E+04  0.00000000000E+00 0.  1.
          2   -1    0    0  501    0  0.00000000000E+00 -0.00000000000E+00 -0.23641342734E+04  0.23641342734E+04  0.00000000000E+00 0. -1.
         24    2    1    2    0    0  0.61957429655E+03 -0.14112176018E+04  0.91794479639E+02  0.15460237529E+04  0.79723205692E+02 0.  0.
        254    2    1    2    0    0 -0.61957429655E+03  0.14112176018E+04 -0.11525214365E+04  0.21215178370E+04  0.89281848232E+03 0.  0.
         23    2    4    4    0    0  0.14693527745E+03  0.32349213288E+00 -0.96122530276E+02  0.19733654718E+03  0.90067150608E+02 0.  0.
         23    2    4    4    0    0 -0.76650957400E+03  0.14108941097E+04 -0.10563989062E+04  0.19241812898E+04  0.91300991997E+02 0.  0.
          2    1    3    3  502    0  0.82339697629E+02 -0.13298371381E+03 -0.49688739361E+00  0.15641208662E+03  0.00000000000E+00 0. -1.
         -1    1    3    3    0  502  0.53723459892E+03 -0.12782338880E+04  0.92291367032E+02  0.13896116663E+04  0.00000000000E+00 0.  1.
         13    1    5    5    0    0  0.62730825308E+02  0.16639240881E+02 -0.90521927908E+02  0.11138330312E+03  0.00000000000E+00 0.  1.
        -13    1    5    5    0    0  0.84204452143E+02 -0.16315748748E+02 -0.56006023686E+01  0.85953244062E+02  0.00000000000E+00 0. -1.
          1    1    6    6  503    0 -0.52627329402E+03  0.10530850779E+04 -0.76934557594E+03  0.14063585519E+04  0.00000000000E+00 0. -1.
         -1    1    6    6    0  503 -0.24023627998E+03  0.35780903175E+03 -0.28705333028E+03  0.51782273786E+03  0.00000000000E+00 0.  1.
<mgrwt>
<rscale>  0 0.35108004E+04</rscale>
<asrwt>0</asrwt>
<pdfrwt beam="1">  1        2 0.36371297E+00 0.35108004E+04</pdfrwt>
<pdfrwt beam="2">  1       -1 0.20052420E+00 0.35108004E+04</pdfrwt>
<totfact> 0.58050541E-01</totfact>
</mgrwt>
</event>
<event>
12    7  0.1735955E-007  0.2326358E+04  0.7818608E-02  0.8467600E-01
          2   -1    0    0  501    0  0.00000000000E+00  0.00000000000E+00  0.71549443670E+03  0.71549443670E+03  0.00000000000E+00 0. -1.
         -1   -1    0    0    0  501 -0.00000000000E+00 -0.00000000000E+00 -0.18909798556E+04  0.18909798556E+04  0.00000000000E+00 0.  1.
         24    2    1    2    0    0 -0.76219356775E+02  0.73550170258E+03  0.24530319168E+03  0.78317452180E+03  0.80103251581E+02 0.  0.
        254    2    1    2    0    0  0.76219356775E+02 -0.73550170258E+03 -0.14207886106E+04  0.18232997705E+04  0.87121158872E+03 0.  0.
         23    2    4    4    0    0 -0.29950170770E+02 -0.36572730544E+03 -0.13746991304E+04  0.14252960977E+04  0.83772265592E+02 0.  0.
         23    2    4    4    0    0  0.10616952755E+03 -0.36977439714E+03 -0.46089480229E+02  0.39800367279E+03  0.90981371757E+02 0.  0.
          2    1    3    3  502    0 -0.24518662126E+02  0.53780109749E+03  0.15899928677E+03  0.56134833967E+03  0.00000000000E+00 0. -1.
         -1    1    3    3    0  502 -0.51700694649E+02  0.19770060509E+03  0.86303904906E+02  0.22182618214E+03  0.00000000000E+00 0.  1.
         13    1    5    5    0    0 -0.23046098771E+02 -0.38948206566E+02 -0.10781991327E+03  0.11693254107E+03  0.00000000000E+00 0.  1.
        -13    1    5    5    0    0 -0.69040719991E+01 -0.32677909887E+03 -0.12668792171E+04  0.13083635567E+04  0.00000000000E+00 0. -1.
          2    1    6    6  503    0  0.29719815218E+02 -0.12989121759E+03 -0.59385176103E+02  0.14588212695E+03  0.00000000000E+00 0.  1.
         -2    1    6    6    0  503  0.76449712327E+02 -0.23988317955E+03  0.13295695875E+02  0.25212154584E+03  0.00000000000E+00 0. -1.
<mgrwt>
<rscale>  0 0.23263582E+04</rscale>
<asrwt>0</asrwt>
<pdfrwt beam="1">  1        2 0.11007607E+00 0.23263582E+04</pdfrwt>
<pdfrwt beam="2">  1       -1 0.29091997E+00 0.23263582E+04</pdfrwt>
<totfact> 0.15557394E+00</totfact>
</mgrwt>
</event>
<event>
12    7  0.1735955E-007  0.1580515E+04  0.7818608E-02  0.8832609E-01
          2   -1    0    0  501    0  0.00000000000E+00  0.00000000000E+00  0.20846249526E+04  0.20846249526E+04  0.00000000000E+00 0. -1.
         -1   -1    0    0    0  501 -0.00000000000E+00 -0.00000000000E+00 -0.29957747994E+03  0.29957747994E+03  0.00000000000E+00 0.  1.
         24    2    1    2    0    0  0.39949880945E+03  0.31456255314E+03  0.87847062861E+03  0.10174755171E+04  0.70688641315E+02 0.  0.
        254    2    1    2    0    0 -0.39949880945E+03 -0.31456255314E+03  0.90657684403E+03  0.13667269154E+04  0.88741872223E+03 0.  0.
         23    2    4    4    0    0  0.70693099449E+02  0.23775779852E+03  0.11143295228E+03  0.28657789056E+03  0.90461590953E+02 0.  0.
         23    2    4    4    0    0 -0.47019190890E+03 -0.55232035166E+03  0.79514389176E+03  0.10801490248E+04  0.91268314394E+02 0.  0.
          4    1    3    3  502    0  0.15608613996E+03  0.16345854998E+03  0.41671233308E+03  0.47405774879E+03  0.00000000000E+00 0. -1.
         -3    1    3    3    0  502  0.24341266949E+03  0.15110400316E+03  0.46175829553E+03  0.54341776832E+03  0.00000000000E+00 0.  1.
         13    1    5    5    0    0  0.26383169380E+02  0.65495684184E+02 -0.98505335655E+01  0.71293683344E+02  0.00000000000E+00 0.  1.
        -13    1    5    5    0    0  0.44309930069E+02  0.17226211434E+03  0.12128348584E+03  0.21528420722E+03  0.00000000000E+00 0. -1.
          2    1    6    6  503    0 -0.10838274849E+03 -0.96968614453E+02  0.11613101874E+03  0.18610788773E+03  0.00000000000E+00 0. -1.
         -2    1    6    6    0  503 -0.36180916041E+03 -0.45535173721E+03  0.67901287301E+03  0.89404113711E+03  0.00000000000E+00 0.  1.
<mgrwt>
<rscale>  0 0.15805147E+04</rscale>
<asrwt>0</asrwt>
<pdfrwt beam="1">  1        2 0.32071152E+00 0.15805147E+04</pdfrwt>
<pdfrwt beam="2">  1       -1 0.46088844E-01 0.15805147E+04</pdfrwt>
<totfact> 0.30713165E+01</totfact>
</mgrwt>
</event>
<event>
12    7  0.1735955E-007  0.2854683E+04  0.7818608E-02  0.8286490E-01
          2   -1    0    0  501    0  0.00000000000E+00  0.00000000000E+00  0.24621693567E+04  0.24621693567E+04  0.00000000000E+00 0. -1.
         -1   -1    0    0    0  501 -0.00000000000E+00 -0.00000000000E+00 -0.82744284422E+03  0.82744284422E+03  0.00000000000E+00 0.  1.
         24    2    1    2    0    0 -0.22980759434E+03  0.77523737119E+03  0.18884690750E+04  0.20558020723E+04  0.78754054444E+02 0.  0.
        254    2    1    2    0    0  0.22980759434E+03 -0.77523737119E+03 -0.25374256250E+03  0.12338101287E+04  0.89671491203E+03 0.  0.
         23    2    4    4    0    0 -0.24694725506E+03  0.31796283628E+02 -0.76433469062E+02  0.27550991129E+03  0.89831428777E+02 0.  0.
         23    2    4    4    0    0  0.47675484940E+03 -0.80703365482E+03 -0.17730909343E+03  0.95830021737E+03  0.91116878495E+02 0.  0.
          4    1    3    3  502    0 -0.22779666166E+03  0.76959852898E+03  0.18462379735E+04  0.20131487450E+04  0.00000000000E+00 0. -1.
         -3    1    3    3    0  502 -0.20109326829E+01  0.56388422179E+01  0.42231101468E+02  0.42653327221E+02  0.00000000000E+00 0.  1.
         13    1    5    5    0    0 -0.14209058726E+02  0.23603532303E+02 -0.24586715400E+02  0.36926016048E+02  0.00000000000E+00 0.  1.
        -13    1    5    5    0    0 -0.23273819633E+03  0.81927513255E+01 -0.51846753662E+02  0.23858389525E+03  0.00000000000E+00 0. -1.
          1    1    6    6  503    0  0.28302408478E+03 -0.50560830984E+03 -0.66460353137E+02  0.58323183562E+03  0.00000000000E+00 0. -1.
         -1    1    6    6    0  503  0.19373076462E+03 -0.30142534498E+03 -0.11084874030E+03  0.37506838174E+03  0.00000000000E+00 0.  1.
<mgrwt>
<rscale>  0 0.28546835E+04</rscale>
<asrwt>0</asrwt>
<pdfrwt beam="1">  1        2 0.37879528E+00 0.28546835E+04</pdfrwt>
<pdfrwt beam="2">  1       -1 0.12729890E+00 0.28546835E+04</pdfrwt>
<totfact> 0.19274086E+00</totfact>
</mgrwt>
</event>
<event>
12    7  0.1735955E-007  0.1376271E+04  0.7818608E-02  0.8971176E-01
          2   -1    0    0  501    0  0.00000000000E+00  0.00000000000E+00  0.14683571827E+04  0.14683571827E+04  0.00000000000E+00 0. -1.
         -1   -1    0    0    0  501 -0.00000000000E+00 -0.00000000000E+00 -0.32248990275E+03  0.32248990275E+03  0.00000000000E+00 0.  1.
         24    2    1    2    0    0  0.42971405767E+02  0.22994320170E+03  0.73018704368E+03  0.77088423588E+03  0.79805818396E+02 0.  0.
        254    2    1    2    0    0 -0.42971405767E+02 -0.22994320170E+03  0.41568023627E+03  0.10199628496E+04  0.90156183258E+03 0.  0.
         23    2    4    4    0    0 -0.29484045356E+03 -0.37620852123E+03  0.50551245840E+03  0.70193671617E+03  0.93319683916E+02 0.  0.
         23    2    4    4    0    0  0.25186904779E+03  0.14626531953E+03 -0.89832222138E+02  0.31802613340E+03  0.90770217897E+02 0.  0.
          2    1    3    3  502    0 -0.25800763299E+01  0.15924056221E+03  0.53850519382E+03  0.56156215793E+03  0.00000000000E+00 0. -1.
         -1    1    3    3    0  502  0.45551482097E+02  0.70702639497E+02  0.19168184985E+03  0.20932207795E+03  0.00000000000E+00 0.  1.
         13    1    5    5    0    0 -0.16941329048E+03 -0.23246741747E+03  0.23785732075E+03  0.37325335660E+03  0.00000000000E+00 0.  1.
        -13    1    5    5    0    0 -0.12542716307E+03 -0.14374110376E+03  0.26765513765E+03  0.32868335957E+03  0.00000000000E+00 0. -1.
          3    1    6    6  503    0  0.14980506418E+03  0.43023716829E+02 -0.72241555358E+02  0.17178893965E+03  0.00000000000E+00 0. -1.
         -3    1    6    6    0  503  0.10206398361E+03  0.10324160270E+03 -0.17590666780E+02  0.14623719375E+03  0.00000000000E+00 0.  1.
<mgrwt>
<rscale>  0 0.13762709E+04</rscale>
<asrwt>0</asrwt>
<pdfrwt beam="1">  1        2 0.22590110E+00 0.13762709E+04</pdfrwt>
<pdfrwt beam="2">  1       -1 0.49613832E-01 0.13762709E+04</pdfrwt>
<totfact> 0.59860475E+01</totfact>
</mgrwt>
</event>
<event>
12    7  0.1735955E-007  0.1436799E+04  0.7818608E-02  0.8927604E-01
          2   -1    0    0  501    0  0.00000000000E+00  0.00000000000E+00  0.14804640516E+04  0.14804640516E+04  0.00000000000E+00 0. -1.
         -1   -1    0    0    0  501 -0.00000000000E+00 -0.00000000000E+00 -0.34860564508E+03  0.34860564508E+03  0.00000000000E+00 0.  1.
         24    2    1    2    0    0  0.13606844866E+03  0.30488715881E+03  0.65768733425E+03  0.74196841786E+03  0.80583504127E+02 0.  0.
        254    2    1    2    0    0 -0.13606844866E+03 -0.30488715881E+03  0.47417107226E+03  0.10871012788E+04  0.91949996319E+03 0.  0.
         23    2    4    4    0    0  0.67391355175E+02  0.58848674863E+02  0.62117988170E+03  0.63397601047E+03  0.89757312387E+02 0.  0.
         23    2    4    4    0    0 -0.20345980383E+03 -0.36373583367E+03 -0.14700880945E+03  0.45312526835E+03  0.10005633557E+03 0.  0.
          2    1    3    3  502    0  0.87190895608E+02  0.17994059926E+03  0.47445759819E+03  0.51486977385E+03  0.00000000000E+00 0. -1.
         -1    1    3    3    0  502  0.48877553047E+02  0.12494655955E+03  0.18322973606E+03  0.22709864401E+03  0.00000000000E+00 0.  1.
         13    1    5    5    0    0  0.33222348663E+02 -0.17815350518E+02  0.28472928470E+03  0.28721399118E+03  0.00000000000E+00 0. -1.
        -13    1    5    5    0    0  0.34169006512E+02  0.76664025381E+02  0.33645059701E+03  0.34676201929E+03  0.00000000000E+00 0.  1.
          3    1    6    6  503    0 -0.18673067077E+03 -0.35256774966E+03 -0.15925654828E+03  0.42957538300E+03  0.00000000000E+00 0. -1.
         -3    1    6    6    0  503 -0.16729133062E+02 -0.11168084012E+02  0.12247738833E+02  0.23549885351E+02  0.00000000000E+00 0.  1.
<mgrwt>
<rscale>  0 0.14367994E+04</rscale>
<asrwt>0</asrwt>
<pdfrwt beam="1">  1        2 0.22776370E+00 0.14367994E+04</pdfrwt>
<pdfrwt beam="2">  1       -1 0.53631638E-01 0.14367994E+04</pdfrwt>
<totfact> 0.50526726E+01</totfact>
</mgrwt>
</event>
<event>
12    7  0.1735955E-007  0.3022149E+04  0.7818608E-02  0.8237434E-01
         -1   -1    0    0    0  501 -0.00000000000E+00  0.00000000000E+00  0.17533092493E+04  0.17533092493E+04  0.00000000000E+00 0.  1.
          2   -1    0    0  501    0  0.00000000000E+00 -0.00000000000E+00 -0.13023062646E+04  0.13023062646E+04  0.00000000000E+00 0. -1.
         24    2    1    2    0    0 -0.30726705214E+03  0.67484082856E+03  0.13659632744E+04  0.15562482728E+04  0.78929298824E+02 0.  0.
        254    2    1    2    0    0  0.30726705214E+03 -0.67484082856E+03 -0.91496028975E+03  0.14993672412E+04  0.92796907646E+03 0.  0.
         23    2    4    4    0    0  0.60102649809E+02 -0.34707787832E+03 -0.10049821407E+04  0.10693491928E+04  0.97176184748E+02 0.  0.
         23    2    4    4    0    0  0.24716440233E+03 -0.32776295024E+03  0.90021850974E+02  0.43001804835E+03  0.91064784223E+02 0.  0.
          4    1    3    3  502    0 -0.43124864663E+02  0.73454802409E+02  0.21150472179E+03  0.22801230074E+03  0.00000000000E+00 0. -1.
         -3    1    3    3    0  502 -0.26414218747E+03  0.60138602615E+03  0.11544585526E+04  0.13282359720E+04  0.00000000000E+00 0.  1.
         13    1    5    5    0    0  0.23929153376E+01  0.63794434654E+01 -0.12655699187E+02  0.14373241271E+02  0.00000000000E+00 0. -1.
        -13    1    5    5    0    0  0.57709734472E+02 -0.35345732179E+03 -0.99232644154E+03  0.10549759516E+04  0.00000000000E+00 0.  1.
          3    1    6    6  503    0  0.90627626188E+01 -0.13794215124E+02 -0.14912074171E+02  0.22243740541E+02  0.00000000000E+00 0. -1.
         -3    1    6    6    0  503  0.23810163971E+03 -0.31396873511E+03  0.10493392515E+03  0.40777430781E+03  0.00000000000E+00 0.  1.
<mgrwt>
<rscale>  0 0.30221487E+04</rscale>
<asrwt>0</asrwt>
<pdfrwt beam="1">  1        2 0.20035481E+00 0.30221487E+04</pdfrwt>
<pdfrwt beam="2">  1       -1 0.26973988E+00 0.30221487E+04</pdfrwt>
<totfact> 0.83193699E-01</totfact>
</mgrwt>
</event>
<event>
12    7  0.1735955E-007  0.2696588E+04  0.7818608E-02  0.8336113E-01
         -1   -1    0    0    0  501 -0.00000000000E+00  0.00000000000E+00  0.17913359549E+04  0.17913359549E+04  0.00000000000E+00 0.  1.
          2   -1    0    0  501    0  0.00000000000E+00 -0.00000000000E+00 -0.10148275797E+04  0.10148275797E+04  0.00000000000E+00 0. -1.
         24    2    1    2    0    0 -0.74035142963E+03  0.31797201672E+03 -0.57093539293E+03  0.99071971950E+03  0.79573217450E+02 0.  0.
        254    2    1    2    0    0  0.74035142963E+03 -0.31797201672E+03  0.13474437680E+04  0.18154438151E+04  0.91159480859E+03 0.  0.
         23    2    4    4    0    0 -0.10457782423E+03  0.13990978718E+03  0.47349198185E+03  0.51330811178E+03  0.93697870197E+02 0.  0.
         23    2    4    4    0    0  0.84492925385E+03 -0.45788180390E+03  0.87395178619E+03  0.13021357033E+04  0.90578556758E+02 0.  0.
          4    1    3    3  502    0 -0.31348159784E+03  0.95295124763E+02 -0.21318097472E+03  0.39089384873E+03  0.00000000000E+00 0. -1.
         -3    1    3    3    0  502 -0.42686983179E+03  0.22267689196E+03 -0.35775441820E+03  0.59982587077E+03  0.00000000000E+00 0.  1.
         13    1    5    5    0    0 -0.90048178911E+02  0.10872454241E+03  0.24933961593E+03  0.28653087917E+03  0.00000000000E+00 0.  1.
        -13    1    5    5    0    0 -0.14529645315E+02  0.31185244773E+02  0.22415236591E+03  0.22677723261E+03  0.00000000000E+00 0. -1.
          3    1    6    6  503    0  0.45105022041E+03 -0.20299914938E+03  0.41222416613E+03  0.64388175865E+03  0.00000000000E+00 0. -1.
         -3    1    6    6    0  503  0.39387903345E+03 -0.25488265452E+03  0.46172762006E+03  0.65825394468E+03  0.00000000000E+00 0.  1.
<mgrwt>
<rscale>  0 0.26965883E+04</rscale>
<asrwt>0</asrwt>
<pdfrwt beam="1">  1        2 0.15612732E+00 0.26965883E+04</pdfrwt>
<pdfrwt beam="2">  1       -1 0.27559015E+00 0.26965883E+04</pdfrwt>
<totfact> 0.11715978E+00</totfact>
</mgrwt>
</event>
<event>
12    7  0.1735955E-007  0.1900962E+04  0.7818608E-02  0.8654378E-01
          2   -1    0    0  501    0  0.00000000000E+00  0.00000000000E+00  0.10902961730E+04  0.10902961730E+04  0.00000000000E+00 0. -1.
         -1   -1    0    0    0  501 -0.00000000000E+00 -0.00000000000E+00 -0.82859544569E+03  0.82859544569E+03  0.00000000000E+00 0.  1.
         24    2    1    2    0    0 -0.44919941401E+03 -0.44967916612E+03  0.46558135001E+03  0.79189707035E+03  0.79646158520E+02 0.  0.
        254    2    1    2    0    0  0.44919941401E+03  0.44967916612E+03 -0.20388062273E+03  0.11269945483E+04  0.90805172629E+03 0.  0.
         23    2    4    4    0    0  0.51096671039E+03  0.62894318300E+03  0.25159250634E+02  0.81587919497E+03  0.91484240879E+02 0.  0.
         23    2    4    4    0    0 -0.61767296383E+02 -0.17926401688E+03 -0.22903987336E+03  0.31111535334E+03  0.91557156171E+02 0.  0.
          2    1    3    3  502    0 -0.45000321938E+03 -0.43819165503E+03  0.45067472258E+03  0.77306049541E+03  0.00000000000E+00 0. -1.
         -1    1    3    3    0  502  0.80380537645E+00 -0.11487511093E+02  0.14906627428E+02  0.18836574940E+02  0.00000000000E+00 0.  1.
         13    1    5    5    0    0  0.56295671832E+02  0.37174970143E+02  0.16980946624E+02  0.69566756575E+02  0.00000000000E+00 0. -1.
        -13    1    5    5    0    0  0.45467103856E+03  0.59176821286E+03  0.81783040097E+01  0.74631243840E+03  0.00000000000E+00 0.  1.
          4    1    6    6  503    0 -0.34836265713E+02 -0.14874022677E+03 -0.11855835622E+03  0.19337348396E+03  0.00000000000E+00 0.  1.
         -4    1    6    6    0  503 -0.26931030670E+02 -0.30523790102E+02 -0.11048151714E+03  0.11774186938E+03  0.00000000000E+00 0. -1.
<mgrwt>
<rscale>  0 0.19009623E+04</rscale>
<asrwt>0</asrwt>
<pdfrwt beam="1">  1        2 0.16773787E+00 0.19009623E+04</pdfrwt>
<pdfrwt beam="2">  1       -1 0.12747622E+00 0.19009623E+04</pdfrwt>
<totfact> 0.12572818E+01</totfact>
</mgrwt>
</event>
<event>
12    7  0.1735955E-007  0.1742553E+04  0.7818608E-02  0.8737460E-01
          2   -1    0    0  501    0  0.00000000000E+00  0.00000000000E+00  0.11265925899E+04  0.11265925899E+04  0.00000000000E+00 0. -1.
         -1   -1    0    0    0  501 -0.00000000000E+00 -0.00000000000E+00 -0.67382206041E+03  0.67382206041E+03  0.00000000000E+00 0.  1.
         24    2    1    2    0    0 -0.32368239589E+03 -0.42793544694E+03 -0.18756345361E+03  0.57403196806E+03  0.80209794090E+02 0.  0.
        254    2    1    2    0    0  0.32368239589E+03  0.42793544694E+03  0.64033398310E+03  0.12263826823E+04  0.89782394336E+03 0.  0.
         23    2    4    4    0    0  0.18037170783E+03 -0.26150542858E+03  0.14957795796E+03  0.36296177544E+03  0.91916498853E+02 0.  0.
         23    2    4    4    0    0  0.14331068806E+03  0.68944087552E+03  0.49075602514E+03  0.86342090682E+03  0.93741730125E+02 0.  0.
          2    1    3    3  502    0 -0.50418327319E+02 -0.41461967783E+02 -0.46464332383E+02  0.80125131425E+02  0.00000000000E+00 0. -1.
         -1    1    3    3    0  502 -0.27326406857E+03 -0.38647347916E+03 -0.14109912123E+03  0.49390683664E+03  0.00000000000E+00 0.  1.
         13    1    5    5    0    0  0.11286875691E+03 -0.20457201581E+03  0.14405416223E+03  0.27448254516E+03  0.00000000000E+00 0. -1.
        -13    1    5    5    0    0  0.67502950925E+02 -0.56933412765E+02  0.55237957337E+01  0.88479230286E+02  0.00000000000E+00 0.  1.
          4    1    6    6  503    0  0.15648967098E+03  0.60598282342E+03  0.42958256437E+03  0.75910827884E+03  0.00000000000E+00 0. -1.
         -4    1    6    6    0  503 -0.13178982923E+02  0.83458052102E+02  0.61173460773E+02  0.10431262797E+03  0.00000000000E+00 0.  1.
<mgrwt>
<rscale>  0 0.17425532E+04</rscale>
<asrwt>0</asrwt>
<pdfrwt beam="1">  1        2 0.17332194E+00 0.17425532E+04</pdfrwt>
<pdfrwt beam="2">  1       -1 0.10366493E+00 0.17425532E+04</pdfrwt>
<totfact> 0.19907141E+01</totfact>
</mgrwt>
</event>
<event>
12    7  0.1735955E-007  0.2191850E+04  0.7818608E-02  0.8521828E-01
         -1   -1    0    0    0  501 -0.00000000000E+00  0.00000000000E+00  0.89490423864E+03  0.89490423864E+03  0.00000000000E+00 0.  1.
          2   -1    0    0  501    0  0.00000000000E+00 -0.00000000000E+00 -0.13421006235E+04  0.13421006235E+04  0.00000000000E+00 0. -1.
         24    2    1    2    0    0  0.38417241400E+03  0.19341016117E+03 -0.10051684670E+04  0.10952039361E+04  0.64125504150E+02 0.  0.
        254    2    1    2    0    0 -0.38417241400E+03 -0.19341016117E+03  0.55797208222E+03  0.11418009261E+04  0.89854358607E+03 0.  0.
         23    2    4    4    0    0 -0.55490202274E+03 -0.39444857183E+03  0.51607641996E+03  0.85901679868E+03  0.89827938370E+02 0.  0.
         23    2    4    4    0    0  0.17072960874E+03  0.20103841067E+03  0.41895662260E+02  0.28278412737E+03  0.92986957772E+02 0.  0.
          2    1    3    3  502    0  0.31607706931E+03  0.15174159001E+03 -0.75142394404E+03  0.82919730315E+03  0.00000000000E+00 0. -1.
         -1    1    3    3    0  502  0.68095344691E+02  0.41668571152E+02 -0.25374452300E+03  0.26600663290E+03  0.00000000000E+00 0.  1.
         13    1    5    5    0    0 -0.36588971796E+03 -0.22063841335E+03  0.28521523459E+03  0.51371619130E+03  0.00000000000E+00 0. -1.
        -13    1    5    5    0    0 -0.18901230477E+03 -0.17381015848E+03  0.23086118537E+03  0.34530060738E+03  0.00000000000E+00 0.  1.
          2    1    6    6  503    0  0.15968809981E+03  0.18187306840E+03  0.65196966176E+02  0.25065663093E+03  0.00000000000E+00 0. -1.
         -2    1    6    6    0  503  0.11041508925E+02  0.19165342269E+02 -0.23301303917E+02  0.32127496445E+02  0.00000000000E+00 0.  1.
<mgrwt>
<rscale>  0 0.21918499E+04</rscale>
<asrwt>0</asrwt>
<pdfrwt beam="1">  1        2 0.20647702E+00 0.21918499E+04</pdfrwt>
<pdfrwt beam="2">  1       -1 0.13767758E+00 0.21918499E+04</pdfrwt>
<totfact> 0.71321434E+00</totfact>
</mgrwt>
</event>
<event>
12    7  0.1735955E-007  0.1578389E+04  0.7818608E-02  0.8833935E-01
         -1   -1    0    0    0  501 -0.00000000000E+00  0.00000000000E+00  0.60614485305E+03  0.60614485305E+03  0.00000000000E+00 0.  1.
          2   -1    0    0  501    0  0.00000000000E+00 -0.00000000000E+00 -0.10275237502E+04  0.10275237502E+04  0.00000000000E+00 0. -1.
         24    2    1    2    0    0  0.32176322956E+03 -0.39558924662E+03 -0.32263350890E+03  0.60842186257E+03  0.77861118919E+02 0.  0.
        254    2    1    2    0    0 -0.32176322956E+03  0.39558924662E+03 -0.98745388254E+02  0.10252467407E+04  0.88394445507E+03 0.  0.
         23    2    4    4    0    0  0.26509291270E+02  0.56117190079E+03  0.10566940467E+03  0.57932228513E+03  0.93976817412E+02 0.  0.
         23    2    4    4    0    0 -0.34827252084E+03 -0.16558265417E+03 -0.20441479292E+03  0.44592445556E+03  0.91388447672E+02 0.  0.
          2    1    3    3  502    0  0.20059374895E+03 -0.21579499218E+03 -0.22460991490E+03  0.37047934442E+03  0.00000000000E+00 0. -1.
         -1    1    3    3    0  502  0.12116948062E+03 -0.17979425444E+03 -0.98023594003E+02  0.23794251815E+03  0.00000000000E+00 0.  1.
         13    1    5    5    0    0  0.15755422182E+02  0.13434841013E+02 -0.26476046474E+01  0.20874340506E+02  0.00000000000E+00 0. -1.
        -13    1    5    5    0    0  0.10753869089E+02  0.54773705978E+03  0.10831700931E+03  0.55844794463E+03  0.00000000000E+00 0.  1.
          3    1    6    6  503    0 -0.11087495533E+03 -0.33532617981E+02 -0.19895065894E+02  0.11753087184E+03  0.00000000000E+00 0. -1.
         -3    1    6    6    0  503 -0.23739756550E+03 -0.13205003619E+03 -0.18451972703E+03  0.32839358372E+03  0.00000000000E+00 0.  1.
<mgrwt>
<rscale>  0 0.15783893E+04</rscale>
<asrwt>0</asrwt>
<pdfrwt beam="1">  1        2 0.15808058E+00 0.15783893E+04</pdfrwt>
<pdfrwt beam="2">  1       -1 0.93253055E-01 0.15783893E+04</pdfrwt>
<totfact> 0.29592409E+01</totfact>
</mgrwt>
</event>
<event>
12    7  0.1735955E-007  0.1861894E+04  0.7818608E-02  0.8674060E-01
          2   -1    0    0  501    0  0.00000000000E+00  0.00000000000E+00  0.13028404433E+04  0.13028404433E+04  0.00000000000E+00 0. -1.
         -1   -1    0    0    0  501 -0.00000000000E+00 -0.00000000000E+00 -0.66520959982E+03  0.66520959982E+03  0.00000000000E+00 0.  1.
         24    2    1    2    0    0  0.27915698925E+03  0.49253398643E+03  0.68776678420E+03  0.89436066344E+03  0.79620942057E+02 0.  0.
        254    2    1    2    0    0 -0.27915698925E+03 -0.49253398643E+03 -0.50135940767E+02  0.10736893796E+04  0.91092091806E+03 0.  0.
         23    2    4    4    0    0 -0.48662656307E+03 -0.60553162162E+03 -0.15898246017E+03  0.79817468949E+03  0.91287762823E+02 0.  0.
         23    2    4    4    0    0  0.20746957381E+03  0.11299763519E+03  0.10884651940E+03  0.27551469015E+03  0.90822299503E+02 0.  0.
          4    1    3    3  502    0  0.26861843356E+03  0.46374623222E+03  0.67304689187E+03  0.86035373504E+03  0.00000000000E+00 0. -1.
         -3    1    3    3    0  502  0.10538555693E+02  0.28787754212E+02  0.14719892335E+02  0.34006928398E+02  0.00000000000E+00 0.  1.
         13    1    5    5    0    0 -0.14519213966E+02 -0.29543232917E+02 -0.25317063432E+02  0.41527868789E+02  0.00000000000E+00 0.  1.
        -13    1    5    5    0    0 -0.47210734910E+03 -0.57598838871E+03 -0.13366539674E+03  0.75664682070E+03  0.00000000000E+00 0. -1.
          3    1    6    6  503    0  0.90478462545E+02  0.76013203014E+02  0.11193412388E+02  0.11869983866E+03  0.00000000000E+00 0. -1.
         -3    1    6    6    0  503  0.11699111127E+03  0.36984432175E+02  0.97653107014E+02  0.15681485149E+03  0.00000000000E+00 0.  1.
<mgrwt>
<rscale>  0 0.18618936E+04</rscale>
<asrwt>0</asrwt>
<pdfrwt beam="1">  1        2 0.20043699E+00 0.18618936E+04</pdfrwt>
<pdfrwt beam="2">  1       -1 0.10233994E+00 0.18618936E+04</pdfrwt>
<totfact> 0.15937750E+01</totfact>
</mgrwt>
</event>
<event>
12    7  0.1735955E-007  0.3203259E+04  0.7818608E-02  0.8187957E-01
          2   -1    0    0  501    0  0.00000000000E+00  0.00000000000E+00  0.31812991483E+04  0.31812991483E+04  0.00000000000E+00 0. -1.
         -1   -1    0    0    0  501 -0.00000000000E+00 -0.00000000000E+00 -0.80634256847E+03  0.80634256847E+03  0.00000000000E+00 0.  1.
         24    2    1    2    0    0  0.46614138737E+03 -0.13831978064E+04  0.13424651659E+04  0.19847025967E+04  0.79421097406E+02 0.  0.
        254    2    1    2    0    0 -0.46614138737E+03  0.13831978064E+04  0.10324914139E+04  0.20029391201E+04  0.90288572612E+03 0.  0.
         23    2    4    4    0    0 -0.13596113424E+03  0.97742494975E+03  0.19308815032E+03  0.10097718725E+04  0.92256372265E+02 0.  0.
         23    2    4    4    0    0 -0.33018025313E+03  0.40577285667E+03  0.83940326354E+03  0.99316724762E+03  0.90070706428E+02 0.  0.
          2    1    3    3  502    0  0.36055736552E+03 -0.11139396236E+04  0.10370537799E+04  0.15640791672E+04  0.00000000000E+00 0. -1.
         -1    1    3    3    0  502  0.10558402185E+03 -0.26925818281E+03  0.30541138607E+03  0.42062342947E+03  0.00000000000E+00 0.  1.
         13    1    5    5    0    0  0.14017942407E+02  0.94785121206E+02  0.16300204683E+02  0.97192687914E+02  0.00000000000E+00 0. -1.
        -13    1    5    5    0    0 -0.14997907665E+03  0.88263982854E+03  0.17678794564E+03  0.91257918456E+03  0.00000000000E+00 0.  1.
          3    1    6    6  503    0 -0.65805387645E+02  0.39449071340E+02  0.91470262380E+02  0.11938755032E+03  0.00000000000E+00 0. -1.
         -3    1    6    6    0  503 -0.26437486548E+03  0.36632378533E+03  0.74793300116E+03  0.87377969730E+03  0.00000000000E+00 0.  1.
<mgrwt>
<rscale>  0 0.32032589E+04</rscale>
<asrwt>0</asrwt>
<pdfrwt beam="1">  1        2 0.48943063E+00 0.32032589E+04</pdfrwt>
<pdfrwt beam="2">  1       -1 0.12405271E+00 0.32032589E+04</pdfrwt>
<totfact> 0.72657148E-01</totfact>
</mgrwt>
</event>
<event>
12    7  0.1735955E-007  0.2058663E+04  0.7818608E-02  0.8579675E-01
          2   -1    0    0  501    0  0.00000000000E+00  0.00000000000E+00  0.12545520989E+04  0.12545520989E+04  0.00000000000E+00 0. -1.
         -1   -1    0    0    0  501 -0.00000000000E+00 -0.00000000000E+00 -0.84454280852E+03  0.84454280852E+03  0.00000000000E+00 0.  1.
         24    2    1    2    0    0 -0.77119581604E+03  0.95160906720E+02 -0.14038754615E+03  0.79370075407E+03  0.80334544554E+02 0.  0.
        254    2    1    2    0    0  0.77119581604E+03 -0.95160906720E+02  0.55039683650E+03  0.13053941533E+04  0.89292700318E+03 0.  0.
         23    2    4    4    0    0 -0.53793969732E+02  0.54559494840E+02 -0.16208980157E+03  0.20083919933E+03  0.90513814170E+02 0.  0.
         23    2    4    4    0    0  0.82498978578E+03 -0.14972040156E+03  0.71248663807E+03  0.11045549540E+04  0.96850873290E+02 0.  0.
          2    1    3    3  502    0 -0.18534716267E+03  0.56320711605E+02 -0.44919334202E+02  0.19885507247E+03  0.00000000000E+00 0. -1.
         -1    1    3    3    0  502 -0.58584865338E+03  0.38840195115E+02 -0.95468211948E+02  0.59484568160E+03  0.00000000000E+00 0.  1.
         13    1    5    5    0    0 -0.44940341079E+02  0.27152191748E+02 -0.16377722747E+03  0.17198795309E+03  0.00000000000E+00 0.  1.
        -13    1    5    5    0    0 -0.88536286533E+01  0.27407303092E+02  0.16874258922E+01  0.28851246234E+02  0.00000000000E+00 0. -1.
          3    1    6    6  503    0  0.22356404507E+03 -0.15392262272E+02  0.14569466207E+03  0.26729148610E+03  0.00000000000E+00 0.  1.
         -3    1    6    6    0  503  0.60142574071E+03 -0.13432813929E+03  0.56679197600E+03  0.83726346788E+03  0.00000000000E+00 0. -1.
<mgrwt>
<rscale>  0 0.20586626E+04</rscale>
<asrwt>0</asrwt>
<pdfrwt beam="1">  1        2 0.19300802E+00 0.20586626E+04</pdfrwt>
<pdfrwt beam="2">  1       -1 0.12992966E+00 0.20586626E+04</pdfrwt>
<totfact> 0.94105497E+00</totfact>
</mgrwt>
</event>
<event>
12    7  0.1735955E-007  0.2882587E+04  0.7818608E-02  0.8278077E-01
          2   -1    0    0  501    0  0.00000000000E+00  0.00000000000E+00  0.21858871534E+04  0.21858871534E+04  0.00000000000E+00 0. -1.
         -1   -1    0    0    0  501 -0.00000000000E+00 -0.00000000000E+00 -0.95033563336E+03  0.95033563336E+03  0.00000000000E+00 0.  1.
         24    2    1    2    0    0  0.46768291202E+03 -0.31334636352E+03 -0.71699257892E+03  0.91520862166E+03  0.81333961038E+02 0.  0.
        254    2    1    2    0    0 -0.46768291202E+03  0.31334636352E+03  0.19525440989E+04  0.22210141651E+04  0.89641631704E+03 0.  0.
         23    2    4    4    0    0 -0.71977093841E+03  0.31384047016E+03  0.14606708013E+04  0.16608444649E+04  0.90989572318E+02 0.  0.
         23    2    4    4    0    0  0.25208802639E+03 -0.49410664318E+00  0.49187329762E+03  0.56016970018E+03  0.91116051801E+02 0.  0.
          4    1    3    3  502    0  0.63057589196E+02 -0.21262209596E+02 -0.55891113280E+02  0.86903151012E+02  0.00000000000E+00 0. -1.
         -1    1    3    3    0  502  0.40462532283E+03 -0.29208415392E+03 -0.66110146564E+03  0.82830547065E+03  0.00000000000E+00 0.  1.
         13    1    5    5    0    0 -0.64800634857E+02  0.52922743025E+02  0.19194584419E+03  0.20938755003E+03  0.00000000000E+00 0. -1.
        -13    1    5    5    0    0 -0.65497030356E+03  0.26091772713E+03  0.12687249571E+04  0.14514569148E+04  0.00000000000E+00 0.  1.
          2    1    6    6  503    0  0.87199950870E+02 -0.16993099339E+02  0.26303245391E+03  0.27763045342E+03  0.00000000000E+00 0. -1.
         -2    1    6    6    0  503  0.16488807552E+03  0.16498992696E+02  0.22884084372E+03  0.28253924676E+03  0.00000000000E+00 0.  1.
<mgrwt>
<rscale>  0 0.28825867E+04</rscale>
<asrwt>0</asrwt>
<pdfrwt beam="1">  1        2 0.33629033E+00 0.28825867E+04</pdfrwt>
<pdfrwt beam="2">  1       -1 0.14620548E+00 0.28825867E+04</pdfrwt>
<totfact> 0.19317701E+00</totfact>
</mgrwt>
</event>
<event>
12    7  0.1735955E-007  0.1923294E+04  0.7818608E-02  0.8643348E-01
         -1   -1    0    0    0  501 -0.00000000000E+00  0.00000000000E+00  0.38224623227E+03  0.38224623227E+03  0.00000000000E+00 0.  1.
          2   -1    0    0  501    0  0.00000000000E+00 -0.00000000000E+00 -0.24192913550E+04  0.24192913550E+04  0.00000000000E+00 0. -1.
         24    2    1    2    0    0 -0.64804092580E+03 -0.31138452786E+03 -0.49165492698E+03  0.87448430432E+03  0.77979905018E+02 0.  0.
        254    2    1    2    0    0  0.64804092580E+03  0.31138452786E+03 -0.15453901957E+04  0.19270532829E+04  0.89910295986E+03 0.  0.
         23    2    4    4    0    0  0.72609111594E+03 -0.83245483040E+02 -0.99857912994E+03  0.12406609281E+04  0.89113078483E+02 0.  0.
         23    2    4    4    0    0 -0.78050190138E+02  0.39463001090E+03 -0.54681106578E+03  0.68639235477E+03  0.10152558960E+03 0.  0.
          2    1    3    3  502    0 -0.52750975747E+03 -0.23591263639E+03 -0.36090999646E+03  0.68130561555E+03  0.00000000000E+00 0. -1.
         -1    1    3    3    0  502 -0.12053116833E+03 -0.75471891471E+02 -0.13074493051E+03  0.19317868877E+03  0.00000000000E+00 0.  1.
         13    1    5    5    0    0  0.92831386100E+02  0.16330036980E+02 -0.15021581568E+03  0.17733901892E+03  0.00000000000E+00 0.  1.
        -13    1    5    5    0    0  0.63325972984E+03 -0.99575520020E+02 -0.84836331426E+03  0.10633219092E+04  0.00000000000E+00 0. -1.
          1    1    6    6  503    0 -0.91554452638E+02  0.24032403749E+03 -0.37905677918E+03  0.45806320813E+03  0.00000000000E+00 0. -1.
         -1    1    6    6    0  503  0.13504262500E+02  0.15430597341E+03 -0.16775428659E+03  0.22832914664E+03  0.00000000000E+00 0.  1.
<mgrwt>
<rscale>  0 0.19232941E+04</rscale>
<asrwt>0</asrwt>
<pdfrwt beam="1">  1        2 0.37219867E+00 0.19232941E+04</pdfrwt>
<pdfrwt beam="2">  1       -1 0.58807112E-01 0.19232941E+04</pdfrwt>
<totfact> 0.12093868E+01</totfact>
</mgrwt>
</event>
<event>
12    7  0.1735955E-007  0.1682094E+04  0.7818608E-02  0.8771643E-01
         -1   -1    0    0    0  501 -0.00000000000E+00  0.00000000000E+00  0.16138792891E+04  0.16138792891E+04  0.00000000000E+00 0.  1.
          2   -1    0    0  501    0  0.00000000000E+00 -0.00000000000E+00 -0.43829791206E+03  0.43829791206E+03  0.00000000000E+00 0. -1.
         24    2    1    2    0    0  0.10041852526E+03  0.22826582158E+03  0.10756442713E+04  0.11070132047E+04  0.79236805813E+02 0.  0.
        254    2    1    2    0    0 -0.10041852526E+03 -0.22826582158E+03  0.99937105729E+02  0.94516399648E+03  0.90617790176E+03 0.  0.
         23    2    4    4    0    0 -0.27099971937E+03  0.22311179397E+03  0.23944095265E+03  0.43451184280E+03  0.90823186600E+02 0.  0.
         23    2    4    4    0    0  0.17058119410E+03 -0.45137761554E+03 -0.13950384692E+03  0.51065215368E+03  0.92003277965E+02 0.  0.
          4    1    3    3  502    0  0.51222915429E+02  0.43659239582E+02  0.20937494618E+03  0.21992677043E+03  0.00000000000E+00 0. -1.
         -3    1    3    3    0  502  0.49195609835E+02  0.18460658199E+03  0.86626932516E+03  0.88708643427E+03  0.00000000000E+00 0.  1.
         13    1    5    5    0    0 -0.14338679433E+02  0.25852178454E+02  0.53705458481E+02  0.61304234187E+02  0.00000000000E+00 0. -1.
        -13    1    5    5    0    0 -0.25666103994E+03  0.19725961551E+03  0.18573549417E+03  0.37320760862E+03  0.00000000000E+00 0.  1.
          2    1    6    6  503    0  0.31627471507E+00 -0.10710899103E+03 -0.33321511359E+02  0.11217289828E+03  0.00000000000E+00 0. -1.
         -2    1    6    6    0  503  0.17026491939E+03 -0.34426862451E+03 -0.10618233556E+03  0.39847925540E+03  0.00000000000E+00 0.  1.
<mgrwt>
<rscale>  0 0.16820938E+04</rscale>
<asrwt>0</asrwt>
<pdfrwt beam="1">  1        2 0.67430449E-01 0.16820938E+04</pdfrwt>
<pdfrwt beam="2">  1       -1 0.24828912E+00 0.16820938E+04</pdfrwt>
<totfact> 0.55878362E+00</totfact>
</mgrwt>
</event>
<event>
12    7  0.1735955E-007  0.2555269E+04  0.7818608E-02  0.8383556E-01
          2   -1    0    0  501    0  0.00000000000E+00  0.00000000000E+00  0.26679250060E+04  0.26679250060E+04  0.00000000000E+00 0. -1.
         -1   -1    0    0    0  501 -0.00000000000E+00 -0.00000000000E+00 -0.61184240268E+03  0.61184240268E+03  0.00000000000E+00 0.  1.
         24    2    1    2    0    0 -0.98777019383E+03  0.11482950271E+03  0.15052153384E+04  0.18064896575E+04  0.94105776919E+02 0.  0.
        254    2    1    2    0    0  0.98777019383E+03 -0.11482950271E+03  0.55086726498E+03  0.14732777512E+04  0.93713223084E+03 0.  0.
         23    2    4    4    0    0  0.65001554169E+03  0.88076345126E+02 -0.13490047171E+03  0.67715415657E+03  0.10030935895E+03 0.  0.
         23    2    4    4    0    0  0.33775465214E+03 -0.20290584783E+03  0.68576773669E+03  0.79612359464E+03  0.91029671632E+02 0.  0.
          4    1    3    3  502    0 -0.64822242413E+03  0.11244883601E+03  0.94673076983E+03  0.11528816949E+04  0.00000000000E+00 0. -1.
         -3    1    3    3    0  502 -0.33954776970E+03  0.23806667001E+01  0.55848456854E+03  0.65360796260E+03  0.00000000000E+00 0.  1.
         13    1    5    5    0    0  0.64973094697E+02 -0.25077138402E+01  0.14416620952E+02  0.66600530200E+02  0.00000000000E+00 0. -1.
        -13    1    5    5    0    0  0.58504244699E+03  0.90584058966E+02 -0.14931709267E+03  0.61055362637E+03  0.00000000000E+00 0.  1.
          3    1    6    6  503    0  0.28919819486E+02  0.38131883890E+01  0.83239865274E+02  0.88203013189E+02  0.00000000000E+00 0. -1.
         -3    1    6    6    0  503  0.30883483266E+03 -0.20671903622E+03  0.60252787142E+03  0.70792058145E+03  0.00000000000E+00 0.  1.
<mgrwt>
<rscale>  0 0.25552688E+04</rscale>
<asrwt>0</asrwt>
<pdfrwt beam="1">  1        2 0.41044999E+00 0.25552688E+04</pdfrwt>
<pdfrwt beam="2">  1       -1 0.94129602E-01 0.25552688E+04</pdfrwt>
<totfact> 0.30617753E+00</totfact>
</mgrwt>
</event>
<event>
12    7  0.1735955E-007  0.1257716E+04  0.7818608E-02  0.9063786E-01
         -1   -1    0    0    0  501 -0.00000000000E+00  0.00000000000E+00  0.28743087937E+03  0.28743087937E+03  0.00000000000E+00 0.  1.
          2   -1    0    0  501    0  0.00000000000E+00 -0.00000000000E+00 -0.13758523026E+04  0.13758523026E+04  0.00000000000E+00 0. -1.
         24    2    1    2    0    0  0.54735702047E+02  0.50474514077E+02  0.10553031774E+03  0.15096589778E+03  0.78168924016E+02 0.  0.
        254    2    1    2    0    0 -0.54735702047E+02 -0.50474514077E+02 -0.11939517410E+04  0.15123172842E+04  0.92522382948E+03 0.  0.
         23    2    4    4    0    0 -0.31871116377E+03 -0.90214038167E+02 -0.64719412755E+02  0.34897519823E+03  0.88767719323E+02 0.  0.
         23    2    4    4    0    0  0.26397546172E+03  0.39739524089E+02 -0.11292323283E+04  0.11633420860E+04  0.83287956536E+02 0.  0.
          2    1    3    3  502    0 -0.58091716684E+01 -0.74586310761E+01  0.48952730290E+02  0.49857270842E+02  0.00000000000E+00 0. -1.
         -1    1    3    3    0  502  0.60544873715E+02  0.57933145154E+02  0.56577587450E+02  0.10110862694E+03  0.00000000000E+00 0.  1.
         13    1    5    5    0    0 -0.23113202756E+03 -0.45881684841E+02 -0.83696402072E+01  0.23579057243E+03  0.00000000000E+00 0.  1.
        -13    1    5    5    0    0 -0.87579136210E+02 -0.44332353326E+02 -0.56349772548E+02  0.11318462580E+03  0.00000000000E+00 0. -1.
          3    1    6    6  503    0  0.17520563493E+02  0.32823284979E+01 -0.21606509544E+03  0.21679914504E+03  0.00000000000E+00 0. -1.
         -3    1    6    6    0  503  0.24645489823E+03  0.36457195591E+02 -0.91316723281E+03  0.94654294095E+03  0.00000000000E+00 0.  1.
<mgrwt>
<rscale>  0 0.12577161E+04</rscale>
<asrwt>0</asrwt>
<pdfrwt beam="1">  1        2 0.21166959E+00 0.12577161E+04</pdfrwt>
<pdfrwt beam="2">  1       -1 0.44220135E-01 0.12577161E+04</pdfrwt>
<totfact> 0.84655140E+01</totfact>
</mgrwt>
</event>
<event>
12    7  0.1735955E-007  0.2292743E+04  0.7818608E-02  0.8480788E-01
          2   -1    0    0  501    0  0.00000000000E+00  0.00000000000E+00  0.22643804577E+04  0.22643804577E+04  0.00000000000E+00 0. -1.
         -1   -1    0    0    0  501 -0.00000000000E+00 -0.00000000000E+00 -0.58036508405E+03  0.58036508405E+03  0.00000000000E+00 0.  1.
         24    2    1    2    0    0 -0.64889530546E+03  0.33030934598E+03 -0.81394274310E+02  0.73695248161E+03  0.79401201347E+02 0.  0.
        254    2    1    2    0    0  0.64889530546E+03 -0.33030934598E+03  0.17654096479E+04  0.21077930601E+04  0.89216084746E+03 0.  0.
         23    2    4    4    0    0  0.37998175485E+03 -0.62008630703E+03  0.12983219101E+04  0.14905720310E+04  0.85276228737E+02 0.  0.
         23    2    4    4    0    0  0.26891355061E+03  0.28977696105E+03  0.46708773784E+03  0.61722102911E+03  0.80657665911E+02 0.  0.
          4    1    3    3  502    0 -0.16559556816E+03  0.10394371076E+03 -0.52715282311E+02  0.20249713131E+03  0.00000000000E+00 0. -1.
         -3    1    3    3    0  502 -0.48329973730E+03  0.22636563522E+03 -0.28678991999E+02  0.53445535030E+03  0.00000000000E+00 0.  1.
         13    1    5    5    0    0  0.10762433415E+03 -0.12419852102E+03  0.34185253258E+03  0.37930386757E+03  0.00000000000E+00 0. -1.
        -13    1    5    5    0    0  0.27235742070E+03 -0.49588778602E+03  0.95646937749E+03  0.11112681634E+04  0.00000000000E+00 0.  1.
          1    1    6    6  503    0  0.57053275035E+02  0.74705601909E+02  0.64445182677E+02  0.11397010450E+03  0.00000000000E+00 0. -1.
         -1    1    6    6    0  503  0.21186027558E+03  0.21507135915E+03  0.40264255516E+03  0.50325092461E+03  0.00000000000E+00 0.  1.
<mgrwt>
<rscale>  0 0.22927428E+04</rscale>
<asrwt>0</asrwt>
<pdfrwt beam="1">  1        2 0.34836622E+00 0.22927428E+04</pdfrwt>
<pdfrwt beam="2">  1       -1 0.89286937E-01 0.22927428E+04</pdfrwt>
<totfact> 0.60260540E+00</totfact>
</mgrwt>
</event>
<event>
12    7  0.1735955E-007  0.1278876E+04  0.7818608E-02  0.9046487E-01
          2   -1    0    0  501    0  0.00000000000E+00  0.00000000000E+00  0.14107661644E+04  0.14107661644E+04  0.00000000000E+00 0. -1.
         -1   -1    0    0    0  501 -0.00000000000E+00 -0.00000000000E+00 -0.28982888627E+03  0.28982888627E+03  0.00000000000E+00 0.  1.
         24    2    1    2    0    0  0.31753921161E+03  0.58417193089E+02  0.27642880884E+03  0.43124503623E+03  0.72908679612E+02 0.  0.
        254    2    1    2    0    0 -0.31753921161E+03 -0.58417193089E+02  0.84450846934E+03  0.12693500145E+04  0.89096082131E+03 0.  0.
         23    2    4    4    0    0 -0.58267114609E+03  0.72207443017E+02  0.72611643480E+03  0.93821148669E+03  0.90973279301E+02 0.  0.
         23    2    4    4    0    0  0.26513193448E+03 -0.13062463611E+03  0.11839203453E+03  0.33113852779E+03  0.90985232340E+02 0.  0.
          2    1    3    3  502    0  0.14619793488E+03 -0.71900711632E+01  0.10492838845E+03  0.18009858408E+03  0.00000000000E+00 0. -1.
         -1    1    3    3    0  502  0.17134127673E+03  0.65607264252E+02  0.17150042039E+03  0.25114645215E+03  0.00000000000E+00 0.  1.
         13    1    5    5    0    0 -0.54401711849E+03  0.86124959204E+02  0.69434076421E+03  0.88627378989E+03  0.00000000000E+00 0.  1.
        -13    1    5    5    0    0 -0.38654027604E+02 -0.13917516187E+02  0.31775670594E+02  0.51937696797E+02  0.00000000000E+00 0. -1.
          1    1    6    6  503    0 -0.72233381278E+01 -0.53881213592E+01  0.67326302562E+01  0.11248856638E+02  0.00000000000E+00 0. -1.
         -1    1    6    6    0  503  0.27235527261E+03 -0.12523651475E+03  0.11165940428E+03  0.31988967115E+03  0.00000000000E+00 0.  1.
<mgrwt>
<rscale>  0 0.12788757E+04</rscale>
<asrwt>0</asrwt>
<pdfrwt beam="1">  1        2 0.21704095E+00 0.12788757E+04</pdfrwt>
<pdfrwt beam="2">  1       -1 0.44589060E-01 0.12788757E+04</pdfrwt>
<totfact> 0.79482227E+01</totfact>
</mgrwt>
</event>
<event>
12    7  0.1735955E-007  0.1699898E+04  0.7818608E-02  0.8761422E-01
         -1   -1    0    0    0  501 -0.00000000000E+00  0.00000000000E+00  0.17304652248E+04  0.17304652248E+04  0.00000000000E+00 0.  1.
          2   -1    0    0  501    0  0.00000000000E+00 -0.00000000000E+00 -0.41746783510E+03  0.41746783510E+03  0.00000000000E+00 0. -1.
         24    2    1    2    0    0 -0.40618203976E+03  0.23009218870E+03 -0.16010148356E+02  0.47432661725E+03  0.82481211542E+02 0.  0.
        254    2    1    2    0    0  0.40618203976E+03 -0.23009218870E+03  0.13290075380E+04  0.16736064426E+04  0.90375396206E+03 0.  0.
         23    2    4    4    0    0  0.64809292626E+03 -0.19616032285E+02  0.10581870277E+04  0.12443240700E+04  0.90406724996E+02 0.  0.
         23    2    4    4    0    0 -0.24191088650E+03 -0.21047615642E+03  0.27082051035E+03  0.42928237260E+03  0.90102814441E+02 0.  0.
          4    1    3    3  502    0 -0.31984383756E+03  0.21719445057E+03 -0.85562922225E+01  0.38671270980E+03  0.00000000000E+00 0. -1.
         -3    1    3    3    0  502 -0.86338202196E+02  0.12897738134E+02 -0.74538561339E+01  0.87613907450E+02  0.00000000000E+00 0.  1.
         13    1    5    5    0    0  0.59552634579E+03 -0.36199954602E+02  0.93182013434E+03  0.11064586879E+04  0.00000000000E+00 0.  1.
        -13    1    5    5    0    0  0.52566580463E+02  0.16583922317E+02  0.12636689332E+03  0.13786538212E+03  0.00000000000E+00 0. -1.
          2    1    6    6  503    0 -0.16536806285E+03 -0.17424526512E+03  0.15532260017E+03  0.28606488556E+03  0.00000000000E+00 0. -1.
         -2    1    6    6    0  503 -0.76542823647E+02 -0.36230891293E+02  0.11549791019E+03  0.14321748704E+03  0.00000000000E+00 0.  1.
<mgrwt>
<rscale>  0 0.16998983E+04</rscale>
<asrwt>0</asrwt>
<pdfrwt beam="1">  1        2 0.64225822E-01 0.16998983E+04</pdfrwt>
<pdfrwt beam="2">  1       -1 0.26622541E+00 0.16998983E+04</pdfrwt>
<totfact> 0.45091001E+00</totfact>
</mgrwt>
</event>
<event>
12    7  0.1735955E-007  0.1319599E+04  0.7818608E-02  0.9014166E-01
          2   -1    0    0  501    0  0.00000000000E+00  0.00000000000E+00  0.21874372205E+04  0.21874372205E+04  0.00000000000E+00 0. -1.
         -1   -1    0    0    0  501 -0.00000000000E+00 -0.00000000000E+00 -0.19901615181E+03  0.19901615181E+03  0.00000000000E+00 0.  1.
         24    2    1    2    0    0  0.17965582726E+02  0.31367110674E+01 -0.89517041675E+02  0.12244615269E+03  0.81530107558E+02 0.  0.
        254    2    1    2    0    0 -0.17965582726E+02 -0.31367110674E+01  0.20779381103E+04  0.22640072196E+04  0.89864859589E+03 0.  0.
         23    2    4    4    0    0  0.31617925866E+02 -0.24137076203E+03  0.19632266458E+04  0.19803158760E+04  0.90180752023E+02 0.  0.
         23    2    4    4    0    0 -0.49583508591E+02  0.23823405097E+03  0.11471146452E+03  0.28369134357E+03  0.90044827490E+02 0.  0.
          2    1    3    3  502    0 -0.12322054573E+02  0.11310537058E+02  0.90428279862E+01  0.19014047844E+02  0.00000000000E+00 0. -1.
         -1    1    3    3    0  502  0.30287637298E+02 -0.81738259904E+01 -0.98559869662E+02  0.10343210484E+03  0.00000000000E+00 0.  1.
         13    1    5    5    0    0 -0.25388320479E+02 -0.14814131489E+03  0.11240216016E+04  0.11340260036E+04  0.00000000000E+00 0.  1.
        -13    1    5    5    0    0  0.57006246345E+02 -0.93229447147E+02  0.83920504424E+03  0.84628987246E+03  0.00000000000E+00 0. -1.
          2    1    6    6  503    0 -0.62361114615E+02  0.22495010619E+03  0.84414659847E+02  0.24822830960E+03  0.00000000000E+00 0. -1.
         -2    1    6    6    0  503  0.12777606024E+02  0.13283944778E+02  0.30296804674E+02  0.35463033965E+02  0.00000000000E+00 0.  1.
<mgrwt>
<rscale>  0 0.13195989E+04</rscale>
<asrwt>0</asrwt>
<pdfrwt beam="1">  1        2 0.33652879E+00 0.13195989E+04</pdfrwt>
<pdfrwt beam="2">  1       -1 0.30617871E-01 0.13195989E+04</pdfrwt>
<totfact> 0.57716913E+01</totfact>
</mgrwt>
</event>
<event>
12    7  0.1735955E-007  0.1603930E+04  0.7818608E-02  0.8818137E-01
          4   -1    0    0  501    0  0.00000000000E+00  0.00000000000E+00  0.15531740626E+04  0.15531740626E+04  0.00000000000E+00 0. -1.
         -3   -1    0    0    0  501 -0.00000000000E+00 -0.00000000000E+00 -0.41408616489E+03  0.41408616489E+03  0.00000000000E+00 0.  1.
         24    2    1    2    0    0  0.41494754758E+02 -0.45736734794E+03  0.40984603609E+02  0.46807520587E+03  0.80671897097E+02 0.  0.
        254    2    1    2    0    0 -0.41494754758E+02  0.45736734794E+03  0.10981032941E+04  0.14991850217E+04  0.91149228132E+03 0.  0.
         23    2    4    4    0    0 -0.10194090593E+03  0.78364596469E+02 -0.13313608265E+03  0.20622817556E+03  0.90949907144E+02 0.  0.
         23    2    4    4    0    0  0.60446151176E+02  0.37900275148E+03  0.12312393768E+04  0.12929568461E+04  0.92142173114E+02 0.  0.
          4    1    3    3  502    0  0.24635374305E+02 -0.34202388338E+03 -0.45185263852E+01  0.34293972582E+03  0.00000000000E+00 0. -1.
         -3    1    3    3    0  502  0.16859380453E+02 -0.11534346457E+03  0.45503129995E+02  0.12513548005E+03  0.00000000000E+00 0.  1.
         13    1    5    5    0    0 -0.10580617390E+03  0.42957694737E+02 -0.12573200197E+03  0.16984948128E+03  0.00000000000E+00 0. -1.
        -13    1    5    5    0    0  0.38652679706E+01  0.35406901731E+02 -0.74040806861E+01  0.36378694280E+02  0.00000000000E+00 0.  1.
          3    1    6    6  503    0  0.49188815898E+02  0.36326302598E+03  0.12095997321E+04  0.12639268482E+04  0.00000000000E+00 0. -1.
         -3    1    6    6    0  503  0.11257335278E+02  0.15739725500E+02  0.21639644702E+02  0.29029997919E+02  0.00000000000E+00 0.  1.
<mgrwt>
<rscale>  0 0.16039300E+04</rscale>
<asrwt>0</asrwt>
<pdfrwt beam="1">  1        4 0.23894985E+00 0.16039300E+04</pdfrwt>
<pdfrwt beam="2">  1       -3 0.63705564E-01 0.16039300E+04</pdfrwt>
<totfact> 0.38807754E-01</totfact>
</mgrwt>
</event>
<event>
12    7  0.1735955E-007  0.1415120E+04  0.7818608E-02  0.8942946E-01
         -1   -1    0    0    0  501 -0.00000000000E+00  0.00000000000E+00  0.39741281536E+03  0.39741281536E+03  0.00000000000E+00 0.  1.
          2   -1    0    0  501    0  0.00000000000E+00 -0.00000000000E+00 -0.12597503140E+04  0.12597503140E+04  0.00000000000E+00 0. -1.
         24    2    1    2    0    0 -0.16521832233E+02 -0.35377352375E+03  0.10136767939E+00  0.36284827002E+03  0.78931487614E+02 0.  0.
        254    2    1    2    0    0  0.16521832233E+02  0.35377352375E+03 -0.86243886633E+03  0.12943148594E+04  0.89778699030E+03 0.  0.
         23    2    4    4    0    0  0.27985446878E+03 -0.18770022296E+03 -0.39086871061E+03  0.52413667042E+03  0.91602417804E+02 0.  0.
         23    2    4    4    0    0 -0.26333263655E+03  0.54147374671E+03 -0.47157015572E+03  0.77017818894E+03  0.90874281838E+02 0.  0.
          4    1    3    3  502    0 -0.43344110922E+02 -0.12407725227E+03 -0.51604566717E+01  0.13153139091E+03  0.00000000000E+00 0. -1.
         -3    1    3    3    0  502  0.26822278689E+02 -0.22969627148E+03  0.52618243510E+01  0.23131687911E+03  0.00000000000E+00 0.  1.
         13    1    5    5    0    0  0.27889163825E+03 -0.17325594778E+03 -0.38975917859E+03  0.50961788295E+03  0.00000000000E+00 0. -1.
        -13    1    5    5    0    0  0.96283053268E+00 -0.14444275185E+02 -0.11095320154E+01  0.14518787468E+02  0.00000000000E+00 0.  1.
          1    1    6    6  503    0 -0.24939115232E+03  0.51448252049E+03 -0.41676940774E+03  0.70752028237E+03  0.00000000000E+00 0. -1.
         -1    1    6    6    0  503 -0.13941484223E+02  0.26991226229E+02 -0.54800747988E+02  0.62657906570E+02  0.00000000000E+00 0.  1.
<mgrwt>
<rscale>  0 0.14151197E+04</rscale>
<asrwt>0</asrwt>
<pdfrwt beam="1">  1        2 0.19380774E+00 0.14151197E+04</pdfrwt>
<pdfrwt beam="2">  1       -1 0.61140435E-01 0.14151197E+04</pdfrwt>
<totfact> 0.52489441E+01</totfact>
</mgrwt>
</event>
<event>
12    7  0.1735955E-007  0.1984696E+04  0.7818608E-02  0.8613809E-01
         -1   -1    0    0    0  501 -0.00000000000E+00  0.00000000000E+00  0.67116936635E+03  0.67116936635E+03  0.00000000000E+00 0.  1.
          2   -1    0    0  501    0  0.00000000000E+00 -0.00000000000E+00 -0.14672227636E+04  0.14672227636E+04  0.00000000000E+00 0. -1.
         24    2    1    2    0    0 -0.19437806811E+03  0.55952979283E+01  0.49536159448E+03  0.53719043605E+03  0.73323356320E+02 0.  0.
        254    2    1    2    0    0  0.19437806811E+03 -0.55952979283E+01 -0.12914149917E+04  0.16012016939E+04  0.92643404675E+03 0.  0.
         23    2    4    4    0    0  0.13462586339E+03  0.15008812744E+03 -0.13761921434E+04  0.13939491809E+04  0.92406353906E+02 0.  0.
         23    2    4    4    0    0  0.59752204721E+02 -0.15568342537E+03  0.84777151732E+02  0.20725251296E+03  0.89212015842E+02 0.  0.
          2    1    3    3  502    0 -0.24673789681E+02 -0.74683677076E+01  0.14961054532E+03  0.15181530781E+03  0.00000000000E+00 0. -1.
         -1    1    3    3    0  502 -0.16970427843E+03  0.13063665636E+02  0.34575104916E+03  0.38537512825E+03  0.00000000000E+00 0.  1.
         13    1    5    5    0    0  0.92842906778E+02  0.34944706453E+02 -0.63620944975E+03  0.64389704286E+03  0.00000000000E+00 0. -1.
        -13    1    5    5    0    0  0.41782956614E+02  0.11514342099E+03 -0.73998269368E+03  0.75005213806E+03  0.00000000000E+00 0.  1.
          2    1    6    6  503    0 -0.63190617004E+01  0.65193612770E+01 -0.50798726562E+01  0.10403735792E+02  0.00000000000E+00 0. -1.
         -2    1    6    6    0  503  0.66071266422E+02 -0.16220278665E+03  0.89857024388E+02  0.19684877717E+03  0.00000000000E+00 0.  1.
<mgrwt>
<rscale>  0 0.19846964E+04</rscale>
<asrwt>0</asrwt>
<pdfrwt beam="1">  1        2 0.22572658E+00 0.19846964E+04</pdfrwt>
<pdfrwt beam="2">  1       -1 0.10325683E+00 0.19846964E+04</pdfrwt>
<totfact> 0.12430172E+01</totfact>
</mgrwt>
</event>
<event>
12    7  0.1735955E-007  0.1663596E+04  0.7818608E-02  0.8782404E-01
          2   -1    0    0  501    0  0.00000000000E+00  0.00000000000E+00  0.13086099197E+04  0.13086099197E+04  0.00000000000E+00 0. -1.
         -1   -1    0    0    0  501 -0.00000000000E+00 -0.00000000000E+00 -0.52871983779E+03  0.52871983779E+03  0.00000000000E+00 0.  1.
         24    2    1    2    0    0 -0.28897198971E+02  0.43637653916E+03 -0.17760814817E+03  0.47864458792E+03  0.79350206102E+02 0.  0.
        254    2    1    2    0    0  0.28897198971E+02 -0.43637653916E+03  0.95749823006E+03  0.13586851695E+04  0.85904772704E+03 0.  0.
         23    2    4    4    0    0 -0.90671752242E+02 -0.37093534347E+03  0.43913228507E+01  0.39173998041E+03  0.87330022557E+02 0.  0.
         23    2    4    4    0    0  0.11956895121E+03 -0.65441195688E+02  0.95310690721E+03  0.96694518914E+03  0.89392046884E+02 0.  0.
          2    1    3    3  502    0  0.24138703925E+02  0.14188625576E+03 -0.75135365734E+02  0.16235673618E+03  0.00000000000E+00 0. -1.
         -1    1    3    3    0  502 -0.53035902897E+02  0.29449028340E+03 -0.10247278244E+03  0.31628785174E+03  0.00000000000E+00 0.  1.
         13    1    5    5    0    0 -0.81880043000E+02 -0.17870019619E+03 -0.20795034257E+02  0.19766267986E+03  0.00000000000E+00 0. -1.
        -13    1    5    5    0    0 -0.87917092420E+01 -0.19223514729E+03  0.25186357108E+02  0.19407730055E+03  0.00000000000E+00 0.  1.
          3    1    6    6  503    0  0.11596225428E+03 -0.64597899115E+02  0.63071640186E+03  0.64453340686E+03  0.00000000000E+00 0. -1.
         -3    1    6    6    0  503  0.36066969304E+01 -0.84329657264E+00  0.32239050535E+03  0.32241178227E+03  0.00000000000E+00 0.  1.
<mgrwt>
<rscale>  0 0.16635961E+04</rscale>
<asrwt>0</asrwt>
<pdfrwt beam="1">  1        2 0.20132460E+00 0.16635961E+04</pdfrwt>
<pdfrwt beam="2">  1       -1 0.81341514E-01 0.16635961E+04</pdfrwt>
<totfact> 0.26762358E+01</totfact>
</mgrwt>
</event>
<event>
12    7  0.1735955E-007  0.1372785E+04  0.7818608E-02  0.8973757E-01
          2   -1    0    0  501    0  0.00000000000E+00  0.00000000000E+00  0.38901410959E+04  0.38901410959E+04  0.00000000000E+00 0. -1.
         -1   -1    0    0    0  501 -0.00000000000E+00 -0.00000000000E+00 -0.12110996686E+03  0.12110996686E+03  0.00000000000E+00 0.  1.
         24    2    1    2    0    0 -0.17186384647E+03 -0.86955290907E+02  0.10475232680E+03  0.23362671719E+03  0.80684500856E+02 0.  0.
        254    2    1    2    0    0  0.17186384647E+03  0.86955290907E+02  0.36642788022E+04  0.37776243455E+04  0.89800231143E+03 0.  0.
         23    2    4    4    0    0  0.51168972461E+02  0.45736341156E+03  0.25684916107E+04  0.26110223196E+04  0.92134930511E+02 0.  0.
         23    2    4    4    0    0  0.12069487401E+03 -0.37040812065E+03  0.10957871915E+04  0.11666020259E+04  0.91876489424E+02 0.  0.
          2    1    3    3  502    0  0.23749197638E+01 -0.16293716347E+02  0.23747720749E+02  0.28897745190E+02  0.00000000000E+00 0. -1.
         -1    1    3    3    0  502 -0.17423876623E+03 -0.70661574560E+02  0.81004606047E+02  0.20472897200E+03  0.00000000000E+00 0.  1.
         13    1    5    5    0    0  0.45962364596E+02  0.44131337719E+03  0.23258004240E+04  0.23677452668E+04  0.00000000000E+00 0.  1.
        -13    1    5    5    0    0  0.52066078647E+01  0.16050034375E+02  0.24269118665E+03  0.24327705286E+03  0.00000000000E+00 0. -1.
          4    1    6    6  503    0 -0.13671763530E+01  0.50820757742E+01  0.10973423137E+02  0.12170155328E+02  0.00000000000E+00 0. -1.
         -4    1    6    6    0  503  0.12206205036E+03 -0.37549019643E+03  0.10848137684E+04  0.11544318706E+04  0.00000000000E+00 0.  1.
<mgrwt>
<rscale>  0 0.13727853E+04</rscale>
<asrwt>0</asrwt>
<pdfrwt beam="1">  1        2 0.59848315E+00 0.13727853E+04</pdfrwt>
<pdfrwt beam="2">  1       -1 0.18632306E-01 0.13727853E+04</pdfrwt>
<totfact> 0.10990436E+01</totfact>
</mgrwt>
</event>
<event>
12    7  0.1735955E-007  0.1159776E+04  0.7818608E-02  0.9148812E-01
          2   -1    0    0  501    0  0.00000000000E+00  0.00000000000E+00  0.13438779978E+04  0.13438779978E+04  0.00000000000E+00 0. -1.
         -1   -1    0    0    0  501 -0.00000000000E+00 -0.00000000000E+00 -0.25022373647E+03  0.25022373647E+03  0.00000000000E+00 0.  1.
         24    2    1    2    0    0  0.12131026129E+03  0.15960388030E+03  0.75946162643E+02  0.22779969983E+03  0.77040934042E+02 0.  0.
        254    2    1    2    0    0 -0.12131026129E+03 -0.15960388030E+03  0.10177080987E+04  0.13663020345E+04  0.88930416457E+03 0.  0.
         23    2    4    4    0    0 -0.49867186210E+03 -0.10201363806E+03  0.61118654950E+03  0.80130512993E+03  0.97265125079E+02 0.  0.
         23    2    4    4    0    0  0.37736160081E+03 -0.57590242245E+02  0.40652154923E+03  0.56499690456E+03  0.90792722236E+02 0.  0.
          4    1    3    3  502    0  0.21387854563E+02  0.90750985403E+02  0.28354975045E+02  0.97453508322E+02  0.00000000000E+00 0. -1.
         -3    1    3    3    0  502  0.99922406730E+02  0.68852894902E+02  0.47591187597E+02  0.13034619151E+03  0.00000000000E+00 0.  1.
         13    1    5    5    0    0 -0.25098312682E+03 -0.43852148847E+01  0.27236145966E+03  0.37039509279E+03  0.00000000000E+00 0.  1.
        -13    1    5    5    0    0 -0.24768873528E+03 -0.97628423175E+02  0.33882508984E+03  0.43091003714E+03  0.00000000000E+00 0. -1.
          3    1    6    6  503    0  0.18551785776E+03 -0.69657563017E+02  0.23475259038E+03  0.30720974972E+03  0.00000000000E+00 0. -1.
         -3    1    6    6    0  503  0.19184374305E+03  0.12067320772E+02  0.17176895885E+03  0.25778715485E+03  0.00000000000E+00 0.  1.
<mgrwt>
<rscale>  0 0.11597761E+04</rscale>
<asrwt>0</asrwt>
<pdfrwt beam="1">  1        2 0.20675046E+00 0.11597761E+04</pdfrwt>
<pdfrwt beam="2">  1       -1 0.38495960E-01 0.11597761E+04</pdfrwt>
<totfact> 0.11473171E+02</totfact>
</mgrwt>
</event>
<event>
12    7  0.1735955E-007  0.1322322E+04  0.7818608E-02  0.9012048E-01
          2   -1    0    0  501    0  0.00000000000E+00  0.00000000000E+00  0.22163589873E+04  0.22163589873E+04  0.00000000000E+00 0. -1.
         -1   -1    0    0    0  501 -0.00000000000E+00 -0.00000000000E+00 -0.19723072058E+03  0.19723072058E+03  0.00000000000E+00 0.  1.
         24    2    1    2    0    0 -0.32804499725E+03  0.16220681554E+03  0.37744593335E+03  0.53387602406E+03  0.92917195588E+02 0.  0.
        254    2    1    2    0    0  0.32804499725E+03 -0.16220681554E+03  0.16416823334E+04  0.18797136838E+04  0.83921277290E+03 0.  0.
         23    2    4    4    0    0 -0.23206825525E+03  0.20109698439E+02  0.20230172394E+03  0.32166518391E+03  0.91007845624E+02 0.  0.
         23    2    4    4    0    0  0.56011325249E+03 -0.18231651398E+03  0.14393806095E+04  0.15580484999E+04  0.93447431065E+02 0.  0.
          4    1    3    3  502    0 -0.10687244474E+03  0.43897174357E+02  0.62844512444E+02  0.13152229509E+03  0.00000000000E+00 0. -1.
         -3    1    3    3    0  502 -0.22117255251E+03  0.11830964118E+03  0.31460142090E+03  0.40235372897E+03  0.00000000000E+00 0.  1.
         13    1    5    5    0    0 -0.77652043886E+02  0.49105404318E+02  0.60371684375E+02  0.10993598559E+03  0.00000000000E+00 0. -1.
        -13    1    5    5    0    0 -0.15441621136E+03 -0.28995705880E+02  0.14193003956E+03  0.21172919832E+03  0.00000000000E+00 0.  1.
          3    1    6    6  503    0  0.34625635058E+03 -0.15960299346E+03  0.93212304893E+03  0.10070848793E+04  0.00000000000E+00 0. -1.
         -3    1    6    6    0  503  0.21385690191E+03 -0.22713520521E+02  0.50725756054E+03  0.55096362061E+03  0.00000000000E+00 0.  1.
<mgrwt>
<rscale>  0 0.13223223E+04</rscale>
<asrwt>0</asrwt>
<pdfrwt beam="1">  1        2 0.34097829E+00 0.13223223E+04</pdfrwt>
<pdfrwt beam="2">  1       -1 0.30343189E-01 0.13223223E+04</pdfrwt>
<totfact> 0.56481408E+01</totfact>
</mgrwt>
</event>
<event>
12    7  0.1735955E-007  0.1194833E+04  0.7818608E-02  0.9117391E-01
          2   -1    0    0  501    0  0.00000000000E+00  0.00000000000E+00  0.49739507952E+03  0.49739507952E+03  0.00000000000E+00 0. -1.
         -1   -1    0    0    0  501 -0.00000000000E+00 -0.00000000000E+00 -0.71755161321E+03  0.71755161321E+03  0.00000000000E+00 0.  1.
         24    2    1    2    0    0 -0.76790178439E+02  0.17859800197E+03  0.88641763010E+02  0.22985455811E+03  0.84745371098E+02 0.  0.
        254    2    1    2    0    0  0.76790178439E+02 -0.17859800197E+03 -0.30879829670E+03  0.98509213462E+03  0.91501702052E+03 0.  0.
         23    2    4    4    0    0  0.11411816520E+02 -0.19926236105E+02  0.31577981029E+03  0.33108226793E+03  0.96805449800E+02 0.  0.
         23    2    4    4    0    0  0.65378361919E+02 -0.15867176586E+03 -0.62457810699E+03  0.65400986669E+03  0.90443543238E+02 0.  0.
          4    1    3    3  502    0 -0.60451014474E+02  0.18285793514E+03  0.90634587090E+02  0.21285200955E+03  0.00000000000E+00 0. -1.
         -3    1    3    3    0  502 -0.16339163965E+02 -0.42599331677E+01 -0.19928240792E+01  0.17002548558E+02  0.00000000000E+00 0.  1.
         13    1    5    5    0    0  0.50773448953E+02  0.29077694467E+01  0.12498067630E+03  0.13493171492E+03  0.00000000000E+00 0.  1.
        -13    1    5    5    0    0 -0.39361632434E+02 -0.22834005551E+02  0.19079913399E+03  0.19615055302E+03  0.00000000000E+00 0. -1.
          2    1    6    6  503    0  0.52830284593E+02 -0.27172505824E+02 -0.14842535865E+03  0.15987329713E+03  0.00000000000E+00 0. -1.
         -2    1    6    6    0  503  0.12548077326E+02 -0.13149926004E+03 -0.47615274833E+03  0.49413656956E+03  0.00000000000E+00 0.  1.
<mgrwt>
<rscale>  0 0.11948333E+04</rscale>
<asrwt>0</asrwt>
<pdfrwt beam="1">  1        2 0.76522320E-01 0.11948333E+04</pdfrwt>
<pdfrwt beam="2">  1       -1 0.11039256E+00 0.11948333E+04</pdfrwt>
<totfact> 0.52953063E+01</totfact>
</mgrwt>
</event>
<event>
12    7  0.1735955E-007  0.2095210E+04  0.7818608E-02  0.8563356E-01
         -1   -1    0    0    0  501 -0.00000000000E+00  0.00000000000E+00  0.50913454135E+03  0.50913454135E+03  0.00000000000E+00 0.  1.
          2   -1    0    0  501    0  0.00000000000E+00 -0.00000000000E+00 -0.21555731687E+04  0.21555731687E+04  0.00000000000E+00 0. -1.
         24    2    1    2    0    0 -0.71373949790E+03  0.12579203330E+03 -0.12432466452E+04  0.14412742684E+04  0.79759571949E+02 0.  0.
        254    2    1    2    0    0  0.71373949790E+03 -0.12579203330E+03 -0.40319198214E+03  0.12234334417E+04  0.89943199035E+03 0.  0.
         23    2    4    4    0    0  0.11102714716E+02 -0.15213371155E+03  0.21714365193E+03  0.28144963629E+03  0.93779505928E+02 0.  0.
         23    2    4    4    0    0  0.70263678319E+03  0.26341678256E+02 -0.62033563407E+03  0.94198380539E+03  0.90137992132E+02 0.  0.
          4    1    3    3  502    0 -0.27820047136E+03  0.59960514881E+02 -0.41543655645E+03  0.50356558465E+03  0.00000000000E+00 0. -1.
         -3    1    3    3    0  502 -0.43553902654E+03  0.65831518415E+02 -0.82781008879E+03  0.93770868374E+03  0.00000000000E+00 0.  1.
         13    1    5    5    0    0  0.16086666071E+02  0.28419140432E+01  0.23003373706E+01  0.16496934647E+02  0.00000000000E+00 0.  1.
        -13    1    5    5    0    0 -0.49839513556E+01 -0.15497562559E+03  0.21484331456E+03  0.26495270165E+03  0.00000000000E+00 0. -1.
          1    1    6    6  503    0  0.53828229937E+03  0.57127781902E+02 -0.48662268996E+03  0.72788258646E+03  0.00000000000E+00 0. -1.
         -1    1    6    6    0  503  0.16435448382E+03 -0.30786103647E+02 -0.13371294411E+03  0.21410121894E+03  0.00000000000E+00 0.  1.
<mgrwt>
<rscale>  0 0.20952105E+04</rscale>
<asrwt>0</asrwt>
<pdfrwt beam="1">  1        2 0.33162664E+00 0.20952105E+04</pdfrwt>
<pdfrwt beam="2">  1       -1 0.78328392E-01 0.20952105E+04</pdfrwt>
<totfact> 0.93640803E+00</totfact>
</mgrwt>
</event>
<event>
12    7  0.1735955E-007  0.2744568E+04  0.7818608E-02  0.8320687E-01
         -1   -1    0    0    0  501 -0.00000000000E+00  0.00000000000E+00  0.23844033263E+04  0.23844033263E+04  0.00000000000E+00 0.  1.
          2   -1    0    0  501    0  0.00000000000E+00 -0.00000000000E+00 -0.78978416311E+03  0.78978416311E+03  0.00000000000E+00 0. -1.
         24    2    1    2    0    0  0.85366454767E+03 -0.19627798912E+03  0.16911964024E+04  0.19063091725E+04  0.81247650243E+02 0.  0.
        254    2    1    2    0    0 -0.85366454767E+03  0.19627798912E+03 -0.96577239269E+02  0.12678783169E+04  0.91154816344E+03 0.  0.
         23    2    4    4    0    0 -0.68517686871E+03  0.41489712226E+03  0.22236388555E+03  0.83625173623E+03  0.90908224456E+02 0.  0.
         23    2    4    4    0    0 -0.16848767896E+03 -0.21861913314E+03 -0.31894112482E+03  0.43162658064E+03  0.91627728757E+02 0.  0.
          4    1    3    3  502    0  0.20999773731E+02 -0.17769451017E+02  0.41642120375E+02  0.49908016145E+02  0.00000000000E+00 0. -1.
         -3    1    3    3    0  502  0.83266477394E+03 -0.17850853811E+03  0.16495542820E+04  0.18564011564E+04  0.00000000000E+00 0.  1.
         13    1    5    5    0    0 -0.43849439608E+03  0.24808796796E+03  0.18231369226E+03  0.53578284559E+03  0.00000000000E+00 0. -1.
        -13    1    5    5    0    0 -0.24668247263E+03  0.16680915430E+03  0.40050193292E+02  0.30046889064E+03  0.00000000000E+00 0.  1.
          3    1    6    6  503    0 -0.67092308102E+02 -0.16023536551E+03 -0.18485339981E+03  0.25366814854E+03  0.00000000000E+00 0. -1.
         -3    1    6    6    0  503 -0.10139537086E+03 -0.58383767628E+02 -0.13408772501E+03  0.17795843209E+03  0.00000000000E+00 0.  1.
<mgrwt>
<rscale>  0 0.27445684E+04</rscale>
<asrwt>0</asrwt>
<pdfrwt beam="1">  1        2 0.12150526E+00 0.27445684E+04</pdfrwt>
<pdfrwt beam="2">  1       -1 0.36683128E+00 0.27445684E+04</pdfrwt>
<totfact> 0.41901936E-01</totfact>
</mgrwt>
</event>
<event>
12    7  0.1735955E-007  0.1153283E+04  0.7818608E-02  0.9154760E-01
          2   -1    0    0  501    0  0.00000000000E+00  0.00000000000E+00  0.12343932092E+04  0.12343932092E+04  0.00000000000E+00 0. -1.
         -1   -1    0    0    0  501 -0.00000000000E+00 -0.00000000000E+00 -0.26937566688E+03  0.26937566688E+03  0.00000000000E+00 0.  1.
         24    2    1    2    0    0 -0.20781924439E+03  0.13414823211E+02  0.22331449922E+03  0.31596758436E+03  0.81224091169E+02 0.  0.
        254    2    1    2    0    0  0.20781924439E+03 -0.13414823211E+02  0.74170304315E+03  0.11878012918E+04  0.90409054231E+03 0.  0.
         23    2    4    4    0    0 -0.16602820572E+03  0.34645022960E+03  0.24872865234E+03  0.46643095077E+03  0.89993125603E+02 0.  0.
         23    2    4    4    0    0  0.37384745011E+03 -0.35986505281E+03  0.49297439081E+03  0.72137034100E+03  0.89925784430E+02 0.  0.
          4    1    3    3  502    0 -0.12031611591E+03  0.27197589403E+02  0.17773903034E+03  0.21634888381E+03  0.00000000000E+00 0. -1.
         -3    1    3    3    0  502 -0.87503128474E+02 -0.13782766192E+02  0.45575468876E+02  0.99618700553E+02  0.00000000000E+00 0.  1.
         13    1    5    5    0    0 -0.16092944930E+03  0.34712412503E+03  0.25385559009E+03  0.45916893019E+03  0.00000000000E+00 0.  1.
        -13    1    5    5    0    0 -0.50987564233E+01 -0.67389543585E+00 -0.51269377532E+01  0.72620205762E+01  0.00000000000E+00 0. -1.
          4    1    6    6  503    0  0.72277766926E+01 -0.16509414965E+02  0.65463992887E+00  0.18034136848E+02  0.00000000000E+00 0. -1.
         -4    1    6    6    0  503  0.36661967341E+03 -0.34335563784E+03  0.49231975088E+03  0.70333620415E+03  0.00000000000E+00 0.  1.
<mgrwt>
<rscale>  0 0.11532831E+04</rscale>
<asrwt>0</asrwt>
<pdfrwt beam="1">  1        2 0.18990664E+00 0.11532831E+04</pdfrwt>
<pdfrwt beam="2">  1       -1 0.41442411E-01 0.11532831E+04</pdfrwt>
<totfact> 0.11624118E+02</totfact>
</mgrwt>
</event>
<event>
12    7  0.1735955E-007  0.1247004E+04  0.7818608E-02  0.9072681E-01
          2   -1    0    0  501    0  0.00000000000E+00  0.00000000000E+00  0.21601261654E+04  0.21601261654E+04  0.00000000000E+00 0. -1.
         -1   -1    0    0    0  501 -0.00000000000E+00 -0.00000000000E+00 -0.17996851493E+03  0.17996851493E+03  0.00000000000E+00 0.  1.
         24    2    1    2    0    0 -0.16186297934E+03 -0.57606448858E+02  0.44719472328E+02  0.19428329501E+03  0.78917935131E+02 0.  0.
        254    2    1    2    0    0  0.16186297934E+03  0.57606448858E+02  0.19354381781E+04  0.21458113853E+04  0.91053140139E+03 0.  0.
         23    2    4    4    0    0  0.45384723769E+03  0.28164589912E+01  0.16852089020E+04  0.17475568158E+04  0.89669022307E+02 0.  0.
         23    2    4    4    0    0 -0.29198425835E+03  0.54789989867E+02  0.25022927611E+03  0.39825456946E+03  0.87950334613E+02 0.  0.
          2    1    3    3  502    0 -0.98625559086E+02 -0.29517582996E+02  0.65520141265E+02  0.12202941253E+03  0.00000000000E+00 0. -1.
         -1    1    3    3    0  502 -0.63237420250E+02 -0.28088865862E+02 -0.20800668938E+02  0.72253882481E+02  0.00000000000E+00 0.  1.
         13    1    5    5    0    0  0.39021588090E+03  0.15599384957E+02  0.15355192825E+04  0.15844024872E+04  0.00000000000E+00 0.  1.
        -13    1    5    5    0    0  0.63631356787E+02 -0.12782925966E+02  0.14968961948E+03  0.16315432861E+03  0.00000000000E+00 0. -1.
          4    1    6    6  503    0 -0.14921002297E+03  0.71200133182E+02  0.14794591487E+03  0.22185825125E+03  0.00000000000E+00 0. -1.
         -4    1    6    6    0  503 -0.14277423538E+03 -0.16410143315E+02  0.10228336124E+03  0.17639631821E+03  0.00000000000E+00 0.  1.
<mgrwt>
<rscale>  0 0.12470039E+04</rscale>
<asrwt>0</asrwt>
<pdfrwt beam="1">  1        2 0.33232708E+00 0.12470039E+04</pdfrwt>
<pdfrwt beam="2">  1       -1 0.27687465E-01 0.12470039E+04</pdfrwt>
<totfact> 0.71688369E+01</totfact>
</mgrwt>
</event>
<event>
12    7  0.1735955E-007  0.1946875E+04  0.7818608E-02  0.8631869E-01
         -1   -1    0    0    0  501 -0.00000000000E+00  0.00000000000E+00  0.36725046227E+03  0.36725046227E+03  0.00000000000E+00 0.  1.
          2   -1    0    0  501    0  0.00000000000E+00 -0.00000000000E+00 -0.25802020791E+04  0.25802020791E+04  0.00000000000E+00 0. -1.
         24    2    1    2    0    0 -0.94280504795E+02 -0.33210296034E+03 -0.18951520294E+04  0.19279691426E+04  0.79262919933E+02 0.  0.
        254    2    1    2    0    0  0.94280504795E+02  0.33210296034E+03 -0.31779958746E+03  0.10194833988E+04  0.90507935163E+03 0.  0.
         23    2    4    4    0    0  0.26702076565E+03  0.44855496444E+03 -0.49996074819E+03  0.72850065839E+03  0.90833992172E+02 0.  0.
         23    2    4    4    0    0 -0.17274026086E+03 -0.11645200410E+03  0.18216116074E+03  0.29098274039E+03  0.89933307194E+02 0.  0.
          2    1    3    3  502    0 -0.61193936916E+02 -0.84101447166E+02 -0.55896992614E+03  0.56856409459E+03  0.00000000000E+00 0. -1.
         -1    1    3    3    0  502 -0.33086567879E+02 -0.24800151317E+03 -0.13361821033E+04  0.13594050480E+04  0.00000000000E+00 0.  1.
         13    1    5    5    0    0  0.36032062982E+02  0.22320399610E+02 -0.62424962917E+02  0.75454528007E+02  0.00000000000E+00 0.  1.
        -13    1    5    5    0    0  0.23098870267E+03  0.42623456483E+03 -0.43753578528E+03  0.65304613039E+03  0.00000000000E+00 0. -1.
          1    1    6    6  503    0 -0.17567484011E+03 -0.10230440851E+03  0.14112037581E+03  0.24747283067E+03  0.00000000000E+00 0. -1.
         -1    1    6    6    0  503  0.29345792568E+01 -0.14147595589E+02  0.41040784931E+02  0.43509909723E+02  0.00000000000E+00 0.  1.
<mgrwt>
<rscale>  0 0.19468748E+04</rscale>
<asrwt>0</asrwt>
<pdfrwt beam="1">  1        2 0.39695416E+00 0.19468748E+04</pdfrwt>
<pdfrwt beam="2">  1       -1 0.56500072E-01 0.19468748E+04</pdfrwt>
<totfact> 0.10535674E+01</totfact>
</mgrwt>
</event>
<event>
12    7  0.1735955E-007  0.2349243E+04  0.7818608E-02  0.8458755E-01
         -1   -1    0    0    0  501 -0.00000000000E+00  0.00000000000E+00  0.20230831057E+04  0.20230831057E+04  0.00000000000E+00 0.  1.
          2   -1    0    0  501    0  0.00000000000E+00 -0.00000000000E+00 -0.68199639273E+03  0.68199639273E+03  0.00000000000E+00 0. -1.
         24    2    1    2    0    0 -0.44306141561E+03  0.42182667337E+03  0.14780576003E+04  0.16016473032E+04  0.79866472339E+02 0.  0.
        254    2    1    2    0    0  0.44306141561E+03 -0.42182667337E+03 -0.13697088735E+03  0.11034321953E+04  0.90805309608E+03 0.  0.
         23    2    4    4    0    0  0.26122116599E+03 -0.57160264743E+03  0.21397054419E+03  0.67012518112E+03  0.91204607797E+02 0.  0.
         23    2    4    4    0    0  0.18184024961E+03  0.14977597406E+03 -0.35094143153E+03  0.43330701419E+03  0.95374846775E+02 0.  0.
          2    1    3    3  502    0 -0.70167897364E+02  0.88821683264E+02  0.20938910872E+03  0.23802651971E+03  0.00000000000E+00 0. -1.
         -1    1    3    3    0  502 -0.37289351824E+03  0.33300499011E+03  0.12686684916E+04  0.13636207834E+04  0.00000000000E+00 0.  1.
         13    1    5    5    0    0  0.51574809890E+02 -0.21653793516E+03  0.68977314543E+02  0.23303756843E+03  0.00000000000E+00 0.  1.
        -13    1    5    5    0    0  0.20964635610E+03 -0.35506471227E+03  0.14499322964E+03  0.43708761269E+03  0.00000000000E+00 0. -1.
          2    1    6    6  503    0  0.67939947036E+02  0.35861761913E+02 -0.19290984604E+03  0.20764419344E+03  0.00000000000E+00 0. -1.
         -2    1    6    6    0  503  0.11390030258E+03  0.11391421214E+03 -0.15803158549E+03  0.22566282075E+03  0.00000000000E+00 0.  1.
<mgrwt>
<rscale>  0 0.23492428E+04</rscale>
<asrwt>0</asrwt>
<pdfrwt beam="1">  1        2 0.10492252E+00 0.23492428E+04</pdfrwt>
<pdfrwt beam="2">  1       -1 0.31124355E+00 0.23492428E+04</pdfrwt>
<totfact> 0.12181445E+00</totfact>
</mgrwt>
</event>
<event>
12    7  0.1735955E-007  0.1539011E+04  0.7818608E-02  0.8858918E-01
          2   -1    0    0  501    0  0.00000000000E+00  0.00000000000E+00  0.43227554963E+03  0.43227554963E+03  0.00000000000E+00 0. -1.
         -1   -1    0    0    0  501 -0.00000000000E+00 -0.00000000000E+00 -0.13698168594E+04  0.13698168594E+04  0.00000000000E+00 0.  1.
         24    2    1    2    0    0  0.40348355444E+03 -0.29845119648E+03 -0.19587110539E+03  0.54445440709E+03  0.78695718424E+02 0.  0.
        254    2    1    2    0    0 -0.40348355444E+03  0.29845119648E+03 -0.74167020443E+03  0.12576380020E+04  0.88300994134E+03 0.  0.
         23    2    4    4    0    0  0.75084536848E+02  0.18989724298E+03 -0.72471375711E+03  0.75831750545E+03  0.90203984202E+02 0.  0.
         23    2    4    4    0    0 -0.47856809128E+03  0.10855395350E+03 -0.16956447318E+02  0.49932049653E+03  0.90675566326E+02 0.  0.
          4    1    3    3  502    0  0.31067818611E+03 -0.26783977762E+03 -0.16205873551E+03  0.44104661381E+03  0.00000000000E+00 0. -1.
         -1    1    3    3    0  502  0.92805368327E+02 -0.30611418860E+02 -0.33812369877E+02  0.10340779328E+03  0.00000000000E+00 0.  1.
         13    1    5    5    0    0  0.65389451654E+00  0.35979440405E+02 -0.46012191228E+02  0.58412921956E+02  0.00000000000E+00 0.  1.
        -13    1    5    5    0    0  0.74430642332E+02  0.15391780257E+03 -0.67870156588E+03  0.69990458350E+03  0.00000000000E+00 0. -1.
          2    1    6    6  503    0 -0.39622010264E+03  0.11391507450E+03 -0.38407489686E+02  0.41405573200E+03  0.00000000000E+00 0. -1.
         -2    1    6    6    0  503 -0.82347988640E+02 -0.53611209912E+01  0.21451042367E+02  0.85264764528E+02  0.00000000000E+00 0.  1.
<mgrwt>
<rscale>  0 0.15390105E+04</rscale>
<asrwt>0</asrwt>
<pdfrwt beam="1">  1        2 0.66503932E-01 0.15390105E+04</pdfrwt>
<pdfrwt beam="2">  1       -1 0.21074105E+00 0.15390105E+04</pdfrwt>
<totfact> 0.10194202E+01</totfact>
</mgrwt>
</event>
<event>
12    7  0.1735955E-007  0.2624586E+04  0.7818608E-02  0.8359897E-01
          2   -1    0    0  501    0  0.00000000000E+00  0.00000000000E+00  0.15268067475E+04  0.15268067475E+04  0.00000000000E+00 0. -1.
         -1   -1    0    0    0  501 -0.00000000000E+00 -0.00000000000E+00 -0.11279182458E+04  0.11279182458E+04  0.00000000000E+00 0.  1.
         24    2    1    2    0    0 -0.10773549894E+03  0.99039195946E+03 -0.41869353992E+03  0.10835135010E+04  0.78829279446E+02 0.  0.
        254    2    1    2    0    0  0.10773549894E+03 -0.99039195946E+03  0.81758204160E+03  0.15712114924E+04  0.89876692635E+03 0.  0.
         23    2    4    4    0    0 -0.25140829997E+03 -0.90079713813E+03  0.70113119568E+03  0.11724005106E+04  0.91084501356E+02 0.  0.
         23    2    4    4    0    0  0.35914379891E+03 -0.89594821331E+02  0.11645084591E+03  0.39881098175E+03  0.92075508912E+02 0.  0.
          2    1    3    3  502    0 -0.17361339550E+02  0.33378955879E+03 -0.17548474210E+03  0.37750732493E+03  0.00000000000E+00 0. -1.
         -1    1    3    3    0  502 -0.90374159394E+02  0.65660240067E+03 -0.24320879782E+03  0.70600617602E+03  0.00000000000E+00 0.  1.
         13    1    5    5    0    0 -0.15652728438E+01 -0.11528535338E+02 -0.16420918939E+01  0.11749624331E+02  0.00000000000E+00 0. -1.
        -13    1    5    5    0    0 -0.24984302712E+03 -0.88926860279E+03  0.70277328758E+03  0.11606508863E+04  0.00000000000E+00 0.  1.
          3    1    6    6  503    0  0.79191241507E+02  0.15344960225E+02  0.40888048431E+02  0.90435352824E+02  0.00000000000E+00 0. -1.
         -3    1    6    6    0  503  0.27995255740E+03 -0.10493978156E+03  0.75562797481E+02  0.30837562892E+03  0.00000000000E+00 0.  1.
<mgrwt>
<rscale>  0 0.26245862E+04</rscale>
<asrwt>0</asrwt>
<pdfrwt beam="1">  1        2 0.23489335E+00 0.26245862E+04</pdfrwt>
<pdfrwt beam="2">  1       -1 0.17352588E+00 0.26245862E+04</pdfrwt>
<totfact> 0.28576613E+00</totfact>
</mgrwt>
</event>
<event>
12    7  0.1735955E-007  0.1868656E+04  0.7818608E-02  0.8670617E-01
         -1   -1    0    0    0  501 -0.00000000000E+00  0.00000000000E+00  0.34875543347E+03  0.34875543347E+03  0.00000000000E+00 0.  1.
          2   -1    0    0  501    0  0.00000000000E+00 -0.00000000000E+00 -0.25030986463E+04  0.25030986463E+04  0.00000000000E+00 0. -1.
         24    2    1    2    0    0  0.49732442471E+03  0.16339822137E+02 -0.46223097146E+02  0.50602898492E+03  0.79562463959E+02 0.  0.
        254    2    1    2    0    0 -0.49732442471E+03 -0.16339822137E+02 -0.21081201157E+04  0.23458250948E+04  0.90062554942E+03 0.  0.
         23    2    4    4    0    0 -0.55319018630E+03 -0.36053490496E+03 -0.12841152251E+04  0.14464300651E+04  0.84871798058E+02 0.  0.
         23    2    4    4    0    0  0.55865761590E+02  0.34419508282E+03 -0.82400489061E+03  0.89939502973E+03  0.91302362472E+02 0.  0.
          4    1    3    3  502    0  0.24737072830E+02  0.19164654114E+02 -0.16469064037E+01  0.31335587440E+02  0.00000000000E+00 0. -1.
         -3    1    3    3    0  502  0.47258735188E+03 -0.28248319768E+01 -0.44576190743E+02  0.47469339748E+03  0.00000000000E+00 0.  1.
         13    1    5    5    0    0 -0.55008031569E+03 -0.36458732289E+03 -0.12669628287E+04  0.14285331914E+04  0.00000000000E+00 0. -1.
        -13    1    5    5    0    0 -0.31098706093E+01  0.40524179320E+01 -0.17152396396E+02  0.17896873705E+02  0.00000000000E+00 0.  1.
          4    1    6    6  503    0  0.80693620139E+02  0.24452261777E+03 -0.57388329107E+03  0.62900302280E+03  0.00000000000E+00 0. -1.
         -4    1    6    6    0  503 -0.24827858549E+02  0.99672465057E+02 -0.25012159955E+03  0.27039200693E+03  0.00000000000E+00 0.  1.
<mgrwt>
<rscale>  0 0.18686565E+04</rscale>
<asrwt>0</asrwt>
<pdfrwt beam="1">  1        2 0.38509210E+00 0.18686565E+04</pdfrwt>
<pdfrwt beam="2">  1       -1 0.53654682E-01 0.18686565E+04</pdfrwt>
<totfact> 0.13002458E+01</totfact>
</mgrwt>
</event>
<event>
12    7  0.1735955E-007  0.1646204E+04  0.7818608E-02  0.8792655E-01
         -1   -1    0    0    0  501 -0.00000000000E+00  0.00000000000E+00  0.42802012729E+03  0.42802012729E+03  0.00000000000E+00 0.  1.
          2   -1    0    0  501    0  0.00000000000E+00 -0.00000000000E+00 -0.15828629605E+04  0.15828629605E+04  0.00000000000E+00 0. -1.
         24    2    1    2    0    0  0.35275299522E+03 -0.38552634543E+02 -0.96252964066E+03  0.10290339344E+04  0.80787051853E+02 0.  0.
        254    2    1    2    0    0 -0.35275299522E+03  0.38552634543E+02 -0.19231319254E+03  0.98184915337E+03  0.89505441995E+03 0.  0.
         23    2    4    4    0    0 -0.10741376950E+03 -0.57077116393E+02  0.34470315220E+03  0.37686931106E+03  0.91731670570E+02 0.  0.
         23    2    4    4    0    0 -0.24533922572E+03  0.95629750936E+02 -0.53701634473E+03  0.60497984231E+03  0.90981702289E+02 0.  0.
          4    1    3    3  502    0  0.25629093723E+03 -0.11465459842E+02 -0.77585800409E+03  0.81717326424E+03  0.00000000000E+00 0. -1.
         -3    1    3    3    0  502  0.96462057989E+02 -0.27087174700E+02 -0.18667163657E+03  0.21186067017E+03  0.00000000000E+00 0.  1.
         13    1    5    5    0    0 -0.30661030499E+02  0.51229661464E+01  0.19529161520E+03  0.19775024283E+03  0.00000000000E+00 0.  1.
        -13    1    5    5    0    0 -0.76752739004E+02 -0.62200082540E+02  0.14941153700E+03  0.17911906822E+03  0.00000000000E+00 0. -1.
          4    1    6    6  503    0 -0.71613603324E+02  0.41381423531E+02 -0.26569384573E+03  0.27826992302E+03  0.00000000000E+00 0. -1.
         -4    1    6    6    0  503 -0.17372562239E+03  0.54248327405E+02 -0.27132249900E+03  0.32670991929E+03  0.00000000000E+00 0.  1.
<mgrwt>
<rscale>  0 0.16462044E+04</rscale>
<asrwt>0</asrwt>
<pdfrwt beam="1">  1        2 0.24351738E+00 0.16462044E+04</pdfrwt>
<pdfrwt beam="2">  1       -1 0.65849250E-01 0.16462044E+04</pdfrwt>
<totfact> 0.29013013E+01</totfact>
</mgrwt>
</event>
<event>
12    7  0.1735955E-007  0.1192156E+04  0.7818608E-02  0.9119750E-01
          2   -1    0    0  501    0  0.00000000000E+00  0.00000000000E+00  0.48194783603E+04  0.48194783603E+04  0.00000000000E+00 0. -1.
         -1   -1    0    0    0  501 -0.00000000000E+00 -0.00000000000E+00 -0.73723521624E+02  0.73723521624E+02  0.00000000000E+00 0.  1.
         24    2    1    2    0    0 -0.66000430932E+02  0.11809998682E+03  0.18666738308E+04  0.18732664310E+04  0.79701112463E+02 0.  0.
        254    2    1    2    0    0  0.66000430932E+02 -0.11809998682E+03  0.28790810079E+04  0.30199354509E+04  0.90144274016E+03 0.  0.
         23    2    4    4    0    0  0.43516582394E+03 -0.34545221660E+02  0.91951301287E+03  0.10220655444E+04  0.92472318163E+02 0.  0.
         23    2    4    4    0    0 -0.36916539300E+03 -0.83554765161E+02  0.19595679951E+04  0.19978699065E+04  0.91175379528E+02 0.  0.
          4    1    3    3  502    0 -0.14043096771E+02  0.90255351596E+02  0.13831135756E+04  0.13861264012E+04  0.00000000000E+00 0. -1.
         -3    1    3    3    0  502 -0.51957334162E+02  0.27844635226E+02  0.48356025519E+03  0.48714002985E+03  0.00000000000E+00 0.  1.
         13    1    5    5    0    0  0.39813034139E+02 -0.89036331387E+01  0.16374308251E+03  0.16874877612E+03  0.00000000000E+00 0. -1.
        -13    1    5    5    0    0  0.39535278980E+03 -0.25641588521E+02  0.75576993035E+03  0.85331676832E+03  0.00000000000E+00 0.  1.
          2    1    6    6  503    0 -0.56680308173E+02 -0.48360965762E+02  0.34262210570E+03  0.35062992978E+03  0.00000000000E+00 0. -1.
         -2    1    6    6    0  503 -0.31248508483E+03 -0.35193799399E+02  0.16169458894E+04  0.16472399767E+04  0.00000000000E+00 0.  1.
<mgrwt>
<rscale>  0 0.11921559E+04</rscale>
<asrwt>0</asrwt>
<pdfrwt beam="1">  1        2 0.74145797E+00 0.11921559E+04</pdfrwt>
<pdfrwt beam="2">  1       -1 0.11342084E-01 0.11921559E+04</pdfrwt>
<totfact> 0.35297339E+00</totfact>
</mgrwt>
</event>
<event>
12    7  0.1735955E-007  0.2198956E+04  0.7818608E-02  0.8518863E-01
          2   -1    0    0  501    0  0.00000000000E+00  0.00000000000E+00  0.19564462888E+04  0.19564462888E+04  0.00000000000E+00 0. -1.
         -1   -1    0    0    0  501 -0.00000000000E+00 -0.00000000000E+00 -0.61788136281E+03  0.61788136281E+03  0.00000000000E+00 0.  1.
         24    2    1    2    0    0  0.69632213172E+03 -0.56010900683E+03  0.33541008742E+03  0.95783335010E+03  0.79738254002E+02 0.  0.
        254    2    1    2    0    0 -0.69632213172E+03  0.56010900683E+03  0.10031548385E+04  0.16164943015E+04  0.89897029203E+03 0.  0.
         23    2    4    4    0    0 -0.66795058179E+03  0.44074109921E+03  0.11507997450E+04  0.14045932427E+04  0.90174431105E+02 0.  0.
         23    2    4    4    0    0 -0.28371549932E+02  0.11936790763E+03 -0.14764490645E+03  0.21190105881E+03  0.89718437957E+02 0.  0.
          4    1    3    3  502    0  0.40044348435E+03 -0.29058770846E+03  0.15210762770E+03  0.51762238250E+03  0.00000000000E+00 0. -1.
         -3    1    3    3    0  502  0.29587864738E+03 -0.26952129838E+03  0.18330245972E+03  0.44021096760E+03  0.00000000000E+00 0.  1.
         13    1    5    5    0    0 -0.54653943694E+01  0.92818129585E+01  0.38299604863E+02  0.39785453624E+02  0.00000000000E+00 0.  1.
        -13    1    5    5    0    0 -0.66248518742E+03  0.43145928625E+03  0.11125001401E+04  0.13648077890E+04  0.00000000000E+00 0. -1.
          4    1    6    6  503    0 -0.55917427784E+02  0.73577692739E+02 -0.12081266187E+03  0.15210567007E+03  0.00000000000E+00 0. -1.
         -4    1    6    6    0  503  0.27545877852E+02  0.45790214887E+02 -0.26832244578E+02  0.59795388745E+02  0.00000000000E+00 0.  1.
<mgrwt>
<rscale>  0 0.21989558E+04</rscale>
<asrwt>0</asrwt>
<pdfrwt beam="1">  1        2 0.30099174E+00 0.21989558E+04</pdfrwt>
<pdfrwt beam="2">  1       -1 0.95058672E-01 0.21989558E+04</pdfrwt>
<totfact> 0.78596501E+00</totfact>
</mgrwt>
</event>
<event>
12    7  0.1735955E-007  0.1259171E+04  0.7818608E-02  0.9062585E-01
         -1   -1    0    0    0  501 -0.00000000000E+00  0.00000000000E+00  0.13929406430E+04  0.13929406430E+04  0.00000000000E+00 0.  1.
          2   -1    0    0  501    0  0.00000000000E+00 -0.00000000000E+00 -0.28456189002E+03  0.28456189002E+03  0.00000000000E+00 0. -1.
         24    2    1    2    0    0  0.10282209500E+03  0.23515989560E+01  0.64986440545E+03  0.66301717261E+03  0.81793107705E+02 0.  0.
        254    2    1    2    0    0 -0.10282209500E+03 -0.23515989560E+01  0.45851434755E+03  0.10144853604E+04  0.89909244595E+03 0.  0.
         23    2    4    4    0    0  0.19700320287E+03 -0.49828040888E+02 -0.18953021856E+03  0.29354577595E+03  0.94627285859E+02 0.  0.
         23    2    4    4    0    0 -0.29982529787E+03  0.47476441932E+02  0.64804456611E+03  0.72093958448E+03  0.87423698293E+02 0.  0.
          2    1    3    3  502    0 -0.12033907822E+02 -0.89908466281E+01  0.10448758679E+03  0.10556185890E+03  0.00000000000E+00 0. -1.
         -1    1    3    3    0  502  0.11485600282E+03  0.11342445584E+02  0.54537681866E+03  0.55745531371E+03  0.00000000000E+00 0.  1.
         13    1    5    5    0    0  0.83630081308E+02  0.21741327325E+02 -0.49078540355E+02  0.99374941192E+02  0.00000000000E+00 0. -1.
        -13    1    5    5    0    0  0.11337312156E+03 -0.71569368212E+02 -0.14045167820E+03  0.19417083475E+03  0.00000000000E+00 0.  1.
          2    1    6    6  503    0 -0.25980294605E+02  0.60554387347E+00  0.15974475145E+02  0.30504528308E+02  0.00000000000E+00 0. -1.
         -2    1    6    6    0  503 -0.27384500327E+03  0.46870898058E+02  0.63207009097E+03  0.69043505617E+03  0.00000000000E+00 0.  1.
<mgrwt>
<rscale>  0 0.12591709E+04</rscale>
<asrwt>0</asrwt>
<pdfrwt beam="1">  1        2 0.43778753E-01 0.12591709E+04</pdfrwt>
<pdfrwt beam="2">  1       -1 0.21429856E+00 0.12591709E+04</pdfrwt>
<totfact> 0.15775415E+01</totfact>
</mgrwt>
</event>
<event>
12    7  0.1735955E-007  0.1384970E+04  0.7818608E-02  0.8964771E-01
         -1   -1    0    0    0  501 -0.00000000000E+00  0.00000000000E+00  0.14244287310E+03  0.14244287310E+03  0.00000000000E+00 0.  1.
          2   -1    0    0  501    0  0.00000000000E+00 -0.00000000000E+00 -0.33665090957E+04  0.33665090957E+04  0.00000000000E+00 0. -1.
         24    2    1    2    0    0 -0.30607687555E+03 -0.26614485040E+03 -0.10402004461E+04  0.11192414327E+04  0.78538408617E+02 0.  0.
        254    2    1    2    0    0  0.30607687555E+03  0.26614485040E+03 -0.21838657766E+04  0.23897105361E+04  0.88143665742E+03 0.  0.
         23    2    4    4    0    0 -0.29231046773E+03  0.17954012659E+03 -0.69565733456E+03  0.78080182749E+03  0.89623100203E+02 0.  0.
         23    2    4    4    0    0  0.59838734328E+03  0.86604723803E+02 -0.14882084420E+04  0.16089087086E+04  0.90857442878E+02 0.  0.
          2    1    3    3  502    0 -0.10225659077E+03 -0.49892114117E+02 -0.34207542774E+03  0.36050136154E+03  0.00000000000E+00 0. -1.
         -1    1    3    3    0  502 -0.20382028478E+03 -0.21625273628E+03 -0.69812501832E+03  0.75874007120E+03  0.00000000000E+00 0.  1.
         13    1    5    5    0    0 -0.26481404704E+03  0.13420757526E+03 -0.62970765768E+03  0.69618236613E+03  0.00000000000E+00 0.  1.
        -13    1    5    5    0    0 -0.27496420682E+02  0.45332551334E+02 -0.65949676873E+02  0.84619461357E+02  0.00000000000E+00 0. -1.
          3    1    6    6  503    0  0.23342755522E+03  0.72474152405E+02 -0.53773923952E+03  0.59068131512E+03  0.00000000000E+00 0. -1.
         -3    1    6    6    0  503  0.36495978806E+03  0.14130571398E+02 -0.95046920247E+03  0.10182273935E+04  0.00000000000E+00 0.  1.
<mgrwt>
<rscale>  0 0.13849696E+04</rscale>
<asrwt>0</asrwt>
<pdfrwt beam="1">  1        2 0.51792448E+00 0.13849696E+04</pdfrwt>
<pdfrwt beam="2">  1       -1 0.21914288E-01 0.13849696E+04</pdfrwt>
<totfact> 0.19851468E+01</totfact>
</mgrwt>
</event>
<event>
12    7  0.1735955E-007  0.1546381E+04  0.7818608E-02  0.8854183E-01
          2   -1    0    0  501    0  0.00000000000E+00  0.00000000000E+00  0.17017276148E+04  0.17017276148E+04  0.00000000000E+00 0. -1.
         -1   -1    0    0    0  501 -0.00000000000E+00 -0.00000000000E+00 -0.35130389576E+03  0.35130389576E+03  0.00000000000E+00 0.  1.
         24    2    1    2    0    0 -0.45811352143E+03  0.11891348239E+03  0.44429855289E+03  0.65424796065E+03  0.81429571455E+02 0.  0.
        254    2    1    2    0    0  0.45811352143E+03 -0.11891348239E+03  0.90612516619E+03  0.13987835499E+04  0.95473775874E+03 0.  0.
         23    2    4    4    0    0  0.31816022196E+03 -0.18695113406E+03  0.10817045647E+04  0.11465472631E+04  0.91154856441E+02 0.  0.
         23    2    4    4    0    0  0.13995329947E+03  0.68037651671E+02 -0.17557939853E+03  0.25223628683E+03  0.92622735480E+02 0.  0.
          4    1    3    3  502    0 -0.44833477214E+03  0.12693429918E+03  0.44005026956E+03  0.64090609605E+03  0.00000000000E+00 0. -1.
         -3    1    3    3    0  502 -0.97787492952E+01 -0.80208167937E+01  0.42482833286E+01  0.13341864602E+02  0.00000000000E+00 0.  1.
         13    1    5    5    0    0 -0.59625526326E+01 -0.39081134136E+00  0.21594184568E+02  0.22405659432E+02  0.00000000000E+00 0. -1.
        -13    1    5    5    0    0  0.32412277459E+03 -0.18656032272E+03  0.10601103801E+04  0.11241416037E+04  0.00000000000E+00 0.  1.
          2    1    6    6  503    0  0.69557938970E+02  0.52842163680E+02 -0.34654483688E+02  0.93976243678E+02  0.00000000000E+00 0. -1.
         -2    1    6    6    0  503  0.70395360503E+02  0.15195487991E+02 -0.14092491484E+03  0.15826004315E+03  0.00000000000E+00 0.  1.
<mgrwt>
<rscale>  0 0.15463810E+04</rscale>
<asrwt>0</asrwt>
<pdfrwt beam="1">  1        2 0.26180424E+00 0.15463810E+04</pdfrwt>
<pdfrwt beam="2">  1       -1 0.54046754E-01 0.15463810E+04</pdfrwt>
<totfact> 0.37096624E+01</totfact>
</mgrwt>
</event>
<event>
12    7  0.1735955E-007  0.1321059E+04  0.7818608E-02  0.9013030E-01
         -1   -1    0    0    0  501 -0.00000000000E+00  0.00000000000E+00  0.68631884641E+03  0.68631884641E+03  0.00000000000E+00 0.  1.
          2   -1    0    0  501    0  0.00000000000E+00 -0.00000000000E+00 -0.63570916019E+03  0.63570916019E+03  0.00000000000E+00 0. -1.
         24    2    1    2    0    0 -0.23239034822E+03 -0.11010888328E+03 -0.22215848676E+03  0.34900596983E+03  0.79508072618E+02 0.  0.
        254    2    1    2    0    0  0.23239034822E+03  0.11010888328E+03  0.27276817298E+03  0.97302203678E+03  0.89790877473E+03 0.  0.
         23    2    4    4    0    0  0.86500483957E+02  0.17258049722E+03 -0.30232095096E+03  0.36945842403E+03  0.88516709995E+02 0.  0.
         23    2    4    4    0    0  0.14588986427E+03 -0.62471613947E+02  0.57508912395E+03  0.60356361275E+03  0.91514911930E+02 0.  0.
          2    1    3    3  502    0 -0.10181593366E+03 -0.45304908364E+02 -0.14854967360E+03  0.18570413188E+03  0.00000000000E+00 0. -1.
         -1    1    3    3    0  502 -0.13057441456E+03 -0.64803974914E+02 -0.73608813154E+02  0.16330183795E+03  0.00000000000E+00 0.  1.
         13    1    5    5    0    0  0.32245940511E+02  0.13923992964E+01 -0.37302066797E+02  0.49327311325E+02  0.00000000000E+00 0. -1.
        -13    1    5    5    0    0  0.54254543445E+02  0.17118809793E+03 -0.26501888417E+03  0.32013111271E+03  0.00000000000E+00 0.  1.
          1    1    6    6  503    0  0.11890030608E+02 -0.35376850399E+02  0.60168875335E+02  0.70803869464E+02  0.00000000000E+00 0. -1.
         -1    1    6    6    0  503  0.13399983366E+03 -0.27094763548E+02  0.51492024861E+03  0.53275974328E+03  0.00000000000E+00 0.  1.
<mgrwt>
<rscale>  0 0.13210589E+04</rscale>
<asrwt>0</asrwt>
<pdfrwt beam="1">  1        2 0.97801409E-01 0.13210589E+04</pdfrwt>
<pdfrwt beam="2">  1       -1 0.10558752E+00 0.13210589E+04</pdfrwt>
<totfact> 0.43451959E+01</totfact>
</mgrwt>
</event>
<event>
12    7  0.1735955E-007  0.1461624E+04  0.7818608E-02  0.8910382E-01
          4   -1    0    0  501    0  0.00000000000E+00  0.00000000000E+00  0.76548378512E+03  0.76548378512E+03  0.00000000000E+00 0. -1.
         -3   -1    0    0    0  501 -0.00000000000E+00 -0.00000000000E+00 -0.69771032567E+03  0.69771032567E+03  0.00000000000E+00 0.  1.
         24    2    1    2    0    0  0.10513823881E+03  0.35307826639E+03 -0.22260112939E+03  0.43681351681E+03  0.74407487566E+02 0.  0.
        254    2    1    2    0    0 -0.10513823881E+03 -0.35307826639E+03  0.29037458884E+03  0.10263805940E+04  0.91291916969E+03 0.  0.
         23    2    4    4    0    0  0.32754728713E+03 -0.20379818286E+03  0.38302728510E+03  0.55113146672E+03  0.90637011387E+02 0.  0.
         23    2    4    4    0    0 -0.43268552594E+03 -0.14928008353E+03 -0.92652696262E+02  0.47524912725E+03  0.88181081483E+02 0.  0.
          4    1    3    3  502    0  0.52945844155E+02  0.10916066703E+03 -0.10750625540E+03  0.16210153790E+03  0.00000000000E+00 0. -1.
         -3    1    3    3    0  502  0.52192394654E+02  0.24391759936E+03 -0.11509487399E+03  0.27471197891E+03  0.00000000000E+00 0.  1.
         13    1    5    5    0    0  0.32997432354E+03 -0.18951831130E+03  0.35941459830E+03  0.52343012712E+03  0.00000000000E+00 0. -1.
        -13    1    5    5    0    0 -0.24270364012E+01 -0.14279871561E+02  0.23612686807E+02  0.27701339601E+02  0.00000000000E+00 0.  1.
          3    1    6    6  503    0 -0.19990132644E+03 -0.10336505738E+03 -0.14785539232E+02  0.22552934969E+03  0.00000000000E+00 0. -1.
         -3    1    6    6    0  503 -0.23278419950E+03 -0.45915026154E+02 -0.77867157030E+02  0.24971977757E+03  0.00000000000E+00 0.  1.
<mgrwt>
<rscale>  0 0.14616237E+04</rscale>
<asrwt>0</asrwt>
<pdfrwt beam="1">  1        4 0.11776674E+00 0.14616237E+04</pdfrwt>
<pdfrwt beam="2">  1       -3 0.10734005E+00 0.14616237E+04</pdfrwt>
<totfact> 0.90881999E-01</totfact>
</mgrwt>
</event>
<event>
12    7  0.1735955E-007  0.2805829E+04  0.7818608E-02  0.8301461E-01
         -3   -1    0    0    0  501 -0.00000000000E+00  0.00000000000E+00  0.96817353891E+03  0.96817353891E+03  0.00000000000E+00 0.  1.
          4   -1    0    0  501    0  0.00000000000E+00 -0.00000000000E+00 -0.20328684396E+04  0.20328684396E+04  0.00000000000E+00 0. -1.
         24    2    1    2    0    0 -0.93584456214E+03 -0.81696212864E+03 -0.28615541646E+03  0.12767908145E+04  0.71257964270E+02 0.  0.
        254    2    1    2    0    0  0.93584456214E+03  0.81696212864E+03 -0.77853948428E+03  0.17242511641E+04  0.90757158620E+03 0.  0.
         23    2    4    4    0    0 -0.12465025297E+03  0.47188827738E+02  0.48792574847E+02  0.17198350296E+03  0.97124347627E+02 0.  0.
         23    2    4    4    0    0  0.10604948151E+04  0.76977330091E+03 -0.82733205912E+03  0.15522676611E+04  0.88636155158E+02 0.  0.
          4    1    3    3  502    0 -0.66972649594E+02 -0.43522329095E+02 -0.32356207859E+02  0.86176871088E+02  0.00000000000E+00 0. -1.
         -3    1    3    3    0  502 -0.86887191254E+03 -0.77343979955E+03 -0.25379920860E+03  0.11906139434E+04  0.00000000000E+00 0.  1.
         13    1    5    5    0    0 -0.95335121746E+02  0.75791603873E+02  0.24082494013E+02  0.12414958387E+03  0.00000000000E+00 0. -1.
        -13    1    5    5    0    0 -0.29315131223E+02 -0.28602776135E+02  0.24710080834E+02  0.47833919096E+02  0.00000000000E+00 0.  1.
          4    1    6    6  503    0  0.39206207061E+03  0.27910913110E+03 -0.25409823012E+03  0.54422466392E+03  0.00000000000E+00 0. -1.
         -4    1    6    6    0  503  0.66843274449E+03  0.49066416981E+03 -0.57323382901E+03  0.10080429972E+04  0.00000000000E+00 0.  1.
<mgrwt>
<rscale>  0 0.28058292E+04</rscale>
<asrwt>0</asrwt>
<pdfrwt beam="1">  1        4 0.31274899E+00 0.28058292E+04</pdfrwt>
<pdfrwt beam="2">  1       -3 0.14894978E+00 0.28058292E+04</pdfrwt>
<totfact> 0.16637942E-02</totfact>
</mgrwt>
</event>
<event>
12    7  0.1735955E-007  0.2173034E+04  0.7818608E-02  0.8529737E-01
         -1   -1    0    0    0  501 -0.00000000000E+00  0.00000000000E+00  0.36224802874E+03  0.36224802874E+03  0.00000000000E+00 0.  1.
          2   -1    0    0  501    0  0.00000000000E+00 -0.00000000000E+00 -0.32588693404E+04  0.32588693404E+04  0.00000000000E+00 0. -1.
         24    2    1    2    0    0 -0.45658918458E+03 -0.44143604179E+02  0.97582492449E+02  0.47573377149E+03  0.79861988694E+02 0.  0.
        254    2    1    2    0    0  0.45658918458E+03  0.44143604179E+02 -0.29942038041E+04  0.31453835976E+04  0.84720671302E+03 0.  0.
         23    2    4    4    0    0  0.46782573748E+03 -0.13546930135E+03 -0.28629400830E+04  0.29058503288E+04  0.10162362984E+03 0.  0.
         23    2    4    4    0    0 -0.11236552901E+02  0.17961290553E+03 -0.13126372106E+03  0.23953326883E+03  0.88084995629E+02 0.  0.
          2    1    3    3  502    0 -0.59890068129E+01  0.93039504638E+01 -0.18228683125E+01  0.11214033428E+02  0.00000000000E+00 0. -1.
         -1    1    3    3    0  502 -0.45060017777E+03 -0.53447554643E+02  0.99405360761E+02  0.46451973806E+03  0.00000000000E+00 0.  1.
         13    1    5    5    0    0  0.24585757277E+02 -0.92198176723E+01 -0.63295229480E+02  0.68525546869E+02  0.00000000000E+00 0. -1.
        -13    1    5    5    0    0  0.44323998021E+03 -0.12624948368E+03 -0.27996448536E+04  0.28373247820E+04  0.00000000000E+00 0.  1.
          4    1    6    6  503    0 -0.17315912656E+02  0.46308885380E+02  0.39025925408E+01  0.49594192450E+02  0.00000000000E+00 0. -1.
         -4    1    6    6    0  503  0.60793597555E+01  0.13330402015E+03 -0.13516631360E+03  0.18993907638E+03  0.00000000000E+00 0.  1.
<mgrwt>
<rscale>  0 0.21730338E+04</rscale>
<asrwt>0</asrwt>
<pdfrwt beam="1">  1        2 0.50136450E+00 0.21730338E+04</pdfrwt>
<pdfrwt beam="2">  1       -1 0.55730467E-01 0.21730338E+04</pdfrwt>
<totfact> 0.40364629E+00</totfact>
</mgrwt>
</event>
<event>
12    7  0.1735955E-007  0.1397651E+04  0.7818608E-02  0.8955521E-01
         -1   -1    0    0    0  501 -0.00000000000E+00  0.00000000000E+00  0.19489340942E+04  0.19489340942E+04  0.00000000000E+00 0.  1.
          2   -1    0    0  501    0  0.00000000000E+00 -0.00000000000E+00 -0.25057638250E+03  0.25057638250E+03  0.00000000000E+00 0. -1.
         24    2    1    2    0    0 -0.32380424174E+03  0.21929189563E+03  0.33648717611E+03  0.52206642356E+03  0.79947535667E+02 0.  0.
        254    2    1    2    0    0  0.32380424174E+03 -0.21929189563E+03  0.13618705355E+04  0.16774440531E+04  0.89788032234E+03 0.  0.
         23    2    4    4    0    0  0.10004881182E+03 -0.94881614269E+02  0.13940583448E+04  0.14039371570E+04  0.92890186040E+02 0.  0.
         23    2    4    4    0    0  0.22375542992E+03 -0.12441028136E+03 -0.32187809282E+02  0.27350689607E+03  0.90694854321E+02 0.  0.
          2    1    3    3  502    0 -0.24802415686E+03  0.13122219823E+03  0.21120152336E+03  0.35119984506E+03  0.00000000000E+00 0. -1.
         -1    1    3    3    0  502 -0.75780084877E+02  0.88069697399E+02  0.12528565275E+03  0.17086657850E+03  0.00000000000E+00 0.  1.
         13    1    5    5    0    0  0.11224867979E+03 -0.60508335232E+02  0.11701132266E+04  0.11770412005E+04  0.00000000000E+00 0. -1.
        -13    1    5    5    0    0 -0.12199867969E+02 -0.34373279037E+02  0.22394511826E+03  0.22689595652E+03  0.00000000000E+00 0.  1.
          2    1    6    6  503    0  0.16290550062E+03 -0.12145481599E+03 -0.51453778714E+02  0.20961146392E+03  0.00000000000E+00 0. -1.
         -2    1    6    6    0  503  0.60849929301E+02 -0.29554653689E+01  0.19265969432E+02  0.63895432150E+02  0.00000000000E+00 0.  1.
<mgrwt>
<rscale>  0 0.13976507E+04</rscale>
<asrwt>0</asrwt>
<pdfrwt beam="1">  1        2 0.38550214E-01 0.13976507E+04</pdfrwt>
<pdfrwt beam="2">  1       -1 0.29983601E+00 0.13976507E+04</pdfrwt>
<totfact> 0.49754521E+00</totfact>
</mgrwt>
</event>
<event>
12    7  0.1735955E-007  0.1490433E+04  0.7818608E-02  0.8890840E-01
          4   -1    0    0  501    0  0.00000000000E+00  0.00000000000E+00  0.10456924084E+04  0.10456924084E+04  0.00000000000E+00 0. -1.
         -3   -1    0    0    0  501 -0.00000000000E+00 -0.00000000000E+00 -0.53108149959E+03  0.53108149959E+03  0.00000000000E+00 0.  1.
         24    2    1    2    0    0  0.26210820922E+03  0.12310209859E+03  0.54839453457E+03  0.62505519121E+03  0.78119053310E+02 0.  0.
        254    2    1    2    0    0 -0.26210820922E+03 -0.12310209859E+03 -0.33783625751E+02  0.95171871679E+03  0.90596486825E+03 0.  0.
         23    2    4    4    0    0 -0.50992728870E+03 -0.22494696682E+03  0.18507803153E+03  0.59373423072E+03  0.87404126540E+02 0.  0.
         23    2    4    4    0    0  0.24781907948E+03  0.10184486822E+03 -0.21886165728E+03  0.35798448606E+03  0.92009748916E+02 0.  0.
          4    1    3    3  502    0  0.20104435510E+03  0.12321490304E+03  0.46853994123E+03  0.52452876144E+03  0.00000000000E+00 0. -1.
         -3    1    3    3    0  502  0.61063854114E+02 -0.11280444659E+00  0.79854593347E+02  0.10052642977E+03  0.00000000000E+00 0.  1.
         13    1    5    5    0    0 -0.48728277172E+03 -0.22476954515E+03  0.19218369867E+03  0.57000037024E+03  0.00000000000E+00 0. -1.
        -13    1    5    5    0    0 -0.22644516982E+02 -0.17742166553E+00 -0.71056671420E+01  0.23733860481E+02  0.00000000000E+00 0.  1.
          1    1    6    6  503    0  0.21857120594E+03  0.53003459090E+02 -0.15940355563E+03  0.27566688646E+03  0.00000000000E+00 0. -1.
         -1    1    6    6    0  503  0.29247873540E+02  0.48841409133E+02 -0.59458101650E+02  0.82317599604E+02  0.00000000000E+00 0.  1.
<mgrwt>
<rscale>  0 0.14904333E+04</rscale>
<asrwt>0</asrwt>
<pdfrwt beam="1">  1        4 0.16087575E+00 0.14904333E+04</pdfrwt>
<pdfrwt beam="2">  1       -3 0.81704847E-01 0.14904333E+04</pdfrwt>
<totfact> 0.75572378E-01</totfact>
</mgrwt>
</event>
<event>
12    7  0.1735955E-007  0.1157808E+04  0.7818608E-02  0.9150610E-01
         -3   -1    0    0    0  501 -0.00000000000E+00  0.00000000000E+00  0.10659617242E+03  0.10659617242E+03  0.00000000000E+00 0.  1.
          2   -1    0    0  501    0  0.00000000000E+00 -0.00000000000E+00 -0.31439199559E+04  0.31439199559E+04  0.00000000000E+00 0. -1.
         24    2    1    2    0    0  0.17261665614E+03 -0.60414655378E+02 -0.24118000452E+03  0.31329140736E+03  0.80853390672E+02 0.  0.
        254    2    1    2    0    0 -0.17261665614E+03  0.60414655378E+02 -0.27961437790E+04  0.29372247210E+04  0.88058082438E+03 0.  0.
         23    2    4    4    0    0 -0.20709746695E+03 -0.38323829299E+03 -0.13658617931E+04  0.14362620282E+04  0.86655789343E+02 0.  0.
         23    2    4    4    0    0  0.34480810815E+02  0.44365294837E+03 -0.14302819859E+04  0.15009626927E+04  0.95737040997E+02 0.  0.
          2    1    3    3  502    0  0.43678223054E+01 -0.18358959672E+02 -0.37038594755E+01  0.19231428624E+02  0.00000000000E+00 0. -1.
         -1    1    3    3    0  502  0.16824883383E+03 -0.42055695706E+02 -0.23747614505E+03  0.29405997874E+03  0.00000000000E+00 0.  1.
         13    1    5    5    0    0 -0.76137946684E+02 -0.17175311700E+03 -0.72133446532E+03  0.74539890728E+03  0.00000000000E+00 0.  1.
        -13    1    5    5    0    0 -0.13095952027E+03 -0.21148517599E+03 -0.64452732777E+03  0.69086312093E+03  0.00000000000E+00 0. -1.
          2    1    6    6  503    0  0.26362303225E+02  0.43767196852E+03 -0.13352737152E+04  0.14054207973E+04  0.00000000000E+00 0. -1.
         -2    1    6    6    0  503  0.81185075900E+01  0.59809798552E+01 -0.95008270705E+02  0.95541895459E+02  0.00000000000E+00 0.  1.
<mgrwt>
<rscale>  0 0.11578080E+04</rscale>
<asrwt>0</asrwt>
<pdfrwt beam="1">  1        2 0.48367999E+00 0.11578080E+04</pdfrwt>
<pdfrwt beam="2">  1       -3 0.16399411E-01 0.11578080E+04</pdfrwt>
<totfact> 0.30468956E+01</totfact>
</mgrwt>
</event>
<event>
12    7  0.1735955E-007  0.1674933E+04  0.7818608E-02  0.8775792E-01
         -1   -1    0    0    0  501 -0.00000000000E+00  0.00000000000E+00  0.23579367005E+03  0.23579367005E+03  0.00000000000E+00 0.  1.
          2   -1    0    0  501    0  0.00000000000E+00 -0.00000000000E+00 -0.29744220161E+04  0.29744220161E+04  0.00000000000E+00 0. -1.
         24    2    1    2    0    0 -0.70241640810E+02  0.26565784945E+03  0.27989172425E+02  0.28748575869E+03  0.79728831664E+02 0.  0.
        254    2    1    2    0    0  0.70241640810E+02 -0.26565784945E+03 -0.27666175185E+04  0.29227299275E+04  0.90148197667E+03 0.  0.
         23    2    4    4    0    0  0.63316958748E+02 -0.57861284115E+03 -0.20961551260E+04  0.21772708819E+04  0.88545601578E+02 0.  0.
         23    2    4    4    0    0  0.69246820618E+01  0.31295499170E+03 -0.67046239250E+03  0.74545904561E+03  0.90557113959E+02 0.  0.
          4    1    3    3  502    0  0.17131676720E+02  0.59642050720E+02  0.11413600100E+02  0.63094681460E+02  0.00000000000E+00 0. -1.
         -3    1    3    3    0  502 -0.87373317529E+02  0.20601579873E+03  0.16575572325E+02  0.22439107723E+03  0.00000000000E+00 0.  1.
         13    1    5    5    0    0  0.61500906344E+02 -0.55535325919E+03 -0.19223330947E+04  0.20018901396E+04  0.00000000000E+00 0. -1.
        -13    1    5    5    0    0  0.18160524036E+01 -0.23259581956E+02 -0.17382203128E+03  0.17538074226E+03  0.00000000000E+00 0.  1.
          4    1    6    6  503    0 -0.21584964320E+02  0.19945358116E+03 -0.33864030732E+03  0.39360500437E+03  0.00000000000E+00 0. -1.
         -4    1    6    6    0  503  0.28509646382E+02  0.11350141053E+03 -0.33182208518E+03  0.35185404125E+03  0.00000000000E+00 0.  1.
<mgrwt>
<rscale>  0 0.16749327E+04</rscale>
<asrwt>0</asrwt>
<pdfrwt beam="1">  1        2 0.45760341E+00 0.16749327E+04</pdfrwt>
<pdfrwt beam="2">  1       -1 0.36275947E-01 0.16749327E+04</pdfrwt>
<totfact> 0.14338044E+01</totfact>
</mgrwt>
</event>
<event>
12    7  0.1735955E-007  0.1226968E+04  0.7818608E-02  0.9089574E-01
         -1   -1    0    0    0  501 -0.00000000000E+00  0.00000000000E+00  0.20394042488E+03  0.20394042488E+03  0.00000000000E+00 0.  1.
          2   -1    0    0  501    0  0.00000000000E+00 -0.00000000000E+00 -0.18454539003E+04  0.18454539003E+04  0.00000000000E+00 0. -1.
         24    2    1    2    0    0  0.72232252535E+02  0.38824620134E+02 -0.96509263103E+03  0.97175161395E+03  0.78565662410E+02 0.  0.
        254    2    1    2    0    0 -0.72232252535E+02 -0.38824620134E+02 -0.67642084436E+03  0.10776427112E+04  0.83489149288E+03 0.  0.
         23    2    4    4    0    0 -0.19172325860E+03 -0.35541463114E+03 -0.14119741074E+03  0.43765864762E+03  0.92363494513E+02 0.  0.
         23    2    4    4    0    0  0.11949100607E+03  0.31659001101E+03 -0.53522343362E+03  0.63998406358E+03  0.92780074064E+02 0.  0.
          2    1    3    3  502    0  0.76485718412E+02  0.23206826669E+02 -0.49757615450E+03  0.50395500935E+03  0.00000000000E+00 0. -1.
         -3    1    3    3    0  502 -0.42534658776E+01  0.15617793465E+02 -0.46751647653E+03  0.46779660460E+03  0.00000000000E+00 0.  1.
         13    1    5    5    0    0 -0.83207067121E+02 -0.18655721199E+03 -0.25171656820E+02  0.20581696157E+03  0.00000000000E+00 0.  1.
        -13    1    5    5    0    0 -0.10851619148E+03 -0.16885741916E+03 -0.11602575392E+03  0.23184168605E+03  0.00000000000E+00 0. -1.
          4    1    6    6  503    0  0.38280110408E+02  0.21777449069E+03 -0.30660391284E+03  0.37801726815E+03  0.00000000000E+00 0. -1.
         -4    1    6    6    0  503  0.81210895658E+02  0.98815520317E+02 -0.22861952078E+03  0.26196679544E+03  0.00000000000E+00 0.  1.
<mgrwt>
<rscale>  0 0.12269681E+04</rscale>
<asrwt>0</asrwt>
<pdfrwt beam="1">  1        2 0.28391597E+00 0.12269681E+04</pdfrwt>
<pdfrwt beam="2">  1       -1 0.31375451E-01 0.12269681E+04</pdfrwt>
<totfact> 0.86171855E+01</totfact>
</mgrwt>
</event>
<event>
12    7  0.1735955E-007  0.1374923E+04  0.7818608E-02  0.8972173E-01
          2   -1    0    0  501    0  0.00000000000E+00  0.00000000000E+00  0.24801207737E+04  0.24801207737E+04  0.00000000000E+00 0. -1.
         -1   -1    0    0    0  501 -0.00000000000E+00 -0.00000000000E+00 -0.19055654699E+03  0.19055654699E+03  0.00000000000E+00 0.  1.
         24    2    1    2    0    0 -0.15290339006E+03  0.33770083450E+03  0.42175342811E+03  0.56714237744E+03  0.79707100364E+02 0.  0.
        254    2    1    2    0    0  0.15290339006E+03 -0.33770083450E+03  0.18678107986E+04  0.21035349432E+04  0.89371179795E+03 0.  0.
         23    2    4    4    0    0 -0.18968893217E+03 -0.52398935181E+03  0.11364606281E+04  0.12697116125E+04  0.10038967998E+03 0.  0.
         23    2    4    4    0    0  0.34259232224E+03  0.18628851731E+03  0.73135017046E+03  0.83382333074E+03  0.91188618351E+02 0.  0.
          2    1    3    3  502    0 -0.77348205127E+02  0.18950537251E+03  0.28991405817E+03  0.35488757680E+03  0.00000000000E+00 0. -1.
         -1    1    3    3    0  502 -0.75555184937E+02  0.14819546199E+03  0.13183936995E+03  0.21225480064E+03  0.00000000000E+00 0.  1.
         13    1    5    5    0    0 -0.95998082445E+02 -0.31207581043E+03  0.55699190779E+03  0.64563683959E+03  0.00000000000E+00 0. -1.
        -13    1    5    5    0    0 -0.93690849726E+02 -0.21191354137E+03  0.57946872032E+03  0.62407477289E+03  0.00000000000E+00 0.  1.
          1    1    6    6  503    0  0.24878691729E+03  0.17325476039E+03  0.51421754047E+03  0.59693535759E+03  0.00000000000E+00 0. -1.
         -1    1    6    6    0  503  0.93805404946E+02  0.13033756915E+02  0.21713263000E+03  0.23688797316E+03  0.00000000000E+00 0.  1.
<mgrwt>
<rscale>  0 0.13749229E+04</rscale>
<asrwt>0</asrwt>
<pdfrwt beam="1">  1        2 0.38155702E+00 0.13749229E+04</pdfrwt>
<pdfrwt beam="2">  1       -1 0.29316394E-01 0.13749229E+04</pdfrwt>
<totfact> 0.42337888E+01</totfact>
</mgrwt>
</event>
<event>
12    7  0.2030835E-007  0.2104496E+04  0.7818608E-02  0.8559265E-01
         -1   -1    0    0    0  501 -0.00000000000E+00  0.00000000000E+00  0.80854450394E+03  0.80854450394E+03  0.00000000000E+00 0.  1.
          2   -1    0    0  501    0  0.00000000000E+00 -0.00000000000E+00 -0.13694066126E+04  0.13694066126E+04  0.00000000000E+00 0. -1.
         24    2    1    2    0    0 -0.55962364045E+03 -0.50976594342E+03  0.19827512988E+03  0.78685837887E+03  0.82420538935E+02 0.  0.
        254    2    1    2    0    0  0.55962364045E+03  0.50976594342E+03 -0.75913723854E+03  0.13910927377E+04  0.88645909203E+03 0.  0.
         23    2    4    4    0    0  0.24718418224E+03 -0.94588115811E+02  0.94312741966E+02  0.29576038792E+03  0.92370894576E+02 0.  0.
         23    2    4    4    0    0  0.31243945821E+03  0.60435405923E+03 -0.85344998050E+03  0.10953323498E+04  0.92270489473E+02 0.  0.
          4    1    3    3  502    0 -0.43071028904E+02 -0.32313255652E+02  0.36599303679E+02  0.65105829627E+02  0.00000000000E+00 0. -1.
         -3    1    3    3    0  502 -0.51655261155E+03 -0.47745268777E+03  0.16167582620E+03  0.72175254924E+03  0.00000000000E+00 0.  1.
         13    1    5    5    0    0  0.35178398211E+02  0.18760075457E+02  0.15331490743E+02  0.42714338813E+02  0.00000000000E+00 0. -1.
        -13    1    5    5    0    0  0.21200578402E+03 -0.11334819127E+03  0.78981251223E+02  0.25304604911E+03  0.00000000000E+00 0.  1.
          3    1    6    6  503    0 -0.25200829481E+01 -0.19637713534E+01 -0.56016115722E+01  0.64486640632E+01  0.00000000000E+00 0. -1.
         -3    1    6    6    0  503  0.31495954116E+03  0.60631783059E+03 -0.84784836893E+03  0.10888836857E+04  0.00000000000E+00 0.  1.
<mgrwt>
<rscale>  0 0.21044963E+04</rscale>
<asrwt>0</asrwt>
<pdfrwt beam="1">  1        2 0.21067794E+00 0.21044963E+04</pdfrwt>
<pdfrwt beam="2">  1       -1 0.12439146E+00 0.21044963E+04</pdfrwt>
<totfact> 0.89616993E+00</totfact>
</mgrwt>
</event>
<event>
12    7  0.1735955E-007  0.3013813E+04  0.7818608E-02  0.8239798E-01
          2   -1    0    0  501    0  0.00000000000E+00  0.00000000000E+00  0.10221222532E+04  0.10221222532E+04  0.00000000000E+00 0. -1.
         -1   -1    0    0    0  501 -0.00000000000E+00 -0.00000000000E+00 -0.22216192927E+04  0.22216192927E+04  0.00000000000E+00 0.  1.
         24    2    1    2    0    0 -0.34191534972E+03 -0.12929055566E+04 -0.85881112760E+03  0.15913448095E+04  0.79440953475E+02 0.  0.
        254    2    1    2    0    0  0.34191534972E+03  0.12929055566E+04 -0.34068591191E+03  0.16523967364E+04  0.90875585238E+03 0.  0.
         23    2    4    4    0    0  0.60341768294E+03  0.81059782959E+03 -0.40319219418E+03  0.10918701130E+04  0.91840387872E+02 0.  0.
         23    2    4    4    0    0 -0.26150233322E+03  0.48230772702E+03  0.62506282270E+02  0.56052662339E+03  0.96326768779E+02 0.  0.
          4    1    3    3  502    0 -0.28578396963E+03 -0.11522554786E+04 -0.74060524460E+03  0.13992359678E+04  0.00000000000E+00 0. -1.
         -3    1    3    3    0  502 -0.56131380095E+02 -0.14065007798E+03 -0.11820588300E+03  0.19210884166E+03  0.00000000000E+00 0.  1.
         13    1    5    5    0    0  0.42350303359E+02  0.10501263246E+03 -0.44941198771E+02  0.12182328398E+03  0.00000000000E+00 0.  1.
        -13    1    5    5    0    0  0.56106737958E+03  0.70558519712E+03 -0.35825099540E+03  0.97004682904E+03  0.00000000000E+00 0. -1.
          1    1    6    6  503    0 -0.25524156698E+03  0.48395942865E+03  0.53949198085E+02  0.54979587309E+03  0.00000000000E+00 0. -1.
         -1    1    6    6    0  503 -0.62607662409E+01 -0.16517016320E+01  0.85570841855E+01  0.10730750298E+02  0.00000000000E+00 0.  1.
<mgrwt>
<rscale>  0 0.30138125E+04</rscale>
<asrwt>0</asrwt>
<pdfrwt beam="1">  1        2 0.15724958E+00 0.30138125E+04</pdfrwt>
<pdfrwt beam="2">  1       -1 0.34178758E+00 0.30138125E+04</pdfrwt>
<totfact> 0.41821529E-01</totfact>
</mgrwt>
</event>
<event>
12    7  0.1735955E-007  0.1681753E+04  0.7818608E-02  0.8771840E-01
         -1   -1    0    0    0  501 -0.00000000000E+00  0.00000000000E+00  0.33088519047E+03  0.33088519047E+03  0.00000000000E+00 0.  1.
          2   -1    0    0  501    0  0.00000000000E+00 -0.00000000000E+00 -0.21369136986E+04  0.21369136986E+04  0.00000000000E+00 0. -1.
         24    2    1    2    0    0 -0.59729346290E+03 -0.14766050228E+03 -0.70303977919E+03  0.93773484267E+03  0.80737842851E+02 0.  0.
        254    2    1    2    0    0  0.59729346290E+03  0.14766050228E+03 -0.11029887290E+04  0.15300640464E+04  0.86368324355E+03 0.  0.
         23    2    4    4    0    0 -0.93124840393E+02 -0.19422898286E+01  0.77288923912E+02  0.15157600780E+03  0.91245273816E+02 0.  0.
         23    2    4    4    0    0  0.69041830329E+03  0.14960279211E+03 -0.11802776529E+04  0.13784880386E+04  0.90086102251E+02 0.  0.
          4    1    3    3  502    0 -0.48774076950E+03 -0.11398104493E+03 -0.52180372442E+03  0.72329929051E+03  0.00000000000E+00 0. -1.
         -1    1    3    3    0  502 -0.10955269340E+03 -0.33679457356E+02 -0.18123605477E+03  0.21443555215E+03  0.00000000000E+00 0.  1.
         13    1    5    5    0    0 -0.87219903974E+01 -0.36312416128E+02  0.11154919074E+02  0.38975593659E+02  0.00000000000E+00 0. -1.
        -13    1    5    5    0    0 -0.84402849995E+02  0.34370126299E+02  0.66134004838E+02  0.11260041414E+03  0.00000000000E+00 0.  1.
          1    1    6    6  503    0  0.23265065627E+03  0.86554098073E+02 -0.46064428345E+03  0.52326962040E+03  0.00000000000E+00 0. -1.
         -1    1    6    6    0  503  0.45776764702E+03  0.63048694037E+02 -0.71963336944E+03  0.85521841823E+03  0.00000000000E+00 0.  1.
<mgrwt>
<rscale>  0 0.16817528E+04</rscale>
<asrwt>0</asrwt>
<pdfrwt beam="1">  1        2 0.32875596E+00 0.16817528E+04</pdfrwt>
<pdfrwt beam="2">  1       -1 0.50905413E-01 0.16817528E+04</pdfrwt>
<totfact> 0.23593085E+01</totfact>
</mgrwt>
</event>
<event>
12    7  0.1735955E-007  0.1488176E+04  0.7818608E-02  0.8892354E-01
         -1   -1    0    0    0  501 -0.00000000000E+00  0.00000000000E+00  0.65085919440E+03  0.65085919440E+03  0.00000000000E+00 0.  1.
          2   -1    0    0  501    0  0.00000000000E+00 -0.00000000000E+00 -0.85067058871E+03  0.85067058871E+03  0.00000000000E+00 0. -1.
         24    2    1    2    0    0  0.42469333451E+03  0.17466051789E+02  0.14408925253E+03  0.45691136526E+03  0.85655073797E+02 0.  0.
        254    2    1    2    0    0 -0.42469333451E+03 -0.17466051789E+02 -0.34390064683E+03  0.10446184178E+04  0.89010701191E+03 0.  0.
         23    2    4    4    0    0  0.15061206590E+03  0.99511084779E+02  0.16275637915E+03  0.26367928427E+03  0.10222854596E+03 0.  0.
         23    2    4    4    0    0 -0.57530540042E+03 -0.11697713657E+03 -0.50665702599E+03  0.78093913357E+03  0.92220573272E+02 0.  0.
          4    1    3    3  502    0  0.65895197446E+02  0.29029932783E+02  0.58996633577E+01  0.72247630215E+02  0.00000000000E+00 0. -1.
         -3    1    3    3    0  502  0.35879813707E+03 -0.11563880994E+02  0.13818958917E+03  0.38466373505E+03  0.00000000000E+00 0.  1.
         13    1    5    5    0    0  0.81492233664E+02  0.69411125001E+02  0.30267763027E+02  0.11124309372E+03  0.00000000000E+00 0. -1.
        -13    1    5    5    0    0  0.69119832238E+02  0.30099959778E+02  0.13248861613E+03  0.15243619055E+03  0.00000000000E+00 0.  1.
          2    1    6    6  503    0 -0.26802295728E+03 -0.49713606459E+02 -0.17552708544E+03  0.32421829995E+03  0.00000000000E+00 0. -1.
         -2    1    6    6    0  503 -0.30728244314E+03 -0.67263530110E+02 -0.33112994055E+03  0.45672083363E+03  0.00000000000E+00 0.  1.
<mgrwt>
<rscale>  0 0.14881758E+04</rscale>
<asrwt>0</asrwt>
<pdfrwt beam="1">  1        2 0.13087240E+00 0.14881758E+04</pdfrwt>
<pdfrwt beam="2">  1       -1 0.10013218E+00 0.14881758E+04</pdfrwt>
<totfact> 0.33267945E+01</totfact>
</mgrwt>
</event>
<event>
12    7  0.1735955E-007  0.1706654E+04  0.7818608E-02  0.8757578E-01
          2   -1    0    0  501    0  0.00000000000E+00  0.00000000000E+00  0.17355826823E+04  0.17355826823E+04  0.00000000000E+00 0. -1.
         -1   -1    0    0    0  501 -0.00000000000E+00 -0.00000000000E+00 -0.41955192957E+03  0.41955192957E+03  0.00000000000E+00 0.  1.
         24    2    1    2    0    0  0.31165911615E+03 -0.12936394116E+03 -0.16872843418E+03  0.38580562783E+03  0.80686207109E+02 0.  0.
        254    2    1    2    0    0 -0.31165911615E+03  0.12936394116E+03  0.14847591869E+04  0.17693289840E+04  0.90119297416E+03 0.  0.
         23    2    4    4    0    0 -0.24238805289E+03 -0.35326537667E+03  0.48973163188E+03  0.65703152084E+03  0.91131517975E+02 0.  0.
         23    2    4    4    0    0 -0.69271063252E+02  0.48262931783E+03  0.99502755503E+03  0.11122974632E+04  0.96934373383E+02 0.  0.
          2    1    3    3  502    0  0.16791682495E+03 -0.28245656506E+02 -0.68915018770E+02  0.18369310555E+03  0.00000000000E+00 0. -1.
         -1    1    3    3    0  502  0.14374229119E+03 -0.10111828465E+03 -0.99813415414E+02  0.20211252229E+03  0.00000000000E+00 0.  1.
         13    1    5    5    0    0 -0.13557387929E+03 -0.21401084353E+03  0.35326984529E+03  0.43471887639E+03  0.00000000000E+00 0. -1.
        -13    1    5    5    0    0 -0.10681417361E+03 -0.13925453314E+03  0.13646178659E+03  0.22231264445E+03  0.00000000000E+00 0.  1.
          4    1    6    6  503    0 -0.26395209469E+02  0.77155954921E+02  0.10198281636E+03  0.13057658020E+03  0.00000000000E+00 0. -1.
         -4    1    6    6    0  503 -0.42875853783E+02  0.40547336291E+03  0.89304473867E+03  0.98172088300E+03  0.00000000000E+00 0.  1.
<mgrwt>
<rscale>  0 0.17066541E+04</rscale>
<asrwt>0</asrwt>
<pdfrwt beam="1">  1        2 0.26701272E+00 0.17066541E+04</pdfrwt>
<pdfrwt beam="2">  1       -1 0.64546452E-01 0.17066541E+04</pdfrwt>
<totfact> 0.24705140E+01</totfact>
</mgrwt>
</event>
<event>
12    7  0.1735955E-007  0.1090365E+04  0.7818608E-02  0.9214634E-01
          2   -1    0    0  501    0  0.00000000000E+00  0.00000000000E+00  0.53527108214E+03  0.53527108214E+03  0.00000000000E+00 0. -1.
         -1   -1    0    0    0  501 -0.00000000000E+00 -0.00000000000E+00 -0.55527778412E+03  0.55527778412E+03  0.00000000000E+00 0.  1.
         24    2    1    2    0    0 -0.57299956969E+02 -0.14712354924E+03  0.14061115147E+02  0.17707685888E+03  0.78929558355E+02 0.  0.
        254    2    1    2    0    0  0.57299956969E+02  0.14712354924E+03 -0.34067817123E+02  0.91347200738E+03  0.89907834380E+03 0.  0.
         23    2    4    4    0    0  0.10271410414E+03  0.34971311554E+03 -0.35716202654E+03  0.51848808716E+03  0.91737304049E+02 0.  0.
         23    2    4    4    0    0 -0.45414147170E+02 -0.20258956631E+03  0.32309420941E+03  0.39498392022E+03  0.92290042457E+02 0.  0.
          2    1    3    3  502    0 -0.35265405363E+02 -0.77911063045E+02  0.46705264501E+02  0.97443133633E+02  0.00000000000E+00 0. -1.
         -1    1    3    3    0  502 -0.22034551606E+02 -0.69212486192E+02 -0.32644149353E+02  0.79633725245E+02  0.00000000000E+00 0.  1.
         13    1    5    5    0    0 -0.54847813926E+01  0.13155126132E+03 -0.14027773909E+03  0.19238934811E+03  0.00000000000E+00 0. -1.
        -13    1    5    5    0    0  0.10819888553E+03  0.21816185423E+03 -0.21688428744E+03  0.32609873905E+03  0.00000000000E+00 0.  1.
          3    1    6    6  503    0  0.26454796688E+02 -0.55643266109E+02  0.66242506341E+02  0.90466010067E+02  0.00000000000E+00 0. -1.
         -3    1    6    6    0  503 -0.71868943858E+02 -0.14694630020E+03  0.25685170307E+03  0.30451791015E+03  0.00000000000E+00 0.  1.
<mgrwt>
<rscale>  0 0.10903653E+04</rscale>
<asrwt>0</asrwt>
<pdfrwt beam="1">  1        2 0.82349397E-01 0.10903653E+04</pdfrwt>
<pdfrwt beam="2">  1       -1 0.85427352E-01 0.10903653E+04</pdfrwt>
<totfact> 0.87494358E+01</totfact>
</mgrwt>
</event>
<event>
12    7  0.1735955E-007  0.2018286E+04  0.7818608E-02  0.8598119E-01
          2   -1    0    0  501    0  0.00000000000E+00  0.00000000000E+00  0.14727570142E+04  0.14727570142E+04  0.00000000000E+00 0. -1.
         -1   -1    0    0    0  501 -0.00000000000E+00 -0.00000000000E+00 -0.69147128100E+03  0.69147128100E+03  0.00000000000E+00 0.  1.
         24    2    1    2    0    0 -0.22938763027E+03  0.38945842391E+03 -0.38293023643E+03  0.59810062933E+03  0.82415095463E+02 0.  0.
        254    2    1    2    0    0  0.22938763027E+03 -0.38945842391E+03  0.11642159696E+04  0.15661276659E+04  0.94501877918E+03 0.  0.
         23    2    4    4    0    0 -0.26439414193E+03  0.12987747652E+02  0.75093172493E+03  0.80145390042E+03  0.91416383213E+02 0.  0.
         23    2    4    4    0    0  0.49378177220E+03 -0.40244617156E+03  0.41328424471E+03  0.76467376546E+03  0.90214971557E+02 0.  0.
          2    1    3    3  502    0 -0.44601891150E+02  0.80813652051E+02 -0.38328226884E+02  0.99946125627E+02  0.00000000000E+00 0. -1.
         -1    1    3    3    0  502 -0.18478573912E+03  0.30864477186E+03 -0.34460200954E+03  0.49815450370E+03  0.00000000000E+00 0.  1.
         13    1    5    5    0    0 -0.16887050403E+02  0.10663109184E+02  0.14898459853E+02  0.24916630486E+02  0.00000000000E+00 0.  1.
        -13    1    5    5    0    0 -0.24750709153E+03  0.23246384674E+01  0.73603326508E+03  0.77653726994E+03  0.00000000000E+00 0. -1.
          1    1    6    6  503    0  0.33408301510E+03 -0.32154185861E+03  0.31354217606E+03  0.55974040768E+03  0.00000000000E+00 0. -1.
         -1    1    6    6    0  503  0.15969875710E+03 -0.80904312950E+02  0.99742068656E+02  0.20493335778E+03  0.00000000000E+00 0.  1.
<mgrwt>
<rscale>  0 0.20182856E+04</rscale>
<asrwt>0</asrwt>
<pdfrwt beam="1">  1        2 0.22657800E+00 0.20182856E+04</pdfrwt>
<pdfrwt beam="2">  1       -1 0.10638020E+00 0.20182856E+04</pdfrwt>
<totfact> 0.11480778E+01</totfact>
</mgrwt>
</event>
<event>
12    7  0.1735955E-007  0.1453146E+04  0.7818608E-02  0.8916223E-01
          2   -1    0    0  501    0  0.00000000000E+00  0.00000000000E+00  0.11009095116E+04  0.11009095116E+04  0.00000000000E+00 0. -1.
         -1   -1    0    0    0  501 -0.00000000000E+00 -0.00000000000E+00 -0.47951986270E+03  0.47951986270E+03  0.00000000000E+00 0.  1.
         24    2    1    2    0    0 -0.30794657876E+02  0.38971073092E+03 -0.30297500162E+02  0.40011468596E+03  0.79693529568E+02 0.  0.
        254    2    1    2    0    0  0.30794657876E+02 -0.38971073092E+03  0.65168714905E+03  0.11803146883E+04  0.90311896143E+03 0.  0.
         23    2    4    4    0    0  0.32479609627E+03  0.14779172780E+02  0.57436304478E+03  0.66639330949E+03  0.92066321851E+02 0.  0.
         23    2    4    4    0    0 -0.29400143840E+03 -0.40448990370E+03  0.77324104271E+02  0.51392137884E+03  0.89929075097E+02 0.  0.
          4    1    3    3  502    0 -0.28532792822E+02  0.42180953236E+02  0.28213509730E+01  0.51003069550E+02  0.00000000000E+00 0. -1.
         -3    1    3    3    0  502 -0.22618650531E+01  0.34752977768E+03 -0.33118851135E+02  0.34911161641E+03  0.00000000000E+00 0.  1.
         13    1    5    5    0    0  0.32409417138E+03  0.15606588862E+02  0.57786445033E+03  0.66272763674E+03  0.00000000000E+00 0.  1.
        -13    1    5    5    0    0  0.70192489656E+00 -0.82741608203E+00 -0.35014055484E+01  0.36656727551E+01  0.00000000000E+00 0. -1.
          1    1    6    6  503    0 -0.55795149906E+02 -0.36600887787E+02 -0.86713244835E+01  0.67289788290E+02  0.00000000000E+00 0. -1.
         -1    1    6    6    0  503 -0.23820628849E+03 -0.36788901591E+03  0.85995428754E+02  0.44663159055E+03  0.00000000000E+00 0.  1.
<mgrwt>
<rscale>  0 0.14531455E+04</rscale>
<asrwt>0</asrwt>
<pdfrwt beam="1">  1        2 0.16937069E+00 0.14531455E+04</pdfrwt>
<pdfrwt beam="2">  1       -1 0.73772287E-01 0.14531455E+04</pdfrwt>
<totfact> 0.44534597E+01</totfact>
</mgrwt>
</event>
<event>
12    7  0.1735955E-007  0.3175178E+04  0.7818608E-02  0.8195403E-01
          2   -1    0    0  501    0  0.00000000000E+00  0.00000000000E+00  0.13971468657E+04  0.13971468657E+04  0.00000000000E+00 0. -1.
         -1   -1    0    0    0  501 -0.00000000000E+00 -0.00000000000E+00 -0.18039903001E+04  0.18039903001E+04  0.00000000000E+00 0.  1.
         24    2    1    2    0    0  0.11235678637E+04  0.42666991138E+03  0.64307156969E+03  0.13660357298E+04  0.89780921309E+02 0.  0.
        254    2    1    2    0    0 -0.11235678637E+04 -0.42666991138E+03 -0.10499150041E+04  0.18351014360E+04  0.90599327095E+03 0.  0.
         23    2    4    4    0    0 -0.14265220569E+03 -0.45941103557E+03 -0.52712039397E+03  0.71933014321E+03  0.90397974524E+02 0.  0.
         23    2    4    4    0    0 -0.98091565798E+03  0.32741124190E+02 -0.52279461009E+03  0.11157712928E+04  0.91454164126E+02 0.  0.
          2    1    3    3  502    0  0.91952809320E+03  0.31159521017E+03  0.51259507480E+03  0.10978967164E+04  0.00000000000E+00 0. -1.
         -1    1    3    3    0  502  0.20403977047E+03  0.11507470121E+03  0.13047649489E+03  0.26813901341E+03  0.00000000000E+00 0.  1.
         13    1    5    5    0    0 -0.74127959483E+02 -0.14427475293E+03 -0.22538830869E+03  0.27768696117E+03  0.00000000000E+00 0. -1.
        -13    1    5    5    0    0 -0.68524246207E+02 -0.31513628263E+03 -0.30173208529E+03  0.44164318204E+03  0.00000000000E+00 0.  1.
          2    1    6    6  503    0 -0.68989261971E+03  0.34193422150E+02 -0.41256428031E+03  0.80456839500E+03  0.00000000000E+00 0. -1.
         -2    1    6    6    0  503 -0.29102303827E+03 -0.14522979592E+01 -0.11023032978E+03  0.31120289776E+03  0.00000000000E+00 0.  1.
<mgrwt>
<rscale>  0 0.31751784E+04</rscale>
<asrwt>0</asrwt>
<pdfrwt beam="1">  1        2 0.21494567E+00 0.31751784E+04</pdfrwt>
<pdfrwt beam="2">  1       -1 0.27753697E+00 0.31751784E+04</pdfrwt>
<totfact> 0.64437327E-01</totfact>
</mgrwt>
</event>
<event>
12    7  0.1735955E-007  0.1716230E+04  0.7818608E-02  0.8752161E-01
          2   -1    0    0  501    0  0.00000000000E+00  0.00000000000E+00  0.22903236815E+04  0.22903236815E+04  0.00000000000E+00 0. -1.
         -3   -1    0    0    0  501 -0.00000000000E+00 -0.00000000000E+00 -0.32150988338E+03  0.32150988338E+03  0.00000000000E+00 0.  1.
         24    2    1    2    0    0  0.95113368672E+02 -0.29016691762E+03  0.15369418882E+04  0.15691348380E+04  0.82160690333E+02 0.  0.
        254    2    1    2    0    0 -0.95113368672E+02  0.29016691762E+03  0.43187190990E+03  0.10426987269E+04  0.89858994850E+03 0.  0.
         23    2    4    4    0    0  0.36837825991E+03  0.26084482251E+03  0.11945025215E+03  0.47532048269E+03  0.88986710939E+02 0.  0.
         23    2    4    4    0    0 -0.46349162858E+03  0.29322095113E+02  0.31242165775E+03  0.56737824421E+03  0.92878979063E+02 0.  0.
          4    1    3    3  502    0  0.83817268571E+02 -0.13015103196E+03  0.81717847734E+03  0.83171226362E+03  0.00000000000E+00 0. -1.
         -3    1    3    3    0  502  0.11296100101E+02 -0.16001588566E+03  0.71976341086E+03  0.73742257435E+03  0.00000000000E+00 0.  1.
         13    1    5    5    0    0  0.27839632124E+03  0.23832984606E+03  0.10668602110E+03  0.38169036443E+03  0.00000000000E+00 0.  1.
        -13    1    5    5    0    0  0.89981938663E+02  0.22514976449E+02  0.12764231054E+02  0.93630118255E+02  0.00000000000E+00 0. -1.
          1    1    6    6  503    0 -0.48339127761E+02  0.25758762751E+02  0.15386619688E+02  0.56894052383E+02  0.00000000000E+00 0. -1.
         -1    1    6    6    0  503 -0.41515250082E+03  0.35633323623E+01  0.29703503806E+03  0.51048419183E+03  0.00000000000E+00 0.  1.
<mgrwt>
<rscale>  0 0.17162304E+04</rscale>
<asrwt>0</asrwt>
<pdfrwt beam="1">  1        2 0.35235748E+00 0.17162304E+04</pdfrwt>
<pdfrwt beam="2">  1       -3 0.49463060E-01 0.17162304E+04</pdfrwt>
<totfact> 0.11398556E+01</totfact>
</mgrwt>
</event>
<event>
12    7  0.1735955E-007  0.3094742E+04  0.7818608E-02  0.8217182E-01
         -3   -1    0    0    0  501 -0.00000000000E+00  0.00000000000E+00  0.91254212125E+03  0.91254212125E+03  0.00000000000E+00 0.  1.
          2   -1    0    0  501    0  0.00000000000E+00 -0.00000000000E+00 -0.26238322632E+04  0.26238322632E+04  0.00000000000E+00 0. -1.
         24    2    1    2    0    0 -0.38882849967E+03  0.10179201681E+04 -0.18135186316E+04  0.21170839382E+04  0.76455890549E+02 0.  0.
        254    2    1    2    0    0  0.38882849967E+03 -0.10179201681E+04  0.10222848968E+03  0.14192904463E+04  0.90365128004E+03 0.  0.
         23    2    4    4    0    0  0.91645215834E+01 -0.22697567295E+03  0.41627415082E+03  0.48298303227E+03  0.91577815256E+02 0.  0.
         23    2    4    4    0    0  0.37966397808E+03 -0.79094449518E+03 -0.31404566114E+03  0.93630741400E+03  0.91153527181E+02 0.  0.
          4    1    3    3  502    0 -0.47406860023E+02  0.19728086866E+03 -0.36516359105E+03  0.41774585545E+03  0.00000000000E+00 0. -1.
         -3    1    3    3    0  502 -0.34142163964E+03  0.82063929947E+03 -0.14483550406E+04  0.16993380827E+04  0.00000000000E+00 0.  1.
         13    1    5    5    0    0 -0.36955169920E+02 -0.14932791152E+03  0.24333497017E+03  0.28788264528E+03  0.00000000000E+00 0.  1.
        -13    1    5    5    0    0  0.46119691503E+02 -0.77647761431E+02  0.17293918065E+03  0.19510038699E+03  0.00000000000E+00 0. -1.
          1    1    6    6  503    0  0.37966019689E+03 -0.75019090820E+03 -0.29255106130E+03  0.89023277142E+03  0.00000000000E+00 0. -1.
         -1    1    6    6    0  503  0.37811940432E-02 -0.40753586987E+02 -0.21494599847E+02  0.46074642583E+02  0.00000000000E+00 0.  1.
<mgrwt>
<rscale>  0 0.30947423E+04</rscale>
<asrwt>0</asrwt>
<pdfrwt beam="1">  1        2 0.40366650E+00 0.30947423E+04</pdfrwt>
<pdfrwt beam="2">  1       -3 0.14039109E+00 0.30947423E+04</pdfrwt>
<totfact> 0.60923269E-01</totfact>
</mgrwt>
</event>
<event>
12    7  0.1735955E-007  0.2376800E+04  0.7818608E-02  0.8448241E-01
          2   -1    0    0  501    0  0.00000000000E+00  0.00000000000E+00  0.18527020781E+04  0.18527020781E+04  0.00000000000E+00 0. -1.
         -1   -1    0    0    0  501 -0.00000000000E+00 -0.00000000000E+00 -0.76228917831E+03  0.76228917831E+03  0.00000000000E+00 0.  1.
         24    2    1    2    0    0  0.22343156769E+03 -0.20279735512E+03 -0.59918849902E+03  0.67560728137E+03  0.79811707095E+02 0.  0.
        254    2    1    2    0    0 -0.22343156769E+03  0.20279735512E+03  0.16896013988E+04  0.19393839751E+04  0.90299993526E+03 0.  0.
         23    2    4    4    0    0 -0.44473243776E+03  0.29572984787E+03  0.55220661535E+03  0.77335358795E+03  0.88884992287E+02 0.  0.
         23    2    4    4    0    0  0.22130087007E+03 -0.92932492756E+02  0.11373947835E+04  0.11660303871E+04  0.91375307627E+02 0.  0.
          2    1    3    3  502    0  0.69347117368E+02 -0.21456640405E+02 -0.17030963099E+03  0.18513449304E+03  0.00000000000E+00 0. -1.
         -1    1    3    3    0  502  0.15408445032E+03 -0.18134071471E+03 -0.42887886803E+03  0.49047278832E+03  0.00000000000E+00 0.  1.
         13    1    5    5    0    0 -0.19035077236E+03  0.17455057106E+03  0.29182382059E+03  0.38969534339E+03  0.00000000000E+00 0. -1.
        -13    1    5    5    0    0 -0.25438166539E+03  0.12117927682E+03  0.26038279476E+03  0.38365824457E+03  0.00000000000E+00 0.  1.
          4    1    6    6  503    0 -0.74404470965E+01 -0.72734381973E+01  0.23999377543E+02  0.26157853097E+02  0.00000000000E+00 0. -1.
         -4    1    6    6    0  503  0.22874131716E+03 -0.85659054558E+02  0.11133954059E+04  0.11398725340E+04  0.00000000000E+00 0.  1.
<mgrwt>
<rscale>  0 0.23768002E+04</rscale>
<asrwt>0</asrwt>
<pdfrwt beam="1">  1        2 0.28503109E+00 0.23768002E+04</pdfrwt>
<pdfrwt beam="2">  1       -1 0.11727526E+00 0.23768002E+04</pdfrwt>
<totfact> 0.54162199E+00</totfact>
</mgrwt>
</event>
<event>
12    7  0.1735955E-007  0.2893595E+04  0.7818608E-02  0.8274786E-01
         -1   -1    0    0    0  501 -0.00000000000E+00  0.00000000000E+00  0.66695832394E+03  0.66695832394E+03  0.00000000000E+00 0.  1.
          2   -1    0    0  501    0  0.00000000000E+00 -0.00000000000E+00 -0.31384610505E+04  0.31384610505E+04  0.00000000000E+00 0. -1.
         24    2    1    2    0    0 -0.25278102378E+03  0.44481373799E+02  0.56576782820E+03  0.62640452208E+03  0.80078406932E+02 0.  0.
        254    2    1    2    0    0  0.25278102378E+03 -0.44481373799E+02 -0.30372705547E+04  0.31790148523E+04  0.90290983499E+03 0.  0.
         23    2    4    4    0    0 -0.12995275047E+03 -0.38388565339E+03 -0.11941103091E+04  0.12642250011E+04  0.90052821878E+02 0.  0.
         23    2    4    4    0    0  0.38273377425E+03  0.33940427959E+03 -0.18431602456E+04  0.19147898513E+04  0.86602982572E+02 0.  0.
          4    1    3    3  502    0 -0.55759502322E+02  0.44625952373E+02  0.16654005809E+03  0.18120758448E+03  0.00000000000E+00 0. -1.
         -3    1    3    3    0  502 -0.19702152146E+03 -0.14457857448E+00  0.39922777011E+03  0.44519693760E+03  0.00000000000E+00 0.  1.
         13    1    5    5    0    0 -0.14105729052E+03 -0.37313871724E+03 -0.11625187892E+04  0.12290563847E+04  0.00000000000E+00 0. -1.
        -13    1    5    5    0    0  0.11104540047E+02 -0.10746936147E+02 -0.31591519878E+02  0.35168616328E+02  0.00000000000E+00 0.  1.
          4    1    6    6  503    0  0.22039723211E+03  0.17137432913E+03 -0.85689750229E+03  0.90123106362E+03  0.00000000000E+00 0. -1.
         -4    1    6    6    0  503  0.16233654214E+03  0.16802995045E+03 -0.98626274331E+03  0.10135587876E+04  0.00000000000E+00 0.  1.
<mgrwt>
<rscale>  0 0.28935948E+04</rscale>
<asrwt>0</asrwt>
<pdfrwt beam="1">  1        2 0.48284016E+00 0.28935948E+04</pdfrwt>
<pdfrwt beam="2">  1       -1 0.10260897E+00 0.28935948E+04</pdfrwt>
<totfact> 0.12522589E+00</totfact>
</mgrwt>
</event>
<event>
12    7  0.1735955E-007  0.1501422E+04  0.7818608E-02  0.8883508E-01
          2   -1    0    0  501    0  0.00000000000E+00  0.00000000000E+00  0.75596891913E+03  0.75596891913E+03  0.00000000000E+00 0. -1.
         -1   -1    0    0    0  501 -0.00000000000E+00 -0.00000000000E+00 -0.74548923590E+03  0.74548923590E+03  0.00000000000E+00 0.  1.
         24    2    1    2    0    0  0.30788924841E+01  0.20101178180E+03 -0.41660422142E+03  0.46980007615E+03  0.82084214363E+02 0.  0.
        254    2    1    2    0    0 -0.30788924841E+01 -0.20101178180E+03  0.42708390464E+03  0.10316580789E+04  0.91733446142E+03 0.  0.
         23    2    4    4    0    0  0.13665949491E+03  0.32631923251E+03  0.27712483952E+03  0.45878250355E+03  0.92320906788E+02 0.  0.
         23    2    4    4    0    0 -0.13973838739E+03 -0.52733101432E+03  0.14995906512E+03  0.57287557533E+03  0.89966038179E+02 0.  0.
          2    1    3    3  502    0 -0.71933075952E+01  0.27720197889E+02 -0.15101865130E+02  0.32376216202E+02  0.00000000000E+00 0. -1.
         -1    1    3    3    0  502  0.10272200079E+02  0.17329158392E+03 -0.40150235628E+03  0.43742385995E+03  0.00000000000E+00 0.  1.
         13    1    5    5    0    0  0.12356884523E+02  0.68861542736E+02  0.16407050837E+02  0.71859557334E+02  0.00000000000E+00 0.  1.
        -13    1    5    5    0    0  0.12430261039E+03  0.25745768978E+03  0.26071778869E+03  0.38692294622E+03  0.00000000000E+00 0. -1.
          1    1    6    6  503    0 -0.10465260495E+03 -0.47024164258E+03  0.10764946751E+03  0.49362716497E+03  0.00000000000E+00 0. -1.
         -1    1    6    6    0  503 -0.35085782447E+02 -0.57089371732E+02  0.42309597602E+02  0.79248410356E+02  0.00000000000E+00 0.  1.
<mgrwt>
<rscale>  0 0.15014216E+04</rscale>
<asrwt>0</asrwt>
<pdfrwt beam="1">  1        2 0.11630291E+00 0.15014216E+04</pdfrwt>
<pdfrwt beam="2">  1       -1 0.11469065E+00 0.15014216E+04</pdfrwt>
<totfact> 0.28296174E+01</totfact>
</mgrwt>
</event>
<event>
12    7  0.1735955E-007  0.2978720E+04  0.7818608E-02  0.8249834E-01
          2   -1    0    0  501    0  0.00000000000E+00  0.00000000000E+00  0.19644483614E+04  0.19644483614E+04  0.00000000000E+00 0. -1.
         -1   -1    0    0    0  501 -0.00000000000E+00 -0.00000000000E+00 -0.11291684183E+04  0.11291684183E+04  0.00000000000E+00 0.  1.
         24    2    1    2    0    0 -0.11682938782E+04  0.10803403673E+03 -0.31154156570E+03  0.12164695410E+04  0.78473294922E+02 0.  0.
        254    2    1    2    0    0  0.11682938782E+04 -0.10803403673E+03  0.11468215088E+04  0.18771472386E+04  0.91208565580E+03 0.  0.
         23    2    4    4    0    0  0.80396319913E+03 -0.38703187562E+02  0.16911057922E+03  0.82766200492E+03  0.92581013745E+02 0.  0.
         23    2    4    4    0    0  0.36433067912E+03 -0.69330849173E+02  0.97771092954E+03  0.10494852337E+04  0.89201926280E+02 0.  0.
          2    1    3    3  502    0 -0.44294414476E+03  0.45022996187E+02 -0.79208181697E+02  0.45221733891E+03  0.00000000000E+00 0. -1.
         -1    1    3    3    0  502 -0.72534973348E+03  0.63011040548E+02 -0.23233338400E+03  0.76425220210E+03  0.00000000000E+00 0.  1.
         13    1    5    5    0    0  0.58657311364E+03 -0.43529335466E+02  0.16206253525E+03  0.61010415998E+03  0.00000000000E+00 0.  1.
        -13    1    5    5    0    0  0.21739008549E+03  0.48261479040E+01  0.70480439691E+01  0.21755784494E+03  0.00000000000E+00 0. -1.
          1    1    6    6  503    0  0.18647702066E+03 -0.36944962062E+02  0.62308543786E+03  0.65143999903E+03  0.00000000000E+00 0.  1.
         -1    1    6    6    0  503  0.17785365846E+03 -0.32385887111E+02  0.35462549168E+03  0.39804523469E+03  0.00000000000E+00 0. -1.
<mgrwt>
<rscale>  0 0.29787199E+04</rscale>
<asrwt>0</asrwt>
<pdfrwt beam="1">  1        2 0.30222282E+00 0.29787199E+04</pdfrwt>
<pdfrwt beam="2">  1       -1 0.17371822E+00 0.29787199E+04</pdfrwt>
<totfact> 0.15764927E+00</totfact>
</mgrwt>
</event>
<event>
12    7  0.1735955E-007  0.1682551E+04  0.7818608E-02  0.8771379E-01
          2   -1    0    0  501    0  0.00000000000E+00  0.00000000000E+00  0.12019377481E+04  0.12019377481E+04  0.00000000000E+00 0. -1.
         -1   -1    0    0    0  501 -0.00000000000E+00 -0.00000000000E+00 -0.58883606468E+03  0.58883606468E+03  0.00000000000E+00 0.  1.
         24    2    1    2    0    0  0.15197094474E+03  0.37363422519E+03  0.66017664999E+03  0.77926021013E+03  0.93357182972E+02 0.  0.
        254    2    1    2    0    0 -0.15197094474E+03 -0.37363422519E+03 -0.47074966530E+02  0.10115136027E+04  0.92641568082E+03 0.  0.
         23    2    4    4    0    0 -0.93285405531E+02 -0.45220767832E+03  0.35382824311E+03  0.58854408542E+03  0.89419034022E+02 0.  0.
         23    2    4    4    0    0 -0.58685539213E+02  0.78573453122E+02 -0.40090320964E+03  0.42296951727E+03  0.92531340598E+02 0.  0.
          2    1    3    3  502    0  0.16206037182E+03  0.36871385375E+03  0.64393987005E+03  0.75952091894E+03  0.00000000000E+00 0. -1.
         -1    1    3    3    0  502 -0.10089427078E+02  0.49203714463E+01  0.16236779940E+02  0.19739291192E+02  0.00000000000E+00 0.  1.
         13    1    5    5    0    0 -0.57641973809E+02 -0.25951928945E+03  0.14762864668E+03  0.30408399508E+03  0.00000000000E+00 0.  1.
        -13    1    5    5    0    0 -0.35643431722E+02 -0.19268838886E+03  0.20619959643E+03  0.28446009034E+03  0.00000000000E+00 0. -1.
          3    1    6    6  503    0 -0.67007289787E+02  0.18762742187E+02 -0.15748875875E+03  0.17217644006E+03  0.00000000000E+00 0. -1.
         -3    1    6    6    0  503  0.83217505743E+01  0.59810710935E+02 -0.24341445089E+03  0.25079307722E+03  0.00000000000E+00 0.  1.
<mgrwt>
<rscale>  0 0.16825508E+04</rscale>
<asrwt>0</asrwt>
<pdfrwt beam="1">  1        2 0.18491350E+00 0.16825508E+04</pdfrwt>
<pdfrwt beam="2">  1       -1 0.90590164E-01 0.16825508E+04</pdfrwt>
<totfact> 0.24439274E+01</totfact>
</mgrwt>
</event>
<event>
12    7  0.1735955E-007  0.1346997E+04  0.7818608E-02  0.8993105E-01
         -1   -1    0    0    0  501 -0.00000000000E+00  0.00000000000E+00  0.11339558313E+03  0.11339558313E+03  0.00000000000E+00 0.  1.
          2   -1    0    0  501    0  0.00000000000E+00 -0.00000000000E+00 -0.40001569290E+04  0.40001569290E+04  0.00000000000E+00 0. -1.
         24    2    1    2    0    0 -0.11771867870E+03 -0.94687189931E+02 -0.21097109276E+04  0.21169614868E+04  0.88444262220E+02 0.  0.
        254    2    1    2    0    0  0.11771867870E+03  0.94687189931E+02 -0.17770504183E+04  0.19965910254E+04  0.89757683901E+03 0.  0.
         23    2    4    4    0    0 -0.15918935470E+03 -0.17773199079E+03 -0.10258248893E+03  0.27528153172E+03  0.91251539547E+02 0.  0.
         23    2    4    4    0    0  0.27690803341E+03  0.27241918072E+03 -0.16744679294E+04  0.17213094936E+04  0.90406068596E+02 0.  0.
          2    1    3    3  502    0 -0.59013033364E+02 -0.22773372357E+02 -0.13682986260E+04  0.13697599405E+04  0.00000000000E+00 0. -1.
         -1    1    3    3    0  502 -0.58705645338E+02 -0.71913817574E+02 -0.74141230153E+03  0.74720154631E+03  0.00000000000E+00 0.  1.
         13    1    5    5    0    0 -0.15981463917E+03 -0.16857320555E+03 -0.11551259022E+03  0.25942398313E+03  0.00000000000E+00 0. -1.
        -13    1    5    5    0    0  0.62528446868E+00 -0.91587852338E+01  0.12930101295E+02  0.15857548585E+02  0.00000000000E+00 0.  1.
          2    1    6    6  503    0  0.26028261266E+03  0.21062491639E+03 -0.14018090944E+04  0.14412420446E+04  0.00000000000E+00 0. -1.
         -2    1    6    6    0  503  0.16625420744E+02  0.61794264334E+02 -0.27265883500E+03  0.28006744906E+03  0.00000000000E+00 0.  1.
<mgrwt>
<rscale>  0 0.13469968E+04</rscale>
<asrwt>0</asrwt>
<pdfrwt beam="1">  1        2 0.61540873E+00 0.13469968E+04</pdfrwt>
<pdfrwt beam="2">  1       -1 0.17445475E-01 0.13469968E+04</pdfrwt>
<totfact> 0.10079019E+01</totfact>
</mgrwt>
</event>
<event>
12    7  0.1735955E-007  0.2785349E+04  0.7818608E-02  0.8307831E-01
          2   -1    0    0  501    0  0.00000000000E+00  0.00000000000E+00  0.11128847888E+04  0.11128847888E+04  0.00000000000E+00 0. -1.
         -1   -1    0    0    0  501 -0.00000000000E+00 -0.00000000000E+00 -0.17428063861E+04  0.17428063861E+04  0.00000000000E+00 0.  1.
         24    2    1    2    0    0 -0.62323514203E+03  0.34213009633E+03 -0.13439479449E+04  0.15225180135E+04  0.79937336444E+02 0.  0.
        254    2    1    2    0    0  0.62323514203E+03 -0.34213009633E+03  0.71402634765E+03  0.13331731614E+04  0.87295017500E+03 0.  0.
         23    2    4    4    0    0  0.79701420100E+03 -0.10390212491E+03  0.57091106336E+03  0.98979478015E+03  0.87903221761E+02 0.  0.
         23    2    4    4    0    0 -0.17377905896E+03 -0.23822797142E+03  0.14311528429E+03  0.34337838124E+03  0.10234744944E+03 0.  0.
          4    1    3    3  502    0 -0.15349699777E+03  0.96736779968E+02 -0.41698988713E+03  0.45475256886E+03  0.00000000000E+00 0. -1.
         -3    1    3    3    0  502 -0.46973814427E+03  0.24539331636E+03 -0.92695805778E+03  0.10677654446E+04  0.00000000000E+00 0.  1.
         13    1    5    5    0    0  0.63440296830E+03 -0.79721836167E+02  0.49555204528E+03  0.80894655382E+03  0.00000000000E+00 0. -1.
        -13    1    5    5    0    0  0.16261123269E+03 -0.24180288745E+02  0.75359018085E+02  0.18084822634E+03  0.00000000000E+00 0.  1.
          2    1    6    6  503    0 -0.17431462496E+03 -0.20144406740E+03  0.95032054443E+02  0.28283633455E+03  0.00000000000E+00 0. -1.
         -2    1    6    6    0  503  0.53556600304E+00 -0.36783904014E+02  0.48083229847E+02  0.60542046695E+02  0.00000000000E+00 0.  1.
<mgrwt>
<rscale>  0 0.27853493E+04</rscale>
<asrwt>0</asrwt>
<pdfrwt beam="1">  1        2 0.17121304E+00 0.27853493E+04</pdfrwt>
<pdfrwt beam="2">  1       -1 0.26812406E+00 0.27853493E+04</pdfrwt>
<totfact> 0.11284549E+00</totfact>
</mgrwt>
</event>
<event>
12    7  0.1735955E-007  0.1788250E+04  0.7818608E-02  0.8712573E-01
          2   -1    0    0  501    0  0.00000000000E+00  0.00000000000E+00  0.10765709401E+04  0.10765709401E+04  0.00000000000E+00 0. -1.
         -1   -1    0    0    0  501 -0.00000000000E+00 -0.00000000000E+00 -0.74259849184E+03  0.74259849184E+03  0.00000000000E+00 0.  1.
         24    2    1    2    0    0  0.41091654785E+03  0.40329717838E+02 -0.39884837636E+03  0.57937223855E+03  0.78187390509E+02 0.  0.
        254    2    1    2    0    0 -0.41091654785E+03 -0.40329717838E+02  0.73282082467E+03  0.12397971934E+04  0.91081931487E+03 0.  0.
         23    2    4    4    0    0 -0.22407299508E+03  0.25438335344E+02  0.92048668162E+03  0.95204972601E+03  0.90813730836E+02 0.  0.
         23    2    4    4    0    0 -0.18684355277E+03 -0.65768053182E+02 -0.18766585696E+03  0.28774746743E+03  0.91346489326E+02 0.  0.
          4    1    3    3  502    0  0.12096930912E+03 -0.18582491579E+02 -0.91971097743E+02  0.15309332305E+03  0.00000000000E+00 0. -1.
         -3    1    3    3    0  502  0.28994723873E+03  0.58912209416E+02 -0.30687727862E+03  0.42627891550E+03  0.00000000000E+00 0.  1.
         13    1    5    5    0    0 -0.17067315230E+03  0.36090341981E+02  0.53465699228E+03  0.56239660125E+03  0.00000000000E+00 0. -1.
        -13    1    5    5    0    0 -0.53399842786E+02 -0.10652006637E+02  0.38582968934E+03  0.38965312476E+03  0.00000000000E+00 0.  1.
          2    1    6    6  503    0 -0.77591005987E+02 -0.22719662788E+02 -0.20409686880E+02  0.83385266119E+02  0.00000000000E+00 0.  1.
         -2    1    6    6    0  503 -0.10925254678E+03 -0.43048390394E+02 -0.16725617008E+03  0.20436220131E+03  0.00000000000E+00 0. -1.
<mgrwt>
<rscale>  0 0.17882505E+04</rscale>
<asrwt>0</asrwt>
<pdfrwt beam="1">  1        2 0.16562630E+00 0.17882505E+04</pdfrwt>
<pdfrwt beam="2">  1       -1 0.11424592E+00 0.17882505E+04</pdfrwt>
<totfact> 0.16934533E+01</totfact>
</mgrwt>
</event>
<event>
12    7  0.1735955E-007  0.2130002E+04  0.7818608E-02  0.8548141E-01
         -1   -1    0    0    0  501 -0.00000000000E+00  0.00000000000E+00  0.59604793384E+03  0.59604793384E+03  0.00000000000E+00 0.  1.
          2   -1    0    0  501    0  0.00000000000E+00 -0.00000000000E+00 -0.19029119496E+04  0.19029119496E+04  0.00000000000E+00 0. -1.
         24    2    1    2    0    0  0.86969391656E+03  0.76038677736E+02 -0.57785710094E+03  0.10499337750E+04  0.79326626522E+02 0.  0.
        254    2    1    2    0    0 -0.86969391656E+03 -0.76038677736E+02 -0.72900691480E+03  0.14490261085E+04  0.89781746037E+03 0.  0.
         23    2    4    4    0    0 -0.33721037035E+03  0.39781581694E+03 -0.36866110331E+03  0.64503595536E+03  0.90510311734E+02 0.  0.
         23    2    4    4    0    0 -0.53248354621E+03 -0.47385449468E+03 -0.36034581149E+03  0.80399015310E+03  0.92055707625E+02 0.  0.
          2    1    3    3  502    0  0.70066231853E+03  0.71588345438E+02 -0.50022753482E+03  0.86387508495E+03  0.00000000000E+00 0. -1.
         -1    1    3    3    0  502  0.16903159803E+03  0.44503322990E+01 -0.77629566119E+02  0.18605869000E+03  0.00000000000E+00 0.  1.
         13    1    5    5    0    0 -0.31269463330E+03  0.39314735294E+03 -0.36207212263E+03  0.61922451244E+03  0.00000000000E+00 0. -1.
        -13    1    5    5    0    0 -0.24515737055E+02  0.46684640073E+01 -0.65889806813E+01  0.25811442927E+02  0.00000000000E+00 0.  1.
          2    1    6    6  503    0 -0.11437900783E+03 -0.86491638481E+02 -0.11343440772E+03  0.18284071159E+03  0.00000000000E+00 0.  1.
         -2    1    6    6    0  503 -0.41810453837E+03 -0.38736285620E+03 -0.24691140377E+03  0.62114944151E+03  0.00000000000E+00 0. -1.
<mgrwt>
<rscale>  0 0.21300016E+04</rscale>
<asrwt>0</asrwt>
<pdfrwt beam="1">  1        2 0.29275569E+00 0.21300016E+04</pdfrwt>
<pdfrwt beam="2">  1       -1 0.91699681E-01 0.21300016E+04</pdfrwt>
<totfact> 0.91750872E+00</totfact>
</mgrwt>
</event>
<event>
12    7  0.1735955E-007  0.1941088E+04  0.7818608E-02  0.8634670E-01
         -1   -1    0    0    0  501 -0.00000000000E+00  0.00000000000E+00  0.52775313247E+03  0.52775313247E+03  0.00000000000E+00 0.  1.
          2   -1    0    0  501    0  0.00000000000E+00 -0.00000000000E+00 -0.17848414990E+04  0.17848414990E+04  0.00000000000E+00 0. -1.
         24    2    1    2    0    0  0.44119982400E+03 -0.45500752418E+03 -0.71441856812E+02  0.64290398978E+03  0.80823693463E+02 0.  0.
        254    2    1    2    0    0 -0.44119982400E+03  0.45500752418E+03 -0.11856465097E+04  0.16696906417E+04  0.99016163385E+03 0.  0.
         23    2    4    4    0    0 -0.13209621638E+03  0.37994325477E+03 -0.12627041544E+04  0.13284442107E+04  0.92390217455E+02 0.  0.
         23    2    4    4    0    0 -0.30910360762E+03  0.75064269410E+02  0.77057644689E+02  0.34124643094E+03  0.96600006415E+02 0.  0.
          4    1    3    3  502    0  0.77182529481E+02 -0.10599361937E+03 -0.42260049559E+02  0.13775958040E+03  0.00000000000E+00 0. -1.
         -3    1    3    3    0  502  0.36401729452E+03 -0.34901390481E+03 -0.29181807253E+02  0.50514440938E+03  0.00000000000E+00 0.  1.
         13    1    5    5    0    0  0.13868979119E+02  0.46038318902E+02 -0.13353071034E+03  0.14192366255E+03  0.00000000000E+00 0. -1.
        -13    1    5    5    0    0 -0.14596519550E+03  0.33390493587E+03 -0.11291734440E+04  0.11865205482E+04  0.00000000000E+00 0.  1.
          2    1    6    6  503    0 -0.59021184697E+01 -0.15005191557E+02  0.31352146266E+01  0.16426209144E+02  0.00000000000E+00 0. -1.
         -2    1    6    6    0  503 -0.30320148915E+03  0.90069460967E+02  0.73922430062E+02  0.32482022179E+03  0.00000000000E+00 0.  1.
<mgrwt>
<rscale>  0 0.19410880E+04</rscale>
<asrwt>0</asrwt>
<pdfrwt beam="1">  1        2 0.27459100E+00 0.19410880E+04</pdfrwt>
<pdfrwt beam="2">  1       -1 0.81192790E-01 0.19410880E+04</pdfrwt>
<totfact> 0.14134539E+01</totfact>
</mgrwt>
</event>
<event>
12    7  0.1735955E-007  0.2623180E+04  0.7818608E-02  0.8360370E-01
          2   -1    0    0  501    0  0.00000000000E+00  0.00000000000E+00  0.27534159079E+04  0.27534159079E+04  0.00000000000E+00 0. -1.
         -1   -1    0    0    0  501 -0.00000000000E+00 -0.00000000000E+00 -0.62477629041E+03  0.62477629041E+03  0.00000000000E+00 0.  1.
         24    2    1    2    0    0 -0.47959060978E+03  0.70461458338E+03  0.19643320082E+04  0.21427537143E+04  0.79400111134E+02 0.  0.
        254    2    1    2    0    0  0.47959060978E+03 -0.70461458338E+03  0.16430760929E+03  0.12354384840E+04  0.87910317550E+03 0.  0.
         23    2    4    4    0    0  0.22534517023E+03 -0.83519343744E+03  0.28018536606E+03  0.91359049160E+03  0.88403751586E+02 0.  0.
         23    2    4    4    0    0  0.25424543956E+03  0.13057885405E+03 -0.11587775677E+03  0.32184799241E+03  0.92015732567E+02 0.  0.
          2    1    3    3  502    0 -0.32504516645E+03  0.42267538748E+03  0.12820599201E+04  0.13885195289E+04  0.00000000000E+00 0. -1.
         -1    1    3    3    0  502 -0.15454544333E+03  0.28193919590E+03  0.68227208813E+03  0.75423418544E+03  0.00000000000E+00 0.  1.
         13    1    5    5    0    0  0.14715025769E+03 -0.42229789526E+03  0.11249184784E+03  0.46113243923E+03  0.00000000000E+00 0. -1.
        -13    1    5    5    0    0  0.78194912536E+02 -0.41289554217E+03  0.16769351822E+03  0.45245805236E+03  0.00000000000E+00 0.  1.
          4    1    6    6  503    0  0.17114713508E+03  0.38138683183E+02 -0.57592234927E+02  0.18456101031E+03  0.00000000000E+00 0.  1.
         -4    1    6    6    0  503  0.83098304476E+02  0.92440170870E+02 -0.58285521847E+02  0.13728698210E+03  0.00000000000E+00 0. -1.
<mgrwt>
<rscale>  0 0.26231805E+04</rscale>
<asrwt>0</asrwt>
<pdfrwt beam="1">  1        2 0.42360244E+00 0.26231805E+04</pdfrwt>
<pdfrwt beam="2">  1       -1 0.96119431E-01 0.26231805E+04</pdfrwt>
<totfact> 0.25819833E+00</totfact>
</mgrwt>
</event>
<event>
12    7  0.1735955E-007  0.1780823E+04  0.7818608E-02  0.8716564E-01
         -1   -1    0    0    0  501 -0.00000000000E+00  0.00000000000E+00  0.45329470590E+03  0.45329470590E+03  0.00000000000E+00 0.  1.
          2   -1    0    0  501    0  0.00000000000E+00 -0.00000000000E+00 -0.17490448933E+04  0.17490448933E+04  0.00000000000E+00 0. -1.
         24    2    1    2    0    0 -0.40421470364E+03  0.50977212394E+03 -0.47919896030E+03  0.81191599052E+03  0.79490799019E+02 0.  0.
        254    2    1    2    0    0  0.40421470364E+03 -0.50977212394E+03 -0.81655122712E+03  0.13904236087E+04  0.91829448443E+03 0.  0.
         23    2    4    4    0    0  0.17243858828E+03 -0.20634281722E+03  0.16794598823E+03  0.33039438719E+03  0.92963278643E+02 0.  0.
         23    2    4    4    0    0  0.23177611535E+03 -0.30342930672E+03 -0.98449721535E+03  0.10600292215E+04  0.92939074660E+02 0.  0.
          4    1    3    3  502    0 -0.35477325166E+03  0.47575145014E+03 -0.45215713579E+03  0.74608952402E+03  0.00000000000E+00 0. -1.
         -3    1    3    3    0  502 -0.49441451978E+02  0.34020673795E+02 -0.27041824512E+02  0.65826466501E+02  0.00000000000E+00 0.  1.
         13    1    5    5    0    0  0.15666142155E+03 -0.20094814727E+03  0.17809823814E+03  0.31087287003E+03  0.00000000000E+00 0. -1.
        -13    1    5    5    0    0  0.15777166729E+02 -0.53946699451E+01 -0.10152249907E+02  0.19521517154E+02  0.00000000000E+00 0.  1.
          4    1    6    6  503    0  0.12884971754E+03 -0.23707608775E+03 -0.70548778404E+03  0.75532796487E+03  0.00000000000E+00 0. -1.
         -4    1    6    6    0  503  0.10292639782E+03 -0.66353218971E+02 -0.27900943132E+03  0.30470125664E+03  0.00000000000E+00 0.  1.
<mgrwt>
<rscale>  0 0.17808232E+04</rscale>
<asrwt>0</asrwt>
<pdfrwt beam="1">  1        2 0.26908383E+00 0.17808232E+04</pdfrwt>
<pdfrwt beam="2">  1       -1 0.69737647E-01 0.17808232E+04</pdfrwt>
<totfact> 0.20622591E+01</totfact>
</mgrwt>
</event>
<event>
12    7  0.1735955E-007  0.3299133E+04  0.7818608E-02  0.8163116E-01
         -1   -1    0    0    0  501 -0.00000000000E+00  0.00000000000E+00  0.24416098190E+04  0.24416098190E+04  0.00000000000E+00 0.  1.
          2   -1    0    0  501    0  0.00000000000E+00 -0.00000000000E+00 -0.11144572967E+04  0.11144572967E+04  0.00000000000E+00 0. -1.
         24    2    1    2    0    0  0.59287551088E+03 -0.80138265017E+03 -0.63023505593E+03  0.11820048816E+04  0.78891007408E+02 0.  0.
        254    2    1    2    0    0 -0.59287551088E+03  0.80138265017E+03  0.19573875782E+04  0.23740622341E+04  0.90060526132E+03 0.  0.
         23    2    4    4    0    0 -0.65705371658E+03  0.21030670065E+03  0.74233967106E+03  0.10180460473E+04  0.96959127491E+02 0.  0.
         23    2    4    4    0    0  0.64178205701E+02  0.59107594952E+03  0.12150479071E+04  0.13560161868E+04  0.94598425021E+02 0.  0.
          4    1    3    3  502    0  0.12955474524E+03 -0.16480812644E+03 -0.96256166774E+02  0.23067596362E+03  0.00000000000E+00 0. -1.
         -3    1    3    3    0  502  0.46332076565E+03 -0.63657452373E+03 -0.53397888915E+03  0.95132891799E+03  0.00000000000E+00 0.  1.
         13    1    5    5    0    0 -0.23926063930E+03  0.12607550817E+03  0.28394003212E+03  0.39212578227E+03  0.00000000000E+00 0. -1.
        -13    1    5    5    0    0 -0.41779307728E+03  0.84231192473E+02  0.45839963894E+03  0.62592026504E+03  0.00000000000E+00 0.  1.
          4    1    6    6  503    0 -0.32015244234E+01  0.42393303119E+02  0.15187892299E+03  0.15771699071E+03  0.00000000000E+00 0. -1.
         -4    1    6    6    0  503  0.67379730124E+02  0.54868264640E+03  0.10631689841E+04  0.11982991961E+04  0.00000000000E+00 0.  1.
<mgrwt>
<rscale>  0 0.32991331E+04</rscale>
<asrwt>0</asrwt>
<pdfrwt beam="1">  1        2 0.17145497E+00 0.32991331E+04</pdfrwt>
<pdfrwt beam="2">  1       -1 0.37563228E+00 0.32991331E+04</pdfrwt>
<totfact> 0.21255508E-01</totfact>
</mgrwt>
</event>
<event>
12    7  0.1735955E-007  0.1482429E+04  0.7818608E-02  0.8896223E-01
         -1   -1    0    0    0  501 -0.00000000000E+00  0.00000000000E+00  0.42178968581E+03  0.42178968581E+03  0.00000000000E+00 0.  1.
          2   -1    0    0  501    0  0.00000000000E+00 -0.00000000000E+00 -0.13025415632E+04  0.13025415632E+04  0.00000000000E+00 0. -1.
         24    2    1    2    0    0  0.26743206901E+03  0.33844485104E+03 -0.10397847258E+03  0.45241572771E+03  0.88338209100E+02 0.  0.
        254    2    1    2    0    0 -0.26743206901E+03 -0.33844485104E+03 -0.77677340480E+03  0.12719155213E+04  0.91012490471E+03 0.  0.
         23    2    4    4    0    0 -0.67979475009E+02  0.30325888227E+03 -0.31312192174E+03  0.45047178677E+03  0.91062254004E+02 0.  0.
         23    2    4    4    0    0 -0.19945259400E+03 -0.64170373331E+03 -0.46365148307E+03  0.82144373453E+03  0.90730880384E+02 0.  0.
          2    1    3    3  502    0  0.53096099084E+02  0.22154349001E+02 -0.22343703084E+02  0.61719137916E+02  0.00000000000E+00 0. -1.
         -1    1    3    3    0  502  0.21433596993E+03  0.31629050204E+03 -0.81634769499E+02  0.39069658979E+03  0.00000000000E+00 0.  1.
         13    1    5    5    0    0 -0.18013453538E+02  0.17176504318E+02 -0.61017552024E+02  0.65898850247E+02  0.00000000000E+00 0. -1.
        -13    1    5    5    0    0 -0.49966021471E+02  0.28608237795E+03 -0.25210436971E+03  0.38457293652E+03  0.00000000000E+00 0.  1.
          2    1    6    6  503    0 -0.46130824680E+02 -0.18350097376E+03 -0.84285737449E+02  0.20713460815E+03  0.00000000000E+00 0. -1.
         -2    1    6    6    0  503 -0.15332176932E+03 -0.45820275954E+03 -0.37936574562E+03  0.61430912638E+03  0.00000000000E+00 0.  1.
<mgrwt>
<rscale>  0 0.14824285E+04</rscale>
<asrwt>0</asrwt>
<pdfrwt beam="1">  1        2 0.20039101E+00 0.14824285E+04</pdfrwt>
<pdfrwt beam="2">  1       -1 0.64890721E-01 0.14824285E+04</pdfrwt>
<totfact> 0.43749861E+01</totfact>
</mgrwt>
</event>
<event>
12    7  0.1735955E-007  0.1231031E+04  0.7818608E-02  0.9086120E-01
          2   -1    0    0  501    0  0.00000000000E+00  0.00000000000E+00  0.28197070374E+04  0.28197070374E+04  0.00000000000E+00 0. -1.
         -1   -1    0    0    0  501 -0.00000000000E+00 -0.00000000000E+00 -0.13436132034E+03  0.13436132034E+03  0.00000000000E+00 0.  1.
         24    2    1    2    0    0  0.26407411073E+03  0.33826072336E+02  0.69421625055E+03  0.74782850974E+03  0.80199366083E+02 0.  0.
        254    2    1    2    0    0 -0.26407411073E+03 -0.33826072336E+02  0.19911294665E+04  0.22062398480E+04  0.91215041271E+03 0.  0.
         23    2    4    4    0    0 -0.15174793772E+03 -0.40172623809E+03  0.51074736503E+03  0.67392435905E+03  0.94338559803E+02 0.  0.
         23    2    4    4    0    0 -0.11232617301E+03  0.36790016575E+03  0.14803821015E+04  0.15323154889E+04  0.92151452646E+02 0.  0.
          2    1    3    3  502    0  0.17809713295E+03  0.42318123146E+02  0.55055570529E+03  0.58019048333E+03  0.00000000000E+00 0. -1.
         -1    1    3    3    0  502  0.85976977782E+02 -0.84920508098E+01  0.14366054526E+03  0.16763802641E+03  0.00000000000E+00 0.  1.
         13    1    5    5    0    0 -0.78396751729E+02 -0.18912939900E+03  0.31546360143E+03  0.37607614132E+03  0.00000000000E+00 0.  1.
        -13    1    5    5    0    0 -0.73351185994E+02 -0.21259683908E+03  0.19528376361E+03  0.29784821773E+03  0.00000000000E+00 0. -1.
          3    1    6    6  503    0 -0.48022058805E+02  0.65612337853E+02  0.42074457501E+03  0.42852898900E+03  0.00000000000E+00 0. -1.
         -3    1    6    6    0  503 -0.64304114202E+02  0.30228782790E+03  0.10596375264E+04  0.11037864999E+04  0.00000000000E+00 0.  1.
<mgrwt>
<rscale>  0 0.12310314E+04</rscale>
<asrwt>0</asrwt>
<pdfrwt beam="1">  1        2 0.43380104E+00 0.12310314E+04</pdfrwt>
<pdfrwt beam="2">  1       -1 0.20670974E-01 0.12310314E+04</pdfrwt>
<totfact> 0.49336826E+01</totfact>
</mgrwt>
</event>
<event>
12    7  0.1735955E-007  0.1236933E+04  0.7818608E-02  0.9081129E-01
          2   -1    0    0  501    0  0.00000000000E+00  0.00000000000E+00  0.55880804291E+03  0.55880804291E+03  0.00000000000E+00 0. -1.
         -1   -1    0    0    0  501 -0.00000000000E+00 -0.00000000000E+00 -0.68449434297E+03  0.68449434297E+03  0.00000000000E+00 0.  1.
         24    2    1    2    0    0  0.23212961628E+02 -0.93259739596E+02  0.21796184952E+03  0.25121563732E+03  0.79785386957E+02 0.  0.
        254    2    1    2    0    0 -0.23212961628E+02  0.93259739596E+02 -0.34364814958E+03  0.99208674855E+03  0.92569208991E+03 0.  0.
         23    2    4    4    0    0  0.42186363736E+02 -0.35528830695E+03 -0.37850143376E+03  0.52925856421E+03  0.94030963433E+02 0.  0.
         23    2    4    4    0    0 -0.65399325364E+02  0.44854804655E+03  0.34853284180E+02  0.46282818434E+03  0.86733816855E+02 0.  0.
          2    1    3    3  502    0  0.38077952518E+02 -0.29050289261E+02  0.14589760333E+03  0.15355767786E+03  0.00000000000E+00 0. -1.
         -3    1    3    3    0  502 -0.14864990890E+02 -0.64209450335E+02  0.72064246197E+02  0.97657959463E+02  0.00000000000E+00 0.  1.
         13    1    5    5    0    0 -0.28063743612E+02 -0.15814838416E+03 -0.16088270613E+03  0.22733616133E+03  0.00000000000E+00 0. -1.
        -13    1    5    5    0    0  0.70250107348E+02 -0.19713992280E+03 -0.21761872763E+03  0.30192240288E+03  0.00000000000E+00 0.  1.
          2    1    6    6  503    0  0.18261032482E+02  0.15381165330E+03  0.46269385523E+01  0.15496095818E+03  0.00000000000E+00 0. -1.
         -2    1    6    6    0  503 -0.83660357846E+02  0.29473639325E+03  0.30226345628E+02  0.30786722617E+03  0.00000000000E+00 0.  1.
<mgrwt>
<rscale>  0 0.12369332E+04</rscale>
<asrwt>0</asrwt>
<pdfrwt beam="1">  1        2 0.85970469E-01 0.12369332E+04</pdfrwt>
<pdfrwt beam="2">  1       -1 0.10530682E+00 0.12369332E+04</pdfrwt>
<totfact> 0.51427461E+01</totfact>
</mgrwt>
</event>
<event>
12    7  0.1735955E-007  0.1930944E+04  0.7818608E-02  0.8639605E-01
          2   -1    0    0  501    0  0.00000000000E+00  0.00000000000E+00  0.53817831762E+03  0.53817831762E+03  0.00000000000E+00 0. -1.
         -1   -1    0    0    0  501 -0.00000000000E+00 -0.00000000000E+00 -0.17320219230E+04  0.17320219230E+04  0.00000000000E+00 0.  1.
         24    2    1    2    0    0  0.28132295210E+03  0.33062161758E+03  0.25536307106E+03  0.50968793686E+03  0.78219163453E+02 0.  0.
        254    2    1    2    0    0 -0.28132295210E+03 -0.33062161758E+03 -0.14492066764E+04  0.17605123037E+04  0.90041674974E+03 0.  0.
         23    2    4    4    0    0 -0.29093510212E+03 -0.29396467798E+03 -0.15561976144E+04  0.16127458214E+04  0.90219753189E+02 0.  0.
         23    2    4    4    0    0  0.96121500162E+01 -0.36656939607E+02  0.10699093800E+03  0.14776648231E+03  0.94613676763E+02 0.  0.
          4    1    3    3  502    0  0.24313217955E+03  0.31880467188E+03  0.22782770486E+03  0.46114546365E+03  0.00000000000E+00 0. -1.
         -3    1    3    3    0  502  0.38190772555E+02  0.11816945707E+02  0.27535366198E+02  0.48542473216E+02  0.00000000000E+00 0.  1.
         13    1    5    5    0    0 -0.89903641598E+02 -0.15412875837E+03 -0.65829304045E+03  0.68204696762E+03  0.00000000000E+00 0.  1.
        -13    1    5    5    0    0 -0.20103146052E+03 -0.13983591960E+03 -0.89790457394E+03  0.93069885378E+03  0.00000000000E+00 0. -1.
          2    1    6    6  503    0  0.23228663971E+02 -0.65779976453E+02  0.74244679398E+02  0.10187663398E+03  0.00000000000E+00 0. -1.
         -2    1    6    6    0  503 -0.13616513954E+02  0.29123036845E+02  0.32746258599E+02  0.45889848328E+02  0.00000000000E+00 0.  1.
<mgrwt>
<rscale>  0 0.19309445E+04</rscale>
<asrwt>0</asrwt>
<pdfrwt beam="1">  1        2 0.82796666E-01 0.19309445E+04</pdfrwt>
<pdfrwt beam="2">  1       -1 0.26646491E+00 0.19309445E+04</pdfrwt>
<totfact> 0.32845459E+00</totfact>
</mgrwt>
</event>
<event>
12    7  0.1735955E-007  0.1644274E+04  0.7818608E-02  0.8793801E-01
         -1   -1    0    0    0  501 -0.00000000000E+00  0.00000000000E+00  0.72228279355E+03  0.72228279355E+03  0.00000000000E+00 0.  1.
          2   -1    0    0  501    0  0.00000000000E+00 -0.00000000000E+00 -0.93579584156E+03  0.93579584156E+03  0.00000000000E+00 0. -1.
         24    2    1    2    0    0  0.36631994311E+03 -0.15974328363E+02 -0.51294035789E+03  0.63575458608E+03  0.81428515165E+02 0.  0.
        254    2    1    2    0    0 -0.36631994311E+03  0.15974328363E+02  0.29942730988E+03  0.10223240490E+04  0.90611493059E+03 0.  0.
         23    2    4    4    0    0 -0.53918394869E+03 -0.19615306208E+03  0.41186405513E+03  0.71197302329E+03  0.89878983544E+02 0.  0.
         23    2    4    4    0    0  0.17286400558E+03  0.21212739044E+03 -0.11243674526E+03  0.31035102574E+03  0.93785624119E+02 0.  0.
          2    1    3    3  502    0  0.26253824427E+03  0.19509258044E+02 -0.32614280172E+03  0.41913729012E+03  0.00000000000E+00 0. -1.
         -1    1    3    3    0  502  0.10378169884E+03 -0.35483586407E+02 -0.18679755617E+03  0.21661729596E+03  0.00000000000E+00 0.  1.
         13    1    5    5    0    0 -0.23528281090E+03 -0.47685552341E+02  0.13902682917E+03  0.27741732505E+03  0.00000000000E+00 0.  1.
        -13    1    5    5    0    0 -0.30390113779E+03 -0.14846750974E+03  0.27283722596E+03  0.43455569824E+03  0.00000000000E+00 0. -1.
          2    1    6    6  503    0 -0.20995543456E+01  0.16038992890E+02 -0.31434584744E+02  0.35352376715E+02  0.00000000000E+00 0. -1.
         -2    1    6    6    0  503  0.17496355993E+03  0.19608839755E+03 -0.81002160514E+02  0.27499864903E+03  0.00000000000E+00 0.  1.
<mgrwt>
<rscale>  0 0.16442740E+04</rscale>
<asrwt>0</asrwt>
<pdfrwt beam="1">  1        2 0.14396859E+00 0.16442740E+04</pdfrwt>
<pdfrwt beam="2">  1       -1 0.11112043E+00 0.16442740E+04</pdfrwt>
<totfact> 0.22547926E+01</totfact>
</mgrwt>
</event>
<event>
12    7  0.1735955E-007  0.2138472E+04  0.7818608E-02  0.8544483E-01
          2   -1    0    0  501    0  0.00000000000E+00  0.00000000000E+00  0.26488503776E+04  0.26488503776E+04  0.00000000000E+00 0. -1.
         -1   -1    0    0    0  501 -0.00000000000E+00 -0.00000000000E+00 -0.43160821864E+03  0.43160821864E+03  0.00000000000E+00 0.  1.
         24    2    1    2    0    0 -0.32000636688E+03  0.63735637567E+03  0.16508275722E+04  0.18001104719E+04  0.80862931053E+02 0.  0.
        254    2    1    2    0    0  0.32000636688E+03 -0.63735637567E+03  0.56641458675E+03  0.12803481243E+04  0.89991033489E+03 0.  0.
         23    2    4    4    0    0 -0.11039443691E+03 -0.60545123104E+03  0.56376942518E+03  0.83957989905E+03  0.91106076947E+02 0.  0.
         23    2    4    4    0    0  0.43040080379E+03 -0.31905144629E+02  0.26451615757E+01  0.44076822524E+03  0.89480955221E+02 0.  0.
          2    1    3    3  502    0 -0.31185988634E+03  0.56997284086E+03  0.15056580300E+04  0.16398572290E+04  0.00000000000E+00 0. -1.
         -1    1    3    3    0  502 -0.81464805376E+01  0.67383534804E+02  0.14516954217E+03  0.16025324297E+03  0.00000000000E+00 0.  1.
         13    1    5    5    0    0 -0.42120478935E+02 -0.10522629623E+03  0.14224471774E+03  0.18187981716E+03  0.00000000000E+00 0. -1.
        -13    1    5    5    0    0 -0.68273957974E+02 -0.50022493481E+03  0.42152470743E+03  0.65770008189E+03  0.00000000000E+00 0.  1.
          2    1    6    6  503    0  0.28123437646E+03 -0.61465295534E+02 -0.11056169851E+02  0.28808504985E+03  0.00000000000E+00 0. -1.
         -2    1    6    6    0  503  0.14916642733E+03  0.29560150904E+02  0.13701331427E+02  0.15268317539E+03  0.00000000000E+00 0.  1.
<mgrwt>
<rscale>  0 0.21384720E+04</rscale>
<asrwt>0</asrwt>
<pdfrwt beam="1">  1        2 0.40751543E+00 0.21384720E+04</pdfrwt>
<pdfrwt beam="2">  1       -1 0.66401266E-01 0.21384720E+04</pdfrwt>
<totfact> 0.68463339E+00</totfact>
</mgrwt>
</event>
<event>
12    7  0.1735955E-007  0.1224722E+04  0.7818608E-02  0.9091488E-01
         -1   -1    0    0    0  501 -0.00000000000E+00  0.00000000000E+00  0.60448283768E+03  0.60448283768E+03  0.00000000000E+00 0.  1.
          2   -1    0    0  501    0  0.00000000000E+00 -0.00000000000E+00 -0.62034228717E+03  0.62034228717E+03  0.00000000000E+00 0. -1.
         24    2    1    2    0    0 -0.15985685336E+03  0.11866068167E+03  0.18485430465E+03  0.28334931635E+03  0.80505591015E+02 0.  0.
        254    2    1    2    0    0  0.15985685336E+03 -0.11866068167E+03 -0.20071375415E+03  0.94147580850E+03  0.89802901732E+03 0.  0.
         23    2    4    4    0    0 -0.16119723733E+03  0.28160865797E+03  0.85833928480E+02  0.34780506378E+03  0.91175180544E+02 0.  0.
         23    2    4    4    0    0  0.32105409069E+03 -0.40026933964E+03 -0.28654768263E+03  0.59367074472E+03  0.83929168395E+02 0.  0.
          2    1    3    3  502    0 -0.21524597615E+02 -0.34322447691E+01 -0.52127513297E+00  0.21802759789E+02  0.00000000000E+00 0. -1.
         -1    1    3    3    0  502 -0.13833225574E+03  0.12209292644E+03  0.18537557979E+03  0.26154655656E+03  0.00000000000E+00 0.  1.
         13    1    5    5    0    0 -0.50610326773E+02  0.32004759699E+02  0.37220579427E+02  0.70505895869E+02  0.00000000000E+00 0. -1.
        -13    1    5    5    0    0 -0.11058691056E+03  0.24960389827E+03  0.48613349053E+02  0.27729916792E+03  0.00000000000E+00 0.  1.
          1    1    6    6  503    0  0.24545630392E+03 -0.24583973022E+03 -0.17816405775E+03  0.39042080063E+03  0.00000000000E+00 0. -1.
         -1    1    6    6    0  503  0.75597786772E+02 -0.15442960943E+03 -0.10838362488E+03  0.20324994409E+03  0.00000000000E+00 0.  1.
<mgrwt>
<rscale>  0 0.12247224E+04</rscale>
<asrwt>0</asrwt>
<pdfrwt beam="1">  1        2 0.95437275E-01 0.12247224E+04</pdfrwt>
<pdfrwt beam="2">  1       -1 0.92997360E-01 0.12247224E+04</pdfrwt>
<totfact> 0.60245942E+01</totfact>
</mgrwt>
</event>
<event>
12    7  0.1735955E-007  0.2460563E+04  0.7818608E-02  0.8417172E-01
          2   -1    0    0  501    0  0.00000000000E+00  0.00000000000E+00  0.70392980447E+03  0.70392980447E+03  0.00000000000E+00 0. -1.
         -1   -1    0    0    0  501 -0.00000000000E+00 -0.00000000000E+00 -0.21502030195E+04  0.21502030195E+04  0.00000000000E+00 0.  1.
         24    2    1    2    0    0 -0.83451966554E+03  0.56433318624E+03 -0.10132298160E+04  0.14313404862E+04  0.84887632348E+02 0.  0.
        254    2    1    2    0    0  0.83451966554E+03 -0.56433318624E+03 -0.43304339905E+03  0.14227923378E+04  0.90659606979E+03 0.  0.
         23    2    4    4    0    0  0.46326267304E+03 -0.38937552929E+03  0.21628290981E+03  0.64914408260E+03  0.91564927022E+02 0.  0.
         23    2    4    4    0    0  0.37125699250E+03 -0.17495765696E+03 -0.64932630886E+03  0.77364825519E+03  0.92005604017E+02 0.  0.
          2    1    3    3  502    0 -0.10863867531E+03  0.40963116265E+02 -0.11651451429E+03  0.16448699251E+03  0.00000000000E+00 0. -1.
         -1    1    3    3    0  502 -0.72588099023E+03  0.52337006998E+03 -0.89671530174E+03  0.12668534937E+04  0.00000000000E+00 0.  1.
         13    1    5    5    0    0  0.28769761462E+03 -0.29608392946E+03  0.13490287763E+03  0.43432061560E+03  0.00000000000E+00 0. -1.
        -13    1    5    5    0    0  0.17556505842E+03 -0.93291599828E+02  0.81380032187E+02  0.21482346701E+03  0.00000000000E+00 0.  1.
          2    1    6    6  503    0  0.96759938172E+02 -0.74570427591E+01 -0.12039792461E+03  0.15464072352E+03  0.00000000000E+00 0.  1.
         -2    1    6    6    0  503  0.27449705433E+03 -0.16750061420E+03 -0.52892838425E+03  0.61900753167E+03  0.00000000000E+00 0. -1.
<mgrwt>
<rscale>  0 0.24605625E+04</rscale>
<asrwt>0</asrwt>
<pdfrwt beam="1">  1        2 0.10829689E+00 0.24605625E+04</pdfrwt>
<pdfrwt beam="2">  1       -1 0.33080046E+00 0.24605625E+04</pdfrwt>
<totfact> 0.86397619E-01</totfact>
</mgrwt>
</event>
<event>
12    7  0.1735955E-007  0.1918944E+04  0.7818608E-02  0.8645484E-01
          2   -1    0    0  501    0  0.00000000000E+00  0.00000000000E+00  0.76015385902E+03  0.76015385902E+03  0.00000000000E+00 0. -1.
         -1   -1    0    0    0  501 -0.00000000000E+00 -0.00000000000E+00 -0.12110534480E+04  0.12110534480E+04  0.00000000000E+00 0.  1.
         24    2    1    2    0    0 -0.61964576531E+03 -0.36743104684E+03 -0.34780808226E+03  0.80381364132E+03  0.78609536491E+02 0.  0.
        254    2    1    2    0    0  0.61964576531E+03  0.36743104684E+03 -0.10309150669E+03  0.11673936657E+04  0.91280538083E+03 0.  0.
         23    2    4    4    0    0  0.62547947893E+03 -0.13715176949E+03 -0.94714387143E+02  0.65402451796E+03  0.93499029529E+02 0.  0.
         23    2    4    4    0    0 -0.58337136159E+01  0.50458281633E+03 -0.83771195425E+01  0.51336914773E+03  0.94020502848E+02 0.  0.
          2    1    3    3  502    0 -0.62202790145E+03 -0.36635003163E+03 -0.34544966712E+03  0.80029152711E+03  0.00000000000E+00 0. -1.
         -1    1    3    3    0  502  0.23821361387E+01 -0.10810152138E+01 -0.23584151407E+01  0.35221142020E+01  0.00000000000E+00 0.  1.
         13    1    5    5    0    0  0.10175285386E+03 -0.58490345844E+02 -0.22856353362E+02  0.11957080210E+03  0.00000000000E+00 0. -1.
        -13    1    5    5    0    0  0.52372662507E+03 -0.78661423645E+02 -0.71858033780E+02  0.53445371586E+03  0.00000000000E+00 0.  1.
          2    1    6    6  503    0 -0.10575146454E+02  0.39857398269E+03  0.31621313401E+02  0.39996619964E+03  0.00000000000E+00 0.  1.
         -2    1    6    6    0  503  0.47414328377E+01  0.10600883364E+03 -0.39998432943E+02  0.11340294808E+03  0.00000000000E+00 0. -1.
<mgrwt>
<rscale>  0 0.19189445E+04</rscale>
<asrwt>0</asrwt>
<pdfrwt beam="1">  1        2 0.11694675E+00 0.19189445E+04</pdfrwt>
<pdfrwt beam="2">  1       -1 0.18631592E+00 0.19189445E+04</pdfrwt>
<totfact> 0.73782672E+00</totfact>
</mgrwt>
</event>
<event>
12    7  0.1735955E-007  0.1752165E+04  0.7818608E-02  0.8732160E-01
          2   -1    0    0  501    0  0.00000000000E+00  0.00000000000E+00  0.13977445875E+04  0.13977445875E+04  0.00000000000E+00 0. -1.
         -1   -1    0    0    0  501 -0.00000000000E+00 -0.00000000000E+00 -0.54911348485E+03  0.54911348485E+03  0.00000000000E+00 0.  1.
         24    2    1    2    0    0  0.61373295442E+03 -0.37356133920E+02  0.11559063847E+03  0.63066614084E+03  0.79466756745E+02 0.  0.
        254    2    1    2    0    0 -0.61373295442E+03  0.37356133920E+02  0.73304046414E+03  0.13161919315E+04  0.90385245383E+03 0.  0.
         23    2    4    4    0    0 -0.35958903074E+03  0.38787990900E+03  0.10326265906E+03  0.54643117845E+03  0.90381199300E+02 0.  0.
         23    2    4    4    0    0 -0.25414392368E+03 -0.35052377508E+03  0.62977780509E+03  0.76976075302E+03  0.91953696292E+02 0.  0.
          2    1    3    3  502    0  0.68865090561E+02  0.16213005957E+02  0.28569640184E+02  0.76298667094E+02  0.00000000000E+00 0. -1.
         -1    1    3    3    0  502  0.54486786385E+03 -0.53569139876E+02  0.87020998285E+02  0.55436747375E+03  0.00000000000E+00 0.  1.
         13    1    5    5    0    0 -0.23978530967E+03  0.23938173159E+03  0.10785897427E+03  0.35557582381E+03  0.00000000000E+00 0.  1.
        -13    1    5    5    0    0 -0.11980372107E+03  0.14849817742E+03 -0.45963152143E+01  0.19085535463E+03  0.00000000000E+00 0. -1.
          2    1    6    6  503    0 -0.56838693515E+02 -0.71650372904E+02  0.20635699577E+03  0.22571580077E+03  0.00000000000E+00 0. -1.
         -2    1    6    6    0  503 -0.19730523016E+03 -0.27887340218E+03  0.42342080932E+03  0.54404495224E+03  0.00000000000E+00 0.  1.
<mgrwt>
<rscale>  0 0.17521648E+04</rscale>
<asrwt>0</asrwt>
<pdfrwt beam="1">  1        2 0.21503763E+00 0.17521648E+04</pdfrwt>
<pdfrwt beam="2">  1       -1 0.84478998E-01 0.17521648E+04</pdfrwt>
<totfact> 0.21750637E+01</totfact>
</mgrwt>
</event>
<event>
12    7  0.1735955E-007  0.2095276E+04  0.7818608E-02  0.8563327E-01
         -1   -1    0    0    0  501 -0.00000000000E+00  0.00000000000E+00  0.39062822967E+03  0.39062822967E+03  0.00000000000E+00 0.  1.
          2   -1    0    0  501    0  0.00000000000E+00 -0.00000000000E+00 -0.28096937043E+04  0.28096937043E+04  0.00000000000E+00 0. -1.
         24    2    1    2    0    0 -0.26956622285E+03  0.55255338240E+03 -0.87687036299E+02  0.62621793046E+03  0.80490317319E+02 0.  0.
        254    2    1    2    0    0  0.26956622285E+03 -0.55255338240E+03 -0.23313784383E+04  0.25741040035E+04  0.90150141944E+03 0.  0.
         23    2    4    4    0    0  0.55271127417E+03 -0.15008182956E+03 -0.14332026117E+04  0.15460558639E+04  0.90579800105E+02 0.  0.
         23    2    4    4    0    0 -0.28314505132E+03 -0.40247155284E+03 -0.89817582668E+03  0.10280481396E+04  0.89491288543E+02 0.  0.
          2    1    3    3  502    0 -0.12552100712E+03  0.24842608908E+03 -0.80039563678E+02  0.28961591241E+03  0.00000000000E+00 0. -1.
         -1    1    3    3    0  502 -0.14404521573E+03  0.30412729332E+03 -0.76474726218E+01  0.33660201805E+03  0.00000000000E+00 0.  1.
         13    1    5    5    0    0  0.38377084705E+03 -0.11044499310E+03 -0.88227164924E+03  0.96844278230E+03  0.00000000000E+00 0. -1.
        -13    1    5    5    0    0  0.16894042712E+03 -0.39636836467E+02 -0.55093096243E+03  0.57761308164E+03  0.00000000000E+00 0.  1.
          3    1    6    6  503    0 -0.21504117011E+03 -0.25973168974E+03 -0.67470412156E+03  0.75427376141E+03  0.00000000000E+00 0. -1.
         -3    1    6    6    0  503 -0.68103881204E+02 -0.14273986310E+03 -0.22347170512E+03  0.27377437816E+03  0.00000000000E+00 0.  1.
<mgrwt>
<rscale>  0 0.20952763E+04</rscale>
<asrwt>0</asrwt>
<pdfrwt beam="1">  1        2 0.43226056E+00 0.20952763E+04</pdfrwt>
<pdfrwt beam="2">  1       -1 0.60096652E-01 0.20952763E+04</pdfrwt>
<totfact> 0.67276021E+00</totfact>
</mgrwt>
</event>
<event>
12    7  0.1735955E-007  0.1325726E+04  0.7818608E-02  0.9009410E-01
          2   -1    0    0  501    0  0.00000000000E+00  0.00000000000E+00  0.12906130566E+04  0.12906130566E+04  0.00000000000E+00 0. -1.
         -1   -1    0    0    0  501 -0.00000000000E+00 -0.00000000000E+00 -0.34044840119E+03  0.34044840119E+03  0.00000000000E+00 0.  1.
         24    2    1    2    0    0 -0.29272910689E+03 -0.57258563281E+02  0.68861831632E+02  0.31696017089E+03  0.82176182588E+02 0.  0.
        254    2    1    2    0    0  0.29272910689E+03  0.57258563281E+02  0.88130282378E+03  0.13141012869E+04  0.92800789434E+03 0.  0.
         23    2    4    4    0    0 -0.12349432986E+02 -0.37187116120E+03  0.59556974351E+03  0.70860164851E+03  0.94722267017E+02 0.  0.
         23    2    4    4    0    0  0.30507853988E+03  0.42912972448E+03  0.28573308027E+03  0.60549963839E+03  0.88097576618E+02 0.  0.
          2    1    3    3  502    0 -0.11305416403E+03 -0.20245715688E+02 -0.13931941064E+02  0.11569456336E+03  0.00000000000E+00 0. -1.
         -1    1    3    3    0  502 -0.17967494286E+03 -0.37012847593E+02  0.82793772696E+02  0.20126560753E+03  0.00000000000E+00 0.  1.
         13    1    5    5    0    0  0.19395878752E+02 -0.18519979937E+03  0.36901999094E+03  0.41334116601E+03  0.00000000000E+00 0. -1.
        -13    1    5    5    0    0 -0.31745311738E+02 -0.18667136182E+03  0.22654975256E+03  0.29526048250E+03  0.00000000000E+00 0.  1.
          1    1    6    6  503    0  0.25623174754E+03  0.39430479983E+03  0.22944101430E+03  0.52323432864E+03  0.00000000000E+00 0. -1.
         -1    1    6    6    0  503  0.48846792335E+02  0.34824924645E+02  0.56292065968E+02  0.82265309753E+02  0.00000000000E+00 0.  1.
<mgrwt>
<rscale>  0 0.13257257E+04</rscale>
<asrwt>0</asrwt>
<pdfrwt beam="1">  1        2 0.19855585E+00 0.13257257E+04</pdfrwt>
<pdfrwt beam="2">  1       -1 0.52376678E-01 0.13257257E+04</pdfrwt>
<totfact> 0.68556590E+01</totfact>
</mgrwt>
</event>
<event>
12    7  0.1735955E-007  0.1535468E+04  0.7818608E-02  0.8861203E-01
          2   -1    0    0  501    0  0.00000000000E+00  0.00000000000E+00  0.59290368399E+03  0.59290368399E+03  0.00000000000E+00 0. -1.
         -1   -1    0    0    0  501 -0.00000000000E+00 -0.00000000000E+00 -0.99411729889E+03  0.99411729889E+03  0.00000000000E+00 0.  1.
         24    2    1    2    0    0 -0.17119355102E+02 -0.44017081284E+03 -0.37726471829E+03  0.58543534946E+03  0.79765054558E+02 0.  0.
        254    2    1    2    0    0  0.17119355102E+02  0.44017081284E+03 -0.23948896614E+02  0.10015856334E+04  0.89919787290E+03 0.  0.
         23    2    4    4    0    0 -0.27482400980E+03 -0.11132834024E+03  0.15461743957E+03  0.34654437597E+03  0.90907734529E+02 0.  0.
         23    2    4    4    0    0  0.29194336490E+03  0.55149915308E+03 -0.17856633618E+03  0.65504125745E+03  0.88379117327E+02 0.  0.
          4    1    3    3  502    0 -0.27983970592E+02 -0.12446572782E+03 -0.14632699097E+03  0.19412987482E+03  0.00000000000E+00 0. -1.
         -3    1    3    3    0  502  0.10864615490E+02 -0.31570508502E+03 -0.23093772732E+03  0.39130547463E+03  0.00000000000E+00 0.  1.
         13    1    5    5    0    0 -0.13839441930E+03 -0.10470234528E+03  0.87937531826E+02  0.19454718169E+03  0.00000000000E+00 0.  1.
        -13    1    5    5    0    0 -0.13642959050E+03 -0.66259949626E+01  0.66679907744E+02  0.15199719429E+03  0.00000000000E+00 0. -1.
          2    1    6    6  503    0  0.26868797736E+03  0.54138670101E+03 -0.16621004555E+03  0.62683216928E+03  0.00000000000E+00 0. -1.
         -2    1    6    6    0  503  0.23255387546E+02  0.10112452073E+02 -0.12356290637E+02  0.28209088166E+02  0.00000000000E+00 0.  1.
<mgrwt>
<rscale>  0 0.15354684E+04</rscale>
<asrwt>0</asrwt>
<pdfrwt beam="1">  1        2 0.91215952E-01 0.15354684E+04</pdfrwt>
<pdfrwt beam="2">  1       -1 0.15294112E+00 0.15354684E+04</pdfrwt>
<totfact> 0.18339352E+01</totfact>
</mgrwt>
</event>
<event>
12    7  0.1735955E-007  0.1805183E+04  0.7818608E-02  0.8703548E-01
          2   -1    0    0  501    0  0.00000000000E+00  0.00000000000E+00  0.10833549793E+04  0.10833549793E+04  0.00000000000E+00 0. -1.
         -1   -1    0    0    0  501 -0.00000000000E+00 -0.00000000000E+00 -0.75198950400E+03  0.75198950400E+03  0.00000000000E+00 0.  1.
         24    2    1    2    0    0 -0.16797241450E+03  0.64907018324E+03  0.17967153368E+03  0.69846530326E+03  0.77878655799E+02 0.  0.
        254    2    1    2    0    0  0.16797241450E+03 -0.64907018324E+03  0.15169394163E+03  0.11368791800E+04  0.90552547358E+03 0.  0.
         23    2    4    4    0    0 -0.26252240957E+03  0.56196625058E+02 -0.32008489954E+02  0.28557596684E+03  0.91940269833E+02 0.  0.
         23    2    4    4    0    0  0.43049482407E+03 -0.70526680830E+03  0.18370243158E+03  0.85130321321E+03  0.90793793885E+02 0.  0.
          4    1    3    3  502    0 -0.15465428868E+03  0.63920887295E+03  0.16996375680E+03  0.67925960493E+03  0.00000000000E+00 0. -1.
         -3    1    3    3    0  502 -0.13318125828E+02  0.98613102934E+01  0.97077768803E+01  0.19205698327E+02  0.00000000000E+00 0.  1.
         13    1    5    5    0    0 -0.21065911428E+03  0.66724282615E+02  0.49464297107E+01  0.22102909194E+03  0.00000000000E+00 0. -1.
        -13    1    5    5    0    0 -0.51863295287E+02 -0.10527657557E+02 -0.36954919664E+02  0.64546874898E+02  0.00000000000E+00 0.  1.
          1    1    6    6  503    0  0.34864369005E+03 -0.61969989964E+03  0.17678849775E+03  0.73268994886E+03  0.00000000000E+00 0. -1.
         -1    1    6    6    0  503  0.81851134014E+02 -0.85566908658E+02  0.69139338285E+01  0.11861326434E+03  0.00000000000E+00 0.  1.
<mgrwt>
<rscale>  0 0.18051832E+04</rscale>
<asrwt>0</asrwt>
<pdfrwt beam="1">  1        2 0.16667000E+00 0.18051832E+04</pdfrwt>
<pdfrwt beam="2">  1       -1 0.11569069E+00 0.18051832E+04</pdfrwt>
<totfact> 0.16249418E+01</totfact>
</mgrwt>
</event>
<event>
12    7  0.1735955E-007  0.2406956E+04  0.7818608E-02  0.8436904E-01
         -1   -1    0    0    0  501 -0.00000000000E+00  0.00000000000E+00  0.85307209444E+03  0.85307209444E+03  0.00000000000E+00 0.  1.
          2   -1    0    0  501    0  0.00000000000E+00 -0.00000000000E+00 -0.16978158194E+04  0.16978158194E+04  0.00000000000E+00 0. -1.
         24    2    1    2    0    0 -0.52842082965E+03 -0.84323915708E+03 -0.73778983406E+02  0.10009908916E+04  0.79111170891E+02 0.  0.
        254    2    1    2    0    0  0.52842082965E+03  0.84323915708E+03 -0.77096474151E+03  0.15498970222E+04  0.90416441956E+03 0.  0.
         23    2    4    4    0    0  0.43163757930E+02  0.39960726515E+03 -0.78458066983E+03  0.88624635809E+03  0.91195961547E+02 0.  0.
         23    2    4    4    0    0  0.48525707172E+03  0.44363189194E+03  0.13615928317E+02  0.66365066414E+03  0.89236367621E+02 0.  0.
          4    1    3    3  502    0 -0.12993484166E+03 -0.22389278106E+03  0.14402228255E+02  0.25926523999E+03  0.00000000000E+00 0. -1.
         -3    1    3    3    0  502 -0.39848598799E+03 -0.61934637602E+03 -0.88181211661E+02  0.74172565157E+03  0.00000000000E+00 0.  1.
         13    1    5    5    0    0  0.92170536780E+01  0.20206426478E+03 -0.48826824883E+03  0.52850809265E+03  0.00000000000E+00 0. -1.
        -13    1    5    5    0    0  0.33946704252E+02  0.19754300036E+03 -0.29631242100E+03  0.35773826544E+03  0.00000000000E+00 0.  1.
          4    1    6    6  503    0  0.28751429682E+03  0.32004338546E+03  0.33234273438E+01  0.43023631253E+03  0.00000000000E+00 0. -1.
         -4    1    6    6    0  503  0.19774277490E+03  0.12358850648E+03  0.10292500973E+02  0.23341435161E+03  0.00000000000E+00 0.  1.
<mgrwt>
<rscale>  0 0.24069560E+04</rscale>
<asrwt>0</asrwt>
<pdfrwt beam="1">  1        2 0.26120243E+00 0.24069560E+04</pdfrwt>
<pdfrwt beam="2">  1       -1 0.13124186E+00 0.24069560E+04</pdfrwt>
<totfact> 0.49820911E+00</totfact>
</mgrwt>
</event>
<event>
12    7  0.2057236E-007  0.1860408E+04  0.7818608E-02  0.8674819E-01
         -1   -1    0    0    0  501 -0.00000000000E+00  0.00000000000E+00  0.84791964901E+03  0.84791964901E+03  0.00000000000E+00 0.  1.
          2   -1    0    0  501    0  0.00000000000E+00 -0.00000000000E+00 -0.10204732466E+04  0.10204732466E+04  0.00000000000E+00 0. -1.
         24    2    1    2    0    0 -0.39487075525E+02  0.61811810648E+03  0.21737030301E+03  0.66116002718E+03  0.79079138895E+02 0.  0.
        254    2    1    2    0    0  0.39487075525E+02 -0.61811810648E+03 -0.38992390060E+03  0.12072328684E+04  0.96007360534E+03 0.  0.
         23    2    4    4    0    0 -0.13337215426E+03 -0.28705426244E+02  0.26027504932E+03  0.30780020564E+03  0.91573643933E+02 0.  0.
         23    2    4    4    0    0  0.17285922978E+03 -0.58941268024E+03 -0.65019894992E+03  0.89943266279E+03  0.94513594116E+02 0.  0.
          2    1    3    3  502    0 -0.21377422460E+02  0.14981963263E+03  0.20026731157E+02  0.15265643280E+03  0.00000000000E+00 0. -1.
         -1    1    3    3    0  502 -0.18109653066E+02  0.46829847385E+03  0.19734357186E+03  0.50850359438E+03  0.00000000000E+00 0.  1.
         13    1    5    5    0    0 -0.25165886669E+02 -0.37185499923E+01  0.67977341630E+00  0.25448213253E+02  0.00000000000E+00 0. -1.
        -13    1    5    5    0    0 -0.10820626759E+03 -0.24986876252E+02  0.25959527591E+03  0.28235199238E+03  0.00000000000E+00 0.  1.
          4    1    6    6  503    0 -0.77176766346E+01 -0.46489772428E+01 -0.57631676095E+01  0.10695308454E+02  0.00000000000E+00 0. -1.
         -4    1    6    6    0  503  0.18057690642E+03 -0.58476370299E+03 -0.64443578231E+03  0.88873735434E+03  0.00000000000E+00 0.  1.
<mgrwt>
<rscale>  0 0.18604078E+04</rscale>
<asrwt>0</asrwt>
<pdfrwt beam="1">  1        2 0.15699588E+00 0.18604078E+04</pdfrwt>
<pdfrwt beam="2">  1       -1 0.13044918E+00 0.18604078E+04</pdfrwt>
<totfact> 0.13169677E+01</totfact>
</mgrwt>
</event>
<event>
12    7  0.1735955E-007  0.2748530E+04  0.7818608E-02  0.8319428E-01
          2   -1    0    0  501    0  0.00000000000E+00  0.00000000000E+00  0.27256594048E+04  0.27256594048E+04  0.00000000000E+00 0. -1.
         -1   -1    0    0    0  501 -0.00000000000E+00 -0.00000000000E+00 -0.69289821376E+03  0.69289821376E+03  0.00000000000E+00 0.  1.
         24    2    1    2    0    0  0.10817451589E+03  0.11605597495E+04  0.90821118585E+03  0.14798685281E+04  0.81010150311E+02 0.  0.
        254    2    1    2    0    0 -0.10817451589E+03 -0.11605597495E+04  0.11245500052E+04  0.19386890905E+04  0.10655055219E+04 0.  0.
         23    2    4    4    0    0 -0.44592083984E+02 -0.65037405619E+03 -0.43326662860E+02  0.65940867559E+03  0.89262168958E+02 0.  0.
         23    2    4    4    0    0 -0.63582431906E+02 -0.51018569328E+03  0.11678766681E+04  0.12792804149E+04  0.91051088800E+02 0.  0.
          2    1    3    3  502    0 -0.12461970116E+02  0.99045555693E+02  0.85942847103E+02  0.13172507647E+03  0.00000000000E+00 0. -1.
         -1    1    3    3    0  502  0.12063648601E+03  0.10615141938E+04  0.82226833875E+03  0.13481434517E+04  0.00000000000E+00 0.  1.
         13    1    5    5    0    0 -0.53951964433E+02 -0.44050636775E+03  0.50816060197E+01  0.44382710283E+03  0.00000000000E+00 0.  1.
        -13    1    5    5    0    0  0.93598804494E+01 -0.20986768845E+03 -0.48408268880E+02  0.21558157276E+03  0.00000000000E+00 0. -1.
          4    1    6    6  503    0 -0.53395024035E+02 -0.13654388973E+03  0.28375625720E+03  0.31939454584E+03  0.00000000000E+00 0. -1.
         -4    1    6    6    0  503 -0.10187407870E+02 -0.37364180355E+03  0.88412041086E+03  0.95988586902E+03  0.00000000000E+00 0.  1.
<mgrwt>
<rscale>  0 0.27485302E+04</rscale>
<asrwt>0</asrwt>
<pdfrwt beam="1">  1        2 0.41933221E+00 0.27485302E+04</pdfrwt>
<pdfrwt beam="2">  1       -1 0.10659973E+00 0.27485302E+04</pdfrwt>
<totfact> 0.20918383E+00</totfact>
</mgrwt>
</event>
<event>
12    7  0.1735955E-007  0.1583237E+04  0.7818608E-02  0.8830913E-01
         -1   -1    0    0    0  501 -0.00000000000E+00  0.00000000000E+00  0.77758090444E+03  0.77758090444E+03  0.00000000000E+00 0.  1.
          2   -1    0    0  501    0  0.00000000000E+00 -0.00000000000E+00 -0.80590972450E+03  0.80590972450E+03  0.00000000000E+00 0. -1.
         24    2    1    2    0    0  0.69009225535E+02 -0.79350787873E+02 -0.54882240718E+03  0.56458579632E+03  0.80574599163E+02 0.  0.
        254    2    1    2    0    0 -0.69009225535E+02  0.79350787873E+02  0.52049358712E+03  0.10189048326E+04  0.86959453940E+03 0.  0.
         23    2    4    4    0    0 -0.40595674998E+03  0.16550269223E+03  0.48293111095E+03  0.65878803364E+03  0.92667099657E+02 0.  0.
         23    2    4    4    0    0  0.33694752444E+03 -0.86151904359E+02  0.37562476173E+02  0.36011679898E+03  0.85541711672E+02 0.  0.
          4    1    3    3  502    0  0.78604321961E+02 -0.62347526153E+02 -0.52114891379E+03  0.53071842233E+03  0.00000000000E+00 0. -1.
         -3    1    3    3    0  502 -0.95950964265E+01 -0.17003261720E+02 -0.27673493389E+02  0.33867373989E+02  0.00000000000E+00 0.  1.
         13    1    5    5    0    0 -0.56187210208E+02  0.36799082591E+02  0.33896681736E+02  0.75234035537E+02  0.00000000000E+00 0.  1.
        -13    1    5    5    0    0 -0.34976953977E+03  0.12870360964E+03  0.44903442921E+03  0.58355399810E+03  0.00000000000E+00 0. -1.
          4    1    6    6  503    0  0.20378906204E+03 -0.87481454387E+02  0.46709351318E+02  0.22663792747E+03  0.00000000000E+00 0. -1.
         -4    1    6    6    0  503  0.13315846240E+03  0.13295500283E+01 -0.91468751447E+01  0.13347887150E+03  0.00000000000E+00 0.  1.
<mgrwt>
<rscale>  0 0.15832372E+04</rscale>
<asrwt>0</asrwt>
<pdfrwt beam="1">  1        2 0.12398611E+00 0.15832372E+04</pdfrwt>
<pdfrwt beam="2">  1       -1 0.11962783E+00 0.15832372E+04</pdfrwt>
<totfact> 0.23330099E+01</totfact>
</mgrwt>
</event>
<event>
12    7  0.1735955E-007  0.1336071E+04  0.7818608E-02  0.9001440E-01
          2   -1    0    0  501    0  0.00000000000E+00  0.00000000000E+00  0.15061830553E+04  0.15061830553E+04  0.00000000000E+00 0. -1.
         -1   -1    0    0    0  501 -0.00000000000E+00 -0.00000000000E+00 -0.29629303738E+03  0.29629303738E+03  0.00000000000E+00 0.  1.
         24    2    1    2    0    0  0.29608938324E+02 -0.18875200629E+03 -0.78223923795E+02  0.22054048121E+03  0.77557156290E+02 0.  0.
        254    2    1    2    0    0 -0.29608938324E+02  0.18875200629E+03  0.12881139417E+04  0.15819356115E+04  0.89820862994E+03 0.  0.
         23    2    4    4    0    0  0.15721820484E+03  0.45941639419E+03  0.10612780802E+04  0.11705910113E+04  0.90505055527E+02 0.  0.
         23    2    4    4    0    0 -0.18682714316E+03 -0.27066438791E+03  0.22683586152E+03  0.41134460016E+03  0.97909548603E+02 0.  0.
          2    1    3    3  502    0  0.10140487640E+02 -0.41678314626E+01  0.10174118351E+02  0.14957038240E+02  0.00000000000E+00 0. -1.
         -1    1    3    3    0  502  0.19468450683E+02 -0.18458417482E+03 -0.88398042146E+02  0.20558344297E+03  0.00000000000E+00 0.  1.
         13    1    5    5    0    0  0.15409073859E+03  0.32844892518E+03  0.76763288103E+03  0.84904822725E+03  0.00000000000E+00 0.  1.
        -13    1    5    5    0    0  0.31274662503E+01  0.13096746901E+03  0.29364519920E+03  0.32154278408E+03  0.00000000000E+00 0. -1.
          4    1    6    6  503    0 -0.37717644963E+02 -0.61050024960E+02  0.10381315283E+03  0.12620181056E+03  0.00000000000E+00 0. -1.
         -4    1    6    6    0  503 -0.14910949820E+03 -0.20961436295E+03  0.12302270869E+03  0.28514278960E+03  0.00000000000E+00 0.  1.
<mgrwt>
<rscale>  0 0.13360712E+04</rscale>
<asrwt>0</asrwt>
<pdfrwt beam="1">  1        2 0.23172046E+00 0.13360712E+04</pdfrwt>
<pdfrwt beam="2">  1       -1 0.45583545E-01 0.13360712E+04</pdfrwt>
<totfact> 0.67052372E+01</totfact>
</mgrwt>
</event>
<event>
12    7  0.1735955E-007  0.1523431E+04  0.7818608E-02  0.8869020E-01
          2   -1    0    0  501    0  0.00000000000E+00  0.00000000000E+00  0.11663554329E+04  0.11663554329E+04  0.00000000000E+00 0. -1.
         -1   -1    0    0    0  501 -0.00000000000E+00 -0.00000000000E+00 -0.49745584265E+03  0.49745584265E+03  0.00000000000E+00 0.  1.
         24    2    1    2    0    0  0.11508173598E+03  0.29644664084E+03 -0.12554480172E+03  0.35089738233E+03  0.79013029718E+02 0.  0.
        254    2    1    2    0    0 -0.11508173598E+03 -0.29644664084E+03  0.79444439200E+03  0.13129138933E+04  0.99572917117E+03 0.  0.
         23    2    4    4    0    0 -0.98265780401E+01 -0.16923898774E+03  0.10085743506E+04  0.10276101454E+04  0.10010990795E+03 0.  0.
         23    2    4    4    0    0 -0.10525515794E+03 -0.12720765310E+03 -0.21412995861E+03  0.28530374783E+03  0.91028314671E+02 0.  0.
          2    1    3    3  502    0  0.30382271483E+02  0.17464521391E+03 -0.87772405775E+02  0.19780805944E+03  0.00000000000E+00 0. -1.
         -1    1    3    3    0  502  0.84699464500E+02  0.12180142693E+03 -0.37772395942E+02  0.15308932289E+03  0.00000000000E+00 0.  1.
         13    1    5    5    0    0  0.37393800013E+02 -0.28570498069E+02  0.29973373255E+03  0.30340547139E+03  0.00000000000E+00 0. -1.
        -13    1    5    5    0    0 -0.47220378053E+02 -0.14066848967E+03  0.70884061806E+03  0.72420467404E+03  0.00000000000E+00 0.  1.
          1    1    6    6  503    0 -0.21976691643E+02 -0.16637572406E+02  0.30801564098E+01  0.27735737860E+02  0.00000000000E+00 0. -1.
         -1    1    6    6    0  503 -0.83278466300E+02 -0.11057008070E+03 -0.21721011502E+03  0.25756800997E+03  0.00000000000E+00 0.  1.
<mgrwt>
<rscale>  0 0.15234308E+04</rscale>
<asrwt>0</asrwt>
<pdfrwt beam="1">  1        2 0.17943930E+00 0.15234308E+04</pdfrwt>
<pdfrwt beam="2">  1       -1 0.76531668E-01 0.15234308E+04</pdfrwt>
<totfact> 0.37404984E+01</totfact>
</mgrwt>
</event>
<event>
12    7  0.1735955E-007  0.2776104E+04  0.7818608E-02  0.8310726E-01
          2   -1    0    0  501    0  0.00000000000E+00  0.00000000000E+00  0.30119804465E+04  0.30119804465E+04  0.00000000000E+00 0. -1.
         -1   -1    0    0    0  501 -0.00000000000E+00 -0.00000000000E+00 -0.63967484774E+03  0.63967484774E+03  0.00000000000E+00 0.  1.
         24    2    1    2    0    0 -0.91564306956E+03  0.36946559097E+03  0.20543189956E+04  0.22807026568E+04  0.80442645294E+02 0.  0.
        254    2    1    2    0    0  0.91564306956E+03 -0.36946559097E+03  0.31798660320E+03  0.13709526375E+04  0.89637525664E+03 0.  0.
         23    2    4    4    0    0 -0.69498394992E+02  0.22240887147E+02  0.28319023655E+03  0.30633429497E+03  0.91210230967E+02 0.  0.
         23    2    4    4    0    0  0.98514146455E+03 -0.39170647812E+03  0.34796366649E+02  0.10646183425E+04  0.90905214041E+02 0.  0.
          2    1    3    3  502    0 -0.80783628979E+03  0.34891021573E+03  0.18561099010E+04  0.20541377204E+04  0.00000000000E+00 0. -1.
         -1    1    3    3    0  502 -0.10780677977E+03  0.20555375243E+02  0.19820909460E+03  0.22656493638E+03  0.00000000000E+00 0.  1.
         13    1    5    5    0    0  0.59847480445E+01  0.35898248168E+02  0.13019446094E+03  0.13518542484E+03  0.00000000000E+00 0. -1.
        -13    1    5    5    0    0 -0.75483143036E+02 -0.13657361022E+02  0.15299577561E+03  0.17114887013E+03  0.00000000000E+00 0.  1.
          3    1    6    6  503    0  0.35229425851E+03 -0.11821304352E+03  0.50558516041E+02  0.37502230838E+03  0.00000000000E+00 0. -1.
         -3    1    6    6    0  503  0.63284720603E+03 -0.27349343460E+03 -0.15762149392E+02  0.68959603414E+03  0.00000000000E+00 0.  1.
<mgrwt>
<rscale>  0 0.27761038E+04</rscale>
<asrwt>0</asrwt>
<pdfrwt beam="1">  1        2 0.46338160E+00 0.27761038E+04</pdfrwt>
<pdfrwt beam="2">  1       -1 0.98411517E-01 0.27761038E+04</pdfrwt>
<totfact> 0.16758158E+00</totfact>
</mgrwt>
</event>
<event>
12    7  0.1735955E-007  0.1767006E+04  0.7818608E-02  0.8724045E-01
          2   -1    0    0  501    0  0.00000000000E+00  0.00000000000E+00  0.14047079356E+04  0.14047079356E+04  0.00000000000E+00 0. -1.
         -1   -1    0    0    0  501 -0.00000000000E+00 -0.00000000000E+00 -0.55568682313E+03  0.55568682313E+03  0.00000000000E+00 0.  1.
         24    2    1    2    0    0  0.43189511665E+03  0.26927384430E+03  0.77899567130E+03  0.93345423415E+03  0.73896930472E+02 0.  0.
        254    2    1    2    0    0 -0.43189511665E+03 -0.26927384430E+03  0.70025441170E+02  0.10269405246E+04  0.88919147746E+03 0.  0.
         23    2    4    4    0    0 -0.53063742173E+03 -0.33836175214E+03  0.33766558721E+03  0.71946066404E+03  0.86838065768E+02 0.  0.
         23    2    4    4    0    0  0.98742305082E+02  0.69087907835E+02 -0.26764014604E+03  0.30747986053E+03  0.91593859161E+02 0.  0.
          2    1    3    3  502    0  0.42878303564E+03  0.27299919988E+03  0.77626372673E+03  0.92788405969E+03  0.00000000000E+00 0. -1.
         -1    1    3    3    0  502  0.31120810141E+01 -0.37253555759E+01  0.27319445715E+01  0.55701744628E+01  0.00000000000E+00 0.  1.
         13    1    5    5    0    0 -0.22528038830E+03 -0.15193928846E+03  0.98106781110E+02  0.28889745799E+03  0.00000000000E+00 0.  1.
        -13    1    5    5    0    0 -0.30535703343E+03 -0.18642246368E+03  0.23955880610E+03  0.43056320606E+03  0.00000000000E+00 0. -1.
          1    1    6    6  503    0  0.66982155487E+01 -0.17575480712E+02 -0.73016517750E+02  0.75400102640E+02  0.00000000000E+00 0. -1.
         -1    1    6    6    0  503  0.92044089534E+02  0.86663388547E+02 -0.19462362829E+03  0.23207975789E+03  0.00000000000E+00 0.  1.
<mgrwt>
<rscale>  0 0.17670062E+04</rscale>
<asrwt>0</asrwt>
<pdfrwt beam="1">  1        2 0.21610891E+00 0.17670062E+04</pdfrwt>
<pdfrwt beam="2">  1       -1 0.85490281E-01 0.17670062E+04</pdfrwt>
<totfact> 0.20976855E+01</totfact>
</mgrwt>
</event>
<event>
12    7  0.1735955E-007  0.1166641E+04  0.7818608E-02  0.9142567E-01
         -1   -1    0    0    0  501 -0.00000000000E+00  0.00000000000E+00  0.23877017349E+03  0.23877017349E+03  0.00000000000E+00 0.  1.
          2   -1    0    0  501    0  0.00000000000E+00 -0.00000000000E+00 -0.14250642252E+04  0.14250642252E+04  0.00000000000E+00 0. -1.
         24    2    1    2    0    0 -0.34369654428E+02  0.19268559025E+03 -0.63347730415E+02  0.22069439012E+03  0.79900369490E+02 0.  0.
        254    2    1    2    0    0  0.34369654428E+02 -0.19268559025E+03 -0.11229463213E+04  0.14431400085E+04  0.88506250285E+03 0.  0.
         23    2    4    4    0    0 -0.99596075472E+02 -0.26495092168E+03 -0.12095491230E+04  0.12455437401E+04  0.90839189302E+02 0.  0.
         23    2    4    4    0    0  0.13396572990E+03  0.72265331422E+02  0.86602801728E+02  0.19759626847E+03  0.91515819041E+02 0.  0.
          2    1    3    3  502    0  0.36054953588E+01  0.94437902926E+02 -0.66096967834E+02  0.11532704047E+03  0.00000000000E+00 0. -1.
         -1    1    3    3    0  502 -0.37975149787E+02  0.98247687328E+02  0.27492374190E+01  0.10536734965E+03  0.00000000000E+00 0.  1.
         13    1    5    5    0    0  0.58152394506E+01 -0.14471923488E+02 -0.18197408459E+03  0.18264123587E+03  0.00000000000E+00 0.  1.
        -13    1    5    5    0    0 -0.10541131492E+03 -0.25047899819E+03 -0.10275750384E+04  0.10629025042E+04  0.00000000000E+00 0. -1.
          1    1    6    6  503    0  0.14091507932E+03  0.74874537984E+02  0.60826023598E+02  0.17077195661E+03  0.00000000000E+00 0. -1.
         -1    1    6    6    0  503 -0.69493494184E+01 -0.26092065618E+01  0.25776778131E+02  0.26824311865E+02  0.00000000000E+00 0.  1.
<mgrwt>
<rscale>  0 0.11666410E+04</rscale>
<asrwt>0</asrwt>
<pdfrwt beam="1">  1        2 0.21924065E+00 0.11666410E+04</pdfrwt>
<pdfrwt beam="2">  1       -1 0.36733872E-01 0.11666410E+04</pdfrwt>
<totfact> 0.11213417E+02</totfact>
</mgrwt>
</event>
<event>
12    7  0.1735955E-007  0.1385570E+04  0.7818608E-02  0.8964330E-01
          2   -1    0    0  501    0  0.00000000000E+00  0.00000000000E+00  0.74863817372E+03  0.74863817372E+03  0.00000000000E+00 0. -1.
         -1   -1    0    0    0  501 -0.00000000000E+00 -0.00000000000E+00 -0.64109906024E+03  0.64109906024E+03  0.00000000000E+00 0.  1.
         24    2    1    2    0    0 -0.21202165149E+03  0.19113284265E+03  0.30468759375E+03  0.42485655247E+03  0.78635972366E+02 0.  0.
        254    2    1    2    0    0  0.21202165149E+03 -0.19113284265E+03 -0.19714848027E+03  0.96488068149E+03  0.90035674152E+03 0.  0.
         23    2    4    4    0    0  0.22245457011E+03 -0.53522230000E+03 -0.15300353993E+03  0.60613714542E+03  0.89683943063E+02 0.  0.
         23    2    4    4    0    0 -0.10432918625E+02  0.34408945735E+03 -0.44144940344E+02  0.35874353607E+03  0.90784076037E+02 0.  0.
          4    1    3    3  502    0 -0.17970301559E+03  0.19268466318E+03  0.27666885725E+03  0.38205524444E+03  0.00000000000E+00 0. -1.
         -1    1    3    3    0  502 -0.32318635903E+02 -0.15518205274E+01  0.28018736504E+02  0.42801308027E+02  0.00000000000E+00 0.  1.
         13    1    5    5    0    0  0.10878345428E+03 -0.35925313509E+03 -0.76247545172E+02  0.38302786209E+03  0.00000000000E+00 0. -1.
        -13    1    5    5    0    0  0.11367111583E+03 -0.17596916492E+03 -0.76755994753E+02  0.22310928333E+03  0.00000000000E+00 0.  1.
          3    1    6    6  503    0 -0.17534236263E+02  0.33853118073E+03 -0.56279403778E+02  0.34362505883E+03  0.00000000000E+00 0. -1.
         -3    1    6    6    0  503  0.71013176375E+01  0.55582766247E+01  0.12134463434E+02  0.15118477240E+02  0.00000000000E+00 0.  1.
<mgrwt>
<rscale>  0 0.13855703E+04</rscale>
<asrwt>0</asrwt>
<pdfrwt beam="1">  1        2 0.11517510E+00 0.13855703E+04</pdfrwt>
<pdfrwt beam="2">  1       -1 0.98630624E-01 0.13855703E+04</pdfrwt>
<totfact> 0.41155265E+01</totfact>
</mgrwt>
</event>
<event>
12    7  0.1735955E-007  0.1923307E+04  0.7818608E-02  0.8643341E-01
          2   -1    0    0  501    0  0.00000000000E+00  0.00000000000E+00  0.64661426120E+03  0.64661426120E+03  0.00000000000E+00 0. -1.
         -1   -1    0    0    0  501 -0.00000000000E+00 -0.00000000000E+00 -0.14301842208E+04  0.14301842208E+04  0.00000000000E+00 0.  1.
         24    2    1    2    0    0  0.45791591216E+03 -0.50190748687E+03 -0.64798322695E+03  0.94211257417E+03  0.78075169035E+02 0.  0.
        254    2    1    2    0    0 -0.45791591216E+03  0.50190748687E+03 -0.13558673265E+03  0.11346859078E+04  0.89862686327E+03 0.  0.
         23    2    4    4    0    0  0.10147250007E+03 -0.42572041349E+02  0.22818873307E+03  0.26871083102E+03  0.89589987343E+02 0.  0.
         23    2    4    4    0    0 -0.55938841223E+03  0.54447952822E+03 -0.36377546572E+03  0.86597507682E+03  0.90591897167E+02 0.  0.
          2    1    3    3  502    0  0.62553196893E+02 -0.91133248627E+02 -0.73489311046E+02  0.13273601729E+03  0.00000000000E+00 0. -1.
         -1    1    3    3    0  502  0.39536271527E+03 -0.41077423824E+03 -0.57449391590E+03  0.80937655688E+03  0.00000000000E+00 0.  1.
         13    1    5    5    0    0  0.34822685452E+02  0.40567730016E+01  0.15620793065E+03  0.16009370514E+03  0.00000000000E+00 0.  1.
        -13    1    5    5    0    0  0.66649814614E+02 -0.46628814351E+02  0.71980802420E+02  0.10861712587E+03  0.00000000000E+00 0. -1.
          1    1    6    6  503    0 -0.47171505716E+03  0.49980207524E+03 -0.32474889499E+03  0.76011778979E+03  0.00000000000E+00 0. -1.
         -1    1    6    6    0  503 -0.87673355072E+02  0.44677452980E+02 -0.39026570726E+02  0.10585728703E+03  0.00000000000E+00 0.  1.
<mgrwt>
<rscale>  0 0.19233071E+04</rscale>
<asrwt>0</asrwt>
<pdfrwt beam="1">  1        2 0.99479119E-01 0.19233071E+04</pdfrwt>
<pdfrwt beam="2">  1       -1 0.22002834E+00 0.19233071E+04</pdfrwt>
<totfact> 0.53130948E+00</totfact>
</mgrwt>
</event>
<event>
12    7  0.1735955E-007  0.1188891E+04  0.7818608E-02  0.9122636E-01
         -1   -1    0    0    0  501 -0.00000000000E+00  0.00000000000E+00  0.90497112248E+03  0.90497112248E+03  0.00000000000E+00 0.  1.
          2   -1    0    0  501    0  0.00000000000E+00 -0.00000000000E+00 -0.39047176429E+03  0.39047176429E+03  0.00000000000E+00 0. -1.
         24    2    1    2    0    0  0.21279607707E+02 -0.12504550048E+03 -0.12024534208E+03  0.19358015624E+03  0.83217400252E+02 0.  0.
        254    2    1    2    0    0 -0.21279607707E+02  0.12504550048E+03  0.63474470027E+03  0.11018627305E+04  0.89169021723E+03 0.  0.
         23    2    4    4    0    0 -0.41282615799E+03  0.11904410173E+03  0.52645094094E+03  0.68567881185E+03  0.91694628651E+02 0.  0.
         23    2    4    4    0    0  0.39154655028E+03  0.60013987572E+01  0.10829375933E+03  0.41618391868E+03  0.90204201872E+02 0.  0.
          2    1    3    3  502    0  0.35251299214E+02 -0.12353384262E+03 -0.80938014429E+02  0.15183618327E+03  0.00000000000E+00 0. -1.
         -1    1    3    3    0  502 -0.13971691507E+02 -0.15116578612E+01 -0.39307327647E+02  0.41743972976E+02  0.00000000000E+00 0.  1.
         13    1    5    5    0    0 -0.37330392461E+02  0.18809049416E+02  0.10169882882E+03  0.10995449207E+03  0.00000000000E+00 0. -1.
        -13    1    5    5    0    0 -0.37549576552E+03  0.10023505231E+03  0.42475211212E+03  0.57572431978E+03  0.00000000000E+00 0.  1.
          4    1    6    6  503    0  0.60732543645E+02 -0.30976936269E+02  0.28406941870E+02  0.73857746951E+02  0.00000000000E+00 0. -1.
         -4    1    6    6    0  503  0.33081400663E+03  0.36978335027E+02  0.79886817455E+02  0.34232617173E+03  0.00000000000E+00 0.  1.
<mgrwt>
<rscale>  0 0.11888914E+04</rscale>
<asrwt>0</asrwt>
<pdfrwt beam="1">  1        2 0.60072579E-01 0.11888914E+04</pdfrwt>
<pdfrwt beam="2">  1       -1 0.13922633E+00 0.11888914E+04</pdfrwt>
<totfact> 0.39285958E+01</totfact>
</mgrwt>
</event>
<event>
12    7  0.1735955E-007  0.1313397E+04  0.7818608E-02  0.9019008E-01
         -1   -1    0    0    0  501 -0.00000000000E+00  0.00000000000E+00  0.40268442600E+03  0.40268442600E+03  0.00000000000E+00 0.  1.
          2   -1    0    0  501    0  0.00000000000E+00 -0.00000000000E+00 -0.10709446623E+04  0.10709446623E+04  0.00000000000E+00 0. -1.
         24    2    1    2    0    0  0.11521886443E+03 -0.29525636671E+03 -0.24899605781E+02  0.32704632180E+03  0.76730681170E+02 0.  0.
        254    2    1    2    0    0 -0.11521886443E+03  0.29525636671E+03 -0.64336063049E+03  0.11465827665E+04  0.89458785522E+03 0.  0.
         23    2    4    4    0    0 -0.43753110730E+03  0.34161049926E+03 -0.56897725978E+03  0.80005440013E+03  0.90668175021E+02 0.  0.
         23    2    4    4    0    0  0.32231224287E+03 -0.46354132556E+02 -0.74383370709E+02  0.34652836634E+03  0.92277490915E+02 0.  0.
          2    1    3    3  502    0  0.24748856251E+02 -0.97600705097E+01 -0.15162974720E+01  0.26647026477E+02  0.00000000000E+00 0. -1.
         -1    1    3    3    0  502  0.90470008179E+02 -0.28549629620E+03 -0.23383308308E+02  0.30039929532E+03  0.00000000000E+00 0.  1.
         13    1    5    5    0    0 -0.42621250271E+03  0.33609358350E+03 -0.52817649454E+03  0.75735487304E+03  0.00000000000E+00 0.  1.
        -13    1    5    5    0    0 -0.11318604590E+02  0.55169157646E+01 -0.40800765247E+02  0.42699527095E+02  0.00000000000E+00 0. -1.
          3    1    6    6  503    0  0.57409754994E+02 -0.44960619477E+02 -0.74681320910E+01  0.73301502503E+02  0.00000000000E+00 0. -1.
         -3    1    6    6    0  503  0.26490248788E+03 -0.13935130786E+01 -0.66915238618E+02  0.27322686383E+03  0.00000000000E+00 0.  1.
<mgrwt>
<rscale>  0 0.13133967E+04</rscale>
<asrwt>0</asrwt>
<pdfrwt beam="1">  1        2 0.16476072E+00 0.13133967E+04</pdfrwt>
<pdfrwt beam="2">  1       -1 0.61951450E-01 0.13133967E+04</pdfrwt>
<totfact> 0.67038205E+01</totfact>
</mgrwt>
</event>
<event>
12    7  0.1735955E-007  0.1257268E+04  0.7818608E-02  0.9064156E-01
         -1   -1    0    0    0  501 -0.00000000000E+00  0.00000000000E+00  0.22811197081E+03  0.22811197081E+03  0.00000000000E+00 0.  1.
          2   -1    0    0  501    0  0.00000000000E+00 -0.00000000000E+00 -0.17323986441E+04  0.17323986441E+04  0.00000000000E+00 0. -1.
         24    2    1    2    0    0 -0.18171528501E+03 -0.19296483838E+03 -0.57796694048E+03  0.64075305390E+03  0.79137968955E+02 0.  0.
        254    2    1    2    0    0  0.18171528501E+03  0.19296483838E+03 -0.92631973284E+03  0.13197575610E+04  0.90190681270E+03 0.  0.
         23    2    4    4    0    0  0.11491760120E+03 -0.27685400400E+03 -0.73704267616E+03  0.80101391908E+03  0.92396956087E+02 0.  0.
         23    2    4    4    0    0  0.66797683813E+02  0.46981884238E+03 -0.18927705669E+03  0.51874364195E+03  0.89874838879E+02 0.  0.
          4    1    3    3  502    0 -0.18035693027E+03 -0.15297092813E+03 -0.50053498247E+03  0.55359190368E+03  0.00000000000E+00 0. -1.
         -3    1    3    3    0  502 -0.13583547441E+01 -0.39993910254E+02 -0.77431958011E+02  0.87161150213E+02  0.00000000000E+00 0.  1.
         13    1    5    5    0    0  0.79823234243E+02 -0.26080268207E+03 -0.67404609153E+03  0.72713679676E+03  0.00000000000E+00 0. -1.
        -13    1    5    5    0    0  0.35094366957E+02 -0.16051321925E+02 -0.62996584632E+02  0.73877122324E+02  0.00000000000E+00 0.  1.
          4    1    6    6  503    0  0.84019192295E+02  0.44411168639E+03 -0.17891678050E+03  0.48611277396E+03  0.00000000000E+00 0. -1.
         -4    1    6    6    0  503 -0.17221508482E+02  0.25707155987E+02 -0.10360276183E+02  0.32630867992E+02  0.00000000000E+00 0.  1.
<mgrwt>
<rscale>  0 0.12572683E+04</rscale>
<asrwt>0</asrwt>
<pdfrwt beam="1">  1        2 0.26652286E+00 0.12572683E+04</pdfrwt>
<pdfrwt beam="2">  1       -1 0.35094151E-01 0.12572683E+04</pdfrwt>
<totfact> 0.81363140E+01</totfact>
</mgrwt>
</event>
<event>
12    7  0.1735955E-007  0.1831635E+04  0.7818608E-02  0.8689655E-01
          2   -1    0    0  501    0  0.00000000000E+00  0.00000000000E+00  0.30351954347E+03  0.30351954347E+03  0.00000000000E+00 0. -1.
         -1   -1    0    0    0  501 -0.00000000000E+00 -0.00000000000E+00 -0.27633187398E+04  0.27633187398E+04  0.00000000000E+00 0.  1.
         24    2    1    2    0    0  0.38023761079E+03 -0.22394113357E+03 -0.18100257027E+04  0.18645635306E+04  0.75324918556E+02 0.  0.
        254    2    1    2    0    0 -0.38023761079E+03  0.22394113357E+03 -0.64977349359E+03  0.12022747526E+04  0.91023552767E+03 0.  0.
         23    2    4    4    0    0 -0.13798200230E+03 -0.31071868972E+03 -0.45487534206E+02  0.35491779994E+03  0.91172319495E+02 0.  0.
         23    2    4    4    0    0 -0.24225560849E+03  0.53465982329E+03 -0.60428595938E+03  0.84735695267E+03  0.91122873362E+02 0.  0.
          4    1    3    3  502    0  0.22180725987E+03 -0.10752761233E+03 -0.11368476746E+04  0.11632640643E+04  0.00000000000E+00 0. -1.
         -3    1    3    3    0  502  0.15843035092E+03 -0.11641352124E+03 -0.67317802809E+03  0.70129946636E+03  0.00000000000E+00 0.  1.
         13    1    5    5    0    0 -0.10010934290E+03 -0.29193248572E+03 -0.49042510761E+02  0.31249259930E+03  0.00000000000E+00 0. -1.
        -13    1    5    5    0    0 -0.37872659399E+02 -0.18786204000E+02  0.35549765548E+01  0.42425200635E+02  0.00000000000E+00 0.  1.
          4    1    6    6  503    0 -0.23042002817E+03  0.45683540595E+03 -0.55306378710E+03  0.75343979860E+03  0.00000000000E+00 0. -1.
         -4    1    6    6    0  503 -0.11835580314E+02  0.77824417341E+02 -0.51222172288E+02  0.93917154076E+02  0.00000000000E+00 0.  1.
<mgrwt>
<rscale>  0 0.18316345E+04</rscale>
<asrwt>0</asrwt>
<pdfrwt beam="1">  1        2 0.46695316E-01 0.18316345E+04</pdfrwt>
<pdfrwt beam="2">  1       -1 0.42512595E+00 0.18316345E+04</pdfrwt>
<totfact> 0.56260461E-01</totfact>
</mgrwt>
</event>
<event>
12    7  0.1735955E-007  0.2262972E+04  0.7818608E-02  0.8492665E-01
         -1   -1    0    0    0  501 -0.00000000000E+00  0.00000000000E+00  0.69627739913E+03  0.69627739913E+03  0.00000000000E+00 0.  1.
          2   -1    0    0  501    0  0.00000000000E+00 -0.00000000000E+00 -0.18387222315E+04  0.18387222315E+04  0.00000000000E+00 0. -1.
         24    2    1    2    0    0  0.16214799686E+03  0.32327369229E+03 -0.14663594141E+04  0.15123793039E+04  0.79267740484E+02 0.  0.
        254    2    1    2    0    0 -0.16214799686E+03 -0.32327369229E+03  0.32391458171E+03  0.10226203267E+04  0.90001879053E+03 0.  0.
         23    2    4    4    0    0 -0.51684087630E+03 -0.29951168143E+03  0.20742944996E+03  0.63883659835E+03  0.90848687162E+02 0.  0.
         23    2    4    4    0    0  0.35469287944E+03 -0.23762010864E+02  0.11648513175E+03  0.38378372834E+03  0.85729180193E+02 0.  0.
          2    1    3    3  502    0  0.16674075026E+03  0.32419914536E+03 -0.14309029578E+04  0.14766146547E+04  0.00000000000E+00 0. -1.
         -1    1    3    3    0  502 -0.45927533974E+01 -0.92545306710E+00 -0.35456456266E+02  0.35764649280E+02  0.00000000000E+00 0.  1.
         13    1    5    5    0    0 -0.47544958329E+03 -0.25114498417E+03  0.16545674881E+03  0.56258514472E+03  0.00000000000E+00 0. -1.
        -13    1    5    5    0    0 -0.41391293007E+02 -0.48366697253E+02  0.41972701147E+02  0.76251453635E+02  0.00000000000E+00 0.  1.
          1    1    6    6  503    0  0.18641930214E+03 -0.54197160199E+02  0.72300877799E+02  0.20716395757E+03  0.00000000000E+00 0. -1.
         -1    1    6    6    0  503  0.16827357730E+03  0.30435149334E+02  0.44184253953E+02  0.17661977077E+03  0.00000000000E+00 0.  1.
<mgrwt>
<rscale>  0 0.22629721E+04</rscale>
<asrwt>0</asrwt>
<pdfrwt beam="1">  1        2 0.28288034E+00 0.22629721E+04</pdfrwt>
<pdfrwt beam="2">  1       -1 0.10711960E+00 0.22629721E+04</pdfrwt>
<totfact> 0.69067035E+00</totfact>
</mgrwt>
</event>
<event>
12    7  0.1735955E-007  0.2339907E+04  0.7818608E-02  0.8462351E-01
          2   -1    0    0  501    0  0.00000000000E+00  0.00000000000E+00  0.21413551663E+04  0.21413551663E+04  0.00000000000E+00 0. -1.
         -1   -1    0    0    0  501 -0.00000000000E+00 -0.00000000000E+00 -0.63921709555E+03  0.63921709555E+03  0.00000000000E+00 0.  1.
         24    2    1    2    0    0  0.35002850035E+03  0.67477454250E+03  0.13664085855E+04  0.15656458100E+04  0.79584832196E+02 0.  0.
        254    2    1    2    0    0 -0.35002850035E+03 -0.67477454250E+03  0.13572948526E+03  0.12149264519E+04  0.93796756664E+03 0.  0.
         23    2    4    4    0    0 -0.12567711554E+03 -0.40678821046E+03  0.52627244143E+03  0.68299875586E+03  0.90847302419E+02 0.  0.
         23    2    4    4    0    0 -0.22435138481E+03 -0.26798633204E+03 -0.39054295617E+03  0.53192769603E+03  0.90956336530E+02 0.  0.
          4    1    3    3  502    0  0.25126849959E+03  0.42470896877E+03  0.93729510908E+03  0.10592618602E+04  0.00000000000E+00 0. -1.
         -3    1    3    3    0  502  0.98760000761E+02  0.25006557373E+03  0.42911347640E+03  0.50638394973E+03  0.00000000000E+00 0.  1.
         13    1    5    5    0    0 -0.61686936298E+02 -0.13302337572E+03  0.24354967378E+03  0.28428320421E+03  0.00000000000E+00 0. -1.
        -13    1    5    5    0    0 -0.63990179241E+02 -0.27376483473E+03  0.28272276765E+03  0.39871555165E+03  0.00000000000E+00 0.  1.
          3    1    6    6  503    0 -0.10382693249E+03 -0.19176524687E+03 -0.24927844211E+03  0.33120036763E+03  0.00000000000E+00 0. -1.
         -3    1    6    6    0  503 -0.12052445232E+03 -0.76221085173E+02 -0.14126451407E+03  0.20072732840E+03  0.00000000000E+00 0.  1.
<mgrwt>
<rscale>  0 0.23399067E+04</rscale>
<asrwt>0</asrwt>
<pdfrwt beam="1">  1        2 0.32943925E+00 0.23399067E+04</pdfrwt>
<pdfrwt beam="2">  1       -1 0.98341093E-01 0.23399067E+04</pdfrwt>
<totfact> 0.56716688E+00</totfact>
</mgrwt>
</event>
<event>
12    7  0.1735955E-007  0.1217576E+04  0.7818608E-02  0.9097610E-01
         -1   -1    0    0    0  501 -0.00000000000E+00  0.00000000000E+00  0.18510032045E+03  0.18510032045E+03  0.00000000000E+00 0.  1.
          2   -1    0    0  501    0  0.00000000000E+00 -0.00000000000E+00 -0.20022797537E+04  0.20022797537E+04  0.00000000000E+00 0. -1.
         24    2    1    2    0    0  0.13113790596E+03  0.78010374769E+02 -0.79735890699E+03  0.81586559382E+03  0.81072015355E+02 0.  0.
        254    2    1    2    0    0 -0.13113790596E+03 -0.78010374769E+02 -0.10198205263E+04  0.13715144804E+04  0.90428717509E+03 0.  0.
         23    2    4    4    0    0 -0.99254373400E+01  0.17289601142E+03 -0.10592830287E+04  0.10763167653E+04  0.79910570252E+02 0.  0.
         23    2    4    4    0    0 -0.12121246862E+03 -0.25090638619E+03  0.39462502386E+02  0.29519771510E+03  0.89095032015E+02 0.  0.
          4    1    3    3  502    0  0.13495914170E+03  0.54233790873E+02 -0.72954658966E+03  0.74390422803E+03  0.00000000000E+00 0. -1.
         -3    1    3    3    0  502 -0.38212357433E+01  0.23776583896E+02 -0.67812317335E+02  0.71961365793E+02  0.00000000000E+00 0.  1.
         13    1    5    5    0    0  0.21158648282E+02  0.11360935679E+03 -0.50767870290E+03  0.52066538172E+03  0.00000000000E+00 0.  1.
        -13    1    5    5    0    0 -0.31084085622E+02  0.59286654635E+02 -0.55160432579E+03  0.55565138354E+03  0.00000000000E+00 0. -1.
          1    1    6    6  503    0 -0.78618342530E+02 -0.21626664162E+03  0.57895180500E+02  0.23728454645E+03  0.00000000000E+00 0. -1.
         -1    1    6    6    0  503 -0.42594126088E+02 -0.34639744569E+02 -0.18432678114E+02  0.57913168653E+02  0.00000000000E+00 0.  1.
<mgrwt>
<rscale>  0 0.12175757E+04</rscale>
<asrwt>0</asrwt>
<pdfrwt beam="1">  1        2 0.30804304E+00 0.12175757E+04</pdfrwt>
<pdfrwt beam="2">  1       -1 0.28476972E-01 0.12175757E+04</pdfrwt>
<totfact> 0.83720988E+01</totfact>
</mgrwt>
</event>
<event>
12    7  0.1735955E-007  0.1261245E+04  0.7818608E-02  0.9060875E-01
          2   -1    0    0  501    0  0.00000000000E+00  0.00000000000E+00  0.37130183834E+03  0.37130183834E+03  0.00000000000E+00 0. -1.
         -1   -1    0    0    0  501 -0.00000000000E+00 -0.00000000000E+00 -0.10710555855E+04  0.10710555855E+04  0.00000000000E+00 0.  1.
         24    2    1    2    0    0 -0.85287263912E+02 -0.23510860986E+03  0.20811300386E+02  0.26341952586E+03  0.80042242351E+02 0.  0.
        254    2    1    2    0    0  0.85287263912E+02  0.23510860986E+03 -0.72056504759E+03  0.11789378980E+04  0.89896084664E+03 0.  0.
         23    2    4    4    0    0  0.16428082907E+03 -0.11109072033E+02  0.16632955147E+03  0.25073889301E+03  0.89960382907E+02 0.  0.
         23    2    4    4    0    0 -0.78993565157E+02  0.24621768190E+03 -0.88689459906E+03  0.92819900503E+03  0.90045726607E+02 0.  0.
          2    1    3    3  502    0 -0.50833633795E+02 -0.40724112669E+02  0.30046820366E+01  0.65203832645E+02  0.00000000000E+00 0. -1.
         -1    1    3    3    0  502 -0.34453630117E+02 -0.19438449719E+03  0.17806618350E+02  0.19821569321E+03  0.00000000000E+00 0.  1.
         13    1    5    5    0    0  0.27304350875E+02 -0.96236053276E+01 -0.70283163914E+01  0.29791585851E+02  0.00000000000E+00 0. -1.
        -13    1    5    5    0    0  0.13697647819E+03 -0.14854667054E+01  0.17335786786E+03  0.22094730716E+03  0.00000000000E+00 0.  1.
          4    1    6    6  503    0  0.11673804113E+02  0.78765240913E+01 -0.10077355362E+03  0.10175277119E+03  0.00000000000E+00 0. -1.
         -4    1    6    6    0  503 -0.90667369270E+02  0.23834115781E+03 -0.78612104544E+03  0.82644623385E+03  0.00000000000E+00 0.  1.
<mgrwt>
<rscale>  0 0.12612453E+04</rscale>
<asrwt>0</asrwt>
<pdfrwt beam="1">  1        2 0.57123360E-01 0.12612453E+04</pdfrwt>
<pdfrwt beam="2">  1       -1 0.16477778E+00 0.12612453E+04</pdfrwt>
<totfact> 0.26171417E+01</totfact>
</mgrwt>
</event>
<event>
12    7  0.1735955E-007  0.1239792E+04  0.7818608E-02  0.9078723E-01
         -1   -1    0    0    0  501 -0.00000000000E+00  0.00000000000E+00  0.15090911546E+03  0.15090911546E+03  0.00000000000E+00 0.  1.
          2   -1    0    0  501    0  0.00000000000E+00 -0.00000000000E+00 -0.25463732140E+04  0.25463732140E+04  0.00000000000E+00 0. -1.
         24    2    1    2    0    0 -0.60240615552E+02 -0.11669681995E+03 -0.10761622803E+04  0.10868663008E+04  0.76850652797E+02 0.  0.
        254    2    1    2    0    0  0.60240615552E+02  0.11669681995E+03 -0.13193018183E+04  0.16104160287E+04  0.91413096330E+03 0.  0.
         23    2    4    4    0    0  0.44680241574E+03  0.22471212861E+03 -0.79692266448E+03  0.94490577125E+03  0.87368437823E+02 0.  0.
         23    2    4    4    0    0 -0.38656180019E+03 -0.10801530867E+03 -0.52237915381E+03  0.66551025740E+03  0.94480633442E+02 0.  0.
          2    1    3    3  502    0 -0.68535466039E+02 -0.11064729016E+03 -0.10582238910E+04  0.10661977942E+04  0.00000000000E+00 0. -1.
         -1    1    3    3    0  502  0.82948504878E+01 -0.60495297916E+01 -0.17938389265E+02  0.20668506592E+02  0.00000000000E+00 0.  1.
         13    1    5    5    0    0  0.10099355402E+02  0.25042351507E+02 -0.52737799965E+02  0.59248560267E+02  0.00000000000E+00 0. -1.
        -13    1    5    5    0    0  0.43670306034E+03  0.19966977711E+03 -0.74418486451E+03  0.88565721099E+03  0.00000000000E+00 0.  1.
          2    1    6    6  503    0 -0.64212228068E+02 -0.43055546157E+02 -0.14981363159E+03  0.16858562957E+03  0.00000000000E+00 0. -1.
         -2    1    6    6    0  503 -0.32234957212E+03 -0.64959762510E+02 -0.37256552222E+03  0.49692462782E+03  0.00000000000E+00 0.  1.
<mgrwt>
<rscale>  0 0.12397918E+04</rscale>
<asrwt>0</asrwt>
<pdfrwt beam="1">  1        2 0.39174969E+00 0.12397918E+04</pdfrwt>
<pdfrwt beam="2">  1       -1 0.23216789E-01 0.12397918E+04</pdfrwt>
<totfact> 0.58664218E+01</totfact>
</mgrwt>
</event>
<event>
12    7  0.1735955E-007  0.1695188E+04  0.7818608E-02  0.8764114E-01
          4   -1    0    0  501    0  0.00000000000E+00  0.00000000000E+00  0.47070428493E+03  0.47070428493E+03  0.00000000000E+00 0. -1.
         -3   -1    0    0    0  501 -0.00000000000E+00 -0.00000000000E+00 -0.15262562114E+04  0.15262562114E+04  0.00000000000E+00 0.  1.
         24    2    1    2    0    0  0.96882922173E+01 -0.69973585413E+02 -0.11143271902E+04  0.11194312046E+04  0.80068529797E+02 0.  0.
        254    2    1    2    0    0 -0.96882922173E+01  0.69973585413E+02  0.58775263677E+02  0.87752929174E+03  0.87270439473E+03 0.  0.
         23    2    4    4    0    0  0.85512813223E+02 -0.17427020800E+03 -0.33292613358E+03  0.39702761574E+03  0.95438831815E+02 0.  0.
         23    2    4    4    0    0 -0.95201105441E+02  0.24424379341E+03  0.39170139725E+03  0.48050167600E+03  0.93453704762E+02 0.  0.
          4    1    3    3  502    0 -0.13019793245E+02  0.11767129988E+02 -0.34383361309E+03  0.34428118429E+03  0.00000000000E+00 0. -1.
         -3    1    3    3    0  502  0.22708085462E+02 -0.81740715400E+02 -0.77049357710E+03  0.77515002035E+03  0.00000000000E+00 0.  1.
         13    1    5    5    0    0  0.73400810174E+02 -0.16856529774E+03 -0.23590517698E+03  0.29908726329E+03  0.00000000000E+00 0. -1.
        -13    1    5    5    0    0  0.12112003050E+02 -0.57049102611E+01 -0.97020956594E+02  0.97940352447E+02  0.00000000000E+00 0.  1.
          3    1    6    6  503    0  0.18588004125E+02  0.39535609117E+02  0.52508861064E+02  0.68306359703E+02  0.00000000000E+00 0. -1.
         -3    1    6    6    0  503 -0.11378910957E+03  0.20470818429E+03  0.33919253619E+03  0.41219531630E+03  0.00000000000E+00 0.  1.
<mgrwt>
<rscale>  0 0.16951877E+04</rscale>
<asrwt>0</asrwt>
<pdfrwt beam="1">  1        4 0.72416044E-01 0.16951877E+04</pdfrwt>
<pdfrwt beam="2">  1       -3 0.23480865E+00 0.16951877E+04</pdfrwt>
<totfact> 0.33998949E-01</totfact>
</mgrwt>
</event>
<event>
12    7  0.1735955E-007  0.1859697E+04  0.7818608E-02  0.8675182E-01
         -1   -1    0    0    0  501 -0.00000000000E+00  0.00000000000E+00  0.34025441777E+03  0.34025441777E+03  0.00000000000E+00 0.  1.
          2   -1    0    0  501    0  0.00000000000E+00 -0.00000000000E+00 -0.25410920719E+04  0.25410920719E+04  0.00000000000E+00 0. -1.
         24    2    1    2    0    0  0.20024351087E+03  0.57195232566E+03 -0.26823434395E+03  0.66725895462E+03  0.77832658772E+02 0.  0.
        254    2    1    2    0    0 -0.20024351087E+03 -0.57195232566E+03 -0.19326033102E+04  0.22140875350E+04  0.89442782372E+03 0.  0.
         23    2    4    4    0    0  0.83693449809E+02 -0.10010889728E+03 -0.14988322592E+04  0.15072058509E+04  0.90249382318E+02 0.  0.
         23    2    4    4    0    0 -0.28393696068E+03 -0.47184342838E+03 -0.43377105100E+03  0.70688168413E+03  0.90928390155E+02 0.  0.
          4    1    3    3  502    0  0.87823667312E+01  0.20172050556E+02 -0.28290447467E+02  0.35838401288E+02  0.00000000000E+00 0. -1.
         -3    1    3    3    0  502  0.19146114414E+03  0.55178027510E+03 -0.23994389648E+03  0.63142055333E+03  0.00000000000E+00 0.  1.
         13    1    5    5    0    0  0.29613107714E+02 -0.97170301040E+02 -0.83215164005E+03  0.83832890657E+03  0.00000000000E+00 0.  1.
        -13    1    5    5    0    0  0.54080342095E+02 -0.29385962418E+01 -0.66668061911E+03  0.66887694432E+03  0.00000000000E+00 0. -1.
          4    1    6    6  503    0 -0.22942726997E+03 -0.30610733172E+03 -0.31844769687E+03  0.49774240967E+03  0.00000000000E+00 0. -1.
         -4    1    6    6    0  503 -0.54509690703E+02 -0.16573609666E+03 -0.11532335412E+03  0.20913927446E+03  0.00000000000E+00 0.  1.
<mgrwt>
<rscale>  0 0.18596965E+04</rscale>
<asrwt>0</asrwt>
<pdfrwt beam="1">  1        2 0.39093723E+00 0.18596965E+04</pdfrwt>
<pdfrwt beam="2">  1       -1 0.52346835E-01 0.18596965E+04</pdfrwt>
<totfact> 0.12971032E+01</totfact>
</mgrwt>
</event>
<event>
12    7  0.1735955E-007  0.2026902E+04  0.7818608E-02  0.8594146E-01
          2   -1    0    0  501    0  0.00000000000E+00  0.00000000000E+00  0.49335393417E+03  0.49335393417E+03  0.00000000000E+00 0. -1.
         -1   -1    0    0    0  501 -0.00000000000E+00 -0.00000000000E+00 -0.20818371133E+04  0.20818371133E+04  0.00000000000E+00 0.  1.
         24    2    1    2    0    0  0.35928570377E+03  0.10755962312E+03  0.27903656428E+03  0.47450348947E+03  0.81466974010E+02 0.  0.
        254    2    1    2    0    0 -0.35928570377E+03 -0.10755962312E+03 -0.18675197434E+04  0.21006875580E+04  0.88577815215E+03 0.  0.
         23    2    4    4    0    0 -0.48102958038E+02 -0.35372070352E+03 -0.27923709247E+03  0.46107131958E+03  0.84741827053E+02 0.  0.
         23    2    4    4    0    0 -0.31118274573E+03  0.24616108040E+03 -0.15882826509E+04  0.16396162384E+04  0.90937622957E+02 0.  0.
          4    1    3    3  502    0  0.24124654156E+03  0.49830399421E+02  0.14061709145E+03  0.28364789604E+03  0.00000000000E+00 0. -1.
         -3    1    3    3    0  502  0.11803916221E+03  0.57729223700E+02  0.13841947283E+03  0.19085559343E+03  0.00000000000E+00 0.  1.
         13    1    5    5    0    0 -0.30310088099E+02 -0.42494267416E+02 -0.20975111555E+02  0.56253173319E+02  0.00000000000E+00 0. -1.
        -13    1    5    5    0    0 -0.17792869938E+02 -0.31122643611E+03 -0.25826198092E+03  0.40481814626E+03  0.00000000000E+00 0.  1.
          1    1    6    6  503    0 -0.42120973458E+02  0.97695075802E+01 -0.27470549925E+03  0.27808763187E+03  0.00000000000E+00 0. -1.
         -1    1    6    6    0  503 -0.26906177228E+03  0.23639157282E+03 -0.13135771517E+04  0.13615286065E+04  0.00000000000E+00 0.  1.
<mgrwt>
<rscale>  0 0.20269016E+04</rscale>
<asrwt>0</asrwt>
<pdfrwt beam="1">  1        2 0.75900605E-01 0.20269016E+04</pdfrwt>
<pdfrwt beam="2">  1       -1 0.32028263E+00 0.20269016E+04</pdfrwt>
<totfact> 0.16159061E+00</totfact>
</mgrwt>
</event>
<event>
12    7  0.1735955E-007  0.2433789E+04  0.7818608E-02  0.8426961E-01
          2   -1    0    0  501    0  0.00000000000E+00  0.00000000000E+00  0.23451774919E+04  0.23451774919E+04  0.00000000000E+00 0. -1.
         -1   -1    0    0    0  501 -0.00000000000E+00 -0.00000000000E+00 -0.63143726782E+03  0.63143726782E+03  0.00000000000E+00 0.  1.
         24    2    1    2    0    0 -0.39940197453E+03  0.27463450476E+03  0.18814719371E+04  0.19445547653E+04  0.80065825470E+02 0.  0.
        254    2    1    2    0    0  0.39940197453E+03 -0.27463450476E+03 -0.16773171307E+03  0.10320599944E+04  0.89558241167E+03 0.  0.
         23    2    4    4    0    0  0.20204254349E+03  0.31754958318E+03 -0.67018158272E+02  0.39343639822E+03  0.92961490686E+02 0.  0.
         23    2    4    4    0    0  0.19735943104E+03 -0.59218408793E+03 -0.10071355480E+03  0.63862359622E+03  0.89800548485E+02 0.  0.
          4    1    3    3  502    0 -0.27768416580E+03  0.17347607370E+03  0.13983370519E+04  0.14361577054E+04  0.00000000000E+00 0. -1.
         -3    1    3    3    0  502 -0.12171780873E+03  0.10115843106E+03  0.48313488520E+03  0.50839705982E+03  0.00000000000E+00 0.  1.
         13    1    5    5    0    0  0.10765659187E+03  0.16449916028E+03  0.12138783131E+02  0.19697021491E+03  0.00000000000E+00 0. -1.
        -13    1    5    5    0    0  0.94385951629E+02  0.15305042289E+03 -0.79156941404E+02  0.19646618331E+03  0.00000000000E+00 0.  1.
          3    1    6    6  503    0  0.45281782820E+02 -0.92422318816E+02  0.13774675887E+02  0.10383673033E+03  0.00000000000E+00 0. -1.
         -3    1    6    6    0  503  0.15207764822E+03 -0.49976176912E+03 -0.11448823069E+03  0.53478686589E+03  0.00000000000E+00 0.  1.
<mgrwt>
<rscale>  0 0.24337892E+04</rscale>
<asrwt>0</asrwt>
<pdfrwt beam="1">  1        2 0.36079653E+00 0.24337892E+04</pdfrwt>
<pdfrwt beam="2">  1       -1 0.97144196E-01 0.24337892E+04</pdfrwt>
<totfact> 0.44374356E+00</totfact>
</mgrwt>
</event>
<event>
12    7  0.1735955E-007  0.1736243E+04  0.7818608E-02  0.8740959E-01
         -1   -1    0    0    0  501 -0.00000000000E+00  0.00000000000E+00  0.44361160265E+03  0.44361160265E+03  0.00000000000E+00 0.  1.
          2   -1    0    0  501    0  0.00000000000E+00 -0.00000000000E+00 -0.16988625769E+04  0.16988625769E+04  0.00000000000E+00 0. -1.
         24    2    1    2    0    0 -0.54294812675E+03  0.31045432618E+03 -0.53636336601E+03  0.82778904901E+03  0.79840417568E+02 0.  0.
        254    2    1    2    0    0  0.54294812675E+03 -0.31045432618E+03 -0.71888760826E+03  0.13146851306E+04  0.90577206968E+03 0.  0.
         23    2    4    4    0    0  0.67529752331E+03 -0.22101126765E+03 -0.83212995776E+03  0.10982192462E+04  0.93661735805E+02 0.  0.
         23    2    4    4    0    0 -0.13234939656E+03 -0.89443058531E+02  0.11324234950E+03  0.21646588433E+03  0.92288817682E+02 0.  0.
          2    1    3    3  502    0 -0.50303995713E+03  0.26828029822E+03 -0.46436058703E+03  0.73529196355E+03  0.00000000000E+00 0. -1.
         -1    1    3    3    0  502 -0.39908169623E+02  0.42174027966E+02 -0.72002778977E+02  0.92497085457E+02  0.00000000000E+00 0.  1.
         13    1    5    5    0    0  0.67438105301E+03 -0.21098771293E+03 -0.81976665591E+03  0.10822767621E+04  0.00000000000E+00 0. -1.
        -13    1    5    5    0    0  0.91647030230E+00 -0.10023554717E+02 -0.12363301857E+02  0.15942484116E+02  0.00000000000E+00 0.  1.
          1    1    6    6  503    0 -0.55457004251E+02 -0.66742180966E+02  0.10447818123E+03  0.13581490490E+03  0.00000000000E+00 0. -1.
         -1    1    6    6    0  503 -0.76892392312E+02 -0.22700877566E+02  0.87641682742E+01  0.80650979431E+02  0.00000000000E+00 0.  1.
<mgrwt>
<rscale>  0 0.17362432E+04</rscale>
<asrwt>0</asrwt>
<pdfrwt beam="1">  1        2 0.26136348E+00 0.17362432E+04</pdfrwt>
<pdfrwt beam="2">  1       -1 0.68247937E-01 0.17362432E+04</pdfrwt>
<totfact> 0.23070017E+01</totfact>
</mgrwt>
</event>
<event>
12    7  0.1735955E-007  0.2015236E+04  0.7818608E-02  0.8599531E-01
          2   -1    0    0  501    0  0.00000000000E+00  0.00000000000E+00  0.24448674406E+04  0.24448674406E+04  0.00000000000E+00 0. -1.
         -1   -1    0    0    0  501 -0.00000000000E+00 -0.00000000000E+00 -0.41527549531E+03  0.41527549531E+03  0.00000000000E+00 0.  1.
         24    2    1    2    0    0 -0.54240208418E+03 -0.57837917805E+03  0.96730541976E+03  0.12537164693E+04  0.86039036712E+02 0.  0.
        254    2    1    2    0    0  0.54240208418E+03  0.57837917805E+03  0.10622865255E+04  0.16064264666E+04  0.90743089859E+03 0.  0.
         23    2    4    4    0    0  0.44578707282E+03  0.10352827032E+03  0.36326307236E+02  0.46808311131E+03  0.91312548128E+02 0.  0.
         23    2    4    4    0    0  0.96615011350E+02  0.47485090773E+03  0.10259602183E+04  0.11383433553E+04  0.91724478647E+02 0.  0.
          4    1    3    3  502    0 -0.36490178619E+03 -0.44524608162E+03  0.70247525065E+03  0.90822291567E+03  0.00000000000E+00 0. -1.
         -3    1    3    3    0  502 -0.17750029798E+03 -0.13313309643E+03  0.26483016911E+03  0.34549355366E+03  0.00000000000E+00 0.  1.
         13    1    5    5    0    0  0.63258359593E+02  0.15349279776E+02 -0.26956129792E+02  0.70454619305E+02  0.00000000000E+00 0. -1.
        -13    1    5    5    0    0  0.38252871323E+03  0.88178990543E+02  0.63282437028E+02  0.39762849201E+03  0.00000000000E+00 0.  1.
          3    1    6    6  503    0  0.92170972669E+02  0.23225795167E+03  0.55021911200E+03  0.60430151045E+03  0.00000000000E+00 0. -1.
         -3    1    6    6    0  503  0.44440386816E+01  0.24259295606E+03  0.47574110631E+03  0.53404184485E+03  0.00000000000E+00 0.  1.
<mgrwt>
<rscale>  0 0.20152355E+04</rscale>
<asrwt>0</asrwt>
<pdfrwt beam="1">  1        2 0.37613344E+00 0.20152355E+04</pdfrwt>
<pdfrwt beam="2">  1       -1 0.63888539E-01 0.20152355E+04</pdfrwt>
<totfact> 0.98354134E+00</totfact>
</mgrwt>
</event>
<event>
12    7  0.1735955E-007  0.1766074E+04  0.7818608E-02  0.8724552E-01
         -1   -1    0    0    0  501 -0.00000000000E+00  0.00000000000E+00  0.38569907051E+03  0.38569907051E+03  0.00000000000E+00 0.  1.
          2   -1    0    0  501    0  0.00000000000E+00 -0.00000000000E+00 -0.20216641301E+04  0.20216641301E+04  0.00000000000E+00 0. -1.
         24    2    1    2    0    0 -0.44941612750E+03  0.14952563312E+03 -0.12143616791E+04  0.13058952122E+04  0.79719803589E+02 0.  0.
        254    2    1    2    0    0  0.44941612750E+03 -0.14952563312E+03 -0.42160338049E+03  0.11014679884E+04  0.90063841153E+03 0.  0.
         23    2    4    4    0    0  0.30019186337E+03 -0.19188612963E+03  0.22390816874E+03  0.43143749085E+03  0.95226041109E+02 0.  0.
         23    2    4    4    0    0  0.14922426413E+03  0.42360496511E+02 -0.64551154923E+03  0.67003049751E+03  0.90517483000E+02 0.  0.
          4    1    3    3  502    0 -0.37287182895E+03  0.11404836007E+03 -0.10680697388E+04  0.11370195233E+04  0.00000000000E+00 0. -1.
         -3    1    3    3    0  502 -0.76544298558E+02  0.35477273046E+02 -0.14629194025E+03  0.16887568897E+03  0.00000000000E+00 0.  1.
         13    1    5    5    0    0  0.24872463152E+03 -0.15856940387E+03  0.22357483637E+03  0.37012687774E+03  0.00000000000E+00 0. -1.
        -13    1    5    5    0    0  0.51467231853E+02 -0.33316725760E+02  0.33333237440E+00  0.61310613114E+02  0.00000000000E+00 0.  1.
          3    1    6    6  503    0  0.81589479396E+02  0.67936077646E+02 -0.41990585414E+03  0.43312016824E+03  0.00000000000E+00 0. -1.
         -3    1    6    6    0  503  0.67634784736E+02 -0.25575581134E+02 -0.22560569509E+03  0.23691032927E+03  0.00000000000E+00 0.  1.
<mgrwt>
<rscale>  0 0.17660736E+04</rscale>
<asrwt>0</asrwt>
<pdfrwt beam="1">  1        2 0.31102525E+00 0.17660736E+04</pdfrwt>
<pdfrwt beam="2">  1       -1 0.59338318E-01 0.17660736E+04</pdfrwt>
<totfact> 0.20170592E+01</totfact>
</mgrwt>
</event>
<event>
12    7  0.1735955E-007  0.2678848E+04  0.7818608E-02  0.8341901E-01
         -1   -1    0    0    0  501 -0.00000000000E+00  0.00000000000E+00  0.11821453545E+04  0.11821453545E+04  0.00000000000E+00 0.  1.
          2   -1    0    0  501    0  0.00000000000E+00 -0.00000000000E+00 -0.15176274629E+04  0.15176274629E+04  0.00000000000E+00 0. -1.
         24    2    1    2    0    0 -0.10111649337E+04  0.43280779023E+03  0.29848906980E+03  0.11423810078E+04  0.78495450236E+02 0.  0.
        254    2    1    2    0    0  0.10111649337E+04 -0.43280779023E+03 -0.63397117822E+03  0.15573918095E+04  0.90209350234E+03 0.  0.
         23    2    4    4    0    0 -0.40448747299E+01  0.26126633689E+02  0.15992323945E+03  0.18594330540E+03  0.91107125455E+02 0.  0.
         23    2    4    4    0    0  0.10152098085E+04 -0.45893442392E+03 -0.79389441767E+03  0.13714485041E+04  0.96596543961E+02 0.  0.
          2    1    3    3  502    0 -0.42633654491E+03  0.14663171982E+03  0.10136314934E+03  0.46210193554E+03  0.00000000000E+00 0. -1.
         -1    1    3    3    0  502 -0.58482838884E+03  0.28617607041E+03  0.19712592046E+03  0.68027907228E+03  0.00000000000E+00 0.  1.
         13    1    5    5    0    0  0.85083615353E+01 -0.17741994271E+02  0.40324423973E-01  0.19676691866E+02  0.00000000000E+00 0. -1.
        -13    1    5    5    0    0 -0.12553236265E+02  0.43868627960E+02  0.15988291503E+03  0.16626661354E+03  0.00000000000E+00 0.  1.
          1    1    6    6  503    0  0.85926195778E+02 -0.35632619045E+02 -0.10156225959E+03  0.13772395301E+03  0.00000000000E+00 0. -1.
         -1    1    6    6    0  503  0.92928361270E+03 -0.42330180487E+03 -0.69233215808E+03  0.12337245511E+04  0.00000000000E+00 0.  1.
<mgrwt>
<rscale>  0 0.26788477E+04</rscale>
<asrwt>0</asrwt>
<pdfrwt beam="1">  1        2 0.23348115E+00 0.26788477E+04</pdfrwt>
<pdfrwt beam="2">  1       -1 0.18186852E+00 0.26788477E+04</pdfrwt>
<totfact> 0.25055164E+00</totfact>
</mgrwt>
</event>
<event>
12    7  0.1735955E-007  0.2417820E+04  0.7818608E-02  0.8432862E-01
         -1   -1    0    0    0  501 -0.00000000000E+00  0.00000000000E+00  0.11707268419E+04  0.11707268419E+04  0.00000000000E+00 0.  1.
          2   -1    0    0  501    0  0.00000000000E+00 -0.00000000000E+00 -0.12483382147E+04  0.12483382147E+04  0.00000000000E+00 0. -1.
         24    2    1    2    0    0  0.50851572772E+03  0.11341881906E+03  0.86865539893E+03  0.10160937897E+04  0.80201705766E+02 0.  0.
        254    2    1    2    0    0 -0.50851572772E+03 -0.11341881906E+03 -0.94626677177E+03  0.14029712669E+04  0.89524046964E+03 0.  0.
         23    2    4    4    0    0 -0.41230348516E+03 -0.42135565490E+03 -0.87676125334E+03  0.10604396425E+04  0.91033994905E+02 0.  0.
         23    2    4    4    0    0 -0.96212242559E+02  0.30793683584E+03 -0.69505518429E+02  0.34253162438E+03  0.91733342487E+02 0.  0.
          4    1    3    3  502    0  0.54417834300E+02 -0.12444502581E+02  0.85851028887E+02  0.10240393301E+03  0.00000000000E+00 0. -1.
         -3    1    3    3    0  502  0.45409789342E+03  0.12586332164E+03  0.78280437004E+03  0.91368985673E+03  0.00000000000E+00 0.  1.
         13    1    5    5    0    0 -0.17324596928E+01 -0.27195579793E+02 -0.44428360838E+02  0.52119864002E+02  0.00000000000E+00 0. -1.
        -13    1    5    5    0    0 -0.41057102547E+03 -0.39416007511E+03 -0.83233289251E+03  0.10083197785E+04  0.00000000000E+00 0.  1.
          3    1    6    6  503    0 -0.11016917510E+03  0.24443206630E+03 -0.39813146317E+02  0.27105233590E+03  0.00000000000E+00 0. -1.
         -3    1    6    6    0  503  0.13956932537E+02  0.63504769543E+02 -0.29692372112E+02  0.71479288485E+02  0.00000000000E+00 0.  1.
<mgrwt>
<rscale>  0 0.24178197E+04</rscale>
<asrwt>0</asrwt>
<pdfrwt beam="1">  1        2 0.19205203E+00 0.24178197E+04</pdfrwt>
<pdfrwt beam="2">  1       -1 0.18011182E+00 0.24178197E+04</pdfrwt>
<totfact> 0.37685127E+00</totfact>
</mgrwt>
</event>
<event>
12    7  0.1735955E-007  0.3384608E+04  0.7818608E-02  0.8141694E-01
          2   -1    0    0  501    0  0.00000000000E+00  0.00000000000E+00  0.19784167869E+04  0.19784167869E+04  0.00000000000E+00 0. -1.
         -1   -1    0    0    0  501 -0.00000000000E+00 -0.00000000000E+00 -0.14475682468E+04  0.14475682468E+04  0.00000000000E+00 0.  1.
         24    2    1    2    0    0 -0.18633859779E+03  0.24017651123E+03  0.18046185331E+04  0.18317991946E+04  0.80208539358E+02 0.  0.
        254    2    1    2    0    0  0.18633859779E+03 -0.24017651123E+03 -0.12737699930E+04  0.15941858391E+04  0.90913786905E+03 0.  0.
         23    2    4    4    0    0  0.13711914542E+03  0.79229426024E+02 -0.12420521423E+04  0.12560421629E+04  0.99344998430E+02 0.  0.
         23    2    4    4    0    0  0.49219452368E+02 -0.31940593725E+03 -0.31717850732E+02  0.33814367626E+03  0.94299610268E+02 0.  0.
          4    1    3    3  502    0 -0.82752524715E+02  0.87865314544E+02  0.94432286012E+03  0.95200523002E+03  0.00000000000E+00 0. -1.
         -3    1    3    3    0  502 -0.10358607307E+03  0.15231119669E+03  0.86029567294E+03  0.87979396454E+03  0.00000000000E+00 0.  1.
         13    1    5    5    0    0  0.15845385615E+02 -0.23271743372E+02 -0.18927414964E+03  0.19135661474E+03  0.00000000000E+00 0. -1.
        -13    1    5    5    0    0  0.12127375981E+03  0.10250116940E+03 -0.10527779927E+04  0.10646855481E+04  0.00000000000E+00 0.  1.
          3    1    6    6  503    0  0.17413553573E+02 -0.22651590484E+03 -0.61825983642E+02  0.23544668026E+03  0.00000000000E+00 0. -1.
         -3    1    6    6    0  503  0.31805898795E+02 -0.92890032413E+02  0.30108132910E+02  0.10269699600E+03  0.00000000000E+00 0.  1.
<mgrwt>
<rscale>  0 0.33846083E+04</rscale>
<asrwt>0</asrwt>
<pdfrwt beam="1">  1        2 0.30437181E+00 0.33846083E+04</pdfrwt>
<pdfrwt beam="2">  1       -1 0.22270281E+00 0.33846083E+04</pdfrwt>
<totfact> 0.68412205E-01</totfact>
</mgrwt>
</event>
<event>
12    7  0.1735955E-007  0.1810471E+04  0.7818608E-02  0.8700751E-01
         -1   -1    0    0    0  501 -0.00000000000E+00  0.00000000000E+00  0.23766870539E+03  0.23766870539E+03  0.00000000000E+00 0.  1.
          2   -1    0    0  501    0  0.00000000000E+00 -0.00000000000E+00 -0.34478708389E+04  0.34478708389E+04  0.00000000000E+00 0. -1.
         24    2    1    2    0    0 -0.23087124976E+03  0.36657502402E+03 -0.14995438291E+03  0.46540578329E+03  0.80233683489E+02 0.  0.
        254    2    1    2    0    0  0.23087124976E+03 -0.36657502402E+03 -0.30602477506E+04  0.32201337610E+04  0.90358528179E+03 0.  0.
         23    2    4    4    0    0  0.54444441251E+03 -0.63489720867E+02 -0.17439128580E+04  0.18303167323E+04  0.91523882744E+02 0.  0.
         23    2    4    4    0    0 -0.31357316275E+03 -0.30308530316E+03 -0.13163348926E+04  0.13898170288E+04  0.93085952316E+02 0.  0.
          2    1    3    3  502    0 -0.76641655371E+02  0.17636260013E+03 -0.37417912302E+02  0.19590255288E+03  0.00000000000E+00 0. -1.
         -1    1    3    3    0  502 -0.15422959439E+03  0.19021242390E+03 -0.11253647061E+03  0.26950323042E+03  0.00000000000E+00 0.  1.
         13    1    5    5    0    0  0.51913557632E+03 -0.39506026314E+02 -0.16463034974E+04  0.17266666378E+04  0.00000000000E+00 0. -1.
        -13    1    5    5    0    0  0.25308836192E+02 -0.23983694553E+02 -0.97609360629E+02  0.10365009443E+03  0.00000000000E+00 0.  1.
          3    1    6    6  503    0 -0.24659816289E+03 -0.25108655703E+03 -0.11568010197E+04  0.12091499958E+04  0.00000000000E+00 0. -1.
         -3    1    6    6    0  503 -0.66974999864E+02 -0.51998746129E+02 -0.15953387292E+03  0.18066703300E+03  0.00000000000E+00 0.  1.
<mgrwt>
<rscale>  0 0.18104707E+04</rscale>
<asrwt>0</asrwt>
<pdfrwt beam="1">  1        2 0.53044168E+00 0.18104707E+04</pdfrwt>
<pdfrwt beam="2">  1       -1 0.36564415E-01 0.18104707E+04</pdfrwt>
<totfact> 0.68586170E+00</totfact>
</mgrwt>
</event>
<event>
12    7  0.1735955E-007  0.2171476E+04  0.7818608E-02  0.8530395E-01
         -1   -1    0    0    0  501 -0.00000000000E+00  0.00000000000E+00  0.96298577533E+03  0.96298577533E+03  0.00000000000E+00 0.  1.
          2   -1    0    0  501    0  0.00000000000E+00 -0.00000000000E+00 -0.12241371679E+04  0.12241371679E+04  0.00000000000E+00 0. -1.
         24    2    1    2    0    0 -0.95059439034E+02  0.67271405095E+02 -0.10113790827E+04  0.10212491006E+04  0.80624672048E+02 0.  0.
        254    2    1    2    0    0  0.95059439034E+02 -0.67271405095E+02  0.75022769008E+03  0.11658738426E+04  0.88479290859E+03 0.  0.
         23    2    4    4    0    0  0.55849921062E+02 -0.31779184680E+03 -0.33195987721E+02  0.33726947624E+03  0.92400510951E+02 0.  0.
         23    2    4    4    0    0  0.39209517973E+02  0.25052044171E+03  0.78342367780E+03  0.82860436641E+03  0.92383218563E+02 0.  0.
          4    1    3    3  502    0 -0.91724772641E+02  0.83698928451E+02 -0.92043127412E+03  0.92876944121E+03  0.00000000000E+00 0. -1.
         -3    1    3    3    0  502 -0.33346663934E+01 -0.16427523356E+02 -0.90947808536E+02  0.92479659391E+02  0.00000000000E+00 0.  1.
         13    1    5    5    0    0  0.26227104776E+01  0.41227340482E+01 -0.88097508264E+01  0.10074088341E+02  0.00000000000E+00 0. -1.
        -13    1    5    5    0    0  0.53227210584E+02 -0.32191458085E+03 -0.24386236895E+02  0.32719538790E+03  0.00000000000E+00 0.  1.
          1    1    6    6  503    0 -0.14309178871E+02  0.40699888000E+02  0.63108139243E+02  0.76445213858E+02  0.00000000000E+00 0. -1.
         -1    1    6    6    0  503  0.53518696844E+02  0.20982055371E+03  0.72031553856E+03  0.75215915255E+03  0.00000000000E+00 0.  1.
<mgrwt>
<rscale>  0 0.21714757E+04</rscale>
<asrwt>0</asrwt>
<pdfrwt beam="1">  1        2 0.18832880E+00 0.21714757E+04</pdfrwt>
<pdfrwt beam="2">  1       -1 0.14815166E+00 0.21714757E+04</pdfrwt>
<totfact> 0.69039096E+00</totfact>
</mgrwt>
</event>
<event>
12    7  0.1735955E-007  0.1945703E+04  0.7818608E-02  0.8632435E-01
          2   -1    0    0  501    0  0.00000000000E+00  0.00000000000E+00  0.39112010353E+03  0.39112010353E+03  0.00000000000E+00 0. -1.
         -1   -1    0    0    0  501 -0.00000000000E+00 -0.00000000000E+00 -0.24198201801E+04  0.24198201801E+04  0.00000000000E+00 0.  1.
         24    2    1    2    0    0 -0.65038851395E+03 -0.25116458483E+03 -0.12529562216E+04  0.14362369897E+04  0.82392533971E+02 0.  0.
        254    2    1    2    0    0  0.65038851395E+03  0.25116458483E+03 -0.77574385498E+03  0.13747032939E+04  0.89551200439E+03 0.  0.
         23    2    4    4    0    0  0.35094437271E+03 -0.21502596960E+03 -0.68769777444E+03  0.80657337092E+03  0.90742786856E+02 0.  0.
         23    2    4    4    0    0  0.29944414124E+03  0.46619055443E+03 -0.88046080532E+02  0.56812992299E+03  0.89549262063E+02 0.  0.
          2    1    3    3  502    0 -0.23532082281E+03 -0.52169153090E+02 -0.40026456280E+03  0.46723573323E+03  0.00000000000E+00 0. -1.
         -1    1    3    3    0  502 -0.41506769114E+03 -0.19899543174E+03 -0.85269165883E+03  0.96900125651E+03  0.00000000000E+00 0.  1.
         13    1    5    5    0    0  0.14881974347E+03 -0.11469387701E+03 -0.23611479106E+03  0.30174856425E+03  0.00000000000E+00 0. -1.
        -13    1    5    5    0    0  0.20212462924E+03 -0.10033209258E+03 -0.45158298338E+03  0.50482480667E+03  0.00000000000E+00 0.  1.
          3    1    6    6  503    0  0.30150622835E+03  0.45999643622E+03 -0.77093456512E+02  0.55537926510E+03  0.00000000000E+00 0. -1.
         -3    1    6    6    0  503 -0.20620871071E+01  0.61941182087E+01 -0.10952624021E+02  0.12750657887E+02  0.00000000000E+00 0.  1.
<mgrwt>
<rscale>  0 0.19457033E+04</rscale>
<asrwt>0</asrwt>
<pdfrwt beam="1">  1        2 0.60172324E-01 0.19457033E+04</pdfrwt>
<pdfrwt beam="2">  1       -1 0.37228002E+00 0.19457033E+04</pdfrwt>
<totfact> 0.96158687E-01</totfact>
</mgrwt>
</event>
<event>
12    7  0.1735955E-007  0.1511546E+04  0.7818608E-02  0.8876811E-01
         -1   -1    0    0    0  501 -0.00000000000E+00  0.00000000000E+00  0.70946315938E+03  0.70946315938E+03  0.00000000000E+00 0.  1.
          2   -1    0    0  501    0  0.00000000000E+00 -0.00000000000E+00 -0.80510580724E+03  0.80510580724E+03  0.00000000000E+00 0. -1.
         24    2    1    2    0    0 -0.47753398146E+03 -0.92765027366E+02 -0.50340381368E+01  0.49272687031E+03  0.78168877699E+02 0.  0.
        254    2    1    2    0    0  0.47753398146E+03  0.92765027366E+02 -0.90608609727E+02  0.10218420963E+04  0.89403987376E+03 0.  0.
         23    2    4    4    0    0  0.49204525388E+03 -0.12104268653E+02  0.31668228606E+03  0.59190995429E+03  0.88400670234E+02 0.  0.
         23    2    4    4    0    0 -0.14511272417E+02  0.10486929602E+03 -0.40729089579E+03  0.42993214201E+03  0.88020603640E+02 0.  0.
          4    1    3    3  502    0 -0.13445763462E+03 -0.59316415172E+02 -0.16148133518E+02  0.14784469836E+03  0.00000000000E+00 0. -1.
         -3    1    3    3    0  502 -0.34307634683E+03 -0.33448612193E+02  0.11114095381E+02  0.34488217195E+03  0.00000000000E+00 0.  1.
         13    1    5    5    0    0  0.31395741989E+03 -0.35901360588E+02  0.23880055542E+03  0.39608569081E+03  0.00000000000E+00 0.  1.
        -13    1    5    5    0    0  0.17808783399E+03  0.23797091936E+02  0.77881730643E+02  0.19582426348E+03  0.00000000000E+00 0. -1.
          1    1    6    6  503    0 -0.49272787857E+02  0.52295424080E+02 -0.17337436958E+03  0.18767336260E+03  0.00000000000E+00 0. -1.
         -1    1    6    6    0  503  0.34761515440E+02  0.52573871938E+02 -0.23391652621E+03  0.24225877941E+03  0.00000000000E+00 0.  1.
<mgrwt>
<rscale>  0 0.15115461E+04</rscale>
<asrwt>0</asrwt>
<pdfrwt beam="1">  1        2 0.12386243E+00 0.15115461E+04</pdfrwt>
<pdfrwt beam="2">  1       -1 0.10914818E+00 0.15115461E+04</pdfrwt>
<totfact> 0.29271383E+01</totfact>
</mgrwt>
</event>
<event>
12    7  0.1735955E-007  0.3270527E+04  0.7818608E-02  0.8170435E-01
          2   -1    0    0  501    0  0.00000000000E+00  0.00000000000E+00  0.28500055308E+04  0.28500055308E+04  0.00000000000E+00 0. -1.
         -1   -1    0    0    0  501 -0.00000000000E+00 -0.00000000000E+00 -0.93827433633E+03  0.93827433633E+03  0.00000000000E+00 0.  1.
         24    2    1    2    0    0 -0.55852151982E+03 -0.88385423210E+03 -0.37555306043E+03  0.11138050080E+04  0.79855512785E+02 0.  0.
        254    2    1    2    0    0  0.55852151982E+03  0.88385423210E+03  0.22872842549E+04  0.26744748592E+04  0.90994610710E+03 0.  0.
         23    2    4    4    0    0  0.28247956724E+03  0.10139777340E+04  0.18903041895E+04  0.21655094668E+04  0.90751147966E+02 0.  0.
         23    2    4    4    0    0  0.27604195258E+03 -0.13012350193E+03  0.39698006544E+03  0.50896539240E+03  0.91221230927E+02 0.  0.
          2    1    3    3  502    0 -0.32435929359E+03 -0.49081934705E+03 -0.25124072659E+03  0.63971437804E+03  0.00000000000E+00 0. -1.
         -1    1    3    3    0  502 -0.23416222623E+03 -0.39303488505E+03 -0.12431233384E+03  0.47409062995E+03  0.00000000000E+00 0.  1.
         13    1    5    5    0    0  0.58931271508E+02  0.32023139438E+03  0.52334288827E+03  0.61636743864E+03  0.00000000000E+00 0. -1.
        -13    1    5    5    0    0  0.22354829573E+03  0.69374633965E+03  0.13669613012E+04  0.15491420281E+04  0.00000000000E+00 0.  1.
          3    1    6    6  503    0  0.12320450231E+02 -0.26220682097E+02  0.13146083120E+02  0.31814103239E+02  0.00000000000E+00 0. -1.
         -3    1    6    6    0  503  0.26372150235E+03 -0.10390281984E+03  0.38383398232E+03  0.47715128916E+03  0.00000000000E+00 0.  1.
<mgrwt>
<rscale>  0 0.32705272E+04</rscale>
<asrwt>0</asrwt>
<pdfrwt beam="1">  1        2 0.43846238E+00 0.32705272E+04</pdfrwt>
<pdfrwt beam="2">  1       -1 0.14434990E+00 0.32705272E+04</pdfrwt>
<totfact> 0.79241849E-01</totfact>
</mgrwt>
</event>
<event>
12    7  0.1735955E-007  0.1292960E+04  0.7818608E-02  0.9035166E-01
          2   -1    0    0  501    0  0.00000000000E+00  0.00000000000E+00  0.34792625288E+03  0.34792625288E+03  0.00000000000E+00 0. -1.
         -1   -1    0    0    0  501 -0.00000000000E+00 -0.00000000000E+00 -0.12012218879E+04  0.12012218879E+04  0.00000000000E+00 0.  1.
         24    2    1    2    0    0 -0.28613219945E+02  0.16982326326E+02 -0.61873871784E+03  0.62483253036E+03  0.80442366259E+02 0.  0.
        254    2    1    2    0    0  0.28613219945E+02 -0.16982326326E+02 -0.23455691715E+03  0.92431561038E+03  0.89344014038E+03 0.  0.
         23    2    4    4    0    0  0.21235215572E+03  0.15482540508E+02  0.28308886360E+03  0.36677786196E+03  0.95150135230E+02 0.  0.
         23    2    4    4    0    0 -0.18373893578E+03 -0.32464866833E+02 -0.51764578075E+03  0.55753774842E+03  0.89873369172E+02 0.  0.
          4    1    3    3  502    0 -0.19617016611E+01  0.31495410503E+02 -0.92792051420E+02  0.98011091020E+02  0.00000000000E+00 0. -1.
         -3    1    3    3    0  502 -0.26651518283E+02 -0.14513084177E+02 -0.52594666641E+03  0.52682143934E+03  0.00000000000E+00 0.  1.
         13    1    5    5    0    0  0.71549019801E+02  0.51088414021E+02  0.11072307358E+03  0.14138206146E+03  0.00000000000E+00 0. -1.
        -13    1    5    5    0    0  0.14080313592E+03 -0.35605873513E+02  0.17236579002E+03  0.22539580050E+03  0.00000000000E+00 0.  1.
          4    1    6    6  503    0 -0.50460525764E+02 -0.16130215473E+02 -0.57424986016E+02  0.78128596112E+02  0.00000000000E+00 0. -1.
         -4    1    6    6    0  503 -0.13327841001E+03 -0.16334651360E+02 -0.46022079473E+03  0.47940915231E+03  0.00000000000E+00 0.  1.
<mgrwt>
<rscale>  0 0.12929604E+04</rscale>
<asrwt>0</asrwt>
<pdfrwt beam="1">  1        2 0.53527117E-01 0.12929604E+04</pdfrwt>
<pdfrwt beam="2">  1       -1 0.18480336E+00 0.12929604E+04</pdfrwt>
<totfact> 0.20084238E+01</totfact>
</mgrwt>
</event>
<event>
12    7  0.1961397E-007  0.1979406E+04  0.7818608E-02  0.8616310E-01
          2   -1    0    0  501    0  0.00000000000E+00  0.00000000000E+00  0.18474135664E+04  0.18474135664E+04  0.00000000000E+00 0. -1.
         -3   -1    0    0    0  501 -0.00000000000E+00 -0.00000000000E+00 -0.53020703435E+03  0.53020703435E+03  0.00000000000E+00 0.  1.
         24    2    1    2    0    0  0.71131968297E+02 -0.32094431586E+01  0.14620253330E+04  0.14658902985E+04  0.79033129897E+02 0.  0.
        254    2    1    2    0    0 -0.71131968297E+02  0.32094431586E+01 -0.14481880087E+03  0.91173030226E+03  0.89733472102E+03 0.  0.
         23    2    4    4    0    0 -0.25024838818E+03 -0.35463538810E+03 -0.21957388915E+03  0.49517934615E+03  0.92732830073E+02 0.  0.
         23    2    4    4    0    0  0.17911641989E+03  0.35784483126E+03  0.74755088274E+02  0.41655095612E+03  0.88265285865E+02 0.  0.
          2    1    3    3  502    0  0.33083048447E+02 -0.86721762291E+00  0.12517505663E+04  0.12521879733E+04  0.00000000000E+00 0. -1.
         -1    1    3    3    0  502  0.38048919851E+02 -0.23422255357E+01  0.21027476666E+03  0.21370232525E+03  0.00000000000E+00 0.  1.
         13    1    5    5    0    0 -0.64161290611E+02 -0.34132899762E+02 -0.45332014296E+02  0.85654641317E+02  0.00000000000E+00 0.  1.
        -13    1    5    5    0    0 -0.18608709757E+03 -0.32050248834E+03 -0.17424187485E+03  0.40952470483E+03  0.00000000000E+00 0. -1.
          2    1    6    6  503    0  0.16083202229E+03  0.35251987132E+03  0.82208592734E+02  0.39610030521E+03  0.00000000000E+00 0. -1.
         -2    1    6    6    0  503  0.18284397595E+02  0.53249599390E+01 -0.74535044602E+01  0.20450650907E+02  0.00000000000E+00 0.  1.
<mgrwt>
<rscale>  0 0.19794056E+04</rscale>
<asrwt>0</asrwt>
<pdfrwt beam="1">  1        2 0.28421747E+00 0.19794056E+04</pdfrwt>
<pdfrwt beam="2">  1       -3 0.81570314E-01 0.19794056E+04</pdfrwt>
<totfact> 0.67210829E+00</totfact>
</mgrwt>
</event>
<event>
12    7  0.1735955E-007  0.1734675E+04  0.7818608E-02  0.8741831E-01
         -1   -1    0    0    0  501 -0.00000000000E+00  0.00000000000E+00  0.40942244079E+03  0.40942244079E+03  0.00000000000E+00 0.  1.
          2   -1    0    0  501    0  0.00000000000E+00 -0.00000000000E+00 -0.18374042905E+04  0.18374042905E+04  0.00000000000E+00 0. -1.
         24    2    1    2    0    0  0.26182534662E+03  0.35641343969E+03 -0.11154196724E+04  0.12026466750E+04  0.81332203703E+02 0.  0.
        254    2    1    2    0    0 -0.26182534662E+03 -0.35641343969E+03 -0.31256217732E+03  0.10441800562E+04  0.89276750780E+03 0.  0.
         23    2    4    4    0    0 -0.25848643628E+03 -0.57436724467E+03 -0.44138479541E+03  0.77457237022E+03  0.91808766401E+02 0.  0.
         23    2    4    4    0    0 -0.33389103393E+01  0.21795380498E+03  0.12882261809E+03  0.26960768600E+03  0.92617644073E+02 0.  0.
          2    1    3    3  502    0  0.23428480799E+03  0.28153306014E+03 -0.96882016296E+03  0.10357426048E+04  0.00000000000E+00 0. -1.
         -1    1    3    3    0  502  0.27540538628E+02  0.74880379556E+02 -0.14659950941E+03  0.16690407026E+03  0.00000000000E+00 0.  1.
         13    1    5    5    0    0 -0.19145409133E+03 -0.38531874545E+03 -0.34770126413E+03  0.55319198635E+03  0.00000000000E+00 0.  1.
        -13    1    5    5    0    0 -0.67032344948E+02 -0.18904849922E+03 -0.93683531279E+02  0.22138038387E+03  0.00000000000E+00 0. -1.
          2    1    6    6  503    0 -0.33898629594E+01  0.27150853718E+02 -0.14505062270E+02  0.30968643173E+02  0.00000000000E+00 0. -1.
         -2    1    6    6    0  503  0.50952620161E-01  0.19080295126E+03  0.14332768036E+03  0.23863904283E+03  0.00000000000E+00 0.  1.
<mgrwt>
<rscale>  0 0.17346752E+04</rscale>
<asrwt>0</asrwt>
<pdfrwt beam="1">  1        2 0.28267758E+00 0.17346752E+04</pdfrwt>
<pdfrwt beam="2">  1       -1 0.62988069E-01 0.17346752E+04</pdfrwt>
<totfact> 0.22729236E+01</totfact>
</mgrwt>
</event>
<event>
12    7  0.1735955E-007  0.1321129E+04  0.7818608E-02  0.9012976E-01
          2   -1    0    0  501    0  0.00000000000E+00  0.00000000000E+00  0.76421563872E+03  0.76421563872E+03  0.00000000000E+00 0. -1.
         -1   -1    0    0    0  501 -0.00000000000E+00 -0.00000000000E+00 -0.57097150795E+03  0.57097150795E+03  0.00000000000E+00 0.  1.
         24    2    1    2    0    0 -0.28059278378E+03 -0.15811331535E+03 -0.83601126079E+02  0.34368465934E+03  0.86010848066E+02 0.  0.
        254    2    1    2    0    0  0.28059278378E+03  0.15811331535E+03  0.27684525684E+03  0.99150248733E+03  0.89593624513E+03 0.  0.
         23    2    4    4    0    0  0.25877886833E+03  0.18825380314E+03  0.58223224084E+03  0.67053729402E+03  0.90663572115E+02 0.  0.
         23    2    4    4    0    0  0.21813915450E+02 -0.30140487792E+02 -0.30538698400E+03  0.32096519331E+03  0.91504914669E+02 0.  0.
          2    1    3    3  502    0 -0.30140868952E+02 -0.32135595972E+02  0.14935519825E+02  0.46521374250E+02  0.00000000000E+00 0. -1.
         -3    1    3    3    0  502 -0.25045191483E+03 -0.12597771938E+03 -0.98536645904E+02  0.29716328509E+03  0.00000000000E+00 0.  1.
         13    1    5    5    0    0  0.23412194505E+03  0.14042840315E+03  0.52647759814E+03  0.59305301863E+03  0.00000000000E+00 0.  1.
        -13    1    5    5    0    0  0.24656923276E+02  0.47825399992E+02  0.55754642701E+02  0.77484275389E+02  0.00000000000E+00 0. -1.
          3    1    6    6  503    0 -0.27549404015E+02  0.15358895658E+02 -0.90845472091E+02  0.96165301106E+02  0.00000000000E+00 0. -1.
         -3    1    6    6    0  503  0.49363319465E+02 -0.45499383450E+02 -0.21454151191E+03  0.22479989220E+03  0.00000000000E+00 0.  1.
<mgrwt>
<rscale>  0 0.13211288E+04</rscale>
<asrwt>0</asrwt>
<pdfrwt beam="1">  1        2 0.11757164E+00 0.13211288E+04</pdfrwt>
<pdfrwt beam="2">  1       -1 0.87841771E-01 0.13211288E+04</pdfrwt>
<totfact> 0.52136897E+01</totfact>
</mgrwt>
</event>
<event>
12    7  0.1735955E-007  0.4942098E+04  0.7818608E-02  0.7837502E-01
          2   -1    0    0  501    0  0.00000000000E+00  0.00000000000E+00  0.32021233129E+04  0.32021233129E+04  0.00000000000E+00 0. -1.
         -1   -1    0    0    0  501 -0.00000000000E+00 -0.00000000000E+00 -0.19068857708E+04  0.19068857708E+04  0.00000000000E+00 0.  1.
         24    2    1    2    0    0 -0.18723293330E+02 -0.15523488658E+04 -0.12518304346E+04  0.19959033172E+04  0.80081530456E+02 0.  0.
        254    2    1    2    0    0  0.18723293330E+02  0.15523488658E+04  0.25470679767E+04  0.31131057665E+04  0.89091788196E+03 0.  0.
         23    2    4    4    0    0  0.64650959937E+02  0.25153042448E+03  0.12246028638E+04  0.12552664132E+04  0.92705410321E+02 0.  0.
         23    2    4    4    0    0 -0.45927666606E+02  0.13008184414E+04  0.13224651129E+04  0.18578393533E+04  0.91733961633E+02 0.  0.
          2    1    3    3  502    0 -0.11969678546E+02 -0.51828260297E+02 -0.55117967081E+02  0.76599164912E+02  0.00000000000E+00 0. -1.
         -1    1    3    3    0  502 -0.67536147844E+01 -0.15005206055E+04 -0.11967124675E+04  0.19193041523E+04  0.00000000000E+00 0.  1.
         13    1    5    5    0    0 -0.19409556498E+02  0.10270834000E+03  0.49385074771E+03  0.50479133808E+03  0.00000000000E+00 0. -1.
        -13    1    5    5    0    0  0.84060516434E+02  0.14882208448E+03  0.73075211610E+03  0.75047507516E+03  0.00000000000E+00 0.  1.
          4    1    6    6  503    0 -0.17444731129E+02  0.45369773595E+03  0.52451734212E+03  0.69373222243E+03  0.00000000000E+00 0. -1.
         -4    1    6    6    0  503 -0.28482935477E+02  0.84712070541E+03  0.79794777082E+03  0.11641071309E+04  0.00000000000E+00 0.  1.
<mgrwt>
<rscale>  0 0.49420981E+04</rscale>
<asrwt>0</asrwt>
<pdfrwt beam="1">  1        2 0.49263436E+00 0.49420981E+04</pdfrwt>
<pdfrwt beam="2">  1       -1 0.29336704E+00 0.49420981E+04</pdfrwt>
<totfact> 0.39128255E-02</totfact>
</mgrwt>
</event>
<event>
12    7  0.1847506E-007  0.2393720E+04  0.7818608E-02  0.8441858E-01
         -1   -1    0    0    0  501 -0.00000000000E+00  0.00000000000E+00  0.94827631552E+03  0.94827631552E+03  0.00000000000E+00 0.  1.
          2   -1    0    0  501    0  0.00000000000E+00 -0.00000000000E+00 -0.15106079987E+04  0.15106079987E+04  0.00000000000E+00 0. -1.
         24    2    1    2    0    0  0.77208721685E+03  0.27689976185E+03  0.39074741946E+03  0.91235045959E+03  0.83112374267E+02 0.  0.
        254    2    1    2    0    0 -0.77208721685E+03 -0.27689976185E+03 -0.95307910260E+03  0.15465338546E+04  0.90034162353E+03 0.  0.
         23    2    4    4    0    0 -0.28601668690E+03 -0.56181535810E+03 -0.40123161555E+03  0.75267943987E+03  0.89986043937E+02 0.  0.
         23    2    4    4    0    0 -0.48607052994E+03  0.28491559624E+03 -0.55184748705E+03  0.79385441473E+03  0.90706812074E+02 0.  0.
          2    1    3    3  502    0  0.42715648256E+02  0.37162226208E+02  0.29634869195E+02  0.63905266879E+02  0.00000000000E+00 0. -1.
         -1    1    3    3    0  502  0.72937156859E+03  0.23973753564E+03  0.36111255027E+03  0.84844519271E+03  0.00000000000E+00 0.  1.
         13    1    5    5    0    0 -0.26567498811E+03 -0.44554213379E+03 -0.32352572591E+03  0.61135904967E+03  0.00000000000E+00 0.  1.
        -13    1    5    5    0    0 -0.20341698792E+02 -0.11627322431E+03 -0.77705889641E+02  0.14132039020E+03  0.00000000000E+00 0. -1.
          1    1    6    6  503    0 -0.25817739661E+03  0.10230691340E+03 -0.24629530742E+03  0.37119220238E+03  0.00000000000E+00 0. -1.
         -1    1    6    6    0  503 -0.22789313333E+03  0.18260868285E+03 -0.30555217963E+03  0.42266221235E+03  0.00000000000E+00 0.  1.
<mgrwt>
<rscale>  0 0.23937199E+04</rscale>
<asrwt>0</asrwt>
<pdfrwt beam="1">  1        2 0.23240123E+00 0.23937199E+04</pdfrwt>
<pdfrwt beam="2">  1       -1 0.14588866E+00 0.23937199E+04</pdfrwt>
<totfact> 0.48232853E+00</totfact>
</mgrwt>
</event>
<event>
12    7  0.1735955E-007  0.2479968E+04  0.7818608E-02  0.8410157E-01
         -1   -1    0    0    0  501 -0.00000000000E+00  0.00000000000E+00  0.12411867819E+04  0.12411867819E+04  0.00000000000E+00 0.  1.
          2   -1    0    0  501    0  0.00000000000E+00 -0.00000000000E+00 -0.12387826395E+04  0.12387826395E+04  0.00000000000E+00 0. -1.
         24    2    1    2    0    0 -0.74511889654E+02  0.32617201454E+03  0.10124283737E+04  0.10693389930E+04  0.80836038701E+02 0.  0.
        254    2    1    2    0    0  0.74511889654E+02 -0.32617201454E+03 -0.10100242314E+04  0.14106304284E+04  0.92616901955E+03 0.  0.
         23    2    4    4    0    0  0.29579825361E+03 -0.35291934809E+03 -0.10649839550E+04  0.11636453618E+04  0.88493110049E+02 0.  0.
         23    2    4    4    0    0 -0.22128636396E+03  0.26747333551E+02  0.54959723616E+02  0.24698506660E+03  0.91093233443E+02 0.  0.
          4    1    3    3  502    0  0.61942623080E+01  0.58495019505E+02  0.11202784912E+03  0.12653171606E+03  0.00000000000E+00 0. -1.
         -3    1    3    3    0  502 -0.80706151962E+02  0.26767699504E+03  0.90040052463E+03  0.94280727691E+03  0.00000000000E+00 0.  1.
         13    1    5    5    0    0  0.18430777560E+02  0.15123125303E+01 -0.33870564318E+02  0.38590099480E+02  0.00000000000E+00 0. -1.
        -13    1    5    5    0    0  0.27736747605E+03 -0.35443166062E+03 -0.10311133907E+04  0.11250552623E+04  0.00000000000E+00 0.  1.
          3    1    6    6  503    0 -0.15298558444E+03 -0.21612605678E+02  0.52772204575E+02  0.16326848853E+03  0.00000000000E+00 0. -1.
         -3    1    6    6    0  503 -0.68300779519E+02  0.48359939229E+02  0.21875190404E+01  0.83716578076E+02  0.00000000000E+00 0.  1.
<mgrwt>
<rscale>  0 0.24799683E+04</rscale>
<asrwt>0</asrwt>
<pdfrwt beam="1">  1        2 0.19058195E+00 0.24799683E+04</pdfrwt>
<pdfrwt beam="2">  1       -1 0.19095181E+00 0.24799683E+04</pdfrwt>
<totfact> 0.31816447E+00</totfact>
</mgrwt>
</event>
<event>
12    7  0.1735955E-007  0.1339486E+04  0.7818608E-02  0.8998826E-01
         -1   -1    0    0    0  501 -0.00000000000E+00  0.00000000000E+00  0.45191058635E+03  0.45191058635E+03  0.00000000000E+00 0.  1.
          2   -1    0    0  501    0  0.00000000000E+00 -0.00000000000E+00 -0.99257548560E+03  0.99257548560E+03  0.00000000000E+00 0. -1.
         24    2    1    2    0    0 -0.19613229443E+03 -0.29076483322E+03 -0.24674273986E+03  0.43653826476E+03  0.81679934906E+02 0.  0.
        254    2    1    2    0    0  0.19613229443E+03  0.29076483322E+03 -0.29392215939E+03  0.10079478072E+04  0.89808489637E+03 0.  0.
         23    2    4    4    0    0  0.14948701455E+03  0.59781499362E+03 -0.28657127098E+03  0.68563806239E+03  0.90814784792E+02 0.  0.
         23    2    4    4    0    0  0.46645279881E+02 -0.30705016040E+03 -0.73508884090E+01  0.32230974480E+03  0.85871723489E+02 0.  0.
          4    1    3    3  502    0 -0.18224906585E+02 -0.55791808121E+02 -0.12368830807E+02  0.59982172760E+02  0.00000000000E+00 0. -1.
         -3    1    3    3    0  502 -0.17790738785E+03 -0.23497302510E+03 -0.23437390906E+03  0.37655609200E+03  0.00000000000E+00 0.  1.
         13    1    5    5    0    0  0.15366958391E+02  0.33675715066E+02  0.36610228861E+01  0.37196777871E+02  0.00000000000E+00 0. -1.
        -13    1    5    5    0    0  0.13412005616E+03  0.56413927855E+03 -0.29023229387E+03  0.64844128452E+03  0.00000000000E+00 0.  1.
          1    1    6    6  503    0 -0.21224547250E+02 -0.30540633230E+02  0.37224917573E+01  0.37377381247E+02  0.00000000000E+00 0. -1.
         -1    1    6    6    0  503  0.67869827131E+02 -0.27650952717E+03 -0.11073380166E+02  0.28493236355E+03  0.00000000000E+00 0.  1.
<mgrwt>
<rscale>  0 0.13394855E+04</rscale>
<asrwt>0</asrwt>
<pdfrwt beam="1">  1        2 0.15270392E+00 0.13394855E+04</pdfrwt>
<pdfrwt beam="2">  1       -1 0.69524706E-01 0.13394855E+04</pdfrwt>
<totfact> 0.59436006E+01</totfact>
</mgrwt>
</event>
<event>
12    7  0.1735955E-007  0.2712651E+04  0.7818608E-02  0.8330912E-01
          2   -1    0    0  501    0  0.00000000000E+00  0.00000000000E+00  0.17812254661E+04  0.17812254661E+04  0.00000000000E+00 0. -1.
         -1   -1    0    0    0  501 -0.00000000000E+00 -0.00000000000E+00 -0.10327825446E+04  0.10327825446E+04  0.00000000000E+00 0.  1.
         24    2    1    2    0    0 -0.18495056805E+00  0.11114480037E+04  0.82987257738E+03  0.13893522347E+04  0.79337496110E+02 0.  0.
        254    2    1    2    0    0  0.18495056805E+00 -0.11114480037E+04 -0.81429655946E+02  0.14246557760E+04  0.88752272760E+03 0.  0.
         23    2    4    4    0    0 -0.91948338775E+02 -0.94664457131E+02  0.29276052041E+03  0.33358037223E+03  0.90284472540E+02 0.  0.
         23    2    4    4    0    0  0.92133289343E+02 -0.10167835466E+04 -0.37419017635E+03  0.10910754037E+04  0.89944010310E+02 0.  0.
          2    1    3    3  502    0  0.70266016495E+01  0.67537898187E+03  0.55130419594E+03  0.87185002079E+03  0.00000000000E+00 0. -1.
         -1    1    3    3    0  502 -0.72115522176E+01  0.43606902184E+03  0.27856838144E+03  0.51750221393E+03  0.00000000000E+00 0.  1.
         13    1    5    5    0    0 -0.25478815870E+02 -0.40043009585E+02  0.27804213835E+02  0.55006244934E+02  0.00000000000E+00 0. -1.
        -13    1    5    5    0    0 -0.66469522904E+02 -0.54621447546E+02  0.26495630657E+03  0.27857412730E+03  0.00000000000E+00 0.  1.
          4    1    6    6  503    0  0.29575588869E+02 -0.76087379555E+03 -0.27588262987E+03  0.80988571643E+03  0.00000000000E+00 0.  1.
         -4    1    6    6    0  503  0.62557700474E+02 -0.25590975103E+03 -0.98307546479E+02  0.28118968732E+03  0.00000000000E+00 0. -1.
<mgrwt>
<rscale>  0 0.27126508E+04</rscale>
<asrwt>0</asrwt>
<pdfrwt beam="1">  1        2 0.27403469E+00 0.27126508E+04</pdfrwt>
<pdfrwt beam="2">  1       -1 0.15888962E+00 0.27126508E+04</pdfrwt>
<totfact> 0.26270576E+00</totfact>
</mgrwt>
</event>
<event>
12    7  0.1735955E-007  0.1371559E+04  0.7818608E-02  0.8974667E-01
         -1   -1    0    0    0  501 -0.00000000000E+00  0.00000000000E+00  0.76707313610E+03  0.76707313610E+03  0.00000000000E+00 0.  1.
          2   -1    0    0  501    0  0.00000000000E+00 -0.00000000000E+00 -0.61310101388E+03  0.61310101388E+03  0.00000000000E+00 0. -1.
         24    2    1    2    0    0  0.31741661547E+03 -0.17623336424E+03  0.15856966245E+03  0.40771619752E+03  0.96315385210E+02 0.  0.
        254    2    1    2    0    0 -0.31741661547E+03  0.17623336424E+03 -0.45975402218E+01  0.97245795245E+03  0.90213182267E+03 0.  0.
         23    2    4    4    0    0 -0.43801389845E+03 -0.25268577641E+03 -0.38784807988E+02  0.51628438850E+03  0.96638665377E+02 0.  0.
         23    2    4    4    0    0  0.12059728298E+03  0.42891914064E+03  0.34187267767E+02  0.45617356396E+03  0.91707236934E+02 0.  0.
          4    1    3    3  502    0  0.19065476741E+02 -0.33449787905E+02  0.42101777710E+02  0.57052084981E+02  0.00000000000E+00 0. -1.
         -3    1    3    3    0  502  0.29835113873E+03 -0.14278357633E+03  0.11646788474E+03  0.35066411254E+03  0.00000000000E+00 0.  1.
         13    1    5    5    0    0 -0.72062106602E+02 -0.40693774344E+01 -0.47143338419E-01  0.72176930269E+02  0.00000000000E+00 0.  1.
        -13    1    5    5    0    0 -0.36595179184E+03 -0.24861639897E+03 -0.38737664650E+02  0.44410745823E+03  0.00000000000E+00 0. -1.
          1    1    6    6  503    0  0.13525515406E+03  0.38489702110E+03  0.37295032908E+02  0.40967132318E+03  0.00000000000E+00 0. -1.
         -1    1    6    6    0  503 -0.14657871085E+02  0.44022119537E+02 -0.31077651414E+01  0.46502240779E+02  0.00000000000E+00 0.  1.
<mgrwt>
<rscale>  0 0.13715587E+04</rscale>
<asrwt>0</asrwt>
<pdfrwt beam="1">  1        2 0.94323233E-01 0.13715587E+04</pdfrwt>
<pdfrwt beam="2">  1       -1 0.11801125E+00 0.13715587E+04</pdfrwt>
<totfact> 0.34734842E+01</totfact>
</mgrwt>
</event>
<event>
12    7  0.1735955E-007  0.2004980E+04  0.7818608E-02  0.8604296E-01
         -1   -1    0    0    0  501 -0.00000000000E+00  0.00000000000E+00  0.48015694946E+03  0.48015694946E+03  0.00000000000E+00 0.  1.
          2   -1    0    0  501    0  0.00000000000E+00 -0.00000000000E+00 -0.20930359189E+04  0.20930359189E+04  0.00000000000E+00 0. -1.
         24    2    1    2    0    0 -0.32358468317E+03 -0.21366811767E+03  0.24910797609E+03  0.46775690997E+03  0.79878854411E+02 0.  0.
        254    2    1    2    0    0  0.32358468317E+03  0.21366811767E+03 -0.18619869455E+04  0.21054359584E+04  0.90305264405E+03 0.  0.
         23    2    4    4    0    0 -0.10875660063E+03  0.34033893666E+03 -0.29424426753E+03  0.47138540483E+03  0.89252007974E+02 0.  0.
         23    2    4    4    0    0  0.43234128380E+03 -0.12667081899E+03 -0.15677426780E+04  0.16340505535E+04  0.96641736032E+02 0.  0.
          2    1    3    3  502    0 -0.50741309759E+02 -0.41458382276E+01  0.21486213663E+02  0.55258717577E+02  0.00000000000E+00 0. -1.
         -1    1    3    3    0  502 -0.27284337341E+03 -0.20952227944E+03  0.22762176242E+03  0.41249819239E+03  0.00000000000E+00 0.  1.
         13    1    5    5    0    0 -0.42359320100E+02  0.16389003020E+03 -0.83928597052E+02  0.18893984070E+03  0.00000000000E+00 0. -1.
        -13    1    5    5    0    0 -0.66397280531E+02  0.17644890646E+03 -0.21031567048E+03  0.28244556414E+03  0.00000000000E+00 0.  1.
          4    1    6    6  503    0  0.15885806237E+03 -0.59709319305E+02 -0.43743593568E+03  0.46920281821E+03  0.00000000000E+00 0.  1.
         -4    1    6    6    0  503  0.27348322143E+03 -0.66961499684E+02 -0.11303067423E+04  0.11648477353E+04  0.00000000000E+00 0. -1.
<mgrwt>
<rscale>  0 0.20049795E+04</rscale>
<asrwt>0</asrwt>
<pdfrwt beam="1">  1        2 0.32200553E+00 0.20049795E+04</pdfrwt>
<pdfrwt beam="2">  1       -1 0.73870300E-01 0.20049795E+04</pdfrwt>
<totfact> 0.11568516E+01</totfact>
</mgrwt>
</event>
<event>
12    7  0.1735955E-007  0.1785193E+04  0.7818608E-02  0.8714213E-01
         -1   -1    0    0    0  501 -0.00000000000E+00  0.00000000000E+00  0.46089549023E+03  0.46089549023E+03  0.00000000000E+00 0.  1.
          2   -1    0    0  501    0  0.00000000000E+00 -0.00000000000E+00 -0.17286537305E+04  0.17286537305E+04  0.00000000000E+00 0. -1.
         24    2    1    2    0    0 -0.43116497501E+03  0.33549708001E+03 -0.93097848841E+03  0.10827965949E+04  0.85240797690E+02 0.  0.
        254    2    1    2    0    0  0.43116497501E+03 -0.33549708001E+03 -0.33677975186E+03  0.11067526259E+04  0.90167579940E+03 0.  0.
         23    2    4    4    0    0 -0.16591754618E+03  0.11147465858E+03 -0.27631580800E+03  0.35287164191E+03  0.90624159452E+02 0.  0.
         23    2    4    4    0    0  0.59708252120E+03 -0.44697173859E+03 -0.60463943859E+02  0.75388098395E+03  0.91593543685E+02 0.  0.
          2    1    3    3  502    0 -0.34853510291E+03  0.30269048004E+03 -0.74071864768E+03  0.87278998601E+03  0.00000000000E+00 0. -1.
         -1    1    3    3    0  502 -0.82629872103E+02  0.32806599976E+02 -0.19025984074E+03  0.21000660885E+03  0.00000000000E+00 0.  1.
         13    1    5    5    0    0 -0.14077839419E+03  0.12653702734E+03 -0.24925295820E+03  0.31298116993E+03  0.00000000000E+00 0. -1.
        -13    1    5    5    0    0 -0.25139151991E+02 -0.15062368760E+02 -0.27062849802E+02  0.39890471981E+02  0.00000000000E+00 0.  1.
          1    1    6    6  503    0  0.57712942734E+03 -0.42249419122E+03 -0.40236986619E+02  0.71637890296E+03  0.00000000000E+00 0. -1.
         -1    1    6    6    0  503  0.19953093861E+02 -0.24477547369E+02 -0.20226957240E+02  0.37502080995E+02  0.00000000000E+00 0.  1.
<mgrwt>
<rscale>  0 0.17851932E+04</rscale>
<asrwt>0</asrwt>
<pdfrwt beam="1">  1        2 0.26594673E+00 0.17851932E+04</pdfrwt>
<pdfrwt beam="2">  1       -1 0.70906998E-01 0.17851932E+04</pdfrwt>
<totfact> 0.20448472E+01</totfact>
</mgrwt>
</event>
<event>
12    7  0.1735955E-007  0.1649330E+04  0.7818608E-02  0.8790803E-01
          2   -1    0    0  501    0  0.00000000000E+00  0.00000000000E+00  0.94412553287E+03  0.94412553287E+03  0.00000000000E+00 0. -1.
         -1   -1    0    0    0  501 -0.00000000000E+00 -0.00000000000E+00 -0.72031953097E+03  0.72031953097E+03  0.00000000000E+00 0.  1.
         24    2    1    2    0    0  0.35160572759E+03 -0.41727477065E+03  0.25640698833E+03  0.60827207722E+03  0.80657016876E+02 0.  0.
        254    2    1    2    0    0 -0.35160572759E+03  0.41727477065E+03 -0.32600986427E+02  0.10561729866E+04  0.90371108848E+03 0.  0.
         23    2    4    4    0    0  0.54199934798E+02  0.58318224919E+03 -0.10701724396E+03  0.60249521053E+03  0.92242178562E+02 0.  0.
         23    2    4    4    0    0 -0.40580566239E+03 -0.16590747854E+03  0.74416257533E+02  0.45367777608E+03  0.89901157200E+02 0.  0.
          2    1    3    3  502    0  0.22707386177E+03 -0.28738157812E+03  0.13121259223E+03  0.38905970558E+03  0.00000000000E+00 0. -1.
         -1    1    3    3    0  502  0.12453186582E+03 -0.12989319253E+03  0.12519439609E+03  0.21921237165E+03  0.00000000000E+00 0.  1.
         13    1    5    5    0    0 -0.25000324210E+02  0.13804296789E+03 -0.14911871503E+02  0.14107884713E+03  0.00000000000E+00 0.  1.
        -13    1    5    5    0    0  0.79200259008E+02  0.44513928130E+03 -0.92105372457E+02  0.46141636340E+03  0.00000000000E+00 0. -1.
          1    1    6    6  503    0 -0.35777562992E+03 -0.11971242292E+03  0.42095470795E+02  0.37961361175E+03  0.00000000000E+00 0. -1.
         -1    1    6    6    0  503 -0.48030032468E+02 -0.46195055625E+02  0.32320786738E+02  0.74064164334E+02  0.00000000000E+00 0.  1.
<mgrwt>
<rscale>  0 0.16493296E+04</rscale>
<asrwt>0</asrwt>
<pdfrwt beam="1">  1        2 0.14525008E+00 0.16493296E+04</pdfrwt>
<pdfrwt beam="2">  1       -1 0.11081839E+00 0.16493296E+04</pdfrwt>
<totfact> 0.22397982E+01</totfact>
</mgrwt>
</event>
<event>
12    7  0.1735955E-007  0.2024731E+04  0.7818608E-02  0.8595145E-01
         -1   -1    0    0    0  501 -0.00000000000E+00  0.00000000000E+00  0.63473694275E+03  0.63473694275E+03  0.00000000000E+00 0.  1.
          2   -1    0    0  501    0  0.00000000000E+00 -0.00000000000E+00 -0.16146594758E+04  0.16146594758E+04  0.00000000000E+00 0. -1.
         24    2    1    2    0    0  0.30442593846E+03 -0.67081497942E+03 -0.14283182451E+02  0.74044987664E+03  0.73444686001E+02 0.  0.
        254    2    1    2    0    0 -0.30442593846E+03  0.67081497942E+03 -0.96563935062E+03  0.15089465419E+04  0.89542862492E+03 0.  0.
         23    2    4    4    0    0  0.24053000129E+03  0.35345885333E+03 -0.12761767938E+03  0.45566109599E+03  0.92481997129E+02 0.  0.
         23    2    4    4    0    0 -0.54495593975E+03  0.31735612609E+03 -0.83802167124E+03  0.10532854459E+04  0.97149483406E+02 0.  0.
          4    1    3    3  502    0  0.49094165394E+02 -0.18497009637E+03  0.12110205599E+01  0.19137826469E+03  0.00000000000E+00 0. -1.
         -3    1    3    3    0  502  0.25533177307E+03 -0.48584488305E+03 -0.15494203011E+02  0.54907161195E+03  0.00000000000E+00 0.  1.
         13    1    5    5    0    0  0.32298034924E+01  0.47903495868E+02  0.82063469607E+00  0.48019266844E+02  0.00000000000E+00 0. -1.
        -13    1    5    5    0    0  0.23730019780E+03  0.30555535746E+03 -0.12843831408E+03  0.40764182915E+03  0.00000000000E+00 0.  1.
          4    1    6    6  503    0 -0.28171249368E+03  0.11584629091E+03 -0.44248228405E+03  0.53718978389E+03  0.00000000000E+00 0. -1.
         -4    1    6    6    0  503 -0.26324344607E+03  0.20150983518E+03 -0.39553938719E+03  0.51609566205E+03  0.00000000000E+00 0.  1.
<mgrwt>
<rscale>  0 0.20247311E+04</rscale>
<asrwt>0</asrwt>
<pdfrwt beam="1">  1        2 0.24840915E+00 0.20247311E+04</pdfrwt>
<pdfrwt beam="2">  1       -1 0.97651838E-01 0.20247311E+04</pdfrwt>
<totfact> 0.11629212E+01</totfact>
</mgrwt>
</event>
<event>
12    7  0.1735955E-007  0.1803952E+04  0.7818608E-02  0.8704201E-01
         -1   -1    0    0    0  501 -0.00000000000E+00  0.00000000000E+00  0.56042542205E+03  0.56042542205E+03  0.00000000000E+00 0.  1.
          2   -1    0    0  501    0  0.00000000000E+00 -0.00000000000E+00 -0.14516844701E+04  0.14516844701E+04  0.00000000000E+00 0. -1.
         24    2    1    2    0    0 -0.42963479882E+03  0.50923854589E+03 -0.50576503935E+03  0.84088534616E+03  0.85906538652E+02 0.  0.
        254    2    1    2    0    0  0.42963479882E+03 -0.50923854589E+03 -0.38549400866E+03  0.11712245460E+04  0.88275214492E+03 0.  0.
         23    2    4    4    0    0  0.64100870753E+03 -0.42250615851E+03 -0.77534365181E+02  0.77696033264E+03  0.90841420140E+02 0.  0.
         23    2    4    4    0    0 -0.21137390871E+03 -0.86732387383E+02 -0.30795964348E+03  0.39426421332E+03  0.91671650929E+02 0.  0.
          4    1    3    3  502    0 -0.39250665949E+03  0.42821128749E+03 -0.45827958327E+03  0.73989631768E+03  0.00000000000E+00 0. -1.
         -3    1    3    3    0  502 -0.37128139330E+02  0.81027258399E+02 -0.47485456076E+02  0.10098902848E+03  0.00000000000E+00 0.  1.
         13    1    5    5    0    0  0.47445662774E+03 -0.27371539457E+03 -0.80330584383E+02  0.55360835580E+03  0.00000000000E+00 0. -1.
        -13    1    5    5    0    0  0.16655207979E+03 -0.14879076394E+03  0.27962192026E+01  0.22335197684E+03  0.00000000000E+00 0.  1.
          1    1    6    6  503    0 -0.13554623669E+03 -0.92067467626E+02 -0.24893787395E+03  0.29802561293E+03  0.00000000000E+00 0. -1.
         -1    1    6    6    0  503 -0.75827672024E+02  0.53350802427E+01 -0.59021769529E+02  0.96238600385E+02  0.00000000000E+00 0.  1.
<mgrwt>
<rscale>  0 0.18039522E+04</rscale>
<asrwt>0</asrwt>
<pdfrwt beam="1">  1        2 0.22333607E+00 0.18039522E+04</pdfrwt>
<pdfrwt beam="2">  1       -1 0.86219296E-01 0.18039522E+04</pdfrwt>
<totfact> 0.19300617E+01</totfact>
</mgrwt>
</event>
<event>
12    7  0.1735955E-007  0.1388743E+04  0.7818608E-02  0.8962007E-01
          2   -1    0    0  501    0  0.00000000000E+00  0.00000000000E+00  0.65056150782E+03  0.65056150782E+03  0.00000000000E+00 0. -1.
         -1   -1    0    0    0  501 -0.00000000000E+00 -0.00000000000E+00 -0.74113196534E+03  0.74113196534E+03  0.00000000000E+00 0.  1.
         24    2    1    2    0    0  0.15447005781E+01  0.30437900896E+03 -0.27945204893E+03  0.42076671768E+03  0.79386496732E+02 0.  0.
        254    2    1    2    0    0 -0.15447005781E+01 -0.30437900896E+03  0.18888159140E+03  0.97092675547E+03  0.90242647442E+03 0.  0.
         23    2    4    4    0    0 -0.10083465622E+03 -0.44611624908E+03  0.44761380335E+03  0.64651320343E+03  0.91836102214E+02 0.  0.
         23    2    4    4    0    0  0.99289955642E+02  0.14173724012E+03 -0.25873221195E+03  0.32441355205E+03  0.91399424101E+02 0.  0.
          2    1    3    3  502    0  0.35599066279E+02  0.14392043050E+03 -0.10754627686E+03  0.18315726986E+03  0.00000000000E+00 0. -1.
         -1    1    3    3    0  502 -0.34054365701E+02  0.16045857846E+03 -0.17190577207E+03  0.23760944783E+03  0.00000000000E+00 0.  1.
         13    1    5    5    0    0 -0.19996174359E+01 -0.26523527315E+02  0.64603246613E+02  0.69864693831E+02  0.00000000000E+00 0. -1.
        -13    1    5    5    0    0 -0.98835038784E+02 -0.41959272176E+03  0.38301055674E+03  0.57664850960E+03  0.00000000000E+00 0.  1.
          1    1    6    6  503    0  0.87394631185E+02  0.45513473281E+02 -0.12278279091E+03  0.15743224433E+03  0.00000000000E+00 0. -1.
         -1    1    6    6    0  503  0.11895324457E+02  0.96223766835E+02 -0.13594942104E+03  0.16698130772E+03  0.00000000000E+00 0.  1.
<mgrwt>
<rscale>  0 0.13887432E+04</rscale>
<asrwt>0</asrwt>
<pdfrwt beam="1">  1        2 0.10008639E+00 0.13887432E+04</pdfrwt>
<pdfrwt beam="2">  1       -1 0.11402030E+00 0.13887432E+04</pdfrwt>
<totfact> 0.35035384E+01</totfact>
</mgrwt>
</event>
<event>
12    7  0.1735955E-007  0.2039059E+04  0.7818608E-02  0.8588574E-01
          2   -1    0    0  501    0  0.00000000000E+00  0.00000000000E+00  0.12485883977E+04  0.12485883977E+04  0.00000000000E+00 0. -1.
         -1   -1    0    0    0  501 -0.00000000000E+00 -0.00000000000E+00 -0.83249266926E+03  0.83249266926E+03  0.00000000000E+00 0.  1.
         24    2    1    2    0    0 -0.27903090740E+03 -0.55748927104E+03  0.71114661640E+03  0.94867653051E+03  0.74867315344E+02 0.  0.
        254    2    1    2    0    0  0.27903090740E+03  0.55748927104E+03 -0.29505088796E+03  0.11324045365E+04  0.89812720319E+03 0.  0.
         23    2    4    4    0    0  0.24356151891E+03 -0.15520422526E+03 -0.28110304092E+03  0.41288942105E+03  0.89711701375E+02 0.  0.
         23    2    4    4    0    0  0.35469388485E+02  0.71269349630E+03 -0.13947847037E+02  0.71951511541E+03  0.91199570593E+02 0.  0.
          4    1    3    3  502    0 -0.12957935009E+03 -0.20296898346E+03  0.23438228124E+03  0.33603908996E+03  0.00000000000E+00 0. -1.
         -3    1    3    3    0  502 -0.14945155731E+03 -0.35452028758E+03  0.47676433516E+03  0.61263744055E+03  0.00000000000E+00 0.  1.
         13    1    5    5    0    0  0.10479978039E+03 -0.10443604073E+03 -0.18389257337E+03  0.23602194625E+03  0.00000000000E+00 0.  1.
        -13    1    5    5    0    0  0.13876173853E+03 -0.50768184536E+02 -0.97210467559E+02  0.17686747480E+03  0.00000000000E+00 0. -1.
          3    1    6    6  503    0 -0.12874491128E+02  0.49907849829E+03 -0.28154051042E+02  0.50003774915E+03  0.00000000000E+00 0. -1.
         -3    1    6    6    0  503  0.48343879613E+02  0.21361499801E+03  0.14206204005E+02  0.21947736626E+03  0.00000000000E+00 0.  1.
<mgrwt>
<rscale>  0 0.20390593E+04</rscale>
<asrwt>0</asrwt>
<pdfrwt beam="1">  1        2 0.19209052E+00 0.20390593E+04</pdfrwt>
<pdfrwt beam="2">  1       -1 0.12807580E+00 0.20390593E+04</pdfrwt>
<totfact> 0.98532973E+00</totfact>
</mgrwt>
</event>
<event>
12    7  0.1735955E-007  0.1868935E+04  0.7818608E-02  0.8670476E-01
          2   -1    0    0  501    0  0.00000000000E+00  0.00000000000E+00  0.12529493159E+04  0.12529493159E+04  0.00000000000E+00 0. -1.
         -1   -1    0    0    0  501 -0.00000000000E+00 -0.00000000000E+00 -0.69693901121E+03  0.69693901121E+03  0.00000000000E+00 0.  1.
         24    2    1    2    0    0 -0.53111779903E+03 -0.56533376323E+03  0.10211354938E+03  0.78661301544E+03  0.81513672521E+02 0.  0.
        254    2    1    2    0    0  0.53111779903E+03  0.56533376323E+03  0.45389675537E+03  0.11632753117E+04  0.73857890981E+03 0.  0.
         23    2    4    4    0    0 -0.78494308729E+02 -0.72322757792E+02 -0.42122953281E+02  0.14694567107E+03  0.91797327062E+02 0.  0.
         23    2    4    4    0    0  0.60961210775E+03  0.63765652102E+03  0.49601970865E+03  0.10163296406E+04  0.93046366735E+02 0.  0.
          2    1    3    3  502    0 -0.23098544970E+02 -0.27438010437E+02  0.22797712390E+02  0.42498504523E+02  0.00000000000E+00 0. -1.
         -1    1    3    3    0  502 -0.50801925406E+03 -0.53789575279E+03  0.79315836986E+02  0.74411451092E+03  0.00000000000E+00 0.  1.
         13    1    5    5    0    0 -0.82488352113E+02 -0.59938698109E+02  0.92947807626E+00  0.10196979795E+03  0.00000000000E+00 0. -1.
        -13    1    5    5    0    0  0.39940433840E+01 -0.12384059683E+02 -0.43052431358E+02  0.44975873117E+02  0.00000000000E+00 0.  1.
          2    1    6    6  503    0  0.33544139381E+03  0.38593975137E+03  0.24203376063E+03  0.56573029056E+03  0.00000000000E+00 0. -1.
         -2    1    6    6    0  503  0.27417071394E+03  0.25171676965E+03  0.25398594802E+03  0.45059935008E+03  0.00000000000E+00 0.  1.
<mgrwt>
<rscale>  0 0.18689347E+04</rscale>
<asrwt>0</asrwt>
<pdfrwt beam="1">  1        2 0.19276143E+00 0.18689347E+04</pdfrwt>
<pdfrwt beam="2">  1       -1 0.10722139E+00 0.18689347E+04</pdfrwt>
<totfact> 0.15287910E+01</totfact>
</mgrwt>
</event>
<event>
12    7  0.1735955E-007  0.1588317E+04  0.7818608E-02  0.8827758E-01
         -1   -1    0    0    0  501 -0.00000000000E+00  0.00000000000E+00  0.69227872167E+03  0.69227872167E+03  0.00000000000E+00 0.  1.
          2   -1    0    0  501    0  0.00000000000E+00 -0.00000000000E+00 -0.91103095106E+03  0.91103095106E+03  0.00000000000E+00 0. -1.
         24    2    1    2    0    0 -0.42505858062E+02 -0.30506577353E+03 -0.52601855465E+03  0.61843918771E+03  0.10440131657E+03 0.  0.
        254    2    1    2    0    0  0.42505858062E+02  0.30506577353E+03  0.30726632526E+03  0.98487048502E+03  0.88356403474E+03 0.  0.
         23    2    4    4    0    0 -0.39867327635E+03  0.20484836559E+03  0.60397774867E+02  0.46153933945E+03  0.92018674720E+02 0.  0.
         23    2    4    4    0    0  0.44117913441E+03  0.10021740795E+03  0.24686855040E+03  0.52333114557E+03  0.90823175770E+02 0.  0.
          4    1    3    3  502    0 -0.60794713586E+02 -0.29882167405E+03 -0.50464355890E+03  0.58962319461E+03  0.00000000000E+00 0. -1.
         -3    1    3    3    0  502  0.18288855523E+02 -0.62440994814E+01 -0.21374995751E+02  0.28815993095E+02  0.00000000000E+00 0.  1.
         13    1    5    5    0    0 -0.36801448783E+03  0.15877844155E+03  0.40992085939E+02  0.40289652253E+03  0.00000000000E+00 0.  1.
        -13    1    5    5    0    0 -0.30658788513E+02  0.46069924040E+02  0.19405688928E+02  0.58642816925E+02  0.00000000000E+00 0. -1.
          4    1    6    6  503    0  0.27382226674E+03  0.34470827187E+02  0.18878281849E+03  0.33437377924E+03  0.00000000000E+00 0. -1.
         -4    1    6    6    0  503  0.16735686767E+03  0.65746580760E+02  0.58085731904E+02  0.18895736633E+03  0.00000000000E+00 0.  1.
<mgrwt>
<rscale>  0 0.15883165E+04</rscale>
<asrwt>0</asrwt>
<pdfrwt beam="1">  1        2 0.14015861E+00 0.15883165E+04</pdfrwt>
<pdfrwt beam="2">  1       -1 0.10650442E+00 0.15883165E+04</pdfrwt>
<totfact> 0.26005782E+01</totfact>
</mgrwt>
</event>
<event>
12    7  0.1735955E-007  0.1500367E+04  0.7818608E-02  0.8884209E-01
         -1   -1    0    0    0  501 -0.00000000000E+00  0.00000000000E+00  0.31087863545E+03  0.31087863545E+03  0.00000000000E+00 0.  1.
          2   -1    0    0  501    0  0.00000000000E+00 -0.00000000000E+00 -0.18102732706E+04  0.18102732706E+04  0.00000000000E+00 0. -1.
         24    2    1    2    0    0  0.26125179746E+03 -0.37991829668E+03 -0.29859317619E+03  0.55554502713E+03  0.82957690872E+02 0.  0.
        254    2    1    2    0    0 -0.26125179746E+03  0.37991829668E+03 -0.12008014590E+04  0.15656068789E+04  0.89253030292E+03 0.  0.
         23    2    4    4    0    0 -0.13306032521E+02  0.52438021659E+03 -0.28897725890E+03  0.60569524342E+03  0.90593651432E+02 0.  0.
         23    2    4    4    0    0 -0.24794576494E+03 -0.14446191991E+03 -0.91182420006E+03  0.95991163550E+03  0.87525010685E+02 0.  0.
          4    1    3    3  502    0  0.61484816118E+02 -0.10181336148E+03 -0.36748721357E+02  0.12448619084E+03  0.00000000000E+00 0. -1.
         -3    1    3    3    0  502  0.19976698135E+03 -0.27810493520E+03 -0.26184445483E+03  0.43105883630E+03  0.00000000000E+00 0.  1.
         13    1    5    5    0    0 -0.18768828486E+02  0.52580242166E+03 -0.28278880019E+03  0.59731897765E+03  0.00000000000E+00 0.  1.
        -13    1    5    5    0    0  0.54627959650E+01 -0.14222050665E+01 -0.61884587104E+01  0.83762657680E+01  0.00000000000E+00 0. -1.
          1    1    6    6  503    0 -0.16388556655E+03 -0.53343287188E+02 -0.60261248908E+03  0.62677411976E+03  0.00000000000E+00 0. -1.
         -1    1    6    6    0  503 -0.84060198393E+02 -0.91118632722E+02 -0.30921171098E+03  0.33313751573E+03  0.00000000000E+00 0.  1.
<mgrwt>
<rscale>  0 0.15003670E+04</rscale>
<asrwt>0</asrwt>
<pdfrwt beam="1">  1        2 0.27850357E+00 0.15003670E+04</pdfrwt>
<pdfrwt beam="2">  1       -1 0.47827483E-01 0.15003670E+04</pdfrwt>
<totfact> 0.40935879E+01</totfact>
</mgrwt>
</event>
<event>
12    7  0.1735955E-007  0.1322594E+04  0.7818608E-02  0.9011837E-01
         -1   -1    0    0    0  501 -0.00000000000E+00  0.00000000000E+00  0.11577034521E+03  0.11577034521E+03  0.00000000000E+00 0.  1.
          2   -1    0    0  501    0  0.00000000000E+00 -0.00000000000E+00 -0.37774266267E+04  0.37774266267E+04  0.00000000000E+00 0. -1.
         24    2    1    2    0    0  0.31850930506E+03  0.57840291562E+02 -0.65772122062E+03  0.73737612518E+03  0.79578069857E+02 0.  0.
        254    2    1    2    0    0 -0.31850930506E+03 -0.57840291562E+02 -0.30039350608E+04  0.31558208467E+04  0.91147445932E+03 0.  0.
         23    2    4    4    0    0 -0.13441693087E+03 -0.13789240505E+03 -0.85780003268E+02  0.22941750391E+03  0.90509421971E+02 0.  0.
         23    2    4    4    0    0 -0.18409237419E+03  0.80052113488E+02 -0.29181550576E+04  0.29264033428E+04  0.88933916771E+02 0.  0.
          4    1    3    3  502    0  0.18047414398E+03  0.16970665189E+02 -0.28436446262E+03  0.33722702698E+03  0.00000000000E+00 0. -1.
         -3    1    3    3    0  502  0.13803516108E+03  0.40869626373E+02 -0.37335675799E+03  0.40014909820E+03  0.00000000000E+00 0.  1.
         13    1    5    5    0    0 -0.12293820524E+03 -0.88571299586E+02 -0.30706017658E+02  0.15460121907E+03  0.00000000000E+00 0.  1.
        -13    1    5    5    0    0 -0.11478725629E+02 -0.49321105464E+02 -0.55073985609E+02  0.74816284839E+02  0.00000000000E+00 0. -1.
          3    1    6    6  503    0  0.52541474927E+01  0.12754775685E+02 -0.83254686059E+02  0.84389769045E+02  0.00000000000E+00 0. -1.
         -3    1    6    6    0  503 -0.18934652168E+03  0.67297337802E+02 -0.28349003715E+04  0.28420135737E+04  0.00000000000E+00 0.  1.
<mgrwt>
<rscale>  0 0.13225944E+04</rscale>
<asrwt>0</asrwt>
<pdfrwt beam="1">  1        2 0.58114265E+00 0.13225944E+04</pdfrwt>
<pdfrwt beam="2">  1       -1 0.17810820E-01 0.13225944E+04</pdfrwt>
<totfact> 0.14506545E+01</totfact>
</mgrwt>
</event>
<event>
12    7  0.1735955E-007  0.1921795E+04  0.7818608E-02  0.8644083E-01
         -1   -1    0    0    0  501 -0.00000000000E+00  0.00000000000E+00  0.78462909140E+03  0.78462909140E+03  0.00000000000E+00 0.  1.
          2   -1    0    0  501    0  0.00000000000E+00 -0.00000000000E+00 -0.11767643883E+04  0.11767643883E+04  0.00000000000E+00 0. -1.
         24    2    1    2    0    0 -0.71198580762E+03  0.23109800860E+03 -0.12275879098E+03  0.76273728039E+03  0.79801994385E+02 0.  0.
        254    2    1    2    0    0  0.71198580762E+03 -0.23109800860E+03 -0.26937650595E+03  0.11986561993E+04  0.89659517200E+03 0.  0.
         23    2    4    4    0    0  0.54977269977E+03 -0.17840072376E+03 -0.58558011613E+03  0.82785019981E+03  0.91405914787E+02 0.  0.
         23    2    4    4    0    0  0.16221310784E+03 -0.52697284834E+02  0.31620361019E+03  0.37080599954E+03  0.91772926367E+02 0.  0.
          2    1    3    3  502    0 -0.60706876686E+03  0.22256491283E+03 -0.11876216144E+03  0.65739796099E+03  0.00000000000E+00 0. -1.
         -1    1    3    3    0  502 -0.10491704076E+03  0.85330957650E+01 -0.39966295459E+01  0.10533931940E+03  0.00000000000E+00 0.  1.
         13    1    5    5    0    0  0.48607016013E+03 -0.13327312509E+03 -0.47560488189E+03  0.69298335486E+03  0.00000000000E+00 0.  1.
        -13    1    5    5    0    0  0.63702539648E+02 -0.45127598675E+02 -0.10997523424E+03  0.13486684495E+03  0.00000000000E+00 0. -1.
          2    1    6    6  503    0  0.62218260126E+02  0.15309847849E+02  0.61314126747E+02  0.88684415051E+02  0.00000000000E+00 0. -1.
         -2    1    6    6    0  503  0.99994847719E+02 -0.68007132683E+02  0.25488948344E+03  0.28212158449E+03  0.00000000000E+00 0.  1.
<mgrwt>
<rscale>  0 0.19217945E+04</rscale>
<asrwt>0</asrwt>
<pdfrwt beam="1">  1        2 0.18104067E+00 0.19217945E+04</pdfrwt>
<pdfrwt beam="2">  1       -1 0.12071217E+00 0.19217945E+04</pdfrwt>
<totfact> 0.12723833E+01</totfact>
</mgrwt>
</event>
<event>
12    7  0.1735955E-007  0.3081332E+04  0.7818608E-02  0.8220880E-01
         -1   -1    0    0    0  501 -0.00000000000E+00  0.00000000000E+00  0.80970308475E+03  0.80970308475E+03  0.00000000000E+00 0.  1.
          2   -1    0    0  501    0  0.00000000000E+00 -0.00000000000E+00 -0.29315082742E+04  0.29315082742E+04  0.00000000000E+00 0. -1.
         24    2    1    2    0    0  0.34905823623E+03 -0.95145073313E+03 -0.21561696009E+04  0.23847913459E+04  0.10517730793E+03 0.  0.
        254    2    1    2    0    0 -0.34905823623E+03  0.95145073313E+03  0.34364411430E+02  0.13564200130E+04  0.90088522522E+03 0.  0.
         23    2    4    4    0    0 -0.50446923706E+02  0.32392147431E+03  0.43274276114E+03  0.55045863017E+03  0.90930702121E+02 0.  0.
         23    2    4    4    0    0 -0.29861131252E+03  0.62752925882E+03 -0.39837834971E+03  0.80596138282E+03  0.88919932694E+02 0.  0.
          2    1    3    3  502    0  0.34617793085E+03 -0.94320698342E+03 -0.21522539760E+04  0.23752212004E+04  0.00000000000E+00 0. -1.
         -1    1    3    3    0  502  0.28803053819E+01 -0.82437497095E+01 -0.39156248535E+01  0.95701455767E+01  0.00000000000E+00 0.  1.
         13    1    5    5    0    0 -0.55436235255E+02  0.26672291926E+03  0.40119936041E+03  0.48494867629E+03  0.00000000000E+00 0. -1.
        -13    1    5    5    0    0  0.49893115489E+01  0.57198555041E+02  0.31543400724E+02  0.65509953883E+02  0.00000000000E+00 0.  1.
          4    1    6    6  503    0 -0.29508652181E+03  0.56007230739E+03 -0.35828793165E+03  0.72741136012E+03  0.00000000000E+00 0. -1.
         -4    1    6    6    0  503 -0.35247907106E+01  0.67456951431E+02 -0.40090418058E+02  0.78550022698E+02  0.00000000000E+00 0.  1.
<mgrwt>
<rscale>  0 0.30813317E+04</rscale>
<asrwt>0</asrwt>
<pdfrwt beam="1">  1        2 0.45100127E+00 0.30813317E+04</pdfrwt>
<pdfrwt beam="2">  1       -1 0.12456971E+00 0.30813317E+04</pdfrwt>
<totfact> 0.10468861E+00</totfact>
</mgrwt>
</event>
<event>
12    7  0.1735955E-007  0.2280803E+04  0.7818608E-02  0.8485529E-01
         -1   -1    0    0    0  501 -0.00000000000E+00  0.00000000000E+00  0.62284164419E+03  0.62284164419E+03  0.00000000000E+00 0.  1.
          2   -1    0    0  501    0  0.00000000000E+00 -0.00000000000E+00 -0.20880353160E+04  0.20880353160E+04  0.00000000000E+00 0. -1.
         24    2    1    2    0    0  0.67042427625E+01  0.95168101380E+03 -0.43587086548E+03  0.10500395821E+04  0.82813125695E+02 0.  0.
        254    2    1    2    0    0 -0.67042427625E+01 -0.95168101380E+03 -0.10293228063E+04  0.16608373780E+04  0.89058051725E+03 0.  0.
         23    2    4    4    0    0  0.26531015227E+03 -0.36939044611E+03 -0.87934158614E+03  0.99410241188E+03  0.90328299108E+02 0.  0.
         23    2    4    4    0    0 -0.27201439503E+03 -0.58229056769E+03 -0.14998122015E+03  0.66673496612E+03  0.94799854022E+02 0.  0.
          4    1    3    3  502    0 -0.52287635603E+01  0.44073490305E+03 -0.24640672818E+03  0.50496620722E+03  0.00000000000E+00 0. -1.
         -3    1    3    3    0  502  0.11933006323E+02  0.51094611075E+03 -0.18946413730E+03  0.54507337492E+03  0.00000000000E+00 0.  1.
         13    1    5    5    0    0  0.15349484757E+02 -0.79185727885E+02 -0.15108294562E+03  0.17126599966E+03  0.00000000000E+00 0. -1.
        -13    1    5    5    0    0  0.24996066751E+03 -0.29020471822E+03 -0.72825864052E+03  0.82283641222E+03  0.00000000000E+00 0.  1.
          1    1    6    6  503    0 -0.57536546063E+02 -0.16403950101E+03 -0.80568778102E+02  0.19160046980E+03  0.00000000000E+00 0. -1.
         -1    1    6    6    0  503 -0.21447784897E+03 -0.41825106668E+03 -0.69412442051E+02  0.47513449632E+03  0.00000000000E+00 0.  1.
<mgrwt>
<rscale>  0 0.22808028E+04</rscale>
<asrwt>0</asrwt>
<pdfrwt beam="1">  1        2 0.32123620E+00 0.22808028E+04</pdfrwt>
<pdfrwt beam="2">  1       -1 0.95821792E-01 0.22808028E+04</pdfrwt>
<totfact> 0.64750609E+00</totfact>
</mgrwt>
</event>
<event>
12    7  0.1735955E-007  0.3183653E+04  0.7818608E-02  0.8193148E-01
         -1   -1    0    0    0  501 -0.00000000000E+00  0.00000000000E+00  0.24631103947E+04  0.24631103947E+04  0.00000000000E+00 0.  1.
          2   -1    0    0  501    0  0.00000000000E+00 -0.00000000000E+00 -0.10287443566E+04  0.10287443566E+04  0.00000000000E+00 0. -1.
         24    2    1    2    0    0  0.99307004430E+03 -0.91031293829E+03  0.12978230779E+04  0.18723395519E+04  0.80329928231E+02 0.  0.
        254    2    1    2    0    0 -0.99307004430E+03  0.91031293829E+03  0.13654296015E+03  0.16195151994E+04  0.88844118696E+03 0.  0.
         23    2    4    4    0    0 -0.11039271153E+04  0.57790022078E+03  0.71450057102E+02  0.12514538770E+04  0.91694898034E+02 0.  0.
         23    2    4    4    0    0  0.11085707104E+03  0.33241271751E+03  0.65092903049E+02  0.36806132247E+03  0.91894211513E+02 0.  0.
          2    1    3    3  502    0  0.68330449427E+03 -0.61929718099E+03  0.93884767239E+03  0.13160049324E+04  0.00000000000E+00 0. -1.
         -1    1    3    3    0  502  0.30976555003E+03 -0.29101575730E+03  0.35897540555E+03  0.55633461943E+03  0.00000000000E+00 0.  1.
         13    1    5    5    0    0 -0.13204633898E+02  0.10850309884E+02 -0.93552727443E+01  0.19483652355E+02  0.00000000000E+00 0. -1.
        -13    1    5    5    0    0 -0.10907224814E+04  0.56704991089E+03  0.80805329847E+02  0.12319702246E+04  0.00000000000E+00 0.  1.
          1    1    6    6  503    0  0.13935260199E+02  0.95424208515E+02  0.56725699104E+02  0.11188286726E+03  0.00000000000E+00 0. -1.
         -1    1    6    6    0  503  0.96921810836E+02  0.23698850900E+03  0.83672039450E+01  0.25617845521E+03  0.00000000000E+00 0.  1.
<mgrwt>
<rscale>  0 0.31836526E+04</rscale>
<asrwt>0</asrwt>
<pdfrwt beam="1">  1        2 0.15826836E+00 0.31836526E+04</pdfrwt>
<pdfrwt beam="2">  1       -1 0.37894006E+00 0.31836526E+04</pdfrwt>
<totfact> 0.23060558E-01</totfact>
</mgrwt>
</event>
<event>
12    7  0.1735955E-007  0.2067767E+04  0.7818608E-02  0.8575576E-01
          2   -1    0    0  501    0  0.00000000000E+00  0.00000000000E+00  0.13106420564E+04  0.13106420564E+04  0.00000000000E+00 0. -1.
         -1   -1    0    0    0  501 -0.00000000000E+00 -0.00000000000E+00 -0.81556633944E+03  0.81556633944E+03  0.00000000000E+00 0.  1.
         24    2    1    2    0    0 -0.30858707471E+03 -0.19526776721E+03  0.97285116018E+03  0.10427096095E+04  0.86304497868E+02 0.  0.
        254    2    1    2    0    0  0.30858707471E+03  0.19526776721E+03 -0.47777544318E+03  0.10834987864E+04  0.90130170439E+03 0.  0.
         23    2    4    4    0    0  0.49651151360E+02  0.51276491219E+03 -0.13273054378E+03  0.53995799170E+03  0.92434536512E+02 0.  0.
         23    2    4    4    0    0  0.25893592335E+03 -0.31749714498E+03 -0.34504489940E+03  0.54354079465E+03  0.92349138482E+02 0.  0.
          4    1    3    3  502    0 -0.31190144488E+03 -0.19761578382E+03  0.96953999363E+03  0.10374691844E+04  0.00000000000E+00 0. -1.
         -3    1    3    3    0  502  0.33143701690E+01  0.23480166077E+01  0.33111665471E+01  0.52404251268E+01  0.00000000000E+00 0.  1.
         13    1    5    5    0    0  0.62958413902E+02  0.18709473960E+03 -0.53482607949E+02  0.20452039707E+03  0.00000000000E+00 0.  1.
        -13    1    5    5    0    0 -0.13307262542E+02  0.32567017260E+03 -0.79247935828E+02  0.33543759462E+03  0.00000000000E+00 0. -1.
          1    1    6    6  503    0  0.23171801815E+03 -0.29816032414E+03 -0.34292079503E+03  0.51008576778E+03  0.00000000000E+00 0. -1.
         -1    1    6    6    0  503  0.27217905203E+02 -0.19336820843E+02 -0.21241043699E+01  0.33455026877E+02  0.00000000000E+00 0.  1.
<mgrwt>
<rscale>  0 0.20677674E+04</rscale>
<asrwt>0</asrwt>
<pdfrwt beam="1">  1        2 0.20163724E+00 0.20677674E+04</pdfrwt>
<pdfrwt beam="2">  1       -1 0.12547175E+00 0.20677674E+04</pdfrwt>
<totfact> 0.95157746E+00</totfact>
</mgrwt>
</event>
<event>
12    7  0.1735955E-007  0.1177526E+04  0.7818608E-02  0.9132759E-01
          2   -1    0    0  501    0  0.00000000000E+00  0.00000000000E+00  0.20789202538E+04  0.20789202538E+04  0.00000000000E+00 0. -1.
         -1   -1    0    0    0  501 -0.00000000000E+00 -0.00000000000E+00 -0.16674124274E+03  0.16674124274E+03  0.00000000000E+00 0.  1.
         24    2    1    2    0    0  0.17128037878E+03 -0.25891284942E+02  0.81623474736E+03  0.83712507157E+03  0.67319357182E+02 0.  0.
        254    2    1    2    0    0 -0.17128037878E+03  0.25891284942E+02  0.10959442637E+04  0.14085364249E+04  0.86768295161E+03 0.  0.
         23    2    4    4    0    0 -0.44525150996E+03 -0.21752129042E+03  0.68293078594E+03  0.84890844180E+03  0.93202281465E+02 0.  0.
         23    2    4    4    0    0  0.27397113118E+03  0.24341257537E+03  0.41301347772E+03  0.55962798312E+03  0.91068568433E+02 0.  0.
          4    1    3    3  502    0  0.14846923864E+03 -0.36284633491E+02  0.76461297495E+03  0.77973886072E+03  0.00000000000E+00 0. -1.
         -3    1    3    3    0  502  0.22811140142E+02  0.10393348549E+02  0.51621772411E+02  0.57386210848E+02  0.00000000000E+00 0.  1.
         13    1    5    5    0    0 -0.14687197082E+03 -0.35246647573E+02  0.16175135471E+03  0.22130793643E+03  0.00000000000E+00 0. -1.
        -13    1    5    5    0    0 -0.29837953914E+03 -0.18227464285E+03  0.52117943123E+03  0.62760050537E+03  0.00000000000E+00 0.  1.
          4    1    6    6  503    0  0.14370015508E+02  0.22630854324E+02  0.74961716552E+02  0.79611003395E+02  0.00000000000E+00 0. -1.
         -4    1    6    6    0  503  0.25960111567E+03  0.22078172104E+03  0.33805176116E+03  0.48001697973E+03  0.00000000000E+00 0.  1.
<mgrwt>
<rscale>  0 0.11775258E+04</rscale>
<asrwt>0</asrwt>
<pdfrwt beam="1">  1        2 0.31983387E+00 0.11775258E+04</pdfrwt>
<pdfrwt beam="2">  1       -1 0.25652500E-01 0.11775258E+04</pdfrwt>
<totfact> 0.91259283E+01</totfact>
</mgrwt>
</event>
<event>
12    7  0.1735955E-007  0.3585172E+04  0.7818608E-02  0.8093897E-01
         -1   -1    0    0    0  501 -0.00000000000E+00  0.00000000000E+00  0.12723998028E+04  0.12723998028E+04  0.00000000000E+00 0.  1.
          2   -1    0    0  501    0  0.00000000000E+00 -0.00000000000E+00 -0.25254356891E+04  0.25254356891E+04  0.00000000000E+00 0. -1.
         24    2    1    2    0    0  0.75091110585E+03  0.15241381925E+03  0.99527654341E+03  0.12585236041E+04  0.78795958545E+02 0.  0.
        254    2    1    2    0    0 -0.75091110585E+03 -0.15241381925E+03 -0.22483124297E+04  0.25393118878E+04  0.89782995094E+03 0.  0.
         23    2    4    4    0    0 -0.75372418400E+03 -0.35221387237E+03 -0.21324585095E+04  0.22909059087E+04  0.93358609646E+02 0.  0.
         23    2    4    4    0    0  0.28130781475E+01  0.19980005312E+03 -0.11585392014E+03  0.24840597912E+03  0.91408013962E+02 0.  0.
          2    1    3    3  502    0  0.27087681346E+03  0.36358604156E+02  0.40969821155E+03  0.49249245752E+03  0.00000000000E+00 0. -1.
         -3    1    3    3    0  502  0.48003429240E+03  0.11605521509E+03  0.58557833186E+03  0.76603114661E+03  0.00000000000E+00 0.  1.
         13    1    5    5    0    0 -0.22394208223E+03 -0.15280950720E+03 -0.69364072630E+03  0.74474039697E+03  0.00000000000E+00 0.  1.
        -13    1    5    5    0    0 -0.52978210177E+03 -0.19940436517E+03 -0.14388177832E+04  0.15461655117E+04  0.00000000000E+00 0. -1.
          1    1    6    6  503    0  0.28488997968E+02  0.44101184319E+02  0.23434153195E+00  0.52503260656E+02  0.00000000000E+00 0. -1.
         -1    1    6    6    0  503 -0.25675919820E+02  0.15569886880E+03 -0.11608826167E+03  0.19590271847E+03  0.00000000000E+00 0.  1.
<mgrwt>
<rscale>  0 0.35851716E+04</rscale>
<asrwt>0</asrwt>
<pdfrwt beam="1">  1        2 0.38852856E+00 0.35851716E+04</pdfrwt>
<pdfrwt beam="2">  1       -1 0.19575382E+00 0.35851716E+04</pdfrwt>
<totfact> 0.50245198E-01</totfact>
</mgrwt>
</event>
<event>
12    7  0.1735955E-007  0.2569313E+04  0.7818608E-02  0.8378700E-01
          2   -1    0    0  501    0  0.00000000000E+00  0.00000000000E+00  0.24728470816E+04  0.24728470816E+04  0.00000000000E+00 0. -1.
         -1   -1    0    0    0  501 -0.00000000000E+00 -0.00000000000E+00 -0.66738527146E+03  0.66738527146E+03  0.00000000000E+00 0.  1.
         24    2    1    2    0    0 -0.28296404977E+03  0.29540984266E+02 -0.53802578035E+03  0.61379738423E+03  0.79587469855E+02 0.  0.
        254    2    1    2    0    0  0.28296404977E+03 -0.29540984266E+02  0.23434875905E+04  0.25264349689E+04  0.89999902318E+03 0.  0.
         23    2    4    4    0    0  0.34741786747E+03  0.34409649316E+03  0.17156022471E+04  0.17860845239E+04  0.87779752249E+02 0.  0.
         23    2    4    4    0    0 -0.64453817700E+02 -0.37363747743E+03  0.62788534342E+03  0.74035044499E+03  0.10059581382E+03 0.  0.
          4    1    3    3  502    0 -0.55083939813E+02  0.35893210957E+02 -0.94595920122E+02  0.11519961424E+03  0.00000000000E+00 0. -1.
         -3    1    3    3    0  502 -0.22788010995E+03 -0.63522266905E+01 -0.44342986023E+03  0.49859776999E+03  0.00000000000E+00 0.  1.
         13    1    5    5    0    0  0.13842626541E+03  0.11020173736E+03  0.75986257758E+03  0.78019061176E+03  0.00000000000E+00 0. -1.
        -13    1    5    5    0    0  0.20899160206E+03  0.23389475580E+03  0.95573966954E+03  0.10058939121E+04  0.00000000000E+00 0.  1.
          3    1    6    6  503    0  0.14903891053E+02 -0.15196665947E+02  0.64369066589E+02  0.67797060098E+02  0.00000000000E+00 0. -1.
         -3    1    6    6    0  503 -0.79357708753E+02 -0.35844081148E+03  0.56351627683E+03  0.67255338489E+03  0.00000000000E+00 0.  1.
<mgrwt>
<rscale>  0 0.25693125E+04</rscale>
<asrwt>0</asrwt>
<pdfrwt beam="1">  1        2 0.38043801E+00 0.25693125E+04</pdfrwt>
<pdfrwt beam="2">  1       -1 0.10267466E+00 0.25693125E+04</pdfrwt>
<totfact> 0.32640675E+00</totfact>
</mgrwt>
</event>
<event>
12    7  0.1735955E-007  0.1099745E+04  0.7818608E-02  0.9205440E-01
          2   -1    0    0  501    0  0.00000000000E+00  0.00000000000E+00  0.87251334596E+03  0.87251334596E+03  0.00000000000E+00 0. -1.
         -1   -1    0    0    0  501 -0.00000000000E+00 -0.00000000000E+00 -0.34653887293E+03  0.34653887293E+03  0.00000000000E+00 0.  1.
         24    2    1    2    0    0  0.70766186097E+02 -0.64767373594E+01  0.25852692388E+03  0.28016306040E+03  0.81273420135E+02 0.  0.
        254    2    1    2    0    0 -0.70766186097E+02  0.64767373594E+01  0.26744754915E+03  0.93888915849E+03  0.89718161994E+03 0.  0.
         23    2    4    4    0    0 -0.26558540632E+03  0.80987109468E+02  0.52199771776E+03  0.59793911832E+03  0.89191097778E+02 0.  0.
         23    2    4    4    0    0  0.19481922023E+03 -0.74510372108E+02 -0.25455016861E+03  0.34095004016E+03  0.89133705323E+02 0.  0.
          2    1    3    3  502    0  0.55640790628E+02  0.74215080404E+00  0.25742115219E+03  0.26336685054E+03  0.00000000000E+00 0. -1.
         -1    1    3    3    0  502  0.15125395469E+02 -0.72188881635E+01  0.11057716843E+01  0.16796209853E+02  0.00000000000E+00 0.  1.
         13    1    5    5    0    0 -0.25861311215E+03  0.76466047899E+02  0.52405912922E+03  0.58937744203E+03  0.00000000000E+00 0.  1.
        -13    1    5    5    0    0 -0.69722941709E+01  0.45210615685E+01 -0.20614114591E+01  0.85616762912E+01  0.00000000000E+00 0. -1.
          4    1    6    6  503    0  0.16670530698E+02 -0.11390926640E+02  0.41023433770E+01  0.20603131428E+02  0.00000000000E+00 0. -1.
         -4    1    6    6    0  503  0.17814868953E+03 -0.63119445468E+02 -0.25865251199E+03  0.32034690873E+03  0.00000000000E+00 0.  1.
<mgrwt>
<rscale>  0 0.10997450E+04</rscale>
<asrwt>0</asrwt>
<pdfrwt beam="1">  1        2 0.13423282E+00 0.10997450E+04</pdfrwt>
<pdfrwt beam="2">  1       -1 0.53313673E-01 0.10997450E+04</pdfrwt>
<totfact> 0.12308137E+02</totfact>
</mgrwt>
</event>
<event>
12    7  0.1735955E-007  0.1234735E+04  0.7818608E-02  0.9082985E-01
          2   -1    0    0  501    0  0.00000000000E+00  0.00000000000E+00  0.60814534418E+03  0.60814534418E+03  0.00000000000E+00 0. -1.
         -1   -1    0    0    0  501 -0.00000000000E+00 -0.00000000000E+00 -0.62672908800E+03  0.62672908800E+03  0.00000000000E+00 0.  1.
         24    2    1    2    0    0 -0.12294175480E+03 -0.35928387396E+02 -0.25625593552E+03  0.29772098811E+03  0.81025663688E+02 0.  0.
        254    2    1    2    0    0  0.12294175480E+03  0.35928387396E+02  0.23767219170E+03  0.93715344408E+03  0.89742018194E+03 0.  0.
         23    2    4    4    0    0  0.20244338933E+03  0.39633809228E+03 -0.55170087428E+02  0.45769803385E+03  0.91523452557E+02 0.  0.
         23    2    4    4    0    0 -0.79501634535E+02 -0.36040970488E+03  0.29284227913E+03  0.47945541023E+03  0.88911330466E+02 0.  0.
          4    1    3    3  502    0 -0.31047758186E+02 -0.39983536903E+02 -0.46731219419E+02  0.68894509070E+02  0.00000000000E+00 0. -1.
         -3    1    3    3    0  502 -0.91893996612E+02  0.40551495067E+01 -0.20952471610E+03  0.22882647904E+03  0.00000000000E+00 0.  1.
         13    1    5    5    0    0  0.12778480360E+03  0.16423410929E+03 -0.49107684901E+02  0.21380683666E+03  0.00000000000E+00 0. -1.
        -13    1    5    5    0    0  0.74658585729E+02  0.23210398299E+03 -0.60624025269E+01  0.24389119719E+03  0.00000000000E+00 0.  1.
          4    1    6    6  503    0 -0.88566233008E+02 -0.35974940947E+03  0.28456629280E+03  0.46716334428E+03  0.00000000000E+00 0. -1.
         -4    1    6    6    0  503  0.90645984729E+01 -0.66029541213E+00  0.82759863324E+01  0.12292065948E+02  0.00000000000E+00 0.  1.
<mgrwt>
<rscale>  0 0.12347346E+04</rscale>
<asrwt>0</asrwt>
<pdfrwt beam="1">  1        2 0.93560822E-01 0.12347346E+04</pdfrwt>
<pdfrwt beam="2">  1       -1 0.96419860E-01 0.12347346E+04</pdfrwt>
<totfact> 0.56874840E+01</totfact>
</mgrwt>
</event>
<event>
12    7  0.1735955E-007  0.1096455E+04  0.7818608E-02  0.9208654E-01
         -1   -1    0    0    0  501 -0.00000000000E+00  0.00000000000E+00  0.24695620410E+03  0.24695620410E+03  0.00000000000E+00 0.  1.
          2   -1    0    0  501    0  0.00000000000E+00 -0.00000000000E+00 -0.12170319511E+04  0.12170319511E+04  0.00000000000E+00 0. -1.
         24    2    1    2    0    0 -0.49661042596E+02  0.40118017449E+02  0.38076816119E+02  0.10962949978E+03  0.80579828863E+02 0.  0.
        254    2    1    2    0    0  0.49661042596E+02 -0.40118017449E+02 -0.10081525632E+04  0.13543586555E+04  0.90213086777E+03 0.  0.
         23    2    4    4    0    0 -0.35309563462E+03 -0.19293162367E+03 -0.26433034888E+03  0.48995506061E+03  0.91029058417E+02 0.  0.
         23    2    4    4    0    0  0.40275667722E+03  0.15281360622E+03 -0.74382221429E+03  0.86440359487E+03  0.91417443951E+02 0.  0.
          2    1    3    3  502    0  0.66130343934E+01 -0.11515589952E+02 -0.12330713690E+02  0.18121466164E+02  0.00000000000E+00 0. -1.
         -1    1    3    3    0  502 -0.56274076990E+02  0.51633607400E+02  0.50407529809E+02  0.91508033612E+02  0.00000000000E+00 0.  1.
         13    1    5    5    0    0 -0.32279181102E+03 -0.18411105077E+03 -0.20924301932E+03  0.42646696638E+03  0.00000000000E+00 0. -1.
        -13    1    5    5    0    0 -0.30303823605E+02 -0.88205728963E+01 -0.55087329557E+02  0.63488094230E+02  0.00000000000E+00 0.  1.
          4    1    6    6  503    0  0.34302156989E+02  0.18130608620E+02 -0.13224578607E+03  0.13781982759E+03  0.00000000000E+00 0.  1.
         -4    1    6    6    0  503  0.36845452023E+03  0.13468299760E+03 -0.61157642822E+03  0.72658376728E+03  0.00000000000E+00 0. -1.
<mgrwt>
<rscale>  0 0.10964554E+04</rscale>
<asrwt>0</asrwt>
<pdfrwt beam="1">  1        2 0.18723569E+00 0.10964554E+04</pdfrwt>
<pdfrwt beam="2">  1       -1 0.37993262E-01 0.10964554E+04</pdfrwt>
<totfact> 0.14000335E+02</totfact>
</mgrwt>
</event>
<event>
12    7  0.1735955E-007  0.1649026E+04  0.7818608E-02  0.8790983E-01
         -1   -1    0    0    0  501 -0.00000000000E+00  0.00000000000E+00  0.16613972494E+03  0.16613972494E+03  0.00000000000E+00 0.  1.
          2   -1    0    0  501    0  0.00000000000E+00 -0.00000000000E+00 -0.40918650130E+04  0.40918650130E+04  0.00000000000E+00 0. -1.
         24    2    1    2    0    0  0.10535120708E+02  0.33612871683E+03 -0.26080745874E+04  0.26308999061E+04  0.80546627789E+02 0.  0.
        254    2    1    2    0    0 -0.10535120708E+02 -0.33612871683E+03 -0.13176507007E+04  0.16271048319E+04  0.89340542977E+03 0.  0.
         23    2    4    4    0    0 -0.60708724452E+02 -0.19462603093E+03  0.63883675125E+02  0.23444981704E+03  0.96544039820E+02 0.  0.
         23    2    4    4    0    0  0.50173603744E+02 -0.14150268590E+03 -0.13815343758E+04  0.13926550149E+04  0.91161166350E+02 0.  0.
          4    1    3    3  502    0 -0.21421606055E+02  0.28100447915E+03 -0.20856873285E+04  0.21046410703E+04  0.00000000000E+00 0. -1.
         -3    1    3    3    0  502  0.31956726763E+02  0.55124237680E+02 -0.52238725892E+03  0.52625883579E+03  0.00000000000E+00 0.  1.
         13    1    5    5    0    0 -0.57978455023E+02 -0.20592706084E+03  0.61257190722E+02  0.22253066990E+03  0.00000000000E+00 0. -1.
        -13    1    5    5    0    0 -0.27302694287E+01  0.11301029911E+02  0.26264844027E+01  0.11919147139E+02  0.00000000000E+00 0.  1.
          2    1    6    6  503    0  0.63980034168E+02 -0.10192714743E+03 -0.73713952412E+03  0.74689843096E+03  0.00000000000E+00 0.  1.
         -2    1    6    6    0  503 -0.13806430424E+02 -0.39575538474E+02 -0.64439485169E+03  0.64575658390E+03  0.00000000000E+00 0. -1.
<mgrwt>
<rscale>  0 0.16490256E+04</rscale>
<asrwt>0</asrwt>
<pdfrwt beam="1">  1        2 0.62951764E+00 0.16490256E+04</pdfrwt>
<pdfrwt beam="2">  1       -1 0.25559960E-01 0.16490256E+04</pdfrwt>
<totfact> 0.43029054E+00</totfact>
</mgrwt>
</event>
<event>
12    7  0.2064336E-007  0.1390341E+04  0.7818608E-02  0.8960840E-01
         -1   -1    0    0    0  501 -0.00000000000E+00  0.00000000000E+00  0.67417012554E+03  0.67417012554E+03  0.00000000000E+00 0.  1.
          2   -1    0    0  501    0  0.00000000000E+00 -0.00000000000E+00 -0.71682452973E+03  0.71682452973E+03  0.00000000000E+00 0. -1.
         24    2    1    2    0    0 -0.57708743838E+01  0.34560717878E+03  0.16854075650E+03  0.40024165102E+03  0.11094939202E+03 0.  0.
        254    2    1    2    0    0  0.57708743838E+01 -0.34560717878E+03 -0.21119516069E+03  0.99075300425E+03  0.90416286946E+03 0.  0.
         23    2    4    4    0    0  0.17407908863E+03 -0.21332039455E+03 -0.52486070133E+03  0.59974080943E+03  0.91657857642E+02 0.  0.
         23    2    4    4    0    0 -0.16830821425E+03 -0.13228678423E+03  0.31366554064E+03  0.39101219482E+03  0.93150506414E+02 0.  0.
          2    1    3    3  502    0  0.71778928606E+01  0.11512943859E+02  0.39660235315E+02  0.41916634973E+02  0.00000000000E+00 0. -1.
         -1    1    3    3    0  502 -0.12948767244E+02  0.33409423492E+03  0.12888052118E+03  0.35832501604E+03  0.00000000000E+00 0.  1.
         13    1    5    5    0    0 -0.99442754833E+01 -0.24353136389E+02 -0.52675568787E+02  0.58878514026E+02  0.00000000000E+00 0. -1.
        -13    1    5    5    0    0  0.18402336411E+03 -0.18896725816E+03 -0.47218513255E+03  0.54086229541E+03  0.00000000000E+00 0.  1.
          1    1    6    6  503    0 -0.14584160987E+02 -0.62883401149E+02  0.94970440498E+02  0.11483207069E+03  0.00000000000E+00 0. -1.
         -1    1    6    6    0  503 -0.15372405326E+03 -0.69403383084E+02  0.21869510014E+03  0.27618012412E+03  0.00000000000E+00 0.  1.
<mgrwt>
<rscale>  0 0.13903405E+04</rscale>
<asrwt>0</asrwt>
<pdfrwt beam="1">  1        2 0.11028070E+00 0.13903405E+04</pdfrwt>
<pdfrwt beam="2">  1       -1 0.10371848E+00 0.13903405E+04</pdfrwt>
<totfact> 0.38756769E+01</totfact>
</mgrwt>
</event>
<event>
12    7  0.1735955E-007  0.1709458E+04  0.7818608E-02  0.8755988E-01
          2   -1    0    0  501    0  0.00000000000E+00  0.00000000000E+00  0.13335849722E+04  0.13335849722E+04  0.00000000000E+00 0. -1.
         -1   -1    0    0    0  501 -0.00000000000E+00 -0.00000000000E+00 -0.54781789531E+03  0.54781789531E+03  0.00000000000E+00 0.  1.
         24    2    1    2    0    0  0.11079239996E+02  0.56734417738E+03  0.50230674923E+03  0.76234153854E+03  0.82767058042E+02 0.  0.
        254    2    1    2    0    0 -0.11079239996E+02 -0.56734417738E+03  0.28346032765E+03  0.11190613290E+04  0.92192534158E+03 0.  0.
         23    2    4    4    0    0  0.20333060423E+03 -0.30329675016E+02 -0.24254311216E+03  0.33075320546E+03  0.91144379240E+02 0.  0.
         23    2    4    4    0    0 -0.21440984423E+03 -0.53701450236E+03  0.52600343980E+03  0.78830812349E+03  0.10195058523E+03 0.  0.
          2    1    3    3  502    0  0.31447909848E+02  0.50384215796E+03  0.42215005579E+03  0.65807033118E+03  0.00000000000E+00 0. -1.
         -3    1    3    3    0  502 -0.20368669853E+02  0.63502019419E+02  0.80156693438E+02  0.10427120736E+03  0.00000000000E+00 0.  1.
         13    1    5    5    0    0  0.20636983012E+03 -0.43576012560E+02 -0.23204838494E+03  0.31358225174E+03  0.00000000000E+00 0.  1.
        -13    1    5    5    0    0 -0.30392258907E+01  0.13246337544E+02 -0.10494727214E+02  0.17170953720E+02  0.00000000000E+00 0. -1.
          1    1    6    6  503    0 -0.54361121478E+02 -0.24973704999E+03  0.26791167609E+03  0.37027070078E+03  0.00000000000E+00 0. -1.
         -1    1    6    6    0  503 -0.16004872275E+03 -0.28727745237E+03  0.25809176371E+03  0.41803742271E+03  0.00000000000E+00 0.  1.
<mgrwt>
<rscale>  0 0.17094581E+04</rscale>
<asrwt>0</asrwt>
<pdfrwt beam="1">  1        2 0.20516692E+00 0.17094581E+04</pdfrwt>
<pdfrwt beam="2">  1       -1 0.84279676E-01 0.17094581E+04</pdfrwt>
<totfact> 0.23890080E+01</totfact>
</mgrwt>
</event>
<event>
12    7  0.1735955E-007  0.2674472E+04  0.7818608E-02  0.8343336E-01
         -1   -1    0    0    0  501 -0.00000000000E+00  0.00000000000E+00  0.26135932035E+04  0.26135932035E+04  0.00000000000E+00 0.  1.
          2   -1    0    0  501    0  0.00000000000E+00 -0.00000000000E+00 -0.68419246244E+03  0.68419246244E+03  0.00000000000E+00 0. -1.
         24    2    1    2    0    0 -0.76756452841E+02 -0.33967036723E+03  0.22503349584E+04  0.22785178048E+04  0.79802569291E+02 0.  0.
        254    2    1    2    0    0  0.76756452841E+02  0.33967036723E+03 -0.32093421741E+03  0.10192678611E+04  0.90257447861E+03 0.  0.
         23    2    4    4    0    0 -0.26694256874E+03  0.46421039736E+03 -0.30269012566E+02  0.54385257957E+03  0.90054356687E+02 0.  0.
         23    2    4    4    0    0  0.34369902158E+03 -0.12454003013E+03 -0.29066520484E+03  0.47541528158E+03  0.88849266251E+02 0.  0.
          2    1    3    3  502    0 -0.10731046031E+02  0.26898107565E+00  0.83244561004E+02  0.83933811044E+02  0.00000000000E+00 0. -1.
         -1    1    3    3    0  502 -0.66025406810E+02 -0.33993934830E+03  0.21670903974E+04  0.21945839937E+04  0.00000000000E+00 0.  1.
         13    1    5    5    0    0 -0.25132248021E+03  0.37041314735E+03 -0.18140750178E+02  0.44799327630E+03  0.00000000000E+00 0. -1.
        -13    1    5    5    0    0 -0.15620088527E+02  0.93797250011E+02 -0.12128262388E+02  0.95859303272E+02  0.00000000000E+00 0.  1.
          3    1    6    6  503    0  0.24724049213E+03 -0.53357678916E+02 -0.22607927993E+03  0.33924437160E+03  0.00000000000E+00 0. -1.
         -3    1    6    6    0  503  0.96458529451E+02 -0.71182351216E+02 -0.64585924913E+02  0.13617090998E+03  0.00000000000E+00 0.  1.
<mgrwt>
<rscale>  0 0.26744725E+04</rscale>
<asrwt>0</asrwt>
<pdfrwt beam="1">  1        2 0.10526038E+00 0.26744725E+04</pdfrwt>
<pdfrwt beam="2">  1       -1 0.40209126E+00 0.26744725E+04</pdfrwt>
<totfact> 0.29260615E-01</totfact>
</mgrwt>
</event>
<event>
12    7  0.1735955E-007  0.1753819E+04  0.7818608E-02  0.8731251E-01
          2   -1    0    0  501    0  0.00000000000E+00  0.00000000000E+00  0.49137363692E+03  0.49137363692E+03  0.00000000000E+00 0. -1.
         -1   -1    0    0    0  501 -0.00000000000E+00 -0.00000000000E+00 -0.15649397892E+04  0.15649397892E+04  0.00000000000E+00 0.  1.
         24    2    1    2    0    0 -0.36519181278E+03  0.31193741101E+03 -0.90032992964E+03  0.10235119086E+04  0.79452100429E+02 0.  0.
        254    2    1    2    0    0  0.36519181278E+03 -0.31193741101E+03 -0.17323622262E+03  0.10328015175E+04  0.89777401236E+03 0.  0.
         23    2    4    4    0    0  0.26949594743E+03 -0.49610756423E+03 -0.41142700904E+03  0.70433789332E+03  0.89827074048E+02 0.  0.
         23    2    4    4    0    0  0.95695865356E+02  0.18417015322E+03  0.23819078642E+03  0.32846362421E+03  0.89873008817E+02 0.  0.
          4    1    3    3  502    0 -0.36777469686E+03  0.31393035460E+03 -0.89472250847E+03  0.10170245141E+04  0.00000000000E+00 0. -1.
         -3    1    3    3    0  502  0.25828840817E+01 -0.19929435880E+01 -0.56074211718E+01  0.64873944325E+01  0.00000000000E+00 0.  1.
         13    1    5    5    0    0  0.19908675692E+03 -0.42358855489E+03 -0.31162570480E+03  0.56229296680E+03  0.00000000000E+00 0.  1.
        -13    1    5    5    0    0  0.70409190502E+02 -0.72519009336E+02 -0.99801304234E+02  0.14204492652E+03  0.00000000000E+00 0. -1.
          1    1    6    6  503    0 -0.83297740224E+01  0.51445601460E+02  0.89849917933E+02  0.10387031721E+03  0.00000000000E+00 0. -1.
         -1    1    6    6    0  503  0.10402563938E+03  0.13272455176E+03  0.14834086849E+03  0.22459330700E+03  0.00000000000E+00 0.  1.
<mgrwt>
<rscale>  0 0.17538189E+04</rscale>
<asrwt>0</asrwt>
<pdfrwt beam="1">  1        2 0.75595942E-01 0.17538189E+04</pdfrwt>
<pdfrwt beam="2">  1       -1 0.24075997E+00 0.17538189E+04</pdfrwt>
<totfact> 0.54542750E+00</totfact>
</mgrwt>
</event>
<event>
12    7  0.1735955E-007  0.2283030E+04  0.7818608E-02  0.8484642E-01
          2   -1    0    0  501    0  0.00000000000E+00  0.00000000000E+00  0.24744270663E+04  0.24744270663E+04  0.00000000000E+00 0. -1.
         -1   -1    0    0    0  501 -0.00000000000E+00 -0.00000000000E+00 -0.52660925276E+03  0.52660925276E+03  0.00000000000E+00 0.  1.
         24    2    1    2    0    0  0.39672310715E+03 -0.31888191851E+03 -0.25569400179E+03  0.57517344516E+03  0.79813330802E+02 0.  0.
        254    2    1    2    0    0 -0.39672310715E+03  0.31888191851E+03  0.22035118154E+04  0.24258628739E+04  0.87765110438E+03 0.  0.
         23    2    4    4    0    0 -0.42511974123E+02  0.51511592646E+03  0.75895006266E+03  0.92283600457E+03  0.92029387111E+02 0.  0.
         23    2    4    4    0    0 -0.35421113302E+03 -0.19623400795E+03  0.14445617527E+04  0.15030268694E+04  0.91421004295E+02 0.  0.
          2    1    3    3  502    0  0.18565767106E+02 -0.20698604397E+02 -0.36955224067E+02  0.46247254168E+02  0.00000000000E+00 0. -1.
         -3    1    3    3    0  502  0.37815734004E+03 -0.29818331411E+03 -0.21873877772E+03  0.52892619099E+03  0.00000000000E+00 0.  1.
         13    1    5    5    0    0  0.28856672472E+02  0.12483604612E+03  0.19371448683E+03  0.23225427524E+03  0.00000000000E+00 0. -1.
        -13    1    5    5    0    0 -0.71368646595E+02  0.39027988033E+03  0.56523557583E+03  0.69058172934E+03  0.00000000000E+00 0.  1.
          1    1    6    6  503    0 -0.92004169374E+02 -0.57426651687E+02  0.25660019894E+03  0.27857898270E+03  0.00000000000E+00 0. -1.
         -1    1    6    6    0  503 -0.26220696365E+03 -0.13880735626E+03  0.11879615538E+04  0.12244478867E+04  0.00000000000E+00 0.  1.
<mgrwt>
<rscale>  0 0.22830297E+04</rscale>
<asrwt>0</asrwt>
<pdfrwt beam="1">  1        2 0.38068108E+00 0.22830297E+04</pdfrwt>
<pdfrwt beam="2">  1       -1 0.81016809E-01 0.22830297E+04</pdfrwt>
<totfact> 0.56492182E+00</totfact>
</mgrwt>
</event>
<event>
12    7  0.1735955E-007  0.3517992E+04  0.7818608E-02  0.8109539E-01
         -1   -1    0    0    0  501 -0.00000000000E+00  0.00000000000E+00  0.18209673380E+04  0.18209673380E+04  0.00000000000E+00 0.  1.
          2   -1    0    0  501    0  0.00000000000E+00 -0.00000000000E+00 -0.16991336650E+04  0.16991336650E+04  0.00000000000E+00 0. -1.
         24    2    1    2    0    0  0.52901440707E+02  0.49500141791E+03 -0.15095365394E+04  0.15914936448E+04  0.79539245159E+02 0.  0.
        254    2    1    2    0    0 -0.52901440707E+02 -0.49500141791E+03  0.16313702123E+04  0.19286073582E+04  0.90018476229E+03 0.  0.
         23    2    4    4    0    0 -0.12107145636E+03 -0.21341366025E+03 -0.67441323665E+01  0.26265439044E+03  0.93478112772E+02 0.  0.
         23    2    4    4    0    0  0.68170015657E+02 -0.28158775766E+03  0.16381143447E+04  0.16659529678E+04  0.89676464027E+02 0.  0.
          2    1    3    3  502    0  0.43108495121E+02  0.39920563128E+03 -0.11061140681E+04  0.11767377831E+04  0.00000000000E+00 0. -1.
         -1    1    3    3    0  502  0.97929455859E+01  0.95795786635E+02 -0.40342247123E+03  0.41475586170E+03  0.00000000000E+00 0.  1.
         13    1    5    5    0    0 -0.57161707921E+01 -0.64435015078E+02 -0.32654512517E+02  0.72462838506E+02  0.00000000000E+00 0.  1.
        -13    1    5    5    0    0 -0.11535528557E+03 -0.14897864517E+03  0.25910380150E+02  0.19019155193E+03  0.00000000000E+00 0. -1.
          3    1    6    6  503    0  0.80627829881E+02 -0.14340965319E+03  0.87833268802E+03  0.89360812799E+03  0.00000000000E+00 0. -1.
         -3    1    6    6    0  503 -0.12457814224E+02 -0.13817810448E+03  0.75978165668E+03  0.77234483977E+03  0.00000000000E+00 0.  1.
<mgrwt>
<rscale>  0 0.35179920E+04</rscale>
<asrwt>0</asrwt>
<pdfrwt beam="1">  1        2 0.26140518E+00 0.35179920E+04</pdfrwt>
<pdfrwt beam="2">  1       -1 0.28014882E+00 0.35179920E+04</pdfrwt>
<totfact> 0.40712896E-01</totfact>
</mgrwt>
</event>
<event>
12    7  0.1735955E-007  0.1200857E+04  0.7818608E-02  0.9112107E-01
         -3   -1    0    0    0  501 -0.00000000000E+00  0.00000000000E+00  0.19790821465E+03  0.19790821465E+03  0.00000000000E+00 0.  1.
          2   -1    0    0  501    0  0.00000000000E+00 -0.00000000000E+00 -0.18216228733E+04  0.18216228733E+04  0.00000000000E+00 0. -1.
         24    2    1    2    0    0 -0.12980858195E+03  0.16764732482E+03 -0.12131354159E+03  0.25709532745E+03  0.80156961984E+02 0.  0.
        254    2    1    2    0    0  0.12980858195E+03 -0.16764732482E+03 -0.15024011170E+04  0.17624357605E+04  0.89666872360E+03 0.  0.
         23    2    4    4    0    0  0.42362559035E+03  0.61999536774E+02 -0.11882946102E+04  0.12664546407E+04  0.92524011743E+02 0.  0.
         23    2    4    4    0    0 -0.29381700840E+03 -0.22964686160E+03 -0.31410650680E+03  0.49598111983E+03  0.90929962870E+02 0.  0.
          2    1    3    3  502    0 -0.80403228104E+00  0.50017755941E+01 -0.29794384089E+02  0.30222004404E+02  0.00000000000E+00 0. -1.
         -1    1    3    3    0  502 -0.12900454967E+03  0.16264554923E+03 -0.91519157504E+02  0.22687332305E+03  0.00000000000E+00 0.  1.
         13    1    5    5    0    0  0.14149088200E+03 -0.22841121178E+02 -0.40063798619E+03  0.42550227083E+03  0.00000000000E+00 0. -1.
        -13    1    5    5    0    0  0.28213470835E+03  0.84840657952E+02 -0.78765662406E+03  0.84095236983E+03  0.00000000000E+00 0.  1.
          1    1    6    6  503    0  0.48790543256E+01  0.19841595325E+01 -0.15008825103E+01  0.54767425055E+01  0.00000000000E+00 0. -1.
         -1    1    6    6    0  503 -0.29869606272E+03 -0.23163102113E+03 -0.31260562429E+03  0.49050437732E+03  0.00000000000E+00 0.  1.
<mgrwt>
<rscale>  0 0.12008566E+04</rscale>
<asrwt>0</asrwt>
<pdfrwt beam="1">  1        2 0.28024968E+00 0.12008566E+04</pdfrwt>
<pdfrwt beam="2">  1       -3 0.30447417E-01 0.12008566E+04</pdfrwt>
<totfact> 0.56425656E+01</totfact>
</mgrwt>
</event>
<event>
12    7  0.1735955E-007  0.1515726E+04  0.7818608E-02  0.8874062E-01
         -1   -1    0    0    0  501 -0.00000000000E+00  0.00000000000E+00  0.48552798273E+03  0.48552798273E+03  0.00000000000E+00 0.  1.
          2   -1    0    0  501    0  0.00000000000E+00 -0.00000000000E+00 -0.11829522756E+04  0.11829522756E+04  0.00000000000E+00 0. -1.
         24    2    1    2    0    0  0.10797057957E+03 -0.17389803437E+03 -0.71080043339E+03  0.74390268852E+03  0.79093498296E+02 0.  0.
        254    2    1    2    0    0 -0.10797057957E+03  0.17389803437E+03  0.13376140516E+02  0.92457756982E+03  0.90153568375E+03 0.  0.
         23    2    4    4    0    0 -0.22058762937E+03 -0.30592715872E+03  0.13119913263E+03  0.40974817276E+03  0.91815162157E+02 0.  0.
         23    2    4    4    0    0  0.11261704981E+03  0.47982519309E+03 -0.11782299212E+03  0.51482939706E+03  0.90841811787E+02 0.  0.
          2    1    3    3  502    0  0.91471463087E+02 -0.14993331948E+03 -0.67648609888E+03  0.69891377925E+03  0.00000000000E+00 0. -1.
         -1    1    3    3    0  502  0.16499116480E+02 -0.23964714892E+02 -0.34314334508E+02  0.44988909269E+02  0.00000000000E+00 0.  1.
         13    1    5    5    0    0 -0.21032489658E+03 -0.31172290303E+03  0.13009622290E+03  0.39791048944E+03  0.00000000000E+00 0. -1.
        -13    1    5    5    0    0 -0.10262732791E+02  0.57957443104E+01  0.11029097353E+01  0.11837683318E+02  0.00000000000E+00 0.  1.
          2    1    6    6  503    0  0.72480982286E+02  0.43168535720E+03 -0.93524294089E+02  0.44760756696E+03  0.00000000000E+00 0. -1.
         -2    1    6    6    0  503  0.40136067521E+02  0.48139835891E+02 -0.24298698026E+02  0.67221830096E+02  0.00000000000E+00 0.  1.
<mgrwt>
<rscale>  0 0.15157261E+04</rscale>
<asrwt>0</asrwt>
<pdfrwt beam="1">  1        2 0.18199266E+00 0.15157261E+04</pdfrwt>
<pdfrwt beam="2">  1       -1 0.74696613E-01 0.15157261E+04</pdfrwt>
<totfact> 0.38483807E+01</totfact>
</mgrwt>
</event>
<event>
12    7  0.1735955E-007  0.1423162E+04  0.7818608E-02  0.8937222E-01
          2   -1    0    0  501    0  0.00000000000E+00  0.00000000000E+00  0.18881502621E+04  0.18881502621E+04  0.00000000000E+00 0. -1.
         -1   -1    0    0    0  501 -0.00000000000E+00 -0.00000000000E+00 -0.26817101070E+03  0.26817101070E+03  0.00000000000E+00 0.  1.
         24    2    1    2    0    0 -0.75937059942E+01 -0.32050448398E+03  0.74863736538E+02  0.33872953810E+03  0.79701520130E+02 0.  0.
        254    2    1    2    0    0  0.75937059942E+01  0.32050448398E+03  0.15451155149E+04  0.18175917347E+04  0.90192958215E+03 0.  0.
         23    2    4    4    0    0  0.11840520528E+03  0.43275651855E+03  0.27622310814E+03  0.53577922353E+03  0.97273706194E+02 0.  0.
         23    2    4    4    0    0 -0.11081149929E+03 -0.11225203457E+03  0.12688924068E+04  0.12818125112E+04  0.89864711014E+02 0.  0.
          4    1    3    3  502    0  0.18030538444E+02 -0.24082568573E+02  0.20161079114E+02  0.36215183787E+02  0.00000000000E+00 0. -1.
         -3    1    3    3    0  502 -0.25624244438E+02 -0.29642191541E+03  0.54702657424E+02  0.30251435431E+03  0.00000000000E+00 0.  1.
         13    1    5    5    0    0  0.64641787095E+02  0.13703579407E+03  0.49873151420E+02  0.15951395151E+03  0.00000000000E+00 0.  1.
        -13    1    5    5    0    0  0.53763418185E+02  0.29572072448E+03  0.22634995672E+03  0.37626527202E+03  0.00000000000E+00 0. -1.
          3    1    6    6  503    0 -0.36656842748E+02 -0.10087655184E+02  0.59396258690E+03  0.59517815782E+03  0.00000000000E+00 0. -1.
         -3    1    6    6    0  503 -0.74154656538E+02 -0.10216437939E+03  0.67492981987E+03  0.68663435339E+03  0.00000000000E+00 0.  1.
<mgrwt>
<rscale>  0 0.14231615E+04</rscale>
<asrwt>0</asrwt>
<pdfrwt beam="1">  1        2 0.29048465E+00 0.14231615E+04</pdfrwt>
<pdfrwt beam="2">  1       -1 0.41257080E-01 0.14231615E+04</pdfrwt>
<totfact> 0.49114757E+01</totfact>
</mgrwt>
</event>
<event>
12    7  0.1735955E-007  0.1969751E+04  0.7818608E-02  0.8620895E-01
          2   -1    0    0  501    0  0.00000000000E+00  0.00000000000E+00  0.19873719073E+04  0.19873719073E+04  0.00000000000E+00 0. -1.
         -1   -1    0    0    0  501 -0.00000000000E+00 -0.00000000000E+00 -0.48807159272E+03  0.48807159272E+03  0.00000000000E+00 0.  1.
         24    2    1    2    0    0 -0.15438143792E+03  0.68886094321E+03  0.18725596998E+03  0.73474927639E+03  0.80179008485E+02 0.  0.
        254    2    1    2    0    0  0.15438143792E+03 -0.68886094321E+03  0.13120443446E+04  0.17406942237E+04  0.90010721060E+03 0.  0.
         23    2    4    4    0    0 -0.21760058979E+03 -0.71980292937E+03  0.91837064841E+03  0.11903416195E+04  0.89678590208E+02 0.  0.
         23    2    4    4    0    0  0.37198202770E+03  0.30941986154E+02  0.39367369622E+03  0.55035260413E+03  0.92633548630E+02 0.  0.
          2    1    3    3  502    0 -0.15144395361E+03  0.59899199330E+03  0.18446157603E+03  0.64478892062E+03  0.00000000000E+00 0. -1.
         -1    1    3    3    0  502 -0.29374843044E+01  0.89868949908E+02  0.27943939546E+01  0.89960355764E+02  0.00000000000E+00 0.  1.
         13    1    5    5    0    0 -0.19355636935E+03 -0.69921873828E+03  0.88437058360E+03  0.11438890861E+04  0.00000000000E+00 0. -1.
        -13    1    5    5    0    0 -0.24044220434E+02 -0.20584191083E+02  0.34000064809E+02  0.46452533471E+02  0.00000000000E+00 0.  1.
          1    1    6    6  503    0  0.35654677607E+03  0.16577808666E+02  0.34110721527E+03  0.49371505909E+03  0.00000000000E+00 0. -1.
         -1    1    6    6    0  503  0.15435251633E+02  0.14364177488E+02  0.52566480950E+02  0.56637545033E+02  0.00000000000E+00 0.  1.
<mgrwt>
<rscale>  0 0.19697510E+04</rscale>
<asrwt>0</asrwt>
<pdfrwt beam="1">  1        2 0.30574952E+00 0.19697510E+04</pdfrwt>
<pdfrwt beam="2">  1       -1 0.75087938E-01 0.19697510E+04</pdfrwt>
<totfact> 0.12841682E+01</totfact>
</mgrwt>
</event>
<event>
12    7  0.1735955E-007  0.2098596E+04  0.7818608E-02  0.8561862E-01
         -1   -1    0    0    0  501 -0.00000000000E+00  0.00000000000E+00  0.11173632510E+04  0.11173632510E+04  0.00000000000E+00 0.  1.
          2   -1    0    0  501    0  0.00000000000E+00 -0.00000000000E+00 -0.98537867591E+03  0.98537867591E+03  0.00000000000E+00 0. -1.
         24    2    1    2    0    0  0.53035470083E+03  0.20210328168E+03  0.63793050084E+03  0.85748196250E+03  0.78728311011E+02 0.  0.
        254    2    1    2    0    0 -0.53035470083E+03 -0.20210328168E+03 -0.50594592570E+03  0.12452599645E+04  0.98618925881E+03 0.  0.
         23    2    4    4    0    0  0.12605618378E+03  0.24790907692E+03 -0.29824580862E+03  0.41772661018E+03  0.90531136086E+02 0.  0.
         23    2    4    4    0    0 -0.65641088461E+03 -0.45001235860E+03 -0.20770011707E+03  0.82753335427E+03  0.91026048335E+02 0.  0.
          4    1    3    3  502    0  0.17174421972E+03  0.61705107721E+02  0.15238007861E+03  0.23774626324E+03  0.00000000000E+00 0. -1.
         -3    1    3    3    0  502  0.35861048111E+03  0.14039817396E+03  0.48555042224E+03  0.61973569927E+03  0.00000000000E+00 0.  1.
         13    1    5    5    0    0  0.88191124562E+02  0.10545659034E+03 -0.96889854808E+02  0.16818564405E+03  0.00000000000E+00 0. -1.
        -13    1    5    5    0    0  0.37865059217E+02  0.14245248658E+03 -0.20135595381E+03  0.24954096613E+03  0.00000000000E+00 0.  1.
          4    1    6    6  503    0 -0.64473180386E+03 -0.43136979964E+03 -0.18843138469E+03  0.79828903893E+03  0.00000000000E+00 0. -1.
         -4    1    6    6    0  503 -0.11679080749E+02 -0.18642558963E+02 -0.19268732387E+02  0.29244315339E+02  0.00000000000E+00 0.  1.
<mgrwt>
<rscale>  0 0.20985956E+04</rscale>
<asrwt>0</asrwt>
<pdfrwt beam="1">  1        2 0.15159672E+00 0.20985956E+04</pdfrwt>
<pdfrwt beam="2">  1       -1 0.17190204E+00 0.20985956E+04</pdfrwt>
<totfact> 0.64482960E+00</totfact>
</mgrwt>
</event>
<event>
12    7  0.1735955E-007  0.1794342E+04  0.7818608E-02  0.8709314E-01
         -1   -1    0    0    0  501 -0.00000000000E+00  0.00000000000E+00  0.69172896291E+03  0.69172896291E+03  0.00000000000E+00 0.  1.
          2   -1    0    0  501    0  0.00000000000E+00 -0.00000000000E+00 -0.11636294619E+04  0.11636294619E+04  0.00000000000E+00 0. -1.
         24    2    1    2    0    0  0.21338933021E+03 -0.42269434274E+02  0.47461016583E+03  0.52814591048E+03  0.79759525579E+02 0.  0.
        254    2    1    2    0    0 -0.21338933021E+03  0.42269434274E+02 -0.94651066480E+03  0.13272125143E+04  0.90459322804E+03 0.  0.
         23    2    4    4    0    0 -0.53515864602E+03 -0.22373070974E+02 -0.36942916377E+03  0.65699549767E+03  0.90938694733E+02 0.  0.
         23    2    4    4    0    0  0.32176931581E+03  0.64642505249E+02 -0.57708150102E+03  0.67021701663E+03  0.91943702789E+02 0.  0.
          2    1    3    3  502    0  0.43302257452E+02 -0.42580604735E+02  0.10546946101E+03  0.12170456280E+03  0.00000000000E+00 0. -1.
         -1    1    3    3    0  502  0.17008707276E+03  0.31117046077E+00  0.36914070482E+03  0.40644134768E+03  0.00000000000E+00 0.  1.
         13    1    5    5    0    0 -0.50891577659E+03 -0.17294380982E+02 -0.37129325110E+03  0.63020079466E+03  0.00000000000E+00 0. -1.
        -13    1    5    5    0    0 -0.26242869424E+02 -0.50786899924E+01  0.18640873295E+01  0.26794703007E+02  0.00000000000E+00 0.  1.
          1    1    6    6  503    0  0.27166788684E+03  0.25164858548E+02 -0.42181583073E+03  0.50235973754E+03  0.00000000000E+00 0. -1.
         -1    1    6    6    0  503  0.50101428966E+02  0.39477646701E+02 -0.15526567029E+03  0.16785727909E+03  0.00000000000E+00 0.  1.
<mgrwt>
<rscale>  0 0.17943424E+04</rscale>
<asrwt>0</asrwt>
<pdfrwt beam="1">  1        2 0.17901992E+00 0.17943424E+04</pdfrwt>
<pdfrwt beam="2">  1       -1 0.10641984E+00 0.17943424E+04</pdfrwt>
<totfact> 0.17703324E+01</totfact>
</mgrwt>
</event>
<event>
12    7  0.1735955E-007  0.2023898E+04  0.7818608E-02  0.8595528E-01
          2   -1    0    0  501    0  0.00000000000E+00  0.00000000000E+00  0.85250717942E+03  0.85250717942E+03  0.00000000000E+00 0. -1.
         -1   -1    0    0    0  501 -0.00000000000E+00 -0.00000000000E+00 -0.12012110668E+04  0.12012110668E+04  0.00000000000E+00 0.  1.
         24    2    1    2    0    0  0.12341857770E+03  0.73895378116E+03 -0.45548992074E+03  0.88047229212E+03  0.80470822628E+02 0.  0.
        254    2    1    2    0    0 -0.12341857770E+03 -0.73895378116E+03  0.10678603335E+03  0.11732459541E+04  0.89655896398E+03 0.  0.
         23    2    4    4    0    0 -0.47875902588E+03 -0.60272008815E+03  0.10554496052E+03  0.78216050312E+03  0.90297311272E+02 0.  0.
         23    2    4    4    0    0  0.35534044818E+03 -0.13623369301E+03  0.12410728356E+01  0.39108545099E+03  0.90110135324E+02 0.  0.
          2    1    3    3  502    0  0.45315383979E+02  0.14227170786E+03 -0.63279652413E+02  0.16216977922E+03  0.00000000000E+00 0. -1.
         -1    1    3    3    0  502  0.78103193723E+02  0.59668207329E+03 -0.39221026833E+03  0.71830251290E+03  0.00000000000E+00 0.  1.
         13    1    5    5    0    0 -0.41940682929E+03 -0.47522876875E+03  0.97631151323E+02  0.64130828219E+03  0.00000000000E+00 0. -1.
        -13    1    5    5    0    0 -0.59352196591E+02 -0.12749131940E+03  0.79138091921E+01  0.14085222092E+03  0.00000000000E+00 0.  1.
          1    1    6    6  503    0  0.19009888958E+03 -0.37114713786E+02  0.30864581446E+02  0.19613187448E+03  0.00000000000E+00 0.  1.
         -1    1    6    6    0  503  0.16524155860E+03 -0.99118979222E+02 -0.29623508610E+02  0.19495357651E+03  0.00000000000E+00 0. -1.
<mgrwt>
<rscale>  0 0.20238983E+04</rscale>
<asrwt>0</asrwt>
<pdfrwt beam="1">  1        2 0.13115495E+00 0.20238983E+04</pdfrwt>
<pdfrwt beam="2">  1       -1 0.18480170E+00 0.20238983E+04</pdfrwt>
<totfact> 0.64313306E+00</totfact>
</mgrwt>
</event>
<event>
12    7  0.1735955E-007  0.1697181E+04  0.7818608E-02  0.8762974E-01
         -1   -1    0    0    0  501 -0.00000000000E+00  0.00000000000E+00  0.58460390839E+03  0.58460390839E+03  0.00000000000E+00 0.  1.
          2   -1    0    0  501    0  0.00000000000E+00 -0.00000000000E+00 -0.12317840667E+04  0.12317840667E+04  0.00000000000E+00 0. -1.
         24    2    1    2    0    0  0.16049651712E+03 -0.40129789298E+02 -0.85410291078E+03  0.87377813887E+03  0.81405907507E+02 0.  0.
        254    2    1    2    0    0 -0.16049651712E+03  0.40129789298E+02  0.20692275247E+03  0.94260983622E+03  0.90461414197E+03 0.  0.
         23    2    4    4    0    0 -0.31835304187E+03 -0.83321239362E+02 -0.25727867011E+03  0.42865606089E+03  0.96242486717E+02 0.  0.
         23    2    4    4    0    0  0.15785652475E+03  0.12345102866E+03  0.46420142258E+03  0.51395377533E+03  0.92231684182E+02 0.  0.
          4    1    3    3  502    0  0.15457023362E+03 -0.44880061505E+02 -0.65342203228E+03  0.67295358630E+03  0.00000000000E+00 0. -1.
         -3    1    3    3    0  502  0.59262834945E+01  0.47502722068E+01 -0.20068087849E+03  0.20082455257E+03  0.00000000000E+00 0.  1.
         13    1    5    5    0    0  0.54775617806E+01 -0.89893524397E+01 -0.63369150524E+01  0.12286929345E+02  0.00000000000E+00 0. -1.
        -13    1    5    5    0    0 -0.32383060365E+03 -0.74331886922E+02 -0.25094175506E+03  0.41636913155E+03  0.00000000000E+00 0.  1.
          3    1    6    6  503    0 -0.13320374705E+00 -0.10139360991E+02  0.76282049011E+01  0.12689125051E+02  0.00000000000E+00 0. -1.
         -3    1    6    6    0  503  0.15798972850E+03  0.13359038965E+03  0.45657321768E+03  0.50126465028E+03  0.00000000000E+00 0.  1.
<mgrwt>
<rscale>  0 0.16971809E+04</rscale>
<asrwt>0</asrwt>
<pdfrwt beam="1">  1        2 0.18950524E+00 0.16971809E+04</pdfrwt>
<pdfrwt beam="2">  1       -1 0.89939063E-01 0.16971809E+04</pdfrwt>
<totfact> 0.23806769E+01</totfact>
</mgrwt>
</event>
<event>
12    7  0.1735955E-007  0.2070213E+04  0.7818608E-02  0.8574479E-01
          2   -1    0    0  501    0  0.00000000000E+00  0.00000000000E+00  0.31447996210E+04  0.31447996210E+04  0.00000000000E+00 0. -1.
         -1   -1    0    0    0  501 -0.00000000000E+00 -0.00000000000E+00 -0.34070401304E+03  0.34070401304E+03  0.00000000000E+00 0.  1.
         24    2    1    2    0    0  0.73918034950E+03  0.47882085441E+00  0.46374003854E+03  0.87492816417E+03  0.63691842058E+02 0.  0.
        254    2    1    2    0    0 -0.73918034950E+03 -0.47882085441E+00  0.23403555694E+04  0.26105754699E+04  0.88963603472E+03 0.  0.
         23    2    4    4    0    0 -0.48630388477E+03 -0.34934536566E+03  0.18755674706E+04  0.19709255493E+04  0.90887464195E+02 0.  0.
         23    2    4    4    0    0 -0.25287646473E+03  0.34886654481E+03  0.46478809882E+03  0.63964992061E+03  0.86427262068E+02 0.  0.
          4    1    3    3  502    0  0.16463013291E+01 -0.36434191252E+01  0.48181022643E+01  0.62609041214E+01  0.00000000000E+00 0. -1.
         -3    1    3    3    0  502  0.73753404817E+03  0.41222399796E+01  0.45892193628E+03  0.86866726004E+03  0.00000000000E+00 0.  1.
         13    1    5    5    0    0 -0.45427088227E+03 -0.32817461142E+03  0.18117883930E+04  0.18964803693E+04  0.00000000000E+00 0. -1.
        -13    1    5    5    0    0 -0.32033002493E+02 -0.21170754243E+02  0.63779077586E+02  0.74445179976E+02  0.00000000000E+00 0.  1.
          3    1    6    6  503    0 -0.20290195171E+03  0.31335809189E+03  0.42891033433E+03  0.56861812375E+03  0.00000000000E+00 0. -1.
         -3    1    6    6    0  503 -0.49974513019E+02  0.35508452915E+02  0.35877764488E+02  0.71031796856E+02  0.00000000000E+00 0.  1.
<mgrwt>
<rscale>  0 0.20702134E+04</rscale>
<asrwt>0</asrwt>
<pdfrwt beam="1">  1        2 0.48381531E+00 0.20702134E+04</pdfrwt>
<pdfrwt beam="2">  1       -1 0.52416004E-01 0.20702134E+04</pdfrwt>
<totfact> 0.54439182E+00</totfact>
</mgrwt>
</event>
<event>
12    7  0.1735955E-007  0.1448105E+04  0.7818608E-02  0.8919715E-01
         -1   -1    0    0    0  501 -0.00000000000E+00  0.00000000000E+00  0.22771944303E+03  0.22771944303E+03  0.00000000000E+00 0.  1.
          2   -1    0    0  501    0  0.00000000000E+00 -0.00000000000E+00 -0.23021833643E+04  0.23021833643E+04  0.00000000000E+00 0. -1.
         24    2    1    2    0    0 -0.35897632731E+03 -0.16084544828E+03 -0.10645123581E+04  0.11396818417E+04  0.10465599754E+03 0.  0.
        254    2    1    2    0    0  0.35897632731E+03  0.16084544828E+03 -0.10099515631E+04  0.13902209656E+04  0.87061869474E+03 0.  0.
         23    2    4    4    0    0 -0.68441837978E+02 -0.24788447137E+03 -0.61519317553E+03  0.67342952169E+03  0.94412293323E+02 0.  0.
         23    2    4    4    0    0  0.42741816529E+03  0.40872991965E+03 -0.39475838759E+03  0.71679144395E+03  0.90605487167E+02 0.  0.
          4    1    3    3  502    0 -0.32809023216E+03 -0.16316110961E+03 -0.10303673099E+04  0.10935819775E+04  0.00000000000E+00 0. -1.
         -3    1    3    3    0  502 -0.30886095157E+02  0.23156613298E+01 -0.34145048239E+02  0.46099864216E+02  0.00000000000E+00 0.  1.
         13    1    5    5    0    0 -0.31944049407E+02 -0.24368705682E+02 -0.47409960090E+02  0.62144673342E+02  0.00000000000E+00 0. -1.
        -13    1    5    5    0    0 -0.36497788571E+02 -0.22351576568E+03 -0.56778321544E+03  0.61128484835E+03  0.00000000000E+00 0.  1.
          3    1    6    6  503    0  0.16214961844E+03  0.13553148213E+03 -0.19127285350E+03  0.28503786748E+03  0.00000000000E+00 0. -1.
         -3    1    6    6    0  503  0.26526854685E+03  0.27319843752E+03 -0.20348553409E+03  0.43175357647E+03  0.00000000000E+00 0.  1.
<mgrwt>
<rscale>  0 0.14481048E+04</rscale>
<asrwt>0</asrwt>
<pdfrwt beam="1">  1        2 0.35418204E+00 0.14481048E+04</pdfrwt>
<pdfrwt beam="2">  1       -1 0.35033763E-01 0.14481048E+04</pdfrwt>
<totfact> 0.38757427E+01</totfact>
</mgrwt>
</event>
<event>
12    7  0.1735955E-007  0.1255497E+04  0.7818608E-02  0.9065620E-01
          2   -1    0    0  501    0  0.00000000000E+00  0.00000000000E+00  0.14412452771E+03  0.14412452771E+03  0.00000000000E+00 0. -1.
         -1   -1    0    0    0  501 -0.00000000000E+00 -0.00000000000E+00 -0.27342215581E+04  0.27342215581E+04  0.00000000000E+00 0.  1.
         24    2    1    2    0    0  0.20128849818E+03 -0.13215736121E+03 -0.27129230159E+03  0.36902410282E+03  0.67798583611E+02 0.  0.
        254    2    1    2    0    0 -0.20128849818E+03  0.13215736121E+03 -0.23188047288E+04  0.25093219830E+04  0.92836351519E+03 0.  0.
         23    2    4    4    0    0  0.24914233206E+03 -0.15639998958E+03 -0.34557513032E+03  0.46281464548E+03  0.90787482665E+02 0.  0.
         23    2    4    4    0    0 -0.45043083024E+03  0.28855735080E+03 -0.19732295985E+04  0.20465073375E+04  0.91673096348E+02 0.  0.
          2    1    3    3  502    0  0.15339921313E+03 -0.75254763865E+02 -0.15333695687E+03  0.22957966029E+03  0.00000000000E+00 0. -1.
         -1    1    3    3    0  502  0.47889285052E+02 -0.56902597349E+02 -0.11795534471E+03  0.13944444254E+03  0.00000000000E+00 0.  1.
         13    1    5    5    0    0  0.87836396505E+02 -0.65963915835E+02 -0.19716058250E+03  0.22569618081E+03  0.00000000000E+00 0. -1.
        -13    1    5    5    0    0  0.16130593555E+03 -0.90436073749E+02 -0.14841454783E+03  0.23711846467E+03  0.00000000000E+00 0.  1.
          4    1    6    6  503    0 -0.27226134434E+03  0.22411893749E+03 -0.12360364458E+04  0.12853566171E+04  0.00000000000E+00 0.  1.
         -4    1    6    6    0  503 -0.17816948590E+03  0.64438413307E+02 -0.73719315266E+03  0.76115072038E+03  0.00000000000E+00 0. -1.
<mgrwt>
<rscale>  0 0.12554973E+04</rscale>
<asrwt>0</asrwt>
<pdfrwt beam="1">  1        2 0.22173005E-01 0.12554973E+04</pdfrwt>
<pdfrwt beam="2">  1       -1 0.42064945E+00 0.12554973E+04</pdfrwt>
<totfact> 0.14893628E+00</totfact>
</mgrwt>
</event>
<event>
12    7  0.1735955E-007  0.2832979E+04  0.7818608E-02  0.8293102E-01
         -1   -1    0    0    0  501 -0.00000000000E+00  0.00000000000E+00  0.12221942461E+04  0.12221942461E+04  0.00000000000E+00 0.  1.
          2   -1    0    0  501    0  0.00000000000E+00 -0.00000000000E+00 -0.16416719993E+04  0.16416719993E+04  0.00000000000E+00 0. -1.
         24    2    1    2    0    0  0.69546361455E+03 -0.97285416866E+03  0.25455907834E+03  0.12251772555E+04  0.78384376611E+02 0.  0.
        254    2    1    2    0    0 -0.69546361455E+03  0.97285416866E+03 -0.67403683152E+03  0.16386889898E+04  0.89490842133E+03 0.  0.
         23    2    4    4    0    0  0.11765413590E+03  0.26102442759E+03 -0.43494478547E+03  0.52849704039E+03  0.90310064749E+02 0.  0.
         23    2    4    4    0    0 -0.81311775045E+03  0.71182974107E+03 -0.23909204605E+03  0.11101919495E+04  0.86597354511E+02 0.  0.
          2    1    3    3  502    0  0.31715543033E+03 -0.44136321809E+03  0.75862846969E+02  0.54876609664E+03  0.00000000000E+00 0. -1.
         -1    1    3    3    0  502  0.37830818422E+03 -0.53149095057E+03  0.17869623137E+03  0.67641115890E+03  0.00000000000E+00 0.  1.
         13    1    5    5    0    0  0.12786714132E+03  0.24955551005E+03 -0.42792183944E+03  0.51161026094E+03  0.00000000000E+00 0.  1.
        -13    1    5    5    0    0 -0.10213005420E+02  0.11468917540E+02 -0.70229460333E+01  0.16886779451E+02  0.00000000000E+00 0. -1.
          4    1    6    6  503    0 -0.57981025626E+03  0.54532880158E+03 -0.14946211604E+03  0.80987799034E+03  0.00000000000E+00 0.  1.
         -4    1    6    6    0  503 -0.23330749419E+03  0.16650093948E+03 -0.89629930005E+02  0.30031395913E+03  0.00000000000E+00 0. -1.
<mgrwt>
<rscale>  0 0.28329787E+04</rscale>
<asrwt>0</asrwt>
<pdfrwt beam="1">  1        2 0.25256492E+00 0.28329787E+04</pdfrwt>
<pdfrwt beam="2">  1       -1 0.18802989E+00 0.28329787E+04</pdfrwt>
<totfact> 0.19050418E+00</totfact>
</mgrwt>
</event>
<event>
12    7  0.1735955E-007  0.1524198E+04  0.7818608E-02  0.8868519E-01
         -1   -1    0    0    0  501 -0.00000000000E+00  0.00000000000E+00  0.82786892243E+03  0.82786892243E+03  0.00000000000E+00 0.  1.
          2   -1    0    0  501    0  0.00000000000E+00 -0.00000000000E+00 -0.70155386259E+03  0.70155386259E+03  0.00000000000E+00 0. -1.
         24    2    1    2    0    0 -0.34387369173E+03 -0.97593896552E+02  0.31611189939E+03  0.48272293442E+03  0.72945280702E+02 0.  0.
        254    2    1    2    0    0  0.34387369173E+03  0.97593896552E+02 -0.18979683955E+03  0.10466998506E+04  0.96528962100E+03 0.  0.
         23    2    4    4    0    0  0.37232316000E+03  0.14984633072E+03 -0.54071908788E+03  0.67949578418E+03  0.90878657650E+02 0.  0.
         23    2    4    4    0    0 -0.28449468267E+02 -0.52252434169E+02  0.35092224833E+03  0.36720406641E+03  0.90292374526E+02 0.  0.
          4    1    3    3  502    0 -0.16879083658E+03 -0.56938683134E+02  0.20424268988E+03  0.27101187524E+03  0.00000000000E+00 0. -1.
         -1    1    3    3    0  502 -0.17508285515E+03 -0.40655213417E+02  0.11186920950E+03  0.21171105918E+03  0.00000000000E+00 0.  1.
         13    1    5    5    0    0  0.11155256502E+03  0.81166851835E+02 -0.14051209823E+03  0.19691541928E+03  0.00000000000E+00 0. -1.
        -13    1    5    5    0    0  0.26077059498E+03  0.68679478886E+02 -0.40020698965E+03  0.48258036490E+03  0.00000000000E+00 0.  1.
          2    1    6    6  503    0  0.23249172863E+02 -0.55034809938E+01  0.27828236819E+02  0.36677283246E+02  0.00000000000E+00 0. -1.
         -2    1    6    6    0  503 -0.51698641130E+02 -0.46748953175E+02  0.32309401151E+03  0.33052678317E+03  0.00000000000E+00 0.  1.
<mgrwt>
<rscale>  0 0.15241977E+04</rscale>
<asrwt>0</asrwt>
<pdfrwt beam="1">  1        2 0.10793136E+00 0.15241977E+04</pdfrwt>
<pdfrwt beam="2">  1       -1 0.12736445E+00 0.15241977E+04</pdfrwt>
<totfact> 0.24039398E+01</totfact>
</mgrwt>
</event>
<event>
12    7  0.1735955E-007  0.2700816E+04  0.7818608E-02  0.8334740E-01
          2   -1    0    0  501    0  0.00000000000E+00  0.00000000000E+00  0.13155905328E+04  0.13155905328E+04  0.00000000000E+00 0. -1.
         -1   -1    0    0    0  501 -0.00000000000E+00 -0.00000000000E+00 -0.13861469366E+04  0.13861469366E+04  0.00000000000E+00 0.  1.
         24    2    1    2    0    0  0.32707506609E+03  0.11391892439E+02 -0.11837268460E+04  0.12304160958E+04  0.74877558839E+02 0.  0.
        254    2    1    2    0    0 -0.32707506609E+03 -0.11391892439E+02  0.11131704422E+04  0.14713213736E+04  0.90472663100E+03 0.  0.
         23    2    4    4    0    0  0.10694926733E+03  0.18294479004E+03 -0.27306639974E+02  0.23227698737E+03  0.91104359346E+02 0.  0.
         23    2    4    4    0    0 -0.43402433342E+03 -0.19433668248E+03  0.11404770822E+04  0.12390443862E+04  0.91646864715E+02 0.  0.
          2    1    3    3  502    0  0.10570816844E+03 -0.22833668824E+02 -0.30563364320E+03  0.32420289506E+03  0.00000000000E+00 0. -1.
         -1    1    3    3    0  502  0.22136689765E+03  0.34225561263E+02 -0.87809320279E+03  0.90621320075E+03  0.00000000000E+00 0.  1.
         13    1    5    5    0    0  0.72239668336E+02  0.17077806472E+03 -0.45956644620E+02  0.19103855699E+03  0.00000000000E+00 0.  1.
        -13    1    5    5    0    0  0.34709598994E+02  0.12166725316E+02  0.18650004646E+02  0.41238430384E+02  0.00000000000E+00 0. -1.
          1    1    6    6  503    0 -0.10653378361E+03 -0.12429038416E+02  0.30857307670E+03  0.32668221823E+03  0.00000000000E+00 0. -1.
         -1    1    6    6    0  503 -0.32749054981E+03 -0.18190764406E+03  0.83190400552E+03  0.91236216799E+03  0.00000000000E+00 0.  1.
<mgrwt>
<rscale>  0 0.27008160E+04</rscale>
<asrwt>0</asrwt>
<pdfrwt beam="1">  1        2 0.20239854E+00 0.27008160E+04</pdfrwt>
<pdfrwt beam="2">  1       -1 0.21325337E+00 0.27008160E+04</pdfrwt>
<totfact> 0.19769716E+00</totfact>
</mgrwt>
</event>
<event>
12    7  0.1735955E-007  0.2543715E+04  0.7818608E-02  0.8387575E-01
         -1   -1    0    0    0  501 -0.00000000000E+00  0.00000000000E+00  0.96156808525E+03  0.96156808525E+03  0.00000000000E+00 0.  1.
          2   -1    0    0  501    0  0.00000000000E+00 -0.00000000000E+00 -0.16822743998E+04  0.16822743998E+04  0.00000000000E+00 0. -1.
         24    2    1    2    0    0  0.16148753272E+03 -0.27383208099E+03  0.80005946786E+03  0.86502697007E+03  0.84346161980E+02 0.  0.
        254    2    1    2    0    0 -0.16148753272E+03  0.27383208099E+03 -0.15207657824E+04  0.17788155150E+04  0.86625275733E+03 0.  0.
         23    2    4    4    0    0 -0.68895502221E+02  0.14489409232E+03 -0.15772664965E+04  0.15883260087E+04  0.96275753888E+02 0.  0.
         23    2    4    4    0    0 -0.92592030500E+02  0.12893798866E+03  0.56500714103E+02  0.19048950624E+03  0.88857370331E+02 0.  0.
          2    1    3    3  502    0  0.88243873540E+02 -0.21996334401E+03  0.54731698871E+03  0.59642831929E+03  0.00000000000E+00 0. -1.
         -1    1    3    3    0  502  0.73243659181E+02 -0.53868736976E+02  0.25274247915E+03  0.26859865078E+03  0.00000000000E+00 0.  1.
         13    1    5    5    0    0 -0.65983665004E+02  0.15685841663E+03 -0.13433338586E+04  0.13540695191E+04  0.00000000000E+00 0. -1.
        -13    1    5    5    0    0 -0.29118372178E+01 -0.11964324305E+02 -0.23393263789E+03  0.23425648961E+03  0.00000000000E+00 0.  1.
          3    1    6    6  503    0 -0.76680966233E+02  0.14000105364E+03  0.60492827720E+02  0.17070339132E+03  0.00000000000E+00 0. -1.
         -3    1    6    6    0  503 -0.15911064268E+02 -0.11063064973E+02 -0.39921136171E+01  0.19786114926E+02  0.00000000000E+00 0.  1.
<mgrwt>
<rscale>  0 0.25437149E+04</rscale>
<asrwt>0</asrwt>
<pdfrwt beam="1">  1        2 0.25881144E+00 0.25437149E+04</pdfrwt>
<pdfrwt beam="2">  1       -1 0.14793355E+00 0.25437149E+04</pdfrwt>
<totfact> 0.36763612E+00</totfact>
</mgrwt>
</event>
<event>
12    7  0.1735955E-007  0.2389636E+04  0.7818608E-02  0.8443394E-01
          2   -1    0    0  501    0  0.00000000000E+00  0.00000000000E+00  0.76992357805E+03  0.76992357805E+03  0.00000000000E+00 0. -1.
         -1   -1    0    0    0  501 -0.00000000000E+00 -0.00000000000E+00 -0.18541971246E+04  0.18541971246E+04  0.00000000000E+00 0.  1.
         24    2    1    2    0    0 -0.65075868778E+03 -0.71488168168E+03 -0.94309515074E+02  0.97459863060E+03  0.80034477622E+02 0.  0.
        254    2    1    2    0    0  0.65075868778E+03  0.71488168168E+03 -0.98996403143E+03  0.16495220720E+04  0.89797082021E+03 0.  0.
         23    2    4    4    0    0 -0.11062444616E+03 -0.96070347535E+02 -0.25246486540E+02  0.17432590846E+03  0.91021192656E+02 0.  0.
         23    2    4    4    0    0  0.76138313394E+03  0.81095202922E+03 -0.96471754489E+03  0.14751961635E+04  0.90422945974E+02 0.  0.
          4    1    3    3  502    0 -0.29642612813E+03 -0.33242856943E+03 -0.36559693198E+01  0.44541056266E+03  0.00000000000E+00 0. -1.
         -3    1    3    3    0  502 -0.35433255965E+03 -0.38245311225E+03 -0.90653545754E+02  0.52918806795E+03  0.00000000000E+00 0.  1.
         13    1    5    5    0    0 -0.63717070169E+02 -0.64147804097E+02 -0.59324130373E+02  0.10813953137E+03  0.00000000000E+00 0. -1.
        -13    1    5    5    0    0 -0.46907375991E+02 -0.31922543438E+02  0.34077643833E+02  0.66186377081E+02  0.00000000000E+00 0.  1.
          3    1    6    6  503    0  0.14347421800E+03  0.11721813882E+03 -0.13070359025E+03  0.22673414345E+03  0.00000000000E+00 0. -1.
         -3    1    6    6    0  503  0.61790891594E+03  0.69373389040E+03 -0.83401395464E+03  0.12484620201E+04  0.00000000000E+00 0.  1.
<mgrwt>
<rscale>  0 0.23896360E+04</rscale>
<asrwt>0</asrwt>
<pdfrwt beam="1">  1        2 0.11844978E+00 0.23896360E+04</pdfrwt>
<pdfrwt beam="2">  1       -1 0.28526110E+00 0.23896360E+04</pdfrwt>
<totfact> 0.15310954E+00</totfact>
</mgrwt>
</event>
<event>
12    7  0.1735955E-007  0.2234162E+04  0.7818608E-02  0.8504342E-01
          2   -1    0    0  501    0  0.00000000000E+00  0.00000000000E+00  0.14489666088E+04  0.14489666088E+04  0.00000000000E+00 0. -1.
         -1   -1    0    0    0  501 -0.00000000000E+00 -0.00000000000E+00 -0.86121403127E+03  0.86121403127E+03  0.00000000000E+00 0.  1.
         24    2    1    2    0    0  0.15183386338E+03 -0.15679430130E+03 -0.69235957126E+03  0.72983053562E+03  0.75185502661E+02 0.  0.
        254    2    1    2    0    0 -0.15183386338E+03  0.15679430130E+03  0.12801121488E+04  0.15803501045E+04  0.90065607430E+03 0.  0.
         23    2    4    4    0    0  0.24105650581E+03 -0.21659186807E+03  0.28063278036E+03  0.43982386013E+03  0.98336128750E+02 0.  0.
         23    2    4    4    0    0 -0.39289036919E+03  0.37338616937E+03  0.99947936844E+03  0.11405262443E+04  0.89783252297E+02 0.  0.
          4    1    3    3  502    0  0.20299306999E+02  0.45320529885E+01 -0.94802718602E+02  0.97057492361E+02  0.00000000000E+00 0. -1.
         -3    1    3    3    0  502  0.13153455638E+03 -0.16132635429E+03 -0.59755685266E+03  0.63277304326E+03  0.00000000000E+00 0.  1.
         13    1    5    5    0    0  0.25530756806E+01 -0.22726245130E+02  0.51841789172E+02  0.56661905348E+02  0.00000000000E+00 0. -1.
        -13    1    5    5    0    0  0.23850343013E+03 -0.19386562294E+03  0.22879099119E+03  0.38316195478E+03  0.00000000000E+00 0.  1.
          1    1    6    6  503    0 -0.13536673670E+03  0.80864423462E+02  0.24544928917E+03  0.29173371753E+03  0.00000000000E+00 0. -1.
         -1    1    6    6    0  503 -0.25752363249E+03  0.29252174590E+03  0.75403007926E+03  0.84879252680E+03  0.00000000000E+00 0.  1.
<mgrwt>
<rscale>  0 0.22341624E+04</rscale>
<asrwt>0</asrwt>
<pdfrwt beam="1">  1        2 0.22291794E+00 0.22341624E+04</pdfrwt>
<pdfrwt beam="2">  1       -1 0.13249447E+00 0.22341624E+04</pdfrwt>
<totfact> 0.68096084E+00</totfact>
</mgrwt>
</event>
<event>
12    7  0.1735955E-007  0.1253995E+04  0.7818608E-02  0.9066865E-01
          2   -1    0    0  501    0  0.00000000000E+00  0.00000000000E+00  0.22716353573E+04  0.22716353573E+04  0.00000000000E+00 0. -1.
         -1   -1    0    0    0  501 -0.00000000000E+00 -0.00000000000E+00 -0.17305859819E+03  0.17305859819E+03  0.00000000000E+00 0.  1.
         24    2    1    2    0    0  0.35247474604E+01  0.15744341280E+03  0.10062100811E+04  0.10214275693E+04  0.77811953064E+02 0.  0.
        254    2    1    2    0    0 -0.35247474604E+01 -0.15744341280E+03  0.10923666780E+04  0.14232663861E+04  0.89867758100E+03 0.  0.
         23    2    4    4    0    0  0.26383891867E+03 -0.40304336877E+03  0.83781694319E+03  0.97068867109E+03  0.90798313764E+02 0.  0.
         23    2    4    4    0    0 -0.26736366613E+03  0.24559995597E+03  0.25454973479E+03  0.45257771501E+03  0.90710265709E+02 0.  0.
          4    1    3    3  502    0 -0.93060968276E+01  0.14763925647E+03  0.97623471765E+03  0.98737944957E+03  0.00000000000E+00 0. -1.
         -3    1    3    3    0  502  0.12830844288E+02  0.98041563218E+01  0.29975363443E+02  0.34048119770E+02  0.00000000000E+00 0.  1.
         13    1    5    5    0    0  0.79927499548E+02 -0.10940412532E+03  0.32159413436E+03  0.34897056477E+03  0.00000000000E+00 0. -1.
        -13    1    5    5    0    0  0.18391141912E+03 -0.29363924345E+03  0.51622280883E+03  0.62171810633E+03  0.00000000000E+00 0.  1.
          4    1    6    6  503    0 -0.19946613871E+03  0.19670298972E+03  0.14716366148E+03  0.31644264870E+03  0.00000000000E+00 0. -1.
         -4    1    6    6    0  503 -0.67897527416E+02  0.48896966251E+02  0.10738607331E+03  0.13613506631E+03  0.00000000000E+00 0.  1.
<mgrwt>
<rscale>  0 0.12539953E+04</rscale>
<asrwt>0</asrwt>
<pdfrwt beam="1">  1        2 0.34948234E+00 0.12539953E+04</pdfrwt>
<pdfrwt beam="2">  1       -1 0.26624401E-01 0.12539953E+04</pdfrwt>
<totfact> 0.66413951E+01</totfact>
</mgrwt>
</event>
<event>
12    7  0.1735955E-007  0.1285901E+04  0.7818608E-02  0.9040821E-01
          2   -1    0    0  501    0  0.00000000000E+00  0.00000000000E+00  0.33138963532E+04  0.33138963532E+04  0.00000000000E+00 0. -1.
         -1   -1    0    0    0  501 -0.00000000000E+00 -0.00000000000E+00 -0.12474293216E+03  0.12474293216E+03  0.00000000000E+00 0.  1.
         24    2    1    2    0    0 -0.62180995315E+02  0.38020709673E+02 -0.15085623419E+02  0.10952450560E+03  0.80349180144E+02 0.  0.
        254    2    1    2    0    0  0.62180995315E+02 -0.38020709673E+02  0.32042390445E+04  0.33291147798E+04  0.90030290031E+03 0.  0.
         23    2    4    4    0    0 -0.43026426569E+02 -0.33421710220E+03  0.27348073897E+04  0.27570307826E+04  0.92167956723E+02 0.  0.
         23    2    4    4    0    0  0.10520742188E+03  0.29619639253E+03  0.46943165474E+03  0.57208399722E+03  0.90072841892E+02 0.  0.
          2    1    3    3  502    0  0.18916918871E+02  0.88537659164E+01 -0.10091529432E+02  0.23196507426E+02  0.00000000000E+00 0. -1.
         -1    1    3    3    0  502 -0.81097914186E+02  0.29166943757E+02 -0.49940939870E+01  0.86327998171E+02  0.00000000000E+00 0.  1.
         13    1    5    5    0    0  0.12601512590E+02 -0.64786756334E+01  0.20283761664E+03  0.20333192096E+03  0.00000000000E+00 0.  1.
        -13    1    5    5    0    0 -0.55627939159E+02 -0.32773842657E+03  0.25319697731E+04  0.25536988616E+04  0.00000000000E+00 0. -1.
          3    1    6    6  503    0  0.11798123516E+03  0.26107036166E+03  0.38634925047E+03  0.48098133947E+03  0.00000000000E+00 0. -1.
         -3    1    6    6    0  503 -0.12773813271E+02  0.35126030866E+02  0.83082404271E+02  0.91102657751E+02  0.00000000000E+00 0.  1.
<mgrwt>
<rscale>  0 0.12859007E+04</rscale>
<asrwt>0</asrwt>
<pdfrwt beam="1">  1        2 0.50983014E+00 0.12859007E+04</pdfrwt>
<pdfrwt beam="2">  1       -1 0.19191223E-01 0.12859007E+04</pdfrwt>
<totfact> 0.27173392E+01</totfact>
</mgrwt>
</event>
<event>
12    7  0.1735955E-007  0.1606977E+04  0.7818608E-02  0.8816273E-01
          2   -1    0    0  501    0  0.00000000000E+00  0.00000000000E+00  0.45385664319E+03  0.45385664319E+03  0.00000000000E+00 0. -1.
         -1   -1    0    0    0  501 -0.00000000000E+00 -0.00000000000E+00 -0.14224626705E+04  0.14224626705E+04  0.00000000000E+00 0.  1.
         24    2    1    2    0    0  0.32829041189E+03  0.43817226574E+03 -0.40178405500E+03  0.68356101120E+03  0.77818379422E+02 0.  0.
        254    2    1    2    0    0 -0.32829041189E+03 -0.43817226574E+03 -0.56682197234E+03  0.11927583025E+04  0.89532993411E+03 0.  0.
         23    2    4    4    0    0 -0.52818107879E+03 -0.39439660691E+03 -0.67183413927E+03  0.94551359455E+03  0.90060597801E+02 0.  0.
         23    2    4    4    0    0  0.19989066690E+03 -0.43775658831E+02  0.10501216692E+03  0.24724470797E+03  0.90718263873E+02 0.  0.
          2    1    3    3  502    0  0.19438082087E+03  0.29442147274E+03 -0.21915685575E+03  0.41532834547E+03  0.00000000000E+00 0. -1.
         -1    1    3    3    0  502  0.13390959102E+03  0.14375079300E+03 -0.18262719926E+03  0.26823266573E+03  0.00000000000E+00 0.  1.
         13    1    5    5    0    0 -0.81774564527E+02 -0.46970332912E+02 -0.14198694146E+03  0.17045111652E+03  0.00000000000E+00 0.  1.
        -13    1    5    5    0    0 -0.44640651426E+03 -0.34742627400E+03 -0.52984719781E+03  0.77506247804E+03  0.00000000000E+00 0. -1.
          4    1    6    6  503    0  0.13873832418E+03 -0.33159301158E+02  0.11643779826E+03  0.18413479495E+03  0.00000000000E+00 0. -1.
         -4    1    6    6    0  503  0.61152342714E+02 -0.10616357673E+02 -0.11425631334E+02  0.63109913017E+02  0.00000000000E+00 0.  1.
<mgrwt>
<rscale>  0 0.16069775E+04</rscale>
<asrwt>0</asrwt>
<pdfrwt beam="1">  1        2 0.69824099E-01 0.16069775E+04</pdfrwt>
<pdfrwt beam="2">  1       -1 0.21884041E+00 0.16069775E+04</pdfrwt>
<totfact> 0.84553580E+00</totfact>
</mgrwt>
</event>
<event>
12    7  0.1735955E-007  0.4267148E+04  0.7818608E-02  0.7952721E-01
         -1   -1    0    0    0  501 -0.00000000000E+00  0.00000000000E+00  0.11496101948E+04  0.11496101948E+04  0.00000000000E+00 0.  1.
          2   -1    0    0  501    0  0.00000000000E+00 -0.00000000000E+00 -0.39597232566E+04  0.39597232566E+04  0.00000000000E+00 0. -1.
         24    2    1    2    0    0 -0.12108141658E+04 -0.12896875940E+04 -0.25551094516E+04  0.31087575516E+04  0.80150923954E+02 0.  0.
        254    2    1    2    0    0  0.12108141658E+04  0.12896875940E+04 -0.25500361016E+03  0.20005758998E+04  0.89883928242E+03 0.  0.
         23    2    4    4    0    0 -0.65824424686E+02  0.28630956065E+03  0.12171343047E+03  0.33108643933E+03  0.92184878100E+02 0.  0.
         23    2    4    4    0    0  0.12766385904E+04  0.10033780334E+04 -0.37671704063E+03  0.16694894605E+04  0.93304670527E+02 0.  0.
          4    1    3    3  502    0 -0.66708906219E+02 -0.89163945933E+02 -0.13576223382E+03  0.17558949728E+03  0.00000000000E+00 0. -1.
         -3    1    3    3    0  502 -0.11441052595E+04 -0.12005236481E+04 -0.24193472178E+04  0.29331680543E+04  0.00000000000E+00 0.  1.
         13    1    5    5    0    0 -0.79012160074E+02  0.24514234464E+03  0.76840859114E+02  0.26877910671E+03  0.00000000000E+00 0. -1.
        -13    1    5    5    0    0  0.13187735387E+02  0.41167216007E+02  0.44872571354E+02  0.62307332621E+02  0.00000000000E+00 0.  1.
          2    1    6    6  503    0  0.12704792609E+04  0.99987418823E+03 -0.36771869626E+03  0.16580358814E+04  0.00000000000E+00 0. -1.
         -2    1    6    6    0  503  0.61593295822E+01  0.35038451344E+01 -0.89983443719E+01  0.11453579050E+02  0.00000000000E+00 0.  1.
<mgrwt>
<rscale>  0 0.42671481E+04</rscale>
<asrwt>0</asrwt>
<pdfrwt beam="1">  1        2 0.60918818E+00 0.42671481E+04</pdfrwt>
<pdfrwt beam="2">  1       -1 0.17686311E+00 0.42671481E+04</pdfrwt>
<totfact> 0.70520211E-02</totfact>
</mgrwt>
</event>
<event>
12    7  0.1735955E-007  0.1100975E+04  0.7818608E-02  0.9204242E-01
         -1   -1    0    0    0  501 -0.00000000000E+00  0.00000000000E+00  0.15317948279E+03  0.15317948279E+03  0.00000000000E+00 0.  1.
          2   -1    0    0  501    0  0.00000000000E+00 -0.00000000000E+00 -0.19783109060E+04  0.19783109060E+04  0.00000000000E+00 0. -1.
         24    2    1    2    0    0 -0.11158527446E+03  0.10210850233E+02 -0.55549479054E+03  0.57215325546E+03  0.78926234397E+02 0.  0.
        254    2    1    2    0    0  0.11158527446E+03 -0.10210850233E+02 -0.12696366327E+04  0.15593371334E+04  0.89833155431E+03 0.  0.
         23    2    4    4    0    0  0.25701773897E+03  0.38265086859E+03 -0.56868478517E+03  0.73774617727E+03  0.91581831254E+02 0.  0.
         23    2    4    4    0    0 -0.14543246451E+03 -0.39286171882E+03 -0.70095184754E+03  0.82159095610E+03  0.90483560567E+02 0.  0.
          4    1    3    3  502    0 -0.85252185516E+02 -0.25240038329E+02 -0.43053779870E+03  0.43962232743E+03  0.00000000000E+00 0. -1.
         -3    1    3    3    0  502 -0.26333088940E+02  0.35450888562E+02 -0.12495699185E+03  0.13253092803E+03  0.00000000000E+00 0.  1.
         13    1    5    5    0    0  0.21849800562E+03  0.26371971686E+03 -0.38169784403E+03  0.51281840027E+03  0.00000000000E+00 0.  1.
        -13    1    5    5    0    0  0.38519733354E+02  0.11893115173E+03 -0.18698694114E+03  0.22492777700E+03  0.00000000000E+00 0. -1.
          4    1    6    6  503    0 -0.97980719680E+02 -0.13950079663E+03 -0.29513371668E+03  0.34082928925E+03  0.00000000000E+00 0.  1.
         -4    1    6    6    0  503 -0.47451744833E+02 -0.25336092219E+03 -0.40581813085E+03  0.48076166685E+03  0.00000000000E+00 0. -1.
<mgrwt>
<rscale>  0 0.11009753E+04</rscale>
<asrwt>0</asrwt>
<pdfrwt beam="1">  1        2 0.30435551E+00 0.11009753E+04</pdfrwt>
<pdfrwt beam="2">  1       -1 0.23566076E-01 0.11009753E+04</pdfrwt>
<totfact> 0.12064498E+02</totfact>
</mgrwt>
</event>
<event>
12    7  0.1735955E-007  0.2178798E+04  0.7818608E-02  0.8527305E-01
         -1   -1    0    0    0  501 -0.00000000000E+00  0.00000000000E+00  0.66124126603E+03  0.66124126603E+03  0.00000000000E+00 0.  1.
          2   -1    0    0  501    0  0.00000000000E+00 -0.00000000000E+00 -0.17947916071E+04  0.17947916071E+04  0.00000000000E+00 0. -1.
         24    2    1    2    0    0  0.24590195118E+03 -0.86471012350E+03 -0.42090783000E+03  0.99579280762E+03  0.79047751848E+02 0.  0.
        254    2    1    2    0    0 -0.24590195118E+03  0.86471012350E+03 -0.71264251111E+03  0.14602400656E+04  0.90346573434E+03 0.  0.
         23    2    4    4    0    0 -0.25468553522E+03  0.26310472867E+03 -0.76125667135E+03  0.84976887347E+03  0.92231223206E+02 0.  0.
         23    2    4    4    0    0  0.87835840483E+01  0.60160539482E+03  0.48614160238E+02  0.61047119209E+03  0.91134720954E+02 0.  0.
          4    1    3    3  502    0  0.39776660917E+02 -0.22589237270E+03 -0.13537233475E+03  0.26633665878E+03  0.00000000000E+00 0. -1.
         -3    1    3    3    0  502  0.20612529026E+03 -0.63881775080E+03 -0.28553549526E+03  0.72945614883E+03  0.00000000000E+00 0.  1.
         13    1    5    5    0    0 -0.85954852167E+02  0.12367429071E+03 -0.39949235188E+03  0.42693993255E+03  0.00000000000E+00 0. -1.
        -13    1    5    5    0    0 -0.16873068306E+03  0.13943043797E+03 -0.36176431947E+03  0.42282894092E+03  0.00000000000E+00 0.  1.
          3    1    6    6  503    0 -0.26962771220E+02  0.47857229643E+03  0.53157806340E+02  0.48226982729E+03  0.00000000000E+00 0. -1.
         -3    1    6    6    0  503  0.35746355269E+02  0.12303309840E+03 -0.45436461023E+01  0.12820136480E+03  0.00000000000E+00 0.  1.
<mgrwt>
<rscale>  0 0.21787981E+04</rscale>
<asrwt>0</asrwt>
<pdfrwt beam="1">  1        2 0.27612178E+00 0.21787981E+04</pdfrwt>
<pdfrwt beam="2">  1       -1 0.10172943E+00 0.21787981E+04</pdfrwt>
<totfact> 0.82970438E+00</totfact>
</mgrwt>
</event>
<event>
12    7  0.1735955E-007  0.1216070E+04  0.7818608E-02  0.9098905E-01
          2   -1    0    0  501    0  0.00000000000E+00  0.00000000000E+00  0.14532405217E+04  0.14532405217E+04  0.00000000000E+00 0. -1.
         -1   -1    0    0    0  501 -0.00000000000E+00 -0.00000000000E+00 -0.25440164660E+03  0.25440164660E+03  0.00000000000E+00 0.  1.
         24    2    1    2    0    0 -0.23513498062E+03 -0.11571523562E+03  0.25564489243E+03  0.37514672896E+03  0.81867468259E+02 0.  0.
        254    2    1    2    0    0  0.23513498062E+03  0.11571523562E+03  0.94319398269E+03  0.13324954394E+04  0.90401921003E+03 0.  0.
         23    2    4    4    0    0  0.23132634895E+02 -0.36153098222E+02  0.10361247400E+04  0.10408943484E+04  0.89802017826E+02 0.  0.
         23    2    4    4    0    0  0.21200234572E+03  0.15186833384E+03 -0.92930757284E+02  0.29160109099E+03  0.91575570982E+02 0.  0.
          2    1    3    3  502    0 -0.11252691304E+03 -0.53311415276E+02  0.17782906488E+03  0.21708889762E+03  0.00000000000E+00 0. -1.
         -1    1    3    3    0  502 -0.12260806758E+03 -0.62403820343E+02  0.77815827559E+02  0.15805783134E+03  0.00000000000E+00 0.  1.
         13    1    5    5    0    0  0.35983734943E+02 -0.60839928828E+02  0.80576995572E+03  0.80886435678E+03  0.00000000000E+00 0. -1.
        -13    1    5    5    0    0 -0.12851100048E+02  0.24686830606E+02  0.23035478425E+03  0.23202999160E+03  0.00000000000E+00 0.  1.
          4    1    6    6  503    0  0.18873883460E+03  0.14668438195E+03 -0.52602572119E+02  0.24475638130E+03  0.00000000000E+00 0. -1.
         -4    1    6    6    0  503  0.23263511123E+02  0.51839518908E+01 -0.40328185165E+02  0.46844709688E+02  0.00000000000E+00 0.  1.
<mgrwt>
<rscale>  0 0.12160704E+04</rscale>
<asrwt>0</asrwt>
<pdfrwt beam="1">  1        2 0.22357546E+00 0.12160704E+04</pdfrwt>
<pdfrwt beam="2">  1       -1 0.39138716E-01 0.12160704E+04</pdfrwt>
<totfact> 0.96013466E+01</totfact>
</mgrwt>
</event>
<event>
12    7  0.1735955E-007  0.2106598E+04  0.7818608E-02  0.8558342E-01
         -1   -1    0    0    0  501 -0.00000000000E+00  0.00000000000E+00  0.15403606433E+04  0.15403606433E+04  0.00000000000E+00 0.  1.
          2   -1    0    0  501    0  0.00000000000E+00 -0.00000000000E+00 -0.72024610012E+03  0.72024610012E+03  0.00000000000E+00 0. -1.
         24    2    1    2    0    0  0.75138465238E+03  0.41177904816E+03  0.34762229350E+03  0.92801516355E+03  0.78930377650E+02 0.  0.
        254    2    1    2    0    0 -0.75138465238E+03 -0.41177904816E+03  0.47249224971E+03  0.13325915799E+04  0.90466044042E+03 0.  0.
         23    2    4    4    0    0 -0.86093315164E+03 -0.37664095963E+03  0.12166332769E+03  0.95205218542E+03  0.92396398213E+02 0.  0.
         23    2    4    4    0    0  0.10954849926E+03 -0.35138088527E+02  0.35082892202E+03  0.38053939448E+03  0.92161484743E+02 0.  0.
          4    1    3    3  502    0  0.58273200602E+03  0.31914904860E+03  0.23316251554E+03  0.70412886940E+03  0.00000000000E+00 0. -1.
         -3    1    3    3    0  502  0.16865264635E+03  0.92629999560E+02  0.11445977795E+03  0.22388629415E+03  0.00000000000E+00 0.  1.
         13    1    5    5    0    0 -0.11964606492E+03 -0.42716355429E+02  0.47568551941E+02  0.13565631208E+03  0.00000000000E+00 0.  1.
        -13    1    5    5    0    0 -0.74128708671E+03 -0.33392460420E+03  0.74094775746E+02  0.81639587334E+03  0.00000000000E+00 0. -1.
          3    1    6    6  503    0  0.81991088929E+02 -0.55134106513E+02  0.31892665058E+03  0.33388099200E+03  0.00000000000E+00 0. -1.
         -3    1    6    6    0  503  0.27557410330E+02  0.19996017986E+02  0.31902271436E+02  0.46658402482E+02  0.00000000000E+00 0.  1.
<mgrwt>
<rscale>  0 0.21065980E+04</rscale>
<asrwt>0</asrwt>
<pdfrwt beam="1">  1        2 0.11080709E+00 0.21065980E+04</pdfrwt>
<pdfrwt beam="2">  1       -1 0.23697856E+00 0.21065980E+04</pdfrwt>
<totfact> 0.35249606E+00</totfact>
</mgrwt>
</event>
<event>
12    7  0.1735955E-007  0.3432439E+04  0.7818608E-02  0.8129990E-01
         -1   -1    0    0    0  501 -0.00000000000E+00  0.00000000000E+00  0.19459188381E+04  0.19459188381E+04  0.00000000000E+00 0.  1.
          2   -1    0    0  501    0  0.00000000000E+00 -0.00000000000E+00 -0.15136343983E+04  0.15136343983E+04  0.00000000000E+00 0. -1.
         24    2    1    2    0    0  0.88888849783E+03  0.59374353450E+03  0.13974447868E+04  0.17612004954E+04  0.79505387415E+02 0.  0.
        254    2    1    2    0    0 -0.88888849783E+03 -0.59374353450E+03 -0.96516034700E+03  0.16983527410E+04  0.90011854275E+03 0.  0.
         23    2    4    4    0    0 -0.10036542773E+04 -0.59196299380E+03 -0.61887130588E+03  0.13224852792E+04  0.90683658353E+02 0.  0.
         23    2    4    4    0    0  0.11476577950E+03 -0.17805406951E+01 -0.34628904112E+03  0.37586746182E+03  0.90475932619E+02 0.  0.
          2    1    3    3  502    0  0.32284228788E+03  0.22131620534E+03  0.57516180555E+03  0.69571481812E+03  0.00000000000E+00 0. -1.
         -1    1    3    3    0  502  0.56604620995E+03  0.37242732916E+03  0.82228298122E+03  0.10654856773E+04  0.00000000000E+00 0.  1.
         13    1    5    5    0    0 -0.35757179977E+03 -0.19183967425E+03 -0.17068371157E+03  0.44021924310E+03  0.00000000000E+00 0.  1.
        -13    1    5    5    0    0 -0.64608247757E+03 -0.40012331955E+03 -0.44818759431E+03  0.88226603605E+03  0.00000000000E+00 0. -1.
          1    1    6    6  503    0  0.12043465109E+03  0.21323166104E+02 -0.29361294983E+03  0.31806877700E+03  0.00000000000E+00 0. -1.
         -1    1    6    6    0  503 -0.56688715841E+01 -0.23103706799E+02 -0.52676091292E+02  0.57798684818E+02  0.00000000000E+00 0.  1.
<mgrwt>
<rscale>  0 0.34324392E+04</rscale>
<asrwt>0</asrwt>
<pdfrwt beam="1">  1        2 0.23286683E+00 0.34324392E+04</pdfrwt>
<pdfrwt beam="2">  1       -1 0.29937213E+00 0.34324392E+04</pdfrwt>
<totfact> 0.39101934E-01</totfact>
</mgrwt>
</event>
<event>
12    7  0.1735955E-007  0.1271691E+04  0.7818608E-02  0.9052321E-01
          2   -1    0    0  501    0  0.00000000000E+00  0.00000000000E+00  0.88961236979E+03  0.88961236979E+03  0.00000000000E+00 0. -1.
         -1   -1    0    0    0  501 -0.00000000000E+00 -0.00000000000E+00 -0.45446686128E+03  0.45446686128E+03  0.00000000000E+00 0.  1.
         24    2    1    2    0    0 -0.18002039684E+02 -0.96950081842E+02  0.31092500495E+03  0.33668163399E+03  0.83407266854E+02 0.  0.
        254    2    1    2    0    0  0.18002039684E+02  0.96950081842E+02  0.12422050357E+03  0.10073975971E+04  0.99483455573E+03 0.  0.
         23    2    4    4    0    0  0.24683553475E+03  0.22512890665E+03 -0.32780465176E+03  0.47712034144E+03  0.92612767357E+02 0.  0.
         23    2    4    4    0    0 -0.22883349507E+03 -0.12817882481E+03  0.45202515532E+03  0.53027725563E+03  0.89847911513E+02 0.  0.
          2    1    3    3  502    0  0.12153632516E+02 -0.85242519909E+02  0.27580816985E+03  0.28893622919E+03  0.00000000000E+00 0. -1.
         -1    1    3    3    0  502 -0.30155672200E+02 -0.11707561933E+02  0.35116835098E+02  0.47745404801E+02  0.00000000000E+00 0.  1.
         13    1    5    5    0    0  0.77876547564E+02  0.13046790685E+03 -0.16281989505E+03  0.22270372606E+03  0.00000000000E+00 0. -1.
        -13    1    5    5    0    0  0.16895898719E+03  0.94660999803E+02 -0.16498475670E+03  0.25441661538E+03  0.00000000000E+00 0.  1.
          3    1    6    6  503    0 -0.13517272116E+03 -0.95137203378E+02  0.35420286669E+03  0.39087392185E+03  0.00000000000E+00 0. -1.
         -3    1    6    6    0  503 -0.93660773910E+02 -0.33041621432E+02  0.97822288630E+02  0.13940333378E+03  0.00000000000E+00 0.  1.
<mgrwt>
<rscale>  0 0.12716908E+04</rscale>
<asrwt>0</asrwt>
<pdfrwt beam="1">  1        2 0.13686344E+00 0.12716908E+04</pdfrwt>
<pdfrwt beam="2">  1       -1 0.69917979E-01 0.12716908E+04</pdfrwt>
<totfact> 0.69099359E+01</totfact>
</mgrwt>
</event>
<event>
12    7  0.1735955E-007  0.2200116E+04  0.7818608E-02  0.8518380E-01
          2   -1    0    0  501    0  0.00000000000E+00  0.00000000000E+00  0.16347098172E+04  0.16347098172E+04  0.00000000000E+00 0. -1.
         -1   -1    0    0    0  501 -0.00000000000E+00 -0.00000000000E+00 -0.74027056002E+03  0.74027056002E+03  0.00000000000E+00 0.  1.
         24    2    1    2    0    0  0.49228636470E+03 -0.11224018602E+02 -0.46449682447E+03  0.68058215792E+03  0.70448067906E+02 0.  0.
        254    2    1    2    0    0 -0.49228636470E+03  0.11224018602E+02  0.13589360817E+04  0.16943982193E+04  0.88419805935E+03 0.  0.
         23    2    4    4    0    0 -0.50731084744E+03 -0.35986979265E+03  0.81388347796E+03  0.10282814307E+04  0.89921195751E+02 0.  0.
         23    2    4    4    0    0  0.15024482746E+02  0.37109381125E+03  0.54505260371E+03  0.66611678863E+03  0.93235633997E+02 0.  0.
          2    1    3    3  502    0  0.29688648515E+03  0.27215060798E+02 -0.28669563844E+03  0.41361411207E+03  0.00000000000E+00 0. -1.
         -1    1    3    3    0  502  0.19539987954E+03 -0.38439079400E+02 -0.17780118602E+03  0.26696804584E+03  0.00000000000E+00 0.  1.
         13    1    5    5    0    0 -0.17444681818E+03 -0.16731034725E+03  0.27295933332E+03  0.36459737014E+03  0.00000000000E+00 0.  1.
        -13    1    5    5    0    0 -0.33286402927E+03 -0.19255944540E+03  0.54092414465E+03  0.66368406057E+03  0.00000000000E+00 0. -1.
          1    1    6    6  503    0  0.16797898299E+02  0.37547644326E+03  0.52598093061E+03  0.64646784003E+03  0.00000000000E+00 0. -1.
         -1    1    6    6    0  503 -0.17734155531E+01 -0.43826320072E+01  0.19071673098E+02  0.19648948593E+02  0.00000000000E+00 0.  1.
<mgrwt>
<rscale>  0 0.22001160E+04</rscale>
<asrwt>0</asrwt>
<pdfrwt beam="1">  1        2 0.25149382E+00 0.22001160E+04</pdfrwt>
<pdfrwt beam="2">  1       -1 0.11388778E+00 0.22001160E+04</pdfrwt>
<totfact> 0.77999172E+00</totfact>
</mgrwt>
</event>
<event>
12    7  0.1735955E-007  0.2923640E+04  0.7818608E-02  0.8265878E-01
         -1   -1    0    0    0  501 -0.00000000000E+00  0.00000000000E+00  0.93429817509E+03  0.93429817509E+03  0.00000000000E+00 0.  1.
          2   -1    0    0  501    0  0.00000000000E+00 -0.00000000000E+00 -0.22871902807E+04  0.22871902807E+04  0.00000000000E+00 0. -1.
         24    2    1    2    0    0  0.15603000332E+03 -0.87108974826E+03 -0.16920466189E+04  0.19112024436E+04  0.80810324485E+02 0.  0.
        254    2    1    2    0    0 -0.15603000332E+03  0.87108974826E+03  0.33915451326E+03  0.13102860122E+04  0.90480989075E+03 0.  0.
         23    2    4    4    0    0 -0.38824173765E+03  0.92002048500E+03  0.32952568693E+03  0.10553859432E+04  0.89905345458E+02 0.  0.
         23    2    4    4    0    0  0.23221173433E+03 -0.48930736739E+02  0.96288263302E+01  0.25490006896E+03  0.92546335953E+02 0.  0.
          2    1    3    3  502    0  0.14139516829E+03 -0.85187787519E+03 -0.16297819297E+04  0.18444179695E+04  0.00000000000E+00 0. -1.
         -1    1    3    3    0  502  0.14634835022E+02 -0.19211873074E+02 -0.62264689198E+02  0.66784474124E+02  0.00000000000E+00 0.  1.
         13    1    5    5    0    0 -0.38342325775E+03  0.88872456424E+03  0.33286712525E+03  0.10235454405E+04  0.00000000000E+00 0.  1.
        -13    1    5    5    0    0 -0.48184799056E+01  0.31295920759E+02 -0.33414383237E+01  0.31840502742E+02  0.00000000000E+00 0. -1.
          1    1    6    6  503    0 -0.18933997366E+01 -0.92149830701E+01 -0.13359863087E+02  0.16339731247E+02  0.00000000000E+00 0. -1.
         -1    1    6    6    0  503  0.23410513407E+03 -0.39715753669E+02  0.22988689417E+02  0.23856033771E+03  0.00000000000E+00 0.  1.
<mgrwt>
<rscale>  0 0.29236400E+04</rscale>
<asrwt>0</asrwt>
<pdfrwt beam="1">  1        2 0.35187543E+00 0.29236400E+04</pdfrwt>
<pdfrwt beam="2">  1       -1 0.14373818E+00 0.29236400E+04</pdfrwt>
<totfact> 0.17654519E+00</totfact>
</mgrwt>
</event>
<event>
12    7  0.1735955E-007  0.2779179E+04  0.7818608E-02  0.8309762E-01
         -1   -1    0    0    0  501 -0.00000000000E+00  0.00000000000E+00  0.43222185579E+03  0.43222185579E+03  0.00000000000E+00 0.  1.
          2   -1    0    0  501    0  0.00000000000E+00 -0.00000000000E+00 -0.44675187400E+04  0.44675187400E+04  0.00000000000E+00 0. -1.
         24    2    1    2    0    0  0.40822591827E+02 -0.10976486998E+04 -0.79003699043E+03  0.13552523647E+04  0.77790574762E+02 0.  0.
        254    2    1    2    0    0 -0.40822591827E+02  0.10976486998E+04 -0.32452598938E+04  0.35444882312E+04  0.90839742974E+03 0.  0.
         23    2    4    4    0    0  0.32019334312E+03  0.25911173165E+03 -0.52411061563E+03  0.67287260968E+03  0.91667578669E+02 0.  0.
         23    2    4    4    0    0 -0.36101593495E+03  0.83853696813E+03 -0.27211492782E+04  0.28716156215E+04  0.89700229836E+02 0.  0.
          2    1    3    3  502    0  0.10362686605E+02 -0.16664941943E+02 -0.11494580051E+02  0.22742711672E+02  0.00000000000E+00 0. -1.
         -1    1    3    3    0  502  0.30459905222E+02 -0.10809837578E+04 -0.77854241038E+03  0.13325096530E+04  0.00000000000E+00 0.  1.
         13    1    5    5    0    0  0.24051558920E+02 -0.54656591032E+01 -0.26028504710E+02  0.35858527205E+02  0.00000000000E+00 0. -1.
        -13    1    5    5    0    0  0.29614178420E+03  0.26457739075E+03 -0.49808211092E+03  0.63701408247E+03  0.00000000000E+00 0.  1.
          2    1    6    6  503    0 -0.25167596693E+03  0.58746756970E+03 -0.20284629600E+04  0.21267630141E+04  0.00000000000E+00 0.  1.
         -2    1    6    6    0  503 -0.10933996802E+03  0.25106939843E+03 -0.69268631814E+03  0.74485260742E+03  0.00000000000E+00 0. -1.
<mgrwt>
<rscale>  0 0.27791792E+04</rscale>
<asrwt>0</asrwt>
<pdfrwt beam="1">  1        2 0.68731065E+00 0.27791792E+04</pdfrwt>
<pdfrwt beam="2">  1       -1 0.66495663E-01 0.27791792E+04</pdfrwt>
<totfact> 0.30103745E-01</totfact>
</mgrwt>
</event>
<event>
12    7  0.1735955E-007  0.1127934E+04  0.7818608E-02  0.9178386E-01
         -1   -1    0    0    0  501 -0.00000000000E+00  0.00000000000E+00  0.29675181222E+03  0.29675181222E+03  0.00000000000E+00 0.  1.
          2   -1    0    0  501    0  0.00000000000E+00 -0.00000000000E+00 -0.10717997572E+04  0.10717997572E+04  0.00000000000E+00 0. -1.
         24    2    1    2    0    0  0.16363968866E+03 -0.60172327569E+02 -0.38669587536E+03  0.43166906750E+03  0.80036411153E+02 0.  0.
        254    2    1    2    0    0 -0.16363968866E+03  0.60172327569E+02 -0.38835206967E+03  0.93688250196E+03  0.83458542747E+03 0.  0.
         23    2    4    4    0    0  0.28777596427E+03 -0.15433958676E+03 -0.20715538935E+03  0.39755852721E+03  0.92215582020E+02 0.  0.
         23    2    4    4    0    0 -0.45141565294E+03  0.21451191433E+03 -0.18119668031E+03  0.53932397474E+03  0.90811120862E+02 0.  0.
          2    1    3    3  502    0  0.13855893756E+03 -0.13969373711E+02 -0.28287877748E+03  0.31530005602E+03  0.00000000000E+00 0. -1.
         -3    1    3    3    0  502  0.25080751100E+02 -0.46202953859E+02 -0.10381709788E+03  0.11636901148E+03  0.00000000000E+00 0.  1.
         13    1    5    5    0    0  0.15410140313E+03 -0.10432842896E+03 -0.16507772823E+03  0.24876157238E+03  0.00000000000E+00 0. -1.
        -13    1    5    5    0    0  0.13367456114E+03 -0.50011157800E+02 -0.42077661119E+02  0.14879695483E+03  0.00000000000E+00 0.  1.
          1    1    6    6  503    0 -0.37888329240E+03  0.17551367126E+03 -0.11348208871E+03  0.43270750226E+03  0.00000000000E+00 0. -1.
         -1    1    6    6    0  503 -0.72532360537E+02  0.38998243067E+02 -0.67714591608E+02  0.10661647248E+03  0.00000000000E+00 0.  1.
<mgrwt>
<rscale>  0 0.11279335E+04</rscale>
<asrwt>0</asrwt>
<pdfrwt beam="1">  1        2 0.16489227E+00 0.11279335E+04</pdfrwt>
<pdfrwt beam="2">  1       -1 0.45654125E-01 0.11279335E+04</pdfrwt>
<totfact> 0.12214663E+02</totfact>
</mgrwt>
</event>
<event>
12    7  0.1735955E-007  0.1971819E+04  0.7818608E-02  0.8619911E-01
         -1   -1    0    0    0  501 -0.00000000000E+00  0.00000000000E+00  0.25621615561E+04  0.25621615561E+04  0.00000000000E+00 0.  1.
          2   -1    0    0  501    0  0.00000000000E+00 -0.00000000000E+00 -0.37937385037E+03  0.37937385037E+03  0.00000000000E+00 0. -1.
         24    2    1    2    0    0  0.39466840832E+03 -0.40629290048E+03  0.69900620699E+02  0.57650779316E+03  0.81474322893E+02 0.  0.
        254    2    1    2    0    0 -0.39466840832E+03  0.40629290048E+03  0.21128870850E+04  0.23650276133E+04  0.89901429582E+03 0.  0.
         23    2    4    4    0    0  0.17986811806E+03 -0.72282716638E+02  0.14767457620E+03  0.26040398531E+03  0.91788474696E+02 0.  0.
         23    2    4    4    0    0 -0.57453652639E+03  0.47857561712E+03  0.19652125088E+04  0.21046236280E+04  0.90849156403E+02 0.  0.
          2    1    3    3  502    0  0.36740119969E+03 -0.39372215257E+03  0.80841180165E+02  0.54455125688E+03  0.00000000000E+00 0. -1.
         -1    1    3    3    0  502  0.27267208629E+02 -0.12570747909E+02 -0.10940559466E+02  0.31956536277E+02  0.00000000000E+00 0.  1.
         13    1    5    5    0    0  0.83273458105E+02  0.14247985102E+02  0.65180235446E+02  0.10670490615E+03  0.00000000000E+00 0. -1.
        -13    1    5    5    0    0  0.96594659959E+02 -0.86530701740E+02  0.82494340756E+02  0.15369907915E+03  0.00000000000E+00 0.  1.
          3    1    6    6  503    0 -0.41657969091E+03  0.32078709887E+03  0.14766881361E+04  0.15674982785E+04  0.00000000000E+00 0. -1.
         -3    1    6    6    0  503 -0.15795683548E+03  0.15778851824E+03  0.48852437269E+03  0.53712534950E+03  0.00000000000E+00 0.  1.
<mgrwt>
<rscale>  0 0.19718185E+04</rscale>
<asrwt>0</asrwt>
<pdfrwt beam="1">  1        2 0.58365209E-01 0.19718185E+04</pdfrwt>
<pdfrwt beam="2">  1       -1 0.39417869E+00 0.19718185E+04</pdfrwt>
<totfact> 0.70580020E-01</totfact>
</mgrwt>
</event>
<event>
12    7  0.1735955E-007  0.2118808E+04  0.7818608E-02  0.8553003E-01
         -1   -1    0    0    0  501 -0.00000000000E+00  0.00000000000E+00  0.68040775572E+03  0.68040775572E+03  0.00000000000E+00 0.  1.
          2   -1    0    0  501    0  0.00000000000E+00 -0.00000000000E+00 -0.16495062731E+04  0.16495062731E+04  0.00000000000E+00 0. -1.
         24    2    1    2    0    0 -0.26857338100E+03  0.23764723110E+03 -0.12634272557E+04  0.13158807981E+04  0.81767823449E+02 0.  0.
        254    2    1    2    0    0  0.26857338100E+03 -0.23764723110E+03  0.29432873835E+03  0.10140332307E+04  0.90167961010E+03 0.  0.
         23    2    4    4    0    0  0.41591368583E+03 -0.37881634566E+03  0.46192592530E+03  0.73386904217E+03  0.93285544351E+02 0.  0.
         23    2    4    4    0    0 -0.14734030483E+03  0.14116911457E+03 -0.16759718695E+03  0.28016418851E+03  0.93623026638E+02 0.  0.
          2    1    3    3  502    0 -0.20697191448E+03  0.18322956056E+03 -0.10811507158E+04  0.11159289025E+04  0.00000000000E+00 0. -1.
         -1    1    3    3    0  502 -0.61601466524E+02  0.54417670539E+02 -0.18227653994E+03  0.19995189561E+03  0.00000000000E+00 0.  1.
         13    1    5    5    0    0  0.23261300668E+03 -0.22350543312E+03  0.20552349296E+03  0.38249626883E+03  0.00000000000E+00 0.  1.
        -13    1    5    5    0    0  0.18330067915E+03 -0.15531091254E+03  0.25640243234E+03  0.35137277333E+03  0.00000000000E+00 0. -1.
          4    1    6    6  503    0  0.13215656688E+02  0.68010177475E+01 -0.77962860816E+01  0.16783608098E+02  0.00000000000E+00 0. -1.
         -4    1    6    6    0  503 -0.16055596152E+03  0.13436809682E+03 -0.15980090086E+03  0.26338058041E+03  0.00000000000E+00 0.  1.
<mgrwt>
<rscale>  0 0.21188080E+04</rscale>
<asrwt>0</asrwt>
<pdfrwt beam="1">  1        2 0.25377020E+00 0.21188080E+04</pdfrwt>
<pdfrwt beam="2">  1       -1 0.10467812E+00 0.21188080E+04</pdfrwt>
<totfact> 0.94026008E+00</totfact>
</mgrwt>
</event>
<event>
12    7  0.1735955E-007  0.1905192E+04  0.7818608E-02  0.8652276E-01
         -1   -1    0    0    0  501 -0.00000000000E+00  0.00000000000E+00  0.41558979201E+03  0.41558979201E+03  0.00000000000E+00 0.  1.
          2   -1    0    0  501    0  0.00000000000E+00 -0.00000000000E+00 -0.21834965055E+04  0.21834965055E+04  0.00000000000E+00 0. -1.
         24    2    1    2    0    0 -0.33793404355E+03  0.28526889068E+03  0.11373517624E+03  0.46341987027E+03  0.79022326398E+02 0.  0.
        254    2    1    2    0    0  0.33793404355E+03 -0.28526889068E+03 -0.18816418898E+04  0.21356664273E+04  0.90824948640E+03 0.  0.
         23    2    4    4    0    0  0.41994573495E+03  0.21482159780E+03 -0.10921200209E+04  0.11931414106E+04  0.91419616845E+02 0.  0.
         23    2    4    4    0    0 -0.82011691407E+02 -0.50009048848E+03 -0.78952186884E+03  0.94252501671E+03  0.90510836665E+02 0.  0.
          4    1    3    3  502    0  0.38165904499E+01  0.96243213811E+00  0.38184611462E+01  0.54839113603E+01  0.00000000000E+00 0. -1.
         -3    1    3    3    0  502 -0.34175063400E+03  0.28430645854E+03  0.10991671509E+03  0.45793595891E+03  0.00000000000E+00 0.  1.
         13    1    5    5    0    0  0.25122922811E+03  0.17274822048E+03 -0.64610082140E+03  0.71442588429E+03  0.00000000000E+00 0. -1.
        -13    1    5    5    0    0  0.16871650685E+03  0.42073377321E+02 -0.44601919953E+03  0.47871552629E+03  0.00000000000E+00 0.  1.
          2    1    6    6  503    0 -0.47671549846E+02 -0.15499203626E+03 -0.32078556230E+03  0.35944190761E+03  0.00000000000E+00 0. -1.
         -2    1    6    6    0  503 -0.34340141561E+02 -0.34509845221E+03 -0.46873630654E+03  0.58308310909E+03  0.00000000000E+00 0.  1.
<mgrwt>
<rscale>  0 0.19051917E+04</rscale>
<asrwt>0</asrwt>
<pdfrwt beam="1">  1        2 0.33592253E+00 0.19051917E+04</pdfrwt>
<pdfrwt beam="2">  1       -1 0.63936892E-01 0.19051917E+04</pdfrwt>
<totfact> 0.13951650E+01</totfact>
</mgrwt>
</event>
<event>
12    7  0.1735955E-007  0.1786179E+04  0.7818608E-02  0.8713684E-01
         -1   -1    0    0    0  501 -0.00000000000E+00  0.00000000000E+00  0.87896423503E+03  0.87896423503E+03  0.00000000000E+00 0.  1.
          2   -1    0    0  501    0  0.00000000000E+00 -0.00000000000E+00 -0.90744204079E+03  0.90744204079E+03  0.00000000000E+00 0. -1.
         24    2    1    2    0    0  0.22753087906E+02 -0.57792540792E+03 -0.34475969869E+03  0.67711029663E+03  0.71439651666E+02 0.  0.
        254    2    1    2    0    0 -0.22753087906E+02  0.57792540792E+03  0.31628189293E+03  0.11092959792E+04  0.89218151378E+03 0.  0.
         23    2    4    4    0    0 -0.82241040631E+01  0.80871390756E+03  0.23276574730E+03  0.84658090543E+03  0.91834177440E+02 0.  0.
         23    2    4    4    0    0 -0.14528983843E+02 -0.23078849964E+03  0.83516145630E+02  0.26271507377E+03  0.92573432820E+02 0.  0.
          2    1    3    3  502    0 -0.19312926355E+02 -0.32714758253E+03 -0.17681532851E+03  0.37237372393E+03  0.00000000000E+00 0. -1.
         -1    1    3    3    0  502  0.42066014261E+02 -0.25077782539E+03 -0.16794437017E+03  0.30473657269E+03  0.00000000000E+00 0.  1.
         13    1    5    5    0    0 -0.18622389754E+02  0.62431112011E+03  0.14083051611E+03  0.64026900781E+03  0.00000000000E+00 0. -1.
        -13    1    5    5    0    0  0.10398285691E+02  0.18440278746E+03  0.91935231185E+02  0.20631189762E+03  0.00000000000E+00 0.  1.
          4    1    6    6  503    0 -0.18935374253E+02 -0.70748065767E+02 -0.14962825392E+02  0.74751075923E+02  0.00000000000E+00 0.  1.
         -4    1    6    6    0  503  0.44063904099E+01 -0.16004043388E+03  0.98478971023E+02  0.18796399784E+03  0.00000000000E+00 0. -1.
<mgrwt>
<rscale>  0 0.17861793E+04</rscale>
<asrwt>0</asrwt>
<pdfrwt beam="1">  1        2 0.13960647E+00 0.17861793E+04</pdfrwt>
<pdfrwt beam="2">  1       -1 0.13522527E+00 0.17861793E+04</pdfrwt>
<totfact> 0.14339564E+01</totfact>
</mgrwt>
</event>
<event>
12    7  0.1735955E-007  0.1361564E+04  0.7818608E-02  0.8982120E-01
          2   -1    0    0  501    0  0.00000000000E+00  0.00000000000E+00  0.55855283188E+03  0.55855283188E+03  0.00000000000E+00 0. -1.
         -1   -1    0    0    0  501 -0.00000000000E+00 -0.00000000000E+00 -0.82975838215E+03  0.82975838215E+03  0.00000000000E+00 0.  1.
         24    2    1    2    0    0 -0.58855315824E+01  0.24244185457E+03 -0.39146120925E+03  0.46736881235E+03  0.79868868029E+02 0.  0.
        254    2    1    2    0    0  0.58855315824E+01 -0.24244185457E+03  0.12025565897E+03  0.92094240168E+03  0.88026177435E+03 0.  0.
         23    2    4    4    0    0  0.65858258820E+02 -0.72131314557E+02 -0.36844452019E+03  0.39168270152E+03  0.90131778081E+02 0.  0.
         23    2    4    4    0    0 -0.59972727238E+02 -0.17031054001E+03  0.48870017916E+03  0.52925970016E+03  0.93196336032E+02 0.  0.
          4    1    3    3  502    0 -0.41817146172E+02  0.10291689149E+03 -0.16222341691E+03  0.19661382775E+03  0.00000000000E+00 0. -1.
         -3    1    3    3    0  502  0.35931614589E+02  0.13952496308E+03 -0.22923779234E+03  0.27075498460E+03  0.00000000000E+00 0.  1.
         13    1    5    5    0    0  0.10657951390E+02 -0.76760479793E+02 -0.21195883908E+03  0.22568188374E+03  0.00000000000E+00 0. -1.
        -13    1    5    5    0    0  0.55200307430E+02  0.46291652357E+01 -0.15648568111E+03  0.16600081778E+03  0.00000000000E+00 0.  1.
          4    1    6    6  503    0 -0.52276526860E+01 -0.48877392127E+02  0.25991679213E+03  0.26452422695E+03  0.00000000000E+00 0.  1.
         -4    1    6    6    0  503 -0.54745074552E+02 -0.12143314788E+03  0.22878338703E+03  0.26473547321E+03  0.00000000000E+00 0. -1.
<mgrwt>
<rscale>  0 0.13615637E+04</rscale>
<asrwt>0</asrwt>
<pdfrwt beam="1">  1        2 0.85931206E-01 0.13615637E+04</pdfrwt>
<pdfrwt beam="2">  1       -1 0.12765513E+00 0.13615637E+04</pdfrwt>
<totfact> 0.32025959E+01</totfact>
</mgrwt>
</event>
<event>
12    7  0.1735955E-007  0.1377965E+04  0.7818608E-02  0.8969924E-01
         -1   -1    0    0    0  501 -0.00000000000E+00  0.00000000000E+00  0.24253073100E+03  0.24253073100E+03  0.00000000000E+00 0.  1.
          2   -1    0    0  501    0  0.00000000000E+00 -0.00000000000E+00 -0.19572662220E+04  0.19572662220E+04  0.00000000000E+00 0. -1.
         24    2    1    2    0    0  0.38704151585E+03 -0.46581982736E+00 -0.52821041195E+03  0.66003491341E+03  0.82695197268E+02 0.  0.
        254    2    1    2    0    0 -0.38704151585E+03  0.46581982736E+00 -0.11865250790E+04  0.15397620396E+04  0.90178934533E+03 0.  0.
         23    2    4    4    0    0 -0.11829634146E+03  0.41065016176E+03 -0.78875081227E+03  0.90177337978E+03  0.91868410651E+02 0.  0.
         23    2    4    4    0    0 -0.26874517439E+03 -0.41018434193E+03 -0.39777426674E+03  0.63798865977E+03  0.91268831452E+02 0.  0.
          2    1    3    3  502    0  0.35958094996E+03 -0.37003132023E+01 -0.44374155779E+03  0.57115560227E+03  0.00000000000E+00 0. -1.
         -1    1    3    3    0  502  0.27460565889E+02  0.32344933750E+01 -0.84468854159E+02  0.88879311143E+02  0.00000000000E+00 0.  1.
         13    1    5    5    0    0 -0.69594029317E+02  0.25920248179E+03 -0.58200871688E+03  0.64090826333E+03  0.00000000000E+00 0.  1.
        -13    1    5    5    0    0 -0.48702312141E+02  0.15144767997E+03 -0.20674209539E+03  0.26086511645E+03  0.00000000000E+00 0. -1.
          4    1    6    6  503    0 -0.16826885960E+03 -0.24393350300E+03 -0.18250996835E+03  0.34803426777E+03  0.00000000000E+00 0.  1.
         -4    1    6    6    0  503 -0.10047631479E+03 -0.16625083893E+03 -0.21526429839E+03  0.28995439200E+03  0.00000000000E+00 0. -1.
<mgrwt>
<rscale>  0 0.13779655E+04</rscale>
<asrwt>0</asrwt>
<pdfrwt beam="1">  1        2 0.30111788E+00 0.13779655E+04</pdfrwt>
<pdfrwt beam="2">  1       -1 0.37312420E-01 0.13779655E+04</pdfrwt>
<totfact> 0.54211665E+01</totfact>
</mgrwt>
</event>
<event>
12    7  0.1735955E-007  0.1304894E+04  0.7818608E-02  0.9025693E-01
          2   -1    0    0  501    0  0.00000000000E+00  0.00000000000E+00  0.11675496122E+04  0.11675496122E+04  0.00000000000E+00 0. -1.
         -1   -1    0    0    0  501 -0.00000000000E+00 -0.00000000000E+00 -0.36459858832E+03  0.36459858832E+03  0.00000000000E+00 0.  1.
         24    2    1    2    0    0  0.26506541827E+03  0.20065450761E+03  0.25881107028E+03  0.42940730224E+03  0.82979236727E+02 0.  0.
        254    2    1    2    0    0 -0.26506541827E+03 -0.20065450761E+03  0.54413995355E+03  0.11027408982E+04  0.89968177274E+03 0.  0.
         23    2    4    4    0    0 -0.24830113801E+03 -0.54163027851E+03  0.29909456154E+03  0.67297982385E+03  0.91801268159E+02 0.  0.
         23    2    4    4    0    0 -0.16764280260E+02  0.34097577089E+03  0.24504539201E+03  0.42976107438E+03  0.90010107657E+02 0.  0.
          4    1    3    3  502    0  0.10668039194E+03  0.71564841828E+02  0.15144055911E+03  0.19858619175E+03  0.00000000000E+00 0. -1.
         -3    1    3    3    0  502  0.15838502634E+03  0.12908966579E+03  0.10737051117E+03  0.23082111049E+03  0.00000000000E+00 0.  1.
         13    1    5    5    0    0 -0.20138474769E+02 -0.10910084781E+02  0.23868873007E+02  0.33080375067E+02  0.00000000000E+00 0.  1.
        -13    1    5    5    0    0 -0.22816266324E+03 -0.53072019373E+03  0.27522568853E+03  0.63989944878E+03  0.00000000000E+00 0. -1.
          1    1    6    6  503    0 -0.10023164642E+02  0.11036606417E+03  0.13349656895E+03  0.17350062210E+03  0.00000000000E+00 0.  1.
         -1    1    6    6    0  503 -0.67411156174E+01  0.23060970673E+03  0.11154882306E+03  0.25626045228E+03  0.00000000000E+00 0. -1.
<mgrwt>
<rscale>  0 0.13048938E+04</rscale>
<asrwt>0</asrwt>
<pdfrwt beam="1">  1        2 0.17962302E+00 0.13048938E+04</pdfrwt>
<pdfrwt beam="2">  1       -1 0.56092091E-01 0.13048938E+04</pdfrwt>
<totfact> 0.71166133E+01</totfact>
</mgrwt>
</event>
<event>
12    7  0.1735955E-007  0.2477726E+04  0.7818608E-02  0.8410964E-01
          2   -1    0    0  501    0  0.00000000000E+00  0.00000000000E+00  0.37796301896E+04  0.37796301896E+04  0.00000000000E+00 0. -1.
         -1   -1    0    0    0  501 -0.00000000000E+00 -0.00000000000E+00 -0.40606670196E+03  0.40606670196E+03  0.00000000000E+00 0.  1.
         24    2    1    2    0    0  0.72470906417E+03  0.79025454184E+03  0.15372158367E+04  0.18759138480E+04  0.79465514683E+02 0.  0.
        254    2    1    2    0    0 -0.72470906417E+03 -0.79025454184E+03  0.18363476509E+04  0.23097830435E+04  0.90178686205E+03 0.  0.
         23    2    4    4    0    0 -0.65047058262E+03 -0.72399324782E+03  0.79604169982E+03  0.12607278750E+04  0.92055338062E+02 0.  0.
         23    2    4    4    0    0 -0.74238481548E+02 -0.66261294017E+02  0.10403059511E+04  0.10490551685E+04  0.91533400709E+02 0.  0.
          4    1    3    3  502    0  0.52862132978E+03  0.52262489002E+03  0.10712811182E+04  0.13039250439E+04  0.00000000000E+00 0. -1.
         -3    1    3    3    0  502  0.19608773439E+03  0.26762965181E+03  0.46593471853E+03  0.57198880412E+03  0.00000000000E+00 0.  1.
         13    1    5    5    0    0 -0.57272224791E+03 -0.59952944274E+03  0.64833684546E+03  0.10525146038E+04  0.00000000000E+00 0. -1.
        -13    1    5    5    0    0 -0.77748334704E+02 -0.12446380508E+03  0.14770485436E+03  0.20821327125E+03  0.00000000000E+00 0.  1.
          3    1    6    6  503    0 -0.14839637500E+02 -0.61421005230E+02  0.31317377339E+03  0.31948484637E+03  0.00000000000E+00 0. -1.
         -3    1    6    6    0  503 -0.59398844049E+02 -0.48402887879E+01  0.72713217773E+03  0.72957032215E+03  0.00000000000E+00 0.  1.
<mgrwt>
<rscale>  0 0.24777263E+04</rscale>
<asrwt>0</asrwt>
<pdfrwt beam="1">  1        2 0.58148155E+00 0.24777263E+04</pdfrwt>
<pdfrwt beam="2">  1       -1 0.62471803E-01 0.24777263E+04</pdfrwt>
<totfact> 0.13475207E+00</totfact>
</mgrwt>
</event>
<event>
12    7  0.1735955E-007  0.2331396E+04  0.7818608E-02  0.8465644E-01
         -1   -1    0    0    0  501 -0.00000000000E+00  0.00000000000E+00  0.42984151029E+03  0.42984151029E+03  0.00000000000E+00 0.  1.
          2   -1    0    0  501    0  0.00000000000E+00 -0.00000000000E+00 -0.31612861144E+04  0.31612861144E+04  0.00000000000E+00 0. -1.
         24    2    1    2    0    0 -0.88310996987E+03 -0.43916653652E+03 -0.12564596584E+04  0.15991495359E+04  0.76406146161E+02 0.  0.
        254    2    1    2    0    0  0.88310996987E+03  0.43916653652E+03 -0.14749849457E+04  0.19919780888E+04  0.90534283593E+03 0.  0.
         23    2    4    4    0    0  0.50887745856E+02 -0.23002904469E+03 -0.17491195644E+03  0.30716750783E+03  0.90855716844E+02 0.  0.
         23    2    4    4    0    0  0.83222222401E+03  0.66919558121E+03 -0.13000729892E+04  0.16848105810E+04  0.89332862532E+02 0.  0.
          2    1    3    3  502    0 -0.79022319103E+03 -0.40513261853E+03 -0.10954255451E+04  0.14101568193E+04  0.00000000000E+00 0. -1.
         -1    1    3    3    0  502 -0.92886778837E+02 -0.34033917999E+02 -0.16103411327E+03  0.18899271651E+03  0.00000000000E+00 0.  1.
         13    1    5    5    0    0  0.22873191687E+02 -0.22213041204E+03 -0.15205655710E+03  0.27015976645E+03  0.00000000000E+00 0.  1.
        -13    1    5    5    0    0  0.28014554169E+02 -0.78986326434E+01 -0.22855399338E+02  0.37007741376E+02  0.00000000000E+00 0. -1.
          3    1    6    6  503    0  0.15589506426E+03  0.13580909243E+03 -0.20017936363E+03  0.28778317927E+03  0.00000000000E+00 0. -1.
         -3    1    6    6    0  503  0.67632715976E+03  0.53338648878E+03 -0.10998936256E+04  0.13970274017E+04  0.00000000000E+00 0.  1.
<mgrwt>
<rscale>  0 0.23313961E+04</rscale>
<asrwt>0</asrwt>
<pdfrwt beam="1">  1        2 0.48635169E+00 0.23313961E+04</pdfrwt>
<pdfrwt beam="2">  1       -1 0.66129466E-01 0.23313961E+04</pdfrwt>
<totfact> 0.32797937E+00</totfact>
</mgrwt>
</event>
<event>
12    7  0.1735955E-007  0.2454385E+04  0.7818608E-02  0.8419419E-01
          2   -1    0    0  501    0  0.00000000000E+00  0.00000000000E+00  0.16620048555E+04  0.16620048555E+04  0.00000000000E+00 0. -1.
         -1   -1    0    0    0  501 -0.00000000000E+00 -0.00000000000E+00 -0.90613542063E+03  0.90613542063E+03  0.00000000000E+00 0.  1.
         24    2    1    2    0    0 -0.53330243917E+03  0.26003269128E+03  0.12346356000E+04  0.13721779257E+04  0.80738483501E+02 0.  0.
        254    2    1    2    0    0  0.53330243917E+03 -0.26003269128E+03 -0.47876616515E+03  0.11959623504E+04  0.92145559341E+03 0.  0.
         23    2    4    4    0    0  0.12428892498E+03  0.17601872253E+03 -0.53784533144E+03  0.58653979573E+03  0.91219536638E+02 0.  0.
         23    2    4    4    0    0  0.40901351419E+03 -0.43605141382E+03  0.59079166288E+02  0.60942255472E+03  0.10233578079E+03 0.  0.
          2    1    3    3  502    0 -0.26079858449E+03  0.90145534246E+02  0.51895544370E+03  0.58775579245E+03  0.00000000000E+00 0. -1.
         -1    1    3    3    0  502 -0.27250385468E+03  0.16988715704E+03  0.71568015632E+03  0.78442213323E+03  0.00000000000E+00 0.  1.
         13    1    5    5    0    0  0.37732420674E+02  0.45147551399E+02 -0.26808648388E+03  0.27446748406E+03  0.00000000000E+00 0. -1.
        -13    1    5    5    0    0  0.86556504306E+02  0.13087117114E+03 -0.26975884756E+03  0.31207231167E+03  0.00000000000E+00 0.  1.
          3    1    6    6  503    0  0.86317469911E+02 -0.39333290494E+02  0.16311193624E+02  0.96248991633E+02  0.00000000000E+00 0. -1.
         -3    1    6    6    0  503  0.32269604428E+03 -0.39671812332E+03  0.42767972664E+02  0.51317356309E+03  0.00000000000E+00 0.  1.
<mgrwt>
<rscale>  0 0.24543850E+04</rscale>
<asrwt>0</asrwt>
<pdfrwt beam="1">  1        2 0.25569305E+00 0.24543850E+04</pdfrwt>
<pdfrwt beam="2">  1       -1 0.13940545E+00 0.24543850E+04</pdfrwt>
<totfact> 0.44488739E+00</totfact>
</mgrwt>
</event>
<event>
12    7  0.1735955E-007  0.1365355E+04  0.7818608E-02  0.8979285E-01
          2   -1    0    0  501    0  0.00000000000E+00  0.00000000000E+00  0.49854902777E+03  0.49854902777E+03  0.00000000000E+00 0. -1.
         -1   -1    0    0    0  501 -0.00000000000E+00 -0.00000000000E+00 -0.93481014203E+03  0.93481014203E+03  0.00000000000E+00 0.  1.
         24    2    1    2    0    0  0.32788839513E+03  0.45422418953E+02  0.65009650285E+02  0.34650165372E+03  0.79140037864E+02 0.  0.
        254    2    1    2    0    0 -0.32788839513E+03 -0.45422418953E+02 -0.50127076455E+03  0.10868575161E+04  0.90576646276E+03 0.  0.
         23    2    4    4    0    0  0.29763739223E+03  0.47586997423E+02 -0.92640840545E+02  0.32839209211E+03  0.91686974251E+02 0.  0.
         23    2    4    4    0    0 -0.62552578736E+03 -0.93009416376E+02 -0.40862992401E+03  0.75846542397E+03  0.91422767340E+02 0.  0.
          4    1    3    3  502    0  0.27557158179E+03  0.47910928517E+02  0.81934327602E+02  0.29145906711E+03  0.00000000000E+00 0. -1.
         -3    1    3    3    0  502  0.52316813338E+02 -0.24885095637E+01 -0.16924677317E+02  0.55042586603E+02  0.00000000000E+00 0.  1.
         13    1    5    5    0    0  0.99203880563E+02  0.60275524636E+02 -0.29514972285E+02  0.11977346274E+03  0.00000000000E+00 0. -1.
        -13    1    5    5    0    0  0.19843351166E+03 -0.12688527213E+02 -0.63125868260E+02  0.20861862936E+03  0.00000000000E+00 0.  1.
          4    1    6    6  503    0 -0.46836116944E+03 -0.94177088425E+02 -0.26918697116E+03  0.54835493475E+03  0.00000000000E+00 0. -1.
         -4    1    6    6    0  503 -0.15716461791E+03  0.11676720484E+01 -0.13944295285E+03  0.21011048922E+03  0.00000000000E+00 0.  1.
<mgrwt>
<rscale>  0 0.13653552E+04</rscale>
<asrwt>0</asrwt>
<pdfrwt beam="1">  1        2 0.76699852E-01 0.13653552E+04</pdfrwt>
<pdfrwt beam="2">  1       -1 0.14381694E+00 0.13653552E+04</pdfrwt>
<totfact> 0.26922908E+01</totfact>
</mgrwt>
</event>
<event>
12    7  0.1735955E-007  0.2791821E+04  0.7818608E-02  0.8305812E-01
          2   -1    0    0  501    0  0.00000000000E+00  0.00000000000E+00  0.13802628385E+04  0.13802628385E+04  0.00000000000E+00 0. -1.
         -1   -1    0    0    0  501 -0.00000000000E+00 -0.00000000000E+00 -0.14117354838E+04  0.14117354838E+04  0.00000000000E+00 0.  1.
         24    2    1    2    0    0  0.36097026112E+03 -0.11871015477E+04 -0.17649056806E+03  0.12560184250E+04  0.83209069737E+02 0.  0.
        254    2    1    2    0    0 -0.36097026112E+03  0.11871015477E+04  0.14501792271E+03  0.15359798973E+04  0.89369705885E+03 0.  0.
         23    2    4    4    0    0 -0.54132073044E+03  0.60242939780E+03  0.34653233932E+03  0.88558236641E+03  0.90676088095E+02 0.  0.
         23    2    4    4    0    0  0.18035046932E+03  0.58467214990E+03 -0.20151441661E+03  0.65039753088E+03  0.89672032572E+02 0.  0.
          2    1    3    3  502    0  0.17430109873E+02 -0.36440291701E+02  0.77081881657E+01  0.41123226457E+02  0.00000000000E+00 0. -1.
         -1    1    3    3    0  502  0.34354015125E+03 -0.11506612560E+04 -0.18419875623E+03  0.12148951985E+04  0.00000000000E+00 0.  1.
         13    1    5    5    0    0 -0.39177877097E+03  0.38290671477E+03  0.20772857669E+03  0.58588336652E+03  0.00000000000E+00 0.  1.
        -13    1    5    5    0    0 -0.14954195947E+03  0.21952268304E+03  0.13880376263E+03  0.29969899988E+03  0.00000000000E+00 0. -1.
          4    1    6    6  503    0  0.13840579903E+03  0.32649540284E+03 -0.14302296404E+03  0.38237544577E+03  0.00000000000E+00 0. -1.
         -4    1    6    6    0  503  0.41944670287E+02  0.25817674705E+03 -0.58491452571E+02  0.26802208511E+03  0.00000000000E+00 0.  1.
<mgrwt>
<rscale>  0 0.27918209E+04</rscale>
<asrwt>0</asrwt>
<pdfrwt beam="1">  1        2 0.21234813E+00 0.27918209E+04</pdfrwt>
<pdfrwt beam="2">  1       -1 0.21719007E+00 0.27918209E+04</pdfrwt>
<totfact> 0.16932368E+00</totfact>
</mgrwt>
</event>
<event>
12    7  0.1735955E-007  0.2122568E+04  0.7818608E-02  0.8551367E-01
          2   -1    0    0  501    0  0.00000000000E+00  0.00000000000E+00  0.18746275909E+04  0.18746275909E+04  0.00000000000E+00 0. -1.
         -1   -1    0    0    0  501 -0.00000000000E+00 -0.00000000000E+00 -0.60082549988E+03  0.60082549988E+03  0.00000000000E+00 0.  1.
         24    2    1    2    0    0  0.24833176771E+03 -0.57660141086E+03  0.12417962506E+04  0.13937432326E+04  0.79526200350E+02 0.  0.
        254    2    1    2    0    0 -0.24833176771E+03  0.57660141086E+03  0.32005840479E+02  0.10817098582E+04  0.88030335097E+03 0.  0.
         23    2    4    4    0    0 -0.10192363132E+03 -0.90068007339E+02  0.30069640743E+03  0.34267420102E+03  0.92231263854E+02 0.  0.
         23    2    4    4    0    0 -0.14640813639E+03  0.66666941820E+03 -0.26869056695E+03  0.73903565723E+03  0.89975698469E+02 0.  0.
          4    1    3    3  502    0  0.21669919532E+03 -0.51280862850E+03  0.10380493951E+04  0.11779124660E+04  0.00000000000E+00 0. -1.
         -3    1    3    3    0  502  0.31632572392E+02 -0.63792782366E+02  0.20374685543E+03  0.21583076661E+03  0.00000000000E+00 0.  1.
         13    1    5    5    0    0 -0.42886939075E+02 -0.65841395520E+02  0.76854077364E+02  0.10991327543E+03  0.00000000000E+00 0. -1.
        -13    1    5    5    0    0 -0.59036692244E+02 -0.24226611818E+02  0.22384233007E+03  0.23276092559E+03  0.00000000000E+00 0.  1.
          4    1    6    6  503    0  0.31179475856E+01  0.48550747259E+00  0.28589192982E+01  0.42580199866E+01  0.00000000000E+00 0. -1.
         -4    1    6    6    0  503 -0.14952608398E+03  0.66618391073E+03 -0.27154948625E+03  0.73477763724E+03  0.00000000000E+00 0.  1.
<mgrwt>
<rscale>  0 0.21225683E+04</rscale>
<asrwt>0</asrwt>
<pdfrwt beam="1">  1        2 0.28840424E+00 0.21225683E+04</pdfrwt>
<pdfrwt beam="2">  1       -1 0.92434693E-01 0.21225683E+04</pdfrwt>
<totfact> 0.93514296E+00</totfact>
</mgrwt>
</event>
<event>
12    7  0.1735955E-007  0.2262774E+04  0.7818608E-02  0.8492745E-01
         -1   -1    0    0    0  501 -0.00000000000E+00  0.00000000000E+00  0.66965898717E+03  0.66965898717E+03  0.00000000000E+00 0.  1.
          2   -1    0    0  501    0  0.00000000000E+00 -0.00000000000E+00 -0.19114745572E+04  0.19114745572E+04  0.00000000000E+00 0. -1.
         24    2    1    2    0    0 -0.35720945285E+03  0.12732140655E+03 -0.15130679998E+04  0.15618321462E+04  0.78329733160E+02 0.  0.
        254    2    1    2    0    0  0.35720945285E+03 -0.12732140655E+03  0.27125242986E+03  0.10193013981E+04  0.90641498535E+03 0.  0.
         23    2    4    4    0    0 -0.20887003346E+02 -0.18876067360E+03  0.51450405270E+03  0.55625604255E+03  0.92948941974E+02 0.  0.
         23    2    4    4    0    0  0.37809645620E+03  0.61439267058E+02 -0.24325162285E+03  0.46304535554E+03  0.92238471058E+02 0.  0.
          4    1    3    3  502    0 -0.31594853308E+03  0.83073231302E+02 -0.12845700107E+04  0.13254602030E+04  0.00000000000E+00 0. -1.
         -3    1    3    3    0  502 -0.41260919777E+02  0.44248175245E+02 -0.22849798910E+03  0.23637194321E+03  0.00000000000E+00 0.  1.
         13    1    5    5    0    0 -0.36484282034E+02 -0.14509490161E+03  0.46478449224E+03  0.48827068060E+03  0.00000000000E+00 0. -1.
        -13    1    5    5    0    0  0.15597278688E+02 -0.43665771992E+02  0.49719560464E+02  0.67985361945E+02  0.00000000000E+00 0.  1.
          1    1    6    6  503    0  0.19370535044E+03 -0.15073985974E+02 -0.12458491763E+03  0.23080379014E+03  0.00000000000E+00 0. -1.
         -1    1    6    6    0  503  0.18439110576E+03  0.76513253032E+02 -0.11866670521E+03  0.23224156540E+03  0.00000000000E+00 0.  1.
<mgrwt>
<rscale>  0 0.22627736E+04</rscale>
<asrwt>0</asrwt>
<pdfrwt beam="1">  1        2 0.29407301E+00 0.22627736E+04</pdfrwt>
<pdfrwt beam="2">  1       -1 0.10302446E+00 0.22627736E+04</pdfrwt>
<totfact> 0.68918338E+00</totfact>
</mgrwt>
</event>
<event>
12    7  0.1735955E-007  0.2855643E+04  0.7818608E-02  0.8286199E-01
         -1   -1    0    0    0  501 -0.00000000000E+00  0.00000000000E+00  0.79606952685E+03  0.79606952685E+03  0.00000000000E+00 0.  1.
          2   -1    0    0  501    0  0.00000000000E+00 -0.00000000000E+00 -0.25609243019E+04  0.25609243019E+04  0.00000000000E+00 0. -1.
         24    2    1    2    0    0 -0.84038988321E+03 -0.42474116650E+03 -0.18180451862E+04  0.20490158805E+04  0.80731438266E+02 0.  0.
        254    2    1    2    0    0  0.84038988321E+03  0.42474116650E+03  0.53190411092E+02  0.13079779483E+04  0.90626534695E+03 0.  0.
         23    2    4    4    0    0 -0.17413934287E+03  0.88149034481E+02 -0.74014193053E+02  0.22762343950E+03  0.90772057496E+02 0.  0.
         23    2    4    4    0    0  0.10145292261E+04  0.33659213202E+03  0.12720460414E+03  0.10803545088E+04  0.91766221756E+02 0.  0.
          4    1    3    3  502    0 -0.55039826108E+03 -0.24807303550E+03 -0.12231586014E+04  0.13640364515E+04  0.00000000000E+00 0. -1.
         -3    1    3    3    0  502 -0.28999162213E+03 -0.17666813100E+03 -0.59488658475E+03  0.68497942899E+03  0.00000000000E+00 0.  1.
         13    1    5    5    0    0 -0.15331939526E+03  0.65193790526E+02 -0.23350366115E+02  0.16823289477E+03  0.00000000000E+00 0.  1.
        -13    1    5    5    0    0 -0.20819947615E+02  0.22955243955E+02 -0.50663826938E+02  0.59390544733E+02  0.00000000000E+00 0. -1.
          1    1    6    6  503    0  0.38381999720E+03  0.12103060680E+03  0.92377702673E+02  0.41291626026E+03  0.00000000000E+00 0. -1.
         -1    1    6    6    0  503  0.63070922888E+03  0.21556152522E+03  0.34826901471E+02  0.66743824854E+03  0.00000000000E+00 0.  1.
<mgrwt>
<rscale>  0 0.28556427E+04</rscale>
<asrwt>0</asrwt>
<pdfrwt beam="1">  1        2 0.39398835E+00 0.28556427E+04</pdfrwt>
<pdfrwt beam="2">  1       -1 0.12247224E+00 0.28556427E+04</pdfrwt>
<totfact> 0.18591859E+00</totfact>
</mgrwt>
</event>
<event>
12    7  0.1735955E-007  0.1812287E+04  0.7818608E-02  0.8699793E-01
         -1   -1    0    0    0  501 -0.00000000000E+00  0.00000000000E+00  0.41483139082E+03  0.41483139082E+03  0.00000000000E+00 0.  1.
          2   -1    0    0  501    0  0.00000000000E+00 -0.00000000000E+00 -0.19793482644E+04  0.19793482644E+04  0.00000000000E+00 0. -1.
         24    2    1    2    0    0  0.28457668855E+03  0.32781625850E+03  0.14389332451E+03  0.46412800994E+03  0.79133619728E+02 0.  0.
        254    2    1    2    0    0 -0.28457668855E+03 -0.32781625850E+03 -0.17084101981E+04  0.19300516453E+04  0.78612121043E+03 0.  0.
         23    2    4    4    0    0 -0.14060843087E+03 -0.11673798981E+03 -0.15063941756E+01  0.20182336014E+03  0.85626575185E+02 0.  0.
         23    2    4    4    0    0 -0.14396825767E+03 -0.21107826869E+03 -0.17069038039E+04  0.17282282851E+04  0.89283341092E+02 0.  0.
          2    1    3    3  502    0  0.14262011970E+03  0.22074981637E+03  0.73530000358E+02  0.27290591954E+03  0.00000000000E+00 0. -1.
         -1    1    3    3    0  502  0.14195656885E+03  0.10706644214E+03  0.70363324155E+02  0.19122209040E+03  0.00000000000E+00 0.  1.
         13    1    5    5    0    0 -0.48432494876E+02 -0.79007701161E+02 -0.31381337863E+02  0.97840235940E+02  0.00000000000E+00 0. -1.
        -13    1    5    5    0    0 -0.92175935996E+02 -0.37730288650E+02  0.29874943688E+02  0.10398312420E+03  0.00000000000E+00 0.  1.
          1    1    6    6  503    0 -0.87672565249E+02 -0.63882560265E+02 -0.85686503854E+03  0.86370432121E+03  0.00000000000E+00 0. -1.
         -1    1    6    6    0  503 -0.56295692425E+02 -0.14719570843E+03 -0.85003876535E+03  0.86452396391E+03  0.00000000000E+00 0.  1.
<mgrwt>
<rscale>  0 0.18122867E+04</rscale>
<asrwt>0</asrwt>
<pdfrwt beam="1">  1        2 0.30451512E+00 0.18122867E+04</pdfrwt>
<pdfrwt beam="2">  1       -1 0.63820214E-01 0.18122867E+04</pdfrwt>
<totfact> 0.18347186E+01</totfact>
</mgrwt>
</event>
<event>
12    7  0.1786814E-007  0.1732359E+04  0.7818608E-02  0.8743121E-01
          2   -1    0    0  501    0  0.00000000000E+00  0.00000000000E+00  0.93279291599E+03  0.93279291599E+03  0.00000000000E+00 0. -1.
         -1   -1    0    0    0  501 -0.00000000000E+00 -0.00000000000E+00 -0.80432318630E+03  0.80432318630E+03  0.00000000000E+00 0.  1.
         24    2    1    2    0    0 -0.60612911137E+03  0.13080582042E+03  0.16327966930E+03  0.64592148953E+03  0.77792402758E+02 0.  0.
        254    2    1    2    0    0  0.60612911137E+03 -0.13080582042E+03 -0.34809939613E+02  0.10911946128E+04  0.89721306763E+03 0.  0.
         23    2    4    4    0    0 -0.32438461435E+02 -0.31234893783E+03  0.19714164397E+03  0.38199987114E+03  0.91896469049E+02 0.  0.
         23    2    4    4    0    0  0.63856757280E+03  0.18154311741E+03 -0.23195158358E+03  0.70919474162E+03  0.91810652461E+02 0.  0.
          2    1    3    3  502    0 -0.59372580639E+03  0.11672533802E+03  0.15150909828E+03  0.62377090712E+03  0.00000000000E+00 0. -1.
         -1    1    3    3    0  502 -0.12403304979E+02  0.14080482399E+02  0.11770571017E+02  0.22150582409E+02  0.00000000000E+00 0.  1.
         13    1    5    5    0    0 -0.45491814493E+02 -0.29337553640E+03  0.15729539163E+03  0.33597700929E+03  0.00000000000E+00 0. -1.
        -13    1    5    5    0    0  0.13053353058E+02 -0.18973401433E+02  0.39846252338E+02  0.46022861856E+02  0.00000000000E+00 0.  1.
          2    1    6    6  503    0  0.62401401705E+03  0.16376409918E+03 -0.21295823367E+03  0.67938456189E+03  0.00000000000E+00 0. -1.
         -2    1    6    6    0  503  0.14553555751E+02  0.17779018238E+02 -0.18993349911E+02  0.29810179727E+02  0.00000000000E+00 0.  1.
<mgrwt>
<rscale>  0 0.17323591E+04</rscale>
<asrwt>0</asrwt>
<pdfrwt beam="1">  1        2 0.14350660E+00 0.17323591E+04</pdfrwt>
<pdfrwt beam="2">  1       -1 0.12374203E+00 0.17323591E+04</pdfrwt>
<totfact> 0.17327025E+01</totfact>
</mgrwt>
</event>
<event>
12    7  0.1735955E-007  0.1186278E+04  0.7818608E-02  0.9124953E-01
         -1   -1    0    0    0  501 -0.00000000000E+00  0.00000000000E+00  0.28400251016E+03  0.28400251016E+03  0.00000000000E+00 0.  1.
          2   -1    0    0  501    0  0.00000000000E+00 -0.00000000000E+00 -0.12387710530E+04  0.12387710530E+04  0.00000000000E+00 0. -1.
         24    2    1    2    0    0 -0.14689703355E+03 -0.17249974306E+03 -0.25214295735E+03  0.34820553268E+03  0.79599762743E+02 0.  0.
        254    2    1    2    0    0  0.14689703355E+03  0.17249974306E+03 -0.70262558554E+03  0.11745680305E+04  0.91356031276E+03 0.  0.
         23    2    4    4    0    0  0.43529145894E+03  0.29061379698E+03 -0.65980418571E+03  0.84699189755E+03  0.90103705856E+02 0.  0.
         23    2    4    4    0    0 -0.28839442538E+03 -0.11811405392E+03 -0.42821399829E+02  0.32757613297E+03  0.91379298999E+02 0.  0.
          2    1    3    3  502    0 -0.15022787716E+03 -0.17804952357E+03 -0.24908315630E+03  0.34104613570E+03  0.00000000000E+00 0. -1.
         -1    1    3    3    0  502  0.33308436026E+01  0.55497805094E+01 -0.30598010428E+01  0.71593969878E+01  0.00000000000E+00 0.  1.
         13    1    5    5    0    0  0.15472089096E+02  0.25722154849E+02 -0.69535571248E+02  0.75737774326E+02  0.00000000000E+00 0.  1.
        -13    1    5    5    0    0  0.41981936984E+03  0.26489164213E+03 -0.59026861447E+03  0.77125412322E+03  0.00000000000E+00 0. -1.
          1    1    6    6  503    0 -0.28830815772E+03 -0.11668376640E+03 -0.54539384747E+02  0.31577086572E+03  0.00000000000E+00 0. -1.
         -1    1    6    6    0  503 -0.86267666829E-01 -0.14302875240E+01  0.11717984918E+02  0.11805267259E+02  0.00000000000E+00 0.  1.
<mgrwt>
<rscale>  0 0.11862784E+04</rscale>
<asrwt>0</asrwt>
<pdfrwt beam="1">  1        2 0.19058017E+00 0.11862784E+04</pdfrwt>
<pdfrwt beam="2">  1       -1 0.43692693E-01 0.11862784E+04</pdfrwt>
<totfact> 0.10456576E+02</totfact>
</mgrwt>
</event>
<event>
12    7  0.1735955E-007  0.2398475E+04  0.7818608E-02  0.8440075E-01
          2   -1    0    0  501    0  0.00000000000E+00  0.00000000000E+00  0.10722728926E+04  0.10722728926E+04  0.00000000000E+00 0. -1.
         -1   -1    0    0    0  501 -0.00000000000E+00 -0.00000000000E+00 -0.13412359665E+04  0.13412359665E+04  0.00000000000E+00 0.  1.
         24    2    1    2    0    0 -0.67697176921E+03  0.66214904546E+03 -0.38845287808E+03  0.10266655757E+04  0.80090143293E+02 0.  0.
        254    2    1    2    0    0  0.67697176921E+03 -0.66214904546E+03  0.11948980414E+03  0.13868432834E+04  0.10061433023E+04 0.  0.
         23    2    4    4    0    0 -0.10937411504E+03  0.10485805048E+03 -0.17240113080E+03  0.24705225461E+03  0.91404369801E+02 0.  0.
         23    2    4    4    0    0  0.78634588424E+03 -0.76700709594E+03  0.29189093494E+03  0.11397910288E+04  0.85343637793E+02 0.  0.
          2    1    3    3  502    0 -0.55508292560E+03  0.56303447307E+03 -0.35159133530E+03  0.86529841050E+03  0.00000000000E+00 0. -1.
         -1    1    3    3    0  502 -0.12188884361E+03  0.99114572384E+02 -0.36861542784E+02  0.16136716516E+03  0.00000000000E+00 0.  1.
         13    1    5    5    0    0  0.10620335625E+02  0.28522800322E+02 -0.54055091343E+02  0.62034623938E+02  0.00000000000E+00 0. -1.
        -13    1    5    5    0    0 -0.11999445066E+03  0.76335250161E+02 -0.11834603946E+03  0.18501763068E+03  0.00000000000E+00 0.  1.
          2    1    6    6  503    0  0.18031606765E+03 -0.17967092559E+03  0.10529679442E+03  0.27546858382E+03  0.00000000000E+00 0. -1.
         -2    1    6    6    0  503  0.60602981659E+03 -0.58733617035E+03  0.18659414052E+03  0.86432244496E+03  0.00000000000E+00 0.  1.
<mgrwt>
<rscale>  0 0.23984753E+04</rscale>
<asrwt>0</asrwt>
<pdfrwt beam="1">  1        2 0.16496506E+00 0.23984753E+04</pdfrwt>
<pdfrwt beam="2">  1       -1 0.20634399E+00 0.23984753E+04</pdfrwt>
<totfact> 0.31640542E+00</totfact>
</mgrwt>
</event>
<event>
12    7  0.1735955E-007  0.2398284E+04  0.7818608E-02  0.8440146E-01
          2   -1    0    0  501    0  0.00000000000E+00  0.00000000000E+00  0.29000471939E+04  0.29000471939E+04  0.00000000000E+00 0. -1.
         -1   -1    0    0    0  501 -0.00000000000E+00 -0.00000000000E+00 -0.49583370015E+03  0.49583370015E+03  0.00000000000E+00 0.  1.
         24    2    1    2    0    0 -0.99057773450E+03  0.55185246259E+02  0.65678799013E+03  0.11924556810E+04  0.79312216144E+02 0.  0.
        254    2    1    2    0    0  0.99057773450E+03 -0.55185246259E+02  0.17474255036E+04  0.22034252130E+04  0.90404486579E+03 0.  0.
         23    2    4    4    0    0  0.89176608979E+03 -0.68144091797E+02  0.18342082401E+04  0.20426433615E+04  0.90452517182E+02 0.  0.
         23    2    4    4    0    0  0.98811644707E+02  0.12958845538E+02 -0.86782736562E+02  0.16078185154E+03  0.91585411575E+02 0.  0.
          4    1    3    3  502    0 -0.60930062779E+03  0.73248484854E+01  0.36895371311E+03  0.71233963167E+03  0.00000000000E+00 0. -1.
         -3    1    3    3    0  502 -0.38127710671E+03  0.47860397774E+02  0.28783427703E+03  0.48011604931E+03  0.00000000000E+00 0.  1.
         13    1    5    5    0    0  0.34921255141E+03 -0.33515545751E+02  0.82051408647E+03  0.89236543185E+03  0.00000000000E+00 0.  1.
        -13    1    5    5    0    0  0.54255353838E+03 -0.34628546047E+02  0.10136941537E+04  0.11502779296E+04  0.00000000000E+00 0. -1.
          1    1    6    6  503    0  0.37775368386E+01 -0.26845055816E+02 -0.17055338321E+01  0.27163130379E+02  0.00000000000E+00 0. -1.
         -1    1    6    6    0  503  0.95034107869E+02  0.39803901355E+02 -0.85077202730E+02  0.13361872116E+03  0.00000000000E+00 0.  1.
<mgrwt>
<rscale>  0 0.23982837E+04</rscale>
<asrwt>0</asrwt>
<pdfrwt beam="1">  1        2 0.44616109E+00 0.23982837E+04</pdfrwt>
<pdfrwt beam="2">  1       -1 0.76282110E-01 0.23982837E+04</pdfrwt>
<totfact> 0.35469013E+00</totfact>
</mgrwt>
</event>
<event>
12    7  0.1735955E-007  0.1478276E+04  0.7818608E-02  0.8899029E-01
         -1   -1    0    0    0  501 -0.00000000000E+00  0.00000000000E+00  0.36778150281E+03  0.36778150281E+03  0.00000000000E+00 0.  1.
          2   -1    0    0  501    0  0.00000000000E+00 -0.00000000000E+00 -0.14854614936E+04  0.14854614936E+04  0.00000000000E+00 0. -1.
         24    2    1    2    0    0  0.13596914810E+03  0.74127002452E+02  0.19157531983E+03  0.26010455359E+03  0.83491639712E+02 0.  0.
        254    2    1    2    0    0 -0.13596914810E+03 -0.74127002452E+02 -0.13092553106E+04  0.15931384428E+04  0.89440382820E+03 0.  0.
         23    2    4    4    0    0 -0.33600732337E+03 -0.37883172937E+03 -0.90816525785E+03  0.10438107978E+04  0.91446407420E+02 0.  0.
         23    2    4    4    0    0  0.20003817527E+03  0.30470472692E+03 -0.40109005275E+03  0.54932764505E+03  0.89595697574E+02 0.  0.
          4    1    3    3  502    0  0.60520885203E+02  0.91322357217E+01  0.25172695965E+02  0.66180358848E+02  0.00000000000E+00 0. -1.
         -3    1    3    3    0  502  0.75448262894E+02  0.64994766731E+02  0.16640262386E+03  0.19392419474E+03  0.00000000000E+00 0.  1.
         13    1    5    5    0    0  0.22415321561E+00 -0.23234841750E+00 -0.30905302388E+02  0.30906988630E+02  0.00000000000E+00 0. -1.
        -13    1    5    5    0    0 -0.33623147658E+03 -0.37859938096E+03 -0.87725995547E+03  0.10129038091E+04  0.00000000000E+00 0.  1.
          2    1    6    6  503    0  0.12783139115E+03  0.12578231736E+03 -0.22836418430E+03  0.29036572903E+03  0.00000000000E+00 0. -1.
         -2    1    6    6    0  503  0.72206784124E+02  0.17892240956E+03 -0.17272586845E+03  0.25896191602E+03  0.00000000000E+00 0.  1.
<mgrwt>
<rscale>  0 0.14782764E+04</rscale>
<asrwt>0</asrwt>
<pdfrwt beam="1">  1        2 0.22853254E+00 0.14782764E+04</pdfrwt>
<pdfrwt beam="2">  1       -1 0.56581770E-01 0.14782764E+04</pdfrwt>
<totfact> 0.45098339E+01</totfact>
</mgrwt>
</event>
<event>
12    7  0.1735955E-007  0.2577295E+04  0.7818608E-02  0.8375955E-01
         -1   -1    0    0    0  501 -0.00000000000E+00  0.00000000000E+00  0.70359790080E+03  0.70359790080E+03  0.00000000000E+00 0.  1.
          2   -1    0    0  501    0  0.00000000000E+00 -0.00000000000E+00 -0.23601728174E+04  0.23601728174E+04  0.00000000000E+00 0. -1.
         24    2    1    2    0    0  0.10918242867E+04  0.29340286809E+03 -0.61711869172E+03  0.12904984553E+04  0.79907868497E+02 0.  0.
        254    2    1    2    0    0 -0.10918242867E+04 -0.29340286809E+03 -0.10394562249E+04  0.17732722629E+04  0.88648731452E+03 0.  0.
         23    2    4    4    0    0 -0.64312007311E+03 -0.57550270871E+03 -0.45815307961E+03  0.98130499810E+03  0.90821026055E+02 0.  0.
         23    2    4    4    0    0 -0.44870421360E+03  0.28209984062E+03 -0.58130314526E+03  0.79196726477E+03  0.91558781114E+02 0.  0.
          4    1    3    3  502    0  0.73244064971E+02  0.91610679327E+01 -0.21887398809E+02  0.76991405012E+02  0.00000000000E+00 0. -1.
         -3    1    3    3    0  502  0.10185802217E+04  0.28424180016E+03 -0.59523129292E+03  0.12135070503E+04  0.00000000000E+00 0.  1.
         13    1    5    5    0    0 -0.15057837630E+03 -0.15685202816E+03 -0.75795418453E+02  0.23026365672E+03  0.00000000000E+00 0.  1.
        -13    1    5    5    0    0 -0.49254169681E+03 -0.41865068055E+03 -0.38235766116E+03  0.75104134139E+03  0.00000000000E+00 0. -1.
          1    1    6    6  503    0 -0.12689801176E+03  0.12902011765E+03 -0.17924244173E+03  0.25470993122E+03  0.00000000000E+00 0. -1.
         -1    1    6    6    0  503 -0.32180620184E+03  0.15307972298E+03 -0.40206070353E+03  0.53725733355E+03  0.00000000000E+00 0.  1.
<mgrwt>
<rscale>  0 0.25772952E+04</rscale>
<asrwt>0</asrwt>
<pdfrwt beam="1">  1        2 0.36310351E+00 0.25772952E+04</pdfrwt>
<pdfrwt beam="2">  1       -1 0.10824583E+00 0.25772952E+04</pdfrwt>
<totfact> 0.33468943E+00</totfact>
</mgrwt>
</event>
<event>
12    7  0.1735955E-007  0.1290695E+04  0.7818608E-02  0.9036977E-01
         -1   -1    0    0    0  501 -0.00000000000E+00  0.00000000000E+00  0.11034424337E+04  0.11034424337E+04  0.00000000000E+00 0.  1.
          2   -1    0    0  501    0  0.00000000000E+00 -0.00000000000E+00 -0.37743076707E+03  0.37743076707E+03  0.00000000000E+00 0. -1.
         24    2    1    2    0    0 -0.99552170759E+02  0.27331473046E+03 -0.15647536186E+02  0.30195759701E+03  0.79510806911E+02 0.  0.
        254    2    1    2    0    0  0.99552170759E+02 -0.27331473046E+03  0.74165920285E+03  0.11789156038E+04  0.86900635851E+03 0.  0.
         23    2    4    4    0    0  0.76871620310E+02 -0.48087659557E+03  0.10947737719E+03  0.50694234093E+03  0.88621073896E+02 0.  0.
         23    2    4    4    0    0  0.22680550449E+02  0.20756186511E+03  0.63218182565E+03  0.67197326287E+03  0.91092645733E+02 0.  0.
          4    1    3    3  502    0 -0.74135564341E+02  0.26404215825E+03 -0.10751859336E+02  0.27446301338E+03  0.00000000000E+00 0. -1.
         -3    1    3    3    0  502 -0.25416606418E+02  0.92725722034E+01 -0.48956768496E+01  0.27494583628E+02  0.00000000000E+00 0.  1.
         13    1    5    5    0    0  0.81540731879E+02 -0.30978975806E+03  0.99762810311E+02  0.33551632371E+03  0.00000000000E+00 0. -1.
        -13    1    5    5    0    0 -0.46691115689E+01 -0.17108683750E+03  0.97145668835E+01  0.17142601722E+03  0.00000000000E+00 0.  1.
          2    1    6    6  503    0 -0.16337494977E+02  0.10189949762E+02  0.12276278656E+03  0.12426363338E+03  0.00000000000E+00 0. -1.
         -2    1    6    6    0  503  0.39018045426E+02  0.19737191535E+03  0.50941903910E+03  0.54770962948E+03  0.00000000000E+00 0.  1.
<mgrwt>
<rscale>  0 0.12906946E+04</rscale>
<asrwt>0</asrwt>
<pdfrwt beam="1">  1        2 0.58066272E-01 0.12906946E+04</pdfrwt>
<pdfrwt beam="2">  1       -1 0.16976037E+00 0.12906946E+04</pdfrwt>
<totfact> 0.23547824E+01</totfact>
</mgrwt>
</event>
<event>
12    7  0.1735955E-007  0.1101670E+04  0.7818608E-02  0.9203566E-01
         -1   -1    0    0    0  501 -0.00000000000E+00  0.00000000000E+00  0.11874936566E+03  0.11874936566E+03  0.00000000000E+00 0.  1.
          2   -1    0    0  501    0  0.00000000000E+00 -0.00000000000E+00 -0.25551228942E+04  0.25551228942E+04  0.00000000000E+00 0. -1.
         24    2    1    2    0    0 -0.16374678876E+01 -0.17688123870E+02 -0.85845497455E+03  0.86263321910E+03  0.82919095151E+02 0.  0.
        254    2    1    2    0    0  0.16374678876E+01  0.17688123870E+02 -0.15779185540E+04  0.18112390408E+04  0.88906937228E+03 0.  0.
         23    2    4    4    0    0 -0.43097700436E+02  0.46243133540E+02  0.89029982174E+02  0.14030255908E+03  0.88105795353E+02 0.  0.
         23    2    4    4    0    0  0.44735168323E+02 -0.28555009670E+02 -0.16669485362E+04  0.16709364817E+04  0.10244354422E+03 0.  0.
          4    1    3    3  502    0 -0.22675284325E+01  0.42722691247E+01 -0.80257642966E+03  0.80259100382E+03  0.00000000000E+00 0. -1.
         -3    1    3    3    0  502  0.63006054488E+00 -0.21960392995E+02 -0.55878544890E+02  0.60042215281E+02  0.00000000000E+00 0.  1.
         13    1    5    5    0    0  0.23622595240E+01  0.14887836661E+02  0.83445677440E+02  0.84796279600E+02  0.00000000000E+00 0. -1.
        -13    1    5    5    0    0 -0.45459959960E+02  0.31355296878E+02  0.55843047340E+01  0.55506279476E+02  0.00000000000E+00 0.  1.
          3    1    6    6  503    0  0.32031623063E+02 -0.39238482042E+02 -0.16254841416E+04  0.16262731560E+04  0.00000000000E+00 0. -1.
         -3    1    6    6    0  503  0.12703545260E+02  0.10683472372E+02 -0.41464394507E+02  0.44663325625E+02  0.00000000000E+00 0.  1.
<mgrwt>
<rscale>  0 0.11016700E+04</rscale>
<asrwt>0</asrwt>
<pdfrwt beam="1">  1        2 0.39309582E+00 0.11016700E+04</pdfrwt>
<pdfrwt beam="2">  1       -1 0.18269134E-01 0.11016700E+04</pdfrwt>
<totfact> 0.87825654E+01</totfact>
</mgrwt>
</event>
<event>
12    7  0.1735955E-007  0.2904494E+04  0.7818608E-02  0.8271542E-01
         -1   -1    0    0    0  501 -0.00000000000E+00  0.00000000000E+00  0.10865470133E+04  0.10865470133E+04  0.00000000000E+00 0.  1.
          2   -1    0    0  501    0  0.00000000000E+00 -0.00000000000E+00 -0.19410309886E+04  0.19410309886E+04  0.00000000000E+00 0. -1.
         24    2    1    2    0    0 -0.99382016269E+03  0.45071979551E+03 -0.11496855135E+04  0.15871531913E+04  0.80321994604E+02 0.  0.
        254    2    1    2    0    0  0.99382016269E+03 -0.45071979551E+03  0.29520153818E+03  0.14404248106E+04  0.89266613967E+03 0.  0.
         23    2    4    4    0    0  0.24860233222E+03 -0.20826606149E+03  0.51916678779E+03  0.61978107994E+03  0.97038969248E+02 0.  0.
         23    2    4    4    0    0  0.74521783047E+03 -0.24245373402E+03 -0.22396524960E+03  0.82064373063E+03  0.95719755542E+02 0.  0.
          2    1    3    3  502    0 -0.65641310259E+03  0.26197651928E+03 -0.77248941642E+03  0.10470194632E+04  0.00000000000E+00 0. -1.
         -1    1    3    3    0  502 -0.33740706010E+03  0.18874327623E+03 -0.37719609710E+03  0.54013372806E+03  0.00000000000E+00 0.  1.
         13    1    5    5    0    0  0.22138384391E+03 -0.14804009683E+03  0.45760013938E+03  0.52945685770E+03  0.00000000000E+00 0. -1.
        -13    1    5    5    0    0  0.27218488307E+02 -0.60225964662E+02  0.61566648411E+02  0.90324222232E+02  0.00000000000E+00 0.  1.
          1    1    6    6  503    0  0.42213663985E+03 -0.18096087281E+03 -0.15384811586E+03  0.48437116238E+03  0.00000000000E+00 0. -1.
         -1    1    6    6    0  503  0.32308119063E+03 -0.61492861206E+02 -0.70117133748E+02  0.33627256825E+03  0.00000000000E+00 0.  1.
<mgrwt>
<rscale>  0 0.29044941E+04</rscale>
<asrwt>0</asrwt>
<pdfrwt beam="1">  1        2 0.29862015E+00 0.29044941E+04</pdfrwt>
<pdfrwt beam="2">  1       -1 0.16716108E+00 0.29044941E+04</pdfrwt>
<totfact> 0.18263797E+00</totfact>
</mgrwt>
</event>
<event>
12    7  0.1735955E-007  0.1899682E+04  0.7818608E-02  0.8655015E-01
         -3   -1    0    0    0  501 -0.00000000000E+00  0.00000000000E+00  0.75669332571E+03  0.75669332571E+03  0.00000000000E+00 0.  1.
          4   -1    0    0  501    0  0.00000000000E+00 -0.00000000000E+00 -0.11922903284E+04  0.11922903284E+04  0.00000000000E+00 0. -1.
         24    2    1    2    0    0 -0.24197930900E+03 -0.55339205097E+03 -0.59999124813E+03  0.85529828782E+03  0.82151781872E+02 0.  0.
        254    2    1    2    0    0  0.24197930900E+03  0.55339205097E+03  0.16439424541E+03  0.10936853663E+04  0.89684193955E+03 0.  0.
         23    2    4    4    0    0  0.55356464193E+03  0.34832144409E+03  0.23883821876E+03  0.70224656808E+03  0.91350459355E+02 0.  0.
         23    2    4    4    0    0 -0.31158533294E+03  0.20507060688E+03 -0.74443973354E+02  0.39143879825E+03  0.92428643290E+02 0.  0.
          2    1    3    3  502    0 -0.21907224108E+03 -0.54060684138E+03 -0.57355052608E+03  0.81805171580E+03  0.00000000000E+00 0. -1.
         -1    1    3    3    0  502 -0.22907067921E+02 -0.12785209586E+02 -0.26440722049E+02  0.37246572022E+02  0.00000000000E+00 0.  1.
         13    1    5    5    0    0  0.39705829856E+03  0.20063341720E+03  0.15059525105E+03  0.46966795738E+03  0.00000000000E+00 0. -1.
        -13    1    5    5    0    0  0.15650634337E+03  0.14768802689E+03  0.88242967706E+02  0.23257861069E+03  0.00000000000E+00 0.  1.
          1    1    6    6  503    0 -0.20131686747E+03  0.89312634452E+02 -0.14561540693E+02  0.22071988191E+03  0.00000000000E+00 0. -1.
         -1    1    6    6    0  503 -0.11026846546E+03  0.11575797243E+03 -0.59882432661E+02  0.17071891634E+03  0.00000000000E+00 0.  1.
<mgrwt>
<rscale>  0 0.18996822E+04</rscale>
<asrwt>0</asrwt>
<pdfrwt beam="1">  1        4 0.18342928E+00 0.18996822E+04</pdfrwt>
<pdfrwt beam="2">  1       -3 0.11641436E+00 0.18996822E+04</pdfrwt>
<totfact> 0.22161716E-01</totfact>
</mgrwt>
</event>
<event>
12    7  0.1735955E-007  0.1447057E+04  0.7818608E-02  0.8920443E-01
          2   -1    0    0  501    0  0.00000000000E+00  0.00000000000E+00  0.75806452239E+03  0.75806452239E+03  0.00000000000E+00 0. -1.
         -1   -1    0    0    0  501 -0.00000000000E+00 -0.00000000000E+00 -0.69056590953E+03  0.69056590953E+03  0.00000000000E+00 0.  1.
         24    2    1    2    0    0  0.25263643535E+03  0.46670328368E+02 -0.31594167337E+03  0.41492710219E+03  0.79637121669E+02 0.  0.
        254    2    1    2    0    0 -0.25263643535E+03 -0.46670328368E+02  0.38344028623E+03  0.10337033297E+04  0.92493936709E+03 0.  0.
         23    2    4    4    0    0 -0.37066302618E+01  0.31772917319E+03 -0.12560609659E+03  0.35370807269E+03  0.91470993116E+02 0.  0.
         23    2    4    4    0    0 -0.24892980508E+03 -0.36439950155E+03  0.50904638282E+03  0.67999525705E+03  0.92262046140E+02 0.  0.
          4    1    3    3  502    0  0.45427695948E+02  0.41644148040E+02 -0.68363908794E+02  0.92040940079E+02  0.00000000000E+00 0. -1.
         -3    1    3    3    0  502  0.20720873940E+03  0.50261803278E+01 -0.24757776457E+03  0.32288616211E+03  0.00000000000E+00 0.  1.
         13    1    5    5    0    0  0.76385552872E+01  0.18190436277E+03 -0.11848586299E+03  0.21722441034E+03  0.00000000000E+00 0.  1.
        -13    1    5    5    0    0 -0.11345185549E+02  0.13582481042E+03 -0.71202336039E+01  0.13648366235E+03  0.00000000000E+00 0. -1.
          4    1    6    6  503    0 -0.11208054731E+03 -0.17174814210E+03  0.16816265169E+03  0.26521340619E+03  0.00000000000E+00 0. -1.
         -4    1    6    6    0  503 -0.13684925777E+03 -0.19265135945E+03  0.34088373113E+03  0.41478185086E+03  0.00000000000E+00 0.  1.
<mgrwt>
<rscale>  0 0.14470570E+04</rscale>
<asrwt>0</asrwt>
<pdfrwt beam="1">  1        2 0.11662531E+00 0.14470570E+04</pdfrwt>
<pdfrwt beam="2">  1       -1 0.10624091E+00 0.14470570E+04</pdfrwt>
<totfact> 0.33942082E+01</totfact>
</mgrwt>
</event>
<event>
12    7  0.1735955E-007  0.2929990E+04  0.7818608E-02  0.8264010E-01
         -1   -1    0    0    0  501 -0.00000000000E+00  0.00000000000E+00  0.17686594234E+04  0.17686594234E+04  0.00000000000E+00 0.  1.
          2   -1    0    0  501    0  0.00000000000E+00 -0.00000000000E+00 -0.12134671740E+04  0.12134671740E+04  0.00000000000E+00 0. -1.
         24    2    1    2    0    0 -0.58902094402E+02 -0.60502020403E+03 -0.94645023005E+03  0.11272479323E+04  0.73491216111E+02 0.  0.
        254    2    1    2    0    0  0.58902094402E+02  0.60502020403E+03  0.15016424795E+04  0.18548786651E+04  0.90339682426E+03 0.  0.
         23    2    4    4    0    0 -0.24881264881E+03  0.10541023426E+03  0.11043428507E+04  0.11406344410E+04  0.91949684294E+02 0.  0.
         23    2    4    4    0    0  0.30771474321E+03  0.49960996977E+03  0.39729962881E+03  0.71424422412E+03  0.89438982276E+02 0.  0.
          4    1    3    3  502    0 -0.34092022841E+01 -0.39071871850E+03 -0.59010850099E+03  0.70774344404E+03  0.00000000000E+00 0. -1.
         -3    1    3    3    0  502 -0.55492892117E+02 -0.21430148553E+03 -0.35634172906E+03  0.41950448823E+03  0.00000000000E+00 0.  1.
         13    1    5    5    0    0 -0.20307244976E+03  0.81247447144E+02  0.10061446814E+04  0.10296439615E+04  0.00000000000E+00 0. -1.
        -13    1    5    5    0    0 -0.45740199052E+02  0.24162787113E+02  0.98198169232E+02  0.11099047946E+03  0.00000000000E+00 0.  1.
          3    1    6    6  503    0  0.28879741661E+03  0.45583686028E+03  0.33266360939E+03  0.63392134216E+03  0.00000000000E+00 0. -1.
         -3    1    6    6    0  503  0.18917326598E+02  0.43773109495E+02  0.64636019416E+02  0.80322881960E+02  0.00000000000E+00 0.  1.
<mgrwt>
<rscale>  0 0.29299899E+04</rscale>
<asrwt>0</asrwt>
<pdfrwt beam="1">  1        2 0.18668726E+00 0.29299899E+04</pdfrwt>
<pdfrwt beam="2">  1       -1 0.27210145E+00 0.29299899E+04</pdfrwt>
<totfact> 0.91313536E-01</totfact>
</mgrwt>
</event>
<event>
12    7  0.1735955E-007  0.2763122E+04  0.7818608E-02  0.8314810E-01
         -1   -1    0    0    0  501 -0.00000000000E+00  0.00000000000E+00  0.70382565599E+03  0.70382565599E+03  0.00000000000E+00 0.  1.
          2   -1    0    0  501    0  0.00000000000E+00 -0.00000000000E+00 -0.27119076586E+04  0.27119076586E+04  0.00000000000E+00 0. -1.
         24    2    1    2    0    0 -0.50015378828E+02  0.71084815943E+03 -0.21294027503E+04  0.22473616461E+04  0.92041574248E+02 0.  0.
        254    2    1    2    0    0  0.50015378828E+02 -0.71084815943E+03  0.12132074768E+03  0.11683716685E+04  0.91791447755E+03 0.  0.
         23    2    4    4    0    0  0.47202831300E+03 -0.41197927014E+03  0.11631962630E+03  0.64356951659E+03  0.90076744571E+02 0.  0.
         23    2    4    4    0    0 -0.42201293418E+03 -0.29886888928E+03  0.50011213841E+01  0.52480215193E+03  0.89301499767E+02 0.  0.
          2    1    3    3  502    0 -0.42143359209E+02  0.18306753362E+03 -0.65067587256E+03  0.67725096952E+03  0.00000000000E+00 0. -1.
         -1    1    3    3    0  502 -0.78720196198E+01  0.52778062581E+03 -0.14787268778E+04  0.15701106766E+04  0.00000000000E+00 0.  1.
         13    1    5    5    0    0  0.20276639835E+03 -0.17242637858E+03  0.44408769420E+01  0.26620441341E+03  0.00000000000E+00 0.  1.
        -13    1    5    5    0    0  0.26926191465E+03 -0.23955289156E+03  0.11187874935E+03  0.37736510317E+03  0.00000000000E+00 0. -1.
          1    1    6    6  503    0 -0.32913294562E+03 -0.21438968336E+03 -0.31474621141E+02  0.39405847789E+03  0.00000000000E+00 0. -1.
         -1    1    6    6    0  503 -0.92879988559E+02 -0.84479205923E+02  0.36475742525E+02  0.13074367404E+03  0.00000000000E+00 0.  1.
<mgrwt>
<rscale>  0 0.27631216E+04</rscale>
<asrwt>0</asrwt>
<pdfrwt beam="1">  1        2 0.41721656E+00 0.27631216E+04</pdfrwt>
<pdfrwt beam="2">  1       -1 0.10828087E+00 0.27631216E+04</pdfrwt>
<totfact> 0.20523586E+00</totfact>
</mgrwt>
</event>
<event>
12    7  0.1735955E-007  0.1717030E+04  0.7818608E-02  0.8751711E-01
         -1   -1    0    0    0  501 -0.00000000000E+00  0.00000000000E+00  0.10610372473E+04  0.10610372473E+04  0.00000000000E+00 0.  1.
          2   -1    0    0  501    0  0.00000000000E+00 -0.00000000000E+00 -0.69464844219E+03  0.69464844219E+03  0.00000000000E+00 0. -1.
         24    2    1    2    0    0  0.24416921233E+03  0.51742559247E+03 -0.11404086414E+03  0.58861050796E+03  0.78161137350E+02 0.  0.
        254    2    1    2    0    0 -0.24416921233E+03 -0.51742559247E+03  0.48042966922E+03  0.11670751815E+04  0.89660691734E+03 0.  0.
         23    2    4    4    0    0 -0.69243986402E+01 -0.35684687348E+03 -0.20256754543E+03  0.42078050055E+03  0.92924597234E+02 0.  0.
         23    2    4    4    0    0 -0.23724481369E+03 -0.16057871899E+03  0.68299721465E+03  0.74629468095E+03  0.91651126488E+02 0.  0.
          2    1    3    3  502    0  0.22949918553E+03  0.51040394212E+03 -0.10319444192E+03  0.56906164265E+03  0.00000000000E+00 0. -1.
         -1    1    3    3    0  502  0.14670026803E+02  0.70216503515E+01 -0.10846422217E+02  0.19548865311E+02  0.00000000000E+00 0.  1.
         13    1    5    5    0    0 -0.30711430511E+02 -0.33478957488E+03 -0.18096199538E+03  0.38180426292E+03  0.00000000000E+00 0. -1.
        -13    1    5    5    0    0  0.23787031871E+02 -0.22057298604E+02 -0.21605550046E+02  0.38976237630E+02  0.00000000000E+00 0.  1.
          1    1    6    6  503    0 -0.48670969774E+02 -0.41458630962E+01  0.18424591495E+03  0.19061114515E+03  0.00000000000E+00 0. -1.
         -1    1    6    6    0  503 -0.18857384391E+03 -0.15643285589E+03  0.49875129970E+03  0.55568353580E+03  0.00000000000E+00 0.  1.
<mgrwt>
<rscale>  0 0.17170298E+04</rscale>
<asrwt>0</asrwt>
<pdfrwt beam="1">  1        2 0.10686899E+00 0.17170298E+04</pdfrwt>
<pdfrwt beam="2">  1       -1 0.16323650E+00 0.17170298E+04</pdfrwt>
<totfact> 0.12403430E+01</totfact>
</mgrwt>
</event>
<event>
12    7  0.1735955E-007  0.1579794E+04  0.7818608E-02  0.8833058E-01
          2   -1    0    0  501    0  0.00000000000E+00  0.00000000000E+00  0.57100879187E+03  0.57100879187E+03  0.00000000000E+00 0. -1.
         -1   -1    0    0    0  501 -0.00000000000E+00 -0.00000000000E+00 -0.10926930082E+04  0.10926930082E+04  0.00000000000E+00 0.  1.
         24    2    1    2    0    0  0.61274424503E+02 -0.42236330666E+03  0.16677342382E+03  0.46513571506E+03  0.79953365304E+02 0.  0.
        254    2    1    2    0    0 -0.61274424503E+02  0.42236330666E+03 -0.68845764018E+03  0.11985660850E+04  0.88342595613E+03 0.  0.
         23    2    4    4    0    0  0.13176318402E+03  0.41378241662E+02 -0.74071505103E+03  0.75894925051E+03  0.90947690927E+02 0.  0.
         23    2    4    4    0    0 -0.19303760853E+03  0.38098506500E+03  0.52257410852E+02  0.43961683452E+03  0.90105416871E+02 0.  0.
          4    1    3    3  502    0  0.65028995015E+02 -0.17745588169E+03  0.80896173776E+02  0.20558100854E+03  0.00000000000E+00 0. -1.
         -3    1    3    3    0  502 -0.37545705119E+01 -0.24490742497E+03  0.85877250040E+02  0.25955470652E+03  0.00000000000E+00 0.  1.
         13    1    5    5    0    0  0.46767141434E+02 -0.15906689484E+02 -0.40317314142E+03  0.40618809713E+03  0.00000000000E+00 0. -1.
        -13    1    5    5    0    0  0.84996042590E+02  0.57284931147E+02 -0.33754190961E+03  0.35276115338E+03  0.00000000000E+00 0.  1.
          1    1    6    6  503    0 -0.24597640813E+02  0.13791696893E+03  0.53675697626E+01  0.14019609502E+03  0.00000000000E+00 0. -1.
         -1    1    6    6    0  503 -0.16843996771E+03  0.24306809607E+03  0.46889841089E+02  0.29942073951E+03  0.00000000000E+00 0.  1.
<mgrwt>
<rscale>  0 0.15797941E+04</rscale>
<asrwt>0</asrwt>
<pdfrwt beam="1">  1        2 0.87847508E-01 0.15797941E+04</pdfrwt>
<pdfrwt beam="2">  1       -1 0.16810661E+00 0.15797941E+04</pdfrwt>
<totfact> 0.14680868E+01</totfact>
</mgrwt>
</event>
<event>
12    7  0.1735955E-007  0.1977817E+04  0.7818608E-02  0.8617063E-01
         -1   -1    0    0    0  501 -0.00000000000E+00  0.00000000000E+00  0.54758635513E+03  0.54758635513E+03  0.00000000000E+00 0.  1.
          2   -1    0    0  501    0  0.00000000000E+00 -0.00000000000E+00 -0.17859107992E+04  0.17859107992E+04  0.00000000000E+00 0. -1.
         24    2    1    2    0    0 -0.49229132043E+03 -0.21625885060E+03  0.18705966007E+03  0.57500131234E+03  0.80725201349E+02 0.  0.
        254    2    1    2    0    0  0.49229132043E+03  0.21625885060E+03 -0.14253841041E+04  0.17584958419E+04  0.87833316418E+03 0.  0.
         23    2    4    4    0    0  0.29596865686E+03  0.54739601924E+03 -0.78327480377E+03  0.10046414243E+04  0.92439847669E+02 0.  0.
         23    2    4    4    0    0  0.19632266357E+03 -0.33113716864E+03 -0.64210930032E+03  0.75385441766E+03  0.88304681526E+02 0.  0.
          2    1    3    3  502    0 -0.18044300323E+03 -0.60544491939E+02  0.29969002471E+02  0.19267447684E+03  0.00000000000E+00 0. -1.
         -3    1    3    3    0  502 -0.31184831720E+03 -0.15571435867E+03  0.15709065759E+03  0.38232683550E+03  0.00000000000E+00 0.  1.
         13    1    5    5    0    0  0.74895410631E+01  0.44862320502E+01  0.21873013674E+00  0.87331177834E+01  0.00000000000E+00 0. -1.
        -13    1    5    5    0    0  0.28847911580E+03  0.54290978719E+03 -0.78349353391E+03  0.99590830650E+03  0.00000000000E+00 0.  1.
          3    1    6    6  503    0  0.35931953910E+02 -0.52963713844E+02 -0.18080075591E+03  0.19179461315E+03  0.00000000000E+00 0. -1.
         -3    1    6    6    0  503  0.16039070966E+03 -0.27817345479E+03 -0.46130854441E+03  0.56205980451E+03  0.00000000000E+00 0.  1.
<mgrwt>
<rscale>  0 0.19778174E+04</rscale>
<asrwt>0</asrwt>
<pdfrwt beam="1">  1        2 0.27475551E+00 0.19778174E+04</pdfrwt>
<pdfrwt beam="2">  1       -1 0.84244053E-01 0.19778174E+04</pdfrwt>
<totfact> 0.12998102E+01</totfact>
</mgrwt>
</event>
<event>
12    7  0.1735955E-007  0.2401131E+04  0.7818608E-02  0.8439080E-01
         -1   -1    0    0    0  501 -0.00000000000E+00  0.00000000000E+00  0.92727276765E+03  0.92727276765E+03  0.00000000000E+00 0.  1.
          2   -1    0    0  501    0  0.00000000000E+00 -0.00000000000E+00 -0.15544047609E+04  0.15544047609E+04  0.00000000000E+00 0. -1.
         24    2    1    2    0    0 -0.28628116448E+03 -0.95707388639E+03 -0.50865865412E+03  0.11236773778E+04  0.77265087642E+02 0.  0.
        254    2    1    2    0    0  0.28628116448E+03  0.95707388639E+03 -0.11847333909E+03  0.13580001507E+04  0.91223963310E+03 0.  0.
         23    2    4    4    0    0 -0.84711087004E+02 -0.14777092132E+02 -0.27433904500E+03  0.30122041323E+03  0.89874885375E+02 0.  0.
         23    2    4    4    0    0  0.37099225148E+03  0.97185097852E+03  0.15586570591E+03  0.10567797375E+04  0.10178271081E+03 0.  0.
          4    1    3    3  502    0 -0.39463106569E+02 -0.95603176101E+02 -0.29837784741E+02  0.10764570339E+03  0.00000000000E+00 0. -1.
         -3    1    3    3    0  502 -0.24681805791E+03 -0.86147071029E+03 -0.47882086938E+03  0.10160316744E+04  0.00000000000E+00 0.  1.
         13    1    5    5    0    0 -0.49721163871E+02 -0.47731423214E+02 -0.20924124409E+03  0.22030066075E+03  0.00000000000E+00 0. -1.
        -13    1    5    5    0    0 -0.34989923132E+02  0.32954331082E+02 -0.65097800912E+02  0.80919752480E+02  0.00000000000E+00 0.  1.
          2    1    6    6  503    0  0.15530794889E+03  0.43186398372E+03  0.18542599741E+02  0.45931567296E+03  0.00000000000E+00 0. -1.
         -2    1    6    6    0  503  0.21568430259E+03  0.53998699480E+03  0.13732310617E+03  0.59746406455E+03  0.00000000000E+00 0.  1.
<mgrwt>
<rscale>  0 0.24011307E+04</rscale>
<asrwt>0</asrwt>
<pdfrwt beam="1">  1        2 0.23913919E+00 0.24011307E+04</pdfrwt>
<pdfrwt beam="2">  1       -1 0.14265735E+00 0.24011307E+04</pdfrwt>
<totfact> 0.48325621E+00</totfact>
</mgrwt>
</event>
<event>
12    7  0.1735955E-007  0.2363463E+04  0.7818608E-02  0.8453311E-01
         -1   -1    0    0    0  501 -0.00000000000E+00  0.00000000000E+00  0.94165302165E+03  0.94165302165E+03  0.00000000000E+00 0.  1.
          2   -1    0    0  501    0  0.00000000000E+00 -0.00000000000E+00 -0.14830184357E+04  0.14830184357E+04  0.00000000000E+00 0. -1.
         24    2    1    2    0    0  0.47979275647E+03  0.16079091109E+03 -0.10901458697E+04  0.12044286801E+04  0.78585125659E+02 0.  0.
        254    2    1    2    0    0 -0.47979275647E+03 -0.16079091109E+03  0.54878045560E+03  0.12202427773E+04  0.96528629993E+03 0.  0.
         23    2    4    4    0    0 -0.44202390539E+03  0.24995987596E+03 -0.14224047712E+02  0.51633936826E+03  0.92406423764E+02 0.  0.
         23    2    4    4    0    0 -0.37768851078E+02 -0.41075078705E+03  0.56300450331E+03  0.70390340903E+03  0.91450769914E+02 0.  0.
          4    1    3    3  502    0  0.31510982177E+03  0.14222106999E+03 -0.76459080626E+03  0.83911866475E+03  0.00000000000E+00 0. -1.
         -3    1    3    3    0  502  0.16468293469E+03  0.18569841102E+02 -0.32555506343E+03  0.36531001533E+03  0.00000000000E+00 0.  1.
         13    1    5    5    0    0 -0.39123907404E+03  0.18256396061E+03 -0.13477983461E+02  0.43194822468E+03  0.00000000000E+00 0. -1.
        -13    1    5    5    0    0 -0.50784831346E+02  0.67395915358E+02 -0.74606425167E+00  0.84391143573E+02  0.00000000000E+00 0.  1.
          4    1    6    6  503    0  0.18092199678E+02 -0.19032881950E+03  0.30527673712E+03  0.36020310028E+03  0.00000000000E+00 0. -1.
         -4    1    6    6    0  503 -0.55861050756E+02 -0.22042196755E+03  0.25772776619E+03  0.34370030875E+03  0.00000000000E+00 0.  1.
<mgrwt>
<rscale>  0 0.23634625E+04</rscale>
<asrwt>0</asrwt>
<pdfrwt beam="1">  1        2 0.22815668E+00 0.23634625E+04</pdfrwt>
<pdfrwt beam="2">  1       -1 0.14486970E+00 0.23634625E+04</pdfrwt>
<totfact> 0.51069437E+00</totfact>
</mgrwt>
</event>
<event>
12    7  0.1735955E-007  0.1801407E+04  0.7818608E-02  0.8705552E-01
         -1   -1    0    0    0  501 -0.00000000000E+00  0.00000000000E+00  0.36866037378E+03  0.36866037378E+03  0.00000000000E+00 0.  1.
          2   -1    0    0  501    0  0.00000000000E+00 -0.00000000000E+00 -0.22005803861E+04  0.22005803861E+04  0.00000000000E+00 0. -1.
         24    2    1    2    0    0  0.47052907918E+03  0.65648027942E+02 -0.23169654683E+02  0.48231886314E+03  0.79921054279E+02 0.  0.
        254    2    1    2    0    0 -0.47052907918E+03 -0.65648027942E+02 -0.18087503577E+04  0.20869218968E+04  0.92626015188E+03 0.  0.
         23    2    4    4    0    0 -0.46359809590E+03  0.27294510237E+03 -0.52898214377E+03  0.76009252512E+03  0.92175457090E+02 0.  0.
         23    2    4    4    0    0 -0.69309832797E+01 -0.33859313031E+03 -0.12797682139E+04  0.13268293717E+04  0.89309315063E+02 0.  0.
          4    1    3    3  502    0  0.26321368707E+03  0.26021337816E+02  0.25464067937E+02  0.26571972798E+03  0.00000000000E+00 0. -1.
         -3    1    3    3    0  502  0.20731539211E+03  0.39626690126E+02 -0.48633722620E+02  0.21659913516E+03  0.00000000000E+00 0.  1.
         13    1    5    5    0    0 -0.33107073085E+03  0.15104040120E+03 -0.38274318132E+03  0.52812249949E+03  0.00000000000E+00 0.  1.
        -13    1    5    5    0    0 -0.13252736505E+03  0.12190470116E+03 -0.14623896245E+03  0.23197002563E+03  0.00000000000E+00 0. -1.
          1    1    6    6  503    0 -0.40994053898E+02 -0.11847169400E+03 -0.53335052149E+03  0.54788578509E+03  0.00000000000E+00 0. -1.
         -1    1    6    6    0  503  0.34063070618E+02 -0.22012143631E+03 -0.74641769242E+03  0.77894358657E+03  0.00000000000E+00 0.  1.
<mgrwt>
<rscale>  0 0.18014070E+04</rscale>
<asrwt>0</asrwt>
<pdfrwt beam="1">  1        2 0.33855083E+00 0.18014070E+04</pdfrwt>
<pdfrwt beam="2">  1       -1 0.56716980E-01 0.18014070E+04</pdfrwt>
<totfact> 0.17458233E+01</totfact>
</mgrwt>
</event>
<event>
12    7  0.1735955E-007  0.1239272E+04  0.7818608E-02  0.9079160E-01
         -1   -1    0    0    0  501 -0.00000000000E+00  0.00000000000E+00  0.16483643561E+03  0.16483643561E+03  0.00000000000E+00 0.  1.
          2   -1    0    0  501    0  0.00000000000E+00 -0.00000000000E+00 -0.23292714026E+04  0.23292714026E+04  0.00000000000E+00 0. -1.
         24    2    1    2    0    0 -0.13795616157E+03 -0.15239271432E+03 -0.12680611923E+03  0.25509795985E+03  0.82095891216E+02 0.  0.
        254    2    1    2    0    0  0.13795616157E+03  0.15239271432E+03 -0.20376288478E+04  0.22390098784E+04  0.90497429371E+03 0.  0.
         23    2    4    4    0    0 -0.36161718095E+03 -0.42014838453E+02 -0.68074570303E+03  0.77716152450E+03  0.89627511164E+02 0.  0.
         23    2    4    4    0    0  0.49957334252E+03  0.19440755277E+03 -0.13568831448E+04  0.14618483539E+04  0.92200434361E+02 0.  0.
          4    1    3    3  502    0  0.36066400286E+01 -0.45356031911E+01 -0.26532936488E+02  0.27158355386E+02  0.00000000000E+00 0. -1.
         -1    1    3    3    0  502 -0.14156280160E+03 -0.14785711113E+03 -0.10027318274E+03  0.22793960447E+03  0.00000000000E+00 0.  1.
         13    1    5    5    0    0 -0.26065387360E+03  0.27751297206E+01 -0.42480802737E+03  0.49840746712E+03  0.00000000000E+00 0.  1.
        -13    1    5    5    0    0 -0.10096330736E+03 -0.44789968174E+02 -0.25593767567E+03  0.27875405738E+03  0.00000000000E+00 0. -1.
          1    1    6    6  503    0  0.63806036703E+01  0.66279274189E+00 -0.15278150012E+01  0.65943624479E+01  0.00000000000E+00 0. -1.
         -1    1    6    6    0  503  0.49319273885E+03  0.19374476003E+03 -0.13553553298E+04  0.14552539914E+04  0.00000000000E+00 0.  1.
<mgrwt>
<rscale>  0 0.12392720E+04</rscale>
<asrwt>0</asrwt>
<pdfrwt beam="1">  1        2 0.35834942E+00 0.12392720E+04</pdfrwt>
<pdfrwt beam="2">  1       -1 0.25359454E-01 0.12392720E+04</pdfrwt>
<totfact> 0.67105408E+01</totfact>
</mgrwt>
</event>
<event>
12    7  0.1735955E-007  0.2542368E+04  0.7818608E-02  0.8388045E-01
         -1   -1    0    0    0  501 -0.00000000000E+00  0.00000000000E+00  0.53793479019E+03  0.53793479019E+03  0.00000000000E+00 0.  1.
          2   -1    0    0  501    0  0.00000000000E+00 -0.00000000000E+00 -0.30039120993E+04  0.30039120993E+04  0.00000000000E+00 0. -1.
         24    2    1    2    0    0 -0.23961103732E+03 -0.34475315383E+03  0.35219075079E+03  0.55374385507E+03  0.79534557278E+02 0.  0.
        254    2    1    2    0    0  0.23961103732E+03  0.34475315383E+03 -0.28181680599E+04  0.29881030345E+04  0.90023349431E+03 0.  0.
         23    2    4    4    0    0 -0.49427323347E+01  0.12027745794E+03 -0.25431458377E+04  0.25476383031E+04  0.91537284367E+02 0.  0.
         23    2    4    4    0    0  0.24455376965E+03  0.22447569589E+03 -0.27502222228E+03  0.44046473135E+03  0.90421637453E+02 0.  0.
          4    1    3    3  502    0 -0.88976261426E+02 -0.83099162919E+02  0.69750565172E+02  0.14031175046E+03  0.00000000000E+00 0. -1.
         -3    1    3    3    0  502 -0.15063477589E+03 -0.26165399091E+03  0.28244018562E+03  0.41343210461E+03  0.00000000000E+00 0.  1.
         13    1    5    5    0    0 -0.12935100671E+02  0.13438732079E+03 -0.22762827829E+04  0.22802830036E+04  0.00000000000E+00 0. -1.
        -13    1    5    5    0    0  0.79923683367E+01 -0.14109862854E+02 -0.26686305477E+03  0.26735529953E+03  0.00000000000E+00 0.  1.
          3    1    6    6  503    0  0.94167332792E+02  0.11031312191E+03 -0.67732933408E+02  0.16007567491E+03  0.00000000000E+00 0. -1.
         -3    1    6    6    0  503  0.15038643686E+03  0.11416257398E+03 -0.20728928888E+03  0.28038905644E+03  0.00000000000E+00 0.  1.
<mgrwt>
<rscale>  0 0.25423680E+04</rscale>
<asrwt>0</asrwt>
<pdfrwt beam="1">  1        2 0.46214033E+00 0.25423680E+04</pdfrwt>
<pdfrwt beam="2">  1       -1 0.82759197E-01 0.25423680E+04</pdfrwt>
<totfact> 0.25382906E+00</totfact>
</mgrwt>
</event>
<event>
12    7  0.1735955E-007  0.2876054E+04  0.7818608E-02  0.8280038E-01
          2   -1    0    0  501    0  0.00000000000E+00  0.00000000000E+00  0.90592200056E+03  0.90592200056E+03  0.00000000000E+00 0. -1.
         -1   -1    0    0    0  501 -0.00000000000E+00 -0.00000000000E+00 -0.22826701894E+04  0.22826701894E+04  0.00000000000E+00 0.  1.
         24    2    1    2    0    0  0.33766846136E+03 -0.50635401641E+03 -0.18858102251E+04  0.19831675605E+04  0.79113768320E+02 0.  0.
        254    2    1    2    0    0 -0.33766846136E+03  0.50635401641E+03  0.50906203624E+03  0.12054246294E+04  0.90746349832E+03 0.  0.
         23    2    4    4    0    0  0.26940445998E+03  0.16105106742E+03  0.35964533916E+03  0.48545284459E+03  0.88337336193E+02 0.  0.
         23    2    4    4    0    0 -0.60707292133E+03  0.34530294900E+03  0.14941669708E+03  0.71997178485E+03  0.90897542392E+02 0.  0.
          4    1    3    3  502    0  0.49659721392E+02 -0.12257147118E+03 -0.47035143914E+03  0.48859014498E+03  0.00000000000E+00 0. -1.
         -3    1    3    3    0  502  0.28800873996E+03 -0.38378254523E+03 -0.14154587859E+04  0.14945774155E+04  0.00000000000E+00 0.  1.
         13    1    5    5    0    0  0.14797943100E+03  0.13522598152E+03  0.24407951139E+03  0.31584614286E+03  0.00000000000E+00 0.  1.
        -13    1    5    5    0    0  0.12142502897E+03  0.25825085896E+02  0.11556582777E+03  0.16960670173E+03  0.00000000000E+00 0. -1.
          1    1    6    6  503    0 -0.39972781308E+03  0.26071821923E+03  0.13306217217E+03  0.49544107223E+03  0.00000000000E+00 0. -1.
         -1    1    6    6    0  503 -0.20734510825E+03  0.84584729766E+02  0.16354524918E+02  0.22453071262E+03  0.00000000000E+00 0.  1.
<mgrwt>
<rscale>  0 0.28760536E+04</rscale>
<asrwt>0</asrwt>
<pdfrwt beam="1">  1        2 0.13937262E+00 0.28760536E+04</pdfrwt>
<pdfrwt beam="2">  1       -1 0.35118003E+00 0.28760536E+04</pdfrwt>
<totfact> 0.43694064E-01</totfact>
</mgrwt>
</event>
<event>
12    7  0.1735955E-007  0.1049230E+04  0.7818608E-02  0.9256140E-01
          2   -1    0    0  501    0  0.00000000000E+00  0.00000000000E+00  0.12661682256E+04  0.12661682256E+04  0.00000000000E+00 0. -1.
         -1   -1    0    0    0  501 -0.00000000000E+00 -0.00000000000E+00 -0.21736512276E+03  0.21736512276E+03  0.00000000000E+00 0.  1.
         24    2    1    2    0    0  0.71789172304E+02  0.52673794204E+02  0.40675147548E+02  0.12658819798E+03  0.80261387882E+02 0.  0.
        254    2    1    2    0    0 -0.71789172304E+02 -0.52673794204E+02  0.10081279553E+04  0.13569451503E+04  0.90390815518E+03 0.  0.
         23    2    4    4    0    0  0.31441496058E+03  0.12067886633E+03  0.11949929249E+03  0.36862828945E+03  0.90479714105E+02 0.  0.
         23    2    4    4    0    0 -0.38620413289E+03 -0.17335266053E+03  0.88862866278E+03  0.98831686089E+03  0.88907480213E+02 0.  0.
          4    1    3    3  502    0  0.89703494533E+02  0.45148712458E+02  0.33223759021E+02  0.10577779224E+03  0.00000000000E+00 0. -1.
         -3    1    3    3    0  502 -0.17914322228E+02  0.75250817460E+01  0.74513885271E+01  0.20810405743E+02  0.00000000000E+00 0.  1.
         13    1    5    5    0    0  0.21122710978E+03  0.40650985820E+02  0.50566991368E+02  0.22096700018E+03  0.00000000000E+00 0. -1.
        -13    1    5    5    0    0  0.10318785081E+03  0.80027880506E+02  0.68932301120E+02  0.14766128927E+03  0.00000000000E+00 0.  1.
          4    1    6    6  503    0 -0.26806944458E+03 -0.82081182487E+02  0.63267138430E+03  0.69200551164E+03  0.00000000000E+00 0. -1.
         -4    1    6    6    0  503 -0.11813468831E+03 -0.91271478043E+02  0.25595727849E+03  0.29631134925E+03  0.00000000000E+00 0.  1.
<mgrwt>
<rscale>  0 0.10492298E+04</rscale>
<asrwt>0</asrwt>
<pdfrwt beam="1">  1        2 0.19479511E+00 0.10492298E+04</pdfrwt>
<pdfrwt beam="2">  1       -1 0.33440789E-01 0.10492298E+04</pdfrwt>
<totfact> 0.16513180E+02</totfact>
</mgrwt>
</event>
<event>
12    7  0.1735955E-007  0.1251016E+04  0.7818608E-02  0.9069338E-01
          2   -1    0    0  501    0  0.00000000000E+00  0.00000000000E+00  0.85908777055E+03  0.85908777055E+03  0.00000000000E+00 0. -1.
         -1   -1    0    0    0  501 -0.00000000000E+00 -0.00000000000E+00 -0.45543671534E+03  0.45543671534E+03  0.00000000000E+00 0.  1.
         24    2    1    2    0    0  0.91505647742E+02 -0.19374666743E+03 -0.10620847520E+03  0.25314027531E+03  0.82998217260E+02 0.  0.
        254    2    1    2    0    0 -0.91505647742E+02  0.19374666743E+03  0.50985953041E+03  0.10613842106E+04  0.90590763713E+03 0.  0.
         23    2    4    4    0    0 -0.12494561419E+03 -0.32012216089E+03  0.38382527705E+03  0.52338904458E+03  0.92329000249E+02 0.  0.
         23    2    4    4    0    0  0.33439966450E+02  0.51386882832E+03  0.12603425336E+03  0.53799516600E+03  0.91513723260E+02 0.  0.
          4    1    3    3  502    0 -0.15603286737E+02 -0.32602041098E+02 -0.20032644909E+02  0.41323873279E+02  0.00000000000E+00 0. -1.
         -1    1    3    3    0  502  0.10710893448E+03 -0.16114462633E+03 -0.86175830293E+02  0.21181640203E+03  0.00000000000E+00 0.  1.
         13    1    5    5    0    0 -0.12808682368E+03 -0.22569868106E+03  0.30402151131E+03  0.39971891170E+03  0.00000000000E+00 0. -1.
        -13    1    5    5    0    0  0.31412094885E+01 -0.94423479832E+02  0.79803765743E+02  0.12367013288E+03  0.00000000000E+00 0.  1.
          3    1    6    6  503    0  0.62599409548E+02  0.31811901252E+03  0.93471142811E+02  0.33742443116E+03  0.00000000000E+00 0. -1.
         -3    1    6    6    0  503 -0.29159443098E+02  0.19574981579E+03  0.32563110546E+02  0.20057073484E+03  0.00000000000E+00 0.  1.
<mgrwt>
<rscale>  0 0.12510158E+04</rscale>
<asrwt>0</asrwt>
<pdfrwt beam="1">  1        2 0.13216735E+00 0.12510158E+04</pdfrwt>
<pdfrwt beam="2">  1       -1 0.70067187E-01 0.12510158E+04</pdfrwt>
<totfact> 0.72316765E+01</totfact>
</mgrwt>
</event>
<event>
12    7  0.1735955E-007  0.2175033E+04  0.7818608E-02  0.8528892E-01
          2   -1    0    0  501    0  0.00000000000E+00  0.00000000000E+00  0.79078401934E+03  0.79078401934E+03  0.00000000000E+00 0. -1.
         -1   -1    0    0    0  501 -0.00000000000E+00 -0.00000000000E+00 -0.14955939221E+04  0.14955939221E+04  0.00000000000E+00 0.  1.
         24    2    1    2    0    0 -0.16699774795E+03  0.47151836461E+03 -0.10737033991E+04  0.11886309622E+04  0.98928050318E+02 0.  0.
        254    2    1    2    0    0  0.16699774795E+03 -0.47151836461E+03  0.36889349627E+03  0.10977469793E+04  0.90484706052E+03 0.  0.
         23    2    4    4    0    0 -0.13968107983E+02 -0.67610630763E+03  0.42442834950E+03  0.80358010108E+03  0.91031355752E+02 0.  0.
         23    2    4    4    0    0  0.18096585593E+03  0.20458794302E+03 -0.55534853234E+02  0.29416687819E+03  0.94048736632E+02 0.  0.
          4    1    3    3  502    0 -0.14401573169E+02  0.14982100715E+01 -0.18915876123E+02  0.23821425496E+02  0.00000000000E+00 0. -1.
         -3    1    3    3    0  502 -0.15259617478E+03  0.47002015454E+03 -0.10547875229E+04  0.11648095367E+04  0.00000000000E+00 0.  1.
         13    1    5    5    0    0 -0.43911936248E+01  0.13802201156E+01  0.45619859969E+01  0.64806870974E+01  0.00000000000E+00 0. -1.
        -13    1    5    5    0    0 -0.95769143581E+01 -0.67748652775E+03  0.41986636351E+03  0.79709941398E+03  0.00000000000E+00 0.  1.
          1    1    6    6  503    0  0.46517338538E+02  0.52122134730E+01 -0.20711541677E+02  0.51185915178E+02  0.00000000000E+00 0. -1.
         -1    1    6    6    0  503  0.13444851739E+03  0.19937572954E+03 -0.34823311556E+02  0.24298096301E+03  0.00000000000E+00 0.  1.
<mgrwt>
<rscale>  0 0.21750327E+04</rscale>
<asrwt>0</asrwt>
<pdfrwt beam="1">  1        2 0.12165908E+00 0.21750327E+04</pdfrwt>
<pdfrwt beam="2">  1       -1 0.23009137E+00 0.21750327E+04</pdfrwt>
<totfact> 0.34457006E+00</totfact>
</mgrwt>
</event>
<event>
12    7  0.1735955E-007  0.2143339E+04  0.7818608E-02  0.8542389E-01
          2   -1    0    0  501    0  0.00000000000E+00  0.00000000000E+00  0.16066425599E+04  0.16066425599E+04  0.00000000000E+00 0. -1.
         -1   -1    0    0    0  501 -0.00000000000E+00 -0.00000000000E+00 -0.71482948825E+03  0.71482948825E+03  0.00000000000E+00 0.  1.
         24    2    1    2    0    0  0.79777273318E+03 -0.40596279997E+02  0.76635069754E+03  0.11097650072E+04  0.78712056509E+02 0.  0.
        254    2    1    2    0    0 -0.79777273318E+03  0.40596279997E+02  0.12546237407E+03  0.12117070409E+04  0.90244321370E+03 0.  0.
         23    2    4    4    0    0 -0.80988935430E+03 -0.16923065817E+03  0.33887207483E+03  0.89883754184E+03  0.92276007975E+02 0.  0.
         23    2    4    4    0    0  0.12116621129E+02  0.20982693817E+03 -0.21340970075E+03  0.31286949907E+03  0.90385101577E+02 0.  0.
          4    1    3    3  502    0  0.72834389111E+03 -0.42707189240E+02  0.72682222061E+03  0.10298442931E+04  0.00000000000E+00 0. -1.
         -3    1    3    3    0  502  0.69428842067E+02  0.21109092433E+01  0.39528476930E+02  0.79920714067E+02  0.00000000000E+00 0.  1.
         13    1    5    5    0    0 -0.16851393125E+02  0.74496666038E+01 -0.24285059574E+00  0.18426230195E+02  0.00000000000E+00 0.  1.
        -13    1    5    5    0    0 -0.79303796118E+03 -0.17668032477E+03  0.33911492542E+03  0.88041131165E+03  0.00000000000E+00 0. -1.
          2    1    6    6  503    0 -0.22486144652E+02  0.80221756711E+02 -0.36770394503E+02  0.91067111863E+02  0.00000000000E+00 0.  1.
         -2    1    6    6    0  503  0.34602765781E+02  0.12960518146E+03 -0.17663930625E+03  0.22180238721E+03  0.00000000000E+00 0. -1.
<mgrwt>
<rscale>  0 0.21433390E+04</rscale>
<asrwt>0</asrwt>
<pdfrwt beam="1">  1        2 0.24717578E+00 0.21433390E+04</pdfrwt>
<pdfrwt beam="2">  1       -1 0.10997377E+00 0.21433390E+04</pdfrwt>
<totfact> 0.88310981E+00</totfact>
</mgrwt>
</event>
<event>
12    7  0.1735955E-007  0.1429102E+04  0.7818608E-02  0.8933018E-01
          2   -1    0    0  501    0  0.00000000000E+00  0.00000000000E+00  0.21840948684E+04  0.21840948684E+04  0.00000000000E+00 0. -1.
         -1   -1    0    0    0  501 -0.00000000000E+00 -0.00000000000E+00 -0.23377345132E+03  0.23377345132E+03  0.00000000000E+00 0.  1.
         24    2    1    2    0    0 -0.25539224678E+02 -0.12515434088E+03  0.14109327352E+04  0.14195406917E+04  0.89714721709E+02 0.  0.
        254    2    1    2    0    0  0.25539224678E+02  0.12515434088E+03  0.53938868188E+03  0.99832762795E+03  0.83030237959E+03 0.  0.
         23    2    4    4    0    0 -0.17554471737E+03  0.38116101417E+03  0.93359398600E+02  0.43925230210E+03  0.90149548385E+02 0.  0.
         23    2    4    4    0    0  0.20108394205E+03 -0.25600667329E+03  0.44602928328E+03  0.55907532585E+03  0.87458160958E+02 0.  0.
          4    1    3    3  502    0 -0.45330635352E+01 -0.60169736836E+02  0.10773562974E+04  0.10790447337E+04  0.00000000000E+00 0. -1.
         -3    1    3    3    0  502 -0.21006161143E+02 -0.64984604044E+02  0.33357643777E+03  0.34049595798E+03  0.00000000000E+00 0.  1.
         13    1    5    5    0    0 -0.12569962862E+03  0.24053752087E+03  0.10168253976E+03  0.28982414405E+03  0.00000000000E+00 0.  1.
        -13    1    5    5    0    0 -0.49845088747E+02  0.14062349330E+03 -0.83231411569E+01  0.14942815805E+03  0.00000000000E+00 0. -1.
          4    1    6    6  503    0  0.14989785765E+03 -0.14129266362E+03  0.22661317195E+03  0.30624583952E+03  0.00000000000E+00 0.  1.
         -4    1    6    6    0  503  0.51186084399E+02 -0.11471400967E+03  0.21941611133E+03  0.25282948634E+03  0.00000000000E+00 0. -1.
<mgrwt>
<rscale>  0 0.14291024E+04</rscale>
<asrwt>0</asrwt>
<pdfrwt beam="1">  1        2 0.33601458E+00 0.14291024E+04</pdfrwt>
<pdfrwt beam="2">  1       -1 0.35965148E-01 0.14291024E+04</pdfrwt>
<totfact> 0.43147505E+01</totfact>
</mgrwt>
</event>
<event>
12    7  0.1735955E-007  0.1882171E+04  0.7818608E-02  0.8663782E-01
         -1   -1    0    0    0  501 -0.00000000000E+00  0.00000000000E+00  0.42866528491E+03  0.42866528491E+03  0.00000000000E+00 0.  1.
          2   -1    0    0  501    0  0.00000000000E+00 -0.00000000000E+00 -0.20660459157E+04  0.20660459157E+04  0.00000000000E+00 0. -1.
         24    2    1    2    0    0 -0.14286918268E+03 -0.10466810847E+03  0.29455196631E+03  0.35273088238E+03  0.79317074080E+02 0.  0.
        254    2    1    2    0    0  0.14286918268E+03  0.10466810847E+03 -0.19319325971E+04  0.21419803182E+04  0.90793673110E+03 0.  0.
         23    2    4    4    0    0  0.24063587324E+03 -0.30071568743E+03 -0.14299006301E+04  0.14836357340E+04  0.90684237464E+02 0.  0.
         23    2    4    4    0    0 -0.97766690559E+02  0.40538379590E+03 -0.50203196692E+03  0.65834458422E+03  0.86528307458E+02 0.  0.
          2    1    3    3  502    0 -0.37205105412E+02  0.43686473569E+01  0.93971146466E+02  0.10116264783E+03  0.00000000000E+00 0. -1.
         -1    1    3    3    0  502 -0.10566407727E+03 -0.10903675583E+03  0.20058081984E+03  0.25156823455E+03  0.00000000000E+00 0.  1.
         13    1    5    5    0    0  0.80807142455E+02 -0.15923284679E+03 -0.75273638744E+03  0.77362585450E+03  0.00000000000E+00 0.  1.
        -13    1    5    5    0    0  0.15982873078E+03 -0.14148284064E+03 -0.67716424271E+03  0.71000987950E+03  0.00000000000E+00 0. -1.
          2    1    6    6  503    0 -0.54255396058E+02  0.75415717437E+02 -0.10219818603E+03  0.13811461786E+03  0.00000000000E+00 0. -1.
         -2    1    6    6    0  503 -0.43511294501E+02  0.32996807847E+03 -0.39983378089E+03  0.52022996636E+03  0.00000000000E+00 0.  1.
<mgrwt>
<rscale>  0 0.18821713E+04</rscale>
<asrwt>0</asrwt>
<pdfrwt beam="1">  1        2 0.31785321E+00 0.18821713E+04</pdfrwt>
<pdfrwt beam="2">  1       -1 0.65948507E-01 0.18821713E+04</pdfrwt>
<totfact> 0.15276833E+01</totfact>
</mgrwt>
</event>
<event>
12    7  0.1735955E-007  0.4030892E+04  0.7818608E-02  0.7998344E-01
         -1   -1    0    0    0  501 -0.00000000000E+00  0.00000000000E+00  0.25029982696E+04  0.25029982696E+04  0.00000000000E+00 0.  1.
          2   -1    0    0  501    0  0.00000000000E+00 -0.00000000000E+00 -0.16228626264E+04  0.16228626264E+04  0.00000000000E+00 0. -1.
         24    2    1    2    0    0  0.97655909537E+03 -0.20100644146E+03  0.20864241850E+04  0.23140667970E+04  0.87567146044E+02 0.  0.
        254    2    1    2    0    0 -0.97655909537E+03  0.20100644146E+03 -0.12062885417E+04  0.18117940990E+04  0.91290446114E+03 0.  0.
         23    2    4    4    0    0 -0.57551211879E+03  0.45412607605E+03 -0.10850603825E+04  0.13127960837E+04  0.92913033243E+02 0.  0.
         23    2    4    4    0    0 -0.40104697658E+03 -0.25311963459E+03 -0.12122815913E+03  0.49899801533E+03  0.96925362489E+02 0.  0.
          2    1    3    3  502    0  0.50657234366E+03 -0.10381424800E+03  0.11829604946E+04  0.12910416218E+04  0.00000000000E+00 0. -1.
         -1    1    3    3    0  502  0.46998675171E+03 -0.97192193465E+02  0.90346369034E+03  0.10230251752E+04  0.00000000000E+00 0.  1.
         13    1    5    5    0    0 -0.24100742113E+03  0.13299301326E+03 -0.40285066782E+03  0.48791431540E+03  0.00000000000E+00 0.  1.
        -13    1    5    5    0    0 -0.33450469766E+03  0.32113306279E+03 -0.68220971473E+03  0.82488176828E+03  0.00000000000E+00 0. -1.
          2    1    6    6  503    0 -0.25412431617E+03 -0.20110354253E+03 -0.11195375548E+03  0.34286359715E+03  0.00000000000E+00 0. -1.
         -2    1    6    6    0  503 -0.14692266041E+03 -0.52016092059E+02 -0.92744036590E+01  0.15613441818E+03  0.00000000000E+00 0.  1.
<mgrwt>
<rscale>  0 0.40308919E+04</rscale>
<asrwt>0</asrwt>
<pdfrwt beam="1">  1        2 0.24967118E+00 0.40308919E+04</pdfrwt>
<pdfrwt beam="2">  1       -1 0.38507665E+00 0.40308919E+04</pdfrwt>
<totfact> 0.87657547E-02</totfact>
</mgrwt>
</event>
<event>
12    7  0.1735955E-007  0.1316344E+04  0.7818608E-02  0.9016704E-01
          2   -1    0    0  501    0  0.00000000000E+00  0.00000000000E+00  0.10267680663E+04  0.10267680663E+04  0.00000000000E+00 0. -1.
         -1   -1    0    0    0  501 -0.00000000000E+00 -0.00000000000E+00 -0.42189713946E+03  0.42189713946E+03  0.00000000000E+00 0.  1.
         24    2    1    2    0    0  0.17169078040E+03 -0.73877374278E+02  0.45537839116E+03  0.49806588982E+03  0.75924705840E+02 0.  0.
        254    2    1    2    0    0 -0.17169078040E+03  0.73877374278E+02  0.14949253570E+03  0.95059931596E+03  0.91997578814E+03 0.  0.
         23    2    4    4    0    0 -0.27308433078E+02  0.33092581676E+03  0.41726693566E+03  0.54153047469E+03  0.94265119298E+02 0.  0.
         23    2    4    4    0    0 -0.14438234732E+03 -0.25704844248E+03 -0.26777439996E+03  0.40906884127E+03  0.93348934773E+02 0.  0.
          4    1    3    3  502    0  0.14706300670E+03 -0.41238931818E+02  0.40704867023E+03  0.43476062077E+03  0.00000000000E+00 0. -1.
         -3    1    3    3    0  502  0.24627773700E+02 -0.32638442460E+02  0.48329720934E+02  0.63305269047E+02  0.00000000000E+00 0.  1.
         13    1    5    5    0    0  0.18790196414E+02  0.19542644661E+03  0.28874987903E+03  0.34917196359E+03  0.00000000000E+00 0. -1.
        -13    1    5    5    0    0 -0.46098629493E+02  0.13549937014E+03  0.12851705663E+03  0.19235851111E+03  0.00000000000E+00 0.  1.
          4    1    6    6  503    0 -0.15674393323E+03 -0.22415471645E+03 -0.22887689418E+03  0.35664916963E+03  0.00000000000E+00 0. -1.
         -4    1    6    6    0  503  0.12361585908E+02 -0.32893726029E+02 -0.38897505786E+02  0.52419671638E+02  0.00000000000E+00 0.  1.
<mgrwt>
<rscale>  0 0.13163442E+04</rscale>
<asrwt>0</asrwt>
<pdfrwt beam="1">  1        2 0.15796432E+00 0.13163442E+04</pdfrwt>
<pdfrwt beam="2">  1       -1 0.64907252E-01 0.13163442E+04</pdfrwt>
<totfact> 0.65090941E+01</totfact>
</mgrwt>
</event>
<event>
12    7  0.1735955E-007  0.1094039E+04  0.7818608E-02  0.9211021E-01
         -1   -1    0    0    0  501 -0.00000000000E+00  0.00000000000E+00  0.86548638437E+02  0.86548638437E+02  0.00000000000E+00 0.  1.
          2   -1    0    0  501    0  0.00000000000E+00 -0.00000000000E+00 -0.34573667384E+04  0.34573667384E+04  0.00000000000E+00 0. -1.
         24    2    1    2    0    0  0.33071375414E+02  0.14538598705E+03 -0.11013954069E+04  0.11143012395E+04  0.79778499359E+02 0.  0.
        254    2    1    2    0    0 -0.33071375414E+02 -0.14538598705E+03 -0.22694226931E+04  0.24296141373E+04  0.85470152413E+03 0.  0.
         23    2    4    4    0    0  0.31150701827E+03  0.80061573867E+02 -0.16286724457E+04  0.16626224056E+04  0.91065086407E+02 0.  0.
         23    2    4    4    0    0 -0.34457839369E+03 -0.22544756092E+03 -0.64075024732E+03  0.76699173174E+03  0.90302630036E+02 0.  0.
          4    1    3    3  502    0  0.41887826858E+02  0.14449358394E+03 -0.10872524371E+04  0.10976114284E+04  0.00000000000E+00 0. -1.
         -3    1    3    3    0  502 -0.88164514444E+01  0.89240310803E+00 -0.14142969759E+02  0.16689811053E+02  0.00000000000E+00 0.  1.
         13    1    5    5    0    0  0.67969097381E+02  0.42701870984E+02 -0.57200526407E+03  0.57760996365E+03  0.00000000000E+00 0. -1.
        -13    1    5    5    0    0  0.24353792089E+03  0.37359702883E+02 -0.10566671817E+04  0.10850124419E+04  0.00000000000E+00 0.  1.
          4    1    6    6  503    0 -0.54659860224E+02 -0.84064417209E+00 -0.76347278806E+02  0.93900553691E+02  0.00000000000E+00 0. -1.
         -4    1    6    6    0  503 -0.28991853346E+03 -0.22460691675E+03 -0.56440296852E+03  0.67309117805E+03  0.00000000000E+00 0.  1.
<mgrwt>
<rscale>  0 0.10940391E+04</rscale>
<asrwt>0</asrwt>
<pdfrwt beam="1">  1        2 0.53190265E+00 0.10940391E+04</pdfrwt>
<pdfrwt beam="2">  1       -1 0.13315173E-01 0.10940391E+04</pdfrwt>
<totfact> 0.40550469E+01</totfact>
</mgrwt>
</event>
<event>
12    7  0.1735955E-007  0.2043510E+04  0.7818608E-02  0.8586544E-01
         -1   -1    0    0    0  501 -0.00000000000E+00  0.00000000000E+00  0.16666211294E+04  0.16666211294E+04  0.00000000000E+00 0.  1.
          2   -1    0    0  501    0  0.00000000000E+00 -0.00000000000E+00 -0.62640704221E+03  0.62640704221E+03  0.00000000000E+00 0. -1.
         24    2    1    2    0    0 -0.47524817337E+03 -0.33199649919E+03  0.10756538250E+04  0.12245094094E+04  0.79433246266E+02 0.  0.
        254    2    1    2    0    0  0.47524817337E+03  0.33199649919E+03 -0.35439737851E+02  0.10685187622E+04  0.89688007471E+03 0.  0.
         23    2    4    4    0    0  0.59566452203E+03  0.49020799915E+03 -0.19064490985E+03  0.79992234051E+03  0.91706946051E+02 0.  0.
         23    2    4    4    0    0 -0.12041634866E+03 -0.15821149996E+03  0.15520517200E+03  0.26859642170E+03  0.92327767168E+02 0.  0.
          4    1    3    3  502    0 -0.24057468393E+02 -0.18513343486E+02  0.26887072267E+02  0.40551452842E+02  0.00000000000E+00 0. -1.
         -3    1    3    3    0  502 -0.45119070498E+03 -0.31348315570E+03  0.10487667528E+04  0.11839579565E+04  0.00000000000E+00 0.  1.
         13    1    5    5    0    0  0.31024626229E+03  0.27278299246E+03 -0.56938906412E+02  0.41701959583E+03  0.00000000000E+00 0. -1.
        -13    1    5    5    0    0  0.28541825974E+03  0.21742500668E+03 -0.13370600344E+03  0.38290274468E+03  0.00000000000E+00 0.  1.
          1    1    6    6  503    0 -0.85290662825E+02 -0.74739107256E+02  0.36179613082E+02  0.11903527091E+03  0.00000000000E+00 0. -1.
         -1    1    6    6    0  503 -0.35125685838E+02 -0.83472392705E+02  0.11902555892E+03  0.14956115079E+03  0.00000000000E+00 0.  1.
<mgrwt>
<rscale>  0 0.20435099E+04</rscale>
<asrwt>0</asrwt>
<pdfrwt beam="1">  1        2 0.96370315E-01 0.20435099E+04</pdfrwt>
<pdfrwt beam="2">  1       -1 0.25640325E+00 0.20435099E+04</pdfrwt>
<totfact> 0.31500989E+00</totfact>
</mgrwt>
</event>
<event>
12    7  0.1735955E-007  0.2087284E+04  0.7818608E-02  0.8566866E-01
         -1   -1    0    0    0  501 -0.00000000000E+00  0.00000000000E+00  0.37367347353E+03  0.37367347353E+03  0.00000000000E+00 0.  1.
          2   -1    0    0  501    0  0.00000000000E+00 -0.00000000000E+00 -0.29148146950E+04  0.29148146950E+04  0.00000000000E+00 0. -1.
         24    2    1    2    0    0 -0.70672456993E+02 -0.83367690903E+03 -0.12380698835E+04  0.14963833585E+04  0.79588532426E+02 0.  0.
        254    2    1    2    0    0  0.70672456993E+02  0.83367690903E+03 -0.13030713379E+04  0.17921048099E+04  0.90201604931E+03 0.  0.
         23    2    4    4    0    0 -0.20557204971E+03  0.35198723846E+03 -0.52848670844E+02  0.42136837776E+03  0.92754752420E+02 0.  0.
         23    2    4    4    0    0  0.27624450671E+03  0.48168967056E+03 -0.12502226671E+04  0.13707364322E+04  0.86750694410E+02 0.  0.
          2    1    3    3  502    0 -0.76298193661E+01 -0.18315992249E+03 -0.33116020865E+03  0.37851400918E+03  0.00000000000E+00 0. -1.
         -1    1    3    3    0  502 -0.63042637627E+02 -0.65051698653E+03 -0.90690967484E+03  0.11178693494E+04  0.00000000000E+00 0.  1.
         13    1    5    5    0    0 -0.16962711889E+03  0.33642983557E+03 -0.60096090237E+02  0.38153628109E+03  0.00000000000E+00 0.  1.
        -13    1    5    5    0    0 -0.35944930827E+02  0.15557402890E+02  0.72474193932E+01  0.39832096664E+02  0.00000000000E+00 0. -1.
          2    1    6    6  503    0  0.26892865101E+03  0.46531697789E+03 -0.11560327385E+04  0.12748545806E+04  0.00000000000E+00 0.  1.
         -2    1    6    6    0  503  0.73158556939E+01  0.16372692677E+02 -0.94189928608E+02  0.95881851574E+02  0.00000000000E+00 0. -1.
<mgrwt>
<rscale>  0 0.20872843E+04</rscale>
<asrwt>0</asrwt>
<pdfrwt beam="1">  1        2 0.44843303E+00 0.20872843E+04</pdfrwt>
<pdfrwt beam="2">  1       -1 0.57488227E-01 0.20872843E+04</pdfrwt>
<totfact> 0.63389627E+00</totfact>
</mgrwt>
</event>
<event>
12    7  0.1735955E-007  0.1303583E+04  0.7818608E-02  0.9026729E-01
          2   -1    0    0  501    0  0.00000000000E+00  0.00000000000E+00  0.62954862746E+03  0.62954862746E+03  0.00000000000E+00 0. -1.
         -1   -1    0    0    0  501 -0.00000000000E+00 -0.00000000000E+00 -0.67482017797E+03  0.67482017797E+03  0.00000000000E+00 0.  1.
         24    2    1    2    0    0 -0.18572229266E+02 -0.14674454721E+03 -0.31366298645E+03  0.35605552297E+03  0.80698057799E+02 0.  0.
        254    2    1    2    0    0  0.18572229266E+02  0.14674454721E+03  0.26839143594E+03  0.94831328247E+03  0.89743257629E+03 0.  0.
         23    2    4    4    0    0  0.20381002074E+03 -0.14316845986E+03  0.46963208983E+03  0.53938543430E+03  0.91359807815E+02 0.  0.
         23    2    4    4    0    0 -0.18523779147E+03  0.28991300706E+03 -0.20124065389E+03  0.40892784817E+03  0.91441747425E+02 0.  0.
          4    1    3    3  502    0 -0.27710300117E+02 -0.91638189462E+01 -0.74177946274E+02  0.79713261279E+02  0.00000000000E+00 0. -1.
         -3    1    3    3    0  502  0.91380708500E+01 -0.13758072826E+03 -0.23948504017E+03  0.27634226169E+03  0.00000000000E+00 0.  1.
         13    1    5    5    0    0  0.16421881968E+03 -0.12070301104E+03  0.29252561572E+03  0.35652247260E+03  0.00000000000E+00 0.  1.
        -13    1    5    5    0    0  0.39591201055E+02 -0.22465448817E+02  0.17710647411E+03  0.18286296171E+03  0.00000000000E+00 0. -1.
          1    1    6    6  503    0 -0.74378499457E+02  0.86061443044E+02 -0.11394841359E+03  0.16100613069E+03  0.00000000000E+00 0. -1.
         -1    1    6    6    0  503 -0.11085929201E+03  0.20385156402E+03 -0.87292240307E+02  0.24792171748E+03  0.00000000000E+00 0.  1.
<mgrwt>
<rscale>  0 0.13035829E+04</rscale>
<asrwt>0</asrwt>
<pdfrwt beam="1">  1        2 0.96853635E-01 0.13035829E+04</pdfrwt>
<pdfrwt beam="2">  1       -1 0.10381849E+00 0.13035829E+04</pdfrwt>
<totfact> 0.45799239E+01</totfact>
</mgrwt>
</event>
<event>
12    7  0.1735955E-007  0.4911471E+04  0.7818608E-02  0.7842311E-01
          2   -1    0    0  501    0  0.00000000000E+00  0.00000000000E+00  0.33042547976E+04  0.33042547976E+04  0.00000000000E+00 0. -1.
         -1   -1    0    0    0  501 -0.00000000000E+00 -0.00000000000E+00 -0.18251126026E+04  0.18251126026E+04  0.00000000000E+00 0.  1.
         24    2    1    2    0    0 -0.49962377369E+02 -0.20755980720E+04  0.19105835331E+04  0.28229963994E+04  0.91518515044E+02 0.  0.
        254    2    1    2    0    0  0.49962377369E+02  0.20755980720E+04 -0.43144133807E+03  0.23063710008E+04  0.90697407330E+03 0.  0.
         23    2    4    4    0    0 -0.34957997554E+03  0.41068484806E+03 -0.16632663914E+03  0.57161415854E+03  0.90609004178E+02 0.  0.
         23    2    4    4    0    0  0.39954235291E+03  0.16649132239E+04 -0.26511469893E+03  0.17347568423E+04  0.86748851629E+02 0.  0.
          2    1    3    3  502    0 -0.16787093962E+02 -0.16269256467E+04  0.15372667393E+04  0.22383828748E+04  0.00000000000E+00 0. -1.
         -1    1    3    3    0  502 -0.33175283407E+02 -0.44867242529E+03  0.37331679380E+03  0.58461352463E+03  0.00000000000E+00 0.  1.
         13    1    5    5    0    0 -0.15172912479E+03  0.12242398643E+03 -0.84820429134E+02  0.21261200568E+03  0.00000000000E+00 0.  1.
        -13    1    5    5    0    0 -0.19785085075E+03  0.28826086163E+03 -0.81506210009E+02  0.35900215286E+03  0.00000000000E+00 0. -1.
          2    1    6    6  503    0  0.36227779250E+03  0.13818995367E+04 -0.23351194297E+03  0.14475563395E+04  0.00000000000E+00 0.  1.
         -2    1    6    6    0  503  0.37264560412E+02  0.28301368721E+03 -0.31602755963E+02  0.28720050277E+03  0.00000000000E+00 0. -1.
<mgrwt>
<rscale>  0 0.49114711E+04</rscale>
<asrwt>0</asrwt>
<pdfrwt beam="1">  1        2 0.50834689E+00 0.49114711E+04</pdfrwt>
<pdfrwt beam="2">  1       -1 0.28078655E+00 0.49114711E+04</pdfrwt>
<totfact> 0.40488380E-02</totfact>
</mgrwt>
</event>
<event>
12    7  0.1735955E-007  0.1771167E+04  0.7818608E-02  0.8721784E-01
          2   -1    0    0  501    0  0.00000000000E+00  0.00000000000E+00  0.89291979532E+03  0.89291979532E+03  0.00000000000E+00 0. -1.
         -1   -1    0    0    0  501 -0.00000000000E+00 -0.00000000000E+00 -0.87830788875E+03  0.87830788875E+03  0.00000000000E+00 0.  1.
         24    2    1    2    0    0  0.40226668560E+03 -0.29715888830E+03 -0.41032313774E+03  0.65184754739E+03  0.80114021450E+02 0.  0.
        254    2    1    2    0    0 -0.40226668560E+03  0.29715888830E+03  0.42493504432E+03  0.11193801367E+04  0.90681872900E+03 0.  0.
         23    2    4    4    0    0 -0.18509557744E+03 -0.17039582286E+03  0.52209971370E+03  0.58712953554E+03  0.94009952804E+02 0.  0.
         23    2    4    4    0    0 -0.21717110816E+03  0.46755471116E+03 -0.97164669378E+02  0.53225060114E+03  0.89883431704E+02 0.  0.
          4    1    3    3  502    0  0.82867383530E+01 -0.27977200750E+02 -0.27608992464E+02  0.40170265860E+02  0.00000000000E+00 0. -1.
         -3    1    3    3    0  502  0.39397994725E+03 -0.26918168755E+03 -0.38271414528E+03  0.61167728153E+03  0.00000000000E+00 0.  1.
         13    1    5    5    0    0 -0.68840101501E+02 -0.88583464550E+02  0.13975904867E+03  0.17921657694E+03  0.00000000000E+00 0. -1.
        -13    1    5    5    0    0 -0.11625547594E+03 -0.81812358307E+02  0.38234066503E+03  0.40791295860E+03  0.00000000000E+00 0.  1.
          4    1    6    6  503    0 -0.10889244223E+03  0.29938351040E+03 -0.24753985993E+02  0.31953217381E+03  0.00000000000E+00 0. -1.
         -4    1    6    6    0  503 -0.10827866593E+03  0.16817120075E+03 -0.72410683385E+02  0.21271842733E+03  0.00000000000E+00 0.  1.
<mgrwt>
<rscale>  0 0.17711674E+04</rscale>
<asrwt>0</asrwt>
<pdfrwt beam="1">  1        2 0.13737228E+00 0.17711674E+04</pdfrwt>
<pdfrwt beam="2">  1       -1 0.13512429E+00 0.17711674E+04</pdfrwt>
<totfact> 0.14714739E+01</totfact>
</mgrwt>
</event>
<event>
12    7  0.1735955E-007  0.1712683E+04  0.7818608E-02  0.8754164E-01
          2   -1    0    0  501    0  0.00000000000E+00  0.00000000000E+00  0.11869221162E+04  0.11869221162E+04  0.00000000000E+00 0. -1.
         -3   -1    0    0    0  501 -0.00000000000E+00 -0.00000000000E+00 -0.61783410858E+03  0.61783410858E+03  0.00000000000E+00 0.  1.
         24    2    1    2    0    0 -0.77706010420E+02  0.17040299553E+03 -0.41315404598E+03  0.46043324285E+03  0.78911979256E+02 0.  0.
        254    2    1    2    0    0  0.77706010420E+02 -0.17040299553E+03  0.98224205360E+03  0.13443229819E+04  0.89851512114E+03 0.  0.
         23    2    4    4    0    0 -0.65824504018E+02  0.57581174909E+02 -0.13896936303E+03  0.18732719142E+03  0.90169483476E+02 0.  0.
         23    2    4    4    0    0  0.14353051444E+03 -0.22798417044E+03  0.11212114166E+04  0.11569957905E+04  0.94585558761E+02 0.  0.
          2    1    3    3  502    0  0.14996866443E+01  0.14549367997E+01 -0.68322510867E+02  0.68354454078E+02  0.00000000000E+00 0. -1.
         -1    1    3    3    0  502 -0.79205697064E+02  0.16894805873E+03 -0.34483153512E+03  0.39207878877E+03  0.00000000000E+00 0.  1.
         13    1    5    5    0    0 -0.34857373325E+02 -0.84721720831E+01 -0.70184130686E+01  0.36552322730E+02  0.00000000000E+00 0. -1.
        -13    1    5    5    0    0 -0.30967130693E+02  0.66053346992E+02 -0.13195094996E+03  0.15077486869E+03  0.00000000000E+00 0.  1.
          3    1    6    6  503    0  0.16396986359E+02  0.48084248895E+01  0.12146851704E+03  0.12266451298E+03  0.00000000000E+00 0. -1.
         -3    1    6    6    0  503  0.12713352808E+03 -0.23279259533E+03  0.99974289958E+03  0.10343312775E+04  0.00000000000E+00 0.  1.
<mgrwt>
<rscale>  0 0.17126832E+04</rscale>
<asrwt>0</asrwt>
<pdfrwt beam="1">  1        2 0.18260340E+00 0.17126832E+04</pdfrwt>
<pdfrwt beam="2">  1       -3 0.95051402E-01 0.17126832E+04</pdfrwt>
<totfact> 0.11451093E+01</totfact>
</mgrwt>
</event>
<event>
12    7  0.1735955E-007  0.2282856E+04  0.7818608E-02  0.8484712E-01
          2   -1    0    0  501    0  0.00000000000E+00  0.00000000000E+00  0.14379079774E+04  0.14379079774E+04  0.00000000000E+00 0. -1.
         -1   -1    0    0    0  501 -0.00000000000E+00 -0.00000000000E+00 -0.90607840173E+03  0.90607840173E+03  0.00000000000E+00 0.  1.
         24    2    1    2    0    0  0.88274208316E+03  0.30238444455E+03  0.76847068333E+02  0.93973736726E+03  0.80814044814E+02 0.  0.
        254    2    1    2    0    0 -0.88274208316E+03 -0.30238444455E+03  0.45498250737E+03  0.14042490119E+04  0.94564066523E+03 0.  0.
         23    2    4    4    0    0  0.44333622611E+02 -0.45414463848E+02 -0.20559118308E+03  0.23378718830E+03  0.91437252995E+02 0.  0.
         23    2    4    4    0    0 -0.92707570577E+03 -0.25696998070E+03  0.66057369045E+03  0.11704618236E+04  0.90112955716E+02 0.  0.
          2    1    3    3  502    0  0.26077958498E+03  0.66887717973E+02  0.52150729938E+02  0.27422555933E+03  0.00000000000E+00 0. -1.
         -1    1    3    3    0  502  0.62196249818E+03  0.23549672657E+03  0.24696338395E+02  0.66551180793E+03  0.00000000000E+00 0.  1.
         13    1    5    5    0    0 -0.23330953423E+02 -0.49912051115E+00 -0.86834618584E+02  0.89915702152E+02  0.00000000000E+00 0.  1.
        -13    1    5    5    0    0  0.67664576035E+02 -0.44915343336E+02 -0.11875656449E+03  0.14387148615E+03  0.00000000000E+00 0. -1.
          1    1    6    6  503    0 -0.80350252667E+02 -0.91623530278E+01  0.30955792586E+02  0.86593145868E+02  0.00000000000E+00 0. -1.
         -1    1    6    6    0  503 -0.84672545310E+03 -0.24780762767E+03  0.62961789786E+03  0.10838686777E+04  0.00000000000E+00 0.  1.
<mgrwt>
<rscale>  0 0.22828555E+04</rscale>
<asrwt>0</asrwt>
<pdfrwt beam="1">  1        2 0.22121661E+00 0.22828555E+04</pdfrwt>
<pdfrwt beam="2">  1       -1 0.13939668E+00 0.22828555E+04</pdfrwt>
<totfact> 0.60368405E+00</totfact>
</mgrwt>
</event>
<event>
12    7  0.1735955E-007  0.1251875E+04  0.7818608E-02  0.9068624E-01
         -1   -1    0    0    0  501 -0.00000000000E+00  0.00000000000E+00  0.33586582820E+03  0.33586582820E+03  0.00000000000E+00 0.  1.
          2   -1    0    0  501    0  0.00000000000E+00 -0.00000000000E+00 -0.11665307934E+04  0.11665307934E+04  0.00000000000E+00 0. -1.
         24    2    1    2    0    0 -0.32484785011E+03 -0.10126557245E+02 -0.35889331433E+03  0.49103201272E+03  0.81727312184E+02 0.  0.
        254    2    1    2    0    0  0.32484785011E+03  0.10126557245E+02 -0.47177165083E+03  0.10113646088E+04  0.83346338169E+03 0.  0.
         23    2    4    4    0    0  0.40906617792E+03 -0.11847747291E+03 -0.63489992484E+03  0.76974158304E+03  0.89622210338E+02 0.  0.
         23    2    4    4    0    0 -0.84218327810E+02  0.12860403016E+03  0.16312827401E+03  0.24162302581E+03  0.90217124257E+02 0.  0.
          4    1    3    3  502    0 -0.32032206230E+03 -0.22849575810E+02 -0.34916615535E+03  0.47438942942E+03  0.00000000000E+00 0. -1.
         -3    1    3    3    0  502 -0.45257878125E+01  0.12723018565E+02 -0.97271589866E+01  0.16642583293E+02  0.00000000000E+00 0.  1.
         13    1    5    5    0    0  0.38733197829E+03 -0.11812405193E+03 -0.62742735476E+03  0.74675594310E+03  0.00000000000E+00 0.  1.
        -13    1    5    5    0    0  0.21734199627E+02 -0.35342098605E+00 -0.74725700849E+01  0.22985639940E+02  0.00000000000E+00 0. -1.
          4    1    6    6  503    0 -0.59373066697E+02  0.13907225808E+03  0.13602100144E+03  0.20339116708E+03  0.00000000000E+00 0.  1.
         -4    1    6    6    0  503 -0.24845261113E+02 -0.10468227919E+02  0.27107272570E+02  0.38231858727E+02  0.00000000000E+00 0. -1.
<mgrwt>
<rscale>  0 0.12518751E+04</rscale>
<asrwt>0</asrwt>
<pdfrwt beam="1">  1        2 0.17946628E+00 0.12518751E+04</pdfrwt>
<pdfrwt beam="2">  1       -1 0.51671666E-01 0.12518751E+04</pdfrwt>
<totfact> 0.83822568E+01</totfact>
</mgrwt>
</event>
<event>
12    7  0.1735955E-007  0.1288010E+04  0.7818608E-02  0.9039128E-01
         -1   -1    0    0    0  501 -0.00000000000E+00  0.00000000000E+00  0.33214103820E+03  0.33214103820E+03  0.00000000000E+00 0.  1.
          2   -1    0    0  501    0  0.00000000000E+00 -0.00000000000E+00 -0.12486940331E+04  0.12486940331E+04  0.00000000000E+00 0. -1.
         24    2    1    2    0    0 -0.26937375288E+03 -0.75915752672E+02 -0.46965423132E+03  0.55253307231E+03  0.79951727632E+02 0.  0.
        254    2    1    2    0    0  0.26937375288E+03  0.75915752672E+02 -0.44689876355E+03  0.10283019990E+04  0.88281429303E+03 0.  0.
         23    2    4    4    0    0  0.21265486290E+03 -0.18125655054E+03 -0.63179342722E+03  0.69696770645E+03  0.92331042068E+02 0.  0.
         23    2    4    4    0    0  0.56718889983E+02  0.25717230321E+03  0.18489466366E+03  0.33133429252E+03  0.79004751303E+02 0.  0.
          2    1    3    3  502    0 -0.16018396794E+03 -0.34470266191E+02 -0.34373448002E+03  0.38078930604E+03  0.00000000000E+00 0. -1.
         -1    1    3    3    0  502 -0.10918978495E+03 -0.41445486481E+02 -0.12591975129E+03  0.17174376627E+03  0.00000000000E+00 0.  1.
         13    1    5    5    0    0  0.15560859641E+02 -0.24126809012E+01 -0.58576733644E+01  0.16801003515E+02  0.00000000000E+00 0. -1.
        -13    1    5    5    0    0  0.19709400326E+03 -0.17884386964E+03 -0.62593575385E+03  0.68016670293E+03  0.00000000000E+00 0.  1.
          3    1    6    6  503    0  0.29267392899E+02  0.89366417717E+02  0.11223817599E+03  0.14642522000E+03  0.00000000000E+00 0. -1.
         -3    1    6    6    0  503  0.27451497084E+02  0.16780588549E+03  0.72656487672E+02  0.18490907252E+03  0.00000000000E+00 0.  1.
<mgrwt>
<rscale>  0 0.12880101E+04</rscale>
<asrwt>0</asrwt>
<pdfrwt beam="1">  1        2 0.19210677E+00 0.12880101E+04</pdfrwt>
<pdfrwt beam="2">  1       -1 0.51098622E-01 0.12880101E+04</pdfrwt>
<totfact> 0.76282532E+01</totfact>
</mgrwt>
</event>
<event>
12    7  0.1735955E-007  0.1557793E+04  0.7818608E-02  0.8846905E-01
          4   -1    0    0  501    0  0.00000000000E+00  0.00000000000E+00  0.32747687570E+03  0.32747687570E+03  0.00000000000E+00 0. -1.
         -3   -1    0    0    0  501 -0.00000000000E+00 -0.00000000000E+00 -0.18525884154E+04  0.18525884154E+04  0.00000000000E+00 0.  1.
         24    2    1    2    0    0 -0.15059745627E+03  0.50989718459E+03 -0.36446396814E+03  0.64995531050E+03  0.83265772568E+02 0.  0.
        254    2    1    2    0    0  0.15059745627E+03 -0.50989718459E+03 -0.11606475716E+04  0.15301099806E+04  0.84348031078E+03 0.  0.
         23    2    4    4    0    0  0.30047067221E+03  0.12176869939E+03 -0.44250103639E+03  0.55772099581E+03  0.10067423178E+03 0.  0.
         23    2    4    4    0    0 -0.14987321594E+03 -0.63166588398E+03 -0.71814653519E+03  0.97238898481E+03  0.91335217366E+02 0.  0.
          2    1    3    3  502    0 -0.35352301139E+02  0.38407622222E+02 -0.26745359660E+02  0.58653600946E+02  0.00000000000E+00 0. -1.
         -1    1    3    3    0  502 -0.11524515513E+03  0.47148956237E+03 -0.33771860848E+03  0.59130170955E+03  0.00000000000E+00 0.  1.
         13    1    5    5    0    0  0.43646543116E+02  0.19316749844E+02 -0.13988843296E+03  0.14780707434E+03  0.00000000000E+00 0. -1.
        -13    1    5    5    0    0  0.25682412910E+03  0.10245194955E+03 -0.30261260344E+03  0.40991392147E+03  0.00000000000E+00 0.  1.
          2    1    6    6  503    0 -0.12651030654E+03 -0.53362497762E+03 -0.55236353691E+03  0.77837391484E+03  0.00000000000E+00 0. -1.
         -2    1    6    6    0  503 -0.23362909405E+02 -0.98040906364E+02 -0.16578299827E+03  0.19401506996E+03  0.00000000000E+00 0.  1.
<mgrwt>
<rscale>  0 0.15577931E+04</rscale>
<asrwt>0</asrwt>
<pdfrwt beam="1">  1        4 0.50381057E-01 0.15577931E+04</pdfrwt>
<pdfrwt beam="2">  1       -3 0.28501361E+00 0.15577931E+04</pdfrwt>
<totfact> 0.38761731E-01</totfact>
</mgrwt>
</event>
<event>
12    7  0.1735955E-007  0.1275233E+04  0.7818608E-02  0.9049440E-01
         -1   -1    0    0    0  501 -0.00000000000E+00  0.00000000000E+00  0.54027674844E+03  0.54027674844E+03  0.00000000000E+00 0.  1.
          2   -1    0    0  501    0  0.00000000000E+00 -0.00000000000E+00 -0.75249318632E+03  0.75249318632E+03  0.00000000000E+00 0. -1.
         24    2    1    2    0    0 -0.71796127707E+02 -0.15734874989E+02 -0.36439878956E+03  0.38039956908E+03  0.80716070754E+02 0.  0.
        254    2    1    2    0    0  0.71796127707E+02  0.15734874989E+02  0.15218235168E+03  0.91237036568E+03  0.89658125441E+03 0.  0.
         23    2    4    4    0    0 -0.18179181384E+03 -0.28245463104E+03  0.32267823788E+03  0.47467914095E+03  0.91488575676E+02 0.  0.
         23    2    4    4    0    0  0.25358794154E+03  0.29818950603E+03 -0.17049588620E+03  0.43769122472E+03  0.96337611476E+02 0.  0.
          2    1    3    3  502    0 -0.42932492349E+02 -0.68971097554E+01 -0.33649202285E+03  0.33928992096E+03  0.00000000000E+00 0. -1.
         -1    1    3    3    0  502 -0.28863635359E+02 -0.88377652340E+01 -0.27906766712E+02  0.41109648122E+02  0.00000000000E+00 0.  1.
         13    1    5    5    0    0 -0.35428641276E+02 -0.79284557809E+02  0.13991932512E+03  0.16467740365E+03  0.00000000000E+00 0. -1.
        -13    1    5    5    0    0 -0.14636317256E+03 -0.20317007323E+03  0.18275891276E+03  0.31000173731E+03  0.00000000000E+00 0.  1.
          2    1    6    6  503    0  0.31359643085E+02  0.87543364663E+02 -0.14728620595E+02  0.94149881442E+02  0.00000000000E+00 0. -1.
         -2    1    6    6    0  503  0.22222829846E+03  0.21064614137E+03 -0.15576726561E+03  0.34354134328E+03  0.00000000000E+00 0.  1.
<mgrwt>
<rscale>  0 0.12752326E+04</rscale>
<asrwt>0</asrwt>
<pdfrwt beam="1">  1        2 0.11576818E+00 0.12752326E+04</pdfrwt>
<pdfrwt beam="2">  1       -1 0.83119499E-01 0.12752326E+04</pdfrwt>
<totfact> 0.60185900E+01</totfact>
</mgrwt>
</event>
<event>
12    7  0.1735955E-007  0.1838513E+04  0.7818608E-02  0.8686082E-01
         -1   -1    0    0    0  501 -0.00000000000E+00  0.00000000000E+00  0.68827004447E+03  0.68827004447E+03  0.00000000000E+00 0.  1.
          2   -1    0    0  501    0  0.00000000000E+00 -0.00000000000E+00 -0.12277634621E+04  0.12277634621E+04  0.00000000000E+00 0. -1.
         24    2    1    2    0    0  0.10582116641E+03  0.42679237744E+03 -0.76713750356E+03  0.88822302153E+03  0.84204120400E+02 0.  0.
        254    2    1    2    0    0 -0.10582116641E+03 -0.42679237744E+03  0.22764408593E+03  0.10278104850E+04  0.90067902751E+03 0.  0.
         23    2    4    4    0    0 -0.10254054131E+03  0.72055525507E+02 -0.27467677514E+03  0.31476292524E+03  0.89004533257E+02 0.  0.
         23    2    4    4    0    0 -0.32806251016E+01 -0.49884790295E+03  0.50232086107E+03  0.71304755980E+03  0.85150351129E+02 0.  0.
          2    1    3    3  502    0  0.77455437244E+02  0.34853510571E+03 -0.67799374960E+03  0.76625817396E+03  0.00000000000E+00 0. -1.
         -1    1    3    3    0  502  0.28365729168E+02  0.78257271729E+02 -0.89143753964E+02  0.12196484756E+03  0.00000000000E+00 0.  1.
         13    1    5    5    0    0 -0.48532066016E+02  0.11552053831E+02 -0.32934285985E+02  0.59778579548E+02  0.00000000000E+00 0. -1.
        -13    1    5    5    0    0 -0.54008475294E+02  0.60503471675E+02 -0.24174248915E+03  0.25498434569E+03  0.00000000000E+00 0.  1.
          1    1    6    6  503    0  0.10485342313E+02 -0.22756594085E+03  0.17236859608E+03  0.28566962169E+03  0.00000000000E+00 0. -1.
         -1    1    6    6    0  503 -0.13765967415E+02 -0.27128196209E+03  0.32995226498E+03  0.42737793811E+03  0.00000000000E+00 0.  1.
<mgrwt>
<rscale>  0 0.18385133E+04</rscale>
<asrwt>0</asrwt>
<pdfrwt beam="1">  1        2 0.18888668E+00 0.18385133E+04</pdfrwt>
<pdfrwt beam="2">  1       -1 0.10588770E+00 0.18385133E+04</pdfrwt>
<totfact> 0.16333933E+01</totfact>
</mgrwt>
</event>
<event>
12    7  0.1735955E-007  0.1347374E+04  0.7818608E-02  0.8992818E-01
         -1   -1    0    0    0  501 -0.00000000000E+00  0.00000000000E+00  0.22148923519E+03  0.22148923519E+03  0.00000000000E+00 0.  1.
          2   -1    0    0  501    0  0.00000000000E+00 -0.00000000000E+00 -0.20491022950E+04  0.20491022950E+04  0.00000000000E+00 0. -1.
         24    2    1    2    0    0 -0.49578210927E+02 -0.36426647245E+03 -0.68323698427E+03  0.77992663322E+03  0.79528074159E+02 0.  0.
        254    2    1    2    0    0  0.49578210927E+02  0.36426647245E+03 -0.11443760755E+04  0.14906648970E+04  0.88166726763E+03 0.  0.
         23    2    4    4    0    0  0.25993609754E+03  0.55064989623E+03 -0.54639834556E+03  0.82380547632E+03  0.96551684404E+02 0.  0.
         23    2    4    4    0    0 -0.21035788662E+03 -0.18638342378E+03 -0.59797772998E+03  0.66685942064E+03  0.90193681713E+02 0.  0.
          2    1    3    3  502    0  0.42538779250E+01 -0.78979577148E+00 -0.31083299178E+02  0.31382968989E+02  0.00000000000E+00 0. -1.
         -1    1    3    3    0  502 -0.53832088851E+02 -0.36347667668E+03 -0.65215368509E+03  0.74854366423E+03  0.00000000000E+00 0.  1.
         13    1    5    5    0    0  0.17346260731E+03  0.43898556735E+03 -0.45480118663E+03  0.65547061249E+03  0.00000000000E+00 0.  1.
        -13    1    5    5    0    0  0.86473490229E+02  0.11166432889E+03 -0.91597158924E+02  0.16833486383E+03  0.00000000000E+00 0. -1.
          1    1    6    6  503    0 -0.11229165018E+03 -0.46821492581E+02 -0.20368638545E+03  0.23725473754E+03  0.00000000000E+00 0. -1.
         -1    1    6    6    0  503 -0.98066236436E+02 -0.13956193120E+03 -0.39429134453E+03  0.42960468310E+03  0.00000000000E+00 0.  1.
<mgrwt>
<rscale>  0 0.13473739E+04</rscale>
<asrwt>0</asrwt>
<pdfrwt beam="1">  1        2 0.31524652E+00 0.13473739E+04</pdfrwt>
<pdfrwt beam="2">  1       -1 0.34075265E-01 0.13473739E+04</pdfrwt>
<totfact> 0.56891384E+01</totfact>
</mgrwt>
</event>
<event>
12    7  0.1735955E-007  0.1783925E+04  0.7818608E-02  0.8714895E-01
          2   -1    0    0  501    0  0.00000000000E+00  0.00000000000E+00  0.22393486482E+04  0.22393486482E+04  0.00000000000E+00 0. -1.
         -1   -1    0    0    0  501 -0.00000000000E+00 -0.00000000000E+00 -0.35528062191E+03  0.35528062191E+03  0.00000000000E+00 0.  1.
         24    2    1    2    0    0 -0.60129891498E+02  0.24970161412E+03 -0.18411863004E+03  0.32613050383E+03  0.80591163637E+02 0.  0.
        254    2    1    2    0    0  0.60129891498E+02 -0.24970161412E+03  0.20681866563E+04  0.22684987663E+04  0.89594871911E+03 0.  0.
         23    2    4    4    0    0  0.37391337511E+03 -0.41477196608E+03  0.12806938190E+04  0.13999329133E+04  0.88252521605E+02 0.  0.
         23    2    4    4    0    0 -0.31378348362E+03  0.16507035196E+03  0.78749283731E+03  0.86856585304E+03  0.92484466659E+02 0.  0.
          2    1    3    3  502    0  0.19831493863E+02  0.38139590305E+02 -0.27622979591E+02  0.51097411861E+02  0.00000000000E+00 0. -1.
         -1    1    3    3    0  502 -0.79961385360E+02  0.21156202381E+03 -0.15649565045E+03  0.27503309197E+03  0.00000000000E+00 0.  1.
         13    1    5    5    0    0  0.36454299276E+03 -0.41117734220E+03  0.12750461860E+04  0.13884167878E+04  0.00000000000E+00 0.  1.
        -13    1    5    5    0    0  0.93703823533E+01 -0.35946238825E+01  0.56476330822E+01  0.11516125465E+02  0.00000000000E+00 0. -1.
          4    1    6    6  503    0 -0.55207100980E+02  0.23916952473E+02  0.23336727177E+03  0.24099819117E+03  0.00000000000E+00 0. -1.
         -4    1    6    6    0  503 -0.25857638264E+03  0.14115339949E+03  0.55412556554E+03  0.62756766187E+03  0.00000000000E+00 0.  1.
<mgrwt>
<rscale>  0 0.17839251E+04</rscale>
<asrwt>0</asrwt>
<pdfrwt beam="1">  1        2 0.34451517E+00 0.17839251E+04</pdfrwt>
<pdfrwt beam="2">  1       -1 0.54658558E-01 0.17839251E+04</pdfrwt>
<totfact> 0.17868350E+01</totfact>
</mgrwt>
</event>
<event>
12    7  0.1735955E-007  0.1531292E+04  0.7818608E-02  0.8863906E-01
         -1   -1    0    0    0  501 -0.00000000000E+00  0.00000000000E+00  0.55602361834E+03  0.55602361834E+03  0.00000000000E+00 0.  1.
          2   -1    0    0  501    0  0.00000000000E+00 -0.00000000000E+00 -0.10542972547E+04  0.10542972547E+04  0.00000000000E+00 0. -1.
         24    2    1    2    0    0  0.16795247188E+03  0.34647421907E+03 -0.52468030629E+03  0.65680348876E+03  0.88594479241E+02 0.  0.
        254    2    1    2    0    0 -0.16795247188E+03 -0.34647421907E+03  0.26406669949E+02  0.95351738426E+03  0.87192068020E+03 0.  0.
         23    2    4    4    0    0  0.19100287572E+03  0.11348405863E+03 -0.20928739389E+03  0.31779001167E+03  0.88479083292E+02 0.  0.
         23    2    4    4    0    0 -0.35895534760E+03 -0.45995827770E+03  0.23569406384E+03  0.63572737259E+03  0.90482273018E+02 0.  0.
          2    1    3    3  502    0  0.10912625314E+03  0.27665772511E+03 -0.34675506835E+03  0.45682284686E+03  0.00000000000E+00 0. -1.
         -1    1    3    3    0  502  0.58826218741E+02  0.69816493961E+02 -0.17792523793E+03  0.19998064190E+03  0.00000000000E+00 0.  1.
         13    1    5    5    0    0  0.53424662020E+02  0.15853240085E+02 -0.10662076401E+03  0.12030588951E+03  0.00000000000E+00 0. -1.
        -13    1    5    5    0    0  0.13757821370E+03  0.97630818541E+02 -0.10266662988E+03  0.19748412216E+03  0.00000000000E+00 0.  1.
          4    1    6    6  503    0 -0.23240041350E+03 -0.35399428417E+03  0.14635879398E+03  0.44804330371E+03  0.00000000000E+00 0.  1.
         -4    1    6    6    0  503 -0.12655493410E+03 -0.10596399352E+03  0.89335269863E+02  0.18768406888E+03  0.00000000000E+00 0. -1.
<mgrwt>
<rscale>  0 0.15312925E+04</rscale>
<asrwt>0</asrwt>
<pdfrwt beam="1">  1        2 0.16219958E+00 0.15312925E+04</pdfrwt>
<pdfrwt beam="2">  1       -1 0.85542096E-01 0.15312925E+04</pdfrwt>
<totfact> 0.34547275E+01</totfact>
</mgrwt>
</event>
<event>
12    7  0.1735955E-007  0.1106836E+04  0.7818608E-02  0.9198554E-01
         -1   -1    0    0    0  501 -0.00000000000E+00  0.00000000000E+00  0.53830402363E+03  0.53830402363E+03  0.00000000000E+00 0.  1.
          2   -1    0    0  501    0  0.00000000000E+00 -0.00000000000E+00 -0.56895680091E+03  0.56895680091E+03  0.00000000000E+00 0. -1.
         24    2    1    2    0    0 -0.34220563910E+01  0.10044846833E+03  0.15344246468E+03  0.19966347343E+03  0.78862585515E+02 0.  0.
        254    2    1    2    0    0  0.34220563910E+01 -0.10044846833E+03 -0.18409524197E+03  0.90759735111E+03  0.88302904164E+03 0.  0.
         23    2    4    4    0    0  0.42480315144E+03  0.34573929722E+02 -0.77246033602E+02  0.44299976156E+03  0.92891145671E+02 0.  0.
         23    2    4    4    0    0 -0.42138109505E+03 -0.13502239805E+03 -0.10684920837E+03  0.46459758956E+03  0.92957472279E+02 0.  0.
          2    1    3    3  502    0  0.12406024663E+02 -0.86168346736E+01  0.33666069126E+02  0.36899369887E+02  0.00000000000E+00 0. -1.
         -1    1    3    3    0  502 -0.15828081054E+02  0.10906530300E+03  0.11977639555E+03  0.16276410354E+03  0.00000000000E+00 0.  1.
         13    1    5    5    0    0  0.86068385596E+02 -0.36981389821E+01  0.20142332523E+02  0.88471220126E+02  0.00000000000E+00 0.  1.
        -13    1    5    5    0    0  0.33873476584E+03  0.38272068704E+02 -0.97388366125E+02  0.35452854143E+03  0.00000000000E+00 0. -1.
          3    1    6    6  503    0 -0.37644853697E+03 -0.92521982177E+02 -0.74302557035E+02  0.39470835836E+03  0.00000000000E+00 0. -1.
         -3    1    6    6    0  503 -0.44932558077E+02 -0.42500415874E+02 -0.32546651331E+02  0.69889231200E+02  0.00000000000E+00 0.  1.
<mgrwt>
<rscale>  0 0.11068365E+04</rscale>
<asrwt>0</asrwt>
<pdfrwt beam="1">  1        2 0.87531815E-01 0.11068365E+04</pdfrwt>
<pdfrwt beam="2">  1       -1 0.82816004E-01 0.11068365E+04</pdfrwt>
<totfact> 0.86924918E+01</totfact>
</mgrwt>
</event>
<event>
12    7  0.1735955E-007  0.1457546E+04  0.7818608E-02  0.8913186E-01
         -1   -1    0    0    0  501 -0.00000000000E+00  0.00000000000E+00  0.28362458428E+03  0.28362458428E+03  0.00000000000E+00 0.  1.
          2   -1    0    0  501    0  0.00000000000E+00 -0.00000000000E+00 -0.18725805117E+04  0.18725805117E+04  0.00000000000E+00 0. -1.
         24    2    1    2    0    0  0.31418063557E+03 -0.27520383156E+03 -0.74217560199E+03  0.85535285878E+03  0.79732478640E+02 0.  0.
        254    2    1    2    0    0 -0.31418063557E+03  0.27520383156E+03 -0.84678032547E+03  0.13008522373E+04  0.89483685826E+03 0.  0.
         23    2    4    4    0    0  0.13720367757E+03  0.29322399694E+03  0.59586635455E+00  0.33634948262E+03  0.91243947092E+02 0.  0.
         23    2    4    4    0    0 -0.45138431314E+03 -0.18020165386E+02 -0.84737619183E+03  0.96450275464E+03  0.90258676686E+02 0.  0.
          4    1    3    3  502    0  0.26220745311E+03 -0.24586754176E+03 -0.68007006870E+03  0.76921966622E+03  0.00000000000E+00 0. -1.
         -3    1    3    3    0  502  0.51973182461E+02 -0.29336289799E+02 -0.62105533292E+02  0.86133192555E+02  0.00000000000E+00 0.  1.
         13    1    5    5    0    0  0.14079468667E+03  0.27104432617E+03 -0.19707807517E+02  0.30606628076E+03  0.00000000000E+00 0.  1.
        -13    1    5    5    0    0 -0.35910091029E+01  0.22179670774E+02  0.20303673872E+02  0.30283201857E+02  0.00000000000E+00 0. -1.
          1    1    6    6  503    0 -0.10868130780E+03  0.11567238026E+02 -0.13723394210E+03  0.17543825844E+03  0.00000000000E+00 0. -1.
         -1    1    6    6    0  503 -0.34270300534E+03 -0.29587403411E+02 -0.71014224972E+03  0.78906449619E+03  0.00000000000E+00 0.  1.
<mgrwt>
<rscale>  0 0.14575457E+04</rscale>
<asrwt>0</asrwt>
<pdfrwt beam="1">  1        2 0.28808932E+00 0.14575457E+04</pdfrwt>
<pdfrwt beam="2">  1       -1 0.43634550E-01 0.14575457E+04</pdfrwt>
<totfact> 0.45048382E+01</totfact>
</mgrwt>
</event>
<event>
12    7  0.1735955E-007  0.1164798E+04  0.7818608E-02  0.9144239E-01
          2   -1    0    0  501    0  0.00000000000E+00  0.00000000000E+00  0.14702839881E+04  0.14702839881E+04  0.00000000000E+00 0. -1.
         -1   -1    0    0    0  501 -0.00000000000E+00 -0.00000000000E+00 -0.23069589934E+03  0.23069589934E+03  0.00000000000E+00 0.  1.
         24    2    1    2    0    0 -0.20759698884E+03  0.12624582956E+02  0.13682156572E+03  0.26209604598E+03  0.81965276808E+02 0.  0.
        254    2    1    2    0    0  0.20759698884E+03 -0.12624582956E+02  0.11027665231E+04  0.14388838415E+04  0.90057582414E+03 0.  0.
         23    2    4    4    0    0 -0.22781197456E+03 -0.12066064533E+03  0.36827375161E+02  0.27885294456E+03  0.99726736851E+02 0.  0.
         23    2    4    4    0    0  0.43540896341E+03  0.10803606237E+03  0.10659391479E+04  0.11600308969E+04  0.90513306214E+02 0.  0.
          2    1    3    3  502    0 -0.14353092859E+03  0.44413760788E+02  0.10777607918E+03  0.18490373942E+03  0.00000000000E+00 0. -1.
         -3    1    3    3    0  502 -0.64066060254E+02 -0.31789177832E+02  0.29045486538E+02  0.77192306560E+02  0.00000000000E+00 0.  1.
         13    1    5    5    0    0 -0.55263628073E+02  0.13052566321E+02 -0.33906655199E+01  0.56885276549E+02  0.00000000000E+00 0. -1.
        -13    1    5    5    0    0 -0.17254834649E+03 -0.13371321165E+03  0.40218040681E+02  0.22196766801E+03  0.00000000000E+00 0.  1.
          3    1    6    6  503    0  0.78917084168E+02  0.56133977022E+02  0.24997955103E+03  0.26808339278E+03  0.00000000000E+00 0. -1.
         -3    1    6    6    0  503  0.35649187924E+03  0.51902085349E+02  0.81595959688E+03  0.89194750415E+03  0.00000000000E+00 0.  1.
<mgrwt>
<rscale>  0 0.11647978E+04</rscale>
<asrwt>0</asrwt>
<pdfrwt beam="1">  1        2 0.22619753E+00 0.11647978E+04</pdfrwt>
<pdfrwt beam="2">  1       -1 0.35491678E-01 0.11647978E+04</pdfrwt>
<totfact> 0.11245817E+02</totfact>
</mgrwt>
</event>
<event>
12    7  0.1735955E-007  0.2007102E+04  0.7818608E-02  0.8603308E-01
         -1   -1    0    0    0  501 -0.00000000000E+00  0.00000000000E+00  0.76433838841E+03  0.76433838841E+03  0.00000000000E+00 0.  1.
          2   -1    0    0  501    0  0.00000000000E+00 -0.00000000000E+00 -0.13176290577E+04  0.13176290577E+04  0.00000000000E+00 0. -1.
         24    2    1    2    0    0 -0.31903361539E+03  0.28218962210E+03 -0.92504567018E+03  0.10214189553E+04  0.78573276468E+02 0.  0.
        254    2    1    2    0    0  0.31903361539E+03 -0.28218962210E+03  0.37175500094E+03  0.10605484908E+04  0.89730033431E+03 0.  0.
         23    2    4    4    0    0 -0.29651398523E+03 -0.16241554175E+03  0.65295126189E+02  0.35696460154E+03  0.94132468423E+02 0.  0.
         23    2    4    4    0    0  0.61554760061E+03 -0.11977408034E+03  0.30645987475E+03  0.70358388922E+03  0.88701495979E+02 0.  0.
          2    1    3    3  502    0 -0.27560892153E+03  0.27420113665E+03 -0.83941276665E+03  0.92507315050E+03  0.00000000000E+00 0. -1.
         -1    1    3    3    0  502 -0.43424693861E+02  0.79884854518E+01 -0.85632903532E+02  0.96345804808E+02  0.00000000000E+00 0.  1.
         13    1    5    5    0    0 -0.19395808618E+03 -0.12082290888E+03  0.85419722932E-01  0.22851241060E+03  0.00000000000E+00 0. -1.
        -13    1    5    5    0    0 -0.10255589905E+03 -0.41592632876E+02  0.65209706466E+02  0.12845219094E+03  0.00000000000E+00 0.  1.
          1    1    6    6  503    0  0.23178560459E+03 -0.58607052081E+02  0.16292900272E+03  0.28931853203E+03  0.00000000000E+00 0. -1.
         -1    1    6    6    0  503  0.38376199603E+03 -0.61167028263E+02  0.14353087203E+03  0.41426535719E+03  0.00000000000E+00 0.  1.
<mgrwt>
<rscale>  0 0.20071019E+04</rscale>
<asrwt>0</asrwt>
<pdfrwt beam="1">  1        2 0.20271216E+00 0.20071019E+04</pdfrwt>
<pdfrwt beam="2">  1       -1 0.11759052E+00 0.20071019E+04</pdfrwt>
<totfact> 0.11115931E+01</totfact>
</mgrwt>
</event>
<event>
12    7  0.1735955E-007  0.1753489E+04  0.7818608E-02  0.8731432E-01
          2   -1    0    0  501    0  0.00000000000E+00  0.00000000000E+00  0.15528672529E+04  0.15528672529E+04  0.00000000000E+00 0. -1.
         -1   -1    0    0    0  501 -0.00000000000E+00 -0.00000000000E+00 -0.49500732643E+03  0.49500732643E+03  0.00000000000E+00 0.  1.
         24    2    1    2    0    0  0.11631260167E+03  0.59150376512E+03  0.67560898650E+03  0.90897410979E+03  0.79881813759E+02 0.  0.
        254    2    1    2    0    0 -0.11631260167E+03 -0.59150376512E+03  0.38225093997E+03  0.11389004695E+04  0.88745319479E+03 0.  0.
         23    2    4    4    0    0 -0.46714840298E+03 -0.14865898359E+03  0.13385188644E+03  0.51510881002E+03  0.84223719006E+02 0.  0.
         23    2    4    4    0    0  0.35083580132E+03 -0.44284478154E+03  0.24839905353E+03  0.62379165952E+03  0.90645930245E+02 0.  0.
          4    1    3    3  502    0  0.11947258201E+03  0.49667437698E+03  0.59725463702E+03  0.78592126580E+03  0.00000000000E+00 0. -1.
         -3    1    3    3    0  502 -0.31599803407E+01  0.94829388140E+02  0.78354349488E+02  0.12305284399E+03  0.00000000000E+00 0.  1.
         13    1    5    5    0    0 -0.20070329755E+03 -0.10197368593E+03  0.82561314634E+02  0.23978493894E+03  0.00000000000E+00 0. -1.
        -13    1    5    5    0    0 -0.26644510544E+03 -0.46685297652E+02  0.51290571807E+02  0.27532387108E+03  0.00000000000E+00 0.  1.
          4    1    6    6  503    0  0.80964960361E+02 -0.72454909947E+02  0.82447940342E+02  0.13639172133E+03  0.00000000000E+00 0. -1.
         -4    1    6    6    0  503  0.26987084096E+03 -0.37038987159E+03  0.16595111319E+03  0.48739993818E+03  0.00000000000E+00 0.  1.
<mgrwt>
<rscale>  0 0.17534887E+04</rscale>
<asrwt>0</asrwt>
<pdfrwt beam="1">  1        2 0.23890265E+00 0.17534887E+04</pdfrwt>
<pdfrwt beam="2">  1       -1 0.76154974E-01 0.17534887E+04</pdfrwt>
<totfact> 0.22154811E+01</totfact>
</mgrwt>
</event>
<event>
12    7  0.1735955E-007  0.1598985E+04  0.7818608E-02  0.8821172E-01
          2   -1    0    0  501    0  0.00000000000E+00  0.00000000000E+00  0.37534357589E+03  0.37534357589E+03  0.00000000000E+00 0. -1.
         -1   -1    0    0    0  501 -0.00000000000E+00 -0.00000000000E+00 -0.17029419576E+04  0.17029419576E+04  0.00000000000E+00 0.  1.
         24    2    1    2    0    0  0.34009170626E+03 -0.41655050955E+03 -0.36505032852E+03  0.65371645076E+03  0.70048268866E+02 0.  0.
        254    2    1    2    0    0 -0.34009170626E+03  0.41655050955E+03 -0.96254805316E+03  0.14245690827E+04  0.90206519780E+03 0.  0.
         23    2    4    4    0    0  0.28691104438E+03  0.18400541803E+02 -0.25331087422E+03  0.39323912953E+03  0.88397322739E+02 0.  0.
         23    2    4    4    0    0 -0.62700275064E+03  0.39814996775E+03 -0.70923717894E+03  0.10313299532E+04  0.94700845837E+02 0.  0.
          4    1    3    3  502    0  0.24233763606E+03 -0.25560989629E+03 -0.21240056902E+03  0.41131247325E+03  0.00000000000E+00 0. -1.
         -3    1    3    3    0  502  0.97754070196E+02 -0.16094061326E+03 -0.15264975950E+03  0.24240397751E+03  0.00000000000E+00 0.  1.
         13    1    5    5    0    0  0.29314463825E+03  0.20298331515E+02 -0.25055103510E+03  0.38616268901E+03  0.00000000000E+00 0. -1.
        -13    1    5    5    0    0 -0.62335938718E+01 -0.18977897117E+01 -0.27598391202E+01  0.70764405119E+01  0.00000000000E+00 0.  1.
          2    1    6    6  503    0 -0.43533105587E+03  0.22352309179E+03 -0.45582155678E+03  0.66876676980E+03  0.00000000000E+00 0. -1.
         -2    1    6    6    0  503 -0.19167169477E+03  0.17462687596E+03 -0.25341562216E+03  0.36256318338E+03  0.00000000000E+00 0.  1.
<mgrwt>
<rscale>  0 0.15989851E+04</rscale>
<asrwt>0</asrwt>
<pdfrwt beam="1">  1        2 0.57745166E-01 0.15989851E+04</pdfrwt>
<pdfrwt beam="2">  1       -1 0.26199107E+00 0.15989851E+04</pdfrwt>
<totfact> 0.54627247E+00</totfact>
</mgrwt>
</event>
<event>
12    7  0.1735955E-007  0.1058275E+04  0.7818608E-02  0.9246842E-01
         -1   -1    0    0    0  501 -0.00000000000E+00  0.00000000000E+00  0.21770538129E+03  0.21770538129E+03  0.00000000000E+00 0.  1.
          2   -1    0    0  501    0  0.00000000000E+00 -0.00000000000E+00 -0.12860798304E+04  0.12860798304E+04  0.00000000000E+00 0. -1.
         24    2    1    2    0    0  0.31271485014E+02  0.87891551687E+02 -0.13207470785E+02  0.12112309733E+03  0.76115286180E+02 0.  0.
        254    2    1    2    0    0 -0.31271485014E+02 -0.87891551687E+02 -0.10551669783E+04  0.13826621143E+04  0.88863622460E+03 0.  0.
         23    2    4    4    0    0 -0.18233136615E+03 -0.41726199269E+03 -0.33597486146E+03  0.57222876987E+03  0.84937388193E+02 0.  0.
         23    2    4    4    0    0  0.15105988114E+03  0.32937044100E+03 -0.71919211682E+03  0.81043334444E+03  0.90889657199E+02 0.  0.
          2    1    3    3  502    0  0.31601966106E+02 -0.86770233327E+00 -0.46013533978E+01  0.31946981426E+02  0.00000000000E+00 0. -1.
         -1    1    3    3    0  502 -0.33048109244E+00  0.88759254020E+02 -0.86061173869E+01  0.89176115908E+02  0.00000000000E+00 0.  1.
         13    1    5    5    0    0 -0.40572398219E+02 -0.62644752219E+02 -0.21942216348E+02  0.77794250019E+02  0.00000000000E+00 0. -1.
        -13    1    5    5    0    0 -0.14175896793E+03 -0.35461724047E+03 -0.31403264511E+03  0.49443451986E+03  0.00000000000E+00 0.  1.
          4    1    6    6  503    0  0.11519278811E+03  0.23157622280E+03 -0.41603027354E+03  0.48987561064E+03  0.00000000000E+00 0.  1.
         -4    1    6    6    0  503  0.35867093023E+02  0.97794218206E+02 -0.30316184329E+03  0.32055773380E+03  0.00000000000E+00 0. -1.
<mgrwt>
<rscale>  0 0.10582750E+04</rscale>
<asrwt>0</asrwt>
<pdfrwt beam="1">  1        2 0.19785844E+00 0.10582750E+04</pdfrwt>
<pdfrwt beam="2">  1       -1 0.33493135E-01 0.10582750E+04</pdfrwt>
<totfact> 0.16022190E+02</totfact>
</mgrwt>
</event>
<event>
12    7  0.1735955E-007  0.1724303E+04  0.7818608E-02  0.8747624E-01
         -1   -1    0    0    0  501 -0.00000000000E+00  0.00000000000E+00  0.45768677692E+03  0.45768677692E+03  0.00000000000E+00 0.  1.
          2   -1    0    0  501    0  0.00000000000E+00 -0.00000000000E+00 -0.16240476582E+04  0.16240476582E+04  0.00000000000E+00 0. -1.
         24    2    1    2    0    0  0.21251058200E+03  0.33961027515E+03 -0.99297528243E+03  0.10736926008E+04  0.79498446945E+02 0.  0.
        254    2    1    2    0    0 -0.21251058200E+03 -0.33961027515E+03 -0.17338559883E+03  0.10080418343E+04  0.90861977050E+03 0.  0.
         23    2    4    4    0    0 -0.21573047781E+02 -0.41503364504E+03  0.27573124346E+03  0.50609876549E+03  0.85964637509E+02 0.  0.
         23    2    4    4    0    0 -0.19093753422E+03  0.75423369894E+02 -0.44911684229E+03  0.50194306879E+03  0.89972660185E+02 0.  0.
          4    1    3    3  502    0  0.21000635157E+03  0.34170297183E+03 -0.99239339244E+03  0.10703776128E+04  0.00000000000E+00 0. -1.
         -3    1    3    3    0  502  0.25042304257E+01 -0.20926966761E+01 -0.58188998157E+00  0.33149879869E+01  0.00000000000E+00 0.  1.
         13    1    5    5    0    0 -0.64710269168E+01 -0.78043509310E+02  0.95957085613E+02  0.12385647264E+03  0.00000000000E+00 0. -1.
        -13    1    5    5    0    0 -0.15102020864E+02 -0.33699013573E+03  0.17977415785E+03  0.38224229285E+03  0.00000000000E+00 0.  1.
          1    1    6    6  503    0 -0.40219310493E+02  0.31602729885E+02 -0.43958325421E+02  0.67443753206E+02  0.00000000000E+00 0. -1.
         -1    1    6    6    0  503 -0.15071822373E+03  0.43820640009E+02 -0.40515851687E+03  0.43449931559E+03  0.00000000000E+00 0.  1.
<mgrwt>
<rscale>  0 0.17243029E+04</rscale>
<asrwt>0</asrwt>
<pdfrwt beam="1">  1        2 0.24985349E+00 0.17243029E+04</pdfrwt>
<pdfrwt beam="2">  1       -1 0.70413350E-01 0.17243029E+04</pdfrwt>
<totfact> 0.23844705E+01</totfact>
</mgrwt>
</event>
<event>
12    7  0.1735955E-007  0.2349387E+04  0.7818608E-02  0.8458699E-01
          2   -1    0    0  501    0  0.00000000000E+00  0.00000000000E+00  0.45166708290E+04  0.45166708290E+04  0.00000000000E+00 0. -1.
         -1   -1    0    0    0  501 -0.00000000000E+00 -0.00000000000E+00 -0.30551358421E+03  0.30551358421E+03  0.00000000000E+00 0.  1.
         24    2    1    2    0    0 -0.10171272785E+03 -0.72113859622E+03  0.32061461342E+04  0.32887420043E+04  0.77875429765E+02 0.  0.
        254    2    1    2    0    0  0.10171272785E+03  0.72113859622E+03  0.10050111105E+04  0.15334424089E+04  0.90056201077E+03 0.  0.
         23    2    4    4    0    0 -0.25070648351E+03 -0.57832618088E+02  0.11374349167E+03  0.29509395115E+03  0.89131955637E+02 0.  0.
         23    2    4    4    0    0  0.35241921137E+03  0.77897121431E+03  0.89126761884E+03  0.12383484578E+04  0.90296628918E+02 0.  0.
          2    1    3    3  502    0 -0.96234050357E+02 -0.61695497052E+03  0.26196657023E+04  0.26930545520E+04  0.00000000000E+00 0. -1.
         -1    1    3    3    0  502 -0.54786774978E+01 -0.10418362570E+03  0.58648043195E+03  0.59568745231E+03  0.00000000000E+00 0.  1.
         13    1    5    5    0    0 -0.14751546693E+03  0.11500959046E+02  0.60650595916E+02  0.15991116229E+03  0.00000000000E+00 0.  1.
        -13    1    5    5    0    0 -0.10319101659E+03 -0.69333577133E+02  0.53092895758E+02  0.13518278886E+03  0.00000000000E+00 0. -1.
          1    1    6    6  503    0  0.24116207647E+03  0.60350564105E+03  0.71105570498E+03  0.96331636625E+03  0.00000000000E+00 0. -1.
         -1    1    6    6    0  503  0.11125713490E+03  0.17546557326E+03  0.18021191386E+03  0.27503209152E+03  0.00000000000E+00 0.  1.
<mgrwt>
<rscale>  0 0.23493866E+04</rscale>
<asrwt>0</asrwt>
<pdfrwt beam="1">  1        2 0.69487239E+00 0.23493866E+04</pdfrwt>
<pdfrwt beam="2">  1       -1 0.47002093E-01 0.23493866E+04</pdfrwt>
<totfact> 0.55429558E-01</totfact>
</mgrwt>
</event>
<event>
12    7  0.1735955E-007  0.2465060E+04  0.7818608E-02  0.8415540E-01
         -1   -1    0    0    0  501 -0.00000000000E+00  0.00000000000E+00  0.49493910567E+03  0.49493910567E+03  0.00000000000E+00 0.  1.
          2   -1    0    0  501    0  0.00000000000E+00 -0.00000000000E+00 -0.30693285577E+04  0.30693285577E+04  0.00000000000E+00 0. -1.
         24    2    1    2    0    0  0.85713090032E+03  0.12075982630E+03 -0.19968491712E+04  0.21782007933E+04  0.88858131208E+02 0.  0.
        254    2    1    2    0    0 -0.85713090032E+03 -0.12075982630E+03 -0.57754028080E+03  0.13860668700E+04  0.91562671233E+03 0.  0.
         23    2    4    4    0    0 -0.87993464650E+03 -0.28834587354E+03 -0.69468644364E+03  0.11612170266E+04  0.91691891447E+02 0.  0.
         23    2    4    4    0    0  0.22803746182E+02  0.16758604724E+03  0.11714616284E+03  0.22484984345E+03  0.90714577450E+02 0.  0.
          4    1    3    3  502    0  0.78011691900E+03  0.11193974580E+03 -0.18735243546E+04  0.20325369421E+04  0.00000000000E+00 0. -1.
         -3    1    3    3    0  502  0.77013981314E+02  0.88200805005E+01 -0.12332481666E+03  0.14566385119E+03  0.00000000000E+00 0.  1.
         13    1    5    5    0    0 -0.11619554113E+03 -0.70978658928E+02 -0.11179720083E+03  0.17617601402E+03  0.00000000000E+00 0. -1.
        -13    1    5    5    0    0 -0.76373910536E+03 -0.21736721462E+03 -0.58288924282E+03  0.98504101257E+03  0.00000000000E+00 0.  1.
          3    1    6    6  503    0 -0.34518890832E+02  0.79710550338E+02  0.48797626232E+02  0.99631992780E+02  0.00000000000E+00 0. -1.
         -3    1    6    6    0  503  0.57322637013E+02  0.87875496903E+02  0.68348536608E+02  0.12521785067E+03  0.00000000000E+00 0.  1.
<mgrwt>
<rscale>  0 0.24650604E+04</rscale>
<asrwt>0</asrwt>
<pdfrwt beam="1">  1        2 0.47220439E+00 0.24650604E+04</pdfrwt>
<pdfrwt beam="2">  1       -1 0.76144479E-01 0.24650604E+04</pdfrwt>
<totfact> 0.27745247E+00</totfact>
</mgrwt>
</event>
<event>
12    7  0.1735955E-007  0.2198670E+04  0.7818608E-02  0.8518982E-01
          2   -1    0    0  501    0  0.00000000000E+00  0.00000000000E+00  0.90841798883E+03  0.90841798883E+03  0.00000000000E+00 0. -1.
         -1   -1    0    0    0  501 -0.00000000000E+00 -0.00000000000E+00 -0.13303756680E+04  0.13303756680E+04  0.00000000000E+00 0.  1.
         24    2    1    2    0    0 -0.75318718107E+03 -0.13526026311E+03  0.33108922516E+03  0.83750615871E+03  0.78804964044E+02 0.  0.
        254    2    1    2    0    0  0.75318718107E+03  0.13526026311E+03 -0.75304690435E+03  0.14012874981E+04  0.90052248378E+03 0.  0.
         23    2    4    4    0    0  0.68821282926E+03  0.74816526723E+02 -0.64877872127E+02  0.70141788583E+03  0.92431062114E+02 0.  0.
         23    2    4    4    0    0  0.64974351807E+02  0.60443736387E+02 -0.68816903222E+03  0.69986961231E+03  0.91464450277E+02 0.  0.
          4    1    3    3  502    0 -0.21456073177E+03 -0.27403505305E+02  0.57442826779E+02  0.22380111275E+03  0.00000000000E+00 0. -1.
         -3    1    3    3    0  502 -0.53862644930E+03 -0.10785675780E+03  0.27364639838E+03  0.61370504596E+03  0.00000000000E+00 0.  1.
         13    1    5    5    0    0  0.62410230273E+03  0.44358583155E+02 -0.43034374734E+02  0.62715494543E+03  0.00000000000E+00 0. -1.
        -13    1    5    5    0    0  0.64110526536E+02  0.30457943569E+02 -0.21843497393E+02  0.74262940404E+02  0.00000000000E+00 0.  1.
          3    1    6    6  503    0  0.61461727212E+02  0.31087892741E+02 -0.63746708932E+03  0.64117726953E+03  0.00000000000E+00 0. -1.
         -3    1    6    6    0  503  0.35126245957E+01  0.29355843646E+02 -0.50701942898E+02  0.58692342783E+02  0.00000000000E+00 0.  1.
<mgrwt>
<rscale>  0 0.21986698E+04</rscale>
<asrwt>0</asrwt>
<pdfrwt beam="1">  1        2 0.13975661E+00 0.21986698E+04</pdfrwt>
<pdfrwt beam="2">  1       -1 0.20467318E+00 0.21986698E+04</pdfrwt>
<totfact> 0.42175902E+00</totfact>
</mgrwt>
</event>
<event>
12    7  0.1735955E-007  0.2370169E+04  0.7818608E-02  0.8450757E-01
          2   -1    0    0  501    0  0.00000000000E+00  0.00000000000E+00  0.13876220189E+04  0.13876220189E+04  0.00000000000E+00 0. -1.
         -1   -1    0    0    0  501 -0.00000000000E+00 -0.00000000000E+00 -0.10121092570E+04  0.10121092570E+04  0.00000000000E+00 0.  1.
         24    2    1    2    0    0  0.74883591198E+03  0.66567303502E+03  0.24256724788E+02  0.10076175373E+04  0.10406200140E+03 0.  0.
        254    2    1    2    0    0 -0.74883591198E+03 -0.66567303502E+03  0.35125603711E+03  0.13921137386E+04  0.90040215735E+03 0.  0.
         23    2    4    4    0    0 -0.17906744373E+03 -0.69456208847E+03  0.14194151365E+02  0.72340697459E+03  0.92922186818E+02 0.  0.
         23    2    4    4    0    0 -0.56976846825E+03  0.28889053452E+02  0.33706188575E+03  0.66870676401E+03  0.89929620173E+02 0.  0.
          2    1    3    3  502    0  0.63724144410E+03  0.53238409717E+03  0.50066535032E+02  0.83187507652E+03  0.00000000000E+00 0. -1.
         -1    1    3    3    0  502  0.11159446788E+03  0.13328893785E+03 -0.25809810243E+02  0.17574246077E+03  0.00000000000E+00 0.  1.
         13    1    5    5    0    0 -0.11583901944E+03 -0.42765189459E+03  0.53601636789E+02  0.44629357696E+03  0.00000000000E+00 0.  1.
        -13    1    5    5    0    0 -0.63228424287E+02 -0.26691019388E+03 -0.39407485424E+02  0.27711339762E+03  0.00000000000E+00 0. -1.
          4    1    6    6  503    0 -0.51912172461E+03  0.24310693482E+01  0.28971175896E+03  0.59449657555E+03  0.00000000000E+00 0. -1.
         -4    1    6    6    0  503 -0.50646743640E+02  0.26457984104E+02  0.47350126789E+02  0.74210188459E+02  0.00000000000E+00 0.  1.
<mgrwt>
<rscale>  0 0.23701688E+04</rscale>
<asrwt>0</asrwt>
<pdfrwt beam="1">  1        2 0.21348031E+00 0.23701688E+04</pdfrwt>
<pdfrwt beam="2">  1       -1 0.15570912E+00 0.23701688E+04</pdfrwt>
<totfact> 0.47611789E+00</totfact>
</mgrwt>
</event>
<event>
12    7  0.1735955E-007  0.1985473E+04  0.7818608E-02  0.8613443E-01
         -1   -1    0    0    0  501 -0.00000000000E+00  0.00000000000E+00  0.99614360724E+03  0.99614360724E+03  0.00000000000E+00 0.  1.
          2   -1    0    0  501    0  0.00000000000E+00 -0.00000000000E+00 -0.98934125186E+03  0.98934125186E+03  0.00000000000E+00 0. -1.
         24    2    1    2    0    0 -0.10377900210E+03 -0.72148552623E+03 -0.29571062904E+03  0.79043784940E+03  0.77690229671E+02 0.  0.
        254    2    1    2    0    0  0.10377900210E+03  0.72148552623E+03  0.30251298442E+03  0.11950470097E+04  0.89739166689E+03 0.  0.
         23    2    4    4    0    0  0.40869568592E+02  0.12592509557E+03 -0.30003129713E+03  0.34066227161E+03  0.92220131793E+02 0.  0.
         23    2    4    4    0    0  0.62909433507E+02  0.59556043066E+03  0.60254428155E+03  0.85438473809E+03  0.90905698788E+02 0.  0.
          4    1    3    3  502    0 -0.10388246273E+03 -0.72198183552E+03 -0.29811104870E+03  0.78798447589E+03  0.00000000000E+00 0. -1.
         -3    1    3    3    0  502  0.10346063568E+00  0.49630928780E+00  0.24004196591E+01  0.24533735044E+01  0.00000000000E+00 0.  1.
         13    1    5    5    0    0  0.56733509019E+02  0.39189470605E+02 -0.94198313951E+02  0.11673828851E+03  0.00000000000E+00 0. -1.
        -13    1    5    5    0    0 -0.15863940427E+02  0.86735624970E+02 -0.20583298318E+03  0.22392398310E+03  0.00000000000E+00 0.  1.
          3    1    6    6  503    0 -0.10348744327E+02  0.85381979708E+02  0.53318868820E+02  0.10119328407E+03  0.00000000000E+00 0. -1.
         -3    1    6    6    0  503  0.73258177834E+02  0.51017845095E+03  0.54922541273E+03  0.75319145403E+03  0.00000000000E+00 0.  1.
<mgrwt>
<rscale>  0 0.19854732E+04</rscale>
<asrwt>0</asrwt>
<pdfrwt beam="1">  1        2 0.15220635E+00 0.19854732E+04</pdfrwt>
<pdfrwt beam="2">  1       -1 0.15325286E+00 0.19854732E+04</pdfrwt>
<totfact> 0.89384927E+00</totfact>
</mgrwt>
</event>
<event>
12    7  0.1735955E-007  0.1978709E+04  0.7818608E-02  0.8616640E-01
         -1   -1    0    0    0  501 -0.00000000000E+00  0.00000000000E+00  0.13156595959E+04  0.13156595959E+04  0.00000000000E+00 0.  1.
          2   -1    0    0  501    0  0.00000000000E+00 -0.00000000000E+00 -0.74397855386E+03  0.74397855386E+03  0.00000000000E+00 0. -1.
         24    2    1    2    0    0 -0.19862682728E+03  0.22249225239E+03 -0.52212027644E+03  0.60713888289E+03  0.83979885428E+02 0.  0.
        254    2    1    2    0    0  0.19862682728E+03 -0.22249225239E+03  0.10938013185E+04  0.14524992668E+04  0.90796331260E+03 0.  0.
         23    2    4    4    0    0 -0.12826736856E+03  0.28701287812E+03  0.52052396675E+03  0.61384959918E+03  0.83888142247E+02 0.  0.
         23    2    4    4    0    0  0.32689419584E+03 -0.50950513051E+03  0.57327735172E+03  0.83864966767E+03  0.90725133246E+02 0.  0.
          4    1    3    3  502    0 -0.20079943383E+03  0.20976735853E+03 -0.51754351121E+03  0.59344253583E+03  0.00000000000E+00 0. -1.
         -3    1    3    3    0  502  0.21726065514E+01  0.12724893853E+02 -0.45767652283E+01  0.13696347059E+02  0.00000000000E+00 0.  1.
         13    1    5    5    0    0 -0.11355542317E+03  0.28545353359E+03  0.51105338213E+03  0.59628358468E+03  0.00000000000E+00 0.  1.
        -13    1    5    5    0    0 -0.14711945383E+02  0.15593445274E+01  0.94705846145E+01  0.17566014496E+02  0.00000000000E+00 0. -1.
          1    1    6    6  503    0  0.28687995593E+03 -0.38434942118E+03  0.47016853582E+03  0.67162715754E+03  0.00000000000E+00 0. -1.
         -1    1    6    6    0  503  0.40014239913E+02 -0.12515570933E+03  0.10310881590E+03  0.16702251013E+03  0.00000000000E+00 0.  1.
<mgrwt>
<rscale>  0 0.19787092E+04</rscale>
<asrwt>0</asrwt>
<pdfrwt beam="1">  1        2 0.11445824E+00 0.19787092E+04</pdfrwt>
<pdfrwt beam="2">  1       -1 0.20240917E+00 0.19787092E+04</pdfrwt>
<totfact> 0.58307243E+00</totfact>
</mgrwt>
</event>
<event>
12    7  0.1735955E-007  0.1594726E+04  0.7818608E-02  0.8823794E-01
         -1   -1    0    0    0  501 -0.00000000000E+00  0.00000000000E+00  0.71762042054E+03  0.71762042054E+03  0.00000000000E+00 0.  1.
          2   -1    0    0  501    0  0.00000000000E+00 -0.00000000000E+00 -0.88596715435E+03  0.88596715435E+03  0.00000000000E+00 0. -1.
         24    2    1    2    0    0  0.51988160824E+03 -0.10967452919E+03 -0.22491238973E+03  0.58227073912E+03  0.78410724030E+02 0.  0.
        254    2    1    2    0    0 -0.51988160824E+03  0.10967452919E+03  0.56565655924E+02  0.10213168358E+04  0.87039244980E+03 0.  0.
         23    2    4    4    0    0 -0.52231779510E+03 -0.27793152749E+03 -0.71845895453E+02  0.60237959043E+03  0.87392935801E+02 0.  0.
         23    2    4    4    0    0  0.24361868606E+01  0.38760605667E+03  0.12841155138E+03  0.41893724534E+03  0.93672294883E+02 0.  0.
          4    1    3    3  502    0  0.34734404216E+03 -0.37991764080E+02 -0.16184127419E+03  0.38507642850E+03  0.00000000000E+00 0. -1.
         -1    1    3    3    0  502  0.17253756609E+03 -0.71682765107E+02 -0.63071115548E+02  0.19719431062E+03  0.00000000000E+00 0.  1.
         13    1    5    5    0    0 -0.25257150109E+03 -0.11875223737E+03  0.77853028297E+01  0.27920434808E+03  0.00000000000E+00 0. -1.
        -13    1    5    5    0    0 -0.26974629401E+03 -0.15917929011E+03 -0.79631198282E+02  0.32317524236E+03  0.00000000000E+00 0.  1.
          1    1    6    6  503    0  0.44701396745E+02  0.20657546998E+03  0.50077989327E+02  0.21720829791E+03  0.00000000000E+00 0. -1.
         -1    1    6    6    0  503 -0.42265209884E+02  0.18103058670E+03  0.78333562049E+02  0.20172894743E+03  0.00000000000E+00 0.  1.
<mgrwt>
<rscale>  0 0.15947265E+04</rscale>
<asrwt>0</asrwt>
<pdfrwt beam="1">  1        2 0.13630264E+00 0.15947265E+04</pdfrwt>
<pdfrwt beam="2">  1       -1 0.11040314E+00 0.15947265E+04</pdfrwt>
<totfact> 0.24836485E+01</totfact>
</mgrwt>
</event>
<event>
12    7  0.1735955E-007  0.1186945E+04  0.7818608E-02  0.9124361E-01
          2   -1    0    0  501    0  0.00000000000E+00  0.00000000000E+00  0.53475274639E+03  0.53475274639E+03  0.00000000000E+00 0. -1.
         -1   -1    0    0    0  501 -0.00000000000E+00 -0.00000000000E+00 -0.65864021038E+03  0.65864021038E+03  0.00000000000E+00 0.  1.
         24    2    1    2    0    0 -0.41195757875E+02  0.20572919975E+03  0.71769266367E+01  0.22549154829E+03  0.82300279336E+02 0.  0.
        254    2    1    2    0    0  0.41195757875E+02 -0.20572919975E+03 -0.13106439063E+03  0.96790140848E+03  0.93575299516E+03 0.  0.
         23    2    4    4    0    0  0.39719394320E+03 -0.26047925399E+02 -0.31873251850E+03  0.51805767247E+03  0.91388241705E+02 0.  0.
         23    2    4    4    0    0 -0.35599818532E+03 -0.17968127435E+03  0.18766812788E+03  0.44984373601E+03  0.90110999888E+02 0.  0.
          4    1    3    3  502    0 -0.12985805436E+02  0.19393723732E+03  0.10975549105E+02  0.19468113890E+03  0.00000000000E+00 0. -1.
         -3    1    3    3    0  502 -0.28209952439E+02  0.11791962424E+02 -0.37986224680E+01  0.30810409395E+02  0.00000000000E+00 0.  1.
         13    1    5    5    0    0  0.34652963526E+03  0.83175014314E+01 -0.28023622563E+03  0.44574018340E+03  0.00000000000E+00 0. -1.
        -13    1    5    5    0    0  0.50664307940E+02 -0.34365426830E+02 -0.38496292870E+02  0.72317489068E+02  0.00000000000E+00 0.  1.
          3    1    6    6  503    0 -0.33734583463E+03 -0.18993575639E+03  0.18217189568E+03  0.42786026138E+03  0.00000000000E+00 0. -1.
         -3    1    6    6    0  503 -0.18652350696E+02  0.10254482037E+02  0.54962321974E+01  0.21983474627E+02  0.00000000000E+00 0.  1.
<mgrwt>
<rscale>  0 0.11869451E+04</rscale>
<asrwt>0</asrwt>
<pdfrwt beam="1">  1        2 0.82269654E-01 0.11869451E+04</pdfrwt>
<pdfrwt beam="2">  1       -1 0.10132926E+00 0.11869451E+04</pdfrwt>
<totfact> 0.59450844E+01</totfact>
</mgrwt>
</event>
<event>
12    7  0.1735955E-007  0.3337517E+04  0.7818608E-02  0.8153414E-01
         -1   -1    0    0    0  501 -0.00000000000E+00  0.00000000000E+00  0.23222783648E+04  0.23222783648E+04  0.00000000000E+00 0.  1.
          2   -1    0    0  501    0  0.00000000000E+00 -0.00000000000E+00 -0.11991476230E+04  0.11991476230E+04  0.00000000000E+00 0. -1.
         24    2    1    2    0    0  0.29171605307E+03 -0.13624763460E+04 -0.18654205399E+03  0.14079993463E+04  0.78893423896E+02 0.  0.
        254    2    1    2    0    0 -0.29171605307E+03  0.13624763460E+04  0.13096727958E+04  0.21134266414E+04  0.89993849112E+03 0.  0.
         23    2    4    4    0    0 -0.43523966127E+03  0.10923622199E+04  0.13492151035E+04  0.17920157395E+04  0.90830792409E+02 0.  0.
         23    2    4    4    0    0  0.14352360820E+03  0.27011412605E+03 -0.39542307739E+02  0.32141090193E+03  0.90447258516E+02 0.  0.
          4    1    3    3  502    0  0.27259594653E+03 -0.11490670645E+04 -0.16946567226E+03  0.11930558591E+04  0.00000000000E+00 0. -1.
         -3    1    3    3    0  502  0.19120106540E+02 -0.21340928142E+03 -0.17076381724E+02  0.21494348718E+03  0.00000000000E+00 0.  1.
         13    1    5    5    0    0 -0.39443024053E+03  0.10297117966E+04  0.12867941127E+04  0.16946152033E+04  0.00000000000E+00 0.  1.
        -13    1    5    5    0    0 -0.40809420738E+02  0.62650423321E+02  0.62420990780E+02  0.97400536207E+02  0.00000000000E+00 0. -1.
          1    1    6    6  503    0  0.46006531368E+02  0.17449765204E+03 -0.49640445537E+01  0.18052887092E+03  0.00000000000E+00 0. -1.
         -1    1    6    6    0  503  0.97517076836E+02  0.95616474005E+02 -0.34578263185E+02  0.14088203101E+03  0.00000000000E+00 0.  1.
<mgrwt>
<rscale>  0 0.33375168E+04</rscale>
<asrwt>0</asrwt>
<pdfrwt beam="1">  1        2 0.18448425E+00 0.33375168E+04</pdfrwt>
<pdfrwt beam="2">  1       -1 0.35727360E+00 0.33375168E+04</pdfrwt>
<totfact> 0.24991771E-01</totfact>
</mgrwt>
</event>
<event>
12    7  0.1735955E-007  0.2058969E+04  0.7818608E-02  0.8579537E-01
          2   -1    0    0  501    0  0.00000000000E+00  0.00000000000E+00  0.29386025842E+04  0.29386025842E+04  0.00000000000E+00 0. -1.
         -1   -1    0    0    0  501 -0.00000000000E+00 -0.00000000000E+00 -0.36066048541E+03  0.36066048541E+03  0.00000000000E+00 0.  1.
         24    2    1    2    0    0 -0.13330334331E+03  0.56960209496E+03  0.21959035747E+04  0.22738119420E+04  0.77536510175E+02 0.  0.
        254    2    1    2    0    0  0.13330334331E+03 -0.56960209496E+03  0.38203852417E+03  0.10254511277E+04  0.75058660617E+03 0.  0.
         23    2    4    4    0    0  0.31148569583E+03 -0.35681133931E+02  0.30808983462E+03  0.44910729366E+03  0.92095238701E+02 0.  0.
         23    2    4    4    0    0 -0.17818235252E+03 -0.53392096103E+03  0.73948689551E+02  0.57634383401E+03  0.99414601265E+02 0.  0.
          2    1    3    3  502    0 -0.12350463914E+03  0.55794833267E+03  0.20859818641E+04  0.21628407420E+04  0.00000000000E+00 0. -1.
         -1    1    3    3    0  502 -0.97987041640E+01  0.11653762284E+02  0.10992171054E+03  0.11097119999E+03  0.00000000000E+00 0.  1.
         13    1    5    5    0    0  0.69273995180E+02  0.16315721676E+02  0.11403397877E+03  0.13442037604E+03  0.00000000000E+00 0.  1.
        -13    1    5    5    0    0  0.24221170065E+03 -0.51996855607E+02  0.19405585585E+03  0.31468691761E+03  0.00000000000E+00 0. -1.
          3    1    6    6  503    0 -0.78913193875E+02 -0.10871813070E+03  0.28683411945E+02  0.13736688914E+03  0.00000000000E+00 0. -1.
         -3    1    6    6    0  503 -0.99269158649E+02 -0.42520283032E+03  0.45265277606E+02  0.43897694487E+03  0.00000000000E+00 0.  1.
<mgrwt>
<rscale>  0 0.20589685E+04</rscale>
<asrwt>0</asrwt>
<pdfrwt beam="1">  1        2 0.45209269E+00 0.20589685E+04</pdfrwt>
<pdfrwt beam="2">  1       -1 0.55486230E-01 0.20589685E+04</pdfrwt>
<totfact> 0.65843250E+00</totfact>
</mgrwt>
</event>
<event>
12    7  0.1735955E-007  0.1309170E+04  0.7818608E-02  0.9022325E-01
         -3   -1    0    0    0  501 -0.00000000000E+00  0.00000000000E+00  0.58313739230E+03  0.58313739230E+03  0.00000000000E+00 0.  1.
          4   -1    0    0  501    0  0.00000000000E+00 -0.00000000000E+00 -0.73478628958E+03  0.73478628958E+03  0.00000000000E+00 0. -1.
         24    2    1    2    0    0 -0.13832391876E+03  0.53714484241E+02 -0.34819394516E+03  0.38676290599E+03  0.79547279533E+02 0.  0.
        254    2    1    2    0    0  0.13832391876E+03 -0.53714484241E+02  0.19654504789E+03  0.93116077589E+03  0.89800427749E+03 0.  0.
         23    2    4    4    0    0  0.46396615855E+03  0.73695747244E+02  0.28699313152E+03  0.55812055442E+03  0.91857695790E+02 0.  0.
         23    2    4    4    0    0 -0.32564223980E+03 -0.12741023149E+03 -0.90448083633E+02  0.37304022148E+03  0.93284058545E+02 0.  0.
          2    1    3    3  502    0 -0.89234984430E+02  0.27042020007E-01 -0.24298824446E+03  0.25885550047E+03  0.00000000000E+00 0. -1.
         -3    1    3    3    0  502 -0.49088934326E+02  0.53687442221E+02 -0.10520570070E+03  0.12790740552E+03  0.00000000000E+00 0.  1.
         13    1    5    5    0    0  0.53425099667E+02 -0.81657222182E+01  0.64143386516E+02  0.83876661400E+02  0.00000000000E+00 0.  1.
        -13    1    5    5    0    0  0.41054105889E+03  0.81861469462E+02  0.22284974501E+03  0.47424389302E+03  0.00000000000E+00 0. -1.
          4    1    6    6  503    0 -0.83714717491E+02 -0.61996754570E+02  0.63879953674E+01  0.10436741822E+03  0.00000000000E+00 0.  1.
         -4    1    6    6    0  503 -0.24192752231E+03 -0.65413476915E+02 -0.96836079001E+02  0.26867280325E+03  0.00000000000E+00 0. -1.
<mgrwt>
<rscale>  0 0.13091698E+04</rscale>
<asrwt>0</asrwt>
<pdfrwt beam="1">  1        4 0.11304404E+00 0.13091698E+04</pdfrwt>
<pdfrwt beam="2">  1       -3 0.89713445E-01 0.13091698E+04</pdfrwt>
<totfact> 0.15427198E+00</totfact>
</mgrwt>
</event>
<event>
12    7  0.1735955E-007  0.1517700E+04  0.7818608E-02  0.8872767E-01
          2   -1    0    0  501    0  0.00000000000E+00  0.00000000000E+00  0.65214009794E+03  0.65214009794E+03  0.00000000000E+00 0. -1.
         -1   -1    0    0    0  501 -0.00000000000E+00 -0.00000000000E+00 -0.88302078745E+03  0.88302078745E+03  0.00000000000E+00 0.  1.
         24    2    1    2    0    0 -0.30775690014E+03 -0.35936478902E+03 -0.18245992546E+03  0.51330830223E+03  0.79601680698E+02 0.  0.
        254    2    1    2    0    0  0.30775690014E+03  0.35936478902E+03 -0.48420764048E+02  0.10218525832E+04  0.90442289343E+03 0.  0.
         23    2    4    4    0    0 -0.25565196510E+03  0.16047946116E+03 -0.23248201321E+03  0.39020312927E+03  0.84255628396E+02 0.  0.
         23    2    4    4    0    0  0.56340886524E+03  0.19888532785E+03  0.18406124916E+03  0.63164945389E+03  0.90097536584E+02 0.  0.
          4    1    3    3  502    0 -0.23221566920E+03 -0.25187422080E+03 -0.16668778961E+03  0.38098498570E+03  0.00000000000E+00 0. -1.
         -3    1    3    3    0  502 -0.75541230940E+02 -0.10749056821E+03 -0.15772135848E+02  0.13232331652E+03  0.00000000000E+00 0.  1.
         13    1    5    5    0    0 -0.18292542504E+02  0.19757706007E+02 -0.57414559366E+02  0.63414633052E+02  0.00000000000E+00 0. -1.
        -13    1    5    5    0    0 -0.23735942259E+03  0.14072175515E+03 -0.17506745384E+03  0.32678849622E+03  0.00000000000E+00 0.  1.
          2    1    6    6  503    0  0.10245100036E+03  0.15217590613E+02  0.35558920869E+01  0.10363603093E+03  0.00000000000E+00 0. -1.
         -2    1    6    6    0  503  0.46095786487E+03  0.18366773724E+03  0.18050535707E+03  0.52801342296E+03  0.00000000000E+00 0.  1.
<mgrwt>
<rscale>  0 0.15176999E+04</rscale>
<asrwt>0</asrwt>
<pdfrwt beam="1">  1        2 0.10032925E+00 0.15176999E+04</pdfrwt>
<pdfrwt beam="2">  1       -1 0.13584935E+00 0.15176999E+04</pdfrwt>
<totfact> 0.22377976E+01</totfact>
</mgrwt>
</event>
<event>
12    7  0.1735955E-007  0.1592473E+04  0.7818608E-02  0.8825186E-01
         -1   -1    0    0    0  501 -0.00000000000E+00  0.00000000000E+00  0.71964153016E+03  0.71964153016E+03  0.00000000000E+00 0.  1.
          2   -1    0    0  501    0  0.00000000000E+00 -0.00000000000E+00 -0.88098357580E+03  0.88098357580E+03  0.00000000000E+00 0. -1.
         24    2    1    2    0    0  0.31787773127E+03 -0.20135807070E+03 -0.36861983389E+03  0.53260016715E+03  0.78683107722E+02 0.  0.
        254    2    1    2    0    0 -0.31787773127E+03  0.20135807070E+03  0.20727778825E+03  0.10680249388E+04  0.97781484123E+03 0.  0.
         23    2    4    4    0    0  0.25922755863E+03 -0.19603953561E+03  0.24401932412E+02  0.33803603024E+03  0.89679857046E+02 0.  0.
         23    2    4    4    0    0 -0.57710528990E+03  0.39739760631E+03  0.18287585584E+03  0.72998890856E+03  0.92004645753E+02 0.  0.
          2    1    3    3  502    0  0.91676125322E+02 -0.52541650340E+02 -0.58008963323E+02  0.12054118301E+03  0.00000000000E+00 0. -1.
         -1    1    3    3    0  502  0.22620160595E+03 -0.14881642036E+03 -0.31061087057E+03  0.41205898415E+03  0.00000000000E+00 0.  1.
         13    1    5    5    0    0  0.50566515249E+01  0.37552713410E+01 -0.11133998068E+02  0.12792095234E+02  0.00000000000E+00 0. -1.
        -13    1    5    5    0    0  0.25417090710E+03 -0.19979480695E+03  0.35535930480E+02  0.32524393501E+03  0.00000000000E+00 0.  1.
          1    1    6    6  503    0 -0.74539059032E+02  0.72062848826E+02  0.56661744774E+02  0.11815108473E+03  0.00000000000E+00 0. -1.
         -1    1    6    6    0  503 -0.50256623087E+03  0.32533475749E+03  0.12621411107E+03  0.61183782383E+03  0.00000000000E+00 0.  1.
<mgrwt>
<rscale>  0 0.15924728E+04</rscale>
<asrwt>0</asrwt>
<pdfrwt beam="1">  1        2 0.13553593E+00 0.15924728E+04</pdfrwt>
<pdfrwt beam="2">  1       -1 0.11071408E+00 0.15924728E+04</pdfrwt>
<totfact> 0.24870603E+01</totfact>
</mgrwt>
</event>
<event>
12    7  0.1735955E-007  0.4092696E+04  0.7818608E-02  0.7986104E-01
         -1   -1    0    0    0  501 -0.00000000000E+00  0.00000000000E+00  0.16934833448E+04  0.16934833448E+04  0.00000000000E+00 0.  1.
          2   -1    0    0  501    0  0.00000000000E+00 -0.00000000000E+00 -0.24727371712E+04  0.24727371712E+04  0.00000000000E+00 0. -1.
         24    2    1    2    0    0  0.40518700820E+03  0.14274944914E+04 -0.16531111141E+04  0.22228553312E+04  0.79952694098E+02 0.  0.
        254    2    1    2    0    0 -0.40518700820E+03 -0.14274944914E+04  0.87385728771E+03  0.19433651848E+04  0.90062458737E+03 0.  0.
         23    2    4    4    0    0 -0.28675544089E+03 -0.23093450266E+03  0.59512099097E+03  0.70583687645E+03  0.92072117768E+02 0.  0.
         23    2    4    4    0    0 -0.11843156732E+03 -0.11965599888E+04  0.27873629674E+03  0.12375283083E+04  0.89445781747E+02 0.  0.
          4    1    3    3  502    0  0.40604246377E+03  0.14279676345E+04 -0.16498552748E+04  0.22194558963E+04  0.00000000000E+00 0. -1.
         -3    1    3    3    0  502 -0.85545556724E+00 -0.47314308336E+00 -0.32558392872E+01  0.33994349632E+01  0.00000000000E+00 0.  1.
         13    1    5    5    0    0 -0.70507165084E+02 -0.10490053377E+03  0.24181933078E+03  0.27285888487E+03  0.00000000000E+00 0. -1.
        -13    1    5    5    0    0 -0.21624827580E+03 -0.12603396888E+03  0.35330166019E+03  0.43297799158E+03  0.00000000000E+00 0.  1.
          1    1    6    6  503    0 -0.92808309134E+02 -0.89755441530E+03  0.16923146052E+03  0.91807221824E+03  0.00000000000E+00 0. -1.
         -1    1    6    6    0  503 -0.25623258182E+02 -0.29900557347E+03  0.10950483622E+03  0.31945609007E+03  0.00000000000E+00 0.  1.
<mgrwt>
<rscale>  0 0.40926955E+04</rscale>
<asrwt>0</asrwt>
<pdfrwt beam="1">  1        2 0.38042110E+00 0.40926955E+04</pdfrwt>
<pdfrwt beam="2">  1       -1 0.26053590E+00 0.40926955E+04</pdfrwt>
<totfact> 0.19125969E-01</totfact>
</mgrwt>
</event>
<event>
12    7  0.1735955E-007  0.1713356E+04  0.7818608E-02  0.8753783E-01
          2   -1    0    0  501    0  0.00000000000E+00  0.00000000000E+00  0.16707495390E+04  0.16707495390E+04  0.00000000000E+00 0. -1.
         -1   -1    0    0    0  501 -0.00000000000E+00 -0.00000000000E+00 -0.43926217669E+03  0.43926217669E+03  0.00000000000E+00 0.  1.
         24    2    1    2    0    0  0.57794940821E+03  0.16102146646E+03  0.28863196516E+03  0.67055797200E+03  0.79913399357E+02 0.  0.
        254    2    1    2    0    0 -0.57794940821E+03 -0.16102146646E+03  0.94285539712E+03  0.14394537437E+04  0.90724712682E+03 0.  0.
         23    2    4    4    0    0 -0.51869551580E+03 -0.48437675503E+03  0.78817153275E+03  0.10644756623E+04  0.90709380737E+02 0.  0.
         23    2    4    4    0    0 -0.59253892403E+02  0.32335528857E+03  0.15468386437E+03  0.37497808131E+03  0.92799769149E+02 0.  0.
          2    1    3    3  502    0  0.22026566328E+03  0.44473821271E+02  0.69580467934E+02  0.23523674185E+03  0.00000000000E+00 0. -1.
         -1    1    3    3    0  502  0.35768374493E+03  0.11654764519E+03  0.21905149723E+03  0.43532123015E+03  0.00000000000E+00 0.  1.
         13    1    5    5    0    0 -0.47839723029E+03 -0.40650082224E+03  0.69269716830E+03  0.93484554628E+03  0.00000000000E+00 0. -1.
        -13    1    5    5    0    0 -0.40298285516E+02 -0.77875932785E+02  0.95474364455E+02  0.12963011606E+03  0.00000000000E+00 0.  1.
          3    1    6    6  503    0  0.21035583096E+02  0.59709453231E+02  0.48014330856E+02  0.79454959121E+02  0.00000000000E+00 0. -1.
         -3    1    6    6    0  503 -0.80289475499E+02  0.26364583534E+03  0.10666953351E+03  0.29552312219E+03  0.00000000000E+00 0.  1.
<mgrwt>
<rscale>  0 0.17133559E+04</rscale>
<asrwt>0</asrwt>
<pdfrwt beam="1">  1        2 0.25703839E+00 0.17133559E+04</pdfrwt>
<pdfrwt beam="2">  1       -1 0.67578797E-01 0.17133559E+04</pdfrwt>
<totfact> 0.24448256E+01</totfact>
</mgrwt>
</event>
<event>
12    7  0.1735955E-007  0.1702543E+04  0.7818608E-02  0.8759915E-01
         -1   -1    0    0    0  501 -0.00000000000E+00  0.00000000000E+00  0.20974228362E+03  0.20974228362E+03  0.00000000000E+00 0.  1.
          2   -1    0    0  501    0  0.00000000000E+00 -0.00000000000E+00 -0.34550190107E+04  0.34550190107E+04  0.00000000000E+00 0. -1.
         24    2    1    2    0    0 -0.44417879138E+03  0.29920683933E+03 -0.55256848648E+03  0.77434377212E+03  0.86352844505E+02 0.  0.
        254    2    1    2    0    0  0.44417879138E+03 -0.29920683933E+03 -0.26927082406E+04  0.28904175221E+04  0.90388951327E+03 0.  0.
         23    2    4    4    0    0 -0.85527881401E+02 -0.41074332852E+03 -0.67800213043E+03  0.80227067296E+03  0.89029452445E+02 0.  0.
         23    2    4    4    0    0  0.52970667278E+03  0.11153648919E+03 -0.20147061101E+04  0.20881468492E+04  0.91032994081E+02 0.  0.
          4    1    3    3  502    0 -0.34456977254E+03  0.18709435195E+03 -0.41304096860E+03  0.56950457981E+03  0.00000000000E+00 0. -1.
         -3    1    3    3    0  502 -0.99609018835E+02  0.11211248738E+03 -0.13952751788E+03  0.20483919231E+03  0.00000000000E+00 0.  1.
         13    1    5    5    0    0 -0.64667331943E+02 -0.20914888537E+03 -0.42529864167E+03  0.47833466807E+03  0.00000000000E+00 0.  1.
        -13    1    5    5    0    0 -0.20860549458E+02 -0.20159444315E+03 -0.25270348877E+03  0.32393600489E+03  0.00000000000E+00 0. -1.
          4    1    6    6  503    0  0.26529723226E+03  0.95346611542E+01 -0.98887994205E+03  0.10238930955E+04  0.00000000000E+00 0. -1.
         -4    1    6    6    0  503  0.26440944052E+03  0.10200182803E+03 -0.10258261681E+04  0.10642537537E+04  0.00000000000E+00 0.  1.
<mgrwt>
<rscale>  0 0.17025435E+04</rscale>
<asrwt>0</asrwt>
<pdfrwt beam="1">  1        2 0.53154132E+00 0.17025435E+04</pdfrwt>
<pdfrwt beam="2">  1       -1 0.32268047E-01 0.17025435E+04</pdfrwt>
<totfact> 0.85710320E+00</totfact>
</mgrwt>
</event>
<event>
12    7  0.1735955E-007  0.1580107E+04  0.7818608E-02  0.8832863E-01
          2   -1    0    0  501    0  0.00000000000E+00  0.00000000000E+00  0.22319689976E+04  0.22319689976E+04  0.00000000000E+00 0. -1.
         -1   -1    0    0    0  501 -0.00000000000E+00 -0.00000000000E+00 -0.27965653584E+03  0.27965653584E+03  0.00000000000E+00 0.  1.
         24    2    1    2    0    0 -0.43845212860E+03 -0.12207921918E+03  0.20757476976E+03  0.50659749830E+03  0.80063321226E+02 0.  0.
        254    2    1    2    0    0  0.43845212860E+03  0.12207921918E+03  0.17447376920E+04  0.20050280351E+04  0.87686042393E+03 0.  0.
         23    2    4    4    0    0  0.18296961582E+03 -0.24442298533E+03  0.16044031260E+03  0.35646791518E+03  0.90043348296E+02 0.  0.
         23    2    4    4    0    0  0.25548251278E+03  0.36650220452E+03  0.15842973794E+04  0.16485601200E+04  0.90316679314E+02 0.  0.
          2    1    3    3  502    0 -0.10506632648E+02 -0.74706219027E+01  0.23596899714E+02  0.26888904725E+02  0.00000000000E+00 0. -1.
         -1    1    3    3    0  502 -0.42794549595E+03 -0.11460859728E+03  0.18397787005E+03  0.47970859357E+03  0.00000000000E+00 0.  1.
         13    1    5    5    0    0 -0.48196563654E+01 -0.39278446265E+01  0.19303300426E+02  0.20279902816E+02  0.00000000000E+00 0. -1.
        -13    1    5    5    0    0  0.18778927218E+03 -0.24049514071E+03  0.14113701217E+03  0.33618801236E+03  0.00000000000E+00 0.  1.
          2    1    6    6  503    0  0.12284656873E+03  0.18346883086E+03  0.62058815420E+03  0.65869700810E+03  0.00000000000E+00 0.  1.
         -2    1    6    6    0  503  0.13263594406E+03  0.18303337365E+03  0.96370922518E+03  0.98986311186E+03  0.00000000000E+00 0. -1.
<mgrwt>
<rscale>  0 0.15801072E+04</rscale>
<asrwt>0</asrwt>
<pdfrwt beam="1">  1        2 0.34337983E+00 0.15801072E+04</pdfrwt>
<pdfrwt beam="2">  1       -1 0.43024084E-01 0.15801072E+04</pdfrwt>
<totfact> 0.28879981E+01</totfact>
</mgrwt>
</event>
<event>
12    7  0.1735955E-007  0.2039757E+04  0.7818608E-02  0.8588255E-01
         -1   -1    0    0    0  501 -0.00000000000E+00  0.00000000000E+00  0.12158447820E+04  0.12158447820E+04  0.00000000000E+00 0.  1.
          2   -1    0    0  501    0  0.00000000000E+00 -0.00000000000E+00 -0.85549762567E+03  0.85549762567E+03  0.00000000000E+00 0. -1.
         24    2    1    2    0    0  0.67893253156E+03  0.37456748199E+03  0.34021540359E+03  0.85265162278E+03  0.10009039927E+03 0.  0.
        254    2    1    2    0    0 -0.67893253156E+03 -0.37456748199E+03  0.20131752735E+02  0.12186907849E+04  0.93997434046E+03 0.  0.
         23    2    4    4    0    0 -0.10560586917E+03 -0.77220541431E+02 -0.40883267383E+03  0.43805879805E+03  0.87382742750E+02 0.  0.
         23    2    4    4    0    0 -0.57332666239E+03 -0.29734694056E+03  0.42896442657E+03  0.78063198684E+03  0.90868887681E+02 0.  0.
          4    1    3    3  502    0  0.24258802946E+03  0.18204195316E+03  0.15907361750E+03  0.34248013159E+03  0.00000000000E+00 0. -1.
         -3    1    3    3    0  502  0.43634450210E+03  0.19252552883E+03  0.18114178608E+03  0.51017149119E+03  0.00000000000E+00 0.  1.
         13    1    5    5    0    0 -0.22697990845E+02  0.82711306572E+01 -0.19890574159E+02  0.31292895857E+02  0.00000000000E+00 0. -1.
        -13    1    5    5    0    0 -0.82907878320E+02 -0.85491672088E+02 -0.38894209967E+03  0.40676590219E+03  0.00000000000E+00 0.  1.
          1    1    6    6  503    0 -0.19829349760E+03 -0.11599762818E+03  0.10340417446E+03  0.25192892694E+03  0.00000000000E+00 0. -1.
         -1    1    6    6    0  503 -0.37503316479E+03 -0.18134931237E+03  0.32556025211E+03  0.52870305989E+03  0.00000000000E+00 0.  1.
<mgrwt>
<rscale>  0 0.20397572E+04</rscale>
<asrwt>0</asrwt>
<pdfrwt beam="1">  1        2 0.13161502E+00 0.20397572E+04</pdfrwt>
<pdfrwt beam="2">  1       -1 0.18705304E+00 0.20397572E+04</pdfrwt>
<totfact> 0.61614593E+00</totfact>
</mgrwt>
</event>
<event>
12    7  0.1735955E-007  0.1268340E+04  0.7818608E-02  0.9055055E-01
         -1   -1    0    0    0  501 -0.00000000000E+00  0.00000000000E+00  0.27783681644E+03  0.27783681644E+03  0.00000000000E+00 0.  1.
          2   -1    0    0  501    0  0.00000000000E+00 -0.00000000000E+00 -0.14475111106E+04  0.14475111106E+04  0.00000000000E+00 0. -1.
         24    2    1    2    0    0  0.77378891214E+02 -0.28278056774E+02 -0.68531534376E+03  0.69500585075E+03  0.81171860209E+02 0.  0.
        254    2    1    2    0    0 -0.77378891214E+02  0.28278056774E+02 -0.48435895045E+03  0.10303420763E+04  0.90565670101E+03 0.  0.
         23    2    4    4    0    0  0.28564789835E+03 -0.15220852634E+03  0.65056092063E+02  0.34202742297E+03  0.89377321638E+02 0.  0.
         23    2    4    4    0    0 -0.36302678957E+03  0.18048658312E+03 -0.54941504251E+03  0.68831465337E+03  0.86927075586E+02 0.  0.
          2    1    3    3  502    0  0.51520172478E+02 -0.14124962130E+02 -0.63056597334E+03  0.63282484896E+03  0.00000000000E+00 0. -1.
         -1    1    3    3    0  502  0.25858718736E+02 -0.14153094644E+02 -0.54749370414E+02  0.62181001789E+02  0.00000000000E+00 0.  1.
         13    1    5    5    0    0  0.28036659740E+03 -0.14683121005E+03  0.43837398183E+02  0.31950986004E+03  0.00000000000E+00 0. -1.
        -13    1    5    5    0    0  0.52813009492E+01 -0.53773162954E+01  0.21218693880E+02  0.22517562928E+02  0.00000000000E+00 0.  1.
          1    1    6    6  503    0 -0.34003929479E+03  0.15487916418E+03 -0.46081219356E+03  0.59326398445E+03  0.00000000000E+00 0. -1.
         -1    1    6    6    0  503 -0.22987494772E+02  0.25607418936E+02 -0.88602848948E+02  0.95050668920E+02  0.00000000000E+00 0.  1.
<mgrwt>
<rscale>  0 0.12683405E+04</rscale>
<asrwt>0</asrwt>
<pdfrwt beam="1">  1        2 0.22269402E+00 0.12683405E+04</pdfrwt>
<pdfrwt beam="2">  1       -1 0.42744125E-01 0.12683405E+04</pdfrwt>
<totfact> 0.81982413E+01</totfact>
</mgrwt>
</event>
<event>
12    7  0.1735955E-007  0.1651433E+04  0.7818608E-02  0.8789559E-01
         -1   -1    0    0    0  501 -0.00000000000E+00  0.00000000000E+00  0.17751592224E+04  0.17751592224E+04  0.00000000000E+00 0.  1.
          2   -1    0    0  501    0  0.00000000000E+00 -0.00000000000E+00 -0.38408270992E+03  0.38408270992E+03  0.00000000000E+00 0. -1.
         24    2    1    2    0    0 -0.10257696326E+03  0.14441848390E+03 -0.22414124137E+03  0.29673490101E+03  0.80209559958E+02 0.  0.
        254    2    1    2    0    0  0.10257696326E+03 -0.14441848390E+03  0.16152177539E+04  0.18625070313E+04  0.91028859020E+03 0.  0.
         23    2    4    4    0    0 -0.24729994990E+02 -0.24988235798E+03  0.33234374071E+02  0.26926331824E+03  0.91353409606E+02 0.  0.
         23    2    4    4    0    0  0.12730695825E+03  0.10546387408E+03  0.15819833798E+04  0.15932437131E+04  0.91784666396E+02 0.  0.
          2    1    3    3  502    0 -0.62446829623E+02  0.68921972884E+02 -0.17484534228E+03  0.19804226466E+03  0.00000000000E+00 0. -1.
         -1    1    3    3    0  502 -0.40130133632E+02  0.75496511019E+02 -0.49295899095E+02  0.98692636346E+02  0.00000000000E+00 0.  1.
         13    1    5    5    0    0 -0.14358317183E+02 -0.15064577169E+03  0.64790477022E+02  0.16461505311E+03  0.00000000000E+00 0.  1.
        -13    1    5    5    0    0 -0.10371677807E+02 -0.99236586297E+02 -0.31556102951E+02  0.10464826513E+03  0.00000000000E+00 0. -1.
          1    1    6    6  503    0  0.11431968751E+03  0.97926311078E+02  0.10187999680E+04  0.10298601498E+04  0.00000000000E+00 0.  1.
         -1    1    6    6    0  503  0.12987270735E+02  0.75375630014E+01  0.56318341176E+03  0.56338356325E+03  0.00000000000E+00 0. -1.
<mgrwt>
<rscale>  0 0.16514333E+04</rscale>
<asrwt>0</asrwt>
<pdfrwt beam="1">  1        2 0.59089649E-01 0.16514333E+04</pdfrwt>
<pdfrwt beam="2">  1       -1 0.27310141E+00 0.16514333E+04</pdfrwt>
<totfact> 0.44906099E+00</totfact>
</mgrwt>
</event>
<event>
12    7  0.1735955E-007  0.2585519E+04  0.7818608E-02  0.8373137E-01
         -1   -1    0    0    0  501 -0.00000000000E+00  0.00000000000E+00  0.14616112653E+04  0.14616112653E+04  0.00000000000E+00 0.  1.
          2   -1    0    0  501    0  0.00000000000E+00 -0.00000000000E+00 -0.11434138574E+04  0.11434138574E+04  0.00000000000E+00 0. -1.
         24    2    1    2    0    0  0.38819899580E+03  0.53362677238E+03 -0.78948293709E+03  0.10318667744E+04  0.77522511027E+02 0.  0.
        254    2    1    2    0    0 -0.38819899580E+03 -0.53362677238E+03  0.11076803450E+04  0.15731583483E+04  0.90134091745E+03 0.  0.
         23    2    4    4    0    0 -0.47601011786E+03 -0.53856257655E+03  0.12100328083E+04  0.14103241432E+04  0.90551148749E+02 0.  0.
         23    2    4    4    0    0  0.87811122061E+02  0.49358041719E+01 -0.10235246327E+03  0.16283420509E+03  0.91125168254E+02 0.  0.
          4    1    3    3  502    0  0.24559651469E+03  0.31227479289E+03 -0.52810277382E+03  0.66085227852E+03  0.00000000000E+00 0. -1.
         -3    1    3    3    0  502  0.14260248112E+03  0.22135197948E+03 -0.26138016327E+03  0.37101449593E+03  0.00000000000E+00 0.  1.
         13    1    5    5    0    0 -0.19285315838E+02 -0.32826609885E+01  0.48283693525E+02  0.52096202650E+02  0.00000000000E+00 0.  1.
        -13    1    5    5    0    0 -0.45672480202E+03 -0.53527991556E+03  0.11617491148E+04  0.13582279405E+04  0.00000000000E+00 0. -1.
          4    1    6    6  503    0  0.53955076110E+02  0.22455746054E+02 -0.10943409984E+03  0.12406140809E+03  0.00000000000E+00 0. -1.
         -4    1    6    6    0  503  0.33856045951E+02 -0.17519941882E+02  0.70816365682E+01  0.38772797003E+02  0.00000000000E+00 0.  1.
<mgrwt>
<rscale>  0 0.25855186E+04</rscale>
<asrwt>0</asrwt>
<pdfrwt beam="1">  1        2 0.17590982E+00 0.25855186E+04</pdfrwt>
<pdfrwt beam="2">  1       -1 0.22486327E+00 0.25855186E+04</pdfrwt>
<totfact> 0.21118991E+00</totfact>
</mgrwt>
</event>
<event>
12    7  0.1735955E-007  0.1884068E+04  0.7818608E-02  0.8662828E-01
          2   -1    0    0  501    0  0.00000000000E+00  0.00000000000E+00  0.65564749484E+03  0.65564749484E+03  0.00000000000E+00 0. -1.
         -1   -1    0    0    0  501 -0.00000000000E+00 -0.00000000000E+00 -0.13535140874E+04  0.13535140874E+04  0.00000000000E+00 0.  1.
         24    2    1    2    0    0  0.14938318793E+03 -0.40375113806E+03 -0.88902713395E+03  0.99095222139E+03  0.79288976882E+02 0.  0.
        254    2    1    2    0    0 -0.14938318793E+03  0.40375113806E+03  0.19116054142E+03  0.10182093608E+04  0.90270572812E+03 0.  0.
         23    2    4    4    0    0 -0.43420114072E+03 -0.55431275644E+02  0.36541830090E+02  0.44840742495E+03  0.90170152980E+02 0.  0.
         23    2    4    4    0    0  0.28481795279E+03  0.45918241370E+03  0.15461871133E+03  0.56980193588E+03  0.93795228874E+02 0.  0.
          2    1    3    3  502    0 -0.22156656107E+01 -0.66698727797E+02 -0.16687782173E+03  0.17972711773E+03  0.00000000000E+00 0. -1.
         -1    1    3    3    0  502  0.15159885354E+03 -0.33705241026E+03 -0.72214931222E+03  0.81122510365E+03  0.00000000000E+00 0.  1.
         13    1    5    5    0    0 -0.40495551749E+03 -0.46349733124E+02  0.57019556255E+02  0.41156834026E+03  0.00000000000E+00 0. -1.
        -13    1    5    5    0    0 -0.29245623229E+02 -0.90815425193E+01 -0.20477726165E+02  0.36839084699E+02  0.00000000000E+00 0.  1.
          3    1    6    6  503    0  0.25306292553E+03  0.42683042341E+03  0.16567999065E+03  0.52313947847E+03  0.00000000000E+00 0. -1.
         -3    1    6    6    0  503  0.31755027256E+02  0.32351990290E+02 -0.11061279324E+02  0.46662457415E+02  0.00000000000E+00 0.  1.
<mgrwt>
<rscale>  0 0.18840681E+04</rscale>
<asrwt>0</asrwt>
<pdfrwt beam="1">  1        2 0.10086885E+00 0.18840681E+04</pdfrwt>
<pdfrwt beam="2">  1       -1 0.20823293E+00 0.18840681E+04</pdfrwt>
<totfact> 0.62943945E+00</totfact>
</mgrwt>
</event>
<event>
12    7  0.1735955E-007  0.2131362E+04  0.7818608E-02  0.8547553E-01
         -1   -1    0    0    0  501 -0.00000000000E+00  0.00000000000E+00  0.51500481152E+03  0.51500481152E+03  0.00000000000E+00 0.  1.
          2   -1    0    0  501    0  0.00000000000E+00 -0.00000000000E+00 -0.22051755363E+04  0.22051755363E+04  0.00000000000E+00 0. -1.
         24    2    1    2    0    0  0.46469608594E+03 -0.28809795340E+03  0.17387465816E+03  0.57923043066E+03  0.79577710512E+02 0.  0.
        254    2    1    2    0    0 -0.46469608594E+03  0.28809795340E+03 -0.18640453830E+04  0.21409499172E+04  0.90003248559E+03 0.  0.
         23    2    4    4    0    0 -0.35243856334E+03  0.20388754309E+03 -0.19197333181E+04  0.19646450008E+04  0.93117643189E+02 0.  0.
         23    2    4    4    0    0 -0.11225752260E+03  0.84210410311E+02  0.55687935138E+02  0.17630491637E+03  0.91044674915E+02 0.  0.
          4    1    3    3  502    0  0.38560139027E+02 -0.24855722758E+01  0.20794682734E+02  0.43880305620E+02  0.00000000000E+00 0. -1.
         -3    1    3    3    0  502  0.42613594691E+03 -0.28561238113E+03  0.15307997543E+03  0.53535012504E+03  0.00000000000E+00 0.  1.
         13    1    5    5    0    0 -0.19678630374E+03  0.15197919075E+03 -0.10041414240E+04  0.10344672654E+04  0.00000000000E+00 0. -1.
        -13    1    5    5    0    0 -0.15565225960E+03  0.51908352345E+02 -0.91559189406E+03  0.93017773540E+03  0.00000000000E+00 0.  1.
          2    1    6    6  503    0  0.30714174943E+01 -0.12356568578E+02  0.16543067126E+02  0.20875618851E+02  0.00000000000E+00 0. -1.
         -2    1    6    6    0  503 -0.11532894009E+03  0.96566978890E+02  0.39144868012E+02  0.15542929751E+03  0.00000000000E+00 0.  1.
<mgrwt>
<rscale>  0 0.21313620E+04</rscale>
<asrwt>0</asrwt>
<pdfrwt beam="1">  1        2 0.33925777E+00 0.21313620E+04</pdfrwt>
<pdfrwt beam="2">  1       -1 0.79231510E-01 0.21313620E+04</pdfrwt>
<totfact> 0.85445370E+00</totfact>
</mgrwt>
</event>
<event>
12    7  0.1735955E-007  0.2186826E+04  0.7818608E-02  0.8523931E-01
          2   -1    0    0  501    0  0.00000000000E+00  0.00000000000E+00  0.12420306554E+04  0.12420306554E+04  0.00000000000E+00 0. -1.
         -1   -1    0    0    0  501 -0.00000000000E+00 -0.00000000000E+00 -0.96257884487E+03  0.96257884487E+03  0.00000000000E+00 0.  1.
         24    2    1    2    0    0  0.81488737594E+03  0.24116777858E+03  0.43153526154E+03  0.95693060418E+03  0.85382471082E+02 0.  0.
        254    2    1    2    0    0 -0.81488737594E+03 -0.24116777858E+03 -0.15208345102E+03  0.12476788961E+04  0.90076074444E+03 0.  0.
         23    2    4    4    0    0 -0.78692839464E+03  0.15712458342E+00 -0.40065588781E+03  0.88783427378E+03  0.92023009581E+02 0.  0.
         23    2    4    4    0    0 -0.27958981306E+02 -0.24132490317E+03  0.24857243678E+03  0.35984462229E+03  0.93169106136E+02 0.  0.
          2    1    3    3  502    0  0.58326500214E+03  0.16174403825E+03  0.34815116170E+03  0.69826100280E+03  0.00000000000E+00 0. -1.
         -1    1    3    3    0  502  0.23162237380E+03  0.79423740334E+02  0.83384099831E+02  0.25866960138E+03  0.00000000000E+00 0.  1.
         13    1    5    5    0    0 -0.67362145714E+03 -0.23884624734E+02 -0.31645499228E+03  0.74463420883E+03  0.00000000000E+00 0. -1.
        -13    1    5    5    0    0 -0.11330693750E+03  0.24041749318E+02 -0.84200895524E+02  0.14320006495E+03  0.00000000000E+00 0.  1.
          4    1    6    6  503    0  0.12932249051E+02 -0.12187007766E+03  0.69974999131E+02  0.14112426934E+03  0.00000000000E+00 0. -1.
         -4    1    6    6    0  503 -0.40891230357E+02 -0.11945482551E+03  0.17859743765E+03  0.21872035295E+03  0.00000000000E+00 0.  1.
<mgrwt>
<rscale>  0 0.21868264E+04</rscale>
<asrwt>0</asrwt>
<pdfrwt beam="1">  1        2 0.19108164E+00 0.21868264E+04</pdfrwt>
<pdfrwt beam="2">  1       -1 0.14808905E+00 0.21868264E+04</pdfrwt>
<totfact> 0.67360069E+00</totfact>
</mgrwt>
</event>
<event>
12    7  0.1735955E-007  0.1728179E+04  0.7818608E-02  0.8745454E-01
         -1   -1    0    0    0  501 -0.00000000000E+00  0.00000000000E+00  0.74878560374E+03  0.74878560374E+03  0.00000000000E+00 0.  1.
          2   -1    0    0  501    0  0.00000000000E+00 -0.00000000000E+00 -0.99714860582E+03  0.99714860582E+03  0.00000000000E+00 0. -1.
         24    2    1    2    0    0 -0.37191948251E+02 -0.27424740075E+03  0.47502716487E+03  0.55651303379E+03  0.86377494654E+02 0.  0.
        254    2    1    2    0    0  0.37191948251E+02  0.27424740075E+03 -0.72339016694E+03  0.11894211758E+04  0.90268184977E+03 0.  0.
         23    2    4    4    0    0  0.29044412944E+03  0.26276485872E+03  0.15744630914E+02  0.40261413746E+03  0.91908035381E+02 0.  0.
         23    2    4    4    0    0 -0.25325218119E+03  0.11482542028E+02 -0.73913479785E+03  0.78680703831E+03  0.92068181754E+02 0.  0.
          2    1    3    3  502    0 -0.14358348409E+02 -0.21741430916E+02  0.12150984724E+02  0.28748885492E+02  0.00000000000E+00 0. -1.
         -1    1    3    3    0  502 -0.22833599842E+02 -0.25250596984E+03  0.46287618014E+03  0.52776414830E+03  0.00000000000E+00 0.  1.
         13    1    5    5    0    0  0.13687432233E+03  0.64185530611E+02  0.10197145423E+02  0.15152011163E+03  0.00000000000E+00 0.  1.
        -13    1    5    5    0    0  0.15356980711E+03  0.19857932811E+03  0.55474854904E+01  0.25109402583E+03  0.00000000000E+00 0. -1.
          3    1    6    6  503    0 -0.24006424020E+03 -0.14441464824E+02 -0.66666741780E+03  0.70872056643E+03  0.00000000000E+00 0. -1.
         -3    1    6    6    0  503 -0.13187940991E+02  0.25924006852E+02 -0.72467380053E+02  0.78086471880E+02  0.00000000000E+00 0.  1.
<mgrwt>
<rscale>  0 0.17281788E+04</rscale>
<asrwt>0</asrwt>
<pdfrwt beam="1">  1        2 0.15340748E+00 0.17281788E+04</pdfrwt>
<pdfrwt beam="2">  1       -1 0.11519779E+00 0.17281788E+04</pdfrwt>
<totfact> 0.18733498E+01</totfact>
</mgrwt>
</event>
<event>
12    7  0.1735955E-007  0.2149952E+04  0.7818608E-02  0.8539553E-01
          2   -1    0    0  501    0  0.00000000000E+00  0.00000000000E+00  0.18083087950E+04  0.18083087950E+04  0.00000000000E+00 0. -1.
         -1   -1    0    0    0  501 -0.00000000000E+00 -0.00000000000E+00 -0.63903520111E+03  0.63903520111E+03  0.00000000000E+00 0.  1.
         24    2    1    2    0    0 -0.37799405347E+03 -0.75769335344E+03  0.78273325552E+03  0.11559484206E+04  0.81035050897E+02 0.  0.
        254    2    1    2    0    0  0.37799405347E+03  0.75769335344E+03  0.38654033833E+03  0.12913955755E+04  0.89515941422E+03 0.  0.
         23    2    4    4    0    0  0.45399440875E+03  0.67502617961E+02 -0.42052348551E+02  0.46950359439E+03  0.89429852481E+02 0.  0.
         23    2    4    4    0    0 -0.76000355284E+02  0.69019073548E+03  0.42859268688E+03  0.82189198108E+03  0.98363773647E+02 0.  0.
          4    1    3    3  502    0 -0.37823004446E+03 -0.73752873910E+03  0.77370205829E+03  0.11338524959E+04  0.00000000000E+00 0. -1.
         -3    1    3    3    0  502  0.23599099358E+00 -0.20164614339E+02  0.90311972287E+01  0.22095924660E+02  0.00000000000E+00 0.  1.
         13    1    5    5    0    0  0.37635191531E+03  0.20721601692E+02 -0.31239859029E+02  0.37821432776E+03  0.00000000000E+00 0.  1.
        -13    1    5    5    0    0  0.77642493444E+02  0.46781016269E+02 -0.10812489521E+02  0.91289266626E+02  0.00000000000E+00 0. -1.
          3    1    6    6  503    0 -0.55136077843E+01  0.51935455904E+01 -0.41062804663E+01  0.86159344163E+01  0.00000000000E+00 0. -1.
         -3    1    6    6    0  503 -0.70486747499E+02  0.68499718989E+03  0.43269896734E+03  0.81327604666E+03  0.00000000000E+00 0.  1.
<mgrwt>
<rscale>  0 0.21499516E+04</rscale>
<asrwt>0</asrwt>
<pdfrwt beam="1">  1        2 0.27820135E+00 0.21499516E+04</pdfrwt>
<pdfrwt beam="2">  1       -1 0.98313109E-01 0.21499516E+04</pdfrwt>
<totfact> 0.88399672E+00</totfact>
</mgrwt>
</event>
<event>
12    7  0.1735955E-007  0.1442902E+04  0.7818608E-02  0.8923337E-01
         -1   -1    0    0    0  501 -0.00000000000E+00  0.00000000000E+00  0.31391985182E+03  0.31391985182E+03  0.00000000000E+00 0.  1.
          2   -1    0    0  501    0  0.00000000000E+00 -0.00000000000E+00 -0.16580386202E+04  0.16580386202E+04  0.00000000000E+00 0. -1.
         24    2    1    2    0    0  0.16024614417E+03  0.27018874164E+03 -0.13297268448E+02  0.32392201005E+03  0.77896523758E+02 0.  0.
        254    2    1    2    0    0 -0.16024614417E+03 -0.27018874164E+03 -0.13308215000E+04  0.16480364620E+04  0.91992256874E+03 0.  0.
         23    2    4    4    0    0  0.31711528158E+03 -0.34529666051E+03 -0.70746265643E+03  0.85400993340E+03  0.95066663650E+02 0.  0.
         23    2    4    4    0    0 -0.47736142574E+03  0.75107918862E+02 -0.62335884353E+03  0.79402652860E+03  0.91579200909E+02 0.  0.
          4    1    3    3  502    0  0.79915301306E+00  0.50845507157E+02 -0.14016168526E+02  0.52748054218E+02  0.00000000000E+00 0. -1.
         -3    1    3    3    0  502  0.15944699115E+03  0.21934323449E+03  0.71890007830E+00  0.27117395583E+03  0.00000000000E+00 0.  1.
         13    1    5    5    0    0  0.17064439665E+03 -0.24591336931E+03 -0.40575165605E+03  0.50420958112E+03  0.00000000000E+00 0.  1.
        -13    1    5    5    0    0  0.14647088493E+03 -0.99383291199E+02 -0.30171100039E+03  0.34980035228E+03  0.00000000000E+00 0. -1.
          2    1    6    6  503    0 -0.19969914288E+03 -0.54989724293E+01 -0.29797776631E+03  0.35874884750E+03  0.00000000000E+00 0. -1.
         -2    1    6    6    0  503 -0.27766228286E+03  0.80606891291E+02 -0.32538107722E+03  0.43527768110E+03  0.00000000000E+00 0.  1.
<mgrwt>
<rscale>  0 0.14429016E+04</rscale>
<asrwt>0</asrwt>
<pdfrwt beam="1">  1        2 0.25508287E+00 0.14429016E+04</pdfrwt>
<pdfrwt beam="2">  1       -1 0.48295361E-01 0.14429016E+04</pdfrwt>
<totfact> 0.49047542E+01</totfact>
</mgrwt>
</event>
<event>
12    7  0.1735955E-007  0.2081111E+04  0.7818608E-02  0.8569610E-01
          2   -1    0    0  501    0  0.00000000000E+00  0.00000000000E+00  0.70537251509E+03  0.70537251509E+03  0.00000000000E+00 0. -1.
         -1   -1    0    0    0  501 -0.00000000000E+00 -0.00000000000E+00 -0.15350120190E+04  0.15350120190E+04  0.00000000000E+00 0.  1.
         24    2    1    2    0    0 -0.44136467102E+03 -0.54230772472E+03 -0.84098315683E+03  0.10966198037E+04  0.80136650626E+02 0.  0.
        254    2    1    2    0    0  0.44136467102E+03  0.54230772472E+03  0.11343652953E+02  0.11437647303E+04  0.90507935492E+03 0.  0.
         23    2    4    4    0    0  0.21878165001E+03  0.67538498003E+03  0.27088008873E+03  0.76509198630E+03  0.89327730258E+02 0.  0.
         23    2    4    4    0    0  0.22258302101E+03 -0.13307725531E+03 -0.25953643578E+03  0.37867274401E+03  0.93707675417E+02 0.  0.
          4    1    3    3  502    0 -0.18527368436E+03 -0.27442507195E+03 -0.43902513218E+03  0.54988955702E+03  0.00000000000E+00 0. -1.
         -3    1    3    3    0  502 -0.25609098666E+03 -0.26788265277E+03 -0.40195802465E+03  0.54673024673E+03  0.00000000000E+00 0.  1.
         13    1    5    5    0    0  0.45348752157E+02  0.71233628663E+02  0.11904724684E+02  0.85278729144E+02  0.00000000000E+00 0. -1.
        -13    1    5    5    0    0  0.17343289785E+03  0.60415135137E+03  0.25897536405E+03  0.67981325715E+03  0.00000000000E+00 0.  1.
          4    1    6    6  503    0  0.50732057660E+02 -0.62351840140E+02 -0.36274663753E+02  0.88189255999E+02  0.00000000000E+00 0. -1.
         -4    1    6    6    0  503  0.17185096335E+03 -0.70725415168E+02 -0.22326177203E+03  0.29048348801E+03  0.00000000000E+00 0.  1.
<mgrwt>
<rscale>  0 0.20811106E+04</rscale>
<asrwt>0</asrwt>
<pdfrwt beam="1">  1        2 0.10851885E+00 0.20811106E+04</pdfrwt>
<pdfrwt beam="2">  1       -1 0.23615569E+00 0.20811106E+04</pdfrwt>
<totfact> 0.36735205E+00</totfact>
</mgrwt>
</event>
<event>
12    7  0.1735955E-007  0.2240034E+04  0.7818608E-02  0.8501947E-01
         -1   -1    0    0    0  501 -0.00000000000E+00  0.00000000000E+00  0.66481281994E+03  0.66481281994E+03  0.00000000000E+00 0.  1.
          2   -1    0    0  501    0  0.00000000000E+00 -0.00000000000E+00 -0.18869042652E+04  0.18869042652E+04  0.00000000000E+00 0. -1.
         24    2    1    2    0    0 -0.50109992375E+03  0.60587490702E+03  0.61484822978E+02  0.79235188834E+03  0.76521859380E+02 0.  0.
        254    2    1    2    0    0  0.50109992375E+03 -0.60587490702E+03 -0.12835762682E+04  0.17593651968E+04  0.91083056753E+03 0.  0.
         23    2    4    4    0    0  0.57084607403E+03 -0.62017687898E+03 -0.53609348073E+03  0.10030317749E+04  0.90509226094E+02 0.  0.
         23    2    4    4    0    0 -0.69746150274E+02  0.14301971960E+02 -0.74748278748E+03  0.75633342183E+03  0.90778056351E+02 0.  0.
          2    1    3    3  502    0 -0.17322960106E+03  0.15754813265E+03  0.70086199091E+01  0.23426273613E+03  0.00000000000E+00 0. -1.
         -1    1    3    3    0  502 -0.32787032269E+03  0.44832677437E+03  0.54476203069E+02  0.55808915222E+03  0.00000000000E+00 0.  1.
         13    1    5    5    0    0  0.37214994713E+03 -0.33894404895E+03 -0.32296954137E+03  0.59807021002E+03  0.00000000000E+00 0.  1.
        -13    1    5    5    0    0  0.19869612690E+03 -0.28123283003E+03 -0.21312393936E+03  0.40496156492E+03  0.00000000000E+00 0. -1.
          1    1    6    6  503    0 -0.55302624652E+02  0.29226214530E+02 -0.22768142322E+03  0.23611730641E+03  0.00000000000E+00 0.  1.
         -1    1    6    6    0  503 -0.14443525622E+02 -0.14924242571E+02 -0.51980136426E+03  0.52021611541E+03  0.00000000000E+00 0. -1.
<mgrwt>
<rscale>  0 0.22400341E+04</rscale>
<asrwt>0</asrwt>
<pdfrwt beam="1">  1        2 0.29029297E+00 0.22400341E+04</pdfrwt>
<pdfrwt beam="2">  1       -1 0.10227889E+00 0.22400341E+04</pdfrwt>
<totfact> 0.72462268E+00</totfact>
</mgrwt>
</event>
<event>
12    7  0.1735955E-007  0.1710586E+04  0.7818608E-02  0.8755350E-01
         -1   -1    0    0    0  501 -0.00000000000E+00  0.00000000000E+00  0.12448831546E+04  0.12448831546E+04  0.00000000000E+00 0.  1.
          2   -1    0    0  501    0  0.00000000000E+00 -0.00000000000E+00 -0.58762599415E+03  0.58762599415E+03  0.00000000000E+00 0. -1.
         24    2    1    2    0    0 -0.11002021030E+03  0.24038478475E+03 -0.35642867301E+03  0.45072053571E+03  0.78856267704E+02 0.  0.
        254    2    1    2    0    0  0.11002021030E+03 -0.24038478475E+03  0.10136858334E+04  0.13817886130E+04  0.90105022651E+03 0.  0.
         23    2    4    4    0    0  0.11690612565E+03 -0.37742615119E+03  0.11161047110E+04  0.11874429746E+04  0.90628637712E+02 0.  0.
         23    2    4    4    0    0 -0.68859153462E+01  0.13704136643E+03 -0.10241887763E+03  0.19434563844E+03  0.91939375364E+02 0.  0.
          2    1    3    3  502    0 -0.85038423730E+02  0.16251555073E+03 -0.29905653472E+03  0.35082424190E+03  0.00000000000E+00 0. -1.
         -1    1    3    3    0  502 -0.24981786571E+02  0.77869234022E+02 -0.57372138283E+02  0.99896293818E+02  0.00000000000E+00 0.  1.
         13    1    5    5    0    0  0.59780565121E+01 -0.16382719771E+03  0.41700907445E+03  0.44807550261E+03  0.00000000000E+00 0. -1.
        -13    1    5    5    0    0  0.11092806914E+03 -0.21359895348E+03  0.69909563660E+03  0.73936747194E+03  0.00000000000E+00 0.  1.
          1    1    6    6  503    0  0.25321244700E+02  0.12087686266E+03 -0.98744288431E+02  0.15812278728E+03  0.00000000000E+00 0. -1.
         -1    1    6    6    0  503 -0.32207160046E+02  0.16164503778E+02 -0.36745891967E+01  0.36222851163E+02  0.00000000000E+00 0.  1.
<mgrwt>
<rscale>  0 0.17105855E+04</rscale>
<asrwt>0</asrwt>
<pdfrwt beam="1">  1        2 0.90403999E-01 0.17105855E+04</pdfrwt>
<pdfrwt beam="2">  1       -1 0.19152048E+00 0.17105855E+04</pdfrwt>
<totfact> 0.95235868E+00</totfact>
</mgrwt>
</event>
<event>
12    7  0.1735955E-007  0.1660565E+04  0.7818608E-02  0.8784181E-01
          2   -1    0    0  501    0  0.00000000000E+00  0.00000000000E+00  0.15128839988E+04  0.15128839988E+04  0.00000000000E+00 0. -1.
         -1   -1    0    0    0  501 -0.00000000000E+00 -0.00000000000E+00 -0.45566541855E+03  0.45566541855E+03  0.00000000000E+00 0.  1.
         24    2    1    2    0    0 -0.19073509076E+03 -0.51511220173E+03  0.49669717934E+03  0.74493572812E+03  0.80626892861E+02 0.  0.
        254    2    1    2    0    0  0.19073509076E+03  0.51511220173E+03  0.56052140091E+03  0.12236136892E+04  0.93878952080E+03 0.  0.
         23    2    4    4    0    0  0.48145929096E+02 -0.24464231662E+03 -0.42559873578E+00  0.26425984280E+03  0.87551069724E+02 0.  0.
         23    2    4    4    0    0  0.14258916166E+03  0.75975451835E+03  0.56094699965E+03  0.95935384643E+03  0.90220114556E+02 0.  0.
          2    1    3    3  502    0 -0.18864612941E+03 -0.50328958643E+03  0.49816430649E+03  0.73284066905E+03  0.00000000000E+00 0. -1.
         -1    1    3    3    0  502 -0.20889613471E+01 -0.11822615292E+02 -0.14671271478E+01  0.12095059071E+02  0.00000000000E+00 0.  1.
         13    1    5    5    0    0 -0.66629044119E+01 -0.27681999831E+02 -0.26591712993E+02  0.38959037588E+02  0.00000000000E+00 0.  1.
        -13    1    5    5    0    0  0.54808833507E+02 -0.21696031679E+03  0.26166114257E+02  0.22530080521E+03  0.00000000000E+00 0. -1.
          2    1    6    6  503    0  0.99142080280E+02  0.60438901972E+03  0.40027332327E+03  0.73166520524E+03  0.00000000000E+00 0. -1.
         -2    1    6    6    0  503  0.43447081381E+02  0.15536549863E+03  0.16067367638E+03  0.22768864119E+03  0.00000000000E+00 0.  1.
<mgrwt>
<rscale>  0 0.16605649E+04</rscale>
<asrwt>0</asrwt>
<pdfrwt beam="1">  1        2 0.23275138E+00 0.16605649E+04</pdfrwt>
<pdfrwt beam="2">  1       -1 0.70102373E-01 0.16605649E+04</pdfrwt>
<totfact> 0.27926779E+01</totfact>
</mgrwt>
</event>
<event>
12    7  0.1735955E-007  0.1687473E+04  0.7818608E-02  0.8768541E-01
          2   -1    0    0  501    0  0.00000000000E+00  0.00000000000E+00  0.47737777165E+03  0.47737777165E+03  0.00000000000E+00 0. -1.
         -3   -1    0    0    0  501 -0.00000000000E+00 -0.00000000000E+00 -0.14912543723E+04  0.14912543723E+04  0.00000000000E+00 0.  1.
         24    2    1    2    0    0 -0.43820815811E+03  0.10011445723E+03 -0.82758111109E+03  0.94477388817E+03  0.75219079676E+02 0.  0.
        254    2    1    2    0    0  0.43820815811E+03 -0.10011445723E+03 -0.18629548960E+03  0.10238582558E+04  0.90084983443E+03 0.  0.
         23    2    4    4    0    0  0.25585816158E+03  0.37083269984E+03  0.38965887750E+02  0.46134990042E+03  0.91351519396E+02 0.  0.
         23    2    4    4    0    0  0.18234999653E+03 -0.47094715707E+03 -0.22526137735E+03  0.56250835541E+03  0.10310293783E+03 0.  0.
          2    1    3    3  502    0 -0.13533760467E+03  0.86680156118E+01 -0.30660914019E+03  0.33526193727E+03  0.00000000000E+00 0. -1.
         -1    1    3    3    0  502 -0.30287055344E+03  0.91446441616E+02 -0.52097197091E+03  0.60951195090E+03  0.00000000000E+00 0.  1.
         13    1    5    5    0    0  0.20373680908E+03  0.23107804003E+03  0.48616975884E+02  0.31188035895E+03  0.00000000000E+00 0. -1.
        -13    1    5    5    0    0  0.52121352501E+02  0.13975465981E+03 -0.96510881333E+01  0.14946954147E+03  0.00000000000E+00 0.  1.
          3    1    6    6  503    0  0.18043683249E+03 -0.47627034241E+03 -0.22514837894E+03  0.55685068207E+03  0.00000000000E+00 0. -1.
         -3    1    6    6    0  503  0.19131640453E+01  0.53231853479E+01 -0.11299840695E+00  0.56576733338E+01  0.00000000000E+00 0.  1.
<mgrwt>
<rscale>  0 0.16874735E+04</rscale>
<asrwt>0</asrwt>
<pdfrwt beam="1">  1        2 0.73442735E-01 0.16874735E+04</pdfrwt>
<pdfrwt beam="2">  1       -3 0.22942375E+00 0.16874735E+04</pdfrwt>
<totfact> 0.37365522E+00</totfact>
</mgrwt>
</event>
<event>
12    7  0.1735955E-007  0.1583376E+04  0.7818608E-02  0.8830826E-01
         -1   -1    0    0    0  501 -0.00000000000E+00  0.00000000000E+00  0.40289071421E+03  0.40289071421E+03  0.00000000000E+00 0.  1.
          2   -1    0    0  501    0  0.00000000000E+00 -0.00000000000E+00 -0.15556828322E+04  0.15556828322E+04  0.00000000000E+00 0. -1.
         24    2    1    2    0    0 -0.44478387988E+03 -0.29215567837E+03 -0.36748719871E+03  0.65148679820E+03  0.78743677874E+02 0.  0.
        254    2    1    2    0    0  0.44478387988E+03  0.29215567837E+03 -0.78530491925E+03  0.13070867482E+04  0.89921316208E+03 0.  0.
         23    2    4    4    0    0  0.17629762359E+03  0.56872654480E+03 -0.65561186322E+03  0.89053151197E+03  0.93213324070E+02 0.  0.
         23    2    4    4    0    0  0.26848625630E+03 -0.27657086643E+03 -0.12969305603E+03  0.41655523620E+03  0.90120264357E+02 0.  0.
          4    1    3    3  502    0 -0.18754700682E+03 -0.77819256033E+02 -0.13373732629E+03  0.24313656413E+03  0.00000000000E+00 0. -1.
         -3    1    3    3    0  502 -0.25723687306E+03 -0.21433642234E+03 -0.23374987242E+03  0.40835023407E+03  0.00000000000E+00 0.  1.
         13    1    5    5    0    0 -0.71283666377E+01  0.31015839889E+02 -0.18146477512E+02  0.36634554468E+02  0.00000000000E+00 0. -1.
        -13    1    5    5    0    0  0.18342599023E+03  0.53771070491E+03 -0.63746538571E+03  0.85389695751E+03  0.00000000000E+00 0.  1.
          3    1    6    6  503    0  0.16749061423E+03 -0.11622729648E+03 -0.90465308020E+02  0.22303780455E+03  0.00000000000E+00 0. -1.
         -3    1    6    6    0  503  0.10099564207E+03 -0.16034356995E+03 -0.39227748008E+02  0.19351743165E+03  0.00000000000E+00 0.  1.
<mgrwt>
<rscale>  0 0.15833764E+04</rscale>
<asrwt>0</asrwt>
<pdfrwt beam="1">  1        2 0.23933583E+00 0.15833764E+04</pdfrwt>
<pdfrwt beam="2">  1       -1 0.61983186E-01 0.15833764E+04</pdfrwt>
<totfact> 0.34105164E+01</totfact>
</mgrwt>
</event>
<event>
12    7  0.1735955E-007  0.1269906E+04  0.7818608E-02  0.9053776E-01
          2   -1    0    0  501    0  0.00000000000E+00  0.00000000000E+00  0.72691465000E+03  0.72691465000E+03  0.00000000000E+00 0. -1.
         -1   -1    0    0    0  501 -0.00000000000E+00 -0.00000000000E+00 -0.55462560917E+03  0.55462560917E+03  0.00000000000E+00 0.  1.
         24    2    1    2    0    0 -0.21065203828E+01 -0.73982354277E+01 -0.26632870007E+03  0.27910719502E+03  0.83130490916E+02 0.  0.
        254    2    1    2    0    0  0.21065203828E+01  0.73982354277E+01  0.43861774089E+03  0.10024330641E+04  0.90134752130E+03 0.  0.
         23    2    4    4    0    0 -0.23058707622E+03  0.27444232342E+03 -0.67919340144E+02  0.37665734065E+03  0.93641480649E+02 0.  0.
         23    2    4    4    0    0  0.23269359660E+03 -0.26704408799E+03  0.50653708104E+03  0.62577572350E+03  0.97757796718E+02 0.  0.
          4    1    3    3  502    0 -0.11021461778E+02 -0.43245127557E+02 -0.11552097411E+03  0.12384146776E+03  0.00000000000E+00 0. -1.
         -3    1    3    3    0  502  0.89149413955E+01  0.35846892130E+02 -0.15080772596E+03  0.15526572727E+03  0.00000000000E+00 0.  1.
         13    1    5    5    0    0 -0.18828458382E+03  0.20555287097E+03 -0.13252032216E+02  0.27906752521E+03  0.00000000000E+00 0. -1.
        -13    1    5    5    0    0 -0.42302492395E+02  0.68889452452E+02 -0.54667307928E+02  0.97589815442E+02  0.00000000000E+00 0.  1.
          3    1    6    6  503    0  0.62854281250E+02 -0.14014523394E+03  0.18234151857E+03  0.23841094073E+03  0.00000000000E+00 0. -1.
         -3    1    6    6    0  503  0.16983931535E+03 -0.12689885405E+03  0.32419556247E+03  0.38736478276E+03  0.00000000000E+00 0.  1.
<mgrwt>
<rscale>  0 0.12699063E+04</rscale>
<asrwt>0</asrwt>
<pdfrwt beam="1">  1        2 0.11183302E+00 0.12699063E+04</pdfrwt>
<pdfrwt beam="2">  1       -1 0.85327017E-01 0.12699063E+04</pdfrwt>
<totfact> 0.59494971E+01</totfact>
</mgrwt>
</event>
<event>
12    7  0.1735955E-007  0.2671770E+04  0.7818608E-02  0.8344223E-01
         -1   -1    0    0    0  501 -0.00000000000E+00  0.00000000000E+00  0.12691963759E+04  0.12691963759E+04  0.00000000000E+00 0.  1.
          2   -1    0    0  501    0  0.00000000000E+00 -0.00000000000E+00 -0.14060775787E+04  0.14060775787E+04  0.00000000000E+00 0. -1.
         24    2    1    2    0    0 -0.50913756616E+03  0.14957699800E+03  0.10063664397E+04  0.11403603824E+04  0.77807783554E+02 0.  0.
        254    2    1    2    0    0  0.50913756616E+03 -0.14957699800E+03 -0.11432476425E+04  0.15349135722E+04  0.87598525242E+03 0.  0.
         23    2    4    4    0    0  0.23901985837E+03 -0.16326570342E+03 -0.12053632160E+04  0.12427781398E+04  0.88378955579E+02 0.  0.
         23    2    4    4    0    0  0.27011770779E+03  0.13688705427E+02  0.62115573471E+02  0.29213543239E+03  0.91289701881E+02 0.  0.
          2    1    3    3  502    0 -0.11158466349E+03  0.40592398865E+02  0.16323535637E+03  0.20185306918E+03  0.00000000000E+00 0. -1.
         -1    1    3    3    0  502 -0.39755290267E+03  0.10898459913E+03  0.84313108330E+03  0.93850731318E+03  0.00000000000E+00 0.  1.
         13    1    5    5    0    0  0.15278923363E+03 -0.68171495170E+02 -0.54691917212E+03  0.57193748216E+03  0.00000000000E+00 0.  1.
        -13    1    5    5    0    0  0.86230624736E+02 -0.95094208252E+02 -0.65844404385E+03  0.67084065766E+03  0.00000000000E+00 0. -1.
          2    1    6    6  503    0  0.19639571420E+03 -0.47794077434E+01  0.40556810508E+01  0.19649571966E+03  0.00000000000E+00 0. -1.
         -2    1    6    6    0  503  0.73721993586E+02  0.18468113170E+02  0.58059892420E+02  0.95639712725E+02  0.00000000000E+00 0.  1.
<mgrwt>
<rscale>  0 0.26717699E+04</rscale>
<asrwt>0</asrwt>
<pdfrwt beam="1">  1        2 0.21631963E+00 0.26717699E+04</pdfrwt>
<pdfrwt beam="2">  1       -1 0.19526098E+00 0.26717699E+04</pdfrwt>
<totfact> 0.23342219E+00</totfact>
</mgrwt>
</event>
<event>
12    7  0.1735955E-007  0.2129152E+04  0.7818608E-02  0.8548509E-01
         -1   -1    0    0    0  501 -0.00000000000E+00  0.00000000000E+00  0.12399899136E+04  0.12399899136E+04  0.00000000000E+00 0.  1.
          2   -1    0    0  501    0  0.00000000000E+00 -0.00000000000E+00 -0.91397706165E+03  0.91397706165E+03  0.00000000000E+00 0. -1.
         24    2    1    2    0    0  0.75516724760E+03 -0.33120271732E+03  0.42347378965E+03  0.93045531173E+03  0.80275929134E+02 0.  0.
        254    2    1    2    0    0 -0.75516724760E+03  0.33120271732E+03 -0.97460937651E+02  0.12235116636E+04  0.89861523728E+03 0.  0.
         23    2    4    4    0    0 -0.23492087475E+03 -0.43671675597E+02 -0.42613085305E+03  0.49732029119E+03  0.92978145080E+02 0.  0.
         23    2    4    4    0    0 -0.52024637285E+03  0.37487439292E+03  0.32866991540E+03  0.72619137236E+03  0.90238002340E+02 0.  0.
          4    1    3    3  502    0  0.29869314246E+02 -0.13280124452E+02  0.36660371845E+02  0.49117415473E+02  0.00000000000E+00 0. -1.
         -3    1    3    3    0  502  0.72529793336E+03 -0.31792259287E+03  0.38681341780E+03  0.88133789626E+03  0.00000000000E+00 0.  1.
         13    1    5    5    0    0 -0.10965346503E+02 -0.13541557822E+02 -0.94026444461E+02  0.95627322822E+02  0.00000000000E+00 0.  1.
        -13    1    5    5    0    0 -0.22395552825E+03 -0.30130117775E+02 -0.33210440859E+03  0.40169296837E+03  0.00000000000E+00 0. -1.
          3    1    6    6  503    0 -0.32565241844E+03  0.23751877208E+03  0.25463170242E+03  0.47676196220E+03  0.00000000000E+00 0. -1.
         -3    1    6    6    0  503 -0.19459395441E+03  0.13735562084E+03  0.74038212987E+02  0.24942941016E+03  0.00000000000E+00 0.  1.
<mgrwt>
<rscale>  0 0.21291523E+04</rscale>
<asrwt>0</asrwt>
<pdfrwt beam="1">  1        2 0.14061186E+00 0.21291523E+04</pdfrwt>
<pdfrwt beam="2">  1       -1 0.19076768E+00 0.21291523E+04</pdfrwt>
<totfact> 0.52512128E+00</totfact>
</mgrwt>
</event>
<event>
12    7  0.1735955E-007  0.1300941E+04  0.7818608E-02  0.9028819E-01
         -1   -1    0    0    0  501 -0.00000000000E+00  0.00000000000E+00  0.16944336550E+04  0.16944336550E+04  0.00000000000E+00 0.  1.
          2   -1    0    0  501    0  0.00000000000E+00 -0.00000000000E+00 -0.24970697769E+03  0.24970697769E+03  0.00000000000E+00 0. -1.
         24    2    1    2    0    0 -0.19005702959E+03 -0.99644325219E+02  0.18365989063E+02  0.22977362523E+03  0.80049629937E+02 0.  0.
        254    2    1    2    0    0  0.19005702959E+03  0.99644325219E+02  0.14263606883E+04  0.17143670075E+04  0.92655208018E+03 0.  0.
         23    2    4    4    0    0 -0.29732724857E+03 -0.13105852990E+03  0.87529021855E+03  0.93791347817E+03  0.89268666604E+02 0.  0.
         23    2    4    4    0    0  0.48738427816E+03  0.23070285512E+03  0.55107046971E+03  0.77645352931E+03  0.91837784397E+02 0.  0.
          2    1    3    3  502    0 -0.15338298674E+03 -0.11230012880E+03  0.18293274004E+02  0.19097723274E+03  0.00000000000E+00 0. -1.
         -1    1    3    3    0  502 -0.36674042843E+02  0.12655803581E+02  0.72715058754E-01  0.38796392490E+02  0.00000000000E+00 0.  1.
         13    1    5    5    0    0 -0.62879637449E+02 -0.10205585464E+02  0.27413260409E+03  0.28143682667E+03  0.00000000000E+00 0. -1.
        -13    1    5    5    0    0 -0.23444761112E+03 -0.12085294444E+03  0.60115761446E+03  0.65647665149E+03  0.00000000000E+00 0.  1.
          4    1    6    6  503    0  0.36840757478E+02  0.36892152699E+02  0.27132231632E+02  0.58774402044E+02  0.00000000000E+00 0. -1.
         -4    1    6    6    0  503  0.45054352068E+03  0.19381070242E+03  0.52393823808E+03  0.71767912727E+03  0.00000000000E+00 0.  1.
<mgrwt>
<rscale>  0 0.13009411E+04</rscale>
<asrwt>0</asrwt>
<pdfrwt beam="1">  1        2 0.38416459E-01 0.13009411E+04</pdfrwt>
<pdfrwt beam="2">  1       -1 0.26068209E+00 0.13009411E+04</pdfrwt>
<totfact> 0.90116612E+00</totfact>
</mgrwt>
</event>
<event>
12    7  0.1735955E-007  0.1907408E+04  0.7818608E-02  0.8651177E-01
         -1   -1    0    0    0  501 -0.00000000000E+00  0.00000000000E+00  0.29106471211E+03  0.29106471211E+03  0.00000000000E+00 0.  1.
          2   -1    0    0  501    0  0.00000000000E+00 -0.00000000000E+00 -0.31249124355E+04  0.31249124355E+04  0.00000000000E+00 0. -1.
         24    2    1    2    0    0  0.16841124480E+03  0.52855159216E+03 -0.20198943007E+04  0.20962158630E+04  0.80117572671E+02 0.  0.
        254    2    1    2    0    0 -0.16841124480E+03 -0.52855159216E+03 -0.81395342276E+03  0.13197612847E+04  0.87836242013E+03 0.  0.
         23    2    4    4    0    0 -0.91315439506E+02  0.15891862352E+03  0.48782348026E+02  0.21013111822E+03  0.90452921288E+02 0.  0.
         23    2    4    4    0    0 -0.77095805296E+02 -0.68747021569E+03 -0.86273577079E+03  0.11096301664E+04  0.91689887310E+02 0.  0.
          4    1    3    3  502    0  0.44963678293E+02  0.10560849205E+03 -0.54320128761E+03  0.55519593372E+03  0.00000000000E+00 0. -1.
         -3    1    3    3    0  502  0.12344756651E+03  0.42294310011E+03 -0.14766930131E+04  0.15410199293E+04  0.00000000000E+00 0.  1.
         13    1    5    5    0    0 -0.43743063386E+02  0.15228454738E+02  0.35174474901E+02  0.58160167749E+02  0.00000000000E+00 0.  1.
        -13    1    5    5    0    0 -0.47572376120E+02  0.14369016878E+03  0.13607873125E+02  0.15197095047E+03  0.00000000000E+00 0. -1.
          2    1    6    6  503    0 -0.30110892745E+02 -0.46339891365E+03 -0.63523831126E+03  0.78687542288E+03  0.00000000000E+00 0.  1.
         -2    1    6    6    0  503 -0.46984912551E+02 -0.22407130204E+03 -0.22749745952E+03  0.32275474356E+03  0.00000000000E+00 0. -1.
<mgrwt>
<rscale>  0 0.19074084E+04</rscale>
<asrwt>0</asrwt>
<pdfrwt beam="1">  1        2 0.48075578E+00 0.19074084E+04</pdfrwt>
<pdfrwt beam="2">  1       -1 0.44779184E-01 0.19074084E+04</pdfrwt>
<totfact> 0.76679111E+00</totfact>
</mgrwt>
</event>
<event>
12    7  0.1735955E-007  0.1676594E+04  0.7818608E-02  0.8774827E-01
         -1   -1    0    0    0  501 -0.00000000000E+00  0.00000000000E+00  0.54309318547E+03  0.54309318547E+03  0.00000000000E+00 0.  1.
          2   -1    0    0  501    0  0.00000000000E+00 -0.00000000000E+00 -0.12939616593E+04  0.12939616593E+04  0.00000000000E+00 0. -1.
         24    2    1    2    0    0 -0.32594756019E+03  0.37763832860E+03  0.84501162079E+02  0.51340889658E+03  0.87153482250E+02 0.  0.
        254    2    1    2    0    0  0.32594756019E+03 -0.37763832860E+03 -0.83536963590E+03  0.13236459482E+04  0.89740940954E+03 0.  0.
         23    2    4    4    0    0  0.57054795642E+03 -0.21425991934E+03 -0.25545497732E+03  0.66715944352E+03  0.91718013669E+02 0.  0.
         23    2    4    4    0    0 -0.24460039623E+03 -0.16337840926E+03 -0.57991465859E+03  0.65648650466E+03  0.90286550008E+02 0.  0.
          4    1    3    3  502    0 -0.24110396885E+03  0.29076342277E+03  0.25990796963E+02  0.37861591797E+03  0.00000000000E+00 0. -1.
         -3    1    3    3    0  502 -0.84843591345E+02  0.86874905834E+02  0.58510365116E+02  0.13479297861E+03  0.00000000000E+00 0.  1.
         13    1    5    5    0    0  0.49503853715E+03 -0.19995478239E+03 -0.25160129206E+03  0.59021036795E+03  0.00000000000E+00 0.  1.
        -13    1    5    5    0    0  0.75509419268E+02 -0.14305136949E+02 -0.38536852551E+01  0.76949075572E+02  0.00000000000E+00 0. -1.
          3    1    6    6  503    0 -0.34874425718E+02 -0.37190538527E+02 -0.44083843752E+02  0.67399903598E+02  0.00000000000E+00 0. -1.
         -3    1    6    6    0  503 -0.20972597051E+03 -0.12618787073E+03 -0.53583081484E+03  0.58908660107E+03  0.00000000000E+00 0.  1.
<mgrwt>
<rscale>  0 0.16765939E+04</rscale>
<asrwt>0</asrwt>
<pdfrwt beam="1">  1        2 0.19907103E+00 0.16765939E+04</pdfrwt>
<pdfrwt beam="2">  1       -1 0.83552797E-01 0.16765939E+04</pdfrwt>
<totfact> 0.25738903E+01</totfact>
</mgrwt>
</event>
<event>
12    7  0.1735955E-007  0.1888891E+04  0.7818608E-02  0.8660406E-01
         -1   -1    0    0    0  501 -0.00000000000E+00  0.00000000000E+00  0.59282342848E+03  0.59282342848E+03  0.00000000000E+00 0.  1.
          2   -1    0    0  501    0  0.00000000000E+00 -0.00000000000E+00 -0.15046256216E+04  0.15046256216E+04  0.00000000000E+00 0. -1.
         24    2    1    2    0    0 -0.59766197994E+03  0.44701731642E+02 -0.75637378094E+03  0.97069584749E+03  0.10464723967E+03 0.  0.
        254    2    1    2    0    0  0.59766197994E+03 -0.44701731642E+02 -0.15542841216E+03  0.11267532026E+04  0.94139083334E+03 0.  0.
         23    2    4    4    0    0  0.14566539744E+03 -0.80577651823E+01 -0.51385213471E+03  0.54187319983E+03  0.91100015106E+02 0.  0.
         23    2    4    4    0    0  0.45199658250E+03 -0.36643966460E+02  0.35842372255E+03  0.58488000273E+03  0.89293683065E+02 0.  0.
          2    1    3    3  502    0 -0.58971588448E+03  0.53779327829E+02 -0.75341330587E+03  0.95827378655E+03  0.00000000000E+00 0. -1.
         -1    1    3    3    0  502 -0.79460954575E+01 -0.90775961861E+01 -0.29604750633E+01  0.12422060946E+02  0.00000000000E+00 0.  1.
         13    1    5    5    0    0  0.58160044664E+02  0.41296002851E+02 -0.22639708814E+03  0.23736805211E+03  0.00000000000E+00 0. -1.
        -13    1    5    5    0    0  0.87505352780E+02 -0.49353768033E+02 -0.28745504657E+03  0.30450514771E+03  0.00000000000E+00 0.  1.
          3    1    6    6  503    0  0.29319066779E+03 -0.58633658515E+02  0.26368897390E+03  0.39866094435E+03  0.00000000000E+00 0. -1.
         -3    1    6    6    0  503  0.15880591471E+03  0.21989692055E+02  0.94734748655E+02  0.18621905838E+03  0.00000000000E+00 0.  1.
<mgrwt>
<rscale>  0 0.18888910E+04</rscale>
<asrwt>0</asrwt>
<pdfrwt beam="1">  1        2 0.23148086E+00 0.18888910E+04</pdfrwt>
<pdfrwt beam="2">  1       -1 0.91203605E-01 0.18888910E+04</pdfrwt>
<totfact> 0.15807181E+01</totfact>
</mgrwt>
</event>
<event>
12    7  0.1735955E-007  0.1866870E+04  0.7818608E-02  0.8671525E-01
          2   -1    0    0  501    0  0.00000000000E+00  0.00000000000E+00  0.25023360608E+04  0.25023360608E+04  0.00000000000E+00 0. -1.
         -1   -1    0    0    0  501 -0.00000000000E+00 -0.00000000000E+00 -0.34819515852E+03  0.34819515852E+03  0.00000000000E+00 0.  1.
         24    2    1    2    0    0 -0.28926761892E+03  0.99628971438E+02  0.18098309365E+04  0.18372183033E+04  0.79255209171E+02 0.  0.
        254    2    1    2    0    0  0.28926761892E+03 -0.99628971438E+02  0.34430996580E+03  0.10133129160E+04  0.90258075861E+03 0.  0.
         23    2    4    4    0    0 -0.23690734922E+03 -0.22812882848E+03  0.31312229467E+03  0.46322817225E+03  0.91470834995E+02 0.  0.
         23    2    4    4    0    0  0.52617496814E+03  0.12849985705E+03  0.31187671129E+02  0.55008474372E+03  0.90819844094E+02 0.  0.
          4    1    3    3  502    0 -0.94391351514E+02  0.36755785266E+02  0.83440350998E+03  0.84052955478E+03  0.00000000000E+00 0. -1.
         -3    1    3    3    0  502 -0.19487626741E+03  0.62873186172E+02  0.97542742651E+03  0.99668874857E+03  0.00000000000E+00 0.  1.
         13    1    5    5    0    0 -0.16050415120E+03 -0.12089931519E+03  0.23857734905E+03  0.31192527702E+03  0.00000000000E+00 0. -1.
        -13    1    5    5    0    0 -0.76403198021E+02 -0.10722951329E+03  0.74544945614E+02  0.15130289523E+03  0.00000000000E+00 0.  1.
          1    1    6    6  503    0  0.14687357338E+02 -0.11379681396E+01 -0.14219008153E+02  0.20474218664E+02  0.00000000000E+00 0. -1.
         -1    1    6    6    0  503  0.51148761080E+03  0.12963782519E+03  0.45406679282E+02  0.52961052505E+03  0.00000000000E+00 0.  1.
<mgrwt>
<rscale>  0 0.18668704E+04</rscale>
<asrwt>0</asrwt>
<pdfrwt beam="1">  1        2 0.38497477E+00 0.18668704E+04</pdfrwt>
<pdfrwt beam="2">  1       -1 0.53568487E-01 0.18668704E+04</pdfrwt>
<totfact> 0.13058162E+01</totfact>
</mgrwt>
</event>
<event>
12    7  0.1735955E-007  0.1688621E+04  0.7818608E-02  0.8767881E-01
          2   -1    0    0  501    0  0.00000000000E+00  0.00000000000E+00  0.28394700617E+04  0.28394700617E+04  0.00000000000E+00 0. -1.
         -1   -1    0    0    0  501 -0.00000000000E+00 -0.00000000000E+00 -0.25105384392E+03  0.25105384392E+03  0.00000000000E+00 0.  1.
         24    2    1    2    0    0  0.77385613403E+02 -0.17369770354E+03  0.19817792212E+04  0.19924745279E+04  0.79664532170E+02 0.  0.
        254    2    1    2    0    0 -0.77385613403E+02  0.17369770354E+03  0.60663699656E+03  0.10980493776E+04  0.89529021258E+03 0.  0.
         23    2    4    4    0    0  0.11647425294E+03  0.49613419927E+03  0.42799945486E+03  0.67173907591E+03  0.91293249847E+02 0.  0.
         23    2    4    4    0    0 -0.19385986635E+03 -0.32243649573E+03  0.17863754171E+03  0.42631030173E+03  0.91006376107E+02 0.  0.
          2    1    3    3  502    0  0.88533423318E+02 -0.11432743529E+03  0.14896826727E+04  0.14966841332E+04  0.00000000000E+00 0. -1.
         -1    1    3    3    0  502 -0.11147809915E+02 -0.59370268252E+02  0.49209654851E+03  0.49579039470E+03  0.00000000000E+00 0.  1.
         13    1    5    5    0    0  0.40387236008E+02  0.30379073317E+03  0.29782706572E+03  0.42734166596E+03  0.00000000000E+00 0.  1.
        -13    1    5    5    0    0  0.76087016935E+02  0.19234346610E+03  0.13017238914E+03  0.24439740995E+03  0.00000000000E+00 0. -1.
          1    1    6    6  503    0 -0.12231102575E+03 -0.11609792299E+03  0.81179849012E+02  0.18716004549E+03  0.00000000000E+00 0. -1.
         -1    1    6    6    0  503 -0.71548840595E+02 -0.20633857274E+03  0.97457692696E+02  0.23915025624E+03  0.00000000000E+00 0.  1.
<mgrwt>
<rscale>  0 0.16886206E+04</rscale>
<asrwt>0</asrwt>
<pdfrwt beam="1">  1        2 0.43684153E+00 0.16886206E+04</pdfrwt>
<pdfrwt beam="2">  1       -1 0.38623670E-01 0.16886206E+04</pdfrwt>
<totfact> 0.15465921E+01</totfact>
</mgrwt>
</event>
<event>
12    7  0.1735955E-007  0.1539704E+04  0.7818608E-02  0.8858471E-01
          2   -1    0    0  501    0  0.00000000000E+00  0.00000000000E+00  0.19839655030E+04  0.19839655030E+04  0.00000000000E+00 0. -1.
         -1   -1    0    0    0  501 -0.00000000000E+00 -0.00000000000E+00 -0.29873103910E+03  0.29873103910E+03  0.00000000000E+00 0.  1.
         24    2    1    2    0    0  0.23358763990E+03  0.28407661383E+03  0.10882609373E+04  0.11514675666E+04  0.79391317201E+02 0.  0.
        254    2    1    2    0    0 -0.23358763990E+03 -0.28407661383E+03  0.59697352661E+03  0.11312289755E+04  0.88771554876E+03 0.  0.
         23    2    4    4    0    0  0.71993486696E+02 -0.47392704595E+03  0.80066791410E+02  0.49464358657E+03  0.92041727680E+02 0.  0.
         23    2    4    4    0    0 -0.30558112660E+03  0.18985043212E+03  0.51690673520E+03  0.63658538894E+03  0.92872886269E+02 0.  0.
          4    1    3    3  502    0  0.15929572218E+03  0.16763408365E+03  0.57016629778E+03  0.61527710849E+03  0.00000000000E+00 0. -1.
         -3    1    3    3    0  502  0.74291917723E+02  0.11644253017E+03  0.51809463955E+03  0.53619045814E+03  0.00000000000E+00 0.  1.
         13    1    5    5    0    0  0.58359899995E+02 -0.46336243132E+03  0.88674838193E+02  0.47536706618E+03  0.00000000000E+00 0. -1.
        -13    1    5    5    0    0  0.13633586701E+02 -0.10564614636E+02 -0.86080467829E+01  0.19276520385E+02  0.00000000000E+00 0.  1.
          3    1    6    6  503    0 -0.30811205026E+03  0.17103047448E+03  0.49441176947E+03  0.60714698098E+03  0.00000000000E+00 0. -1.
         -3    1    6    6    0  503  0.25309236630E+01  0.18819957638E+02  0.22494965728E+02  0.29438407960E+02  0.00000000000E+00 0.  1.
<mgrwt>
<rscale>  0 0.15397040E+04</rscale>
<asrwt>0</asrwt>
<pdfrwt beam="1">  1        2 0.30522545E+00 0.15397040E+04</pdfrwt>
<pdfrwt beam="2">  1       -1 0.45958623E-01 0.15397040E+04</pdfrwt>
<totfact> 0.35239710E+01</totfact>
</mgrwt>
</event>
<event>
12    7  0.1735955E-007  0.1478275E+04  0.7818608E-02  0.8899029E-01
         -1   -1    0    0    0  501 -0.00000000000E+00  0.00000000000E+00  0.19564514554E+03  0.19564514554E+03  0.00000000000E+00 0.  1.
          2   -1    0    0  501    0  0.00000000000E+00 -0.00000000000E+00 -0.27924257566E+04  0.27924257566E+04  0.00000000000E+00 0. -1.
         24    2    1    2    0    0 -0.30810995923E+02 -0.36854225159E+03 -0.13761887104E+04  0.14271586875E+04  0.78191073961E+02 0.  0.
        254    2    1    2    0    0  0.30810995923E+02  0.36854225159E+03 -0.12205919006E+04  0.15609122146E+04  0.89990535339E+03 0.  0.
         23    2    4    4    0    0 -0.14495814749E+02 -0.98182786215E+02 -0.10420627416E+04  0.10508127449E+04  0.91992821010E+02 0.  0.
         23    2    4    4    0    0  0.45306810671E+02  0.46672503781E+03 -0.17852915898E+03  0.51009946970E+03  0.91890371493E+02 0.  0.
          4    1    3    3  502    0 -0.42453993512E+02 -0.29967572424E+03 -0.12012316673E+04  0.12387757666E+04  0.00000000000E+00 0. -1.
         -3    1    3    3    0  502  0.11642997590E+02 -0.68866527353E+02 -0.17495704309E+03  0.18838292096E+03  0.00000000000E+00 0.  1.
         13    1    5    5    0    0  0.18600889382E+02 -0.53178606876E+02 -0.81627280719E+03  0.81821467420E+03  0.00000000000E+00 0.  1.
        -13    1    5    5    0    0 -0.33096704131E+02 -0.45004179339E+02 -0.22578993444E+03  0.23259807066E+03  0.00000000000E+00 0. -1.
          2    1    6    6  503    0 -0.20348786014E+02  0.19186421152E+03 -0.48026698070E+02  0.19882784634E+03  0.00000000000E+00 0.  1.
         -2    1    6    6    0  503  0.65655596685E+02  0.27486082629E+03 -0.13050246091E+03  0.31127162336E+03  0.00000000000E+00 0. -1.
<mgrwt>
<rscale>  0 0.14782754E+04</rscale>
<asrwt>0</asrwt>
<pdfrwt beam="1">  1        2 0.42960398E+00 0.14782754E+04</pdfrwt>
<pdfrwt beam="2">  1       -1 0.30099252E-01 0.14782754E+04</pdfrwt>
<totfact> 0.26271317E+01</totfact>
</mgrwt>
</event>
<event>
12    7  0.1735955E-007  0.1256801E+04  0.7818608E-02  0.9064542E-01
          2   -1    0    0  501    0  0.00000000000E+00  0.00000000000E+00  0.20365633973E+04  0.20365633973E+04  0.00000000000E+00 0. -1.
         -1   -1    0    0    0  501 -0.00000000000E+00 -0.00000000000E+00 -0.19389876012E+03  0.19389876012E+03  0.00000000000E+00 0.  1.
         24    2    1    2    0    0  0.27189461187E+03  0.70969374195E+02  0.62003640146E+03  0.68566049793E+03  0.81986872463E+02 0.  0.
        254    2    1    2    0    0 -0.27189461187E+03 -0.70969374195E+02  0.12226282358E+04  0.15448016595E+04  0.90145939030E+03 0.  0.
         23    2    4    4    0    0  0.28500648883E+03 -0.16111967476E+03  0.27328550675E+03  0.43659995989E+03  0.93521700733E+02 0.  0.
         23    2    4    4    0    0 -0.55690110069E+03  0.90150300567E+02  0.94934272901E+03  0.11082016996E+04  0.92701010294E+02 0.  0.
          2    1    3    3  502    0  0.25611997975E+03  0.51384643276E+02  0.59660963419E+03  0.65129170208E+03  0.00000000000E+00 0. -1.
         -1    1    3    3    0  502  0.15774632119E+02  0.19584730919E+02  0.23426767265E+02  0.34368795849E+02  0.00000000000E+00 0.  1.
         13    1    5    5    0    0  0.24807392669E+03 -0.14681544007E+03  0.19250256811E+03  0.34663047367E+03  0.00000000000E+00 0. -1.
        -13    1    5    5    0    0  0.36932562135E+02 -0.14304234694E+02  0.80782938635E+02  0.89969486220E+02  0.00000000000E+00 0.  1.
          3    1    6    6  503    0 -0.52181561455E+03  0.60424072540E+02  0.86063704719E+03  0.10082850446E+04  0.00000000000E+00 0. -1.
         -3    1    6    6    0  503 -0.35085486149E+02  0.29726228027E+02  0.88705681823E+02  0.99916655061E+02  0.00000000000E+00 0.  1.
<mgrwt>
<rscale>  0 0.12568009E+04</rscale>
<asrwt>0</asrwt>
<pdfrwt beam="1">  1        2 0.31331743E+00 0.12568009E+04</pdfrwt>
<pdfrwt beam="2">  1       -1 0.29830580E-01 0.12568009E+04</pdfrwt>
<totfact> 0.73666885E+01</totfact>
</mgrwt>
</event>
<event>
12    7  0.1735955E-007  0.1577205E+04  0.7818608E-02  0.8834675E-01
          2   -1    0    0  501    0  0.00000000000E+00  0.00000000000E+00  0.25944843094E+04  0.25944843094E+04  0.00000000000E+00 0. -1.
         -1   -1    0    0    0  501 -0.00000000000E+00 -0.00000000000E+00 -0.23969857817E+03  0.23969857817E+03  0.00000000000E+00 0.  1.
         24    2    1    2    0    0 -0.87692716436E+02 -0.48593509364E+03  0.10763295494E+04  0.11869375998E+04  0.80700924684E+02 0.  0.
        254    2    1    2    0    0  0.87692716436E+02  0.48593509364E+03  0.12784561818E+04  0.16472452877E+04  0.91386208006E+03 0.  0.
         23    2    4    4    0    0 -0.90117310743E+02 -0.66909859188E+02 -0.80699927925E+02  0.16661599228E+03  0.93007266182E+02 0.  0.
         23    2    4    4    0    0  0.17781002718E+03  0.55284495283E+03  0.13591561098E+04  0.14806292955E+04  0.87771477555E+02 0.  0.
          4    1    3    3  502    0 -0.47504694727E+02 -0.21589327561E+03  0.57606932011E+03  0.61702711776E+03  0.00000000000E+00 0. -1.
         -3    1    3    3    0  502 -0.40188021708E+02 -0.27004181802E+03  0.50026022925E+03  0.56991048204E+03  0.00000000000E+00 0.  1.
         13    1    5    5    0    0 -0.27432425540E+01  0.18359543001E+02  0.27054300089E+01  0.18759465623E+02  0.00000000000E+00 0. -1.
        -13    1    5    5    0    0 -0.87374068189E+02 -0.85269402190E+02 -0.83405357934E+02  0.14785652665E+03  0.00000000000E+00 0.  1.
          2    1    6    6  503    0  0.44799398139E+02  0.52467832745E+02  0.13953103090E+03  0.15565592867E+03  0.00000000000E+00 0. -1.
         -2    1    6    6    0  503  0.13301062904E+03  0.50037712008E+03  0.12196250789E+04  0.13249733668E+04  0.00000000000E+00 0.  1.
<mgrwt>
<rscale>  0 0.15772054E+04</rscale>
<asrwt>0</asrwt>
<pdfrwt beam="1">  1        2 0.39915141E+00 0.15772054E+04</pdfrwt>
<pdfrwt beam="2">  1       -1 0.36876706E-01 0.15772054E+04</pdfrwt>
<totfact> 0.23756254E+01</totfact>
</mgrwt>
</event>
<event>
12    7  0.1735955E-007  0.2363000E+04  0.7818608E-02  0.8453487E-01
         -1   -1    0    0    0  501 -0.00000000000E+00  0.00000000000E+00  0.78953040921E+03  0.78953040921E+03  0.00000000000E+00 0.  1.
          2   -1    0    0  501    0  0.00000000000E+00 -0.00000000000E+00 -0.17680667580E+04  0.17680667580E+04  0.00000000000E+00 0. -1.
         24    2    1    2    0    0 -0.81191654024E+03 -0.98751558117E+02  0.20664813548E+03  0.84728351776E+03  0.78902275137E+02 0.  0.
        254    2    1    2    0    0  0.81191654024E+03  0.98751558117E+02 -0.11851844843E+04  0.17103136495E+04  0.92279476549E+03 0.  0.
         23    2    4    4    0    0 -0.35096955762E+02 -0.22868394093E+03 -0.53216678731E+03  0.58804270048E+03  0.95208124258E+02 0.  0.
         23    2    4    4    0    0  0.84701349601E+03  0.32743549905E+03 -0.65301769701E+03  0.11222709490E+04  0.91728414049E+02 0.  0.
          2    1    3    3  502    0 -0.83302757328E+02 -0.16737785321E+02 -0.18921491078E+01  0.84988723159E+02  0.00000000000E+00 0. -1.
         -1    1    3    3    0  502 -0.72861378292E+03 -0.82013772796E+02  0.20854028459E+03  0.76229479460E+03  0.00000000000E+00 0.  1.
         13    1    5    5    0    0 -0.78753515931E+01 -0.33894618692E+02 -0.21733081066E+02  0.41026737034E+02  0.00000000000E+00 0.  1.
        -13    1    5    5    0    0 -0.27221604169E+02 -0.19478932224E+03 -0.51043370624E+03  0.54701596344E+03  0.00000000000E+00 0. -1.
          2    1    6    6  503    0  0.73299675598E+03  0.31271544904E+03 -0.58625675685E+03  0.98932915721E+03  0.00000000000E+00 0. -1.
         -2    1    6    6    0  503  0.11401674003E+03  0.14720050007E+02 -0.66760940155E+02  0.13294179181E+03  0.00000000000E+00 0.  1.
<mgrwt>
<rscale>  0 0.23630002E+04</rscale>
<asrwt>0</asrwt>
<pdfrwt beam="1">  1        2 0.27201027E+00 0.23630002E+04</pdfrwt>
<pdfrwt beam="2">  1       -1 0.12146622E+00 0.23630002E+04</pdfrwt>
<totfact> 0.55457943E+00</totfact>
</mgrwt>
</event>
<event>
12    7  0.1735955E-007  0.2163407E+04  0.7818608E-02  0.8533815E-01
          2   -1    0    0  501    0  0.00000000000E+00  0.00000000000E+00  0.18181936498E+04  0.18181936498E+04  0.00000000000E+00 0. -1.
         -1   -1    0    0    0  501 -0.00000000000E+00 -0.00000000000E+00 -0.64354126346E+03  0.64354126346E+03  0.00000000000E+00 0.  1.
         24    2    1    2    0    0  0.85134775261E+03  0.24238715619E+03  0.51979864196E+03  0.10295843386E+04  0.79427657841E+02 0.  0.
        254    2    1    2    0    0 -0.85134775261E+03 -0.24238715619E+03  0.65485374442E+03  0.14321505746E+04  0.91579326952E+03 0.  0.
         23    2    4    4    0    0 -0.94657690982E+03  0.48095840249E+01  0.65017312088E+03  0.11520927209E+04  0.92528764110E+02 0.  0.
         23    2    4    4    0    0  0.95229157201E+02 -0.24719674022E+03  0.46806235329E+01  0.28005785372E+03  0.90750605715E+02 0.  0.
          2    1    3    3  502    0  0.25166908471E+03  0.63123233080E+02  0.19396860487E+03  0.32395322260E+03  0.00000000000E+00 0. -1.
         -1    1    3    3    0  502  0.59967866790E+03  0.17926392311E+03  0.32583003708E+03  0.70563111605E+03  0.00000000000E+00 0.  1.
         13    1    5    5    0    0 -0.89068501173E+03  0.44742976185E+01  0.58221607696E+03  0.10641030823E+04  0.00000000000E+00 0. -1.
        -13    1    5    5    0    0 -0.55891898084E+02  0.33528640648E+00  0.67957043920E+02  0.87989638632E+02  0.00000000000E+00 0.  1.
          2    1    6    6  503    0  0.67891446179E+02 -0.12738618302E+03  0.44209847621E+02  0.15096687953E+03  0.00000000000E+00 0. -1.
         -2    1    6    6    0  503  0.27337711022E+02 -0.11981055719E+03 -0.39529224088E+02  0.12909097418E+03  0.00000000000E+00 0.  1.
<mgrwt>
<rscale>  0 0.21634072E+04</rscale>
<asrwt>0</asrwt>
<pdfrwt beam="1">  1        2 0.27972210E+00 0.21634072E+04</pdfrwt>
<pdfrwt beam="2">  1       -1 0.99006349E-01 0.21634072E+04</pdfrwt>
<totfact> 0.85806457E+00</totfact>
</mgrwt>
</event>
<event>
12    7  0.1735955E-007  0.1963791E+04  0.7818608E-02  0.8623739E-01
          2   -1    0    0  501    0  0.00000000000E+00  0.00000000000E+00  0.94228406762E+03  0.94228406762E+03  0.00000000000E+00 0. -1.
         -1   -1    0    0    0  501 -0.00000000000E+00 -0.00000000000E+00 -0.10231722346E+04  0.10231722346E+04  0.00000000000E+00 0.  1.
         24    2    1    2    0    0  0.65605637185E+03  0.18305438253E+03  0.32489294598E+03  0.76067633758E+03  0.95677553211E+02 0.  0.
        254    2    1    2    0    0 -0.65605637185E+03 -0.18305438253E+03 -0.40578111301E+03  0.12047799647E+04  0.90714804836E+03 0.  0.
         23    2    4    4    0    0 -0.57417016426E+03 -0.72440139211E+02 -0.67177005186E+03  0.89143935599E+03  0.92033534856E+02 0.  0.
         23    2    4    4    0    0 -0.81886207586E+02 -0.11061424332E+03  0.26598893884E+03  0.31334060870E+03  0.92148573813E+02 0.  0.
          2    1    3    3  502    0  0.63610673548E+03  0.19286059561E+03  0.32083307133E+03  0.73807916101E+03  0.00000000000E+00 0. -1.
         -1    1    3    3    0  502  0.19949636370E+02 -0.98062130836E+01  0.40598746521E+01  0.22597176561E+02  0.00000000000E+00 0.  1.
         13    1    5    5    0    0 -0.45548838592E+03 -0.38986097181E+02 -0.47521270889E+03  0.65940632707E+03  0.00000000000E+00 0. -1.
        -13    1    5    5    0    0 -0.11868177834E+03 -0.33454042030E+02 -0.19655734296E+03  0.23203302892E+03  0.00000000000E+00 0.  1.
          3    1    6    6  503    0  0.11612679564E+02 -0.24921200830E+02  0.13153846247E+02  0.30478586722E+02  0.00000000000E+00 0. -1.
         -3    1    6    6    0  503 -0.93498887151E+02 -0.85693042490E+02  0.25283509260E+03  0.28286202198E+03  0.00000000000E+00 0.  1.
<mgrwt>
<rscale>  0 0.19637911E+04</rscale>
<asrwt>0</asrwt>
<pdfrwt beam="1">  1        2 0.14496678E+00 0.19637911E+04</pdfrwt>
<pdfrwt beam="2">  1       -1 0.15741111E+00 0.19637911E+04</pdfrwt>
<totfact> 0.89309329E+00</totfact>
</mgrwt>
</event>
<event>
12    7  0.1735955E-007  0.2144419E+04  0.7818608E-02  0.8541925E-01
          2   -1    0    0  501    0  0.00000000000E+00  0.00000000000E+00  0.85740323257E+03  0.85740323257E+03  0.00000000000E+00 0. -1.
         -1   -1    0    0    0  501 -0.00000000000E+00 -0.00000000000E+00 -0.13408317774E+04  0.13408317774E+04  0.00000000000E+00 0.  1.
         24    2    1    2    0    0  0.23286150107E+03 -0.66090396961E+02  0.67610523026E+03  0.72249866532E+03  0.79332337361E+02 0.  0.
        254    2    1    2    0    0 -0.23286150107E+03  0.66090396961E+02 -0.11595337751E+04  0.14757363447E+04  0.88016291906E+03 0.  0.
         23    2    4    4    0    0 -0.39955545483E+03 -0.24192274651E+03 -0.93665941421E+03  0.10506303112E+04  0.91225082788E+02 0.  0.
         23    2    4    4    0    0  0.16669395375E+03  0.30801314347E+03 -0.22287436092E+03  0.42510603353E+03  0.91559752150E+02 0.  0.
          4    1    3    3  502    0  0.19602824780E+03 -0.58353051473E+02  0.63325977120E+03  0.66546982679E+03  0.00000000000E+00 0. -1.
         -1    1    3    3    0  502  0.36833253267E+02 -0.77373454874E+01  0.42845459061E+02  0.57028838525E+02  0.00000000000E+00 0.  1.
         13    1    5    5    0    0 -0.26825167285E+02 -0.27145670181E+02 -0.14159260852E+03  0.14664564023E+03  0.00000000000E+00 0.  1.
        -13    1    5    5    0    0 -0.37273028754E+03 -0.21477707633E+03 -0.79506680569E+03  0.90398467093E+03  0.00000000000E+00 0. -1.
          2    1    6    6  503    0  0.17159805416E+03  0.31168556694E+03 -0.21797423656E+03  0.41726077294E+03  0.00000000000E+00 0. -1.
         -2    1    6    6    0  503 -0.49041004108E+01 -0.36724234627E+01 -0.49001243616E+01  0.78452605876E+01  0.00000000000E+00 0.  1.
<mgrwt>
<rscale>  0 0.21444193E+04</rscale>
<asrwt>0</asrwt>
<pdfrwt beam="1">  1        2 0.13190819E+00 0.21444193E+04</pdfrwt>
<pdfrwt beam="2">  1       -1 0.20628181E+00 0.21444193E+04</pdfrwt>
<totfact> 0.44771242E+00</totfact>
</mgrwt>
</event>
<event>
12    7  0.1735955E-007  0.2027185E+04  0.7818608E-02  0.8594015E-01
         -1   -1    0    0    0  501 -0.00000000000E+00  0.00000000000E+00  0.27285445556E+03  0.27285445556E+03  0.00000000000E+00 0.  1.
          2   -1    0    0  501    0  0.00000000000E+00 -0.00000000000E+00 -0.37652668316E+04  0.37652668316E+04  0.00000000000E+00 0. -1.
         24    2    1    2    0    0  0.29501780631E+03  0.74309536834E+03 -0.16387853045E+04  0.18252779924E+04  0.82439327210E+02 0.  0.
        254    2    1    2    0    0 -0.29501780631E+03 -0.74309536834E+03 -0.18536270715E+04  0.22128432947E+04  0.90637514001E+03 0.  0.
         23    2    4    4    0    0  0.77494590808E+02 -0.54068009063E+03 -0.16371212092E+04  0.17280421960E+04  0.87313260142E+02 0.  0.
         23    2    4    4    0    0 -0.37251239711E+03 -0.20241527771E+03 -0.21650586228E+03  0.48480109877E+03  0.91759938507E+02 0.  0.
          2    1    3    3  502    0  0.90217185246E+02  0.14939175844E+03 -0.39892618958E+03  0.43542983676E+03  0.00000000000E+00 0. -1.
         -1    1    3    3    0  502  0.20480062106E+03  0.59370360990E+03 -0.12398591149E+04  0.13898481556E+04  0.00000000000E+00 0.  1.
         13    1    5    5    0    0  0.71981880014E+02 -0.37188436575E+03 -0.12382310717E+04  0.12948727966E+04  0.00000000000E+00 0.  1.
        -13    1    5    5    0    0  0.55127107938E+01 -0.16879572488E+03 -0.39889013753E+03  0.43316939935E+03  0.00000000000E+00 0. -1.
          1    1    6    6  503    0 -0.94082390498E+02 -0.12004331882E+02 -0.30646782157E+02  0.99673594509E+02  0.00000000000E+00 0. -1.
         -1    1    6    6    0  503 -0.27843000662E+03 -0.19041094583E+03 -0.18585908012E+03  0.38512750426E+03  0.00000000000E+00 0.  1.
<mgrwt>
<rscale>  0 0.20271851E+04</rscale>
<asrwt>0</asrwt>
<pdfrwt beam="1">  1        2 0.57927182E+00 0.20271851E+04</pdfrwt>
<pdfrwt beam="2">  1       -1 0.41977609E-01 0.20271851E+04</pdfrwt>
<totfact> 0.30916636E+00</totfact>
</mgrwt>
</event>
<event>
12    7  0.1735955E-007  0.1882180E+04  0.7818608E-02  0.8663778E-01
          2   -1    0    0  501    0  0.00000000000E+00  0.00000000000E+00  0.12958367829E+04  0.12958367829E+04  0.00000000000E+00 0. -1.
         -1   -1    0    0    0  501 -0.00000000000E+00 -0.00000000000E+00 -0.68345797875E+03  0.68345797875E+03  0.00000000000E+00 0.  1.
         24    2    1    2    0    0  0.45396381425E+02 -0.67534558325E+03  0.51374542619E+03  0.85333742530E+03  0.78089117217E+02 0.  0.
        254    2    1    2    0    0 -0.45396381425E+02  0.67534558325E+03  0.98633377971E+02  0.11259573364E+04  0.89437066800E+03 0.  0.
         23    2    4    4    0    0  0.29954294998E+03  0.58119012275E+03 -0.15578847540E+03  0.67802018450E+03  0.89069545055E+02 0.  0.
         23    2    4    4    0    0 -0.34493933141E+03  0.94155460501E+02  0.25442185338E+03  0.44793715186E+03  0.89826607653E+02 0.  0.
          2    1    3    3  502    0 -0.10111669465E+01 -0.22261198360E+03  0.21108680847E+03  0.30678128759E+03  0.00000000000E+00 0. -1.
         -1    1    3    3    0  502  0.46407548371E+02 -0.45273359965E+03  0.30265861772E+03  0.54655613771E+03  0.00000000000E+00 0.  1.
         13    1    5    5    0    0  0.77709041919E+02  0.24551913775E+03 -0.59321154127E+02  0.26426755670E+03  0.00000000000E+00 0. -1.
        -13    1    5    5    0    0  0.22183390807E+03  0.33567098500E+03 -0.96467321278E+02  0.41375262780E+03  0.00000000000E+00 0.  1.
          2    1    6    6  503    0 -0.16047093328E+03  0.21731572331E+01  0.13497911177E+03  0.20970217847E+03  0.00000000000E+00 0. -1.
         -2    1    6    6    0  503 -0.18446839813E+03  0.91982303268E+02  0.11944274161E+03  0.23823497339E+03  0.00000000000E+00 0.  1.
<mgrwt>
<rscale>  0 0.18821796E+04</rscale>
<asrwt>0</asrwt>
<pdfrwt beam="1">  1        2 0.19935950E+00 0.18821796E+04</pdfrwt>
<pdfrwt beam="2">  1       -1 0.10514738E+00 0.18821796E+04</pdfrwt>
<totfact> 0.15083765E+01</totfact>
</mgrwt>
</event>
<event>
12    7  0.1735955E-007  0.1951619E+04  0.7818608E-02  0.8629580E-01
         -1   -1    0    0    0  501 -0.00000000000E+00  0.00000000000E+00  0.62012850275E+03  0.62012850275E+03  0.00000000000E+00 0.  1.
          2   -1    0    0  501    0  0.00000000000E+00 -0.00000000000E+00 -0.15354955401E+04  0.15354955401E+04  0.00000000000E+00 0. -1.
         24    2    1    2    0    0 -0.50240718177E+03  0.28159024681E+03 -0.92623514095E+03  0.10935940919E+04  0.79564176256E+02 0.  0.
        254    2    1    2    0    0  0.50240718177E+03 -0.28159024681E+03  0.10868103587E+02  0.10620299510E+04  0.89223509102E+03 0.  0.
         23    2    4    4    0    0  0.18527257913E+03 -0.51244140580E+03  0.23582597455E+03  0.60080357356E+03  0.91809154112E+02 0.  0.
         23    2    4    4    0    0  0.31713460264E+03  0.23085115899E+03 -0.22495787096E+03  0.46122637739E+03  0.90868661781E+02 0.  0.
          4    1    3    3  502    0 -0.46766354311E+03  0.24487276693E+03 -0.80991491953E+03  0.96676472754E+03  0.00000000000E+00 0. -1.
         -3    1    3    3    0  502 -0.34743638661E+02  0.36717479882E+02 -0.11632022142E+03  0.12682936437E+03  0.00000000000E+00 0.  1.
         13    1    5    5    0    0  0.51829086489E+02 -0.10617064065E+03  0.91654389731E+02  0.14952921554E+03  0.00000000000E+00 0.  1.
        -13    1    5    5    0    0  0.13344349264E+03 -0.40627076514E+03  0.14417158482E+03  0.45127435802E+03  0.00000000000E+00 0. -1.
          1    1    6    6  503    0  0.18747480876E+03  0.18599269570E+03 -0.12981691819E+03  0.29426606841E+03  0.00000000000E+00 0. -1.
         -1    1    6    6    0  503  0.12965979388E+03  0.44858463288E+02 -0.95140952779E+02  0.16696030897E+03  0.00000000000E+00 0.  1.
<mgrwt>
<rscale>  0 0.19516194E+04</rscale>
<asrwt>0</asrwt>
<pdfrwt beam="1">  1        2 0.23623008E+00 0.19516194E+04</pdfrwt>
<pdfrwt beam="2">  1       -1 0.95404386E-01 0.19516194E+04</pdfrwt>
<totfact> 0.13661308E+01</totfact>
</mgrwt>
</event>
<event>
12    7  0.1735955E-007  0.2124197E+04  0.7818608E-02  0.8550659E-01
          4   -1    0    0  501    0  0.00000000000E+00  0.00000000000E+00  0.83721135982E+03  0.83721135982E+03  0.00000000000E+00 0. -1.
         -3   -1    0    0    0  501 -0.00000000000E+00 -0.00000000000E+00 -0.13473938153E+04  0.13473938153E+04  0.00000000000E+00 0.  1.
         24    2    1    2    0    0  0.42323743808E+03  0.57132252829E+03  0.30637911706E+03  0.77904886908E+03  0.86658044757E+02 0.  0.
        254    2    1    2    0    0 -0.42323743808E+03 -0.57132252829E+03 -0.81656157256E+03  0.14055563061E+04  0.89625686463E+03 0.  0.
         23    2    4    4    0    0 -0.33157953849E+03 -0.68930890034E+03 -0.24635156363E+03  0.80914976087E+03  0.94564751179E+02 0.  0.
         23    2    4    4    0    0 -0.91657899587E+02  0.11798637206E+03 -0.57021000892E+03  0.59640654519E+03  0.90770911190E+02 0.  0.
          4    1    3    3  502    0  0.38774754486E+03  0.52665977848E+03  0.30588522717E+03  0.72200031372E+03  0.00000000000E+00 0. -1.
         -3    1    3    3    0  502  0.35489893218E+02  0.44662749809E+02  0.49388989096E+00  0.57048555358E+02  0.00000000000E+00 0.  1.
         13    1    5    5    0    0 -0.77037176961E+02 -0.25497640871E+03 -0.10445644226E+03  0.28610984597E+03  0.00000000000E+00 0. -1.
        -13    1    5    5    0    0 -0.25454236153E+03 -0.43433249163E+03 -0.14189512137E+03  0.52303991489E+03  0.00000000000E+00 0.  1.
          4    1    6    6  503    0 -0.28642513833E+02  0.35256104490E+02 -0.57613232995E+02  0.73366689435E+02  0.00000000000E+00 0. -1.
         -4    1    6    6    0  503 -0.63015385753E+02  0.82730267567E+02 -0.51259677593E+03  0.52303985575E+03  0.00000000000E+00 0.  1.
<mgrwt>
<rscale>  0 0.21241972E+04</rscale>
<asrwt>0</asrwt>
<pdfrwt beam="1">  1        4 0.12880175E+00 0.21241972E+04</pdfrwt>
<pdfrwt beam="2">  1       -3 0.20729135E+00 0.21241972E+04</pdfrwt>
<totfact> 0.12269396E-01</totfact>
</mgrwt>
</event>
<event>
12    7  0.1735955E-007  0.3619924E+04  0.7818608E-02  0.8085943E-01
          2   -1    0    0  501    0  0.00000000000E+00  0.00000000000E+00  0.11882560371E+04  0.11882560371E+04  0.00000000000E+00 0. -1.
         -1   -1    0    0    0  501 -0.00000000000E+00 -0.00000000000E+00 -0.27569497440E+04  0.27569497440E+04  0.00000000000E+00 0.  1.
         24    2    1    2    0    0 -0.97733967628E+03 -0.11668776210E+04  0.81962641404E+02  0.15262824494E+04  0.77614530901E+02 0.  0.
        254    2    1    2    0    0  0.97733967628E+03  0.11668776210E+04 -0.16506563482E+04  0.24189233317E+04  0.89984858701E+03 0.  0.
         23    2    4    4    0    0  0.34022956652E+03  0.17116961307E+03 -0.98369982611E+03  0.10585986420E+04  0.88941230711E+02 0.  0.
         23    2    4    4    0    0  0.63711010976E+03  0.99570800796E+03 -0.66695652211E+03  0.13603246898E+04  0.91151138677E+02 0.  0.
          2    1    3    3  502    0 -0.75064737532E+03 -0.90636254563E+03  0.95221732504E+02  0.11806912063E+04  0.00000000000E+00 0. -1.
         -1    1    3    3    0  502 -0.22669230095E+03 -0.26051507540E+03 -0.13259091100E+02  0.34559124312E+03  0.00000000000E+00 0.  1.
         13    1    5    5    0    0  0.28540691307E+03  0.10270642474E+03 -0.77163930215E+03  0.82911575086E+03  0.00000000000E+00 0.  1.
        -13    1    5    5    0    0  0.54822653446E+02  0.68463188329E+02 -0.21206052397E+03  0.22948289111E+03  0.00000000000E+00 0. -1.
          3    1    6    6  503    0  0.82923742271E+02  0.80414233321E+02 -0.70216241174E+02  0.13517809171E+03  0.00000000000E+00 0. -1.
         -3    1    6    6    0  503  0.55418636749E+03  0.91529377464E+03 -0.59674028094E+03  0.12251465980E+04  0.00000000000E+00 0.  1.
<mgrwt>
<rscale>  0 0.36199239E+04</rscale>
<asrwt>0</asrwt>
<pdfrwt beam="1">  1        2 0.18280862E+00 0.36199239E+04</pdfrwt>
<pdfrwt beam="2">  1       -1 0.42414611E+00 0.36199239E+04</pdfrwt>
<totfact> 0.87038964E-02</totfact>
</mgrwt>
</event>
<event>
12    7  0.1735955E-007  0.5553748E+04  0.7818608E-02  0.7748336E-01
         -1   -1    0    0    0  501 -0.00000000000E+00  0.00000000000E+00  0.22426952661E+04  0.22426952661E+04  0.00000000000E+00 0.  1.
          2   -1    0    0  501    0  0.00000000000E+00 -0.00000000000E+00 -0.34382866733E+04  0.34382866733E+04  0.00000000000E+00 0. -1.
         24    2    1    2    0    0  0.94260717823E+03  0.15725591551E+04 -0.26059869910E+04  0.31874880763E+04  0.86379687757E+02 0.  0.
        254    2    1    2    0    0 -0.94260717823E+03 -0.15725591551E+04  0.14103955838E+04  0.24934938631E+04  0.93104530157E+03 0.  0.
         23    2    4    4    0    0 -0.44941013490E+03 -0.11113731188E+03  0.13727958241E+03  0.49145527475E+03  0.91441959131E+02 0.  0.
         23    2    4    4    0    0 -0.49319704334E+03 -0.14614218432E+04  0.12731160014E+04  0.20020385883E+04  0.91307331092E+02 0.  0.
          2    1    3    3  502    0  0.39737924821E+03  0.74218753479E+03 -0.11713249347E+04  0.14424821338E+04  0.00000000000E+00 0. -1.
         -1    1    3    3    0  502  0.54522793003E+03  0.83037162030E+03 -0.14346620563E+04  0.17450059425E+04  0.00000000000E+00 0.  1.
         13    1    5    5    0    0 -0.12890377341E+03 -0.16600275960E+02 -0.59818361153E+00  0.12996964948E+03  0.00000000000E+00 0. -1.
        -13    1    5    5    0    0 -0.32050636149E+03 -0.94537035923E+02  0.13787776602E+03  0.36148562527E+03  0.00000000000E+00 0.  1.
          2    1    6    6  503    0 -0.17508561296E+03 -0.40154334631E+03  0.38316370307E+03  0.58198492608E+03  0.00000000000E+00 0. -1.
         -2    1    6    6    0  503 -0.31811143037E+03 -0.10598784969E+04  0.88995229834E+03  0.14200536622E+04  0.00000000000E+00 0.  1.
<mgrwt>
<rscale>  0 0.55537480E+04</rscale>
<asrwt>0</asrwt>
<pdfrwt beam="1">  1        2 0.52896718E+00 0.55537480E+04</pdfrwt>
<pdfrwt beam="2">  1       -1 0.34503004E+00 0.55537480E+04</pdfrwt>
<totfact> 0.11893067E-02</totfact>
</mgrwt>
</event>
<event>
12    7  0.1735955E-007  0.1978684E+04  0.7818608E-02  0.8616652E-01
         -1   -1    0    0    0  501 -0.00000000000E+00  0.00000000000E+00  0.37686202355E+03  0.37686202355E+03  0.00000000000E+00 0.  1.
          2   -1    0    0  501    0  0.00000000000E+00 -0.00000000000E+00 -0.25972307108E+04  0.25972307108E+04  0.00000000000E+00 0. -1.
         24    2    1    2    0    0 -0.74841063714E+02 -0.17515309899E+03 -0.20231662374E+04  0.20336283223E+04  0.78503096795E+02 0.  0.
        254    2    1    2    0    0  0.74841063714E+02  0.17515309899E+03 -0.19720244987E+03  0.94046441206E+03  0.89961364553E+03 0.  0.
         23    2    4    4    0    0  0.10888963747E+03  0.41480584989E+03 -0.41315513475E+03  0.60276766339E+03  0.93331904499E+02 0.  0.
         23    2    4    4    0    0 -0.34048573754E+02 -0.23965275091E+03  0.21595268488E+03  0.33769674867E+03  0.93865784853E+02 0.  0.
          4    1    3    3  502    0 -0.81649886013E+02 -0.17814379121E+03 -0.18604269750E+04  0.18707192317E+04  0.00000000000E+00 0. -1.
         -3    1    3    3    0  502  0.68088222993E+01  0.29906922258E+01 -0.16273926233E+03  0.16290909061E+03  0.00000000000E+00 0.  1.
         13    1    5    5    0    0  0.87995258009E+02  0.36012104599E+03 -0.39444300028E+03  0.54130916643E+03  0.00000000000E+00 0. -1.
        -13    1    5    5    0    0  0.20894379459E+02  0.54684803907E+02 -0.18712134476E+02  0.61458496955E+02  0.00000000000E+00 0.  1.
          2    1    6    6  503    0 -0.35677962996E+02 -0.23725444294E+03  0.17579157290E+03  0.29743110940E+03  0.00000000000E+00 0. -1.
         -2    1    6    6    0  503  0.16293892412E+01 -0.23983079697E+01  0.40161111984E+02  0.40265639275E+02  0.00000000000E+00 0.  1.
<mgrwt>
<rscale>  0 0.19786840E+04</rscale>
<asrwt>0</asrwt>
<pdfrwt beam="1">  1        2 0.39957397E+00 0.19786840E+04</pdfrwt>
<pdfrwt beam="2">  1       -1 0.57978770E-01 0.19786840E+04</pdfrwt>
<totfact> 0.97613878E+00</totfact>
</mgrwt>
</event>
<event>
12    7  0.1735955E-007  0.1659960E+04  0.7818608E-02  0.8784536E-01
         -1   -1    0    0    0  501 -0.00000000000E+00  0.00000000000E+00  0.62267630758E+03  0.62267630758E+03  0.00000000000E+00 0.  1.
          2   -1    0    0  501    0  0.00000000000E+00 -0.00000000000E+00 -0.11063005089E+04  0.11063005089E+04  0.00000000000E+00 0. -1.
         24    2    1    2    0    0 -0.18528366804E+03 -0.39328414578E+03 -0.58419475495E+03  0.73239260803E+03  0.78185443830E+02 0.  0.
        254    2    1    2    0    0  0.18528366804E+03  0.39328414578E+03  0.10057055363E+03  0.99658420845E+03  0.89110223392E+03 0.  0.
         23    2    4    4    0    0  0.13990132955E+03  0.48365811179E+03  0.41193080558E+03  0.65682189391E+03  0.90721886139E+02 0.  0.
         23    2    4    4    0    0  0.45382338489E+02 -0.90373966012E+02 -0.31136025195E+03  0.33976231453E+03  0.90918719202E+02 0.  0.
          2    1    3    3  502    0 -0.18254717924E+03 -0.39681106413E+03 -0.58113628987E+03  0.72698134823E+03  0.00000000000E+00 0. -1.
         -1    1    3    3    0  502 -0.27364887976E+01  0.35269183547E+01 -0.30584650772E+01  0.54112598023E+01  0.00000000000E+00 0.  1.
         13    1    5    5    0    0  0.43884941879E+02  0.19013444594E+03  0.21597442895E+03  0.29107035166E+03  0.00000000000E+00 0.  1.
        -13    1    5    5    0    0  0.96016387674E+02  0.29352366585E+03  0.19595637663E+03  0.36575154225E+03  0.00000000000E+00 0. -1.
          3    1    6    6  503    0  0.23568819100E+02 -0.66587191483E+02 -0.82369896123E+02  0.10850872357E+03  0.00000000000E+00 0. -1.
         -3    1    6    6    0  503  0.21813519390E+02 -0.23786774529E+02 -0.22899035583E+03  0.23125359096E+03  0.00000000000E+00 0.  1.
<mgrwt>
<rscale>  0 0.16599604E+04</rscale>
<asrwt>0</asrwt>
<pdfrwt beam="1">  1        2 0.17020008E+00 0.16599604E+04</pdfrwt>
<pdfrwt beam="2">  1       -1 0.95796355E-01 0.16599604E+04</pdfrwt>
<totfact> 0.24705590E+01</totfact>
</mgrwt>
</event>
<event>
12    7  0.1735955E-007  0.2381001E+04  0.7818608E-02  0.8446651E-01
          2   -1    0    0  501    0  0.00000000000E+00  0.00000000000E+00  0.23012039124E+04  0.23012039124E+04  0.00000000000E+00 0. -1.
         -1   -1    0    0    0  501 -0.00000000000E+00 -0.00000000000E+00 -0.61589146765E+03  0.61589146765E+03  0.00000000000E+00 0.  1.
         24    2    1    2    0    0 -0.55596274139E+03 -0.18904104605E+03 -0.30097153355E+03  0.66542611249E+03  0.85889232593E+02 0.  0.
        254    2    1    2    0    0  0.55596274139E+03  0.18904104605E+03  0.19862839783E+04  0.22516692676E+04  0.88309646196E+03 0.  0.
         23    2    4    4    0    0  0.50269243596E+03  0.50909040852E+03  0.14224658341E+04  0.15948911220E+04  0.91629212314E+02 0.  0.
         23    2    4    4    0    0  0.53270305433E+02 -0.32004936247E+03  0.56381814415E+03  0.65677814554E+03  0.90539013306E+02 0.  0.
          4    1    3    3  502    0 -0.23228782641E+03 -0.11618053112E+03 -0.10535632746E+03  0.28027755145E+03  0.00000000000E+00 0. -1.
         -3    1    3    3    0  502 -0.32367491498E+03 -0.72860514933E+02 -0.19561520609E+03  0.38514856105E+03  0.00000000000E+00 0.  1.
         13    1    5    5    0    0  0.79482908851E+02  0.40876764370E+02  0.15307211502E+03  0.17725550784E+03  0.00000000000E+00 0.  1.
        -13    1    5    5    0    0  0.42320952711E+03  0.46821364415E+03  0.12693937191E+04  0.14176356142E+04  0.00000000000E+00 0. -1.
          2    1    6    6  503    0  0.60993651986E+02 -0.31663283534E+03  0.56230237795E+03  0.64819791904E+03  0.00000000000E+00 0. -1.
         -2    1    6    6    0  503 -0.77233465534E+01 -0.34165271295E+01  0.15157661952E+01  0.85802264987E+01  0.00000000000E+00 0.  1.
<mgrwt>
<rscale>  0 0.23810013E+04</rscale>
<asrwt>0</asrwt>
<pdfrwt beam="1">  1        2 0.35403137E+00 0.23810013E+04</pdfrwt>
<pdfrwt beam="2">  1       -1 0.94752535E-01 0.23810013E+04</pdfrwt>
<totfact> 0.49947727E+00</totfact>
</mgrwt>
</event>
<event>
12    7  0.1735955E-007  0.1589919E+04  0.7818608E-02  0.8826765E-01
         -1   -1    0    0    0  501 -0.00000000000E+00  0.00000000000E+00  0.34139606693E+03  0.34139606693E+03  0.00000000000E+00 0.  1.
          2   -1    0    0  501    0  0.00000000000E+00 -0.00000000000E+00 -0.18511057132E+04  0.18511057132E+04  0.00000000000E+00 0. -1.
         24    2    1    2    0    0 -0.25420985423E+03  0.29479229059E+03 -0.10396026092E+04  0.11129321223E+04  0.79493265814E+02 0.  0.
        254    2    1    2    0    0  0.25420985423E+03 -0.29479229059E+03 -0.47010703713E+03  0.10795696578E+04  0.89047452248E+03 0.  0.
         23    2    4    4    0    0  0.12525422947E+03 -0.60451893338E+03 -0.32063182285E+03  0.70155389804E+03  0.90781844132E+02 0.  0.
         23    2    4    4    0    0  0.12895562476E+03  0.30972664279E+03 -0.14947521428E+03  0.37801575979E+03  0.89403179772E+02 0.  0.
          2    1    3    3  502    0 -0.22883758537E+03  0.26046051379E+03 -0.98073224509E+03  0.10402125053E+04  0.00000000000E+00 0. -1.
         -1    1    3    3    0  502 -0.25372268860E+02  0.34331776792E+02 -0.58870364080E+02  0.72719616966E+02  0.00000000000E+00 0.  1.
         13    1    5    5    0    0 -0.62933371729E+01 -0.16372508527E+03 -0.90955295151E+02  0.18739897374E+03  0.00000000000E+00 0. -1.
        -13    1    5    5    0    0  0.13154756664E+03 -0.44079384810E+03 -0.22967652770E+03  0.51415492431E+03  0.00000000000E+00 0.  1.
          1    1    6    6  503    0  0.75556033026E+02  0.10472134946E+03 -0.22637988914E+02  0.13110207360E+03  0.00000000000E+00 0. -1.
         -1    1    6    6    0  503  0.53399591739E+02  0.20500529333E+03 -0.12683722536E+03  0.24691368619E+03  0.00000000000E+00 0.  1.
<mgrwt>
<rscale>  0 0.15899185E+04</rscale>
<asrwt>0</asrwt>
<pdfrwt beam="1">  1        2 0.28478549E+00 0.15899185E+04</pdfrwt>
<pdfrwt beam="2">  1       -1 0.52522473E-01 0.15899185E+04</pdfrwt>
<totfact> 0.32276977E+01</totfact>
</mgrwt>
</event>
<event>
12    7  0.1735955E-007  0.2730860E+04  0.7818608E-02  0.8325061E-01
          2   -1    0    0  501    0  0.00000000000E+00  0.00000000000E+00  0.16011298342E+04  0.16011298342E+04  0.00000000000E+00 0. -1.
         -1   -1    0    0    0  501 -0.00000000000E+00 -0.00000000000E+00 -0.11644272628E+04  0.11644272628E+04  0.00000000000E+00 0.  1.
         24    2    1    2    0    0  0.81529368599E+03  0.53874842011E+03  0.91239368430E+03  0.13392923050E+04  0.79296837005E+02 0.  0.
        254    2    1    2    0    0 -0.81529368599E+03 -0.53874842011E+03 -0.47569111288E+03  0.14262647921E+04  0.92357759158E+03 0.  0.
         23    2    4    4    0    0 -0.99928145332E+03 -0.35842777671E+03 -0.42624538683E+03  0.11475062735E+04  0.89730840566E+02 0.  0.
         23    2    4    4    0    0  0.18398776733E+03 -0.18032064340E+03 -0.49445726050E+02  0.27875851863E+03  0.94310120980E+02 0.  0.
          2    1    3    3  502    0  0.74550382691E+03  0.46678481726E+03  0.80437765635E+03  0.11919259354E+04  0.00000000000E+00 0. -1.
         -1    1    3    3    0  502  0.69789859085E+02  0.71963602852E+02  0.10801602795E+03  0.14736636950E+03  0.00000000000E+00 0.  1.
         13    1    5    5    0    0 -0.77050346136E+03 -0.24352796304E+03 -0.34784733063E+03  0.87976088693E+03  0.00000000000E+00 0. -1.
        -13    1    5    5    0    0 -0.22877799196E+03 -0.11489981366E+03 -0.78398056206E+02  0.26774538652E+03  0.00000000000E+00 0.  1.
          2    1    6    6  503    0  0.11336131954E+03 -0.61166356989E+02 -0.55168587213E+02  0.14012738851E+03  0.00000000000E+00 0. -1.
         -2    1    6    6    0  503  0.70626447787E+02 -0.11915428641E+03  0.57228611630E+01  0.13863113012E+03  0.00000000000E+00 0.  1.
<mgrwt>
<rscale>  0 0.27308601E+04</rscale>
<asrwt>0</asrwt>
<pdfrwt beam="1">  1        2 0.24632767E+00 0.27308601E+04</pdfrwt>
<pdfrwt beam="2">  1       -1 0.17914265E+00 0.27308601E+04</pdfrwt>
<totfact> 0.23421644E+00</totfact>
</mgrwt>
</event>
<event>
12    7  0.1735955E-007  0.2114298E+04  0.7818608E-02  0.8554971E-01
         -1   -1    0    0    0  501 -0.00000000000E+00  0.00000000000E+00  0.20442151337E+04  0.20442151337E+04  0.00000000000E+00 0.  1.
          2   -1    0    0  501    0  0.00000000000E+00 -0.00000000000E+00 -0.54669598397E+03  0.54669598397E+03  0.00000000000E+00 0. -1.
         24    2    1    2    0    0  0.46362303174E+03 -0.47603111732E+03 -0.86617835555E+01  0.66970363089E+03  0.82921568476E+02 0.  0.
        254    2    1    2    0    0 -0.46362303174E+03  0.47603111732E+03  0.15061809332E+04  0.19212074867E+04  0.99040661511E+03 0.  0.
         23    2    4    4    0    0 -0.41092926689E+03  0.74955228549E+03  0.89000476187E+03  0.12373885263E+04  0.91271012783E+02 0.  0.
         23    2    4    4    0    0 -0.52693764850E+02 -0.27352116818E+03  0.61617617138E+03  0.68381896045E+03  0.10170955811E+03 0.  0.
          2    1    3    3  502    0  0.36671189468E+03 -0.33296635735E+03 -0.26217558109E+02  0.49601569449E+03  0.00000000000E+00 0. -1.
         -1    1    3    3    0  502  0.96911137060E+02 -0.14306475997E+03  0.17555774554E+02  0.17368793640E+03  0.00000000000E+00 0.  1.
         13    1    5    5    0    0 -0.18667153535E+03  0.41552051010E+03  0.51252133501E+03  0.68569794754E+03  0.00000000000E+00 0. -1.
        -13    1    5    5    0    0 -0.22425773154E+03  0.33403177539E+03  0.37748342686E+03  0.55169057875E+03  0.00000000000E+00 0.  1.
          1    1    6    6  503    0 -0.77171269190E+02 -0.22594647912E+03  0.45262084950E+03  0.51173513619E+03  0.00000000000E+00 0. -1.
         -1    1    6    6    0  503  0.24477504340E+02 -0.47574689057E+02  0.16355532188E+03  0.17208382426E+03  0.00000000000E+00 0.  1.
<mgrwt>
<rscale>  0 0.21142982E+04</rscale>
<asrwt>0</asrwt>
<pdfrwt beam="1">  1        2 0.84107075E-01 0.21142982E+04</pdfrwt>
<pdfrwt beam="2">  1       -1 0.31449463E+00 0.21142982E+04</pdfrwt>
<totfact> 0.15504486E+00</totfact>
</mgrwt>
</event>
<event>
12    7  0.1735955E-007  0.3982162E+04  0.7818608E-02  0.8008155E-01
         -1   -1    0    0    0  501 -0.00000000000E+00  0.00000000000E+00  0.26209279829E+04  0.26209279829E+04  0.00000000000E+00 0.  1.
          2   -1    0    0  501    0  0.00000000000E+00 -0.00000000000E+00 -0.15125951723E+04  0.15125951723E+04  0.00000000000E+00 0. -1.
         24    2    1    2    0    0  0.17121416594E+04  0.45975318304E+03 -0.15078829106E+03  0.17809312912E+04  0.78594556808E+02 0.  0.
        254    2    1    2    0    0 -0.17121416594E+04 -0.45975318304E+03  0.12591211017E+04  0.23525918639E+04  0.89805371692E+03 0.  0.
         23    2    4    4    0    0 -0.12365811305E+04  0.60873328043E+02  0.58334018215E+03  0.13715521006E+04  0.89615524978E+02 0.  0.
         23    2    4    4    0    0 -0.47556052889E+03 -0.52062651108E+03  0.67578091957E+03  0.98103976332E+03  0.92462885984E+02 0.  0.
          2    1    3    3  502    0  0.72530077872E+03  0.19468733522E+03 -0.24921434916E+02  0.75138901777E+03  0.00000000000E+00 0. -1.
         -1    1    3    3    0  502  0.98684088063E+03  0.26506584781E+03 -0.12586685615E+03  0.10295422735E+04  0.00000000000E+00 0.  1.
         13    1    5    5    0    0 -0.91676941045E+03  0.79466442757E+02  0.45352012617E+03  0.10258954978E+04  0.00000000000E+00 0.  1.
        -13    1    5    5    0    0 -0.31981172002E+03 -0.18593114714E+02  0.12982005598E+03  0.34565660287E+03  0.00000000000E+00 0. -1.
          3    1    6    6  503    0 -0.15679267860E+03 -0.14722542905E+03  0.15356313720E+03  0.26427430471E+03  0.00000000000E+00 0. -1.
         -3    1    6    6    0  503 -0.31876785029E+03 -0.37340108203E+03  0.52221778236E+03  0.71676545861E+03  0.00000000000E+00 0.  1.
<mgrwt>
<rscale>  0 0.39821617E+04</rscale>
<asrwt>0</asrwt>
<pdfrwt beam="1">  1        2 0.23270695E+00 0.39821617E+04</pdfrwt>
<pdfrwt beam="2">  1       -1 0.40321969E+00 0.39821617E+04</pdfrwt>
<totfact> 0.76348944E-02</totfact>
</mgrwt>
</event>
<event>
12    7  0.1735955E-007  0.1559161E+04  0.7818608E-02  0.8846038E-01
         -1   -1    0    0    0  501 -0.00000000000E+00  0.00000000000E+00  0.33244646987E+03  0.33244646987E+03  0.00000000000E+00 0.  1.
          2   -1    0    0  501    0  0.00000000000E+00 -0.00000000000E+00 -0.18281000649E+04  0.18281000649E+04  0.00000000000E+00 0. -1.
         24    2    1    2    0    0  0.40543600364E+03  0.28781881259E+03 -0.59079015793E+03  0.77837528463E+03  0.98066564586E+02 0.  0.
        254    2    1    2    0    0 -0.40543600364E+03 -0.28781881259E+03 -0.90486343711E+03  0.13821712501E+04  0.91891321840E+03 0.  0.
         23    2    4    4    0    0 -0.24394366028E+03 -0.49581558010E+03 -0.94629327141E+03  0.11005566226E+04  0.10204080122E+03 0.  0.
         23    2    4    4    0    0 -0.16149234336E+03  0.20799676750E+03  0.41429834301E+02  0.28161462757E+03  0.90818142640E+02 0.  0.
          2    1    3    3  502    0  0.37005444831E+03  0.28758119637E+03 -0.52558961366E+03  0.70419292896E+03  0.00000000000E+00 0. -1.
         -1    1    3    3    0  502  0.35381555331E+02  0.23761622437E+00 -0.65200544273E+02  0.74182355669E+02  0.00000000000E+00 0.  1.
         13    1    5    5    0    0  0.88795519733E+01 -0.11185180167E+02 -0.36370277083E+02  0.39073670850E+02  0.00000000000E+00 0.  1.
        -13    1    5    5    0    0 -0.25282321225E+03 -0.48463039993E+03 -0.90992299433E+03  0.10614829517E+04  0.00000000000E+00 0. -1.
          4    1    6    6  503    0 -0.11765809853E+03  0.16047974483E+03 -0.96474347600E+01  0.19922411914E+03  0.00000000000E+00 0. -1.
         -4    1    6    6    0  503 -0.43834244831E+02  0.47517022675E+02  0.51077269061E+02  0.82390508425E+02  0.00000000000E+00 0.  1.
<mgrwt>
<rscale>  0 0.15591606E+04</rscale>
<asrwt>0</asrwt>
<pdfrwt beam="1">  1        2 0.28124616E+00 0.15591606E+04</pdfrwt>
<pdfrwt beam="2">  1       -1 0.51145611E-01 0.15591606E+04</pdfrwt>
<totfact> 0.35061976E+01</totfact>
</mgrwt>
</event>
<event>
12    7  0.1735955E-007  0.1159572E+04  0.7818608E-02  0.9148998E-01
          2   -1    0    0  501    0  0.00000000000E+00  0.00000000000E+00  0.97721915126E+03  0.97721915126E+03  0.00000000000E+00 0. -1.
         -1   -1    0    0    0  501 -0.00000000000E+00 -0.00000000000E+00 -0.34398792090E+03  0.34398792090E+03  0.00000000000E+00 0.  1.
         24    2    1    2    0    0 -0.30027302090E+02 -0.50466883187E+02 -0.11271420471E+03  0.15055971910E+03  0.80716738671E+02 0.  0.
        254    2    1    2    0    0  0.30027302090E+02  0.50466883187E+02  0.74594543507E+03  0.11706473531E+04  0.90029555589E+03 0.  0.
         23    2    4    4    0    0  0.24818835680E+03 -0.96918939990E+02  0.83265690850E+03  0.87894792567E+03  0.90780985786E+02 0.  0.
         23    2    4    4    0    0 -0.21816105471E+03  0.14738582318E+03 -0.86711473435E+02  0.29169942739E+03  0.90845196087E+02 0.  0.
          2    1    3    3  502    0 -0.42437674122E+02 -0.20628248972E+01 -0.24151518088E+02  0.48872356781E+02  0.00000000000E+00 0. -1.
         -1    1    3    3    0  502  0.12410372032E+02 -0.48404058289E+02 -0.88562686625E+02  0.10168736232E+03  0.00000000000E+00 0.  1.
         13    1    5    5    0    0  0.21122454322E+03 -0.69970011397E+02  0.56189364788E+03  0.60434764969E+03  0.00000000000E+00 0. -1.
        -13    1    5    5    0    0  0.36963813578E+02 -0.26948928593E+02  0.27076326062E+03  0.27460027598E+03  0.00000000000E+00 0.  1.
          2    1    6    6  503    0 -0.11696149952E+03  0.55931919612E+02 -0.85484448743E+02  0.15529315174E+03  0.00000000000E+00 0.  1.
         -2    1    6    6    0  503 -0.10119955519E+03  0.91453903565E+02 -0.12270246927E+01  0.13640627565E+03  0.00000000000E+00 0. -1.
<mgrwt>
<rscale>  0 0.11595716E+04</rscale>
<asrwt>0</asrwt>
<pdfrwt beam="1">  1        2 0.15034141E+00 0.11595716E+04</pdfrwt>
<pdfrwt beam="2">  1       -1 0.52921219E-01 0.11595716E+04</pdfrwt>
<totfact> 0.10583511E+02</totfact>
</mgrwt>
</event>
<event>
12    7  0.1735955E-007  0.2736228E+04  0.7818608E-02  0.8323345E-01
         -1   -1    0    0    0  501 -0.00000000000E+00  0.00000000000E+00  0.96730051713E+03  0.96730051713E+03  0.00000000000E+00 0.  1.
          2   -1    0    0  501    0  0.00000000000E+00 -0.00000000000E+00 -0.19350099948E+04  0.19350099948E+04  0.00000000000E+00 0. -1.
         24    2    1    2    0    0 -0.85463067592E+03 -0.81391529522E+03 -0.50875150513E+03  0.12876602874E+04  0.79932608492E+02 0.  0.
        254    2    1    2    0    0  0.85463067592E+03  0.81391529522E+03 -0.45895797259E+03  0.16146502245E+04  0.10017989953E+04 0.  0.
         23    2    4    4    0    0 -0.92474724736E+02 -0.67051194438E+02  0.12512983564E+03  0.19241687768E+03  0.91210425150E+02 0.  0.
         23    2    4    4    0    0  0.94710540065E+03  0.88096648965E+03 -0.58408780823E+03  0.14222333469E+04  0.92078929889E+02 0.  0.
          4    1    3    3  502    0 -0.78246891262E+03 -0.76238936919E+03 -0.48845949043E+03  0.11966987187E+04  0.00000000000E+00 0. -1.
         -3    1    3    3    0  502 -0.72161763291E+02 -0.51525926027E+02 -0.20292014700E+02  0.90961568779E+02  0.00000000000E+00 0.  1.
         13    1    5    5    0    0  0.16019349388E+02  0.34487340737E+01  0.18840128452E+02  0.24969256329E+02  0.00000000000E+00 0. -1.
        -13    1    5    5    0    0 -0.10849407412E+03 -0.70499928512E+02  0.10628970719E+03  0.16744762135E+03  0.00000000000E+00 0.  1.
          1    1    6    6  503    0  0.18531778579E+03  0.17710547462E+03 -0.15676429670E+03  0.30047308629E+03  0.00000000000E+00 0. -1.
         -1    1    6    6    0  503  0.76178761487E+03  0.70386101504E+03 -0.42732351153E+03  0.11217602606E+04  0.00000000000E+00 0.  1.
<mgrwt>
<rscale>  0 0.27362282E+04</rscale>
<asrwt>0</asrwt>
<pdfrwt beam="1">  1        2 0.29769384E+00 0.27362282E+04</pdfrwt>
<pdfrwt beam="2">  1       -1 0.14881546E+00 0.27362282E+04</pdfrwt>
<totfact> 0.25757610E+00</totfact>
</mgrwt>
</event>
<event>
12    7  0.1735955E-007  0.2094672E+04  0.7818608E-02  0.8563594E-01
          2   -1    0    0  501    0  0.00000000000E+00  0.00000000000E+00  0.24725796463E+04  0.24725796463E+04  0.00000000000E+00 0. -1.
         -1   -1    0    0    0  501 -0.00000000000E+00 -0.00000000000E+00 -0.44363107429E+03  0.44363107429E+03  0.00000000000E+00 0.  1.
         24    2    1    2    0    0  0.75516466153E+03  0.28169459539E+03  0.12036456309E+04  0.14508437254E+04  0.80988886179E+02 0.  0.
        254    2    1    2    0    0 -0.75516466153E+03 -0.28169459539E+03  0.82530294117E+03  0.14653669952E+04  0.90363154822E+03 0.  0.
         23    2    4    4    0    0 -0.40400546876E+03 -0.50485871631E+03  0.15394156782E+03  0.67029457213E+03  0.86568267251E+02 0.  0.
         23    2    4    4    0    0 -0.35115919277E+03  0.22316412092E+03  0.67136137335E+03  0.79507242311E+03  0.91099181317E+02 0.  0.
          4    1    3    3  502    0  0.56906078766E+03  0.18331033565E+03  0.93008819237E+03  0.11056658197E+04  0.00000000000E+00 0. -1.
         -3    1    3    3    0  502  0.18610387388E+03  0.98384259739E+02  0.27355743852E+03  0.34517790573E+03  0.00000000000E+00 0.  1.
         13    1    5    5    0    0 -0.73079926819E+02 -0.44995406364E+02  0.20520133062E+02  0.88240229820E+02  0.00000000000E+00 0. -1.
        -13    1    5    5    0    0 -0.33092554195E+03 -0.45986330995E+03  0.13342143476E+03  0.58205434231E+03  0.00000000000E+00 0.  1.
          3    1    6    6  503    0 -0.63287755076E+02  0.68737602737E+01  0.13222882955E+03  0.14675507449E+03  0.00000000000E+00 0. -1.
         -3    1    6    6    0  503 -0.28787143769E+03  0.21629036065E+03  0.53913254379E+03  0.64831734862E+03  0.00000000000E+00 0.  1.
<mgrwt>
<rscale>  0 0.20946724E+04</rscale>
<asrwt>0</asrwt>
<pdfrwt beam="1">  1        2 0.38039686E+00 0.20946724E+04</pdfrwt>
<pdfrwt beam="2">  1       -1 0.68250936E-01 0.20946724E+04</pdfrwt>
<totfact> 0.82360462E+00</totfact>
</mgrwt>
</event>
<event>
12    7  0.1735955E-007  0.1878088E+04  0.7818608E-02  0.8665841E-01
         -1   -1    0    0    0  501 -0.00000000000E+00  0.00000000000E+00  0.59387815189E+03  0.59387815189E+03  0.00000000000E+00 0.  1.
          2   -1    0    0  501    0  0.00000000000E+00 -0.00000000000E+00 -0.14848223992E+04  0.14848223992E+04  0.00000000000E+00 0. -1.
         24    2    1    2    0    0 -0.52898044949E+03 -0.33859307651E+02 -0.88745085029E+03  0.10371858545E+04  0.84963029665E+02 0.  0.
        254    2    1    2    0    0  0.52898044949E+03  0.33859307651E+02 -0.34933970631E+01  0.10415146966E+04  0.89653437795E+03 0.  0.
         23    2    4    4    0    0 -0.10076869911E+03  0.31550491293E+03 -0.32533109305E+02  0.34501775722E+03  0.91000927441E+02 0.  0.
         23    2    4    4    0    0  0.62974914860E+03 -0.28164560528E+03  0.29039712241E+02  0.69649693943E+03  0.91413590937E+02 0.  0.
          4    1    3    3  502    0 -0.34621365366E+03 -0.18348124787E+02 -0.49915678454E+03  0.60774833873E+03  0.00000000000E+00 0. -1.
         -3    1    3    3    0  502 -0.18276679583E+03 -0.15511182864E+02 -0.38829406575E+03  0.42943751576E+03  0.00000000000E+00 0.  1.
         13    1    5    5    0    0 -0.71199285680E+02  0.28975336891E+03 -0.49217407447E+02  0.30240487144E+03  0.00000000000E+00 0. -1.
        -13    1    5    5    0    0 -0.29569413431E+02  0.25751544018E+02  0.16684298143E+02  0.42612885779E+02  0.00000000000E+00 0.  1.
          3    1    6    6  503    0  0.47623666841E+03 -0.25164074144E+03  0.81736830887E+01  0.53869400979E+03  0.00000000000E+00 0. -1.
         -3    1    6    6    0  503  0.15351248019E+03 -0.30004863834E+02  0.20866029153E+02  0.15780292964E+03  0.00000000000E+00 0.  1.
<mgrwt>
<rscale>  0 0.18780879E+04</rscale>
<asrwt>0</asrwt>
<pdfrwt beam="1">  1        2 0.22843422E+00 0.18780879E+04</pdfrwt>
<pdfrwt beam="2">  1       -1 0.91365869E-01 0.18780879E+04</pdfrwt>
<totfact> 0.16171006E+01</totfact>
</mgrwt>
</event>
<event>
12    7  0.1735955E-007  0.1547220E+04  0.7818608E-02  0.8853645E-01
          2   -1    0    0  501    0  0.00000000000E+00  0.00000000000E+00  0.18376068540E+04  0.18376068540E+04  0.00000000000E+00 0. -1.
         -1   -1    0    0    0  501 -0.00000000000E+00 -0.00000000000E+00 -0.32568031998E+03  0.32568031998E+03  0.00000000000E+00 0.  1.
         24    2    1    2    0    0  0.18098438332E+03 -0.20286320922E+03  0.11200517165E+04  0.11554170417E+04  0.81017676786E+02 0.  0.
        254    2    1    2    0    0 -0.18098438332E+03  0.20286320922E+03  0.39187481748E+03  0.10078701323E+04  0.88787808975E+03 0.  0.
         23    2    4    4    0    0 -0.41282221469E+03 -0.12198133368E+03  0.40571752580E+03  0.59826243970E+03  0.89496420647E+02 0.  0.
         23    2    4    4    0    0  0.23183783137E+03  0.32484454290E+03 -0.13842708318E+02  0.40960769255E+03  0.91181599672E+02 0.  0.
          4    1    3    3  502    0  0.13712455128E+03 -0.19089485387E+03  0.86599515190E+03  0.89732468533E+03  0.00000000000E+00 0. -1.
         -1    1    3    3    0  502  0.43859832035E+02 -0.11968355350E+02  0.25405656464E+03  0.25809235640E+03  0.00000000000E+00 0.  1.
         13    1    5    5    0    0 -0.25382724522E+03 -0.82504859273E+02  0.30782354518E+03  0.40741951007E+03  0.00000000000E+00 0.  1.
        -13    1    5    5    0    0 -0.15899496947E+03 -0.39476474410E+02  0.97893980621E+02  0.19084292963E+03  0.00000000000E+00 0. -1.
          4    1    6    6  503    0  0.58570639851E+02  0.10076976714E+03  0.36036289612E+02  0.12199868848E+03  0.00000000000E+00 0. -1.
         -4    1    6    6    0  503  0.17326719152E+03  0.22407477576E+03 -0.49878997931E+02  0.28760900407E+03  0.00000000000E+00 0.  1.
<mgrwt>
<rscale>  0 0.15472199E+04</rscale>
<asrwt>0</asrwt>
<pdfrwt beam="1">  1        2 0.28270874E+00 0.15472199E+04</pdfrwt>
<pdfrwt beam="2">  1       -1 0.50104665E-01 0.15472199E+04</pdfrwt>
<totfact> 0.36059973E+01</totfact>
</mgrwt>
</event>
<event>
12    7  0.1735955E-007  0.1936604E+04  0.7818608E-02  0.8636848E-01
         -1   -1    0    0    0  501 -0.00000000000E+00  0.00000000000E+00  0.49327140613E+03  0.49327140613E+03  0.00000000000E+00 0.  1.
          2   -1    0    0  501    0  0.00000000000E+00 -0.00000000000E+00 -0.19007971527E+04  0.19007971527E+04  0.00000000000E+00 0. -1.
         24    2    1    2    0    0 -0.23090263969E+03  0.14122089400E+02  0.34074348195E+03  0.41832780788E+03  0.73325111199E+02 0.  0.
        254    2    1    2    0    0  0.23090263969E+03 -0.14122089400E+02 -0.17482692285E+04  0.19757407509E+04  0.89083711035E+03 0.  0.
         23    2    4    4    0    0  0.68305924449E+02  0.30737025344E+03 -0.20170961506E+03  0.38515720004E+03  0.92288287006E+02 0.  0.
         23    2    4    4    0    0  0.16259671524E+03 -0.32149234284E+03 -0.15465596134E+04  0.15905835509E+04  0.91183201063E+02 0.  0.
          4    1    3    3  502    0 -0.86642772578E+02 -0.55787582404E+01  0.18922357780E+03  0.20819139026E+03  0.00000000000E+00 0. -1.
         -3    1    3    3    0  502 -0.14425986711E+03  0.19700847641E+02  0.15151990414E+03  0.21013641762E+03  0.00000000000E+00 0.  1.
         13    1    5    5    0    0  0.21967619939E+02  0.20417492849E+02  0.22383570201E+01  0.30074251149E+02  0.00000000000E+00 0.  1.
        -13    1    5    5    0    0  0.46338304510E+02  0.28695276060E+03 -0.20394797208E+03  0.35508294889E+03  0.00000000000E+00 0. -1.
          4    1    6    6  503    0  0.12340558280E+03 -0.18027596100E+03 -0.77376324482E+03  0.80401363111E+03  0.00000000000E+00 0. -1.
         -4    1    6    6    0  503  0.39191132445E+02 -0.14121638185E+03 -0.77279636861E+03  0.78656991978E+03  0.00000000000E+00 0.  1.
<mgrwt>
<rscale>  0 0.19366041E+04</rscale>
<asrwt>0</asrwt>
<pdfrwt beam="1">  1        2 0.29243033E+00 0.19366041E+04</pdfrwt>
<pdfrwt beam="2">  1       -1 0.75887909E-01 0.19366041E+04</pdfrwt>
<totfact> 0.14069433E+01</totfact>
</mgrwt>
</event>
<event>
12    7  0.1735955E-007  0.1305690E+04  0.7818608E-02  0.9025065E-01
         -3   -1    0    0    0  501 -0.00000000000E+00  0.00000000000E+00  0.18228222510E+03  0.18228222510E+03  0.00000000000E+00 0.  1.
          2   -1    0    0  501    0  0.00000000000E+00 -0.00000000000E+00 -0.23381689859E+04  0.23381689859E+04  0.00000000000E+00 0. -1.
         24    2    1    2    0    0 -0.10852366401E+03  0.27934982166E+03 -0.42725510700E+03  0.52825215636E+03  0.81790621284E+02 0.  0.
        254    2    1    2    0    0  0.10852366401E+03 -0.27934982166E+03 -0.17286316538E+04  0.19921990546E+04  0.94386226233E+03 0.  0.
         23    2    4    4    0    0 -0.22361376164E+03 -0.46503095276E+03 -0.59644383187E+03  0.79420212976E+03  0.93567499328E+02 0.  0.
         23    2    4    4    0    0  0.33213742565E+03  0.18568113110E+03 -0.11321878219E+04  0.11979969248E+04  0.92491166658E+02 0.  0.
          2    1    3    3  502    0 -0.69326180192E+02  0.88801294510E+02 -0.19583304607E+03  0.22592558753E+03  0.00000000000E+00 0. -1.
         -1    1    3    3    0  502 -0.39197483819E+02  0.19054852715E+03 -0.23142206093E+03  0.30232656883E+03  0.00000000000E+00 0.  1.
         13    1    5    5    0    0 -0.72088026458E+02 -0.19763799376E+03 -0.30596245561E+03  0.37130914934E+03  0.00000000000E+00 0.  1.
        -13    1    5    5    0    0 -0.15152573518E+03 -0.26739295900E+03 -0.29048137625E+03  0.42289298043E+03  0.00000000000E+00 0. -1.
          1    1    6    6  503    0  0.26778818241E+03  0.18320254494E+03 -0.99229445879E+03  0.10439932835E+04  0.00000000000E+00 0.  1.
         -1    1    6    6    0  503  0.64349243245E+02  0.24785861566E+01 -0.13989336311E+03  0.15400364132E+03  0.00000000000E+00 0. -1.
<mgrwt>
<rscale>  0 0.13056901E+04</rscale>
<asrwt>0</asrwt>
<pdfrwt beam="1">  1        2 0.35971826E+00 0.13056901E+04</pdfrwt>
<pdfrwt beam="2">  1       -3 0.28043423E-01 0.13056901E+04</pdfrwt>
<totfact> 0.33865765E+01</totfact>
</mgrwt>
</event>
<event>
12    7  0.1735955E-007  0.2658599E+04  0.7818608E-02  0.8348564E-01
         -1   -1    0    0    0  501 -0.00000000000E+00  0.00000000000E+00  0.11218894197E+04  0.11218894197E+04  0.00000000000E+00 0.  1.
          2   -1    0    0  501    0  0.00000000000E+00 -0.00000000000E+00 -0.15750552274E+04  0.15750552274E+04  0.00000000000E+00 0. -1.
         24    2    1    2    0    0  0.98096263302E+03 -0.33798739345E+03  0.37648306660E+03  0.11065305006E+04  0.78403341190E+02 0.  0.
        254    2    1    2    0    0 -0.98096263302E+03  0.33798739345E+03 -0.82964887440E+03  0.15904141465E+04  0.87440078736E+03 0.  0.
         23    2    4    4    0    0 -0.11324316152E+04  0.31088470013E+03 -0.73163830782E+03  0.13866410694E+04  0.91805130119E+02 0.  0.
         23    2    4    4    0    0  0.15146898222E+03  0.27102693324E+02 -0.98010566581E+02  0.20377307706E+03  0.90774375304E+02 0.  0.
          4    1    3    3  502    0  0.79341554332E+03 -0.26948150883E+03  0.33607822733E+03  0.90281619551E+03  0.00000000000E+00 0. -1.
         -3    1    3    3    0  502  0.18754708969E+03 -0.68505884625E+02  0.40404839277E+02  0.20371430514E+03  0.00000000000E+00 0.  1.
         13    1    5    5    0    0 -0.47464038347E+03  0.17723221256E+03 -0.30976881418E+03  0.59384465059E+03  0.00000000000E+00 0. -1.
        -13    1    5    5    0    0 -0.65779123176E+03  0.13365248757E+03 -0.42186949364E+03  0.79279641881E+03  0.00000000000E+00 0.  1.
          3    1    6    6  503    0 -0.63193337293E+01 -0.12203953854E+02 -0.17707933674E+02  0.22415204292E+02  0.00000000000E+00 0. -1.
         -3    1    6    6    0  503  0.15778831595E+03  0.39306647177E+02 -0.80302632907E+02  0.18135787276E+03  0.00000000000E+00 0.  1.
<mgrwt>
<rscale>  0 0.26585995E+04</rscale>
<asrwt>0</asrwt>
<pdfrwt beam="1">  1        2 0.24231619E+00 0.26585995E+04</pdfrwt>
<pdfrwt beam="2">  1       -1 0.17259837E+00 0.26585995E+04</pdfrwt>
<totfact> 0.27187941E+00</totfact>
</mgrwt>
</event>
<event>
12    7  0.1735955E-007  0.1172545E+04  0.7818608E-02  0.9137233E-01
          2   -1    0    0  501    0  0.00000000000E+00  0.00000000000E+00  0.22585260823E+04  0.22585260823E+04  0.00000000000E+00 0. -1.
         -1   -1    0    0    0  501 -0.00000000000E+00 -0.00000000000E+00 -0.15218565085E+03  0.15218565085E+03  0.00000000000E+00 0.  1.
         24    2    1    2    0    0  0.21351845980E+02  0.17199828729E+03  0.72102883542E+03  0.74592126613E+03  0.80477584506E+02 0.  0.
        254    2    1    2    0    0 -0.21351845980E+02 -0.17199828729E+03  0.13853115961E+04  0.16647904671E+04  0.90686259646E+03 0.  0.
         23    2    4    4    0    0  0.12760977333E+03  0.25179534649E+03  0.12177212878E+03  0.32050753890E+03  0.90617219034E+02 0.  0.
         23    2    4    4    0    0 -0.14896161931E+03 -0.42379363377E+03  0.12635394673E+04  0.13442829282E+04  0.93669618788E+02 0.  0.
          4    1    3    3  502    0  0.33208680215E+02  0.16728135952E+03  0.58662581098E+03  0.61091383336E+03  0.00000000000E+00 0. -1.
         -3    1    3    3    0  502 -0.11856834235E+02  0.47169277720E+01  0.13440302444E+03  0.13500743277E+03  0.00000000000E+00 0.  1.
         13    1    5    5    0    0  0.35044686961E+02  0.91328237596E+01  0.87141790264E+01  0.37248831795E+02  0.00000000000E+00 0. -1.
        -13    1    5    5    0    0  0.92565086368E+02  0.24266252273E+03  0.11305794975E+03  0.28325870711E+03  0.00000000000E+00 0.  1.
          3    1    6    6  503    0 -0.26366293157E+02 -0.19395955761E+03  0.61446223697E+03  0.64488706924E+03  0.00000000000E+00 0. -1.
         -3    1    6    6    0  503 -0.12259532615E+03 -0.22983407617E+03  0.64907723032E+03  0.69939585893E+03  0.00000000000E+00 0.  1.
<mgrwt>
<rscale>  0 0.11725447E+04</rscale>
<asrwt>0</asrwt>
<pdfrwt beam="1">  1        2 0.34746553E+00 0.11725447E+04</pdfrwt>
<pdfrwt beam="2">  1       -1 0.23413179E-01 0.11725447E+04</pdfrwt>
<totfact> 0.84775984E+01</totfact>
</mgrwt>
</event>
<event>
12    7  0.1735955E-007  0.2908503E+04  0.7818608E-02  0.8270352E-01
          2   -1    0    0  501    0  0.00000000000E+00  0.00000000000E+00  0.23687487590E+04  0.23687487590E+04  0.00000000000E+00 0. -1.
         -1   -1    0    0    0  501 -0.00000000000E+00 -0.00000000000E+00 -0.89281211617E+03  0.89281211617E+03  0.00000000000E+00 0.  1.
         24    2    1    2    0    0  0.81851850682E+03  0.97728040333E+03  0.10262313733E+04  0.16382886617E+04  0.76087941653E+02 0.  0.
        254    2    1    2    0    0 -0.81851850682E+03 -0.97728040333E+03  0.44970526954E+03  0.16232722134E+04  0.89873706762E+03 0.  0.
         23    2    4    4    0    0 -0.27702374800E+03 -0.39532420591E+03  0.63488933379E+03  0.80209047806E+03  0.85095734971E+02 0.  0.
         23    2    4    4    0    0 -0.54149475881E+03 -0.58195619742E+03 -0.18518406425E+03  0.82118173537E+03  0.90314535429E+02 0.  0.
          4    1    3    3  502    0  0.62251890815E+03  0.72999236286E+03  0.81208731199E+03  0.12569424979E+04  0.00000000000E+00 0. -1.
         -3    1    3    3    0  502  0.19599959866E+03  0.24728804047E+03  0.21414406127E+03  0.38134616376E+03  0.00000000000E+00 0.  1.
         13    1    5    5    0    0 -0.26393305412E+03 -0.35101058500E+03  0.60288848390E+03  0.74588444940E+03  0.00000000000E+00 0. -1.
        -13    1    5    5    0    0 -0.13090693888E+02 -0.44313620913E+02  0.32000849881E+02  0.56206028663E+02  0.00000000000E+00 0.  1.
          1    1    6    6  503    0 -0.45482350627E+03 -0.50873553563E+03 -0.18751011852E+03  0.70769789573E+03  0.00000000000E+00 0. -1.
         -1    1    6    6    0  503 -0.86671252548E+02 -0.73220661792E+02  0.23260542776E+01  0.11348383964E+03  0.00000000000E+00 0.  1.
<mgrwt>
<rscale>  0 0.29085031E+04</rscale>
<asrwt>0</asrwt>
<pdfrwt beam="1">  1        2 0.36442288E+00 0.29085031E+04</pdfrwt>
<pdfrwt beam="2">  1       -1 0.13735571E+00 0.29085031E+04</pdfrwt>
<totfact> 0.17891858E+00</totfact>
</mgrwt>
</event>
<event>
12    7  0.1735955E-007  0.1630515E+04  0.7818608E-02  0.8802018E-01
         -1   -1    0    0    0  501 -0.00000000000E+00  0.00000000000E+00  0.28053682136E+03  0.28053682136E+03  0.00000000000E+00 0.  1.
          2   -1    0    0  501    0  0.00000000000E+00 -0.00000000000E+00 -0.23691880567E+04  0.23691880567E+04  0.00000000000E+00 0. -1.
         24    2    1    2    0    0 -0.19895230600E+03 -0.34921683973E+03 -0.15698667218E+04  0.16219435698E+04  0.68447048096E+02 0.  0.
        254    2    1    2    0    0  0.19895230600E+03  0.34921683973E+03 -0.51878451360E+03  0.10277813083E+04  0.79098838477E+03 0.  0.
         23    2    4    4    0    0  0.12646492696E+03  0.52512535532E+03 -0.96518166335E+02  0.55597933023E+03  0.89706424875E+02 0.  0.
         23    2    4    4    0    0  0.72487379034E+02 -0.17590851559E+03 -0.42226634727E+03  0.47180197802E+03  0.89944496548E+02 0.  0.
          2    1    3    3  502    0 -0.16621156027E+03 -0.23041076934E+03 -0.11257154947E+04  0.11610128252E+04  0.00000000000E+00 0. -1.
         -1    1    3    3    0  502 -0.32740745726E+02 -0.11880607039E+03 -0.44415122708E+03  0.46093074459E+03  0.00000000000E+00 0.  1.
         13    1    5    5    0    0  0.91754766782E+02  0.31388539657E+03 -0.99704365747E+02  0.34188293311E+03  0.00000000000E+00 0. -1.
        -13    1    5    5    0    0  0.34710160183E+02  0.21123995875E+03  0.31861994119E+01  0.21409639712E+03  0.00000000000E+00 0.  1.
          2    1    6    6  503    0  0.82601660230E+01 -0.11982988449E+03 -0.19449900108E+03  0.22859854107E+03  0.00000000000E+00 0. -1.
         -2    1    6    6    0  503  0.64227213011E+02 -0.56078631101E+02 -0.22776734619E+03  0.24320343695E+03  0.00000000000E+00 0.  1.
<mgrwt>
<rscale>  0 0.16305146E+04</rscale>
<asrwt>0</asrwt>
<pdfrwt beam="1">  1        2 0.36449048E+00 0.16305146E+04</pdfrwt>
<pdfrwt beam="2">  1       -1 0.43159510E-01 0.16305146E+04</pdfrwt>
<totfact> 0.23911438E+01</totfact>
</mgrwt>
</event>
<event>
12    7  0.1735955E-007  0.1845041E+04  0.7818608E-02  0.8682707E-01
         -1   -1    0    0    0  501 -0.00000000000E+00  0.00000000000E+00  0.90841557560E+03  0.90841557560E+03  0.00000000000E+00 0.  1.
          2   -1    0    0  501    0  0.00000000000E+00 -0.00000000000E+00 -0.93684470676E+03  0.93684470676E+03  0.00000000000E+00 0. -1.
         24    2    1    2    0    0 -0.38858395436E+03  0.62241816461E+03  0.19365891953E+02  0.73830332573E+03  0.79466356383E+02 0.  0.
        254    2    1    2    0    0  0.38858395436E+03 -0.62241816461E+03 -0.47795023112E+02  0.11069569566E+04  0.82744635981E+03 0.  0.
         23    2    4    4    0    0  0.53028075128E+03 -0.52665903221E+03 -0.28128509673E+03  0.80377728458E+03  0.91483365561E+02 0.  0.
         23    2    4    4    0    0 -0.14169679691E+03 -0.95759132395E+02  0.23349007361E+03  0.30317967205E+03  0.90291225350E+02 0.  0.
          2    1    3    3  502    0 -0.14635928889E+03  0.18276621820E+03  0.31104304756E+02  0.23620332287E+03  0.00000000000E+00 0. -1.
         -1    1    3    3    0  502 -0.24222466548E+03  0.43965194641E+03 -0.11738412804E+02  0.50210000287E+03  0.00000000000E+00 0.  1.
         13    1    5    5    0    0  0.10948449942E+03 -0.15460347841E+03 -0.47014742583E+02  0.19519087368E+03  0.00000000000E+00 0. -1.
        -13    1    5    5    0    0  0.42079625186E+03 -0.37205555381E+03 -0.23427035414E+03  0.60858641089E+03  0.00000000000E+00 0.  1.
          3    1    6    6  503    0 -0.19103463894E+02  0.13165632740E+02  0.60575213478E+02  0.64866267860E+02  0.00000000000E+00 0. -1.
         -3    1    6    6    0  503 -0.12259333302E+03 -0.10892476513E+03  0.17291486014E+03  0.23831340419E+03  0.00000000000E+00 0.  1.
<mgrwt>
<rscale>  0 0.18450413E+04</rscale>
<asrwt>0</asrwt>
<pdfrwt beam="1">  1        2 0.14412996E+00 0.18450413E+04</pdfrwt>
<pdfrwt beam="2">  1       -1 0.13975624E+00 0.18450413E+04</pdfrwt>
<totfact> 0.12520127E+01</totfact>
</mgrwt>
</event>
<event>
12    7  0.1735955E-007  0.2117813E+04  0.7818608E-02  0.8553437E-01
          2   -1    0    0  501    0  0.00000000000E+00  0.00000000000E+00  0.13861822493E+04  0.13861822493E+04  0.00000000000E+00 0. -1.
         -1   -1    0    0    0  501 -0.00000000000E+00 -0.00000000000E+00 -0.80890011685E+03  0.80890011685E+03  0.00000000000E+00 0.  1.
         24    2    1    2    0    0 -0.24597014856E+03 -0.80845394972E+03  0.12604551387E+03  0.85861328439E+03  0.85030569564E+02 0.  0.
        254    2    1    2    0    0  0.24597014856E+03  0.80845394972E+03  0.45123661855E+03  0.13364690817E+04  0.93189914569E+03 0.  0.
         23    2    4    4    0    0  0.38035884006E+03  0.94977733571E+03  0.28927766837E+03  0.10670177062E+04  0.89974336410E+02 0.  0.
         23    2    4    4    0    0 -0.13438869150E+03 -0.14132338599E+03  0.16195895017E+03  0.26945137558E+03  0.91327555689E+02 0.  0.
          4    1    3    3  502    0 -0.22694507352E+02 -0.40832648003E+02  0.24516782523E+02  0.52758112478E+02  0.00000000000E+00 0. -1.
         -3    1    3    3    0  502 -0.22327564121E+03 -0.76762130172E+03  0.10152873135E+03  0.80585517191E+03  0.00000000000E+00 0.  1.
         13    1    5    5    0    0  0.21536810949E+03  0.62159678476E+03  0.15447749376E+03  0.67574350273E+03  0.00000000000E+00 0. -1.
        -13    1    5    5    0    0  0.16499073056E+03  0.32818055095E+03  0.13480017461E+03  0.39127420343E+03  0.00000000000E+00 0.  1.
          4    1    6    6  503    0 -0.40301025039E+02 -0.21476967498E+01  0.71154721644E+01  0.40980668182E+02  0.00000000000E+00 0. -1.
         -4    1    6    6    0  503 -0.94087666461E+02 -0.13917568924E+03  0.15484347801E+03  0.22847070739E+03  0.00000000000E+00 0.  1.
<mgrwt>
<rscale>  0 0.21178130E+04</rscale>
<asrwt>0</asrwt>
<pdfrwt beam="1">  1        2 0.21325881E+00 0.21178130E+04</pdfrwt>
<pdfrwt beam="2">  1       -1 0.12444617E+00 0.21178130E+04</pdfrwt>
<totfact> 0.87452556E+00</totfact>
</mgrwt>
</event>
<event>
12    7  0.1735955E-007  0.1342347E+04  0.7818608E-02  0.8996642E-01
         -1   -1    0    0    0  501 -0.00000000000E+00  0.00000000000E+00  0.40932348564E+03  0.40932348564E+03  0.00000000000E+00 0.  1.
          2   -1    0    0  501    0  0.00000000000E+00 -0.00000000000E+00 -0.11005326009E+04  0.11005326009E+04  0.00000000000E+00 0. -1.
         24    2    1    2    0    0 -0.10109586406E+03  0.15817730997E+03 -0.54509615803E+03  0.58194855411E+03  0.79333870538E+02 0.  0.
        254    2    1    2    0    0  0.10109586406E+03 -0.15817730997E+03 -0.14611295724E+03  0.92790753244E+03  0.89689629132E+03 0.  0.
         23    2    4    4    0    0  0.37340795575E+03 -0.93140360504E+02  0.22428007546E+03  0.45427505945E+03  0.89194446116E+02 0.  0.
         23    2    4    4    0    0 -0.27231209169E+03 -0.65036949462E+02 -0.37039303269E+03  0.47363247300E+03  0.93557686663E+02 0.  0.
          4    1    3    3  502    0 -0.74554674983E+02  0.10494543434E+03 -0.46303699434E+03  0.48059879513E+03  0.00000000000E+00 0. -1.
         -3    1    3    3    0  502 -0.26541189079E+02  0.53231875626E+02 -0.82059163684E+02  0.10134975898E+03  0.00000000000E+00 0.  1.
         13    1    5    5    0    0 -0.11365780335E+00  0.40896672296E+01  0.14323079706E+02  0.14895935970E+02  0.00000000000E+00 0.  1.
        -13    1    5    5    0    0  0.37352161355E+03 -0.97230027734E+02  0.20995699575E+03  0.43937912348E+03  0.00000000000E+00 0. -1.
          1    1    6    6  503    0 -0.19621679087E+02 -0.34714946488E+02 -0.38879638044E+02  0.55693483050E+02  0.00000000000E+00 0.  1.
         -1    1    6    6    0  503 -0.25269041260E+03 -0.30322002974E+02 -0.33151339465E+03  0.41793898994E+03  0.00000000000E+00 0. -1.
<mgrwt>
<rscale>  0 0.13423470E+04</rscale>
<asrwt>0</asrwt>
<pdfrwt beam="1">  1        2 0.16931271E+00 0.13423470E+04</pdfrwt>
<pdfrwt beam="2">  1       -1 0.62972844E-01 0.13423470E+04</pdfrwt>
<totfact> 0.62062609E+01</totfact>
</mgrwt>
</event>
<event>
12    7  0.1804264E-007  0.1603539E+04  0.7818608E-02  0.8818377E-01
         -1   -1    0    0    0  501 -0.00000000000E+00  0.00000000000E+00  0.50022684321E+03  0.50022684321E+03  0.00000000000E+00 0.  1.
          2   -1    0    0  501    0  0.00000000000E+00 -0.00000000000E+00 -0.12850850768E+04  0.12850850768E+04  0.00000000000E+00 0. -1.
         24    2    1    2    0    0  0.36599249775E+03  0.25044579988E+02  0.18259621261E+03  0.41732964110E+03  0.79024762493E+02 0.  0.
        254    2    1    2    0    0 -0.36599249775E+03 -0.25044579988E+02 -0.96745444615E+03  0.13679822789E+04  0.89489087071E+03 0.  0.
         23    2    4    4    0    0  0.81222955254E+02 -0.17285494356E+03 -0.84721014391E+03  0.87322895488E+03  0.91037243644E+02 0.  0.
         23    2    4    4    0    0 -0.44721545300E+03  0.14781036357E+03 -0.12024430225E+03  0.49475332397E+03  0.92046696717E+02 0.  0.
          2    1    3    3  502    0  0.79345912791E+02  0.26320007171E+02  0.71155115230E+02  0.10977962961E+03  0.00000000000E+00 0. -1.
         -1    1    3    3    0  502  0.28664658496E+03 -0.12754271831E+01  0.11144109738E+03  0.30755001149E+03  0.00000000000E+00 0.  1.
         13    1    5    5    0    0 -0.18933592556E+02 -0.14310818998E+02 -0.81166252794E+02  0.84565010850E+02  0.00000000000E+00 0. -1.
        -13    1    5    5    0    0  0.10015654781E+03 -0.15854412456E+03 -0.76604389111E+03  0.78866394403E+03  0.00000000000E+00 0.  1.
          2    1    6    6  503    0 -0.41728181517E+03  0.14291705340E+03 -0.13465380892E+03  0.46117355266E+03  0.00000000000E+00 0.  1.
         -2    1    6    6    0  503 -0.29933637837E+02  0.48933101727E+01  0.14409506674E+02  0.33579771309E+02  0.00000000000E+00 0. -1.
<mgrwt>
<rscale>  0 0.16035387E+04</rscale>
<asrwt>0</asrwt>
<pdfrwt beam="1">  1        2 0.19770540E+00 0.16035387E+04</pdfrwt>
<pdfrwt beam="2">  1       -1 0.76957976E-01 0.16035387E+04</pdfrwt>
<totfact> 0.31222026E+01</totfact>
</mgrwt>
</event>
<event>
12    7  0.1735955E-007  0.4728124E+04  0.7818608E-02  0.7871872E-01
         -1   -1    0    0    0  501 -0.00000000000E+00  0.00000000000E+00  0.24334939011E+04  0.24334939011E+04  0.00000000000E+00 0.  1.
          2   -1    0    0  501    0  0.00000000000E+00 -0.00000000000E+00 -0.22966109413E+04  0.22966109413E+04  0.00000000000E+00 0. -1.
         24    2    1    2    0    0 -0.63344571566E+03  0.90377351315E+03  0.20584350915E+04  0.23371229378E+04  0.83237988651E+02 0.  0.
        254    2    1    2    0    0  0.63344571566E+03 -0.90377351315E+03 -0.19215521317E+04  0.23929819045E+04  0.90329384074E+03 0.  0.
         23    2    4    4    0    0  0.21592364020E+03  0.15587114485E+03 -0.43929950797E+03  0.52145189542E+03  0.89494074316E+02 0.  0.
         23    2    4    4    0    0  0.41752207545E+03 -0.10596446580E+04 -0.14822526237E+04  0.18715300091E+04  0.91543703465E+02 0.  0.
          4    1    3    3  502    0 -0.22870776268E+02  0.67732790357E+02  0.13796907256E+03  0.15539069560E+03  0.00000000000E+00 0. -1.
         -3    1    3    3    0  502 -0.61057493939E+03  0.83604072280E+03  0.19204660189E+04  0.21817322422E+04  0.00000000000E+00 0.  1.
         13    1    5    5    0    0  0.50744655879E+02  0.55647724079E+02 -0.20114971785E+03  0.21478570317E+03  0.00000000000E+00 0.  1.
        -13    1    5    5    0    0  0.16517898433E+03  0.10022342077E+03 -0.23814979012E+03  0.30666619225E+03  0.00000000000E+00 0. -1.
          2    1    6    6  503    0  0.52831722123E+02 -0.16137480648E+03 -0.27491007266E+03  0.32312314538E+03  0.00000000000E+00 0. -1.
         -2    1    6    6    0  503  0.36469035333E+03 -0.89826985153E+03 -0.12073425511E+04  0.15484068637E+04  0.00000000000E+00 0.  1.
<mgrwt>
<rscale>  0 0.47281238E+04</rscale>
<asrwt>0</asrwt>
<pdfrwt beam="1">  1        2 0.35332476E+00 0.47281238E+04</pdfrwt>
<pdfrwt beam="2">  1       -1 0.37438368E+00 0.47281238E+04</pdfrwt>
<totfact> 0.41153133E-02</totfact>
</mgrwt>
</event>
<event>
12    7  0.1735955E-007  0.1166371E+04  0.7818608E-02  0.9142812E-01
         -1   -1    0    0    0  501 -0.00000000000E+00  0.00000000000E+00  0.21832651533E+03  0.21832651533E+03  0.00000000000E+00 0.  1.
          2   -1    0    0  501    0  0.00000000000E+00 -0.00000000000E+00 -0.15577833425E+04  0.15577833425E+04  0.00000000000E+00 0. -1.
         24    2    1    2    0    0  0.11885627773E+03  0.18895296845E+03 -0.18592359839E+03  0.30124398624E+03  0.79688868539E+02 0.  0.
        254    2    1    2    0    0 -0.11885627773E+03 -0.18895296845E+03 -0.11535332288E+04  0.14748658716E+04  0.89149334840E+03 0.  0.
         23    2    4    4    0    0  0.31411740992E+03 -0.24038895061E+03 -0.27496681600E+03  0.48977478673E+03  0.88408127583E+02 0.  0.
         23    2    4    4    0    0 -0.43297368764E+03  0.51435982162E+02 -0.87856641281E+03  0.98509108488E+03  0.91725837949E+02 0.  0.
          2    1    3    3  502    0  0.11637426204E+03  0.16724930353E+03 -0.19048669263E+03  0.27892737131E+03  0.00000000000E+00 0. -1.
         -1    1    3    3    0  502  0.24820156845E+01  0.21703664924E+02  0.45630942445E+01  0.22316614934E+02  0.00000000000E+00 0.  1.
         13    1    5    5    0    0  0.97497570124E+02 -0.37681549186E+02 -0.42347380638E+02  0.11277843755E+03  0.00000000000E+00 0.  1.
        -13    1    5    5    0    0  0.21661983979E+03 -0.20270740143E+03 -0.23261943537E+03  0.37699634918E+03  0.00000000000E+00 0. -1.
          1    1    6    6  503    0 -0.29776006676E+03  0.27669914689E+01 -0.52736237080E+03  0.60562346696E+03  0.00000000000E+00 0. -1.
         -1    1    6    6    0  503 -0.13521362088E+03  0.48668990693E+02 -0.35120404201E+03  0.37946761792E+03  0.00000000000E+00 0.  1.
<mgrwt>
<rscale>  0 0.11663711E+04</rscale>
<asrwt>0</asrwt>
<pdfrwt beam="1">  1        2 0.23965897E+00 0.11663711E+04</pdfrwt>
<pdfrwt beam="2">  1       -1 0.33588695E-01 0.11663711E+04</pdfrwt>
<totfact> 0.11078120E+02</totfact>
</mgrwt>
</event>
<event>
12    7  0.1735955E-007  0.1328219E+04  0.7818608E-02  0.9007482E-01
         -1   -1    0    0    0  501 -0.00000000000E+00  0.00000000000E+00  0.11390324318E+03  0.11390324318E+03  0.00000000000E+00 0.  1.
          2   -1    0    0  501    0  0.00000000000E+00 -0.00000000000E+00 -0.38720718175E+04  0.38720718175E+04  0.00000000000E+00 0. -1.
         24    2    1    2    0    0 -0.27950004269E+02  0.34424555765E+03 -0.79159227402E+03  0.86757040017E+03  0.82303488701E+02 0.  0.
        254    2    1    2    0    0  0.27950004269E+02 -0.34424555765E+03 -0.29665763003E+04  0.31184046605E+04  0.89698744389E+03 0.  0.
         23    2    4    4    0    0  0.34571209877E+03 -0.69393124589E+02 -0.52430342824E+03  0.63863340513E+03  0.92877770766E+02 0.  0.
         23    2    4    4    0    0 -0.31776209450E+03 -0.27485243306E+03 -0.24422728721E+04  0.24797712554E+04  0.89733431824E+02 0.  0.
          4    1    3    3  502    0 -0.33489856392E+02  0.11739194405E+03 -0.20471216655E+03  0.23834745676E+03  0.00000000000E+00 0. -1.
         -3    1    3    3    0  502  0.55398521224E+01  0.22685361360E+03 -0.58688010748E+03  0.62922294341E+03  0.00000000000E+00 0.  1.
         13    1    5    5    0    0  0.48957134506E+02 -0.31127690921E+02 -0.14029442266E+03  0.15181653135E+03  0.00000000000E+00 0. -1.
        -13    1    5    5    0    0  0.29675496426E+03 -0.38265433667E+02 -0.38400900559E+03  0.48681687378E+03  0.00000000000E+00 0.  1.
          4    1    6    6  503    0 -0.20250200814E+03 -0.22687455116E+03 -0.16672537088E+04  0.16947607663E+04  0.00000000000E+00 0.  1.
         -4    1    6    6    0  503 -0.11526008635E+03 -0.47977881908E+02 -0.77501916325E+03  0.78501048914E+03  0.00000000000E+00 0. -1.
<mgrwt>
<rscale>  0 0.13282192E+04</rscale>
<asrwt>0</asrwt>
<pdfrwt beam="1">  1        2 0.59570325E+00 0.13282192E+04</pdfrwt>
<pdfrwt beam="2">  1       -1 0.17523579E-01 0.13282192E+04</pdfrwt>
<totfact> 0.12630721E+01</totfact>
</mgrwt>
</event>
<event>
12    7  0.1735955E-007  0.3814902E+04  0.7818608E-02  0.8042964E-01
          2   -1    0    0  501    0  0.00000000000E+00  0.00000000000E+00  0.35808555935E+04  0.35808555935E+04  0.00000000000E+00 0. -1.
         -1   -1    0    0    0  501 -0.00000000000E+00 -0.00000000000E+00 -0.10160615905E+04  0.10160615905E+04  0.00000000000E+00 0.  1.
         24    2    1    2    0    0 -0.14904251622E+04  0.16008785128E+03  0.24188995845E+04  0.28469295637E+04  0.83291394916E+02 0.  0.
        254    2    1    2    0    0  0.14904251622E+04 -0.16008785128E+03  0.14589441854E+03  0.17499876203E+04  0.89116564438E+03 0.  0.
         23    2    4    4    0    0  0.11717744767E+03  0.24729541130E+03 -0.75921041739E+02  0.29780561281E+03  0.89658260930E+02 0.  0.
         23    2    4    4    0    0  0.13732477145E+04 -0.40738326258E+03  0.22181546028E+03  0.14521820075E+04  0.88657072337E+02 0.  0.
          4    1    3    3  502    0 -0.12197395613E+04  0.14956682288E+03  0.19306963224E+04  0.22886072448E+04  0.00000000000E+00 0. -1.
         -3    1    3    3    0  502 -0.27068560088E+03  0.10521028402E+02  0.48820326213E+03  0.55832231884E+03  0.00000000000E+00 0.  1.
         13    1    5    5    0    0  0.95093342272E+02  0.11617237555E+03 -0.12973075996E+02  0.15068863688E+03  0.00000000000E+00 0.  1.
        -13    1    5    5    0    0  0.22084105395E+02  0.13112303575E+03 -0.62947965743E+02  0.14711697593E+03  0.00000000000E+00 0. -1.
          3    1    6    6  503    0  0.46599893385E+02 -0.69958568766E+00 -0.20811736245E+01  0.46651589119E+02  0.00000000000E+00 0. -1.
         -3    1    6    6    0  503  0.13266478211E+04 -0.40668367689E+03  0.22389663390E+03  0.14055304184E+04  0.00000000000E+00 0.  1.
<mgrwt>
<rscale>  0 0.38149023E+04</rscale>
<asrwt>0</asrwt>
<pdfrwt beam="1">  1        2 0.55090085E+00 0.38149023E+04</pdfrwt>
<pdfrwt beam="2">  1       -1 0.15631717E+00 0.38149023E+04</pdfrwt>
<totfact> 0.20149884E-01</totfact>
</mgrwt>
</event>
<event>
12    7  0.1735955E-007  0.2360782E+04  0.7818608E-02  0.8454334E-01
          2   -1    0    0  501    0  0.00000000000E+00  0.00000000000E+00  0.13873905271E+04  0.13873905271E+04  0.00000000000E+00 0. -1.
         -1   -1    0    0    0  501 -0.00000000000E+00 -0.00000000000E+00 -0.10042756065E+04  0.10042756065E+04  0.00000000000E+00 0.  1.
         24    2    1    2    0    0  0.83520548651E+03 -0.53010158013E+03  0.34886944150E+03  0.10522311250E+04  0.83093702140E+02 0.  0.
        254    2    1    2    0    0 -0.83520548651E+03  0.53010158013E+03  0.34245479154E+02  0.13394350085E+04  0.90240650448E+03 0.  0.
         23    2    4    4    0    0 -0.30816428230E+03 -0.18240720357E+03  0.22001591175E+03  0.42940757119E+03  0.88012771650E+02 0.  0.
         23    2    4    4    0    0 -0.52704120421E+03  0.71250878370E+03 -0.18577043259E+03  0.91002743736E+03  0.90543278755E+02 0.  0.
          4    1    3    3  502    0  0.69777974931E+03 -0.44973810023E+03  0.32380020799E+03  0.89107099158E+03  0.00000000000E+00 0. -1.
         -3    1    3    3    0  502  0.13742573721E+03 -0.80363479902E+02  0.25069233508E+02  0.16116013346E+03  0.00000000000E+00 0.  1.
         13    1    5    5    0    0 -0.96881455601E+02 -0.14762366863E+02  0.44620461246E+02  0.10767975426E+03  0.00000000000E+00 0.  1.
        -13    1    5    5    0    0 -0.21128282670E+03 -0.16764483671E+03  0.17539545050E+03  0.32172781693E+03  0.00000000000E+00 0. -1.
          1    1    6    6  503    0 -0.42484925483E+03  0.56820149369E+03 -0.18501537346E+03  0.73319882377E+03  0.00000000000E+00 0. -1.
         -1    1    6    6    0  503 -0.10219194939E+03  0.14430729001E+03 -0.75505913406E+00  0.17682861359E+03  0.00000000000E+00 0.  1.
<mgrwt>
<rscale>  0 0.23607816E+04</rscale>
<asrwt>0</asrwt>
<pdfrwt beam="1">  1        2 0.21344470E+00 0.23607816E+04</pdfrwt>
<pdfrwt beam="2">  1       -1 0.15450394E+00 0.23607816E+04</pdfrwt>
<totfact> 0.48691576E+00</totfact>
</mgrwt>
</event>
<event>
12    7  0.1735955E-007  0.1704576E+04  0.7818608E-02  0.8758759E-01
         -1   -1    0    0    0  501 -0.00000000000E+00  0.00000000000E+00  0.33654900799E+03  0.33654900799E+03  0.00000000000E+00 0.  1.
          2   -1    0    0  501    0  0.00000000000E+00 -0.00000000000E+00 -0.21583620825E+04  0.21583620825E+04  0.00000000000E+00 0. -1.
         24    2    1    2    0    0  0.78284172134E+02 -0.29603531365E+03 -0.14410246320E+04  0.14753761042E+04  0.80108304376E+02 0.  0.
        254    2    1    2    0    0 -0.78284172134E+02  0.29603531365E+03 -0.38078844250E+03  0.10195349862E+04  0.89481083569E+03 0.  0.
         23    2    4    4    0    0  0.11500750715E+03 -0.33214456630E+02 -0.56508174723E+03  0.58478212642E+03  0.91229531927E+02 0.  0.
         23    2    4    4    0    0 -0.19329167928E+03  0.32924977028E+03  0.18429330473E+03  0.43475285981E+03  0.96327267349E+02 0.  0.
          2    1    3    3  502    0  0.58103352768E+02 -0.83519618424E+02 -0.52976492800E+03  0.53944638770E+03  0.00000000000E+00 0. -1.
         -3    1    3    3    0  502  0.20180819366E+02 -0.21251569523E+03 -0.91125970399E+03  0.93592971654E+03  0.00000000000E+00 0.  1.
         13    1    5    5    0    0  0.34270191012E+02 -0.50954747063E+02 -0.32809738974E+03  0.33379444183E+03  0.00000000000E+00 0. -1.
        -13    1    5    5    0    0  0.80737316133E+02  0.17740290433E+02 -0.23698435748E+03  0.25098768459E+03  0.00000000000E+00 0.  1.
          3    1    6    6  503    0 -0.12760709685E+03  0.26664774689E+03  0.17503541948E+03  0.34354328717E+03  0.00000000000E+00 0. -1.
         -3    1    6    6    0  503 -0.65684582432E+02  0.62602023389E+02  0.92578852552E+01  0.91209572640E+02  0.00000000000E+00 0.  1.
<mgrwt>
<rscale>  0 0.17045757E+04</rscale>
<asrwt>0</asrwt>
<pdfrwt beam="1">  1        2 0.33205570E+00 0.17045757E+04</pdfrwt>
<pdfrwt beam="2">  1       -1 0.51776772E-01 0.17045757E+04</pdfrwt>
<totfact> 0.22173933E+01</totfact>
</mgrwt>
</event>
<event>
12    7  0.1735955E-007  0.1893302E+04  0.7818608E-02  0.8658197E-01
         -1   -1    0    0    0  501 -0.00000000000E+00  0.00000000000E+00  0.58268946611E+03  0.58268946611E+03  0.00000000000E+00 0.  1.
          2   -1    0    0  501    0  0.00000000000E+00 -0.00000000000E+00 -0.15379520378E+04  0.15379520378E+04  0.00000000000E+00 0. -1.
         24    2    1    2    0    0  0.22660429642E+03 -0.51134199350E+03  0.15648551108E+03  0.58625067489E+03  0.79887403021E+02 0.  0.
        254    2    1    2    0    0 -0.22660429642E+03  0.51134199350E+03 -0.11117480827E+04  0.15343908290E+04  0.89752508331E+03 0.  0.
         23    2    4    4    0    0 -0.41622527465E+03  0.56691916587E+03 -0.11111182455E+04  0.13180693493E+04  0.89901246751E+02 0.  0.
         23    2    4    4    0    0  0.18962097823E+03 -0.55577172373E+02 -0.62983722793E+00  0.21632147970E+03  0.88032087393E+02 0.  0.
          4    1    3    3  502    0  0.10860756204E+03 -0.31513762530E+03  0.64501619056E+02  0.33951109595E+03  0.00000000000E+00 0. -1.
         -3    1    3    3    0  502  0.11799673438E+03 -0.19620436820E+03  0.91983892023E+02  0.24673957894E+03  0.00000000000E+00 0.  1.
         13    1    5    5    0    0 -0.19137209246E+03  0.23927077074E+03 -0.40533039489E+03  0.50810088420E+03  0.00000000000E+00 0.  1.
        -13    1    5    5    0    0 -0.22485318219E+03  0.32764839514E+03 -0.70578785062E+03  0.80996846510E+03  0.00000000000E+00 0. -1.
          1    1    6    6  503    0  0.34610485369E+02 -0.57070948552E+01  0.35088289984E+02  0.49614964710E+02  0.00000000000E+00 0. -1.
         -1    1    6    6    0  503  0.15501049286E+03 -0.49870077518E+02 -0.35718127212E+02  0.16670651499E+03  0.00000000000E+00 0.  1.
<mgrwt>
<rscale>  0 0.18933024E+04</rscale>
<asrwt>0</asrwt>
<pdfrwt beam="1">  1        2 0.23660800E+00 0.18933024E+04</pdfrwt>
<pdfrwt beam="2">  1       -1 0.89644535E-01 0.18933024E+04</pdfrwt>
<totfact> 0.15719902E+01</totfact>
</mgrwt>
</event>
<event>
12    7  0.1735955E-007  0.2576512E+04  0.7818608E-02  0.8376223E-01
          2   -1    0    0  501    0  0.00000000000E+00  0.00000000000E+00  0.26635197016E+04  0.26635197016E+04  0.00000000000E+00 0. -1.
         -1   -1    0    0    0  501 -0.00000000000E+00 -0.00000000000E+00 -0.62308673770E+03  0.62308673770E+03  0.00000000000E+00 0.  1.
         24    2    1    2    0    0 -0.45147999725E+03 -0.18079225693E+03 -0.40705712557E+03  0.63907216745E+03  0.78725495534E+02 0.  0.
        254    2    1    2    0    0  0.45147999725E+03  0.18079225693E+03  0.24474900895E+04  0.26475342718E+04  0.88470896600E+03 0.  0.
         23    2    4    4    0    0  0.41498439885E+03  0.13058115582E+03  0.24907721291E+04  0.25301685873E+04  0.92432633352E+02 0.  0.
         23    2    4    4    0    0  0.36495598391E+02  0.50211101113E+02 -0.43282039644E+02  0.11736568450E+03  0.89712237552E+02 0.  0.
          2    1    3    3  502    0 -0.13260459399E+03 -0.16832918332E+02 -0.12267280877E+03  0.18142751582E+03  0.00000000000E+00 0. -1.
         -1    1    3    3    0  502 -0.31887540326E+03 -0.16395933860E+03 -0.28438431680E+03  0.45764465162E+03  0.00000000000E+00 0.  1.
         13    1    5    5    0    0  0.25500451738E+02  0.76781393685E+01  0.64815298871E+02  0.70073174830E+02  0.00000000000E+00 0.  1.
        -13    1    5    5    0    0  0.38948394712E+03  0.12290301645E+03  0.24259568302E+04  0.24600954125E+04  0.00000000000E+00 0. -1.
          3    1    6    6  503    0  0.14640829295E+02  0.45156662441E+02 -0.68674293636E+02  0.83484349741E+02  0.00000000000E+00 0. -1.
         -3    1    6    6    0  503  0.21854769096E+02  0.50544386722E+01  0.25392253992E+02  0.33881334763E+02  0.00000000000E+00 0.  1.
<mgrwt>
<rscale>  0 0.25765122E+04</rscale>
<asrwt>0</asrwt>
<pdfrwt beam="1">  1        2 0.40977226E+00 0.25765122E+04</pdfrwt>
<pdfrwt beam="2">  1       -1 0.95859499E-01 0.25765122E+04</pdfrwt>
<totfact> 0.29512878E+00</totfact>
</mgrwt>
</event>
<event>
12    7  0.1735955E-007  0.2963020E+04  0.7818608E-02  0.8254370E-01
          2   -1    0    0  501    0  0.00000000000E+00  0.00000000000E+00  0.15421425480E+04  0.15421425480E+04  0.00000000000E+00 0. -1.
         -1   -1    0    0    0  501 -0.00000000000E+00 -0.00000000000E+00 -0.14232614727E+04  0.14232614727E+04  0.00000000000E+00 0.  1.
         24    2    1    2    0    0  0.82554958596E+03  0.33955124922E+02 -0.10053637238E+04  0.13038180677E+04  0.80624233715E+02 0.  0.
        254    2    1    2    0    0 -0.82554958596E+03 -0.33955124922E+02  0.11242447991E+04  0.16615859530E+04  0.90236159131E+03 0.  0.
         23    2    4    4    0    0  0.17028790785E+03 -0.28432217375E+02  0.70503179289E+02  0.20889189629E+03  0.94121004554E+02 0.  0.
         23    2    4    4    0    0 -0.99583749381E+03 -0.55229075464E+01  0.10537416198E+04  0.14526940567E+04  0.90696220744E+02 0.  0.
          4    1    3    3  502    0  0.31821680681E+03 -0.39959853146E+01 -0.33228646886E+03  0.46010020803E+03  0.00000000000E+00 0. -1.
         -3    1    3    3    0  502  0.50733277915E+03  0.37951110236E+02 -0.67307725497E+03  0.84371785967E+03  0.00000000000E+00 0.  1.
         13    1    5    5    0    0  0.33562962688E+02 -0.24174208412E+02  0.58402935808E+02  0.71566526587E+02  0.00000000000E+00 0.  1.
        -13    1    5    5    0    0  0.13672494517E+03 -0.42580089632E+01  0.12100243482E+02  0.13732536970E+03  0.00000000000E+00 0. -1.
          4    1    6    6  503    0 -0.27709527341E+03 -0.23286587095E+02  0.34521610092E+03  0.44328118844E+03  0.00000000000E+00 0. -1.
         -4    1    6    6    0  503 -0.71874222040E+03  0.17763679548E+02  0.70852551889E+03  0.10094128683E+04  0.00000000000E+00 0.  1.
<mgrwt>
<rscale>  0 0.29630201E+04</rscale>
<asrwt>0</asrwt>
<pdfrwt beam="1">  1        2 0.23725270E+00 0.29630201E+04</pdfrwt>
<pdfrwt beam="2">  1       -1 0.21896330E+00 0.29630201E+04</pdfrwt>
<totfact> 0.13138448E+00</totfact>
</mgrwt>
</event>
<event>
12    7  0.1735955E-007  0.1199179E+04  0.7818608E-02  0.9113576E-01
          2   -1    0    0  501    0  0.00000000000E+00  0.00000000000E+00  0.94490511998E+03  0.94490511998E+03  0.00000000000E+00 0. -1.
         -1   -1    0    0    0  501 -0.00000000000E+00 -0.00000000000E+00 -0.38046924740E+03  0.38046924740E+03  0.00000000000E+00 0.  1.
         24    2    1    2    0    0 -0.87431753056E+02 -0.16909057691E+03  0.31130094798E+03  0.37338810169E+03  0.79211486715E+02 0.  0.
        254    2    1    2    0    0  0.87431753056E+02  0.16909057691E+03  0.25313492460E+03  0.95198626570E+03  0.89775532601E+03 0.  0.
         23    2    4    4    0    0 -0.27033799680E+02  0.33968199871E+03 -0.22823197375E+03  0.42052506251E+03  0.92934427330E+02 0.  0.
         23    2    4    4    0    0  0.11446555274E+03 -0.17059142180E+03  0.48136689835E+03  0.53146120319E+03  0.92374908463E+02 0.  0.
          2    1    3    3  502    0 -0.37436472694E+02 -0.13963667287E+03  0.25131348359E+03  0.28992819272E+03  0.00000000000E+00 0. -1.
         -1    1    3    3    0  502 -0.49995280362E+02 -0.29453904042E+02  0.59987464389E+02  0.83459908972E+02  0.00000000000E+00 0.  1.
         13    1    5    5    0    0  0.33786599684E+02  0.13623551390E+03 -0.10179907155E+03  0.17339175452E+03  0.00000000000E+00 0.  1.
        -13    1    5    5    0    0 -0.60820399364E+02  0.20344648481E+03 -0.12643290220E+03  0.24713330799E+03  0.00000000000E+00 0. -1.
          4    1    6    6  503    0  0.89314521807E+02 -0.54052683614E+02  0.25679397499E+03  0.27720375539E+03  0.00000000000E+00 0. -1.
         -4    1    6    6    0  503  0.25151030929E+02 -0.11653873818E+03  0.22457292335E+03  0.25425744779E+03  0.00000000000E+00 0.  1.
<mgrwt>
<rscale>  0 0.11991786E+04</rscale>
<asrwt>0</asrwt>
<pdfrwt beam="1">  1        2 0.14537002E+00 0.11991786E+04</pdfrwt>
<pdfrwt beam="2">  1       -1 0.58533731E-01 0.11991786E+04</pdfrwt>
<totfact> 0.91110521E+01</totfact>
</mgrwt>
</event>
<event>
12    7  0.1735955E-007  0.1791094E+04  0.7818608E-02  0.8711050E-01
          2   -1    0    0  501    0  0.00000000000E+00  0.00000000000E+00  0.11793272705E+04  0.11793272705E+04  0.00000000000E+00 0. -1.
         -1   -1    0    0    0  501 -0.00000000000E+00 -0.00000000000E+00 -0.68005220854E+03  0.68005220854E+03  0.00000000000E+00 0.  1.
         24    2    1    2    0    0  0.13451060311E+03  0.53000154510E+03 -0.20080768596E+03  0.58803728182E+03  0.80432443217E+02 0.  0.
        254    2    1    2    0    0 -0.13451060311E+03 -0.53000154510E+03  0.70008274792E+03  0.12713421972E+04  0.90950557356E+03 0.  0.
         23    2    4    4    0    0  0.10630593201E+03 -0.69136815136E+03  0.65884861778E+03  0.96515250066E+03  0.90260603135E+02 0.  0.
         23    2    4    4    0    0 -0.24081653512E+03  0.16136660627E+03  0.41234130142E+02  0.30618969656E+03  0.89554964045E+02 0.  0.
          4    1    3    3  502    0  0.21426869190E+02  0.20128834887E+03 -0.10185663369E+03  0.22660733426E+03  0.00000000000E+00 0. -1.
         -3    1    3    3    0  502  0.11308373392E+03  0.32871319623E+03 -0.98951052265E+02  0.36142994756E+03  0.00000000000E+00 0.  1.
         13    1    5    5    0    0  0.40515151725E+02 -0.21576169025E+03  0.15215378002E+03  0.26710551712E+03  0.00000000000E+00 0.  1.
        -13    1    5    5    0    0  0.65790780288E+02 -0.47560646111E+03  0.50669483776E+03  0.69804698354E+03  0.00000000000E+00 0. -1.
          2    1    6    6  503    0 -0.21829362684E+03  0.16916019709E+03  0.50265848480E+02  0.28070257449E+03  0.00000000000E+00 0.  1.
         -2    1    6    6    0  503 -0.22522908276E+02 -0.77935908284E+01 -0.90317183387E+01  0.25487122069E+02  0.00000000000E+00 0. -1.
<mgrwt>
<rscale>  0 0.17910936E+04</rscale>
<asrwt>0</asrwt>
<pdfrwt beam="1">  1        2 0.18143497E+00 0.17910936E+04</pdfrwt>
<pdfrwt beam="2">  1       -1 0.10462342E+00 0.17910936E+04</pdfrwt>
<totfact> 0.18028080E+01</totfact>
</mgrwt>
</event>
<event>
12    7  0.1735955E-007  0.1814419E+04  0.7818608E-02  0.8698669E-01
          2   -1    0    0  501    0  0.00000000000E+00  0.00000000000E+00  0.77137341751E+03  0.77137341751E+03  0.00000000000E+00 0. -1.
         -1   -1    0    0    0  501 -0.00000000000E+00 -0.00000000000E+00 -0.10669662192E+04  0.10669662192E+04  0.00000000000E+00 0.  1.
         24    2    1    2    0    0  0.88236798716E+02 -0.60519075930E+03 -0.40691515895E+03  0.73889544543E+03  0.79655162444E+02 0.  0.
        254    2    1    2    0    0 -0.88236798716E+02  0.60519075930E+03  0.11132235724E+03  0.10994441913E+04  0.90683144783E+03 0.  0.
         23    2    4    4    0    0  0.61819505412E+02  0.40376322566E+03 -0.36377588942E+03  0.55473160118E+03  0.92454626566E+02 0.  0.
         23    2    4    4    0    0 -0.15005630413E+03  0.20142753364E+03  0.47509824666E+03  0.54471259012E+03  0.88901721816E+02 0.  0.
          4    1    3    3  502    0 -0.13325528721E+02 -0.40893191239E+02 -0.35237171157E+02  0.55601088448E+02  0.00000000000E+00 0. -1.
         -3    1    3    3    0  502  0.10156232744E+03 -0.56429756806E+03 -0.37167798780E+03  0.68329435698E+03  0.00000000000E+00 0.  1.
         13    1    5    5    0    0  0.39659574762E+02  0.33064643217E+03 -0.24469997819E+03  0.41325297858E+03  0.00000000000E+00 0.  1.
        -13    1    5    5    0    0  0.22159930650E+02  0.73116793490E+02 -0.11907591123E+03  0.14147862260E+03  0.00000000000E+00 0. -1.
          1    1    6    6  503    0 -0.14743888518E+03  0.14043773856E+03  0.33725740869E+03  0.39395880875E+03  0.00000000000E+00 0. -1.
         -1    1    6    6    0  503 -0.26174189462E+01  0.60989795081E+02  0.13784083797E+03  0.15075378137E+03  0.00000000000E+00 0.  1.
<mgrwt>
<rscale>  0 0.18144193E+04</rscale>
<asrwt>0</asrwt>
<pdfrwt beam="1">  1        2 0.11867283E+00 0.18144193E+04</pdfrwt>
<pdfrwt beam="2">  1       -1 0.16414865E+00 0.18144193E+04</pdfrwt>
<totfact> 0.10582038E+01</totfact>
</mgrwt>
</event>
<event>
12    7  0.1735955E-007  0.3971946E+04  0.7818608E-02  0.8010230E-01
         -1   -1    0    0    0  501 -0.00000000000E+00  0.00000000000E+00  0.10071510788E+04  0.10071510788E+04  0.00000000000E+00 0.  1.
          2   -1    0    0  501    0  0.00000000000E+00 -0.00000000000E+00 -0.39160850155E+04  0.39160850155E+04  0.00000000000E+00 0. -1.
         24    2    1    2    0    0  0.98505813980E+03  0.64962969621E+03  0.44156387750E+03  0.12629407858E+04  0.87649811704E+02 0.  0.
        254    2    1    2    0    0 -0.98505813980E+03 -0.64962969621E+03 -0.33504978142E+04  0.36602953086E+04  0.88293140277E+03 0.  0.
         23    2    4    4    0    0 -0.36638786899E+03  0.10747855209E+03 -0.16543461320E+04  0.17002947559E+04  0.91375176245E+02 0.  0.
         23    2    4    4    0    0 -0.61867027081E+03 -0.75710824830E+03 -0.16961516822E+04  0.19600005527E+04  0.93305057554E+02 0.  0.
          2    1    3    3  502    0  0.14503515761E+03  0.13410338906E+03  0.67568229655E+02  0.20876872744E+03  0.00000000000E+00 0. -1.
         -1    1    3    3    0  502  0.84002298218E+03  0.51552630716E+03  0.37399564784E+03  0.10541720583E+04  0.00000000000E+00 0.  1.
         13    1    5    5    0    0 -0.25916006027E+03  0.53297969621E+02 -0.96774628520E+03  0.10032634165E+04  0.00000000000E+00 0. -1.
        -13    1    5    5    0    0 -0.10722780872E+03  0.54180582467E+02 -0.68659984676E+03  0.69703133936E+03  0.00000000000E+00 0.  1.
          3    1    6    6  503    0 -0.10353192869E+03 -0.17542105416E+03 -0.39751392529E+03  0.44666399822E+03  0.00000000000E+00 0. -1.
         -3    1    6    6    0  503 -0.51513834212E+03 -0.58168719414E+03 -0.12986377570E+04  0.15133365545E+04  0.00000000000E+00 0.  1.
<mgrwt>
<rscale>  0 0.39719462E+04</rscale>
<asrwt>0</asrwt>
<pdfrwt beam="1">  1        2 0.60247462E+00 0.39719462E+04</pdfrwt>
<pdfrwt beam="2">  1       -1 0.15494632E+00 0.39719462E+04</pdfrwt>
<totfact> 0.11402312E-01</totfact>
</mgrwt>
</event>
<event>
12    7  0.1735955E-007  0.2555415E+04  0.7818608E-02  0.8383505E-01
          2   -1    0    0  501    0  0.00000000000E+00  0.00000000000E+00  0.14398794719E+04  0.14398794719E+04  0.00000000000E+00 0. -1.
         -1   -1    0    0    0  501 -0.00000000000E+00 -0.00000000000E+00 -0.11338008451E+04  0.11338008451E+04  0.00000000000E+00 0.  1.
         24    2    1    2    0    0 -0.10178829260E+04 -0.29278591064E+03 -0.29484313906E+03  0.11024141342E+04  0.81087644691E+02 0.  0.
        254    2    1    2    0    0  0.10178829260E+04  0.29278591064E+03  0.60092176589E+03  0.14712661828E+04  0.82565608548E+03 0.  0.
         23    2    4    4    0    0  0.16035612567E+03  0.15232260424E+03  0.54565085247E+03  0.59579609954E+03  0.91224320383E+02 0.  0.
         23    2    4    4    0    0  0.85752680035E+03  0.14046330641E+03  0.55270913427E+02  0.87547008330E+03  0.91163803728E+02 0.  0.
          4    1    3    3  502    0 -0.14920359405E+03 -0.18210135042E+02 -0.57792740240E+02  0.16103826353E+03  0.00000000000E+00 0. -1.
         -3    1    3    3    0  502 -0.86867933197E+03 -0.27457577560E+03 -0.23705039882E+03  0.94137587069E+03  0.00000000000E+00 0.  1.
         13    1    5    5    0    0  0.43011627174E+02  0.83829820994E+02  0.30751253631E+03  0.32162306968E+03  0.00000000000E+00 0. -1.
        -13    1    5    5    0    0  0.11734449849E+03  0.68492783243E+02  0.23813831615E+03  0.27417302986E+03  0.00000000000E+00 0.  1.
          1    1    6    6  503    0  0.56982275594E+03  0.12560882465E+03  0.65728044850E+02  0.58719309081E+03  0.00000000000E+00 0. -1.
         -1    1    6    6    0  503  0.28770404441E+03  0.14854481755E+02 -0.10457131423E+02  0.28827699249E+03  0.00000000000E+00 0.  1.
<mgrwt>
<rscale>  0 0.25554151E+04</rscale>
<asrwt>0</asrwt>
<pdfrwt beam="1">  1        2 0.22151992E+00 0.25554151E+04</pdfrwt>
<pdfrwt beam="2">  1       -1 0.17443090E+00 0.25554151E+04</pdfrwt>
<totfact> 0.31711965E+00</totfact>
</mgrwt>
</event>
<event>
12    7  0.1735955E-007  0.1505607E+04  0.7818608E-02  0.8880733E-01
         -1   -1    0    0    0  501 -0.00000000000E+00  0.00000000000E+00  0.93215434789E+03  0.93215434789E+03  0.00000000000E+00 0.  1.
          2   -1    0    0  501    0  0.00000000000E+00 -0.00000000000E+00 -0.60796057050E+03  0.60796057050E+03  0.00000000000E+00 0. -1.
         24    2    1    2    0    0  0.15845967914E+03  0.18855942651E+03 -0.31839627733E+03  0.41066403231E+03  0.81268879518E+02 0.  0.
        254    2    1    2    0    0 -0.15845967914E+03 -0.18855942651E+03  0.64259005471E+03  0.11294508861E+04  0.89558539426E+03 0.  0.
         23    2    4    4    0    0 -0.92768087673E+02  0.35137018062E+03  0.23048924833E+03  0.44059528822E+03  0.94509219059E+02 0.  0.
         23    2    4    4    0    0 -0.65691591468E+02 -0.53992960714E+03  0.41210080638E+03  0.68885559786E+03  0.94104166869E+02 0.  0.
          2    1    3    3  502    0  0.70806933720E+02  0.14524010096E+03 -0.19997502026E+03  0.25709593058E+03  0.00000000000E+00 0. -1.
         -1    1    3    3    0  502  0.87652745421E+02  0.43319325558E+02 -0.11842125706E+03  0.15356810174E+03  0.00000000000E+00 0.  1.
         13    1    5    5    0    0 -0.42686080268E+02  0.26052695864E+03  0.12311302464E+03  0.29129575084E+03  0.00000000000E+00 0. -1.
        -13    1    5    5    0    0 -0.50082007405E+02  0.90843221988E+02  0.10737622370E+03  0.14929953738E+03  0.00000000000E+00 0.  1.
          3    1    6    6  503    0 -0.88219177221E+02 -0.47157539588E+03  0.36538831562E+03  0.60305439093E+03  0.00000000000E+00 0. -1.
         -3    1    6    6    0  503  0.22527585753E+02 -0.68354211262E+02  0.46712490760E+02  0.85801206927E+02  0.00000000000E+00 0.  1.
<mgrwt>
<rscale>  0 0.15056070E+04</rscale>
<asrwt>0</asrwt>
<pdfrwt beam="1">  1        2 0.93532395E-01 0.15056070E+04</pdfrwt>
<pdfrwt beam="2">  1       -1 0.14340836E+00 0.15056070E+04</pdfrwt>
<totfact> 0.21194027E+01</totfact>
</mgrwt>
</event>
<event>
12    7  0.1735955E-007  0.1458873E+04  0.7818608E-02  0.8912272E-01
         -1   -1    0    0    0  501 -0.00000000000E+00  0.00000000000E+00  0.23786871254E+03  0.23786871254E+03  0.00000000000E+00 0.  1.
          2   -1    0    0  501    0  0.00000000000E+00 -0.00000000000E+00 -0.22368553004E+04  0.22368553004E+04  0.00000000000E+00 0. -1.
         24    2    1    2    0    0 -0.17178408045E+02  0.50623146589E+03 -0.60927080973E+03  0.79627220299E+03  0.79202947643E+02 0.  0.
        254    2    1    2    0    0  0.17178408045E+02 -0.50623146589E+03 -0.13897157781E+04  0.16784518099E+04  0.79330015729E+03 0.  0.
         23    2    4    4    0    0  0.23533628764E+03 -0.28637866070E+01 -0.90877390995E+03  0.94321624936E+03  0.91626983473E+02 0.  0.
         23    2    4    4    0    0 -0.21815787959E+03 -0.50336767929E+03 -0.48094186816E+03  0.73523556056E+03  0.91073420870E+02 0.  0.
          2    1    3    3  502    0  0.78866293941E+00  0.13516673462E+03 -0.21978967619E+03  0.25802745958E+03  0.00000000000E+00 0. -1.
         -1    1    3    3    0  502 -0.17967070985E+02  0.37106473127E+03 -0.38948113353E+03  0.53824474341E+03  0.00000000000E+00 0.  1.
         13    1    5    5    0    0  0.24180837768E+03 -0.11026354607E+02 -0.87584527843E+03  0.90867916438E+03  0.00000000000E+00 0. -1.
        -13    1    5    5    0    0 -0.64720900434E+01  0.81625679996E+01 -0.32928631512E+02  0.34537084984E+02  0.00000000000E+00 0.  1.
          3    1    6    6  503    0 -0.17300344980E+03 -0.44882961326E+03 -0.44726882406E+03  0.65683149769E+03  0.00000000000E+00 0. -1.
         -3    1    6    6    0  503 -0.45154429800E+02 -0.54538066026E+02 -0.33673044102E+02  0.78404062876E+02  0.00000000000E+00 0.  1.
<mgrwt>
<rscale>  0 0.14588734E+04</rscale>
<asrwt>0</asrwt>
<pdfrwt beam="1">  1        2 0.34413159E+00 0.14588734E+04</pdfrwt>
<pdfrwt beam="2">  1       -1 0.36595186E-01 0.14588734E+04</pdfrwt>
<totfact> 0.38968510E+01</totfact>
</mgrwt>
</event>
<event>
12    7  0.1735955E-007  0.1610021E+04  0.7818608E-02  0.8814415E-01
         -1   -1    0    0    0  501 -0.00000000000E+00  0.00000000000E+00  0.20155886114E+03  0.20155886114E+03  0.00000000000E+00 0.  1.
          2   -1    0    0  501    0  0.00000000000E+00 -0.00000000000E+00 -0.32151501948E+04  0.32151501948E+04  0.00000000000E+00 0. -1.
         24    2    1    2    0    0 -0.51453769297E+03 -0.32952622344E+01 -0.62630488621E+03  0.81458047335E+03  0.80769058604E+02 0.  0.
        254    2    1    2    0    0  0.51453769297E+03  0.32952622344E+01 -0.23872864474E+04  0.26021285826E+04  0.89843012075E+03 0.  0.
         23    2    4    4    0    0  0.58101072443E+03 -0.31570575993E+03 -0.18531719845E+04  0.19696470661E+04  0.89552064054E+02 0.  0.
         23    2    4    4    0    0 -0.66473031455E+02  0.31900102216E+03 -0.53411446289E+03  0.63248151641E+03  0.92597478802E+02 0.  0.
          4    1    3    3  502    0 -0.36146661775E+02 -0.21352623019E+02 -0.55680495031E+02  0.69734017482E+02  0.00000000000E+00 0. -1.
         -3    1    3    3    0  502 -0.47839103120E+03  0.18057360785E+02 -0.57062439118E+03  0.74484645587E+03  0.00000000000E+00 0.  1.
         13    1    5    5    0    0  0.42623080627E+03 -0.23554581122E+03 -0.12405674932E+04  0.13327273669E+04  0.00000000000E+00 0. -1.
        -13    1    5    5    0    0  0.15477991816E+03 -0.80159948708E+02 -0.61260449135E+03  0.63691969923E+03  0.00000000000E+00 0.  1.
          3    1    6    6  503    0  0.38025251379E+01  0.69605424883E+02 -0.18516662851E+03  0.19785361933E+03  0.00000000000E+00 0. -1.
         -3    1    6    6    0  503 -0.70275556592E+02  0.24939559728E+03 -0.34894783438E+03  0.43462789708E+03  0.00000000000E+00 0.  1.
<mgrwt>
<rscale>  0 0.16100211E+04</rscale>
<asrwt>0</asrwt>
<pdfrwt beam="1">  1        2 0.49463851E+00 0.16100211E+04</pdfrwt>
<pdfrwt beam="2">  1       -1 0.31009054E-01 0.16100211E+04</pdfrwt>
<totfact> 0.13420229E+01</totfact>
</mgrwt>
</event>
<event>
12    7  0.1735955E-007  0.2622952E+04  0.7818608E-02  0.8360446E-01
         -1   -1    0    0    0  501 -0.00000000000E+00  0.00000000000E+00  0.73463479752E+03  0.73463479752E+03  0.00000000000E+00 0.  1.
          2   -1    0    0  501    0  0.00000000000E+00 -0.00000000000E+00 -0.23412580055E+04  0.23412580055E+04  0.00000000000E+00 0. -1.
         24    2    1    2    0    0  0.35354314211E+02  0.37595556764E+03  0.57014360658E+03  0.68836148436E+03  0.78646580699E+02 0.  0.
        254    2    1    2    0    0 -0.35354314211E+02 -0.37595556764E+03 -0.21767668146E+04  0.23875313187E+04  0.90520689141E+03 0.  0.
         23    2    4    4    0    0 -0.49096317396E+02 -0.65144008183E+03 -0.12098134924E+04  0.13779257831E+04  0.90808307687E+02 0.  0.
         23    2    4    4    0    0  0.13742003185E+02  0.27548451420E+03 -0.96695332225E+03  0.10096055356E+04  0.90686547929E+02 0.  0.
          4    1    3    3  502    0 -0.12609781594E+02  0.80088314692E+02  0.80420943850E+02  0.11419576591E+03  0.00000000000E+00 0. -1.
         -3    1    3    3    0  502  0.47964095806E+02  0.29586725294E+03  0.48972266273E+03  0.57416571845E+03  0.00000000000E+00 0.  1.
         13    1    5    5    0    0 -0.56789978883E+02 -0.23595429971E+03 -0.48871852836E+03  0.54566045598E+03  0.00000000000E+00 0. -1.
        -13    1    5    5    0    0  0.76936614864E+01 -0.41548578212E+03 -0.72109496400E+03  0.83226532709E+03  0.00000000000E+00 0.  1.
          1    1    6    6  503    0 -0.20479141916E+01  0.57579805228E+02 -0.98693501489E+02  0.11428051084E+03  0.00000000000E+00 0. -1.
         -1    1    6    6    0  503  0.15789917376E+02  0.21790470897E+03 -0.86825982076E+03  0.89532502480E+03  0.00000000000E+00 0.  1.
<mgrwt>
<rscale>  0 0.26229522E+04</rscale>
<asrwt>0</asrwt>
<pdfrwt beam="1">  1        2 0.36019354E+00 0.26229522E+04</pdfrwt>
<pdfrwt beam="2">  1       -1 0.11302074E+00 0.26229522E+04</pdfrwt>
<totfact> 0.30853510E+00</totfact>
</mgrwt>
</event>
<event>
12    7  0.2019704E-007  0.2360944E+04  0.7818608E-02  0.8454272E-01
          2   -1    0    0  501    0  0.00000000000E+00  0.00000000000E+00  0.15377358745E+04  0.15377358745E+04  0.00000000000E+00 0. -1.
         -3   -1    0    0    0  501 -0.00000000000E+00 -0.00000000000E+00 -0.90621190738E+03  0.90621190738E+03  0.00000000000E+00 0.  1.
         24    2    1    2    0    0 -0.11185930383E+03  0.49556426021E+03 -0.62608904681E+03  0.81025566441E+03  0.80189197045E+02 0.  0.
        254    2    1    2    0    0  0.11185930383E+03 -0.49556426021E+03  0.12576130139E+04  0.16336921175E+04  0.91063878793E+03 0.  0.
         23    2    4    4    0    0 -0.81456214911E+02 -0.21687294950E+02 -0.11273808085E+03  0.16801287791E+03  0.91722399437E+02 0.  0.
         23    2    4    4    0    0  0.19331551874E+03 -0.47387696526E+03  0.13703510948E+04  0.14656792396E+04  0.91778223904E+02 0.  0.
          2    1    3    3  502    0 -0.82998084458E+01  0.25850225896E+00 -0.98527064761E+01  0.12885242278E+02  0.00000000000E+00 0. -1.
         -3    1    3    3    0  502 -0.10355949538E+03  0.49530575795E+03 -0.61623634033E+03  0.79737042213E+03  0.00000000000E+00 0.  1.
         13    1    5    5    0    0 -0.81130529879E+02  0.91407712993E+01 -0.11010292434E+03  0.13707067712E+03  0.00000000000E+00 0.  1.
        -13    1    5    5    0    0 -0.32568503146E+00 -0.30828066250E+02 -0.26351565086E+01  0.30942200782E+02  0.00000000000E+00 0. -1.
          4    1    6    6  503    0  0.76605655365E+01 -0.40563860142E+02  0.19486933612E+03  0.19919379803E+03  0.00000000000E+00 0. -1.
         -4    1    6    6    0  503  0.18565495321E+03 -0.43331310512E+03  0.11754817587E+04  0.12664854416E+04  0.00000000000E+00 0.  1.
<mgrwt>
<rscale>  0 0.23609444E+04</rscale>
<asrwt>0</asrwt>
<pdfrwt beam="1">  1        2 0.23657475E+00 0.23609444E+04</pdfrwt>
<pdfrwt beam="2">  1       -3 0.13941722E+00 0.23609444E+04</pdfrwt>
<totfact> 0.26922577E+00</totfact>
</mgrwt>
</event>
<event>
12    7  0.1735955E-007  0.3276014E+04  0.7818608E-02  0.8169026E-01
          2   -1    0    0  501    0  0.00000000000E+00  0.00000000000E+00  0.29153993574E+04  0.29153993574E+04  0.00000000000E+00 0. -1.
         -1   -1    0    0    0  501 -0.00000000000E+00 -0.00000000000E+00 -0.92030835651E+03  0.92030835651E+03  0.00000000000E+00 0.  1.
         24    2    1    2    0    0 -0.73778553731E+03 -0.10866060772E+04  0.18030337380E+04  0.22322754249E+04  0.84158457831E+02 0.  0.
        254    2    1    2    0    0  0.73778553731E+03  0.10866060772E+04  0.19205726287E+03  0.16034322890E+04  0.89948254420E+03 0.  0.
         23    2    4    4    0    0  0.62410780564E+03  0.77382445547E+03  0.52134341034E+03  0.11261972628E+04  0.90589636857E+02 0.  0.
         23    2    4    4    0    0  0.11367773167E+03  0.31278162169E+03 -0.32928614747E+03  0.47723502623E+03  0.92568535695E+02 0.  0.
          2    1    3    3  502    0 -0.66387218881E+03 -0.98884087463E+03  0.16723003811E+04  0.20530760149E+04  0.00000000000E+00 0. -1.
         -1    1    3    3    0  502 -0.73913348497E+02 -0.97765202536E+02  0.13073335692E+03  0.17919940995E+03  0.00000000000E+00 0.  1.
         13    1    5    5    0    0  0.12419102146E+03  0.11091587102E+03  0.11040637923E+03  0.19978815988E+03  0.00000000000E+00 0. -1.
        -13    1    5    5    0    0  0.49991678418E+03  0.66290858445E+03  0.41093703111E+03  0.92640910292E+03  0.00000000000E+00 0.  1.
          2    1    6    6  503    0  0.17843075377E+02  0.18357278825E+03 -0.16947181233E+03  0.25047562576E+03  0.00000000000E+00 0.  1.
         -2    1    6    6    0  503  0.95834656295E+02  0.12920883344E+03 -0.15981433514E+03  0.22675940047E+03  0.00000000000E+00 0. -1.
<mgrwt>
<rscale>  0 0.32760137E+04</rscale>
<asrwt>0</asrwt>
<pdfrwt beam="1">  1        2 0.44852297E+00 0.32760137E+04</pdfrwt>
<pdfrwt beam="2">  1       -1 0.14158590E+00 0.32760137E+04</pdfrwt>
<totfact> 0.75985696E-01</totfact>
</mgrwt>
</event>
<event>
12    7  0.1735955E-007  0.1681360E+04  0.7818608E-02  0.8772067E-01
         -1   -1    0    0    0  501 -0.00000000000E+00  0.00000000000E+00  0.68977599687E+03  0.68977599687E+03  0.00000000000E+00 0.  1.
          2   -1    0    0  501    0  0.00000000000E+00 -0.00000000000E+00 -0.10245981398E+04  0.10245981398E+04  0.00000000000E+00 0. -1.
         24    2    1    2    0    0  0.37885488177E+02  0.51939901078E+03 -0.41285442653E+03  0.66932082544E+03  0.79567249854E+02 0.  0.
        254    2    1    2    0    0 -0.37885488177E+02 -0.51939901078E+03  0.78032283614E+02  0.10450533112E+04  0.90268308025E+03 0.  0.
         23    2    4    4    0    0 -0.43889010323E+02  0.10572872786E+03 -0.28221285913E+03  0.31786807013E+03  0.91056043343E+02 0.  0.
         23    2    4    4    0    0  0.60035221456E+01 -0.62512773864E+03  0.36024514274E+03  0.72718524108E+03  0.90559814910E+02 0.  0.
          2    1    3    3  502    0  0.32141979561E+02  0.41050521822E+03 -0.28241561150E+03  0.49930573665E+03  0.00000000000E+00 0. -1.
         -1    1    3    3    0  502  0.57435086162E+01  0.10889379256E+03 -0.13043881503E+03  0.17001508879E+03  0.00000000000E+00 0.  1.
         13    1    5    5    0    0 -0.57064676944E+02  0.89837003888E+02 -0.14923814372E+03  0.18330054054E+03  0.00000000000E+00 0.  1.
        -13    1    5    5    0    0  0.13175666621E+02  0.15891723974E+02 -0.13297471541E+03  0.13456752959E+03  0.00000000000E+00 0. -1.
          2    1    6    6  503    0  0.16361720219E+02 -0.47707039131E+03  0.23067131609E+03  0.53016329580E+03  0.00000000000E+00 0.  1.
         -2    1    6    6    0  503 -0.10358198074E+02 -0.14805734733E+03  0.12957382665E+03  0.19702194527E+03  0.00000000000E+00 0. -1.
<mgrwt>
<rscale>  0 0.16813604E+04</rscale>
<asrwt>0</asrwt>
<pdfrwt beam="1">  1        2 0.15763048E+00 0.16813604E+04</pdfrwt>
<pdfrwt beam="2">  1       -1 0.10611938E+00 0.16813604E+04</pdfrwt>
<totfact> 0.21936811E+01</totfact>
</mgrwt>
</event>
<event>
12    7  0.1735955E-007  0.3711158E+04  0.7818608E-02  0.8065494E-01
         -1   -1    0    0    0  501 -0.00000000000E+00  0.00000000000E+00  0.20051912614E+04  0.20051912614E+04  0.00000000000E+00 0.  1.
          2   -1    0    0  501    0  0.00000000000E+00 -0.00000000000E+00 -0.17171297365E+04  0.17171297365E+04  0.00000000000E+00 0. -1.
         24    2    1    2    0    0 -0.16600993923E+04 -0.21300044682E+03 -0.37762942096E+03  0.17176441733E+04  0.79989647821E+02 0.  0.
        254    2    1    2    0    0  0.16600993923E+04  0.21300044682E+03  0.66569094583E+03  0.20046768246E+04  0.87993497079E+03 0.  0.
         23    2    4    4    0    0  0.44368457939E+03  0.21506336466E+03  0.60081455296E+03  0.78333959952E+03  0.97644991262E+02 0.  0.
         23    2    4    4    0    0  0.12164148129E+04 -0.20629178379E+01  0.64876392872E+02  0.12213372251E+04  0.88240683102E+02 0.  0.
          2    1    3    3  502    0 -0.15281291744E+04 -0.19325828256E+03 -0.36925206289E+03  0.15839427462E+04  0.00000000000E+00 0. -1.
         -1    1    3    3    0  502 -0.13197021795E+03 -0.19742164266E+02 -0.83773580721E+01  0.13370142709E+03  0.00000000000E+00 0.  1.
         13    1    5    5    0    0  0.15720086831E+03  0.44423018366E+02  0.25587602882E+03  0.30357545962E+03  0.00000000000E+00 0.  1.
        -13    1    5    5    0    0  0.28648371108E+03  0.17064034629E+03  0.34493852414E+03  0.47976413990E+03  0.00000000000E+00 0. -1.
          1    1    6    6  503    0  0.34169691184E+03 -0.23400745306E+02 -0.14212124926E+02  0.34279200536E+03  0.00000000000E+00 0. -1.
         -1    1    6    6    0  503  0.87471790111E+03  0.21337827468E+02  0.79088517798E+02  0.87854521969E+03  0.00000000000E+00 0.  1.
<mgrwt>
<rscale>  0 0.37111581E+04</rscale>
<asrwt>0</asrwt>
<pdfrwt beam="1">  1        2 0.26417381E+00 0.37111581E+04</pdfrwt>
<pdfrwt beam="2">  1       -1 0.30849096E+00 0.37111581E+04</pdfrwt>
<totfact> 0.25649194E-01</totfact>
</mgrwt>
</event>
<event>
12    7  0.1735955E-007  0.1430365E+04  0.7818608E-02  0.8932127E-01
         -1   -1    0    0    0  501 -0.00000000000E+00  0.00000000000E+00  0.38528322967E+03  0.38528322967E+03  0.00000000000E+00 0.  1.
          2   -1    0    0  501    0  0.00000000000E+00 -0.00000000000E+00 -0.13275590083E+04  0.13275590083E+04  0.00000000000E+00 0. -1.
         24    2    1    2    0    0  0.25717761837E+02 -0.32170060332E+03 -0.31760520984E+02  0.33475451402E+03  0.83061257593E+02 0.  0.
        254    2    1    2    0    0 -0.25717761837E+02  0.32170060332E+03 -0.91051525769E+03  0.13780877240E+04  0.98281995253E+03 0.  0.
         23    2    4    4    0    0  0.52371721229E+01  0.13576820475E+03  0.19410725903E+03  0.25374908178E+03  0.90832456215E+02 0.  0.
         23    2    4    4    0    0 -0.30954933960E+02  0.18593239857E+03 -0.11046225167E+04  0.11243386422E+04  0.91746461275E+02 0.  0.
          2    1    3    3  502    0  0.48402005512E+02 -0.23030579298E+03 -0.45182041937E+02  0.23963499188E+03  0.00000000000E+00 0. -1.
         -1    1    3    3    0  502 -0.22684243674E+02 -0.91394810336E+02  0.13421520953E+02  0.95119522140E+02  0.00000000000E+00 0.  1.
         13    1    5    5    0    0 -0.15355190041E+02  0.15133159033E+02 -0.29730033264E+01  0.21763113570E+02  0.00000000000E+00 0. -1.
        -13    1    5    5    0    0  0.20592362164E+02  0.12063504571E+03  0.19708026236E+03  0.23198596821E+03  0.00000000000E+00 0.  1.
          2    1    6    6  503    0  0.22155757607E+02  0.16795315392E+02 -0.24873689829E+03  0.25028584615E+03  0.00000000000E+00 0. -1.
         -2    1    6    6    0  503 -0.53110691568E+02  0.16913708318E+03 -0.85588561843E+03  0.87405279606E+03  0.00000000000E+00 0.  1.
<mgrwt>
<rscale>  0 0.14303653E+04</rscale>
<asrwt>0</asrwt>
<pdfrwt beam="1">  1        2 0.20423985E+00 0.14303653E+04</pdfrwt>
<pdfrwt beam="2">  1       -1 0.59274343E-01 0.14303653E+04</pdfrwt>
<totfact> 0.50882370E+01</totfact>
</mgrwt>
</event>
<event>
12    7  0.1735955E-007  0.1332789E+04  0.7818608E-02  0.9003960E-01
         -1   -1    0    0    0  501 -0.00000000000E+00  0.00000000000E+00  0.33584221845E+03  0.33584221845E+03  0.00000000000E+00 0.  1.
          2   -1    0    0  501    0  0.00000000000E+00 -0.00000000000E+00 -0.13222930888E+04  0.13222930888E+04  0.00000000000E+00 0. -1.
         24    2    1    2    0    0 -0.66859127253E+01  0.23397511233E+02  0.17145406105E+03  0.18999729976E+03  0.78168624809E+02 0.  0.
        254    2    1    2    0    0  0.66859127253E+01 -0.23397511233E+02 -0.11579049314E+04  0.14681380074E+04  0.90227115319E+03 0.  0.
         23    2    4    4    0    0 -0.11616118993E+03  0.41266860834E+03 -0.52021116372E+03  0.68026446821E+03  0.91385389921E+02 0.  0.
         23    2    4    4    0    0  0.12284710265E+03 -0.43606611957E+03 -0.63769376764E+03  0.78787353924E+03  0.94054778080E+02 0.  0.
          4    1    3    3  502    0  0.76303039267E+01  0.44491132284E+02  0.56849816819E+02  0.72591900804E+02  0.00000000000E+00 0. -1.
         -3    1    3    3    0  502 -0.14316216652E+02 -0.21093621051E+02  0.11460424423E+03  0.11740539896E+03  0.00000000000E+00 0.  1.
         13    1    5    5    0    0  0.38448430374E+01  0.14306044893E+03 -0.17726174191E+03  0.22782186026E+03  0.00000000000E+00 0. -1.
        -13    1    5    5    0    0 -0.12000603297E+03  0.26960815941E+03 -0.34294942181E+03  0.45244260795E+03  0.00000000000E+00 0.  1.
          3    1    6    6  503    0  0.15057371206E+02 -0.14132294032E+03 -0.14002267863E+03  0.19951252698E+03  0.00000000000E+00 0. -1.
         -3    1    6    6    0  503  0.10778973145E+03 -0.29474317925E+03 -0.49767108900E+03  0.58836101226E+03  0.00000000000E+00 0.  1.
<mgrwt>
<rscale>  0 0.13327893E+04</rscale>
<asrwt>0</asrwt>
<pdfrwt beam="1">  1        2 0.20342971E+00 0.13327893E+04</pdfrwt>
<pdfrwt beam="2">  1       -1 0.51668034E-01 0.13327893E+04</pdfrwt>
<totfact> 0.67406131E+01</totfact>
</mgrwt>
</event>
<event>
12    7  0.1735955E-007  0.4158587E+04  0.7818608E-02  0.7973297E-01
         -1   -1    0    0    0  501 -0.00000000000E+00  0.00000000000E+00  0.27544758317E+04  0.27544758317E+04  0.00000000000E+00 0.  1.
          2   -1    0    0  501    0  0.00000000000E+00 -0.00000000000E+00 -0.15696130836E+04  0.15696130836E+04  0.00000000000E+00 0. -1.
         24    2    1    2    0    0  0.15176705731E+03 -0.19549896406E+04  0.83436384558E+03  0.21325166120E+04  0.80289095764E+02 0.  0.
        254    2    1    2    0    0 -0.15176705731E+03  0.19549896406E+04  0.35049890250E+03  0.21915723034E+04  0.91385006735E+03 0.  0.
         23    2    4    4    0    0 -0.10147263803E+03  0.20029646103E+04  0.22323802368E+03  0.20199176218E+04  0.89822364252E+02 0.  0.
         23    2    4    4    0    0 -0.50294419284E+02 -0.47974969675E+02  0.12726087882E+03  0.17165468160E+03  0.91863333883E+02 0.  0.
          4    1    3    3  502    0  0.11977862283E+03 -0.14326981288E+04  0.57394598142E+03  0.15480261097E+04  0.00000000000E+00 0. -1.
         -3    1    3    3    0  502  0.31988434483E+02 -0.52229151186E+03  0.26041786416E+03  0.58449050230E+03  0.00000000000E+00 0.  1.
         13    1    5    5    0    0 -0.62004784574E+02  0.17699894549E+04  0.20551661488E+03  0.17829594338E+04  0.00000000000E+00 0. -1.
        -13    1    5    5    0    0 -0.39467853456E+02  0.23297515544E+03  0.17721408803E+02  0.23695818795E+03  0.00000000000E+00 0.  1.
          3    1    6    6  503    0 -0.54615118540E+02  0.97159224207E+01  0.77737493145E+02  0.95500409224E+02  0.00000000000E+00 0. -1.
         -3    1    6    6    0  503  0.43206992557E+01 -0.57690892096E+02  0.49523385675E+02  0.76154272379E+02  0.00000000000E+00 0.  1.
<mgrwt>
<rscale>  0 0.41585869E+04</rscale>
<asrwt>0</asrwt>
<pdfrwt beam="1">  1        2 0.24147894E+00 0.41585869E+04</pdfrwt>
<pdfrwt beam="2">  1       -1 0.42376551E+00 0.41585869E+04</pdfrwt>
<totfact> 0.50511320E-02</totfact>
</mgrwt>
</event>
<event>
12    7  0.1735955E-007  0.1649275E+04  0.7818608E-02  0.8790835E-01
          2   -1    0    0  501    0  0.00000000000E+00  0.00000000000E+00  0.23122013952E+03  0.23122013952E+03  0.00000000000E+00 0. -1.
         -1   -1    0    0    0  501 -0.00000000000E+00 -0.00000000000E+00 -0.29410373016E+04  0.29410373016E+04  0.00000000000E+00 0.  1.
         24    2    1    2    0    0  0.42124464377E+03 -0.17459219825E+03 -0.16402273373E+04  0.17041717531E+04  0.76981558187E+02 0.  0.
        254    2    1    2    0    0 -0.42124464377E+03  0.17459219825E+03 -0.10695898248E+04  0.14680856880E+04  0.89628327475E+03 0.  0.
         23    2    4    4    0    0 -0.33093204526E+03 -0.31473708450E+03 -0.70468596629E+03  0.84463455331E+03  0.90828225905E+02 0.  0.
         23    2    4    4    0    0 -0.90312598515E+02  0.48932928275E+03 -0.36490385847E+03  0.62345113473E+03  0.89089724766E+02 0.  0.
          4    1    3    3  502    0  0.86156889552E+02 -0.17904782715E+02 -0.23069263105E+03  0.24690621880E+03  0.00000000000E+00 0. -1.
         -3    1    3    3    0  502  0.33508775422E+03 -0.15668741553E+03 -0.14095347063E+04  0.14572655343E+04  0.00000000000E+00 0.  1.
         13    1    5    5    0    0 -0.86009415761E+02 -0.83157340275E+02 -0.26379610191E+03  0.28965694575E+03  0.00000000000E+00 0. -1.
        -13    1    5    5    0    0 -0.24492262949E+03 -0.23157974423E+03 -0.44088986439E+03  0.55497760756E+03  0.00000000000E+00 0.  1.
          3    1    6    6  503    0 -0.48551634739E+02  0.18365776642E+03 -0.89904996205E+02  0.21016742075E+03  0.00000000000E+00 0. -1.
         -3    1    6    6    0  503 -0.41760963775E+02  0.30567151633E+03 -0.27499886227E+03  0.41328371398E+03  0.00000000000E+00 0.  1.
<mgrwt>
<rscale>  0 0.16492751E+04</rscale>
<asrwt>0</asrwt>
<pdfrwt beam="1">  1        2 0.35572330E-01 0.16492751E+04</pdfrwt>
<pdfrwt beam="2">  1       -1 0.45246727E+00 0.16492751E+04</pdfrwt>
<totfact> 0.50204338E-01</totfact>
</mgrwt>
</event>
<event>
12    7  0.1735955E-007  0.2581440E+04  0.7818608E-02  0.8374533E-01
          2   -1    0    0  501    0  0.00000000000E+00  0.00000000000E+00  0.13487020226E+04  0.13487020226E+04  0.00000000000E+00 0. -1.
         -1   -1    0    0    0  501 -0.00000000000E+00 -0.00000000000E+00 -0.12352303218E+04  0.12352303218E+04  0.00000000000E+00 0.  1.
         24    2    1    2    0    0  0.50401963376E+03  0.10179936675E+04  0.63663836881E+02  0.11404908296E+04  0.79494340317E+02 0.  0.
        254    2    1    2    0    0 -0.50401963376E+03 -0.10179936675E+04  0.49807863901E+02  0.14434415147E+04  0.88921070896E+03 0.  0.
         23    2    4    4    0    0 -0.48484961934E+03 -0.30526624453E+03 -0.28936490795E+03  0.64845917339E+03  0.92198786183E+02 0.  0.
         23    2    4    4    0    0 -0.19170014419E+02 -0.71272742294E+03  0.33917277185E+03  0.79498234134E+03  0.92794854487E+02 0.  0.
          2    1    3    3  502    0  0.39828663550E+03  0.85014581927E+03  0.30127817599E+02  0.93930178507E+03  0.00000000000E+00 0. -1.
         -1    1    3    3    0  502  0.10573299826E+03  0.16784784820E+03  0.33536019282E+02  0.20118904457E+03  0.00000000000E+00 0.  1.
         13    1    5    5    0    0 -0.55824914718E+02 -0.14683676387E+02 -0.64436419145E+01  0.58082286255E+02  0.00000000000E+00 0. -1.
        -13    1    5    5    0    0 -0.42902470462E+03 -0.29058256814E+03 -0.28292126604E+03  0.59037688713E+03  0.00000000000E+00 0.  1.
          4    1    6    6  503    0 -0.11553213233E+02 -0.43027213083E+02  0.67201323722E+00  0.44556362099E+02  0.00000000000E+00 0. -1.
         -4    1    6    6    0  503 -0.76168011862E+01 -0.66970020985E+03  0.33850075862E+03  0.75042597924E+03  0.00000000000E+00 0.  1.
<mgrwt>
<rscale>  0 0.25814396E+04</rscale>
<asrwt>0</asrwt>
<pdfrwt beam="1">  1        2 0.20749262E+00 0.25814396E+04</pdfrwt>
<pdfrwt beam="2">  1       -1 0.19003544E+00 0.25814396E+04</pdfrwt>
<totfact> 0.27608114E+00</totfact>
</mgrwt>
</event>
<event>
12    7  0.1735955E-007  0.1166353E+04  0.7818608E-02  0.9142828E-01
         -1   -1    0    0    0  501 -0.00000000000E+00  0.00000000000E+00  0.38912564126E+03  0.38912564126E+03  0.00000000000E+00 0.  1.
          2   -1    0    0  501    0  0.00000000000E+00 -0.00000000000E+00 -0.87399737175E+03  0.87399737175E+03  0.00000000000E+00 0. -1.
         24    2    1    2    0    0  0.83478050378E+02 -0.35811195604E+02  0.12128197548E+03  0.17121361161E+03  0.79710454764E+02 0.  0.
        254    2    1    2    0    0 -0.83478050378E+02  0.35811195604E+02 -0.60615370597E+03  0.10919094014E+04  0.90365524342E+03 0.  0.
         23    2    4    4    0    0 -0.41207195958E+03  0.12467114784E+03 -0.59296318294E+03  0.73910253303E+03  0.96545445464E+02 0.  0.
         23    2    4    4    0    0  0.32859390920E+03 -0.88859952233E+02 -0.13190523033E+02  0.35280686836E+03  0.91807669552E+02 0.  0.
          2    1    3    3  502    0 -0.10104684356E+02 -0.73447933792E+01 -0.32025590692E+01  0.12896007921E+02  0.00000000000E+00 0. -1.
         -1    1    3    3    0  502  0.93582734734E+02 -0.28466402224E+02  0.12448453455E+03  0.15831760369E+03  0.00000000000E+00 0.  1.
         13    1    5    5    0    0 -0.25003267272E+03  0.52217898456E+02 -0.27770862087E+03  0.37731303244E+03  0.00000000000E+00 0. -1.
        -13    1    5    5    0    0 -0.16203928686E+03  0.72453249380E+02 -0.31525456207E+03  0.36178950059E+03  0.00000000000E+00 0.  1.
          1    1    6    6  503    0  0.32383667696E+03 -0.92823632920E+02 -0.26712172950E+02  0.33793484631E+03  0.00000000000E+00 0. -1.
         -1    1    6    6    0  503  0.47572322470E+01  0.39636806876E+01  0.13521649917E+02  0.14872022046E+02  0.00000000000E+00 0.  1.
<mgrwt>
<rscale>  0 0.11663529E+04</rscale>
<asrwt>0</asrwt>
<pdfrwt beam="1">  1        2 0.13446113E+00 0.11663529E+04</pdfrwt>
<pdfrwt beam="2">  1       -1 0.59865484E-01 0.11663529E+04</pdfrwt>
<totfact> 0.97524115E+01</totfact>
</mgrwt>
</event>
<event>
12    7  0.1735955E-007  0.1716209E+04  0.7818608E-02  0.8752173E-01
         -1   -1    0    0    0  501 -0.00000000000E+00  0.00000000000E+00  0.41256576291E+03  0.41256576291E+03  0.00000000000E+00 0.  1.
          2   -1    0    0  501    0  0.00000000000E+00 -0.00000000000E+00 -0.17847910525E+04  0.17847910525E+04  0.00000000000E+00 0. -1.
         24    2    1    2    0    0  0.15640051705E+03  0.18968222463E+03 -0.12164485137E+04  0.12436577803E+04  0.80605333978E+02 0.  0.
        254    2    1    2    0    0 -0.15640051705E+03 -0.18968222463E+03 -0.15577677589E+03  0.95369903514E+03  0.90820425987E+03 0.  0.
         23    2    4    4    0    0  0.21334129456E+03  0.25306208339E+03  0.20479790997E+02  0.34389091476E+03  0.91030837652E+02 0.  0.
         23    2    4    4    0    0 -0.36974181161E+03 -0.44274430803E+03 -0.17625656689E+03  0.60980812038E+03  0.89822250971E+02 0.  0.
          4    1    3    3  502    0  0.10696828397E+03  0.10913576664E+03 -0.91712918131E+03  0.92977350174E+03  0.00000000000E+00 0. -1.
         -3    1    3    3    0  502  0.49432233081E+02  0.80546457992E+02 -0.29931933238E+03  0.31388427851E+03  0.00000000000E+00 0.  1.
         13    1    5    5    0    0  0.11372727971E+03  0.88835474452E+02  0.42795080990E+02  0.15052260504E+03  0.00000000000E+00 0. -1.
        -13    1    5    5    0    0  0.99614014851E+02  0.16422660894E+03 -0.22315289992E+02  0.19336830973E+03  0.00000000000E+00 0.  1.
          4    1    6    6  503    0 -0.92575749582E+01 -0.19530533332E+02 -0.26234264296E+02  0.33990896568E+02  0.00000000000E+00 0. -1.
         -4    1    6    6    0  503 -0.36048423665E+03 -0.42321377469E+03 -0.15002230260E+03  0.57581722381E+03  0.00000000000E+00 0.  1.
<mgrwt>
<rscale>  0 0.17162094E+04</rscale>
<asrwt>0</asrwt>
<pdfrwt beam="1">  1        2 0.27458324E+00 0.17162094E+04</pdfrwt>
<pdfrwt beam="2">  1       -1 0.63471656E-01 0.17162094E+04</pdfrwt>
<totfact> 0.23976100E+01</totfact>
</mgrwt>
</event>
<event>
12    7  0.1735955E-007  0.1494774E+04  0.7818608E-02  0.8887935E-01
          2   -1    0    0  501    0  0.00000000000E+00  0.00000000000E+00  0.80407281307E+03  0.80407281307E+03  0.00000000000E+00 0. -1.
         -1   -1    0    0    0  501 -0.00000000000E+00 -0.00000000000E+00 -0.69469789587E+03  0.69469789587E+03  0.00000000000E+00 0.  1.
         24    2    1    2    0    0  0.41467608675E+03  0.67426709514E+02  0.21553917458E+03  0.47893297409E+03  0.80106428040E+02 0.  0.
        254    2    1    2    0    0 -0.41467608675E+03 -0.67426709514E+02 -0.10616425738E+03  0.10198377349E+04  0.92319853652E+03 0.  0.
         23    2    4    4    0    0 -0.47441280609E+03  0.32055011650E+03  0.63213552316E+02  0.58299911166E+03  0.89844995556E+02 0.  0.
         23    2    4    4    0    0  0.59736719338E+02 -0.38797682602E+03 -0.16937780969E+03  0.43683862321E+03  0.89691956971E+02 0.  0.
          2    1    3    3  502    0  0.33213227781E+03  0.64941138215E+02  0.20503227689E+03  0.39568603205E+03  0.00000000000E+00 0. -1.
         -1    1    3    3    0  502  0.82543808939E+02  0.24855712986E+01  0.10506897686E+02  0.83246942033E+02  0.00000000000E+00 0.  1.
         13    1    5    5    0    0 -0.31504806644E+03  0.26117667049E+03  0.36583959403E+02  0.41086119732E+03  0.00000000000E+00 0.  1.
        -13    1    5    5    0    0 -0.15936473964E+03  0.59373446012E+02  0.26629592913E+02  0.17213791434E+03  0.00000000000E+00 0. -1.
          2    1    6    6  503    0  0.46908451089E+02 -0.23928817250E+03 -0.15015057358E+03  0.28636415109E+03  0.00000000000E+00 0. -1.
         -2    1    6    6    0  503  0.12828268249E+02 -0.14868865351E+03 -0.19227236112E+02  0.15047447211E+03  0.00000000000E+00 0.  1.
<mgrwt>
<rscale>  0 0.14947745E+04</rscale>
<asrwt>0</asrwt>
<pdfrwt beam="1">  1        2 0.12370351E+00 0.14947745E+04</pdfrwt>
<pdfrwt beam="2">  1       -1 0.10687660E+00 0.14947745E+04</pdfrwt>
<totfact> 0.30849371E+01</totfact>
</mgrwt>
</event>
<event>
12    7  0.1735955E-007  0.1605359E+04  0.7818608E-02  0.8817263E-01
         -1   -1    0    0    0  501 -0.00000000000E+00  0.00000000000E+00  0.18804295797E+04  0.18804295797E+04  0.00000000000E+00 0.  1.
          2   -1    0    0  501    0  0.00000000000E+00 -0.00000000000E+00 -0.34263131158E+03  0.34263131158E+03  0.00000000000E+00 0. -1.
         24    2    1    2    0    0  0.53579112890E+03 -0.39001758902E+02  0.67522941433E+03  0.86688528728E+03  0.83439009499E+02 0.  0.
        254    2    1    2    0    0 -0.53579112890E+03  0.39001758902E+02  0.86256885383E+03  0.13561756040E+04  0.89810576795E+03 0.  0.
         23    2    4    4    0    0 -0.12495316147E+03 -0.40062149756E+03  0.44006016257E+03  0.61535444257E+03  0.94325322412E+02 0.  0.
         23    2    4    4    0    0 -0.41083796744E+03  0.43962325646E+03  0.42250869126E+03  0.74082116148E+03  0.90807246355E+02 0.  0.
          2    1    3    3  502    0  0.18448095039E+02  0.94778246310E+01  0.10737890964E+02  0.23355163726E+02  0.00000000000E+00 0. -1.
         -1    1    3    3    0  502  0.51734303386E+03 -0.48479583533E+02  0.66449152337E+03  0.84353012355E+03  0.00000000000E+00 0.  1.
         13    1    5    5    0    0 -0.85409667595E+02 -0.12420928581E+03  0.14635447687E+03  0.21010090647E+03  0.00000000000E+00 0. -1.
        -13    1    5    5    0    0 -0.39543493871E+02 -0.27641221175E+03  0.29370568570E+03  0.40525353610E+03  0.00000000000E+00 0.  1.
          4    1    6    6  503    0 -0.98660370453E+02  0.15374499301E+03  0.96967257750E+02  0.20681885951E+03  0.00000000000E+00 0. -1.
         -4    1    6    6    0  503 -0.31217759698E+03  0.28587826345E+03  0.32554143351E+03  0.53400230196E+03  0.00000000000E+00 0.  1.
<mgrwt>
<rscale>  0 0.16053586E+04</rscale>
<asrwt>0</asrwt>
<pdfrwt beam="1">  1        2 0.52712511E-01 0.16053586E+04</pdfrwt>
<pdfrwt beam="2">  1       -1 0.28929685E+00 0.16053586E+04</pdfrwt>
<totfact> 0.40283139E+00</totfact>
</mgrwt>
</event>
<event>
12    7  0.1735955E-007  0.2011145E+04  0.7818608E-02  0.8601428E-01
         -1   -1    0    0    0  501 -0.00000000000E+00  0.00000000000E+00  0.54422679521E+03  0.54422679521E+03  0.00000000000E+00 0.  1.
          2   -1    0    0  501    0  0.00000000000E+00 -0.00000000000E+00 -0.18580046985E+04  0.18580046985E+04  0.00000000000E+00 0. -1.
         24    2    1    2    0    0 -0.37677521219E+03 -0.22496255699E+03 -0.13306580479E+04  0.14035260351E+04  0.81650340652E+02 0.  0.
        254    2    1    2    0    0  0.37677521219E+03  0.22496255699E+03  0.16880144666E+02  0.99870545859E+03  0.89697265352E+03 0.  0.
         23    2    4    4    0    0  0.45079260091E+03 -0.23950129772E+03  0.32537101137E+02  0.51969923219E+03  0.91944485142E+02 0.  0.
         23    2    4    4    0    0 -0.74017388722E+02  0.46446385471E+03 -0.15656956471E+02  0.47900622639E+03  0.89423590154E+02 0.  0.
          4    1    3    3  502    0 -0.32047751025E+03 -0.19365954880E+03 -0.12118270943E+04  0.12683590824E+04  0.00000000000E+00 0. -1.
         -3    1    3    3    0  502 -0.56297701932E+02 -0.31303008182E+02 -0.11883095368E+03  0.13516695275E+03  0.00000000000E+00 0.  1.
         13    1    5    5    0    0  0.13307479604E+03 -0.52045406455E+02  0.47278471317E+02  0.15050873570E+03  0.00000000000E+00 0.  1.
        -13    1    5    5    0    0  0.31771780487E+03 -0.18745589127E+03 -0.14741370181E+02  0.36919049649E+03  0.00000000000E+00 0. -1.
          1    1    6    6  503    0  0.11292136863E+02  0.12265866367E+03  0.20476246089E+02  0.12486767709E+03  0.00000000000E+00 0. -1.
         -1    1    6    6    0  503 -0.85309525585E+02  0.34180519104E+03 -0.36133202559E+02  0.35413854931E+03  0.00000000000E+00 0.  1.
<mgrwt>
<rscale>  0 0.20111449E+04</rscale>
<asrwt>0</asrwt>
<pdfrwt beam="1">  1        2 0.28584688E+00 0.20111449E+04</pdfrwt>
<pdfrwt beam="2">  1       -1 0.83727198E-01 0.20111449E+04</pdfrwt>
<totfact> 0.11978927E+01</totfact>
</mgrwt>
</event>
<event>
12    7  0.1735955E-007  0.2884006E+04  0.7818608E-02  0.8277652E-01
          2   -1    0    0  501    0  0.00000000000E+00  0.00000000000E+00  0.11532025551E+04  0.11532025551E+04  0.00000000000E+00 0. -1.
         -1   -1    0    0    0  501 -0.00000000000E+00 -0.00000000000E+00 -0.18031286863E+04  0.18031286863E+04  0.00000000000E+00 0.  1.
         24    2    1    2    0    0 -0.10360379579E+04  0.15255948347E+03 -0.10534168262E+04  0.14876047561E+04  0.81436198928E+02 0.  0.
        254    2    1    2    0    0  0.10360379579E+04 -0.15255948347E+03  0.40349069490E+03  0.14687264853E+04  0.94747226956E+03 0.  0.
         23    2    4    4    0    0  0.11234006222E+04 -0.26422586433E+03  0.15513174549E+03  0.11682457841E+04  0.94276657551E+02 0.  0.
         23    2    4    4    0    0 -0.87362664311E+02  0.11166638086E+03  0.24835894941E+03  0.30048070125E+03  0.92221843078E+02 0.  0.
          2    1    3    3  502    0 -0.12245111833E+01  0.46442208924E+01 -0.28939575798E+01  0.56074241688E+01  0.00000000000E+00 0. -1.
         -1    1    3    3    0  502 -0.10348134467E+04  0.14791526258E+03 -0.10505228686E+04  0.14819973319E+04  0.00000000000E+00 0.  1.
         13    1    5    5    0    0  0.82990567815E+03 -0.15460922924E+03  0.12706957886E+03  0.85369439863E+03  0.00000000000E+00 0.  1.
        -13    1    5    5    0    0  0.29349494406E+03 -0.10961663509E+03  0.28062166628E+02  0.31455138543E+03  0.00000000000E+00 0. -1.
          2    1    6    6  503    0 -0.81588444618E+02  0.96366013776E+02  0.25361061079E+03  0.28330447369E+03  0.00000000000E+00 0. -1.
         -2    1    6    6    0  503 -0.57742196925E+01  0.15300367084E+02 -0.52516613794E+01  0.17176227561E+02  0.00000000000E+00 0.  1.
<mgrwt>
<rscale>  0 0.28840060E+04</rscale>
<asrwt>0</asrwt>
<pdfrwt beam="1">  1        2 0.17741578E+00 0.28840060E+04</pdfrwt>
<pdfrwt beam="2">  1       -1 0.27740441E+00 0.28840060E+04</pdfrwt>
<totfact> 0.92068824E-01</totfact>
</mgrwt>
</event>
<event>
12    7  0.1735955E-007  0.1368044E+04  0.7818608E-02  0.8977280E-01
          2   -1    0    0  501    0  0.00000000000E+00  0.00000000000E+00  0.85341421361E+03  0.85341421361E+03  0.00000000000E+00 0. -1.
         -1   -1    0    0    0  501 -0.00000000000E+00 -0.00000000000E+00 -0.54825192723E+03  0.54825192723E+03  0.00000000000E+00 0.  1.
         24    2    1    2    0    0  0.33499914751E+02 -0.22685768939E+03 -0.21027864048E+03  0.32077639181E+03  0.78062355733E+02 0.  0.
        254    2    1    2    0    0 -0.33499914751E+02  0.22685768939E+03  0.51544092686E+03  0.10808897490E+04  0.92198516526E+03 0.  0.
         23    2    4    4    0    0 -0.31325209044E+03  0.43456600405E+03  0.14013949577E+03  0.56064387540E+03  0.87795174765E+02 0.  0.
         23    2    4    4    0    0  0.27975217569E+03 -0.20770831467E+03  0.37530143108E+03  0.52024587363E+03  0.91654683848E+02 0.  0.
          2    1    3    3  502    0 -0.13275819882E+02 -0.40111173572E+02 -0.10924629609E+02  0.43640590864E+02  0.00000000000E+00 0. -1.
         -1    1    3    3    0  502  0.46775734633E+02 -0.18674651582E+03 -0.19935401087E+03  0.27713580095E+03  0.00000000000E+00 0.  1.
         13    1    5    5    0    0 -0.43410758214E+02  0.43615662549E+02 -0.10225098665E+02  0.62380867187E+02  0.00000000000E+00 0.  1.
        -13    1    5    5    0    0 -0.26984133222E+03  0.39095034150E+03  0.15036459444E+03  0.49826300822E+03  0.00000000000E+00 0. -1.
          4    1    6    6  503    0  0.10644986603E+03 -0.89445028367E+02  0.88211215879E+02  0.16466088086E+03  0.00000000000E+00 0. -1.
         -4    1    6    6    0  503  0.17330230966E+03 -0.11826328630E+03  0.28709021521E+03  0.35558499277E+03  0.00000000000E+00 0.  1.
<mgrwt>
<rscale>  0 0.13680438E+04</rscale>
<asrwt>0</asrwt>
<pdfrwt beam="1">  1        2 0.13129449E+00 0.13680438E+04</pdfrwt>
<pdfrwt beam="2">  1       -1 0.84346450E-01 0.13680438E+04</pdfrwt>
<totfact> 0.48953146E+01</totfact>
</mgrwt>
</event>
<event>
12    7  0.1735955E-007  0.1695015E+04  0.7818608E-02  0.8764212E-01
          2   -1    0    0  501    0  0.00000000000E+00  0.00000000000E+00  0.76281097356E+03  0.76281097356E+03  0.00000000000E+00 0. -1.
         -1   -1    0    0    0  501 -0.00000000000E+00 -0.00000000000E+00 -0.94160826491E+03  0.94160826491E+03  0.00000000000E+00 0.  1.
         24    2    1    2    0    0  0.39661393186E+03  0.11172876332E+03  0.37969636056E+03  0.56641416070E+03  0.82883941276E+02 0.  0.
        254    2    1    2    0    0 -0.39661393186E+03 -0.11172876332E+03 -0.55849365191E+03  0.11380050778E+04  0.90186166917E+03 0.  0.
         23    2    4    4    0    0 -0.47250787988E+03  0.13340015050E+03 -0.67807510376E+03  0.84217020752E+03  0.91681597971E+02 0.  0.
         23    2    4    4    0    0  0.75893948018E+02 -0.24512891382E+03  0.11958145185E+03  0.29583487025E+03  0.85851447821E+02 0.  0.
          2    1    3    3  502    0  0.36525107657E+03  0.76805471556E+02  0.34156546085E+03  0.50593912029E+03  0.00000000000E+00 0. -1.
         -1    1    3    3    0  502  0.31362855287E+02  0.34923291766E+02  0.38130899714E+02  0.60475040409E+02  0.00000000000E+00 0.  1.
         13    1    5    5    0    0 -0.28069997591E+03  0.39961383776E+02 -0.34412460863E+03  0.44588242277E+03  0.00000000000E+00 0. -1.
        -13    1    5    5    0    0 -0.19180790397E+03  0.93438766725E+02 -0.33395049513E+03  0.39628778476E+03  0.00000000000E+00 0.  1.
          2    1    6    6  503    0  0.60007714006E+02 -0.11518531134E+03  0.20125181762E+02  0.13142908594E+03  0.00000000000E+00 0. -1.
         -2    1    6    6    0  503  0.15886234012E+02 -0.12994360248E+03  0.99456270084E+02  0.16440578431E+03  0.00000000000E+00 0.  1.
<mgrwt>
<rscale>  0 0.16950152E+04</rscale>
<asrwt>0</asrwt>
<pdfrwt beam="1">  1        2 0.11735554E+00 0.16950152E+04</pdfrwt>
<pdfrwt beam="2">  1       -1 0.14486281E+00 0.16950152E+04</pdfrwt>
<totfact> 0.15272095E+01</totfact>
</mgrwt>
</event>
<event>
12    7  0.1735955E-007  0.1753854E+04  0.7818608E-02  0.8731232E-01
         -1   -1    0    0    0  501 -0.00000000000E+00  0.00000000000E+00  0.86049318849E+03  0.86049318849E+03  0.00000000000E+00 0.  1.
          2   -1    0    0  501    0  0.00000000000E+00 -0.00000000000E+00 -0.89367446339E+03  0.89367446339E+03  0.00000000000E+00 0. -1.
         24    2    1    2    0    0 -0.12611290865E+03 -0.58774911081E+03  0.21233172679E+03  0.64258999377E+03  0.80521145744E+02 0.  0.
        254    2    1    2    0    0  0.12611290865E+03  0.58774911081E+03 -0.24551300169E+03  0.11115776581E+04  0.90220550487E+03 0.  0.
         23    2    4    4    0    0  0.25856423499E+03  0.24298654926E+03  0.28148532875E+03  0.46159980548E+03  0.89120499211E+02 0.  0.
         23    2    4    4    0    0 -0.13245132634E+03  0.34476256154E+03 -0.52699833044E+03  0.64997785263E+03  0.91320265700E+02 0.  0.
          2    1    3    3  502    0 -0.71837663465E+02 -0.40936672081E+03  0.18182512581E+03  0.45365420573E+03  0.00000000000E+00 0. -1.
         -1    1    3    3    0  502 -0.54275245182E+02 -0.17838238999E+03  0.30506600982E+02  0.18893578804E+03  0.00000000000E+00 0.  1.
         13    1    5    5    0    0 -0.56936543257E+01  0.17007441945E+02  0.17266186940E+02  0.24895621955E+02  0.00000000000E+00 0.  1.
        -13    1    5    5    0    0  0.26425788931E+03  0.22597910732E+03  0.26421914181E+03  0.43670418353E+03  0.00000000000E+00 0. -1.
          3    1    6    6  503    0 -0.13532048661E+03  0.24905650538E+03 -0.37008934180E+03  0.46616187948E+03  0.00000000000E+00 0. -1.
         -3    1    6    6    0  503  0.28691602696E+01  0.95706056167E+02 -0.15690898864E+03  0.18381597315E+03  0.00000000000E+00 0.  1.
<mgrwt>
<rscale>  0 0.17538538E+04</rscale>
<asrwt>0</asrwt>
<pdfrwt beam="1">  1        2 0.13748838E+00 0.17538538E+04</pdfrwt>
<pdfrwt beam="2">  1       -1 0.13238357E+00 0.17538538E+04</pdfrwt>
<totfact> 0.15509869E+01</totfact>
</mgrwt>
</event>
<event>
12    7  0.1735955E-007  0.2834906E+04  0.7818608E-02  0.8292513E-01
         -1   -1    0    0    0  501 -0.00000000000E+00  0.00000000000E+00  0.84316653694E+03  0.84316653694E+03  0.00000000000E+00 0.  1.
          2   -1    0    0  501    0  0.00000000000E+00 -0.00000000000E+00 -0.23828901042E+04  0.23828901042E+04  0.00000000000E+00 0. -1.
         24    2    1    2    0    0 -0.11445659827E+02 -0.11543739161E+04 -0.12962300438E+04  0.17373894643E+04  0.74831031059E+02 0.  0.
        254    2    1    2    0    0  0.11445659827E+02  0.11543739161E+04 -0.24349352346E+03  0.14886671768E+04  0.90781646053E+03 0.  0.
         23    2    4    4    0    0  0.44963323118E+03  0.58532303403E+03 -0.91099460991E+02  0.74892024101E+03  0.88370350567E+02 0.  0.
         23    2    4    4    0    0 -0.43818757135E+03  0.56905088204E+03 -0.15239406247E+03  0.73974693576E+03  0.90411971902E+02 0.  0.
          2    1    3    3  502    0  0.23602752794E+02 -0.80985793380E+03 -0.92771482192E+03  0.12316987268E+04  0.00000000000E+00 0. -1.
         -1    1    3    3    0  502 -0.35048412621E+02 -0.34451598227E+03 -0.36851522186E+03  0.50569073751E+03  0.00000000000E+00 0.  1.
         13    1    5    5    0    0  0.10030332410E+02 -0.10279587506E+01 -0.42771718477E+01  0.10952555248E+02  0.00000000000E+00 0. -1.
        -13    1    5    5    0    0  0.43960289877E+03  0.58635099278E+03 -0.86822289143E+02  0.73796768576E+03  0.00000000000E+00 0.  1.
          1    1    6    6  503    0 -0.11195863353E+03  0.11622119958E+03 -0.68749329397E+02  0.17540972934E+03  0.00000000000E+00 0. -1.
         -1    1    6    6    0  503 -0.32622893782E+03  0.45282968246E+03 -0.83644733068E+02  0.56433720643E+03  0.00000000000E+00 0.  1.
<mgrwt>
<rscale>  0 0.28349061E+04</rscale>
<asrwt>0</asrwt>
<pdfrwt beam="1">  1        2 0.36659847E+00 0.28349061E+04</pdfrwt>
<pdfrwt beam="2">  1       -1 0.12971793E+00 0.28349061E+04</pdfrwt>
<totfact> 0.20451697E+00</totfact>
</mgrwt>
</event>
<event>
12    7  0.1735955E-007  0.1493572E+04  0.7818608E-02  0.8888739E-01
         -1   -1    0    0    0  501 -0.00000000000E+00  0.00000000000E+00  0.12069745283E+04  0.12069745283E+04  0.00000000000E+00 0.  1.
          2   -1    0    0  501    0  0.00000000000E+00 -0.00000000000E+00 -0.46205534081E+03  0.46205534081E+03  0.00000000000E+00 0. -1.
         24    2    1    2    0    0 -0.14391985090E+03  0.11422907558E+03  0.70091533725E+03  0.72949299292E+03  0.84359418808E+02 0.  0.
        254    2    1    2    0    0  0.14391985090E+03 -0.11422907558E+03  0.44003850259E+02  0.93953687621E+03  0.92034341294E+03 0.  0.
         23    2    4    4    0    0 -0.28116131665E+03 -0.11743048322E+03 -0.25840582069E+03  0.41011664382E+03  0.92630928971E+02 0.  0.
         23    2    4    4    0    0  0.42508116754E+03  0.32014076414E+01  0.30240967095E+03  0.52942023239E+03  0.90166098792E+02 0.  0.
          4    1    3    3  502    0 -0.16537703037E+02  0.12132704748E+02  0.17848368745E+02  0.27189380521E+02  0.00000000000E+00 0. -1.
         -3    1    3    3    0  502 -0.12738214786E+03  0.10209637083E+03  0.68306696850E+03  0.70230361240E+03  0.00000000000E+00 0.  1.
         13    1    5    5    0    0 -0.26716277863E+03 -0.89032758514E+02 -0.25182118569E+03  0.37777862822E+03  0.00000000000E+00 0. -1.
        -13    1    5    5    0    0 -0.13998538015E+02 -0.28397724706E+02 -0.65846350031E+01  0.32338015603E+02  0.00000000000E+00 0.  1.
          1    1    6    6  503    0  0.42300379717E+03 -0.71180810532E+01  0.29995997307E+03  0.51861244195E+03  0.00000000000E+00 0. -1.
         -1    1    6    6    0  503  0.20773703718E+01  0.10319488695E+02  0.24496978802E+01  0.10807790444E+02  0.00000000000E+00 0.  1.
<mgrwt>
<rscale>  0 0.14935716E+04</rscale>
<asrwt>0</asrwt>
<pdfrwt beam="1">  1        2 0.71085437E-01 0.14935716E+04</pdfrwt>
<pdfrwt beam="2">  1       -1 0.18568839E+00 0.14935716E+04</pdfrwt>
<totfact> 0.14133221E+01</totfact>
</mgrwt>
</event>
<event>
12    7  0.1735955E-007  0.1636558E+04  0.7818608E-02  0.8798399E-01
         -1   -1    0    0    0  501 -0.00000000000E+00  0.00000000000E+00  0.31771316283E+03  0.31771316283E+03  0.00000000000E+00 0.  1.
          2   -1    0    0  501    0  0.00000000000E+00 -0.00000000000E+00 -0.21074995917E+04  0.21074995917E+04  0.00000000000E+00 0. -1.
         24    2    1    2    0    0 -0.43247195512E+03 -0.84316896566E+01 -0.11742094476E+04  0.12537341628E+04  0.77320364934E+02 0.  0.
        254    2    1    2    0    0  0.43247195512E+03  0.84316896566E+01 -0.61557698131E+03  0.11714785917E+04  0.89795544747E+03 0.  0.
         23    2    4    4    0    0  0.15525500144E+03  0.12963672189E+03  0.20001324325E+03  0.29684458943E+03  0.84862345386E+02 0.  0.
         23    2    4    4    0    0  0.27721695368E+03 -0.12120503224E+03 -0.81559022456E+03  0.87463400231E+03  0.90869820899E+02 0.  0.
          4    1    3    3  502    0 -0.41284297909E+03 -0.21678843565E+02 -0.11347845563E+04  0.12077438829E+04  0.00000000000E+00 0. -1.
         -3    1    3    3    0  502 -0.19628976036E+02  0.13247153909E+02 -0.39424891344E+02  0.45990279890E+02  0.00000000000E+00 0.  1.
         13    1    5    5    0    0  0.20780770930E+02 -0.37671570689E+01  0.53047869271E+02  0.57097358495E+02  0.00000000000E+00 0. -1.
        -13    1    5    5    0    0  0.13447423051E+03  0.13340387896E+03  0.14696537398E+03  0.23974723094E+03  0.00000000000E+00 0.  1.
          3    1    6    6  503    0  0.18554382799E+03 -0.36168758421E+02 -0.53595854293E+03  0.56831879340E+03  0.00000000000E+00 0. -1.
         -3    1    6    6    0  503  0.91673125692E+02 -0.85036273818E+02 -0.27963168163E+03  0.30631520891E+03  0.00000000000E+00 0.  1.
<mgrwt>
<rscale>  0 0.16365578E+04</rscale>
<asrwt>0</asrwt>
<pdfrwt beam="1">  1        2 0.32423071E+00 0.16365578E+04</pdfrwt>
<pdfrwt beam="2">  1       -1 0.48878948E-01 0.16365578E+04</pdfrwt>
<totfact> 0.26572374E+01</totfact>
</mgrwt>
</event>
<event>
12    7  0.1735955E-007  0.1337148E+04  0.7818608E-02  0.9000614E-01
          2   -1    0    0  501    0  0.00000000000E+00  0.00000000000E+00  0.67083929021E+03  0.67083929021E+03  0.00000000000E+00 0. -1.
         -1   -1    0    0    0  501 -0.00000000000E+00 -0.00000000000E+00 -0.66631628167E+03  0.66631628167E+03  0.00000000000E+00 0.  1.
         24    2    1    2    0    0 -0.33290981608E+03 -0.42516814429E+02  0.13663340825E+03  0.37198643001E+03  0.84074911301E+02 0.  0.
        254    2    1    2    0    0  0.33290981608E+03  0.42516814429E+02 -0.13211039971E+03  0.96516914188E+03  0.89524392741E+03 0.  0.
         23    2    4    4    0    0 -0.18692082624E+03 -0.11888646369E+03 -0.30518691742E+03  0.38766788379E+03  0.89855144663E+02 0.  0.
         23    2    4    4    0    0  0.51983064232E+03  0.16140327812E+03  0.17307651771E+03  0.57750125809E+03  0.85307134707E+02 0.  0.
          4    1    3    3  502    0 -0.15951973577E+03 -0.36248382734E+00  0.24904015578E+02  0.16145243103E+03  0.00000000000E+00 0. -1.
         -3    1    3    3    0  502 -0.17339008031E+03 -0.42154330601E+02  0.11172939267E+03  0.21053399897E+03  0.00000000000E+00 0.  1.
         13    1    5    5    0    0 -0.12825857600E+03 -0.10185007567E+03 -0.27366120361E+03  0.31892656614E+03  0.00000000000E+00 0. -1.
        -13    1    5    5    0    0 -0.58662250238E+02 -0.17036388028E+02 -0.31525713813E+02  0.68741317644E+02  0.00000000000E+00 0.  1.
          4    1    6    6  503    0  0.40241310391E+03  0.12011579181E+03  0.16982101930E+03  0.45299369558E+03  0.00000000000E+00 0. -1.
         -4    1    6    6    0  503  0.11741753841E+03  0.41287486313E+02  0.32554984080E+01  0.12450756251E+03  0.00000000000E+00 0.  1.
<mgrwt>
<rscale>  0 0.13371479E+04</rscale>
<asrwt>0</asrwt>
<pdfrwt beam="1">  1        2 0.10320604E+00 0.13371479E+04</pdfrwt>
<pdfrwt beam="2">  1       -1 0.10251020E+00 0.13371479E+04</pdfrwt>
<totfact> 0.43483234E+01</totfact>
</mgrwt>
</event>
<event>
12    7  0.1735955E-007  0.2126704E+04  0.7818608E-02  0.8549571E-01
          2   -1    0    0  501    0  0.00000000000E+00  0.00000000000E+00  0.13234650668E+04  0.13234650668E+04  0.00000000000E+00 0. -1.
         -1   -1    0    0    0  501 -0.00000000000E+00 -0.00000000000E+00 -0.85436125115E+03  0.85436125115E+03  0.00000000000E+00 0.  1.
         24    2    1    2    0    0  0.77278378225E+03 -0.30538220355E+03 -0.22077101723E+03  0.86353483018E+03  0.80619455019E+02 0.  0.
        254    2    1    2    0    0 -0.77278378225E+03  0.30538220355E+03  0.68987483289E+03  0.13142914878E+04  0.74898715975E+03 0.  0.
         23    2    4    4    0    0 -0.37891719279E+03 -0.14506200477E+02 -0.66967262432E+02  0.39839244083E+03  0.10219223957E+03 0.  0.
         23    2    4    4    0    0 -0.39386658946E+03  0.31988840402E+03  0.75684209532E+03  0.91589904696E+03  0.92744949466E+02 0.  0.
          2    1    3    3  502    0  0.16354786282E+02 -0.21226342885E+02 -0.71873951922E+01  0.27743383288E+02  0.00000000000E+00 0. -1.
         -1    1    3    3    0  502  0.75642899597E+03 -0.28415586066E+03 -0.21358362203E+03  0.83579144689E+03  0.00000000000E+00 0.  1.
         13    1    5    5    0    0 -0.36408337714E+03 -0.75689536329E+01 -0.85085904894E+02  0.37397006001E+03  0.00000000000E+00 0. -1.
        -13    1    5    5    0    0 -0.14833815649E+02 -0.69372468439E+01  0.18118642462E+02  0.24422380824E+02  0.00000000000E+00 0.  1.
          1    1    6    6  503    0 -0.29894473810E+03  0.24094839224E+03  0.49540264131E+03  0.62677576627E+03  0.00000000000E+00 0. -1.
         -1    1    6    6    0  503 -0.94921851361E+02  0.78940011779E+02  0.26143945401E+03  0.28912328069E+03  0.00000000000E+00 0.  1.
<mgrwt>
<rscale>  0 0.21267038E+04</rscale>
<asrwt>0</asrwt>
<pdfrwt beam="1">  1        2 0.20361001E+00 0.21267038E+04</pdfrwt>
<pdfrwt beam="2">  1       -1 0.13144019E+00 0.21267038E+04</pdfrwt>
<totfact> 0.82803255E+00</totfact>
</mgrwt>
</event>
<event>
12    7  0.1735955E-007  0.2283603E+04  0.7818608E-02  0.8484415E-01
          2   -1    0    0  501    0  0.00000000000E+00  0.00000000000E+00  0.24645278598E+04  0.24645278598E+04  0.00000000000E+00 0. -1.
         -1   -1    0    0    0  501 -0.00000000000E+00 -0.00000000000E+00 -0.52898980879E+03  0.52898980879E+03  0.00000000000E+00 0.  1.
         24    2    1    2    0    0 -0.79833037857E+03 -0.27403412315E+02  0.12015196329E+03  0.81167579768E+03  0.79364764888E+02 0.  0.
        254    2    1    2    0    0  0.79833037857E+03  0.27403412315E+02  0.18153860878E+04  0.21818418710E+04  0.90924417065E+03 0.  0.
         23    2    4    4    0    0  0.76547878322E+03 -0.22912473818E+03  0.81716035270E+03  0.11465351580E+04  0.91301222964E+02 0.  0.
         23    2    4    4    0    0  0.32851595350E+02  0.25652815050E+03  0.99822573506E+03  0.10353067130E+04  0.92300879881E+02 0.  0.
          2    1    3    3  502    0 -0.30955039087E+03 -0.49016493694E+02  0.41734669462E+02  0.31617375567E+03  0.00000000000E+00 0. -1.
         -1    1    3    3    0  502 -0.48877998770E+03  0.21613081380E+02  0.78417293826E+02  0.49550204201E+03  0.00000000000E+00 0.  1.
         13    1    5    5    0    0  0.59267754579E+03 -0.13732992670E+03  0.62873484024E+03  0.87489066825E+03  0.00000000000E+00 0.  1.
        -13    1    5    5    0    0  0.17280123742E+03 -0.91794811479E+02  0.18842551247E+03  0.27164448976E+03  0.00000000000E+00 0. -1.
          3    1    6    6  503    0  0.54207843951E+02  0.79218812442E+02  0.35485375049E+03  0.36760752826E+03  0.00000000000E+00 0. -1.
         -3    1    6    6    0  503 -0.21356248602E+02  0.17730933805E+03  0.64337198457E+03  0.66769918470E+03  0.00000000000E+00 0.  1.
<mgrwt>
<rscale>  0 0.22836025E+04</rscale>
<asrwt>0</asrwt>
<pdfrwt beam="1">  1        2 0.37915813E+00 0.22836025E+04</pdfrwt>
<pdfrwt beam="2">  1       -1 0.81383049E-01 0.22836025E+04</pdfrwt>
<totfact> 0.56687967E+00</totfact>
</mgrwt>
</event>
<event>
12    7  0.1735955E-007  0.1748616E+04  0.7818608E-02  0.8734112E-01
         -1   -1    0    0    0  501 -0.00000000000E+00  0.00000000000E+00  0.47927773199E+03  0.47927773199E+03  0.00000000000E+00 0.  1.
          2   -1    0    0  501    0  0.00000000000E+00 -0.00000000000E+00 -0.15949309567E+04  0.15949309567E+04  0.00000000000E+00 0. -1.
         24    2    1    2    0    0 -0.23869405614E+03  0.33864858269E+03  0.17263593273E+03  0.45593239445E+03  0.80084131018E+02 0.  0.
        254    2    1    2    0    0  0.23869405614E+03 -0.33864858269E+03 -0.12882891574E+04  0.16182762942E+04  0.88739590730E+03 0.  0.
         23    2    4    4    0    0  0.41288469236E+03  0.35468526159E+02 -0.23925570042E+03  0.48733319577E+03  0.92296088637E+02 0.  0.
         23    2    4    4    0    0 -0.17419063623E+03 -0.37411710885E+03 -0.10490334570E+04  0.11309430984E+04  0.90857631174E+02 0.  0.
          4    1    3    3  502    0 -0.16661383998E+03  0.23288118832E+03  0.78080380358E+02  0.29680021116E+03  0.00000000000E+00 0. -1.
         -3    1    3    3    0  502 -0.72080216158E+02  0.10576739437E+03  0.94555552374E+02  0.15913218329E+03  0.00000000000E+00 0.  1.
         13    1    5    5    0    0  0.33570776035E+03  0.47393321878E+02 -0.15606619765E+03  0.37323248166E+03  0.00000000000E+00 0. -1.
        -13    1    5    5    0    0  0.77176932009E+02 -0.11924795718E+02 -0.83189502776E+02  0.11410071411E+03  0.00000000000E+00 0.  1.
          3    1    6    6  503    0 -0.96404681337E+02 -0.29720086919E+03 -0.80519669445E+03  0.86369203770E+03  0.00000000000E+00 0. -1.
         -3    1    6    6    0  503 -0.77785954888E+02 -0.76916239656E+02 -0.24383676253E+03  0.26725106073E+03  0.00000000000E+00 0.  1.
<mgrwt>
<rscale>  0 0.17486165E+04</rscale>
<asrwt>0</asrwt>
<pdfrwt beam="1">  1        2 0.24537399E+00 0.17486165E+04</pdfrwt>
<pdfrwt beam="2">  1       -1 0.73735037E-01 0.17486165E+04</pdfrwt>
<totfact> 0.22458089E+01</totfact>
</mgrwt>
</event>
<event>
12    7  0.1735955E-007  0.2104384E+04  0.7818608E-02  0.8559315E-01
          2   -1    0    0  501    0  0.00000000000E+00  0.00000000000E+00  0.23188437109E+04  0.23188437109E+04  0.00000000000E+00 0. -1.
         -1   -1    0    0    0  501 -0.00000000000E+00 -0.00000000000E+00 -0.47743964431E+03  0.47743964431E+03  0.00000000000E+00 0.  1.
         24    2    1    2    0    0 -0.79953670131E+03  0.27400704025E+03  0.66034004454E+03  0.10767008855E+04  0.94324055652E+02 0.  0.
        254    2    1    2    0    0  0.79953670131E+03 -0.27400704025E+03  0.11810640220E+04  0.17195824697E+04  0.92071322965E+03 0.  0.
         23    2    4    4    0    0  0.43461971576E+03  0.31364475042E+03  0.42276549002E+03  0.68895815125E+03  0.93087850032E+02 0.  0.
         23    2    4    4    0    0  0.36491698554E+03 -0.58765179066E+03  0.75829853199E+03  0.10306243185E+04  0.93117070445E+02 0.  0.
          2    1    3    3  502    0 -0.69433943799E+03  0.26942393123E+03  0.58860731859E+03  0.94929188629E+03  0.00000000000E+00 0. -1.
         -1    1    3    3    0  502 -0.10519726331E+03  0.45831090180E+01  0.71732725953E+02  0.12740899917E+03  0.00000000000E+00 0.  1.
         13    1    5    5    0    0  0.28273788443E+03  0.18575786225E+03  0.21119250311E+03  0.39880943827E+03  0.00000000000E+00 0.  1.
        -13    1    5    5    0    0  0.15188183133E+03  0.12788688817E+03  0.21157298691E+03  0.29014871298E+03  0.00000000000E+00 0. -1.
          3    1    6    6  503    0  0.99751998074E+02 -0.92730199371E+02  0.13626056581E+03  0.19265589217E+03  0.00000000000E+00 0. -1.
         -3    1    6    6    0  503  0.26516498747E+03 -0.49492159129E+03  0.62203796618E+03  0.83796842630E+03  0.00000000000E+00 0.  1.
<mgrwt>
<rscale>  0 0.21043839E+04</rscale>
<asrwt>0</asrwt>
<pdfrwt beam="1">  1        2 0.35674518E+00 0.21043839E+04</pdfrwt>
<pdfrwt beam="2">  1       -1 0.73452254E-01 0.21043839E+04</pdfrwt>
<totfact> 0.86617620E+00</totfact>
</mgrwt>
</event>
<event>
12    7  0.1735955E-007  0.2303539E+04  0.7818608E-02  0.8476527E-01
          2   -1    0    0  501    0  0.00000000000E+00  0.00000000000E+00  0.12001998093E+04  0.12001998093E+04  0.00000000000E+00 0. -1.
         -1   -1    0    0    0  501 -0.00000000000E+00 -0.00000000000E+00 -0.11052931249E+04  0.11052931249E+04  0.00000000000E+00 0.  1.
         24    2    1    2    0    0  0.11875323393E+03 -0.95036750401E+03  0.24224502147E+03  0.99126982144E+03  0.81440071280E+02 0.  0.
        254    2    1    2    0    0 -0.11875323393E+03  0.95036750401E+03 -0.14733833701E+03  0.13142231128E+04  0.88779112485E+03 0.  0.
         23    2    4    4    0    0 -0.22287807891E+03 -0.88906993956E+02 -0.59190685059E+02  0.26209362416E+03  0.87237830073E+02 0.  0.
         23    2    4    4    0    0  0.10412484498E+03  0.10392744980E+04 -0.88147651950E+02  0.10521294886E+04  0.90955960844E+02 0.  0.
          4    1    3    3  502    0  0.88559200611E+02 -0.82433461563E+03  0.23371498121E+03  0.86139014562E+03  0.00000000000E+00 0. -1.
         -3    1    3    3    0  502  0.30194033317E+02 -0.12603288839E+03  0.85300402676E+01  0.12987967582E+03  0.00000000000E+00 0.  1.
         13    1    5    5    0    0 -0.10662683219E+03 -0.18395330600E+02 -0.64604996593E+02  0.12602172478E+03  0.00000000000E+00 0. -1.
        -13    1    5    5    0    0 -0.11625124671E+03 -0.70511663356E+02  0.54143115342E+01  0.13607189938E+03  0.00000000000E+00 0.  1.
          1    1    6    6  503    0  0.11593919825E+03  0.94812127022E+03 -0.65279247817E+02  0.95741173010E+03  0.00000000000E+00 0. -1.
         -1    1    6    6    0  503 -0.11814353268E+02  0.91153227746E+02 -0.22868404133E+02  0.94717758521E+02  0.00000000000E+00 0.  1.
<mgrwt>
<rscale>  0 0.23035387E+04</rscale>
<asrwt>0</asrwt>
<pdfrwt beam="1">  1        2 0.18464612E+00 0.23035387E+04</pdfrwt>
<pdfrwt beam="2">  1       -1 0.17004510E+00 0.23035387E+04</pdfrwt>
<totfact> 0.48102707E+00</totfact>
</mgrwt>
</event>
<event>
12    7  0.1735955E-007  0.1178023E+04  0.7818608E-02  0.9132314E-01
          2   -1    0    0  501    0  0.00000000000E+00  0.00000000000E+00  0.14607242403E+04  0.14607242403E+04  0.00000000000E+00 0. -1.
         -1   -1    0    0    0  501 -0.00000000000E+00 -0.00000000000E+00 -0.23750847202E+03  0.23750847202E+03  0.00000000000E+00 0.  1.
         24    2    1    2    0    0 -0.77069396126E+02  0.40271623888E+02 -0.65112043840E+02  0.13517173411E+03  0.80438323823E+02 0.  0.
        254    2    1    2    0    0  0.77069396126E+02 -0.40271623888E+02  0.12883278121E+04  0.15630609782E+04  0.88080053052E+03 0.  0.
         23    2    4    4    0    0 -0.29717338778E+03  0.24926280845E+03  0.53379874989E+03  0.66764123786E+03  0.10178284250E+03 0.  0.
         23    2    4    4    0    0  0.37424278391E+03 -0.28953443234E+03  0.75452906219E+03  0.89541974030E+03  0.92598902892E+02 0.  0.
          2    1    3    3  502    0 -0.74776707728E+02  0.87504618029E+01 -0.16315647740E+02  0.77034582893E+02  0.00000000000E+00 0. -1.
         -1    1    3    3    0  502 -0.22926883985E+01  0.31521162085E+02 -0.48796396100E+02  0.58137151217E+02  0.00000000000E+00 0.  1.
         13    1    5    5    0    0 -0.21660128208E+03  0.19730277451E+03  0.32314425175E+03  0.43619572175E+03  0.00000000000E+00 0. -1.
        -13    1    5    5    0    0 -0.80572105695E+02  0.51960033934E+02  0.21065449814E+03  0.23144551611E+03  0.00000000000E+00 0.  1.
          2    1    6    6  503    0  0.23229680014E+03 -0.19034748370E+03  0.55642934344E+03  0.63230339406E+03  0.00000000000E+00 0. -1.
         -2    1    6    6    0  503  0.14194598376E+03 -0.99186948637E+02  0.19809971875E+03  0.26311634623E+03  0.00000000000E+00 0.  1.
<mgrwt>
<rscale>  0 0.11780227E+04</rscale>
<asrwt>0</asrwt>
<pdfrwt beam="1">  1        2 0.22472680E+00 0.11780227E+04</pdfrwt>
<pdfrwt beam="2">  1       -1 0.36539766E-01 0.11780227E+04</pdfrwt>
<totfact> 0.10796615E+02</totfact>
</mgrwt>
</event>
<event>
12    7  0.1735955E-007  0.2437320E+04  0.7818608E-02  0.8425662E-01
          4   -1    0    0  501    0  0.00000000000E+00  0.00000000000E+00  0.87506588002E+03  0.87506588002E+03  0.00000000000E+00 0. -1.
         -3   -1    0    0    0  501 -0.00000000000E+00 -0.00000000000E+00 -0.16971658926E+04  0.16971658926E+04  0.00000000000E+00 0.  1.
         24    2    1    2    0    0 -0.22501277215E+03  0.10557481694E+03  0.72163397762E+03  0.76871798591E+03  0.91623984829E+02 0.  0.
        254    2    1    2    0    0  0.22501277215E+03 -0.10557481694E+03 -0.15437339902E+04  0.18035137868E+04  0.89876056701E+03 0.  0.
         23    2    4    4    0    0 -0.22113781683E+03  0.10288645219E+02 -0.59256382554E+02  0.24651013087E+03  0.90819246289E+02 0.  0.
         23    2    4    4    0    0  0.44615058898E+03 -0.11586346216E+03 -0.14844776077E+04  0.15570036559E+04  0.90066235695E+02 0.  0.
          2    1    3    3  502    0 -0.10192159215E+03  0.84427474919E+02  0.27896848963E+03  0.30877083359E+03  0.00000000000E+00 0. -1.
         -1    1    3    3    0  502 -0.12309118000E+03  0.21147342020E+02  0.44266548799E+03  0.45994715232E+03  0.00000000000E+00 0.  1.
         13    1    5    5    0    0 -0.21637400486E+03  0.29232450684E+02 -0.61531764317E+02  0.22684444929E+03  0.00000000000E+00 0. -1.
        -13    1    5    5    0    0 -0.47638119673E+01 -0.18943805465E+02  0.22753817637E+01  0.19665681583E+02  0.00000000000E+00 0.  1.
          2    1    6    6  503    0  0.34176726618E+03 -0.49572928950E+02 -0.10554776616E+04  0.11105383531E+04  0.00000000000E+00 0. -1.
         -2    1    6    6    0  503  0.10438332280E+03 -0.66290533208E+02 -0.42899994606E+03  0.44646530278E+03  0.00000000000E+00 0.  1.
<mgrwt>
<rscale>  0 0.24373198E+04</rscale>
<asrwt>0</asrwt>
<pdfrwt beam="1">  1        4 0.13462552E+00 0.24373198E+04</pdfrwt>
<pdfrwt beam="2">  1       -3 0.26110244E+00 0.24373198E+04</pdfrwt>
<totfact> 0.51079336E-02</totfact>
</mgrwt>
</event>
<event>
12    7  0.1735955E-007  0.1430437E+04  0.7818608E-02  0.8932077E-01
         -1   -1    0    0    0  501 -0.00000000000E+00  0.00000000000E+00  0.32186523149E+03  0.32186523149E+03  0.00000000000E+00 0.  1.
          2   -1    0    0  501    0  0.00000000000E+00 -0.00000000000E+00 -0.15892913314E+04  0.15892913314E+04  0.00000000000E+00 0. -1.
         24    2    1    2    0    0 -0.41699396104E+03  0.47114543339E+02 -0.34136988133E+03  0.54687687111E+03  0.80231991956E+02 0.  0.
        254    2    1    2    0    0  0.41699396104E+03 -0.47114543339E+02 -0.92605621858E+03  0.13642796918E+04  0.90971161018E+03 0.  0.
         23    2    4    4    0    0  0.39287508168E+03 -0.53183056827E+02  0.27093616870E+02  0.40649583168E+03  0.85589308674E+02 0.  0.
         23    2    4    4    0    0  0.24118879368E+02  0.60685134882E+01 -0.95314983545E+03  0.95778386011E+03  0.90756634237E+02 0.  0.
          4    1    3    3  502    0 -0.31254880646E+03  0.64693408871E+02 -0.27924634878E+03  0.42408786457E+03  0.00000000000E+00 0. -1.
         -3    1    3    3    0  502 -0.10444515459E+03 -0.17578865533E+02 -0.62123532548E+02  0.12278900654E+03  0.00000000000E+00 0.  1.
         13    1    5    5    0    0  0.65053599755E+02  0.22888819722E+02  0.12716588642E+01  0.68974531718E+02  0.00000000000E+00 0. -1.
        -13    1    5    5    0    0  0.32782148192E+03 -0.76071876548E+02  0.25821958006E+02  0.33752129996E+03  0.00000000000E+00 0.  1.
          3    1    6    6  503    0  0.26641388472E+02 -0.21770892835E+02 -0.14042381938E+03  0.14457726102E+03  0.00000000000E+00 0. -1.
         -3    1    6    6    0  503 -0.25225091048E+01  0.27839406323E+02 -0.81272601607E+03  0.81320659909E+03  0.00000000000E+00 0.  1.
<mgrwt>
<rscale>  0 0.14304372E+04</rscale>
<asrwt>0</asrwt>
<pdfrwt beam="1">  1        2 0.24450636E+00 0.14304372E+04</pdfrwt>
<pdfrwt beam="2">  1       -1 0.49517728E-01 0.14304372E+04</pdfrwt>
<totfact> 0.51150157E+01</totfact>
</mgrwt>
</event>
<event>
12    7  0.1735955E-007  0.2139406E+04  0.7818608E-02  0.8544081E-01
          2   -1    0    0  501    0  0.00000000000E+00  0.00000000000E+00  0.17585002295E+04  0.17585002295E+04  0.00000000000E+00 0. -1.
         -1   -1    0    0    0  501 -0.00000000000E+00 -0.00000000000E+00 -0.65070487028E+03  0.65070487028E+03  0.00000000000E+00 0.  1.
         24    2    1    2    0    0  0.65350700046E+03 -0.17556014337E+03 -0.17619922076E+03  0.70381201896E+03  0.80077643881E+02 0.  0.
        254    2    1    2    0    0 -0.65350700046E+03  0.17556014337E+03  0.12839945800E+04  0.17053930808E+04  0.89545000701E+03 0.  0.
         23    2    4    4    0    0 -0.61414350618E+03  0.48589790772E+03  0.80969909679E+03  0.11301135484E+04  0.90966928704E+02 0.  0.
         23    2    4    4    0    0 -0.39363494277E+02 -0.31033776435E+03  0.47429548317E+03  0.57527953235E+03  0.90173844999E+02 0.  0.
          2    1    3    3  502    0  0.96865375327E+02  0.19500941995E+01 -0.31829118710E+02  0.10197939303E+03  0.00000000000E+00 0. -1.
         -1    1    3    3    0  502  0.55664162513E+03 -0.17751023757E+03 -0.14437010205E+03  0.60183262594E+03  0.00000000000E+00 0.  1.
         13    1    5    5    0    0 -0.23418794045E+03  0.14263801602E+03  0.24351455451E+03  0.36672732830E+03  0.00000000000E+00 0.  1.
        -13    1    5    5    0    0 -0.37995556573E+03  0.34325989169E+03  0.56618454229E+03  0.76338622014E+03  0.00000000000E+00 0. -1.
          2    1    6    6  503    0 -0.55213732703E+02 -0.10098764964E+03  0.15267154377E+03  0.19119535020E+03  0.00000000000E+00 0. -1.
         -2    1    6    6    0  503  0.15850238426E+02 -0.20935011470E+03  0.32162393939E+03  0.38408418215E+03  0.00000000000E+00 0.  1.
<mgrwt>
<rscale>  0 0.21394061E+04</rscale>
<asrwt>0</asrwt>
<pdfrwt beam="1">  1        2 0.27053850E+00 0.21394061E+04</pdfrwt>
<pdfrwt beam="2">  1       -1 0.10010844E+00 0.21394061E+04</pdfrwt>
<totfact> 0.90487588E+00</totfact>
</mgrwt>
</event>
<event>
12    7  0.1735955E-007  0.1600824E+04  0.7818608E-02  0.8820042E-01
          2   -1    0    0  501    0  0.00000000000E+00  0.00000000000E+00  0.15646074213E+04  0.15646074213E+04  0.00000000000E+00 0. -1.
         -1   -1    0    0    0  501 -0.00000000000E+00 -0.00000000000E+00 -0.40946967377E+03  0.40946967377E+03  0.00000000000E+00 0.  1.
         24    2    1    2    0    0  0.67137438549E+02 -0.33916160888E+03  0.90697825118E+03  0.97399923140E+03  0.80789368525E+02 0.  0.
        254    2    1    2    0    0 -0.67137438549E+02  0.33916160888E+03  0.24815949633E+03  0.10000778636E+04  0.90500528459E+03 0.  0.
         23    2    4    4    0    0 -0.15378634105E+02  0.59259720158E+03 -0.40588985393E+02  0.60114044817E+03  0.91183479781E+02 0.  0.
         23    2    4    4    0    0 -0.51758804444E+02 -0.25343559270E+03  0.28874848173E+03  0.39893741547E+03  0.94163699346E+02 0.  0.
          2    1    3    3  502    0  0.31399288789E+02 -0.30044102775E+03  0.75783337713E+03  0.81581992742E+03  0.00000000000E+00 0. -1.
         -1    1    3    3    0  502  0.35738149760E+02 -0.38720581128E+02  0.14914487405E+03  0.15817930397E+03  0.00000000000E+00 0.  1.
         13    1    5    5    0    0 -0.24305758130E+02  0.47423415787E+03  0.24974824982E+01  0.47486318429E+03  0.00000000000E+00 0. -1.
        -13    1    5    5    0    0  0.89271240251E+01  0.11836304371E+03 -0.43086467891E+02  0.12627726389E+03  0.00000000000E+00 0.  1.
          3    1    6    6  503    0 -0.67003647841E+02 -0.18856297113E+03  0.25527763698E+03  0.32436423176E+03  0.00000000000E+00 0. -1.
         -3    1    6    6    0  503  0.15244843397E+02 -0.64872621572E+02  0.33470844749E+02  0.74573183706E+02  0.00000000000E+00 0.  1.
<mgrwt>
<rscale>  0 0.16008239E+04</rscale>
<asrwt>0</asrwt>
<pdfrwt beam="1">  1        2 0.24070883E+00 0.16008239E+04</pdfrwt>
<pdfrwt beam="2">  1       -1 0.62995335E-01 0.16008239E+04</pdfrwt>
<totfact> 0.32594692E+01</totfact>
</mgrwt>
</event>
<event>
12    7  0.1735955E-007  0.1860729E+04  0.7818608E-02  0.8674655E-01
         -1   -1    0    0    0  501 -0.00000000000E+00  0.00000000000E+00  0.55769482564E+03  0.55769482564E+03  0.00000000000E+00 0.  1.
          2   -1    0    0  501    0  0.00000000000E+00 -0.00000000000E+00 -0.15520642733E+04  0.15520642733E+04  0.00000000000E+00 0. -1.
         24    2    1    2    0    0 -0.46170296245E+03 -0.11217372164E+03 -0.97950997369E+03  0.10915808107E+04  0.79726459285E+02 0.  0.
        254    2    1    2    0    0  0.46170296245E+03  0.11217372164E+03 -0.14859473929E+02  0.10181782882E+04  0.90039638675E+03 0.  0.
         23    2    4    4    0    0 -0.17381243367E+03  0.16403187170E+03 -0.22533227399E+03  0.34103779415E+03  0.91732907432E+02 0.  0.
         23    2    4    4    0    0  0.63551539613E+03 -0.51858150063E+02  0.21047280006E+03  0.67714049407E+03  0.87472068095E+02 0.  0.
          2    1    3    3  502    0 -0.36922513388E+03 -0.11629493150E+03 -0.74757789238E+03  0.84185771706E+03  0.00000000000E+00 0. -1.
         -1    1    3    3    0  502 -0.92477828569E+02  0.41212098641E+01 -0.23193208131E+03  0.24972309362E+03  0.00000000000E+00 0.  1.
         13    1    5    5    0    0 -0.86696101768E+02  0.10257256570E+03 -0.66820538211E+02  0.15000776521E+03  0.00000000000E+00 0. -1.
        -13    1    5    5    0    0 -0.87116331906E+02  0.61459305998E+02 -0.15851173578E+03  0.19103002894E+03  0.00000000000E+00 0.  1.
          1    1    6    6  503    0  0.11459709391E+03 -0.37935141264E+02  0.20233971284E+02  0.12239682377E+03  0.00000000000E+00 0. -1.
         -1    1    6    6    0  503  0.52091830222E+03 -0.13923008799E+02  0.19023882877E+03  0.55474367030E+03  0.00000000000E+00 0.  1.
<mgrwt>
<rscale>  0 0.18607291E+04</rscale>
<asrwt>0</asrwt>
<pdfrwt beam="1">  1        2 0.23877912E+00 0.18607291E+04</pdfrwt>
<pdfrwt beam="2">  1       -1 0.85799204E-01 0.18607291E+04</pdfrwt>
<totfact> 0.17036435E+01</totfact>
</mgrwt>
</event>
<event>
12    7  0.1735955E-007  0.1200572E+04  0.7818608E-02  0.9112356E-01
         -1   -1    0    0    0  501 -0.00000000000E+00  0.00000000000E+00  0.75026060926E+03  0.75026060926E+03  0.00000000000E+00 0.  1.
          2   -1    0    0  501    0  0.00000000000E+00 -0.00000000000E+00 -0.48029059971E+03  0.48029059971E+03  0.00000000000E+00 0. -1.
         24    2    1    2    0    0  0.19569873186E+03  0.15599195816E+03  0.94649674806E+02  0.28255144647E+03  0.90803492781E+02 0.  0.
        254    2    1    2    0    0 -0.19569873186E+03 -0.15599195816E+03  0.17532033475E+03  0.94799976250E+03  0.89740450481E+03 0.  0.
         23    2    4    4    0    0 -0.29864364915E+03 -0.21065131320E+03 -0.27976952405E+03  0.46855983209E+03  0.87836921273E+02 0.  0.
         23    2    4    4    0    0  0.10294491729E+03  0.54659355040E+02  0.45508985880E+03  0.47943993040E+03  0.95763073234E+02 0.  0.
          2    1    3    3  502    0  0.35192535922E+02  0.79906082966E+02  0.44401974716E+02  0.97954234407E+02  0.00000000000E+00 0. -1.
         -1    1    3    3    0  502  0.16050619594E+03  0.76085875194E+02  0.50247700090E+02  0.18459721207E+03  0.00000000000E+00 0.  1.
         13    1    5    5    0    0 -0.28802833127E+03 -0.20968788824E+03 -0.24548642511E+03  0.43265796537E+03  0.00000000000E+00 0. -1.
        -13    1    5    5    0    0 -0.10615317880E+02 -0.96342495967E+00 -0.34283098940E+02  0.35901866724E+02  0.00000000000E+00 0.  1.
          4    1    6    6  503    0  0.42510843211E+02  0.19756215588E+02  0.50613613940E+02  0.68987084015E+02  0.00000000000E+00 0.  1.
         -4    1    6    6    0  503  0.60434074076E+02  0.34903139452E+02  0.40447624486E+03  0.41045284639E+03  0.00000000000E+00 0. -1.
<mgrwt>
<rscale>  0 0.12005717E+04</rscale>
<asrwt>0</asrwt>
<pdfrwt beam="1">  1        2 0.73890862E-01 0.12005717E+04</pdfrwt>
<pdfrwt beam="2">  1       -1 0.11542471E+00 0.12005717E+04</pdfrwt>
<totfact> 0.49563944E+01</totfact>
</mgrwt>
</event>
<event>
12    7  0.1735955E-007  0.1824236E+04  0.7818608E-02  0.8693516E-01
         -1   -1    0    0    0  501 -0.00000000000E+00  0.00000000000E+00  0.92671123762E+03  0.92671123762E+03  0.00000000000E+00 0.  1.
          2   -1    0    0  501    0  0.00000000000E+00 -0.00000000000E+00 -0.89775490392E+03  0.89775490392E+03  0.00000000000E+00 0. -1.
         24    2    1    2    0    0 -0.29225811769E+03 -0.53093220181E+03  0.33301910494E+03  0.69610081091E+03  0.79691934484E+02 0.  0.
        254    2    1    2    0    0  0.29225811769E+03  0.53093220181E+03 -0.30406277124E+03  0.11283653306E+04  0.90191481873E+03 0.  0.
         23    2    4    4    0    0  0.31067929725E+03  0.13919057666E+03 -0.55201891642E+03  0.65478645939E+03  0.90137566809E+02 0.  0.
         23    2    4    4    0    0 -0.18421179564E+02  0.39174162515E+03  0.24795614518E+03  0.47357887124E+03  0.94835945813E+02 0.  0.
          2    1    3    3  502    0 -0.65315310127E+02 -0.15595551367E+03  0.58451645471E+02  0.17889887322E+03  0.00000000000E+00 0. -1.
         -1    1    3    3    0  502 -0.22694280756E+03 -0.37497668815E+03  0.27456745947E+03  0.51720193770E+03  0.00000000000E+00 0.  1.
         13    1    5    5    0    0  0.26430591845E+03  0.13672608410E+03 -0.51737511074E+03  0.59684893048E+03  0.00000000000E+00 0. -1.
        -13    1    5    5    0    0  0.46373378798E+02  0.24644925622E+01 -0.34643805679E+02  0.57937528914E+02  0.00000000000E+00 0.  1.
          3    1    6    6  503    0 -0.99139403780E+01  0.22606927876E+03  0.19703924853E+03  0.30005011327E+03  0.00000000000E+00 0. -1.
         -3    1    6    6    0  503 -0.85072391857E+01  0.16567234639E+03  0.50916896652E+02  0.17352875797E+03  0.00000000000E+00 0.  1.
<mgrwt>
<rscale>  0 0.18242363E+04</rscale>
<asrwt>0</asrwt>
<pdfrwt beam="1">  1        2 0.13811614E+00 0.18242363E+04</pdfrwt>
<pdfrwt beam="2">  1       -1 0.14257096E+00 0.18242363E+04</pdfrwt>
<totfact> 0.12643106E+01</totfact>
</mgrwt>
</event>
<event>
12    7  0.1735955E-007  0.1612233E+04  0.7818608E-02  0.8813068E-01
          2   -1    0    0  501    0  0.00000000000E+00  0.00000000000E+00  0.26539583917E+04  0.26539583917E+04  0.00000000000E+00 0. -1.
         -1   -1    0    0    0  501 -0.00000000000E+00 -0.00000000000E+00 -0.24485070712E+03  0.24485070712E+03  0.00000000000E+00 0.  1.
         24    2    1    2    0    0  0.36326758442E+03  0.18597421407E+03  0.18007257908E+03  0.45342824951E+03  0.81371355712E+02 0.  0.
        254    2    1    2    0    0 -0.36326758442E+03 -0.18597421407E+03  0.22290351055E+04  0.24453808493E+04  0.91909751954E+03 0.  0.
         23    2    4    4    0    0  0.17448551376E+03  0.87884711578E+02  0.13999099632E+04  0.14163738524E+04  0.90543180479E+02 0.  0.
         23    2    4    4    0    0 -0.53775309818E+03 -0.27385892564E+03  0.82912514222E+03  0.10290069969E+04  0.85028185924E+02 0.  0.
          4    1    3    3  502    0  0.76617055981E+02  0.53720696278E+02  0.77479263588E+02  0.12148713003E+03  0.00000000000E+00 0. -1.
         -3    1    3    3    0  502  0.28665052844E+03  0.13225351779E+03  0.10259331549E+03  0.33194111949E+03  0.00000000000E+00 0.  1.
         13    1    5    5    0    0  0.14325769897E+01 -0.12252844903E+02  0.40427326530E+02  0.42267637921E+02  0.00000000000E+00 0.  1.
        -13    1    5    5    0    0  0.17305293677E+03  0.10013755648E+03  0.13594826367E+04  0.13741062145E+04  0.00000000000E+00 0. -1.
          1    1    6    6  503    0 -0.38015067975E+03 -0.15984872190E+03  0.51847142463E+03  0.66247926109E+03  0.00000000000E+00 0. -1.
         -1    1    6    6    0  503 -0.15760241843E+03 -0.11401020375E+03  0.31065371758E+03  0.36652773579E+03  0.00000000000E+00 0.  1.
<mgrwt>
<rscale>  0 0.16122327E+04</rscale>
<asrwt>0</asrwt>
<pdfrwt beam="1">  1        2 0.40830127E+00 0.16122327E+04</pdfrwt>
<pdfrwt beam="2">  1       -1 0.37669341E-01 0.16122327E+04</pdfrwt>
<totfact> 0.21031073E+01</totfact>
</mgrwt>
</event>
<event>
12    7  0.1735955E-007  0.1569451E+04  0.7818608E-02  0.8839538E-01
          2   -1    0    0  501    0  0.00000000000E+00  0.00000000000E+00  0.29019728942E+04  0.29019728942E+04  0.00000000000E+00 0. -1.
         -1   -1    0    0    0  501 -0.00000000000E+00 -0.00000000000E+00 -0.21219853310E+03  0.21219853310E+03  0.00000000000E+00 0.  1.
         24    2    1    2    0    0  0.30535550312E+02 -0.15817403570E+03 -0.79717523581E+02  0.19655511406E+03  0.79546111747E+02 0.  0.
        254    2    1    2    0    0 -0.30535550312E+02  0.15817403570E+03  0.27694918846E+04  0.29176163132E+04  0.90357523572E+03 0.  0.
         23    2    4    4    0    0  0.53870531454E+02  0.84788821279E+02  0.27692962840E+04  0.27726724127E+04  0.92839762059E+02 0.  0.
         23    2    4    4    0    0 -0.84406081766E+02  0.73385214423E+02  0.19560066716E+00  0.14494390049E+03  0.92189585615E+02 0.  0.
          4    1    3    3  502    0 -0.88329340049E+01 -0.98368847696E+01  0.11924380399E+02  0.17803816248E+02  0.00000000000E+00 0. -1.
         -3    1    3    3    0  502  0.39368484317E+02 -0.14833715093E+03 -0.91641903980E+02  0.17875129781E+03  0.00000000000E+00 0.  1.
         13    1    5    5    0    0  0.27460926661E+01  0.24800609271E+02  0.14074705573E+03  0.14294175367E+03  0.00000000000E+00 0. -1.
        -13    1    5    5    0    0  0.51124438788E+02  0.59988212008E+02  0.26285492282E+04  0.26297306591E+04  0.00000000000E+00 0.  1.
          2    1    6    6  503    0 -0.42533121357E+02 -0.11472127292E+02  0.19816420826E+02  0.48304934027E+02  0.00000000000E+00 0. -1.
         -2    1    6    6    0  503 -0.41872960409E+02  0.84857341715E+02 -0.19620820158E+02  0.96638966468E+02  0.00000000000E+00 0.  1.
<mgrwt>
<rscale>  0 0.15694514E+04</rscale>
<asrwt>0</asrwt>
<pdfrwt beam="1">  1        2 0.44645734E+00 0.15694514E+04</pdfrwt>
<pdfrwt beam="2">  1       -1 0.32645930E-01 0.15694514E+04</pdfrwt>
<totfact> 0.19373581E+01</totfact>
</mgrwt>
</event>
<event>
12    7  0.1735955E-007  0.2181392E+04  0.7818608E-02  0.8526213E-01
         -1   -1    0    0    0  501 -0.00000000000E+00  0.00000000000E+00  0.10628196114E+04  0.10628196114E+04  0.00000000000E+00 0.  1.
          2   -1    0    0  501    0  0.00000000000E+00 -0.00000000000E+00 -0.11193039843E+04  0.11193039843E+04  0.00000000000E+00 0. -1.
         24    2    1    2    0    0 -0.21034537197E+03 -0.35453468803E+03 -0.81299444867E+03  0.91436732042E+03  0.71886038604E+02 0.  0.
        254    2    1    2    0    0  0.21034537197E+03  0.35453468803E+03  0.75651007580E+03  0.12677562753E+04  0.93003142864E+03 0.  0.
         23    2    4    4    0    0 -0.16364793718E+03 -0.67484782117E+02  0.65931863929E+03  0.68880168831E+03  0.91716162988E+02 0.  0.
         23    2    4    4    0    0  0.37399330915E+03  0.42201947014E+03  0.97191436517E+02  0.57895458699E+03  0.88152197924E+02 0.  0.
          2    1    3    3  502    0 -0.10397844239E+03 -0.24303507893E+03 -0.50957443257E+03  0.57405894157E+03  0.00000000000E+00 0. -1.
         -1    1    3    3    0  502 -0.10636692959E+03 -0.11149960910E+03 -0.30342001610E+03  0.34030837884E+03  0.00000000000E+00 0.  1.
         13    1    5    5    0    0  0.31322821668E+01 -0.22705421964E+02  0.13061311221E+03  0.13260894562E+03  0.00000000000E+00 0. -1.
        -13    1    5    5    0    0 -0.16678021934E+03 -0.44779360153E+02  0.52870552707E+03  0.55619274269E+03  0.00000000000E+00 0.  1.
          1    1    6    6  503    0  0.44877682311E+02  0.16236413241E+02  0.15211245807E+02  0.50090013810E+02  0.00000000000E+00 0. -1.
         -1    1    6    6    0  503  0.32911562684E+03  0.40578305690E+03  0.81980190710E+02  0.52886457318E+03  0.00000000000E+00 0.  1.
<mgrwt>
<rscale>  0 0.21813924E+04</rscale>
<asrwt>0</asrwt>
<pdfrwt beam="1">  1        2 0.17220061E+00 0.21813924E+04</pdfrwt>
<pdfrwt beam="2">  1       -1 0.16351071E+00 0.21813924E+04</pdfrwt>
<totfact> 0.60838713E+00</totfact>
</mgrwt>
</event>
<event>
12    7  0.1735955E-007  0.2236559E+04  0.7818608E-02  0.8503364E-01
          2   -1    0    0  501    0  0.00000000000E+00  0.00000000000E+00  0.98670248878E+03  0.98670248878E+03  0.00000000000E+00 0. -1.
         -1   -1    0    0    0  501 -0.00000000000E+00 -0.00000000000E+00 -0.12674026189E+04  0.12674026189E+04  0.00000000000E+00 0.  1.
         24    2    1    2    0    0 -0.46914846180E+03 -0.17345978285E+03  0.67637842243E+03  0.84670855183E+03  0.96119851954E+02 0.  0.
        254    2    1    2    0    0  0.46914846180E+03  0.17345978285E+03 -0.95707855255E+03  0.14073965558E+04  0.90253927016E+03 0.  0.
         23    2    4    4    0    0 -0.10245958465E+03  0.25694393315E+03 -0.71826914712E+03  0.77500067968E+03  0.90539132583E+02 0.  0.
         23    2    4    4    0    0  0.57160804645E+03 -0.83484150304E+02 -0.23880940543E+03  0.63239587617E+03  0.95860575607E+02 0.  0.
          2    1    3    3  502    0 -0.44786739365E+03 -0.16816888617E+03  0.67108690618E+03  0.82415023644E+03  0.00000000000E+00 0. -1.
         -1    1    3    3    0  502 -0.21281068149E+02 -0.52908966743E+01  0.52915162498E+01  0.22558315394E+02  0.00000000000E+00 0.  1.
         13    1    5    5    0    0 -0.79423175404E+02  0.24942031649E+03 -0.60551788716E+03  0.65967450060E+03  0.00000000000E+00 0.  1.
        -13    1    5    5    0    0 -0.23036409245E+02  0.75236166586E+01 -0.11275125996E+03  0.11532617908E+03  0.00000000000E+00 0. -1.
          3    1    6    6  503    0  0.15790920144E+03 -0.21106631848E+02 -0.11366463761E+03  0.19570502204E+03  0.00000000000E+00 0. -1.
         -3    1    6    6    0  503  0.41369884500E+03 -0.62377518457E+02 -0.12514476782E+03  0.43669085413E+03  0.00000000000E+00 0.  1.
<mgrwt>
<rscale>  0 0.22365592E+04</rscale>
<asrwt>0</asrwt>
<pdfrwt beam="1">  1        2 0.15180038E+00 0.22365592E+04</pdfrwt>
<pdfrwt beam="2">  1       -1 0.19498502E+00 0.22365592E+04</pdfrwt>
<totfact> 0.43536541E+00</totfact>
</mgrwt>
</event>
<event>
12    7  0.1735955E-007  0.1557133E+04  0.7818608E-02  0.8847325E-01
          2   -1    0    0  501    0  0.00000000000E+00  0.00000000000E+00  0.90386152478E+03  0.90386152478E+03  0.00000000000E+00 0. -1.
         -1   -1    0    0    0  501 -0.00000000000E+00 -0.00000000000E+00 -0.67063976215E+03  0.67063976215E+03  0.00000000000E+00 0.  1.
         24    2    1    2    0    0  0.28151606554E+03 -0.27891218793E+03 -0.25433630797E+03  0.47748157966E+03  0.79110034961E+02 0.  0.
        254    2    1    2    0    0 -0.28151606554E+03  0.27891218793E+03  0.48755807060E+03  0.10970197073E+04  0.89927529834E+03 0.  0.
         23    2    4    4    0    0 -0.33592462082E+03  0.22209875721E+03 -0.15680298932E+03  0.44120699067E+03  0.88900069324E+02 0.  0.
         23    2    4    4    0    0  0.54408555282E+02  0.56813430719E+02  0.64436105993E+03  0.65581271660E+03  0.93279616784E+02 0.  0.
          4    1    3    3  502    0  0.11964640487E+03 -0.10580847430E+03 -0.58684571803E+02  0.17016043723E+03  0.00000000000E+00 0. -1.
         -3    1    3    3    0  502  0.16186966067E+03 -0.17310371363E+03 -0.19565173616E+03  0.30732114242E+03  0.00000000000E+00 0.  1.
         13    1    5    5    0    0 -0.12481626612E+03  0.34012695321E+02 -0.41539018517E+02  0.13587293252E+03  0.00000000000E+00 0. -1.
        -13    1    5    5    0    0 -0.21110835470E+03  0.18808606189E+03 -0.11526397081E+03  0.30533405815E+03  0.00000000000E+00 0.  1.
          1    1    6    6  503    0  0.55484701000E+02  0.66908115612E+02  0.63786565603E+03  0.64376070331E+03  0.00000000000E+00 0. -1.
         -1    1    6    6    0  503 -0.10761457178E+01 -0.10094684893E+02  0.64954039002E+01  0.12052013297E+02  0.00000000000E+00 0.  1.
<mgrwt>
<rscale>  0 0.15571326E+04</rscale>
<asrwt>0</asrwt>
<pdfrwt beam="1">  1        2 0.13905562E+00 0.15571326E+04</pdfrwt>
<pdfrwt beam="2">  1       -1 0.10317535E+00 0.15571326E+04</pdfrwt>
<totfact> 0.28386501E+01</totfact>
</mgrwt>
</event>
<event>
12    7  0.3081177E-007  0.1814807E+04  0.7818608E-02  0.8698465E-01
          2   -1    0    0  501    0  0.00000000000E+00  0.00000000000E+00  0.17434657089E+04  0.17434657089E+04  0.00000000000E+00 0. -1.
         -1   -1    0    0    0  501 -0.00000000000E+00 -0.00000000000E+00 -0.47226663181E+03  0.47226663181E+03  0.00000000000E+00 0.  1.
         24    2    1    2    0    0  0.23319135473E+03  0.11712308100E+03 -0.28484137896E+03  0.39886537389E+03  0.99312392451E+02 0.  0.
        254    2    1    2    0    0 -0.23319135473E+03 -0.11712308100E+03  0.15560404561E+04  0.18168669669E+04  0.90091489624E+03 0.  0.
         23    2    4    4    0    0  0.78403295131E+02 -0.13388759538E+03  0.14688295853E+04  0.14798328885E+04  0.91498974399E+02 0.  0.
         23    2    4    4    0    0 -0.31159464986E+03  0.16764514384E+02  0.87210870756E+02  0.33703407834E+03  0.92811417492E+02 0.  0.
          4    1    3    3  502    0  0.46620238911E+02 -0.16447496455E+02 -0.57988964708E+02  0.76201619691E+02  0.00000000000E+00 0. -1.
         -3    1    3    3    0  502  0.18657111582E+03  0.13357057745E+03 -0.22685241425E+03  0.32266375419E+03  0.00000000000E+00 0.  1.
         13    1    5    5    0    0 -0.97057918277E+01 -0.36704808928E+02  0.15985508173E+03  0.16430183367E+03  0.00000000000E+00 0. -1.
        -13    1    5    5    0    0  0.88109086958E+02 -0.97182786451E+02  0.13089745036E+04  0.13155310549E+04  0.00000000000E+00 0.  1.
          3    1    6    6  503    0 -0.10179783907E+03  0.26193877646E+02 -0.10056677008E+02  0.10559382566E+03  0.00000000000E+00 0. -1.
         -3    1    6    6    0  503 -0.20979681079E+03 -0.94293632616E+01  0.97267547764E+02  0.23144025268E+03  0.00000000000E+00 0.  1.
<mgrwt>
<rscale>  0 0.18148065E+04</rscale>
<asrwt>0</asrwt>
<pdfrwt beam="1">  1        2 0.26822549E+00 0.18148065E+04</pdfrwt>
<pdfrwt beam="2">  1       -1 0.72656406E-01 0.18148065E+04</pdfrwt>
<totfact> 0.19031119E+01</totfact>
</mgrwt>
</event>
<event>
12    7  0.1735955E-007  0.3436224E+04  0.7818608E-02  0.8129072E-01
         -1   -1    0    0    0  501 -0.00000000000E+00  0.00000000000E+00  0.97853844525E+03  0.97853844525E+03  0.00000000000E+00 0.  1.
          2   -1    0    0  501    0  0.00000000000E+00 -0.00000000000E+00 -0.30166516401E+04  0.30166516401E+04  0.00000000000E+00 0. -1.
         24    2    1    2    0    0 -0.97427046655E+03 -0.64976108841E+03 -0.22031614851E+04  0.24962937340E+04  0.78545928666E+02 0.  0.
        254    2    1    2    0    0  0.97427046655E+03  0.64976108841E+03  0.16504829023E+03  0.14988963514E+04  0.92090005975E+03 0.  0.
         23    2    4    4    0    0  0.55910468425E+03  0.82751839352E+03 -0.17737180558E+02  0.10033024317E+04  0.94426809199E+02 0.  0.
         23    2    4    4    0    0  0.41516578230E+03 -0.17775730511E+03  0.18278547079E+03  0.49559391969E+03  0.90788317428E+02 0.  0.
          4    1    3    3  502    0 -0.22519458737E+03 -0.15775415682E+03 -0.58934802070E+03  0.65033073561E+03  0.00000000000E+00 0. -1.
         -3    1    3    3    0  502 -0.74907587918E+03 -0.49200693160E+03 -0.16138134644E+04  0.18459629984E+04  0.00000000000E+00 0.  1.
         13    1    5    5    0    0  0.43085227196E+03  0.56422414393E+03 -0.35200100550E+00  0.70991738164E+03  0.00000000000E+00 0. -1.
        -13    1    5    5    0    0  0.12825241229E+03  0.26329424959E+03 -0.17385179553E+02  0.29338505005E+03  0.00000000000E+00 0.  1.
          4    1    6    6  503    0  0.16522571161E+03 -0.11757520937E+03  0.94971524711E+02  0.22392645253E+03  0.00000000000E+00 0. -1.
         -4    1    6    6    0  503  0.24994007069E+03 -0.60182095739E+02  0.87813946077E+02  0.27166746716E+03  0.00000000000E+00 0.  1.
<mgrwt>
<rscale>  0 0.34362244E+04</rscale>
<asrwt>0</asrwt>
<pdfrwt beam="1">  1        2 0.46410025E+00 0.34362244E+04</pdfrwt>
<pdfrwt beam="2">  1       -1 0.15054438E+00 0.34362244E+04</pdfrwt>
<totfact> 0.55045391E-01</totfact>
</mgrwt>
</event>
<event>
12    7  0.1735955E-007  0.2567331E+04  0.7818608E-02  0.8379384E-01
         -1   -1    0    0    0  501 -0.00000000000E+00  0.00000000000E+00  0.10344964875E+04  0.10344964875E+04  0.00000000000E+00 0.  1.
          2   -1    0    0  501    0  0.00000000000E+00 -0.00000000000E+00 -0.15928492746E+04  0.15928492746E+04  0.00000000000E+00 0. -1.
         24    2    1    2    0    0 -0.73924613289E+03 -0.72191365722E+03 -0.70836918210E+03  0.12554300662E+04  0.81691978567E+02 0.  0.
        254    2    1    2    0    0  0.73924613289E+03  0.72191365722E+03  0.15001639502E+03  0.13719156959E+04  0.88994583226E+03 0.  0.
         23    2    4    4    0    0  0.27457243024E+02 -0.48897406193E+02  0.29017999345E+03  0.30954431900E+03  0.92023911553E+02 0.  0.
         23    2    4    4    0    0  0.71178888987E+03  0.77081106342E+03 -0.14016359843E+03  0.10623713769E+04  0.90520654430E+02 0.  0.
          2    1    3    3  502    0 -0.35499724650E+03 -0.39401836233E+03 -0.39041507378E+03  0.65855709298E+03  0.00000000000E+00 0. -1.
         -1    1    3    3    0  502 -0.38424888639E+03 -0.32789529489E+03 -0.31795410832E+03  0.59687297317E+03  0.00000000000E+00 0.  1.
         13    1    5    5    0    0 -0.18979191457E+02 -0.29083154080E+02  0.34589057002E+02  0.49014716401E+02  0.00000000000E+00 0. -1.
        -13    1    5    5    0    0  0.46436434481E+02 -0.19814252114E+02  0.25559093645E+03  0.26052960259E+03  0.00000000000E+00 0.  1.
          2    1    6    6  503    0  0.37506906008E+03  0.46683889241E+03 -0.97651949997E+02  0.60675469066E+03  0.00000000000E+00 0. -1.
         -2    1    6    6    0  503  0.33671982978E+03  0.30397217101E+03 -0.42511648429E+02  0.45561668623E+03  0.00000000000E+00 0.  1.
<mgrwt>
<rscale>  0 0.25673309E+04</rscale>
<asrwt>0</asrwt>
<pdfrwt beam="1">  1        2 0.24505374E+00 0.25673309E+04</pdfrwt>
<pdfrwt beam="2">  1       -1 0.15915331E+00 0.25673309E+04</pdfrwt>
<totfact> 0.33717601E+00</totfact>
</mgrwt>
</event>
<event>
12    7  0.1735955E-007  0.1802660E+04  0.7818608E-02  0.8704886E-01
          2   -1    0    0  501    0  0.00000000000E+00  0.00000000000E+00  0.64251756348E+03  0.64251756348E+03  0.00000000000E+00 0. -1.
         -1   -1    0    0    0  501 -0.00000000000E+00 -0.00000000000E+00 -0.12643948222E+04  0.12643948222E+04  0.00000000000E+00 0.  1.
         24    2    1    2    0    0 -0.31630284996E+02 -0.34535122440E+03  0.37517558248E+03  0.51753590092E+03  0.82575710300E+02 0.  0.
        254    2    1    2    0    0  0.31630284996E+02  0.34535122440E+03 -0.99705284124E+03  0.13893764848E+04  0.90331871738E+03 0.  0.
         23    2    4    4    0    0  0.33824417572E+03  0.28620338477E+03 -0.14163800260E+03  0.47415895919E+03  0.91890668378E+02 0.  0.
         23    2    4    4    0    0 -0.30661389073E+03  0.59147839627E+02 -0.85541483864E+03  0.91521752561E+03  0.91531568846E+02 0.  0.
          4    1    3    3  502    0 -0.18912207129E+02 -0.25116558353E+03  0.32139566970E+03  0.40833441985E+03  0.00000000000E+00 0. -1.
         -3    1    3    3    0  502 -0.12718077868E+02 -0.94185640870E+02  0.53779912775E+02  0.10920148107E+03  0.00000000000E+00 0.  1.
         13    1    5    5    0    0  0.20073466838E+03  0.15247264523E+03 -0.34427218328E+02  0.25441609225E+03  0.00000000000E+00 0.  1.
        -13    1    5    5    0    0  0.13750950734E+03  0.13373073954E+03 -0.10721078427E+03  0.21974286694E+03  0.00000000000E+00 0. -1.
          2    1    6    6  503    0 -0.25889348445E+03  0.82098209505E+02 -0.73887606614E+03  0.78721267356E+03  0.00000000000E+00 0.  1.
         -2    1    6    6    0  503 -0.47720406276E+02 -0.22950369878E+02 -0.11653877250E+03  0.12800485205E+03  0.00000000000E+00 0. -1.
<mgrwt>
<rscale>  0 0.18026601E+04</rscale>
<asrwt>0</asrwt>
<pdfrwt beam="1">  1        2 0.98848858E-01 0.18026601E+04</pdfrwt>
<pdfrwt beam="2">  1       -1 0.19452228E+00 0.18026601E+04</pdfrwt>
<totfact> 0.80756239E+00</totfact>
</mgrwt>
</event>
<event>
12    7  0.1735955E-007  0.1124643E+04  0.7818608E-02  0.9181500E-01
          2   -1    0    0  501    0  0.00000000000E+00  0.00000000000E+00  0.66682638730E+03  0.66682638730E+03  0.00000000000E+00 0. -1.
         -1   -1    0    0    0  501 -0.00000000000E+00 -0.00000000000E+00 -0.47419460634E+03  0.47419460634E+03  0.00000000000E+00 0.  1.
         24    2    1    2    0    0 -0.13526580549E+03  0.58439439437E+02  0.15762583071E+03  0.23012312172E+03  0.79992139767E+02 0.  0.
        254    2    1    2    0    0  0.13526580549E+03 -0.58439439437E+02  0.35005950250E+02  0.91089787192E+03  0.89821907701E+03 0.  0.
         23    2    4    4    0    0  0.33443967086E+03 -0.37145645380E+03 -0.72988602111E+02  0.51381193188E+03  0.94050915930E+02 0.  0.
         23    2    4    4    0    0 -0.19917386537E+03  0.31301701436E+03  0.10799455236E+03  0.39708594004E+03  0.91457861965E+02 0.  0.
          4    1    3    3  502    0 -0.96135229923E+02  0.77742383626E+02  0.12325958548E+03  0.17458174606E+03  0.00000000000E+00 0. -1.
         -3    1    3    3    0  502 -0.39130575570E+02 -0.19302944189E+02  0.34366245227E+02  0.55541375657E+02  0.00000000000E+00 0.  1.
         13    1    5    5    0    0  0.30150629900E+03 -0.36752190750E+03 -0.66239503626E+02  0.47996465773E+03  0.00000000000E+00 0.  1.
        -13    1    5    5    0    0  0.32933371861E+02 -0.39345462950E+01 -0.67490984855E+01  0.33847274145E+02  0.00000000000E+00 0. -1.
          1    1    6    6  503    0 -0.14203817336E+02  0.61846863864E+02 -0.86832872634E+01  0.64048282369E+02  0.00000000000E+00 0. -1.
         -1    1    6    6    0  503 -0.18497004803E+03  0.25117015050E+03  0.11667783962E+03  0.33303765767E+03  0.00000000000E+00 0.  1.
<mgrwt>
<rscale>  0 0.11246430E+04</rscale>
<asrwt>0</asrwt>
<pdfrwt beam="1">  1        2 0.10258868E+00 0.11246430E+04</pdfrwt>
<pdfrwt beam="2">  1       -1 0.72953015E-01 0.11246430E+04</pdfrwt>
<totfact> 0.93477266E+01</totfact>
</mgrwt>
</event>
<event>
12    7  0.1735955E-007  0.1883969E+04  0.7818608E-02  0.8662877E-01
         -1   -1    0    0    0  501 -0.00000000000E+00  0.00000000000E+00  0.75258323361E+03  0.75258323361E+03  0.00000000000E+00 0.  1.
          2   -1    0    0  501    0  0.00000000000E+00 -0.00000000000E+00 -0.11790526458E+04  0.11790526458E+04  0.00000000000E+00 0. -1.
         24    2    1    2    0    0 -0.22866090296E+03  0.54549507407E+03 -0.58019689166E+03  0.83122818074E+03  0.66791997845E+02 0.  0.
        254    2    1    2    0    0  0.22866090296E+03 -0.54549507407E+03  0.15372747952E+03  0.11004076986E+04  0.91510342631E+03 0.  0.
         23    2    4    4    0    0  0.47084564052E+03 -0.59897782796E+03 -0.45840654865E+02  0.76951143216E+03  0.97859199884E+02 0.  0.
         23    2    4    4    0    0 -0.24218473755E+03  0.53482753887E+02  0.19956813438E+03  0.33089626646E+03  0.90283148097E+02 0.  0.
          2    1    3    3  502    0 -0.13751641598E+03  0.28315487494E+03 -0.34781043566E+03  0.46910504903E+03  0.00000000000E+00 0. -1.
         -1    1    3    3    0  502 -0.91144486984E+02  0.26234019913E+03 -0.23238645600E+03  0.36212313171E+03  0.00000000000E+00 0.  1.
         13    1    5    5    0    0  0.80171360716E+02 -0.12956517439E+03 -0.44731780310E+02  0.15879393459E+03  0.00000000000E+00 0.  1.
        -13    1    5    5    0    0  0.39067427980E+03 -0.46941265357E+03 -0.11088745551E+01  0.61071749756E+03  0.00000000000E+00 0. -1.
          4    1    6    6  503    0 -0.19629258762E+03  0.43843912789E+02  0.10865646535E+03  0.22860292235E+03  0.00000000000E+00 0. -1.
         -4    1    6    6    0  503 -0.45892149930E+02  0.96388410985E+01  0.90911669039E+02  0.10229334412E+03  0.00000000000E+00 0.  1.
<mgrwt>
<rscale>  0 0.18839695E+04</rscale>
<asrwt>0</asrwt>
<pdfrwt beam="1">  1        2 0.18139271E+00 0.18839695E+04</pdfrwt>
<pdfrwt beam="2">  1       -1 0.11578204E+00 0.18839695E+04</pdfrwt>
<totfact> 0.14080731E+01</totfact>
</mgrwt>
</event>
<event>
12    7  0.1735955E-007  0.1270676E+04  0.7818608E-02  0.9053148E-01
         -1   -1    0    0    0  501 -0.00000000000E+00  0.00000000000E+00  0.67699166478E+03  0.67699166478E+03  0.00000000000E+00 0.  1.
          2   -1    0    0  501    0  0.00000000000E+00 -0.00000000000E+00 -0.59624719504E+03  0.59624719504E+03  0.00000000000E+00 0. -1.
         24    2    1    2    0    0 -0.68989713014E+02  0.10663809286E+03  0.29534214957E+03  0.33056793691E+03  0.76921468073E+02 0.  0.
        254    2    1    2    0    0  0.68989713014E+02 -0.10663809286E+03 -0.21459767983E+03  0.94267092290E+03  0.90909022729E+03 0.  0.
         23    2    4    4    0    0  0.23115599418E+03 -0.43068310208E+03  0.27182569265E+02  0.49799949828E+03  0.91343199855E+02 0.  0.
         23    2    4    4    0    0 -0.16216628116E+03  0.32404500922E+03 -0.24178024910E+03  0.44467142462E+03  0.89285588270E+02 0.  0.
          4    1    3    3  502    0 -0.35159415374E+02  0.95045499675E+01  0.34452979895E+02  0.50135105297E+02  0.00000000000E+00 0. -1.
         -3    1    3    3    0  502 -0.33830297640E+02  0.97133542889E+02  0.26088916968E+03  0.28043283162E+03  0.00000000000E+00 0.  1.
         13    1    5    5    0    0  0.85975202434E+02 -0.20507225310E+03  0.52629633696E+02  0.22850873674E+03  0.00000000000E+00 0. -1.
        -13    1    5    5    0    0  0.14518079174E+03 -0.22561084898E+03 -0.25447064431E+02  0.26949076154E+03  0.00000000000E+00 0.  1.
          4    1    6    6  503    0 -0.42197779009E+02  0.10141234011E+03 -0.12411526697E+03  0.16573990097E+03  0.00000000000E+00 0. -1.
         -4    1    6    6    0  503 -0.11996850215E+03  0.22263266911E+03 -0.11766498213E+03  0.27893152365E+03  0.00000000000E+00 0.  1.
<mgrwt>
<rscale>  0 0.12706760E+04</rscale>
<asrwt>0</asrwt>
<pdfrwt beam="1">  1        2 0.91730338E-01 0.12706760E+04</pdfrwt>
<pdfrwt beam="2">  1       -1 0.10415256E+00 0.12706760E+04</pdfrwt>
<totfact> 0.48690952E+01</totfact>
</mgrwt>
</event>
<event>
12    7  0.1735955E-007  0.3097248E+04  0.7818608E-02  0.8216494E-01
          2   -1    0    0  501    0  0.00000000000E+00  0.00000000000E+00  0.19063555023E+04  0.19063555023E+04  0.00000000000E+00 0. -1.
         -1   -1    0    0    0  501 -0.00000000000E+00 -0.00000000000E+00 -0.12580214641E+04  0.12580214641E+04  0.00000000000E+00 0.  1.
         24    2    1    2    0    0 -0.14011383672E+01 -0.13218971919E+04 -0.22081877928E+03  0.13423792191E+04  0.76202921520E+02 0.  0.
        254    2    1    2    0    0  0.14011383672E+01  0.13218971919E+04  0.86915281750E+03  0.18219977474E+04  0.90378925761E+03 0.  0.
         23    2    4    4    0    0  0.27263951376E+03  0.81963085980E+03  0.12305770688E+03  0.87829328154E+03  0.10064213025E+03 0.  0.
         23    2    4    4    0    0 -0.27123837539E+03  0.50226633213E+03  0.74609511061E+03  0.94370446586E+03  0.89880365676E+02 0.  0.
          4    1    3    3  502    0 -0.28476829869E+02 -0.27451666625E+03 -0.33142097166E+02  0.27797253190E+03  0.00000000000E+00 0. -1.
         -3    1    3    3    0  502  0.27075691502E+02 -0.10473805257E+04 -0.18767668212E+03  0.10644066872E+04  0.00000000000E+00 0.  1.
         13    1    5    5    0    0  0.48653894823E+02  0.65985913387E+02  0.26503580632E+02  0.86161372049E+02  0.00000000000E+00 0.  1.
        -13    1    5    5    0    0  0.22398561894E+03  0.75364494641E+03  0.96554126250E+02  0.79213190950E+03  0.00000000000E+00 0. -1.
          4    1    6    6  503    0 -0.20140346235E+02  0.17708447908E+02  0.69119335879E+02  0.74139768452E+02  0.00000000000E+00 0.  1.
         -4    1    6    6    0  503 -0.25109802916E+03  0.48455788422E+03  0.67697577473E+03  0.86956469741E+03  0.00000000000E+00 0. -1.
<mgrwt>
<rscale>  0 0.30972479E+04</rscale>
<asrwt>0</asrwt>
<pdfrwt beam="1">  1        2 0.29328546E+00 0.30972479E+04</pdfrwt>
<pdfrwt beam="2">  1       -1 0.19354176E+00 0.30972479E+04</pdfrwt>
<totfact> 0.12144494E+00</totfact>
</mgrwt>
</event>
<event>
12    7  0.1735955E-007  0.4895551E+04  0.7818608E-02  0.7844825E-01
         -1   -1    0    0    0  501 -0.00000000000E+00  0.00000000000E+00  0.22805657124E+04  0.22805657124E+04  0.00000000000E+00 0.  1.
          2   -1    0    0  501    0  0.00000000000E+00 -0.00000000000E+00 -0.26272444812E+04  0.26272444812E+04  0.00000000000E+00 0. -1.
         24    2    1    2    0    0 -0.20484426304E+04 -0.12291714839E+03 -0.13418133544E+04  0.24531775415E+04  0.79944584437E+02 0.  0.
        254    2    1    2    0    0  0.20484426304E+04  0.12291714839E+03  0.99513458566E+03  0.24546326522E+04  0.90758072828E+03 0.  0.
         23    2    4    4    0    0  0.21099199320E+04  0.12605098644E+03  0.10093381028E+04  0.23441876000E+04  0.93814326670E+02 0.  0.
         23    2    4    4    0    0 -0.61477301619E+02 -0.31338380588E+01 -0.14203517095E+02  0.11044505216E+03  0.90592991416E+02 0.  0.
          4    1    3    3  502    0 -0.35883200844E+03 -0.40352623804E+02 -0.20783266400E+03  0.41663312489E+03  0.00000000000E+00 0. -1.
         -3    1    3    3    0  502 -0.16896106219E+04 -0.82564524582E+02 -0.11339806904E+04  0.20365444166E+04  0.00000000000E+00 0.  1.
         13    1    5    5    0    0  0.70207440788E+03  0.38458020697E+02  0.38491754093E+03  0.80159154616E+03  0.00000000000E+00 0.  1.
        -13    1    5    5    0    0  0.14078455241E+04  0.87592965748E+02  0.62442056182E+03  0.15425960539E+04  0.00000000000E+00 0. -1.
          3    1    6    6  503    0 -0.38098013009E+02 -0.41746790192E+02  0.12658182847E+02  0.57917896022E+02  0.00000000000E+00 0. -1.
         -3    1    6    6    0  503 -0.23379288610E+02  0.38612952133E+02 -0.26861699941E+02  0.52527156139E+02  0.00000000000E+00 0.  1.
<mgrwt>
<rscale>  0 0.48955505E+04</rscale>
<asrwt>0</asrwt>
<pdfrwt beam="1">  1        2 0.40419146E+00 0.48955505E+04</pdfrwt>
<pdfrwt beam="2">  1       -1 0.35085626E+00 0.48955505E+04</pdfrwt>
<totfact> 0.37551337E-02</totfact>
</mgrwt>
</event>
<event>
12    7  0.1735955E-007  0.1882197E+04  0.7818608E-02  0.8663769E-01
          2   -1    0    0  501    0  0.00000000000E+00  0.00000000000E+00  0.13218486426E+04  0.13218486426E+04  0.00000000000E+00 0. -1.
         -1   -1    0    0    0  501 -0.00000000000E+00 -0.00000000000E+00 -0.67002100435E+03  0.67002100435E+03  0.00000000000E+00 0.  1.
         24    2    1    2    0    0 -0.46767951390E+03 -0.30308373897E+03 -0.23050060874E+03  0.60828121741E+03  0.79319784900E+02 0.  0.
        254    2    1    2    0    0  0.46767951390E+03  0.30308373897E+03  0.88232824703E+03  0.13835884296E+04  0.90842166774E+03 0.  0.
         23    2    4    4    0    0  0.69537370082E+02 -0.30701455021E+03  0.33017574357E+03  0.46504515524E+03  0.90319404818E+02 0.  0.
         23    2    4    4    0    0  0.39814214382E+03  0.61009828918E+03  0.55215250346E+03  0.91854327435E+03  0.90068144367E+02 0.  0.
          4    1    3    3  502    0 -0.17893675151E+03 -0.12290018268E+03 -0.13159700449E+03  0.25385150686E+03  0.00000000000E+00 0. -1.
         -3    1    3    3    0  502 -0.28874276239E+03 -0.18018355629E+03 -0.98903604253E+02  0.35442971055E+03  0.00000000000E+00 0.  1.
         13    1    5    5    0    0 -0.90717804591E+01 -0.13067312271E+03  0.16710201502E+03  0.21232250381E+03  0.00000000000E+00 0. -1.
        -13    1    5    5    0    0  0.78609150541E+02 -0.17634142750E+03  0.16307372855E+03  0.25272265143E+03  0.00000000000E+00 0.  1.
          1    1    6    6  503    0  0.25527510528E+01  0.40010483145E+02  0.33218946049E+02  0.52065859025E+02  0.00000000000E+00 0. -1.
         -1    1    6    6    0  503  0.39558939277E+03  0.57008780603E+03  0.51893355741E+03  0.86647741532E+03  0.00000000000E+00 0.  1.
<mgrwt>
<rscale>  0 0.18821970E+04</rscale>
<asrwt>0</asrwt>
<pdfrwt beam="1">  1        2 0.20336133E+00 0.18821970E+04</pdfrwt>
<pdfrwt beam="2">  1       -1 0.10308015E+00 0.18821970E+04</pdfrwt>
<totfact> 0.15253842E+01</totfact>
</mgrwt>
</event>
<event>
12    7  0.1735955E-007  0.1803796E+04  0.7818608E-02  0.8704284E-01
          2   -1    0    0  501    0  0.00000000000E+00  0.00000000000E+00  0.36803685645E+04  0.36803685645E+04  0.00000000000E+00 0. -1.
         -1   -1    0    0    0  501 -0.00000000000E+00 -0.00000000000E+00 -0.22101585655E+03  0.22101585655E+03  0.00000000000E+00 0.  1.
         24    2    1    2    0    0  0.12896583530E+03 -0.66460104426E+03  0.89035359048E+03  0.11213345343E+04  0.79592003670E+02 0.  0.
        254    2    1    2    0    0 -0.12896583530E+03  0.66460104426E+03  0.25689991175E+04  0.27800498868E+04  0.81889814539E+03 0.  0.
         23    2    4    4    0    0  0.76124105034E+01  0.10259051724E+03  0.18383414176E+04  0.18434551795E+04  0.90802357744E+02 0.  0.
         23    2    4    4    0    0 -0.13657824581E+03  0.56201052702E+03  0.73065769987E+03  0.93659470723E+03  0.94018729666E+02 0.  0.
          4    1    3    3  502    0 -0.10484748210E+02 -0.63921680652E+02  0.93448412483E+02  0.11370363670E+03  0.00000000000E+00 0. -1.
         -3    1    3    3    0  502  0.13945058351E+03 -0.60067936361E+03  0.79690517800E+03  0.10076308976E+04  0.00000000000E+00 0.  1.
         13    1    5    5    0    0 -0.29003874752E+02  0.95631044172E+02  0.13289089267E+04  0.13326610435E+04  0.00000000000E+00 0. -1.
        -13    1    5    5    0    0  0.36616285255E+02  0.69594730685E+01  0.50943249092E+03  0.51079413605E+03  0.00000000000E+00 0.  1.
          1    1    6    6  503    0 -0.53985491439E+02  0.18631633797E+03  0.17817953527E+03  0.26339354181E+03  0.00000000000E+00 0. -1.
         -1    1    6    6    0  503 -0.82592754366E+02  0.37569418905E+03  0.55247816460E+03  0.67320116542E+03  0.00000000000E+00 0.  1.
<mgrwt>
<rscale>  0 0.18037958E+04</rscale>
<asrwt>0</asrwt>
<pdfrwt beam="1">  1        2 0.56621050E+00 0.18037958E+04</pdfrwt>
<pdfrwt beam="2">  1       -1 0.34002442E-01 0.18037958E+04</pdfrwt>
<totfact> 0.53534900E+00</totfact>
</mgrwt>
</event>
<event>
12    7  0.1735955E-007  0.1759397E+04  0.7818608E-02  0.8728195E-01
         -1   -1    0    0    0  501 -0.00000000000E+00  0.00000000000E+00  0.42623289581E+03  0.42623289581E+03  0.00000000000E+00 0.  1.
          2   -1    0    0  501    0  0.00000000000E+00 -0.00000000000E+00 -0.18156017052E+04  0.18156017052E+04  0.00000000000E+00 0. -1.
         24    2    1    2    0    0  0.61337246744E+02 -0.41751194436E+03 -0.11410352492E+04  0.12197564058E+04  0.88123594591E+02 0.  0.
        254    2    1    2    0    0 -0.61337246744E+02  0.41751194436E+03 -0.24833356020E+03  0.10220781953E+04  0.89715985121E+03 0.  0.
         23    2    4    4    0    0  0.33834039530E+03 -0.66165731411E+02 -0.11176920879E+03  0.37394218421E+03  0.92131829442E+02 0.  0.
         23    2    4    4    0    0 -0.39967764204E+03  0.48367767577E+03 -0.13656435142E+03  0.64813601107E+03  0.88000881662E+02 0.  0.
          2    1    3    3  502    0 -0.38222182966E+01 -0.14439859990E+03 -0.48769748352E+03  0.50863975507E+03  0.00000000000E+00 0. -1.
         -1    1    3    3    0  502  0.65159465041E+02 -0.27311334447E+03 -0.65333776569E+03  0.71111665069E+03  0.00000000000E+00 0.  1.
         13    1    5    5    0    0  0.55480554103E+02  0.14579096361E+02 -0.43428230286E+02  0.71948961911E+02  0.00000000000E+00 0. -1.
        -13    1    5    5    0    0  0.28285984120E+03 -0.80744827772E+02 -0.68340978500E+02  0.30199322230E+03  0.00000000000E+00 0.  1.
          2    1    6    6  503    0 -0.14857924423E+03  0.13041744344E+03 -0.16397362275E+02  0.19837685062E+03  0.00000000000E+00 0. -1.
         -2    1    6    6    0  503 -0.25109839781E+03  0.35326023233E+03 -0.12016698914E+03  0.44975916045E+03  0.00000000000E+00 0.  1.
<mgrwt>
<rscale>  0 0.17593967E+04</rscale>
<asrwt>0</asrwt>
<pdfrwt beam="1">  1        2 0.27932334E+00 0.17593967E+04</pdfrwt>
<pdfrwt beam="2">  1       -1 0.65574291E-01 0.17593967E+04</pdfrwt>
<totfact> 0.21509425E+01</totfact>
</mgrwt>
</event>
<event>
12    7  0.1735955E-007  0.2312886E+04  0.7818608E-02  0.8472858E-01
          2   -1    0    0  501    0  0.00000000000E+00  0.00000000000E+00  0.18339394713E+04  0.18339394713E+04  0.00000000000E+00 0. -1.
         -1   -1    0    0    0  501 -0.00000000000E+00 -0.00000000000E+00 -0.72922804410E+03  0.72922804410E+03  0.00000000000E+00 0.  1.
         24    2    1    2    0    0  0.96309801091E+03  0.15070153209E+03  0.56911470068E+03  0.11315346104E+04  0.78805467035E+02 0.  0.
        254    2    1    2    0    0 -0.96309801091E+03 -0.15070153209E+03  0.53559672650E+03  0.14316329050E+04  0.90135464205E+03 0.  0.
         23    2    4    4    0    0 -0.41489704558E+03 -0.42697130627E+03 -0.13819447382E+02  0.60264688710E+03  0.92456684964E+02 0.  0.
         23    2    4    4    0    0 -0.54820096533E+03  0.27626977418E+03  0.54941617388E+03  0.82898601787E+03  0.92251824818E+02 0.  0.
          4    1    3    3  502    0  0.52902284805E+02  0.91618298816E+01  0.54014964673E+02  0.76159091860E+02  0.00000000000E+00 0. -1.
         -3    1    3    3    0  502  0.91019572611E+03  0.14153970220E+03  0.51509973601E+03  0.10553755186E+04  0.00000000000E+00 0.  1.
         13    1    5    5    0    0 -0.28884431902E+03 -0.26247868573E+03 -0.45759436697E+02  0.39296313713E+03  0.00000000000E+00 0. -1.
        -13    1    5    5    0    0 -0.12605272656E+03 -0.16449262054E+03  0.31939989315E+02  0.20968374997E+03  0.00000000000E+00 0.  1.
          3    1    6    6  503    0 -0.84385123311E+02  0.78910820548E+01  0.68780951146E+02  0.10915098466E+03  0.00000000000E+00 0. -1.
         -3    1    6    6    0  503 -0.46381584202E+03  0.26837869213E+03  0.48063522273E+03  0.71983503320E+03  0.00000000000E+00 0.  1.
<mgrwt>
<rscale>  0 0.23128857E+04</rscale>
<asrwt>0</asrwt>
<pdfrwt beam="1">  1        2 0.28214453E+00 0.23128857E+04</pdfrwt>
<pdfrwt beam="2">  1       -1 0.11218893E+00 0.23128857E+04</pdfrwt>
<totfact> 0.62036238E+00</totfact>
</mgrwt>
</event>
<event>
12    7  0.1735955E-007  0.1936996E+04  0.7818608E-02  0.8636657E-01
          2   -1    0    0  501    0  0.00000000000E+00  0.00000000000E+00  0.22873507100E+04  0.22873507100E+04  0.00000000000E+00 0. -1.
         -1   -1    0    0    0  501 -0.00000000000E+00 -0.00000000000E+00 -0.41007640087E+03  0.41007640087E+03  0.00000000000E+00 0.  1.
         24    2    1    2    0    0 -0.14945224420E+03 -0.13059937864E+03  0.17498817424E+04  0.17629277335E+04  0.80224123985E+02 0.  0.
        254    2    1    2    0    0  0.14945224420E+03  0.13059937864E+03  0.12739256671E+03  0.93449937737E+03  0.90424999268E+03 0.  0.
         23    2    4    4    0    0 -0.26968748125E+03  0.33500195808E+03 -0.10797391279E+02  0.43976485312E+03  0.91207965226E+02 0.  0.
         23    2    4    4    0    0  0.41913972545E+03 -0.20440257944E+03  0.13818995799E+03  0.49473452425E+03  0.90593935027E+02 0.  0.
          4    1    3    3  502    0 -0.54046488502E+02 -0.45128197540E+02  0.97417892161E+03  0.97672009728E+03  0.00000000000E+00 0. -1.
         -3    1    3    3    0  502 -0.95405755702E+02 -0.85471181103E+02  0.77570282081E+03  0.78620763621E+03  0.00000000000E+00 0.  1.
         13    1    5    5    0    0 -0.19857913198E+02  0.66158290691E+02  0.18749294834E+02  0.71573683715E+02  0.00000000000E+00 0.  1.
        -13    1    5    5    0    0 -0.24982956805E+03  0.26884366739E+03 -0.29546686113E+02  0.36819116941E+03  0.00000000000E+00 0. -1.
          3    1    6    6  503    0  0.37547348593E+03 -0.20016118305E+03  0.10123122403E+03  0.43737009334E+03  0.00000000000E+00 0. -1.
         -3    1    6    6    0  503  0.43666239522E+02 -0.42413963964E+01  0.36958733960E+02  0.57364430907E+02  0.00000000000E+00 0.  1.
<mgrwt>
<rscale>  0 0.19369962E+04</rscale>
<asrwt>0</asrwt>
<pdfrwt beam="1">  1        2 0.35190010E+00 0.19369962E+04</pdfrwt>
<pdfrwt beam="2">  1       -1 0.63088678E-01 0.19369962E+04</pdfrwt>
<totfact> 0.12489627E+01</totfact>
</mgrwt>
</event>
<event>
12    7  0.1735955E-007  0.1178741E+04  0.7818608E-02  0.9131671E-01
         -1   -1    0    0    0  501 -0.00000000000E+00  0.00000000000E+00  0.88298878433E+03  0.88298878433E+03  0.00000000000E+00 0.  1.
          2   -1    0    0  501    0  0.00000000000E+00 -0.00000000000E+00 -0.39338847283E+03  0.39338847283E+03  0.00000000000E+00 0. -1.
         24    2    1    2    0    0  0.21903815597E+03  0.17612182976E+02  0.56519879955E+02  0.24050154326E+03  0.79740784555E+02 0.  0.
        254    2    1    2    0    0 -0.21903815597E+03 -0.17612182976E+02  0.43308043154E+03  0.10358757139E+04  0.91498192972E+03 0.  0.
         23    2    4    4    0    0 -0.32699656188E+03 -0.18599348253E+03  0.63106848067E+03  0.74035906241E+03  0.91453742210E+02 0.  0.
         23    2    4    4    0    0  0.10795840592E+03  0.16838129956E+03 -0.19798804913E+03  0.29551665150E+03  0.90130706554E+02 0.  0.
          2    1    3    3  502    0  0.15085115089E+03  0.23109189829E+01  0.39206210780E+00  0.15086935999E+03  0.00000000000E+00 0. -1.
         -3    1    3    3    0  502  0.68187005076E+02  0.15301263993E+02  0.56127817847E+02  0.89632183267E+02  0.00000000000E+00 0.  1.
         13    1    5    5    0    0 -0.48055890694E+02 -0.40934609319E+02  0.53445091663E+02  0.82712687620E+02  0.00000000000E+00 0. -1.
        -13    1    5    5    0    0 -0.27894067119E+03 -0.14505887321E+03  0.57762338901E+03  0.65764637479E+03  0.00000000000E+00 0.  1.
          4    1    6    6  503    0  0.69104184142E+01 -0.75865518965E+01  0.21741523277E+01  0.10489832729E+02  0.00000000000E+00 0. -1.
         -4    1    6    6    0  503  0.10104798750E+03  0.17596785145E+03 -0.20016220146E+03  0.28502681877E+03  0.00000000000E+00 0.  1.
<mgrwt>
<rscale>  0 0.11787410E+04</rscale>
<asrwt>0</asrwt>
<pdfrwt beam="1">  1        2 0.60521304E-01 0.11787410E+04</pdfrwt>
<pdfrwt beam="2">  1       -1 0.13584443E+00 0.11787410E+04</pdfrwt>
<totfact> 0.41553153E+01</totfact>
</mgrwt>
</event>
<event>
12    7  0.1735955E-007  0.2415345E+04  0.7818608E-02  0.8433781E-01
         -1   -1    0    0    0  501 -0.00000000000E+00  0.00000000000E+00  0.80466821100E+03  0.80466821100E+03  0.00000000000E+00 0.  1.
          2   -1    0    0  501    0  0.00000000000E+00 -0.00000000000E+00 -0.18125142753E+04  0.18125142753E+04  0.00000000000E+00 0. -1.
         24    2    1    2    0    0  0.89355773807E+03  0.20048128032E+03  0.95554444290E+02  0.92419059313E+03  0.79746006710E+02 0.  0.
        254    2    1    2    0    0 -0.89355773807E+03 -0.20048128032E+03 -0.11034005086E+04  0.16929918932E+04  0.90005038361E+03 0.  0.
         23    2    4    4    0    0 -0.55882849587E+03  0.32605862236E+03 -0.55551680723E+03  0.85759058216E+03  0.90879978394E+02 0.  0.
         23    2    4    4    0    0 -0.33472924219E+03 -0.52653990268E+03 -0.54788370141E+03  0.83540131106E+03  0.91819744939E+02 0.  0.
          4    1    3    3  502    0  0.63162780846E+03  0.14843370643E+03  0.31682929034E+02  0.64960762128E+03  0.00000000000E+00 0. -1.
         -3    1    3    3    0  502  0.26192992960E+03  0.52047573889E+02  0.63871515256E+02  0.27458297185E+03  0.00000000000E+00 0.  1.
         13    1    5    5    0    0 -0.16288762084E+03  0.65941219192E+02 -0.11030298266E+03  0.20747859985E+03  0.00000000000E+00 0. -1.
        -13    1    5    5    0    0 -0.39594087503E+03  0.26011740317E+03 -0.44521382457E+03  0.65011198231E+03  0.00000000000E+00 0.  1.
          1    1    6    6  503    0 -0.54312537695E+02 -0.10633375797E+03 -0.15370785198E+03  0.19463510371E+03  0.00000000000E+00 0. -1.
         -1    1    6    6    0  503 -0.28041670450E+03 -0.42020614472E+03 -0.39417584943E+03  0.64076620736E+03  0.00000000000E+00 0.  1.
<mgrwt>
<rscale>  0 0.24153448E+04</rscale>
<asrwt>0</asrwt>
<pdfrwt beam="1">  1        2 0.27884834E+00 0.24153448E+04</pdfrwt>
<pdfrwt beam="2">  1       -1 0.12379511E+00 0.24153448E+04</pdfrwt>
<totfact> 0.49768595E+00</totfact>
</mgrwt>
</event>
<event>
12    7  0.1735955E-007  0.1623736E+04  0.7818608E-02  0.8806097E-01
         -1   -1    0    0    0  501 -0.00000000000E+00  0.00000000000E+00  0.47963011352E+03  0.47963011352E+03  0.00000000000E+00 0.  1.
          2   -1    0    0  501    0  0.00000000000E+00 -0.00000000000E+00 -0.13742458255E+04  0.13742458255E+04  0.00000000000E+00 0. -1.
         24    2    1    2    0    0 -0.12317387034E+03  0.57597620676E+02  0.30178864128E+03  0.34063824251E+03  0.80428477618E+02 0.  0.
        254    2    1    2    0    0  0.12317387034E+03 -0.57597620676E+02 -0.11964043532E+04  0.15132376965E+04  0.91652368292E+03 0.  0.
         23    2    4    4    0    0  0.48399460171E+03  0.10567493182E+03 -0.52293682491E+03  0.72604544225E+03  0.90890569698E+02 0.  0.
         23    2    4    4    0    0 -0.36082073137E+03 -0.16327255250E+03 -0.67346752830E+03  0.78719225421E+03  0.96247632860E+02 0.  0.
          2    1    3    3  502    0 -0.67522181080E+02 -0.11766935975E+02  0.14505843275E+03  0.16043582714E+03  0.00000000000E+00 0. -1.
         -1    1    3    3    0  502 -0.55651689260E+02  0.69364556652E+02  0.15673020853E+03  0.18020241537E+03  0.00000000000E+00 0.  1.
         13    1    5    5    0    0  0.42474055875E+03  0.61783805586E+02 -0.45944837464E+03  0.62874047893E+03  0.00000000000E+00 0. -1.
        -13    1    5    5    0    0  0.59254042958E+02  0.43891126234E+02 -0.63488450272E+02  0.97304963321E+02  0.00000000000E+00 0.  1.
          1    1    6    6  503    0 -0.29840598895E+03 -0.17207413952E+03 -0.56381434488E+03  0.66071344713E+03  0.00000000000E+00 0. -1.
         -1    1    6    6    0  503 -0.62414742422E+02  0.88015870213E+01 -0.10965318343E+03  0.12647880708E+03  0.00000000000E+00 0.  1.
<mgrwt>
<rscale>  0 0.16237360E+04</rscale>
<asrwt>0</asrwt>
<pdfrwt beam="1">  1        2 0.21142244E+00 0.16237360E+04</pdfrwt>
<pdfrwt beam="2">  1       -1 0.73789247E-01 0.16237360E+04</pdfrwt>
<totfact> 0.30215795E+01</totfact>
</mgrwt>
</event>
<event>
12    7  0.1735955E-007  0.1475064E+04  0.7818608E-02  0.8901206E-01
         -1   -1    0    0    0  501 -0.00000000000E+00  0.00000000000E+00  0.27320064541E+03  0.27320064541E+03  0.00000000000E+00 0.  1.
          2   -1    0    0  501    0  0.00000000000E+00 -0.00000000000E+00 -0.19910404436E+04  0.19910404436E+04  0.00000000000E+00 0. -1.
         24    2    1    2    0    0 -0.33639333559E+03  0.21079594857E+03 -0.88614517073E+03  0.97427369700E+03  0.79753149789E+02 0.  0.
        254    2    1    2    0    0  0.33639333559E+03 -0.21079594857E+03 -0.83169462743E+03  0.12899673920E+04  0.90260983314E+03 0.  0.
         23    2    4    4    0    0  0.45870757936E+03  0.45742750592E+02 -0.86971270783E+03  0.98902433080E+03  0.96249104730E+02 0.  0.
         23    2    4    4    0    0 -0.12231424378E+03 -0.25653869917E+03  0.38018080401E+02  0.30094306117E+03  0.91369979889E+02 0.  0.
          4    1    3    3  502    0 -0.27723794281E+03  0.18694295194E+03 -0.80013866194E+03  0.86719687647E+03  0.00000000000E+00 0. -1.
         -3    1    3    3    0  502 -0.59155392773E+02  0.23852996635E+02 -0.86006508782E+02  0.10707682053E+03  0.00000000000E+00 0.  1.
         13    1    5    5    0    0  0.27556920091E+03  0.12890689775E+02 -0.42179723115E+03  0.50400144700E+03  0.00000000000E+00 0. -1.
        -13    1    5    5    0    0  0.18313837846E+03  0.32852060817E+02 -0.44791547668E+03  0.48502288380E+03  0.00000000000E+00 0.  1.
          4    1    6    6  503    0 -0.43433194087E+02 -0.30075670476E+02  0.30533287468E+02  0.61018603284E+02  0.00000000000E+00 0. -1.
         -4    1    6    6    0  503 -0.78881049692E+02 -0.22646302869E+03  0.74847929331E+01  0.23992445788E+03  0.00000000000E+00 0.  1.
<mgrwt>
<rscale>  0 0.14750641E+04</rscale>
<asrwt>0</asrwt>
<pdfrwt beam="1">  1        2 0.30631392E+00 0.14750641E+04</pdfrwt>
<pdfrwt beam="2">  1       -1 0.42030868E-01 0.14750641E+04</pdfrwt>
<totfact> 0.41451247E+01</totfact>
</mgrwt>
</event>
<event>
12    7  0.1735955E-007  0.2648422E+04  0.7818608E-02  0.8351937E-01
          2   -1    0    0  501    0  0.00000000000E+00  0.00000000000E+00  0.25868497557E+04  0.25868497557E+04  0.00000000000E+00 0. -1.
         -1   -1    0    0    0  501 -0.00000000000E+00 -0.00000000000E+00 -0.67786480812E+03  0.67786480812E+03  0.00000000000E+00 0.  1.
         24    2    1    2    0    0  0.52482172869E+03  0.23019976149E+03  0.21038757063E+04  0.21819812176E+04  0.79493831007E+02 0.  0.
        254    2    1    2    0    0 -0.52482172869E+03 -0.23019976149E+03 -0.19489075868E+03  0.10827333463E+04  0.89771895059E+03 0.  0.
         23    2    4    4    0    0 -0.13808587155E+03  0.32124158198E+03  0.39719632883E+02  0.36352750308E+03  0.91163229141E+02 0.  0.
         23    2    4    4    0    0 -0.38673585715E+03 -0.55144134347E+03 -0.23461039156E+03  0.71920584321E+03  0.92535563864E+02 0.  0.
          4    1    3    3  502    0  0.48178932537E+03  0.19047982075E+03  0.18304149996E+04  0.19023203166E+04  0.00000000000E+00 0. -1.
         -3    1    3    3    0  502  0.43032403328E+02  0.39719940739E+02  0.27346070664E+03  0.27966090092E+03  0.00000000000E+00 0.  1.
         13    1    5    5    0    0  0.12223389079E+02  0.38806287534E+02  0.11839715596E+02  0.42373553759E+02  0.00000000000E+00 0.  1.
        -13    1    5    5    0    0 -0.15030926063E+03  0.28243529445E+03  0.27879917287E+02  0.32115394932E+03  0.00000000000E+00 0. -1.
          4    1    6    6  503    0 -0.10938053593E+03 -0.10379027442E+03 -0.78206815289E+02  0.16986120411E+03  0.00000000000E+00 0.  1.
         -4    1    6    6    0  503 -0.27735532121E+03 -0.44765106905E+03 -0.15640357627E+03  0.54934463909E+03  0.00000000000E+00 0. -1.
<mgrwt>
<rscale>  0 0.26484217E+04</rscale>
<asrwt>0</asrwt>
<pdfrwt beam="1">  1        2 0.39797688E+00 0.26484217E+04</pdfrwt>
<pdfrwt beam="2">  1       -1 0.10428689E+00 0.26484217E+04</pdfrwt>
<totfact> 0.26835937E+00</totfact>
</mgrwt>
</event>
<event>
12    7  0.1735955E-007  0.1573922E+04  0.7818608E-02  0.8836731E-01
          2   -1    0    0  501    0  0.00000000000E+00  0.00000000000E+00  0.89685925282E+03  0.89685925282E+03  0.00000000000E+00 0. -1.
         -1   -1    0    0    0  501 -0.00000000000E+00 -0.00000000000E+00 -0.69052890886E+03  0.69052890886E+03  0.00000000000E+00 0.  1.
         24    2    1    2    0    0  0.12602993336E+03 -0.45129842432E+03  0.29897120399E+03  0.56121260794E+03  0.77601537359E+02 0.  0.
        254    2    1    2    0    0 -0.12602993336E+03  0.45129842432E+03 -0.92640860028E+02  0.10261755537E+04  0.90824012588E+03 0.  0.
         23    2    4    4    0    0 -0.37514215896E+03  0.22933151865E+03 -0.37028285137E+03  0.58242833727E+03  0.93748563539E+02 0.  0.
         23    2    4    4    0    0  0.24911222560E+03  0.22196690567E+03  0.27764199134E+03  0.44374721647E+03  0.92197118244E+02 0.  0.
          2    1    3    3  502    0  0.18144026798E+01 -0.16926311707E+02  0.32525385248E+02  0.36710935301E+02  0.00000000000E+00 0. -1.
         -1    1    3    3    0  502  0.12421553068E+03 -0.43437211262E+03  0.26644581874E+03  0.52450167264E+03  0.00000000000E+00 0.  1.
         13    1    5    5    0    0 -0.26995592426E+02  0.35130074521E+02 -0.10725731741E+02  0.45584267765E+02  0.00000000000E+00 0.  1.
        -13    1    5    5    0    0 -0.34814656653E+03  0.19420144413E+03 -0.35955711963E+03  0.53684406951E+03  0.00000000000E+00 0. -1.
          4    1    6    6  503    0  0.21328036052E+03  0.19441197083E+03  0.19114537174E+03  0.34615181600E+03  0.00000000000E+00 0. -1.
         -4    1    6    6    0  503  0.35831865074E+02  0.27554934844E+02  0.86496619606E+02  0.97595400467E+02  0.00000000000E+00 0.  1.
<mgrwt>
<rscale>  0 0.15739215E+04</rscale>
<asrwt>0</asrwt>
<pdfrwt beam="1">  1        2 0.13797835E+00 0.15739215E+04</pdfrwt>
<pdfrwt beam="2">  1       -1 0.10623522E+00 0.15739215E+04</pdfrwt>
<totfact> 0.26774980E+01</totfact>
</mgrwt>
</event>
<event>
12    7  0.1735955E-007  0.1558621E+04  0.7818608E-02  0.8846380E-01
          2   -1    0    0  501    0  0.00000000000E+00  0.00000000000E+00  0.19293587427E+04  0.19293587427E+04  0.00000000000E+00 0. -1.
         -1   -1    0    0    0  501 -0.00000000000E+00 -0.00000000000E+00 -0.31478053646E+03  0.31478053646E+03  0.00000000000E+00 0.  1.
         24    2    1    2    0    0 -0.55009248561E+02 -0.50517287663E+03  0.51089239562E+03  0.72517926513E+03  0.81536948392E+02 0.  0.
        254    2    1    2    0    0  0.55009248561E+02  0.50517287663E+03  0.11036858106E+04  0.15189600140E+04  0.91153250241E+03 0.  0.
         23    2    4    4    0    0 -0.15169010812E+01  0.85945694430E+02 -0.14838497866E+03  0.19425568721E+03  0.91259009094E+02 0.  0.
         23    2    4    4    0    0  0.56526149642E+02  0.41922718220E+03  0.12520707892E+04  0.13247043268E+04  0.90629224155E+02 0.  0.
          4    1    3    3  502    0 -0.43202029851E+02 -0.37566755323E+03  0.32681435569E+03  0.49980010906E+03  0.00000000000E+00 0. -1.
         -1    1    3    3    0  502 -0.11807218710E+02 -0.12950532340E+03  0.18407803993E+03  0.22537915606E+03  0.00000000000E+00 0.  1.
         13    1    5    5    0    0  0.35345942814E+02  0.43997409305E+02 -0.11771330885E+03  0.13054321423E+03  0.00000000000E+00 0. -1.
        -13    1    5    5    0    0 -0.36862843895E+02  0.41948285125E+02 -0.30671669807E+02  0.63712472984E+02  0.00000000000E+00 0.  1.
          1    1    6    6  503    0  0.40516707290E+02  0.41367001144E+03  0.12056809650E+04  0.12753160672E+04  0.00000000000E+00 0. -1.
         -1    1    6    6    0  503  0.16009442352E+02  0.55571707627E+01  0.46389824230E+02  0.49388259570E+02  0.00000000000E+00 0.  1.
<mgrwt>
<rscale>  0 0.15586206E+04</rscale>
<asrwt>0</asrwt>
<pdfrwt beam="1">  1        2 0.29682441E+00 0.15586206E+04</pdfrwt>
<pdfrwt beam="2">  1       -1 0.48427776E-01 0.15586206E+04</pdfrwt>
<totfact> 0.34186337E+01</totfact>
</mgrwt>
</event>
<event>
12    7  0.1735955E-007  0.2950641E+04  0.7818608E-02  0.8257968E-01
          2   -1    0    0  501    0  0.00000000000E+00  0.00000000000E+00  0.21080506250E+04  0.21080506250E+04  0.00000000000E+00 0. -1.
         -1   -1    0    0    0  501 -0.00000000000E+00 -0.00000000000E+00 -0.10325038760E+04  0.10325038760E+04  0.00000000000E+00 0.  1.
         24    2    1    2    0    0  0.26751158105E+03 -0.82027029320E+03  0.15733669949E+04  0.17960371156E+04  0.76549461885E+02 0.  0.
        254    2    1    2    0    0 -0.26751158105E+03  0.82027029320E+03 -0.49782024599E+03  0.13445173854E+04  0.90304828353E+03 0.  0.
         23    2    4    4    0    0  0.54165585263E+02  0.26987735378E+03  0.23178258439E+03  0.37122592048E+03  0.91202088236E+02 0.  0.
         23    2    4    4    0    0 -0.32167716631E+03  0.55039293942E+03 -0.72960283037E+03  0.97329146491E+03  0.92560242488E+02 0.  0.
          2    1    3    3  502    0  0.24387144808E+03 -0.65786395139E+03  0.12519051743E+04  0.14351044656E+04  0.00000000000E+00 0. -1.
         -1    1    3    3    0  502  0.23640132971E+02 -0.16240634182E+03  0.32146182057E+03  0.36093265000E+03  0.00000000000E+00 0.  1.
         13    1    5    5    0    0  0.74915839799E+02  0.14464848469E+03  0.12450857030E+03  0.20503158599E+03  0.00000000000E+00 0. -1.
        -13    1    5    5    0    0 -0.20750254536E+02  0.12522886909E+03  0.10727401409E+03  0.16619433449E+03  0.00000000000E+00 0.  1.
          1    1    6    6  503    0 -0.32808970467E+03  0.54191200924E+03 -0.71922024551E+03  0.95843061388E+03  0.00000000000E+00 0. -1.
         -1    1    6    6    0  503  0.64125383599E+01  0.84809301768E+01 -0.10382584870E+02  0.14860851034E+02  0.00000000000E+00 0.  1.
<mgrwt>
<rscale>  0 0.29506409E+04</rscale>
<asrwt>0</asrwt>
<pdfrwt beam="1">  1        2 0.32431548E+00 0.29506409E+04</pdfrwt>
<pdfrwt beam="2">  1       -1 0.15884675E+00 0.29506409E+04</pdfrwt>
<totfact> 0.16950383E+00</totfact>
</mgrwt>
</event>
<event>
12    7  0.1805043E-007  0.1898138E+04  0.7818608E-02  0.8655784E-01
         -1   -1    0    0    0  501 -0.00000000000E+00  0.00000000000E+00  0.40152765218E+03  0.40152765218E+03  0.00000000000E+00 0.  1.
          2   -1    0    0  501    0  0.00000000000E+00 -0.00000000000E+00 -0.22432614621E+04  0.22432614621E+04  0.00000000000E+00 0. -1.
         24    2    1    2    0    0  0.66757488772E+03  0.81823133447E+02 -0.31034000145E+03  0.74314414751E+03  0.60008762713E+02 0.  0.
        254    2    1    2    0    0 -0.66757488772E+03 -0.81823133447E+02 -0.15313938084E+04  0.19016449667E+04  0.90483994557E+03 0.  0.
         23    2    4    4    0    0 -0.41649789383E+03 -0.36954148778E+03 -0.36700069684E+03  0.67288877570E+03  0.89768514683E+02 0.  0.
         23    2    4    4    0    0 -0.25107699389E+03  0.28771835433E+03 -0.11643931116E+04  0.12287561910E+04  0.90603258188E+02 0.  0.
          2    1    3    3  502    0  0.52377277223E+02  0.20155272205E+02 -0.15881168708E+02  0.58325171980E+02  0.00000000000E+00 0. -1.
         -1    1    3    3    0  502  0.61519761050E+03  0.61667861242E+02 -0.29445883274E+03  0.68481897553E+03  0.00000000000E+00 0.  1.
         13    1    5    5    0    0 -0.39549552321E+03 -0.36468783325E+03 -0.33320217738E+03  0.63280140298E+03  0.00000000000E+00 0. -1.
        -13    1    5    5    0    0 -0.21002370621E+02 -0.48536545261E+01 -0.33798519464E+02  0.40087372725E+02  0.00000000000E+00 0.  1.
          2    1    6    6  503    0 -0.79386547299E+02  0.48875993317E+02 -0.20326551170E+03  0.22362458465E+03  0.00000000000E+00 0.  1.
         -2    1    6    6    0  503 -0.17169044659E+03  0.23884236101E+03 -0.96112759988E+03  0.10051316064E+04  0.00000000000E+00 0. -1.
<mgrwt>
<rscale>  0 0.18981375E+04</rscale>
<asrwt>0</asrwt>
<pdfrwt beam="1">  1        2 0.34511715E+00 0.18981375E+04</pdfrwt>
<pdfrwt beam="2">  1       -1 0.61773485E-01 0.18981375E+04</pdfrwt>
<totfact> 0.13841451E+01</totfact>
</mgrwt>
</event>
<event>
12    7  0.1735955E-007  0.2012325E+04  0.7818608E-02  0.8600880E-01
         -1   -1    0    0    0  501 -0.00000000000E+00  0.00000000000E+00  0.52255597974E+03  0.52255597974E+03  0.00000000000E+00 0.  1.
          2   -1    0    0  501    0  0.00000000000E+00 -0.00000000000E+00 -0.19373283290E+04  0.19373283290E+04  0.00000000000E+00 0. -1.
         24    2    1    2    0    0 -0.50024222418E+03 -0.60901814627E+03 -0.41884078929E+03  0.89608559187E+03  0.79977470889E+02 0.  0.
        254    2    1    2    0    0  0.50024222418E+03  0.60901814627E+03 -0.99593155999E+03  0.15637987169E+04  0.91238224961E+03 0.  0.
         23    2    4    4    0    0  0.52063998341E+03  0.82351633157E+02 -0.86045230703E+03  0.10131903886E+04  0.91262297909E+02 0.  0.
         23    2    4    4    0    0 -0.20397759231E+02  0.52666651311E+03 -0.13547925295E+03  0.55060832830E+03  0.83792712105E+02 0.  0.
          4    1    3    3  502    0 -0.13419713982E+03 -0.18611923779E+03 -0.16033147245E+03  0.27992038881E+03  0.00000000000E+00 0. -1.
         -3    1    3    3    0  502 -0.36604508436E+03 -0.42289890847E+03 -0.25850931684E+03  0.61616520306E+03  0.00000000000E+00 0.  1.
         13    1    5    5    0    0  0.44918405372E+03  0.41827707754E+02 -0.75508900093E+03  0.87958812553E+03  0.00000000000E+00 0. -1.
        -13    1    5    5    0    0  0.71455929692E+02  0.40523925403E+02 -0.10536330610E+03  0.13360226305E+03  0.00000000000E+00 0.  1.
          1    1    6    6  503    0  0.12009508226E+02  0.44459714849E+03 -0.10255788659E+03  0.45643068788E+03  0.00000000000E+00 0. -1.
         -1    1    6    6    0  503 -0.32407267457E+02  0.82069364623E+02 -0.32921366359E+02  0.94177640428E+02  0.00000000000E+00 0.  1.
<mgrwt>
<rscale>  0 0.20123245E+04</rscale>
<asrwt>0</asrwt>
<pdfrwt beam="1">  1        2 0.29805051E+00 0.20123245E+04</pdfrwt>
<pdfrwt beam="2">  1       -1 0.80393228E-01 0.20123245E+04</pdfrwt>
<totfact> 0.11809045E+01</totfact>
</mgrwt>
</event>
<event>
12    7  0.1735955E-007  0.2075645E+04  0.7818608E-02  0.8572049E-01
          2   -1    0    0  501    0  0.00000000000E+00  0.00000000000E+00  0.32556192290E+04  0.32556192290E+04  0.00000000000E+00 0. -1.
         -1   -1    0    0    0  501 -0.00000000000E+00 -0.00000000000E+00 -0.33083580744E+03  0.33083580744E+03  0.00000000000E+00 0.  1.
         24    2    1    2    0    0 -0.15963627251E+03 -0.56814233871E+03  0.22320009285E+04  0.23100903186E+04  0.80122897422E+02 0.  0.
        254    2    1    2    0    0  0.15963627251E+03  0.56814233871E+03  0.69278249310E+03  0.12763647179E+04  0.89492449613E+03 0.  0.
         23    2    4    4    0    0 -0.34157216025E+03  0.31184121305E+03  0.46787944286E+03  0.66411360630E+03  0.90659948228E+02 0.  0.
         23    2    4    4    0    0  0.50120843275E+03  0.25630112566E+03  0.22490305024E+03  0.61225111158E+03  0.85848014234E+02 0.  0.
          4    1    3    3  502    0 -0.15811296832E+03 -0.46065965704E+03  0.17737889936E+04  0.18394386165E+04  0.00000000000E+00 0. -1.
         -3    1    3    3    0  502 -0.15233041841E+01 -0.10748268167E+03  0.45821193493E+03  0.47065170203E+03  0.00000000000E+00 0.  1.
         13    1    5    5    0    0 -0.18261364660E+03  0.15417292085E+03  0.30379226475E+03  0.38653172389E+03  0.00000000000E+00 0.  1.
        -13    1    5    5    0    0 -0.15895851365E+03  0.15766829220E+03  0.16408717811E+03  0.27758188242E+03  0.00000000000E+00 0. -1.
          2    1    6    6  503    0  0.25609406629E+03  0.13987205315E+03  0.71119099422E+02  0.30034361712E+03  0.00000000000E+00 0.  1.
         -2    1    6    6    0  503  0.24511436646E+03  0.11642907251E+03  0.15378395082E+03  0.31190749446E+03  0.00000000000E+00 0. -1.
<mgrwt>
<rscale>  0 0.20756449E+04</rscale>
<asrwt>0</asrwt>
<pdfrwt beam="1">  1        2 0.50086447E+00 0.20756449E+04</pdfrwt>
<pdfrwt beam="2">  1       -1 0.50897819E-01 0.20756449E+04</pdfrwt>
<totfact> 0.48760036E+00</totfact>
</mgrwt>
</event>
<event>
12    7  0.1735955E-007  0.1566448E+04  0.7818608E-02  0.8841430E-01
          2   -1    0    0  501    0  0.00000000000E+00  0.00000000000E+00  0.11996579592E+04  0.11996579592E+04  0.00000000000E+00 0. -1.
         -1   -1    0    0    0  501 -0.00000000000E+00 -0.00000000000E+00 -0.51134562283E+03  0.51134562283E+03  0.00000000000E+00 0.  1.
         24    2    1    2    0    0  0.35642919642E+03  0.67742656914E+02  0.60740259739E+03  0.71193391881E+03  0.79253705424E+02 0.  0.
        254    2    1    2    0    0 -0.35642919642E+03 -0.67742656914E+02  0.80909738994E+02  0.99906966323E+03  0.92734188221E+03 0.  0.
         23    2    4    4    0    0 -0.17355064135E+03 -0.36748218306E+03  0.35389655051E+03  0.54650639718E+03  0.90903760699E+02 0.  0.
         23    2    4    4    0    0 -0.18287855506E+03  0.29973952615E+03 -0.27298681152E+03  0.45256326605E+03  0.83686086534E+02 0.  0.
          2    1    3    3  502    0  0.29065764956E+03  0.31506522387E+02  0.52130146831E+03  0.59768700092E+03  0.00000000000E+00 0. -1.
         -1    1    3    3    0  502  0.65771546852E+02  0.36236134527E+02  0.86101129072E+02  0.11424691789E+03  0.00000000000E+00 0.  1.
         13    1    5    5    0    0 -0.14436049560E+03 -0.35691232245E+03  0.32090570961E+03  0.50120538013E+03  0.00000000000E+00 0. -1.
        -13    1    5    5    0    0 -0.29190145752E+02 -0.10569860610E+02  0.32990840902E+02  0.45301017050E+02  0.00000000000E+00 0.  1.
          2    1    6    6  503    0 -0.18742475242E+03  0.29838149482E+03 -0.25765850672E+03  0.43651742274E+03  0.00000000000E+00 0. -1.
         -2    1    6    6    0  503  0.45461973563E+01  0.13580313218E+01 -0.15328304798E+02  0.16045843307E+02  0.00000000000E+00 0.  1.
<mgrwt>
<rscale>  0 0.15664480E+04</rscale>
<asrwt>0</asrwt>
<pdfrwt beam="1">  1        2 0.18456276E+00 0.15664480E+04</pdfrwt>
<pdfrwt beam="2">  1       -1 0.78668558E-01 0.15664480E+04</pdfrwt>
<totfact> 0.33586200E+01</totfact>
</mgrwt>
</event>
<event>
12    7  0.1735955E-007  0.1856339E+04  0.7818608E-02  0.8676900E-01
          2   -1    0    0  501    0  0.00000000000E+00  0.00000000000E+00  0.25419466066E+04  0.25419466066E+04  0.00000000000E+00 0. -1.
         -1   -1    0    0    0  501 -0.00000000000E+00 -0.00000000000E+00 -0.33891287874E+03  0.33891287874E+03  0.00000000000E+00 0.  1.
         24    2    1    2    0    0 -0.21895391333E+03  0.18902973490E+03  0.18415514660E+04  0.18667128353E+04  0.98142502492E+02 0.  0.
        254    2    1    2    0    0  0.21895391333E+03 -0.18902973490E+03  0.36148226184E+03  0.10141466500E+04  0.90230313379E+03 0.  0.
         23    2    4    4    0    0  0.46759380777E+03  0.16591297479E+03  0.18744478291E+03  0.53816365160E+03  0.91178314293E+02 0.  0.
         23    2    4    4    0    0 -0.24863989443E+03 -0.35494270969E+03  0.17403747894E+03  0.47598299840E+03  0.92003513148E+02 0.  0.
          4    1    3    3  502    0 -0.64931814624E+02  0.48968503169E+02  0.82912079041E+03  0.83309983792E+03  0.00000000000E+00 0. -1.
         -3    1    3    3    0  502 -0.15402209871E+03  0.14006123174E+03  0.10124306756E+04  0.10336129974E+04  0.00000000000E+00 0.  1.
         13    1    5    5    0    0  0.45609276386E+02  0.35988548714E+02  0.47316042828E+02  0.74927896273E+02  0.00000000000E+00 0.  1.
        -13    1    5    5    0    0  0.42198453138E+03  0.12992442607E+03  0.14012874008E+03  0.46323575532E+03  0.00000000000E+00 0. -1.
          2    1    6    6  503    0 -0.10601214289E+03 -0.10166456422E+03  0.94377778609E+02  0.17458929851E+03  0.00000000000E+00 0. -1.
         -2    1    6    6    0  503 -0.14262775155E+03 -0.25327814547E+03  0.79659700326E+02  0.30139369990E+03  0.00000000000E+00 0.  1.
<mgrwt>
<rscale>  0 0.18563388E+04</rscale>
<asrwt>0</asrwt>
<pdfrwt beam="1">  1        2 0.39106870E+00 0.18563388E+04</pdfrwt>
<pdfrwt beam="2">  1       -1 0.52140444E-01 0.18563388E+04</pdfrwt>
<totfact> 0.13058697E+01</totfact>
</mgrwt>
</event>
<event>
12    7  0.1735955E-007  0.2138742E+04  0.7818608E-02  0.8544367E-01
          2   -1    0    0  501    0  0.00000000000E+00  0.00000000000E+00  0.13040510328E+04  0.13040510328E+04  0.00000000000E+00 0. -1.
         -1   -1    0    0    0  501 -0.00000000000E+00 -0.00000000000E+00 -0.87692462420E+03  0.87692462420E+03  0.00000000000E+00 0.  1.
         24    2    1    2    0    0 -0.81398617953E+03  0.27538346733E+03 -0.21381257103E+02  0.86298165244E+03  0.76619969591E+02 0.  0.
        254    2    1    2    0    0  0.81398617953E+03 -0.27538346733E+03  0.44850766571E+03  0.13179940046E+04  0.89305067903E+03 0.  0.
         23    2    4    4    0    0  0.27432512455E+02  0.24766405421E+03  0.21349714048E+03  0.34066490202E+03  0.91550641657E+02 0.  0.
         23    2    4    4    0    0  0.78655366708E+03 -0.52304752154E+03  0.23501052523E+03  0.97732910254E+03  0.87731674577E+02 0.  0.
          2    1    3    3  502    0 -0.44684249528E+03  0.11889896628E+03 -0.34394943625E+02  0.46366819161E+03  0.00000000000E+00 0. -1.
         -1    1    3    3    0  502 -0.36714368426E+03  0.15648450105E+03  0.13013686521E+02  0.39931346083E+03  0.00000000000E+00 0.  1.
         13    1    5    5    0    0  0.67519104809E+01  0.86432675946E+01 -0.84402550246E+01  0.13839518588E+02  0.00000000000E+00 0. -1.
        -13    1    5    5    0    0  0.20680601974E+02  0.23902078662E+03  0.22193739551E+03  0.32682538343E+03  0.00000000000E+00 0.  1.
          1    1    6    6  503    0  0.16058296141E+03 -0.15025716928E+03  0.46795840748E+02  0.22484206707E+03  0.00000000000E+00 0. -1.
         -1    1    6    6    0  503  0.62597070567E+03 -0.37279035226E+03  0.18821468448E+03  0.75248703547E+03  0.00000000000E+00 0.  1.
<mgrwt>
<rscale>  0 0.21387421E+04</rscale>
<asrwt>0</asrwt>
<pdfrwt beam="1">  1        2 0.20062324E+00 0.21387421E+04</pdfrwt>
<pdfrwt beam="2">  1       -1 0.13491148E+00 0.21387421E+04</pdfrwt>
<totfact> 0.79438862E+00</totfact>
</mgrwt>
</event>
<event>
12    7  0.1735955E-007  0.1723329E+04  0.7818608E-02  0.8748170E-01
          2   -1    0    0  501    0  0.00000000000E+00  0.00000000000E+00  0.35494066753E+04  0.35494066753E+04  0.00000000000E+00 0. -1.
         -1   -1    0    0    0  501 -0.00000000000E+00 -0.00000000000E+00 -0.20918019177E+03  0.20918019177E+03  0.00000000000E+00 0.  1.
         24    2    1    2    0    0  0.56485729639E+02  0.41718809667E+03  0.21384259431E+03  0.47933579644E+03  0.82447589132E+02 0.  0.
        254    2    1    2    0    0 -0.56485729639E+02 -0.41718809667E+03  0.31263838892E+04  0.32792510706E+04  0.89553046614E+03 0.  0.
         23    2    4    4    0    0 -0.16032567782E+03 -0.27559531496E+03  0.30488877685E+04  0.30666904376E+04  0.84950072446E+02 0.  0.
         23    2    4    4    0    0  0.10383994818E+03 -0.14159278171E+03  0.77496120737E+02  0.21256063300E+03  0.91351646424E+02 0.  0.
          4    1    3    3  502    0  0.48799769519E+02  0.26219710178E+03  0.17621764396E+03  0.31965824834E+03  0.00000000000E+00 0. -1.
         -3    1    3    3    0  502  0.76859601200E+01  0.15499099488E+03  0.37624950347E+02  0.15967754810E+03  0.00000000000E+00 0.  1.
         13    1    5    5    0    0 -0.31346204370E+02 -0.80585539205E+01  0.35872480597E+03  0.36018191409E+03  0.00000000000E+00 0.  1.
        -13    1    5    5    0    0 -0.12897947345E+03 -0.26753676104E+03  0.26901629625E+04  0.27065085235E+04  0.00000000000E+00 0. -1.
          1    1    6    6  503    0  0.79873155029E+02 -0.65213953377E+02  0.29220992423E+01  0.10315580097E+03  0.00000000000E+00 0. -1.
         -1    1    6    6    0  503  0.23966793150E+02 -0.76378828331E+02  0.74574021495E+02  0.10940483204E+03  0.00000000000E+00 0.  1.
<mgrwt>
<rscale>  0 0.17233288E+04</rscale>
<asrwt>0</asrwt>
<pdfrwt beam="1">  1        2 0.54606252E+00 0.17233288E+04</pdfrwt>
<pdfrwt beam="2">  1       -1 0.32181571E-01 0.17233288E+04</pdfrwt>
<totfact> 0.73882933E+00</totfact>
</mgrwt>
</event>
<event>
12    7  0.1735955E-007  0.2951320E+04  0.7818608E-02  0.8257770E-01
          2   -1    0    0  501    0  0.00000000000E+00  0.00000000000E+00  0.23571347144E+04  0.23571347144E+04  0.00000000000E+00 0. -1.
         -1   -1    0    0    0  501 -0.00000000000E+00 -0.00000000000E+00 -0.92382170102E+03  0.92382170102E+03  0.00000000000E+00 0.  1.
         24    2    1    2    0    0  0.42356644903E+02  0.10365576513E+03  0.21310085314E+04  0.21355672658E+04  0.83135930505E+02 0.  0.
        254    2    1    2    0    0 -0.42356644903E+02 -0.10365576513E+03 -0.69769551799E+03  0.11453891496E+04  0.90144254684E+03 0.  0.
         23    2    4    4    0    0  0.36676024154E+03 -0.21069066922E+03 -0.17547055824E+03  0.46692570344E+03  0.91247262184E+02 0.  0.
         23    2    4    4    0    0 -0.40911688644E+03  0.10703490408E+03 -0.52222495975E+03  0.67846344619E+03  0.93598300041E+02 0.  0.
          4    1    3    3  502    0  0.67173376383E+02  0.67792485716E+02  0.13838220305E+04  0.13871090424E+04  0.00000000000E+00 0. -1.
         -3    1    3    3    0  502 -0.24816731480E+02  0.35863279418E+02  0.74718650093E+03  0.74845822338E+03  0.00000000000E+00 0.  1.
         13    1    5    5    0    0  0.56230078686E+02  0.17411070926E+01 -0.27708755150E+02  0.62710671460E+02  0.00000000000E+00 0. -1.
        -13    1    5    5    0    0  0.31053016285E+03 -0.21243177631E+03 -0.14776180309E+03  0.40421503198E+03  0.00000000000E+00 0.  1.
          1    1    6    6  503    0 -0.64561243285E+02 -0.14378586164E+02 -0.60006515695E+02  0.89306661568E+02  0.00000000000E+00 0. -1.
         -1    1    6    6    0  503 -0.34455564316E+03  0.12141349025E+03 -0.46221844405E+03  0.58915678462E+03  0.00000000000E+00 0.  1.
<mgrwt>
<rscale>  0 0.29513198E+04</rscale>
<asrwt>0</asrwt>
<pdfrwt beam="1">  1        2 0.36263611E+00 0.29513198E+04</pdfrwt>
<pdfrwt beam="2">  1       -1 0.14212642E+00 0.29513198E+04</pdfrwt>
<totfact> 0.16555989E+00</totfact>
</mgrwt>
</event>
<event>
12    7  0.1735955E-007  0.2209243E+04  0.7818608E-02  0.8514591E-01
         -1   -1    0    0    0  501 -0.00000000000E+00  0.00000000000E+00  0.14105506788E+04  0.14105506788E+04  0.00000000000E+00 0.  1.
          2   -1    0    0  501    0  0.00000000000E+00 -0.00000000000E+00 -0.86504393861E+03  0.86504393861E+03  0.00000000000E+00 0. -1.
         24    2    1    2    0    0 -0.60056978658E+03  0.68543342929E+03  0.34196892261E+03  0.97675889097E+03  0.81315020178E+02 0.  0.
        254    2    1    2    0    0  0.60056978658E+03 -0.68543342929E+03  0.20353781759E+03  0.12988357265E+04  0.90279762218E+03 0.  0.
         23    2    4    4    0    0  0.76413335773E+03 -0.27137207381E+03  0.22261028063E+03  0.84504571056E+03  0.83691845850E+02 0.  0.
         23    2    4    4    0    0 -0.16356357115E+03 -0.41406135548E+03 -0.19072463032E+02  0.45379001590E+03  0.85800767934E+02 0.  0.
          2    1    3    3  502    0 -0.10768355454E+03  0.15235703069E+03  0.42186522255E+02  0.19128020123E+03  0.00000000000E+00 0. -1.
         -3    1    3    3    0  502 -0.49288623204E+03  0.53307639859E+03  0.29978240036E+03  0.78547868974E+03  0.00000000000E+00 0.  1.
         13    1    5    5    0    0  0.82110206653E+02 -0.27321427747E+01  0.24159441298E+02  0.85634276108E+02  0.00000000000E+00 0.  1.
        -13    1    5    5    0    0  0.68202315108E+03 -0.26863993103E+03  0.19845083933E+03  0.75941143446E+03  0.00000000000E+00 0. -1.
          3    1    6    6  503    0 -0.13583899923E+03 -0.24822626896E+03  0.10087270538E+02  0.28314354547E+03  0.00000000000E+00 0. -1.
         -3    1    6    6    0  503 -0.27724571911E+02 -0.16583508652E+03 -0.29159733570E+02  0.17064647043E+03  0.00000000000E+00 0.  1.
<mgrwt>
<rscale>  0 0.22092427E+04</rscale>
<asrwt>0</asrwt>
<pdfrwt beam="1">  1        2 0.13308368E+00 0.22092427E+04</pdfrwt>
<pdfrwt beam="2">  1       -1 0.21700780E+00 0.22092427E+04</pdfrwt>
<totfact> 0.37206894E+00</totfact>
</mgrwt>
</event>
<event>
12    7  0.1735955E-007  0.3210112E+04  0.7818608E-02  0.8186152E-01
          2   -1    0    0  501    0  0.00000000000E+00  0.00000000000E+00  0.30753276144E+04  0.30753276144E+04  0.00000000000E+00 0. -1.
         -1   -1    0    0    0  501 -0.00000000000E+00 -0.00000000000E+00 -0.83770116481E+03  0.83770116481E+03  0.00000000000E+00 0.  1.
         24    2    1    2    0    0  0.13332211061E+04 -0.26966088702E+03  0.17341528348E+04  0.22053319530E+04  0.77507784069E+02 0.  0.
        254    2    1    2    0    0 -0.13332211061E+04  0.26966088702E+03  0.50347361478E+03  0.17076968262E+04  0.90141403236E+03 0.  0.
         23    2    4    4    0    0 -0.66412954313E+03  0.37796561245E+03 -0.12388613274E+03  0.77948315885E+03  0.91214948320E+02 0.  0.
         23    2    4    4    0    0 -0.66909156299E+03 -0.10830472543E+03  0.62735974752E+03  0.92821366737E+03  0.92665669342E+02 0.  0.
          4    1    3    3  502    0  0.10734210386E+04 -0.24525711464E+03  0.13806036794E+04  0.17659134458E+04  0.00000000000E+00 0. -1.
         -3    1    3    3    0  502  0.25980006748E+03 -0.24403772383E+02  0.35354915541E+03  0.43941850720E+03  0.00000000000E+00 0.  1.
         13    1    5    5    0    0 -0.34914383336E+03  0.14957821300E+03 -0.77435220405E+02  0.38764838647E+03  0.00000000000E+00 0. -1.
        -13    1    5    5    0    0 -0.31498570977E+03  0.22838739946E+03 -0.46450912334E+02  0.39183477238E+03  0.00000000000E+00 0.  1.
          3    1    6    6  503    0 -0.31615768088E+03 -0.12256044963E+02  0.32594415410E+03  0.45425266253E+03  0.00000000000E+00 0. -1.
         -3    1    6    6    0  503 -0.35293388211E+03 -0.96048680470E+02  0.30141559341E+03  0.47396100484E+03  0.00000000000E+00 0.  1.
<mgrwt>
<rscale>  0 0.32101125E+04</rscale>
<asrwt>0</asrwt>
<pdfrwt beam="1">  1        2 0.47312732E+00 0.32101125E+04</pdfrwt>
<pdfrwt beam="2">  1       -1 0.12887710E+00 0.32101125E+04</pdfrwt>
<totfact> 0.77235577E-01</totfact>
</mgrwt>
</event>
<event>
12    7  0.1735955E-007  0.1675006E+04  0.7818608E-02  0.8775749E-01
         -1   -1    0    0    0  501 -0.00000000000E+00  0.00000000000E+00  0.47106942826E+03  0.47106942826E+03  0.00000000000E+00 0.  1.
          2   -1    0    0  501    0  0.00000000000E+00 -0.00000000000E+00 -0.14889762533E+04  0.14889762533E+04  0.00000000000E+00 0. -1.
         24    2    1    2    0    0  0.27916055661E+03 -0.51975183501E+03 -0.36838067435E+03  0.70137874163E+03  0.90306320978E+02 0.  0.
        254    2    1    2    0    0 -0.27916055661E+03  0.51975183501E+03 -0.64952615068E+03  0.12586669399E+04  0.90237778056E+03 0.  0.
         23    2    4    4    0    0 -0.94399753433E+02  0.29071290953E+03 -0.83864968045E+03  0.89741104994E+03  0.92671445506E+02 0.  0.
         23    2    4    4    0    0 -0.18476080318E+03  0.22903892548E+03  0.18912352978E+03  0.36125588997E+03  0.90237047544E+02 0.  0.
          4    1    3    3  502    0  0.38472629935E+02 -0.76779026316E+02 -0.18848960886E+02  0.87922951854E+02  0.00000000000E+00 0. -1.
         -3    1    3    3    0  502  0.24068792668E+03 -0.44297280869E+03 -0.34953171346E+03  0.61345578977E+03  0.00000000000E+00 0.  1.
         13    1    5    5    0    0 -0.85403251675E+02  0.11862067369E+03 -0.35149603201E+03  0.38067576773E+03  0.00000000000E+00 0. -1.
        -13    1    5    5    0    0 -0.89965017572E+01  0.17209223585E+03 -0.48715364845E+03  0.51673528221E+03  0.00000000000E+00 0.  1.
          4    1    6    6  503    0 -0.12538746438E+03  0.15022369001E+03  0.17316886258E+03  0.26129796829E+03  0.00000000000E+00 0. -1.
         -4    1    6    6    0  503 -0.59373338803E+02  0.78815235463E+02  0.15954667192E+02  0.99957921681E+02  0.00000000000E+00 0.  1.
<mgrwt>
<rscale>  0 0.16750059E+04</rscale>
<asrwt>0</asrwt>
<pdfrwt beam="1">  1        2 0.22907327E+00 0.16750059E+04</pdfrwt>
<pdfrwt beam="2">  1       -1 0.72472220E-01 0.16750059E+04</pdfrwt>
<totfact> 0.26867232E+01</totfact>
</mgrwt>
</event>
<event>
12    7  0.1735955E-007  0.1222455E+04  0.7818608E-02  0.9093426E-01
          2   -1    0    0  501    0  0.00000000000E+00  0.00000000000E+00  0.76780682329E+03  0.76780682329E+03  0.00000000000E+00 0. -1.
         -1   -1    0    0    0  501 -0.00000000000E+00 -0.00000000000E+00 -0.48657929593E+03  0.48657929593E+03  0.00000000000E+00 0.  1.
         24    2    1    2    0    0  0.18866864616E+03  0.11286658412E+03 -0.93272160698E+02  0.25241279295E+03  0.81717796280E+02 0.  0.
        254    2    1    2    0    0 -0.18866864616E+03 -0.11286658412E+03  0.37449968806E+03  0.10019733263E+04  0.90297608294E+03 0.  0.
         23    2    4    4    0    0 -0.14157816321E+02 -0.38319523699E+03  0.50793124049E+03  0.64300188195E+03  0.91750976623E+02 0.  0.
         23    2    4    4    0    0 -0.17451082984E+03  0.27032865287E+03 -0.13343155244E+03  0.35897144432E+03  0.86746229632E+02 0.  0.
          4    1    3    3  502    0  0.10957885788E+03  0.99321293746E+02 -0.31653882386E+02  0.15124223536E+03  0.00000000000E+00 0. -1.
         -1    1    3    3    0  502  0.79089788282E+02  0.13545290373E+02 -0.61618278312E+02  0.10117055759E+03  0.00000000000E+00 0.  1.
         13    1    5    5    0    0  0.16285651173E+02 -0.22492007579E+02  0.66930392713E+02  0.72462337168E+02  0.00000000000E+00 0. -1.
        -13    1    5    5    0    0 -0.30443467494E+02 -0.36070322941E+03  0.44100084778E+03  0.57053954479E+03  0.00000000000E+00 0.  1.
          3    1    6    6  503    0 -0.63564617935E+02  0.17045014742E+03 -0.93009511132E+02  0.20431466558E+03  0.00000000000E+00 0.  1.
         -3    1    6    6    0  503 -0.11094621190E+03  0.99878505451E+02 -0.40422041304E+02  0.15465677874E+03  0.00000000000E+00 0. -1.
<mgrwt>
<rscale>  0 0.12224547E+04</rscale>
<asrwt>0</asrwt>
<pdfrwt beam="1">  1        2 0.11812413E+00 0.12224547E+04</pdfrwt>
<pdfrwt beam="2">  1       -1 0.74858353E-01 0.12224547E+04</pdfrwt>
<totfact> 0.73472978E+01</totfact>
</mgrwt>
</event>
<event>
12    7  0.1735955E-007  0.1727856E+04  0.7818608E-02  0.8745635E-01
          2   -1    0    0  501    0  0.00000000000E+00  0.00000000000E+00  0.27264175038E+04  0.27264175038E+04  0.00000000000E+00 0. -1.
         -3   -1    0    0    0  501 -0.00000000000E+00 -0.00000000000E+00 -0.27375527543E+03  0.27375527543E+03  0.00000000000E+00 0.  1.
         24    2    1    2    0    0  0.33756229338E+03 -0.31899885292E+03  0.16793784522E+03  0.50027487981E+03  0.79770078599E+02 0.  0.
        254    2    1    2    0    0 -0.33756229338E+03  0.31899885292E+03  0.22847243832E+04  0.24998978994E+04  0.90211719330E+03 0.  0.
         23    2    4    4    0    0 -0.60286210571E+03  0.34828586865E+02  0.14880309412E+04  0.16085494750E+04  0.92409860494E+02 0.  0.
         23    2    4    4    0    0  0.26529981233E+03  0.28417026605E+03  0.79669344194E+03  0.89134842449E+03  0.92977647178E+02 0.  0.
          4    1    3    3  502    0  0.13761749151E+03 -0.10792685669E+03  0.26255115320E+02  0.17685053420E+03  0.00000000000E+00 0. -1.
         -3    1    3    3    0  502  0.19994480187E+03 -0.21107199623E+03  0.14168272990E+03  0.32342434562E+03  0.00000000000E+00 0.  1.
         13    1    5    5    0    0 -0.68307349048E+02 -0.52491406118E+00  0.10372888276E+03  0.12420084777E+03  0.00000000000E+00 0. -1.
        -13    1    5    5    0    0 -0.53455475666E+03  0.35353500926E+02  0.13843020585E+04  0.14843486272E+04  0.00000000000E+00 0.  1.
          4    1    6    6  503    0  0.76503531622E+02  0.32695122781E+02  0.20604196458E+03  0.22220497873E+03  0.00000000000E+00 0. -1.
         -4    1    6    6    0  503  0.18879628071E+03  0.25147514327E+03  0.59065147736E+03  0.66914344576E+03  0.00000000000E+00 0.  1.
<mgrwt>
<rscale>  0 0.17278555E+04</rscale>
<asrwt>0</asrwt>
<pdfrwt beam="1">  1        2 0.41944883E+00 0.17278555E+04</pdfrwt>
<pdfrwt beam="2">  1       -3 0.42116198E-01 0.17278555E+04</pdfrwt>
<totfact> 0.88376966E+00</totfact>
</mgrwt>
</event>
<event>
12    7  0.1735955E-007  0.1829741E+04  0.7818608E-02  0.8690641E-01
          2   -1    0    0  501    0  0.00000000000E+00  0.00000000000E+00  0.27143991276E+04  0.27143991276E+04  0.00000000000E+00 0. -1.
         -1   -1    0    0    0  501 -0.00000000000E+00 -0.00000000000E+00 -0.30835126163E+03  0.30835126163E+03  0.00000000000E+00 0.  1.
         24    2    1    2    0    0 -0.35933625352E+03  0.19938831854E+03 -0.85863669058E+00  0.41901973107E+03  0.81844688890E+02 0.  0.
        254    2    1    2    0    0  0.35933625352E+03 -0.19938831854E+03  0.24069065026E+04  0.26037306581E+04  0.90406647050E+03 0.  0.
         23    2    4    4    0    0  0.62492920267E+02  0.34669959910E+03  0.83373585536E+03  0.90970100861E+03  0.91293326498E+02 0.  0.
         23    2    4    4    0    0  0.29684333326E+03 -0.54608791763E+03  0.15731706473E+04  0.16940296495E+04  0.92426131408E+02 0.  0.
          4    1    3    3  502    0 -0.10912617405E+02  0.29337419599E+02 -0.86507757180E+00  0.31313220317E+02  0.00000000000E+00 0. -1.
         -3    1    3    3    0  502 -0.34842363612E+03  0.17005089894E+03  0.64408812261E-02  0.38770651075E+03  0.00000000000E+00 0.  1.
         13    1    5    5    0    0  0.36546170788E+02  0.13739303264E+03  0.44870254418E+03  0.47068720098E+03  0.00000000000E+00 0. -1.
        -13    1    5    5    0    0  0.25946749479E+02  0.20930656646E+03  0.38503331118E+03  0.43901380763E+03  0.00000000000E+00 0.  1.
          3    1    6    6  503    0  0.21792830799E+03 -0.47243274996E+03  0.12879180384E+04  0.13890350335E+04  0.00000000000E+00 0. -1.
         -3    1    6    6    0  503  0.78915025273E+02 -0.73655167669E+02  0.28525260891E+03  0.30499461607E+03  0.00000000000E+00 0.  1.
<mgrwt>
<rscale>  0 0.18297414E+04</rscale>
<asrwt>0</asrwt>
<pdfrwt beam="1">  1        2 0.41759985E+00 0.18297414E+04</pdfrwt>
<pdfrwt beam="2">  1       -1 0.47438658E-01 0.18297414E+04</pdfrwt>
<totfact> 0.12405333E+01</totfact>
</mgrwt>
</event>
<event>
12    7  0.1735955E-007  0.1653356E+04  0.7818608E-02  0.8788423E-01
         -1   -1    0    0    0  501 -0.00000000000E+00  0.00000000000E+00  0.36385663406E+03  0.36385663406E+03  0.00000000000E+00 0.  1.
          2   -1    0    0  501    0  0.00000000000E+00 -0.00000000000E+00 -0.18782034227E+04  0.18782034227E+04  0.00000000000E+00 0. -1.
         24    2    1    2    0    0  0.26401349073E+03 -0.51266139851E+03 -0.44230163289E+03  0.73126991056E+03  0.81241090693E+02 0.  0.
        254    2    1    2    0    0 -0.26401349073E+03  0.51266139851E+03 -0.10720451557E+04  0.15107901462E+04  0.89480792190E+03 0.  0.
         23    2    4    4    0    0 -0.92097474570E+02  0.67563995171E+03 -0.40839230735E+03  0.80034532850E+03  0.93792744806E+02 0.  0.
         23    2    4    4    0    0 -0.17191601616E+03 -0.16297855320E+03 -0.66365284839E+03  0.71044481770E+03  0.90441198616E+02 0.  0.
          2    1    3    3  502    0  0.26922908297E+03 -0.49006095899E+03 -0.42414571242E+03  0.70181452535E+03  0.00000000000E+00 0. -1.
         -1    1    3    3    0  502 -0.52155922372E+01 -0.22600439530E+02 -0.18155920474E+02  0.29455385205E+02  0.00000000000E+00 0.  1.
         13    1    5    5    0    0  0.91577373695E+01  0.25748179182E+03 -0.13947769805E+03  0.29297570808E+03  0.00000000000E+00 0.  1.
        -13    1    5    5    0    0 -0.10125521194E+03  0.41815815989E+03 -0.26891460930E+03  0.50736962042E+03  0.00000000000E+00 0. -1.
          2    1    6    6  503    0 -0.79460967208E+02 -0.13423414741E+03 -0.43571020464E+03  0.46279178263E+03  0.00000000000E+00 0.  1.
         -2    1    6    6    0  503 -0.92455048951E+02 -0.28744405784E+02 -0.22794264375E+03  0.24765303507E+03  0.00000000000E+00 0. -1.
<mgrwt>
<rscale>  0 0.16533563E+04</rscale>
<asrwt>0</asrwt>
<pdfrwt beam="1">  1        2 0.28895438E+00 0.16533563E+04</pdfrwt>
<pdfrwt beam="2">  1       -1 0.55977943E-01 0.16533563E+04</pdfrwt>
<totfact> 0.27421152E+01</totfact>
</mgrwt>
</event>
<event>
12    7  0.1735955E-007  0.1207568E+04  0.7818608E-02  0.9106258E-01
         -1   -1    0    0    0  501 -0.00000000000E+00  0.00000000000E+00  0.17810056070E+03  0.17810056070E+03  0.00000000000E+00 0.  1.
          2   -1    0    0  501    0  0.00000000000E+00 -0.00000000000E+00 -0.20469070631E+04  0.20469070631E+04  0.00000000000E+00 0. -1.
         24    2    1    2    0    0  0.21587783094E+03 -0.16071981632E+03 -0.37186223318E+03  0.46569903305E+03  0.78485486936E+02 0.  0.
        254    2    1    2    0    0 -0.21587783094E+03  0.16071981632E+03 -0.14969442693E+04  0.17593085908E+04  0.88424570970E+03 0.  0.
         23    2    4    4    0    0 -0.51159176493E+03 -0.38647514704E+02 -0.11006383321E+04  0.12177278113E+04  0.90755274256E+02 0.  0.
         23    2    4    4    0    0  0.29571393399E+03  0.19936733103E+03 -0.39630593711E+03  0.54158077953E+03  0.95169751100E+02 0.  0.
          2    1    3    3  502    0  0.23771010641E+02 -0.29708375129E+02 -0.17552774434E+02  0.41901651399E+02  0.00000000000E+00 0. -1.
         -1    1    3    3    0  502  0.19210682030E+03 -0.13101144119E+03 -0.35430945875E+03  0.42379738165E+03  0.00000000000E+00 0.  1.
         13    1    5    5    0    0 -0.11923234800E+03  0.25434282874E+02 -0.22031629573E+03  0.25179858165E+03  0.00000000000E+00 0.  1.
        -13    1    5    5    0    0 -0.39235941693E+03 -0.64081797577E+02 -0.88032203642E+03  0.96592922962E+03  0.00000000000E+00 0. -1.
          2    1    6    6  503    0  0.26840455729E+03  0.16058305266E+03 -0.29603479906E+03  0.43065592465E+03  0.00000000000E+00 0. -1.
         -2    1    6    6    0  503  0.27309376695E+02  0.38784278369E+02 -0.10027113805E+03  0.11092485488E+03  0.00000000000E+00 0.  1.
<mgrwt>
<rscale>  0 0.12075683E+04</rscale>
<asrwt>0</asrwt>
<pdfrwt beam="1">  1        2 0.31490879E+00 0.12075683E+04</pdfrwt>
<pdfrwt beam="2">  1       -1 0.27400086E-01 0.12075683E+04</pdfrwt>
<totfact> 0.84639682E+01</totfact>
</mgrwt>
</event>
<event>
12    7  0.1735955E-007  0.3147485E+04  0.7818608E-02  0.8202826E-01
          2   -1    0    0  501    0  0.00000000000E+00  0.00000000000E+00  0.19348518652E+04  0.19348518652E+04  0.00000000000E+00 0. -1.
         -1   -1    0    0    0  501 -0.00000000000E+00 -0.00000000000E+00 -0.12800285133E+04  0.12800285133E+04  0.00000000000E+00 0.  1.
         24    2    1    2    0    0 -0.10247347624E+04 -0.98443173814E+03  0.44106806165E+02  0.14238052270E+04  0.78030338424E+02 0.  0.
        254    2    1    2    0    0  0.10247347624E+04  0.98443173814E+03  0.61071654570E+03  0.17910751514E+04  0.90321000797E+03 0.  0.
         23    2    4    4    0    0  0.48862392230E+03  0.58951398424E+03  0.78106272446E+03  0.10977010303E+04  0.92781988252E+02 0.  0.
         23    2    4    4    0    0  0.53611084015E+03  0.39491775390E+03 -0.17034617875E+03  0.69337412114E+03  0.91514949479E+02 0.  0.
          2    1    3    3  502    0 -0.10394097790E+03 -0.13219446976E+03  0.14641978394E+02  0.16880015478E+03  0.00000000000E+00 0. -1.
         -1    1    3    3    0  502 -0.92079378454E+03 -0.85223726838E+03  0.29464827771E+02  0.12550050722E+04  0.00000000000E+00 0.  1.
         13    1    5    5    0    0  0.20631175023E+03  0.30000735443E+03  0.32338091038E+03  0.48697450056E+03  0.00000000000E+00 0. -1.
        -13    1    5    5    0    0  0.28231217206E+03  0.28950662980E+03  0.45768181408E+03  0.61072652975E+03  0.00000000000E+00 0.  1.
          1    1    6    6  503    0  0.85137722409E+02  0.24887647701E+02 -0.25909587688E+02  0.92407432165E+02  0.00000000000E+00 0. -1.
         -1    1    6    6    0  503  0.45097311774E+03  0.37003010620E+03 -0.14443659107E+03  0.60096668897E+03  0.00000000000E+00 0.  1.
<mgrwt>
<rscale>  0 0.31474851E+04</rscale>
<asrwt>0</asrwt>
<pdfrwt beam="1">  1        2 0.29766952E+00 0.31474851E+04</pdfrwt>
<pdfrwt beam="2">  1       -1 0.19692747E+00 0.31474851E+04</pdfrwt>
<totfact> 0.11044230E+00</totfact>
</mgrwt>
</event>
<event>
12    7  0.1735955E-007  0.1941656E+04  0.7818608E-02  0.8634395E-01
         -1   -1    0    0    0  501 -0.00000000000E+00  0.00000000000E+00  0.85980402940E+03  0.85980402940E+03  0.00000000000E+00 0.  1.
          2   -1    0    0  501    0  0.00000000000E+00 -0.00000000000E+00 -0.10961882368E+04  0.10961882368E+04  0.00000000000E+00 0. -1.
         24    2    1    2    0    0 -0.60117574631E+03  0.15962176703E+03  0.34667934214E+03  0.71638006665E+03  0.78246068092E+02 0.  0.
        254    2    1    2    0    0  0.60117574631E+03 -0.15962176703E+03 -0.58306354949E+03  0.12396121995E+04  0.89987994530E+03 0.  0.
         23    2    4    4    0    0  0.82792542674E+03 -0.15706585350E+03 -0.41983491695E+03  0.94575402514E+03  0.89772623907E+02 0.  0.
         23    2    4    4    0    0 -0.22674968044E+03 -0.25559135356E+01 -0.16322863254E+03  0.29385817436E+03  0.91033454753E+02 0.  0.
          2    1    3    3  502    0 -0.82316160854E+02  0.34714704806E+02  0.23140279955E+02  0.92285067177E+02  0.00000000000E+00 0. -1.
         -1    1    3    3    0  502 -0.51885958545E+03  0.12490706223E+03  0.32353906218E+03  0.62409499947E+03  0.00000000000E+00 0.  1.
         13    1    5    5    0    0  0.82391899894E+03 -0.15859901324E+03 -0.40764110900E+03  0.93282765694E+03  0.00000000000E+00 0.  1.
        -13    1    5    5    0    0  0.40064278089E+01  0.15331597460E+01 -0.12193807951E+02  0.12926368204E+02  0.00000000000E+00 0. -1.
          4    1    6    6  503    0 -0.36673878156E+02  0.18388954803E+02  0.20885850799E+01  0.41079060181E+02  0.00000000000E+00 0. -1.
         -4    1    6    6    0  503 -0.19007580228E+03 -0.20944868339E+02 -0.16531721762E+03  0.25277911418E+03  0.00000000000E+00 0.  1.
<mgrwt>
<rscale>  0 0.19416561E+04</rscale>
<asrwt>0</asrwt>
<pdfrwt beam="1">  1        2 0.16864434E+00 0.19416561E+04</pdfrwt>
<pdfrwt beam="2">  1       -1 0.13227754E+00 0.19416561E+04</pdfrwt>
<totfact> 0.11317283E+01</totfact>
</mgrwt>
</event>
<event>
12    7  0.1735955E-007  0.3848669E+04  0.7818608E-02  0.8035791E-01
         -1   -1    0    0    0  501 -0.00000000000E+00  0.00000000000E+00  0.25945191160E+04  0.25945191160E+04  0.00000000000E+00 0.  1.
          2   -1    0    0  501    0  0.00000000000E+00 -0.00000000000E+00 -0.14272635357E+04  0.14272635357E+04  0.00000000000E+00 0. -1.
         24    2    1    2    0    0 -0.12372172669E+04  0.26893462670E+03  0.19166567068E+04  0.22985139385E+04  0.80999969732E+02 0.  0.
        254    2    1    2    0    0  0.12372172669E+04 -0.26893462670E+03 -0.74940112649E+03  0.17232687131E+04  0.89722940779E+03 0.  0.
         23    2    4    4    0    0  0.13062744128E+04 -0.40773855194E+03 -0.69916110208E+03  0.15399548052E+04  0.10015481601E+03 0.  0.
         23    2    4    4    0    0 -0.69057145857E+02  0.13880392524E+03 -0.50240024406E+02  0.18331390792E+03  0.83931577650E+02 0.  0.
          4    1    3    3  502    0 -0.21497728488E+03  0.37217116104E+02  0.27966988598E+03  0.35470493635E+03  0.00000000000E+00 0. -1.
         -3    1    3    3    0  502 -0.10222399820E+04  0.23171751059E+03  0.16369868208E+04  0.19438090022E+04  0.00000000000E+00 0.  1.
         13    1    5    5    0    0  0.31176276643E+03 -0.53813082140E+02 -0.16932793902E+03  0.35883676132E+03  0.00000000000E+00 0. -1.
        -13    1    5    5    0    0  0.99451164633E+03 -0.35392546980E+03 -0.52983316306E+03  0.11811180439E+04  0.00000000000E+00 0.  1.
          1    1    6    6  503    0 -0.22122561676E+02 -0.61109522398E+01 -0.13473673746E+02  0.26613743754E+02  0.00000000000E+00 0. -1.
         -1    1    6    6    0  503 -0.46934584181E+02  0.14491487748E+03 -0.36766350659E+02  0.15670016416E+03  0.00000000000E+00 0.  1.
<mgrwt>
<rscale>  0 0.38486686E+04</rscale>
<asrwt>0</asrwt>
<pdfrwt beam="1">  1        2 0.21957901E+00 0.38486686E+04</pdfrwt>
<pdfrwt beam="2">  1       -1 0.39915679E+00 0.38486686E+04</pdfrwt>
<totfact> 0.91984608E-02</totfact>
</mgrwt>
</event>
<event>
12    7  0.1735955E-007  0.3517655E+04  0.7818608E-02  0.8109619E-01
         -1   -1    0    0    0  501 -0.00000000000E+00  0.00000000000E+00  0.15409708427E+04  0.15409708427E+04  0.00000000000E+00 0.  1.
          2   -1    0    0  501    0  0.00000000000E+00 -0.00000000000E+00 -0.20074841964E+04  0.20074841964E+04  0.00000000000E+00 0. -1.
         24    2    1    2    0    0  0.27246367317E+03 -0.95913114231E+03  0.11000785435E+04  0.14866864053E+04  0.76776718511E+02 0.  0.
        254    2    1    2    0    0 -0.27246367317E+03  0.95913114231E+03 -0.15665918972E+04  0.20617686338E+04  0.89582962983E+03 0.  0.
         23    2    4    4    0    0 -0.11615409997E+03  0.10550121206E+04 -0.15122023407E+04  0.18498115848E+04  0.92220553614E+02 0.  0.
         23    2    4    4    0    0 -0.15630957320E+03 -0.95880978288E+02 -0.54389556471E+02  0.21195704899E+03  0.91333028481E+02 0.  0.
          4    1    3    3  502    0  0.60543727309E+02 -0.12506050517E+03  0.13681732485E+03  0.19499911089E+03  0.00000000000E+00 0. -1.
         -3    1    3    3    0  502  0.21191994586E+03 -0.83407063714E+03  0.96326121863E+03  0.12916872944E+04  0.00000000000E+00 0.  1.
         13    1    5    5    0    0 -0.52122419407E+02  0.31023500910E+03 -0.51603365706E+03  0.60436184749E+03  0.00000000000E+00 0. -1.
        -13    1    5    5    0    0 -0.64031680560E+02  0.74477711149E+03 -0.99616868368E+03  0.12454497373E+04  0.00000000000E+00 0.  1.
          1    1    6    6  503    0 -0.88260031141E+02 -0.57048741974E+02  0.16399981336E+02  0.10636423951E+03  0.00000000000E+00 0. -1.
         -1    1    6    6    0  503 -0.68049542061E+02 -0.38832236314E+02 -0.70789537808E+02  0.10559280948E+03  0.00000000000E+00 0.  1.
<mgrwt>
<rscale>  0 0.35176552E+04</rscale>
<asrwt>0</asrwt>
<pdfrwt beam="1">  1        2 0.30884372E+00 0.35176552E+04</pdfrwt>
<pdfrwt beam="2">  1       -1 0.23707244E+00 0.35176552E+04</pdfrwt>
<totfact> 0.52346400E-01</totfact>
</mgrwt>
</event>
<event>
12    7  0.1735955E-007  0.1211542E+04  0.7818608E-02  0.9102813E-01
          2   -1    0    0  501    0  0.00000000000E+00  0.00000000000E+00  0.90554859578E+03  0.90554859578E+03  0.00000000000E+00 0. -1.
         -1   -1    0    0    0  501 -0.00000000000E+00 -0.00000000000E+00 -0.40523361726E+03  0.40523361726E+03  0.00000000000E+00 0.  1.
         24    2    1    2    0    0  0.26448061697E+03 -0.97407000009E+02  0.21307200799E+01  0.29297532911E+03  0.79949253235E+02 0.  0.
        254    2    1    2    0    0 -0.26448061697E+03  0.97407000009E+02  0.49818425845E+03  0.10178068839E+04  0.84160868413E+03 0.  0.
         23    2    4    4    0    0  0.29727404932E+03  0.18451504810E+02  0.20806778660E+03  0.37402578479E+03  0.88829980509E+02 0.  0.
         23    2    4    4    0    0 -0.56175466629E+03  0.78955495199E+02  0.29011647185E+03  0.64378109914E+03  0.92110048601E+02 0.  0.
          2    1    3    3  502    0  0.47021997661E+02 -0.31356373718E+02 -0.29102463336E+02  0.63570777948E+02  0.00000000000E+00 0. -1.
         -1    1    3    3    0  502  0.21745861931E+03 -0.66050626291E+02  0.31233183416E+02  0.22940455116E+03  0.00000000000E+00 0.  1.
         13    1    5    5    0    0  0.12703117037E+03  0.52054379001E+02  0.91809635602E+02  0.16515321919E+03  0.00000000000E+00 0. -1.
        -13    1    5    5    0    0  0.17024287895E+03 -0.33602874191E+02  0.11625815099E+03  0.20887256560E+03  0.00000000000E+00 0.  1.
          3    1    6    6  503    0 -0.54882652579E+03  0.76217401912E+02  0.26242044703E+03  0.61309390699E+03  0.00000000000E+00 0. -1.
         -3    1    6    6    0  503 -0.12928140501E+02  0.27380932872E+01  0.27696024818E+02  0.30687192155E+02  0.00000000000E+00 0.  1.
<mgrwt>
<rscale>  0 0.12115424E+04</rscale>
<asrwt>0</asrwt>
<pdfrwt beam="1">  1        2 0.13931517E+00 0.12115424E+04</pdfrwt>
<pdfrwt beam="2">  1       -1 0.62343634E-01 0.12115424E+04</pdfrwt>
<totfact> 0.85361569E+01</totfact>
</mgrwt>
</event>
<event>
12    7  0.1735955E-007  0.1064020E+04  0.7818608E-02  0.9240987E-01
          2   -1    0    0  501    0  0.00000000000E+00  0.00000000000E+00  0.13111854700E+04  0.13111854700E+04  0.00000000000E+00 0. -1.
         -1   -1    0    0    0  501 -0.00000000000E+00 -0.00000000000E+00 -0.21586179036E+03  0.21586179036E+03  0.00000000000E+00 0.  1.
         24    2    1    2    0    0  0.35483826461E+02 -0.11396573901E+03  0.10864843540E+03  0.17988163223E+03  0.79407981274E+02 0.  0.
        254    2    1    2    0    0 -0.35483826461E+02  0.11396573901E+03  0.98667524426E+03  0.13471656282E+04  0.90943933301E+03 0.  0.
         23    2    4    4    0    0 -0.14143931496E+03  0.48776859869E+03  0.51057983695E+03  0.72568809980E+03  0.89488337843E+02 0.  0.
         23    2    4    4    0    0  0.10595548850E+03 -0.37380285967E+03  0.47609540731E+03  0.62147752835E+03  0.92802682838E+02 0.  0.
          4    1    3    3  502    0  0.49879606888E+02 -0.41596951110E+02  0.73707960634E+02  0.98240241174E+02  0.00000000000E+00 0. -1.
         -3    1    3    3    0  502 -0.14395780428E+02 -0.72368787903E+02  0.34940474761E+02  0.81641391054E+02  0.00000000000E+00 0.  1.
         13    1    5    5    0    0  0.82094300507E+01  0.19616837739E+02  0.39691007748E+02  0.45028781470E+02  0.00000000000E+00 0.  1.
        -13    1    5    5    0    0 -0.14964874501E+03  0.46815176095E+03  0.47088882920E+03  0.68065931833E+03  0.00000000000E+00 0. -1.
          3    1    6    6  503    0 -0.16927138849E+02 -0.51322311135E+02  0.73220607795E+02  0.91004203505E+02  0.00000000000E+00 0. -1.
         -3    1    6    6    0  503  0.12288262735E+03 -0.32248054854E+03  0.40287479951E+03  0.53047332484E+03  0.00000000000E+00 0.  1.
<mgrwt>
<rscale>  0 0.10640204E+04</rscale>
<asrwt>0</asrwt>
<pdfrwt beam="1">  1        2 0.20172084E+00 0.10640204E+04</pdfrwt>
<pdfrwt beam="2">  1       -1 0.33209507E-01 0.10640204E+04</pdfrwt>
<totfact> 0.15721851E+02</totfact>
</mgrwt>
</event>
<event>
12    7  0.1735955E-007  0.1719470E+04  0.7818608E-02  0.8750337E-01
          2   -1    0    0  501    0  0.00000000000E+00  0.00000000000E+00  0.15115648602E+04  0.15115648602E+04  0.00000000000E+00 0. -1.
         -1   -1    0    0    0  501 -0.00000000000E+00 -0.00000000000E+00 -0.48899271716E+03  0.48899271716E+03  0.00000000000E+00 0.  1.
         24    2    1    2    0    0 -0.10686552930E+03  0.20309288287E+03 -0.29858249738E+03  0.38494571218E+03  0.79779277727E+02 0.  0.
        254    2    1    2    0    0  0.10686552930E+03 -0.20309288287E+03  0.13211546404E+04  0.16156118652E+04  0.90115767466E+03 0.  0.
         23    2    4    4    0    0  0.39813485437E+03  0.16817098974E+03  0.73756712432E+03  0.85939545118E+03  0.88104679711E+02 0.  0.
         23    2    4    4    0    0 -0.29126932507E+03 -0.37126387262E+03  0.58358751612E+03  0.75621641402E+03  0.92812677053E+02 0.  0.
          4    1    3    3  502    0  0.42403946336E+01  0.98775994782E+00  0.29975073879E+01  0.52859877888E+01  0.00000000000E+00 0. -1.
         -3    1    3    3    0  502 -0.11110592393E+03  0.20210512293E+03 -0.30158000477E+03  0.37965972439E+03  0.00000000000E+00 0.  1.
         13    1    5    5    0    0  0.38638799720E+03  0.17164897983E+03  0.68144364192E+03  0.80195043099E+03  0.00000000000E+00 0. -1.
        -13    1    5    5    0    0  0.11746857168E+02 -0.34779900828E+01  0.56123482397E+02  0.57445020190E+02  0.00000000000E+00 0.  1.
          3    1    6    6  503    0 -0.26577542349E+03 -0.28703447941E+03  0.45015335167E+03  0.59637522427E+03  0.00000000000E+00 0. -1.
         -3    1    6    6    0  503 -0.25493901578E+02 -0.84229393212E+02  0.13343416445E+03  0.15984118975E+03  0.00000000000E+00 0.  1.
<mgrwt>
<rscale>  0 0.17194699E+04</rscale>
<asrwt>0</asrwt>
<pdfrwt beam="1">  1        2 0.23254844E+00 0.17194699E+04</pdfrwt>
<pdfrwt beam="2">  1       -1 0.75229649E-01 0.17194699E+04</pdfrwt>
<totfact> 0.24048558E+01</totfact>
</mgrwt>
</event>
<event>
12    7  0.1735955E-007  0.2453102E+04  0.7818608E-02  0.8419886E-01
         -1   -1    0    0    0  501 -0.00000000000E+00  0.00000000000E+00  0.85438098377E+03  0.85438098377E+03  0.00000000000E+00 0.  1.
          2   -1    0    0  501    0  0.00000000000E+00 -0.00000000000E+00 -0.17608397076E+04  0.17608397076E+04  0.00000000000E+00 0. -1.
         24    2    1    2    0    0 -0.65786622984E+03 -0.46499086611E+03 -0.11230921420E+04  0.13844971404E+04  0.80572267740E+02 0.  0.
        254    2    1    2    0    0  0.65786622984E+03  0.46499086611E+03  0.21663341821E+03  0.12307235510E+04  0.90484580956E+03 0.  0.
         23    2    4    4    0    0  0.46741663977E+03  0.72717165993E+03  0.10136256255E+03  0.87512557663E+03  0.91178219194E+02 0.  0.
         23    2    4    4    0    0  0.19044959007E+03 -0.26218079382E+03  0.11527085566E+03  0.35559797433E+03  0.90292492343E+02 0.  0.
          2    1    3    3  502    0 -0.61867887542E+03 -0.45222869946E+03 -0.10852288461E+04  0.13285315186E+04  0.00000000000E+00 0. -1.
         -1    1    3    3    0  502 -0.39187354419E+02 -0.12762166647E+02 -0.37863295954E+02  0.55965621808E+02  0.00000000000E+00 0.  1.
         13    1    5    5    0    0  0.58100755671E+02  0.15647685923E+03  0.17410118120E+02  0.16782078982E+03  0.00000000000E+00 0.  1.
        -13    1    5    5    0    0  0.40931588410E+03  0.57069480070E+03  0.83952444426E+02  0.70730478681E+03  0.00000000000E+00 0. -1.
          2    1    6    6  503    0  0.78499956471E+02 -0.15074941362E+03  0.99281534650E+02  0.19683610440E+03  0.00000000000E+00 0. -1.
         -2    1    6    6    0  503  0.11194963360E+03 -0.11143138020E+03  0.15989321014E+02  0.15876186992E+03  0.00000000000E+00 0.  1.
<mgrwt>
<rscale>  0 0.24531025E+04</rscale>
<asrwt>0</asrwt>
<pdfrwt beam="1">  1        2 0.27089842E+00 0.24531025E+04</pdfrwt>
<pdfrwt beam="2">  1       -1 0.13144323E+00 0.24531025E+04</pdfrwt>
<totfact> 0.45599014E+00</totfact>
</mgrwt>
</event>
<event>
12    7  0.1735955E-007  0.1731913E+04  0.7818608E-02  0.8743369E-01
          2   -1    0    0  501    0  0.00000000000E+00  0.00000000000E+00  0.10086570913E+04  0.10086570913E+04  0.00000000000E+00 0. -1.
         -1   -1    0    0    0  501 -0.00000000000E+00 -0.00000000000E+00 -0.74344500294E+03  0.74344500294E+03  0.00000000000E+00 0.  1.
         24    2    1    2    0    0 -0.36310642255E+03 -0.36807222936E+03  0.44637530032E+03  0.68793954457E+03  0.81770826871E+02 0.  0.
        254    2    1    2    0    0  0.36310642255E+03  0.36807222936E+03 -0.18116321190E+03  0.10641625497E+04  0.91230388729E+03 0.  0.
         23    2    4    4    0    0 -0.33384617341E+01  0.57680245436E+03  0.26574736848E+02  0.58561834881E+03  0.97623855369E+02 0.  0.
         23    2    4    4    0    0  0.36644488428E+03 -0.20873022500E+03 -0.20773794875E+03  0.47854420091E+03  0.89439011787E+02 0.  0.
          2    1    3    3  502    0 -0.31978547094E+03 -0.30198462658E+03  0.34271000300E+03  0.55759089687E+03  0.00000000000E+00 0. -1.
         -1    1    3    3    0  502 -0.43320951608E+02 -0.66087602782E+02  0.10366529732E+03  0.13034864770E+03  0.00000000000E+00 0.  1.
         13    1    5    5    0    0 -0.19971830200E+02  0.16979429036E+03  0.48407274268E+02  0.17768578795E+03  0.00000000000E+00 0. -1.
        -13    1    5    5    0    0  0.16633368466E+02  0.40700816401E+03 -0.21832537419E+02  0.40793256085E+03  0.00000000000E+00 0.  1.
          4    1    6    6  503    0  0.29971552246E+02  0.44845329973E+01 -0.28985956448E+02  0.41935553549E+02  0.00000000000E+00 0. -1.
         -4    1    6    6    0  503  0.33647333203E+03 -0.21321475800E+03 -0.17875199230E+03  0.43660864736E+03  0.00000000000E+00 0.  1.
<mgrwt>
<rscale>  0 0.17319135E+04</rscale>
<asrwt>0</asrwt>
<pdfrwt beam="1">  1        2 0.15517801E+00 0.17319135E+04</pdfrwt>
<pdfrwt beam="2">  1       -1 0.11437615E+00 0.17319135E+04</pdfrwt>
<totfact> 0.18730229E+01</totfact>
</mgrwt>
</event>
<event>
12    7  0.1735955E-007  0.3051149E+04  0.7818608E-02  0.8229274E-01
         -1   -1    0    0    0  501 -0.00000000000E+00  0.00000000000E+00  0.14101503803E+04  0.14101503803E+04  0.00000000000E+00 0.  1.
          2   -1    0    0  501    0  0.00000000000E+00 -0.00000000000E+00 -0.16504467166E+04  0.16504467166E+04  0.00000000000E+00 0. -1.
         24    2    1    2    0    0 -0.64360151456E+02  0.96590908227E+03 -0.11146653366E+04  0.14791539508E+04  0.91076963388E+02 0.  0.
        254    2    1    2    0    0  0.64360151456E+02 -0.96590908227E+03  0.87436900032E+03  0.15814431461E+04  0.89404624669E+03 0.  0.
         23    2    4    4    0    0  0.44468626397E+03 -0.73382849247E+03  0.55807257095E+03  0.10276245774E+04  0.91198398628E+02 0.  0.
         23    2    4    4    0    0 -0.38032611252E+03 -0.23208058979E+03  0.31629642936E+03  0.55381856865E+03  0.90345026064E+02 0.  0.
          2    1    3    3  502    0 -0.17268229755E+02  0.78199903576E+03 -0.88237089835E+03  0.11791518503E+04  0.00000000000E+00 0. -1.
         -1    1    3    3    0  502 -0.47091921701E+02  0.18391004650E+03 -0.23229443827E+03  0.30000210056E+03  0.00000000000E+00 0.  1.
         13    1    5    5    0    0  0.37520578920E+03 -0.55553680121E+03  0.45586649741E+03  0.81068784696E+03  0.00000000000E+00 0. -1.
        -13    1    5    5    0    0  0.69480474770E+02 -0.17829169127E+03  0.10220607354E+03  0.21693673045E+03  0.00000000000E+00 0.  1.
          1    1    6    6  503    0 -0.30604269550E+03 -0.18863585048E+03  0.20746503028E+03  0.41507511892E+03  0.00000000000E+00 0. -1.
         -1    1    6    6    0  503 -0.74283417015E+02 -0.43444739311E+02  0.10883139908E+03  0.13874344973E+03  0.00000000000E+00 0.  1.
<mgrwt>
<rscale>  0 0.30511493E+04</rscale>
<asrwt>0</asrwt>
<pdfrwt beam="1">  1        2 0.25391488E+00 0.30511493E+04</pdfrwt>
<pdfrwt beam="2">  1       -1 0.21694621E+00 0.30511493E+04</pdfrwt>
<totfact> 0.11700005E+00</totfact>
</mgrwt>
</event>
<event>
12    7  0.1735955E-007  0.3960195E+04  0.7818608E-02  0.8012625E-01
          2   -1    0    0  501    0  0.00000000000E+00  0.00000000000E+00  0.23794071085E+04  0.23794071085E+04  0.00000000000E+00 0. -1.
         -1   -1    0    0    0  501 -0.00000000000E+00 -0.00000000000E+00 -0.16477995015E+04  0.16477995015E+04  0.00000000000E+00 0.  1.
         24    2    1    2    0    0 -0.73652564560E+03 -0.16171534172E+04  0.96237235901E+03  0.20224787202E+04  0.81267551427E+02 0.  0.
        254    2    1    2    0    0  0.73652564560E+03  0.16171534172E+04 -0.23076475207E+03  0.20047278898E+04  0.89890285338E+03 0.  0.
         23    2    4    4    0    0  0.73085160088E+03  0.62725138449E+03 -0.28619249422E+03  0.10089458025E+04  0.92071313936E+02 0.  0.
         23    2    4    4    0    0  0.56740447116E+01  0.98990203273E+03  0.55427742156E+02  0.99578208724E+03  0.92582403746E+02 0.  0.
          2    1    3    3  502    0 -0.51925501411E+03 -0.11545127866E+04  0.64387485886E+03  0.14202465905E+04  0.00000000000E+00 0. -1.
         -1    1    3    3    0  502 -0.21727063149E+03 -0.46264063066E+03  0.31849750016E+03  0.60223212971E+03  0.00000000000E+00 0.  1.
         13    1    5    5    0    0  0.13685794762E+02  0.30493088737E+02 -0.13334864968E+01  0.33450076610E+02  0.00000000000E+00 0. -1.
        -13    1    5    5    0    0  0.71716580612E+03  0.59675829575E+03 -0.28485900773E+03  0.97549572593E+03  0.00000000000E+00 0.  1.
          2    1    6    6  503    0  0.35723546971E+02  0.16659667870E+03  0.10018577540E+02  0.17067805090E+03  0.00000000000E+00 0. -1.
         -2    1    6    6    0  503 -0.30049502259E+02  0.82330535403E+03  0.45409164615E+02  0.82510403634E+03  0.00000000000E+00 0.  1.
<mgrwt>
<rscale>  0 0.39601949E+04</rscale>
<asrwt>0</asrwt>
<pdfrwt beam="1">  1        2 0.36606263E+00 0.39601949E+04</pdfrwt>
<pdfrwt beam="2">  1       -1 0.25350761E+00 0.39601949E+04</pdfrwt>
<totfact> 0.24308256E-01</totfact>
</mgrwt>
</event>
<event>
12    7  0.1735955E-007  0.1273911E+04  0.7818608E-02  0.9050514E-01
         -1   -1    0    0    0  501 -0.00000000000E+00  0.00000000000E+00  0.23393374161E+03  0.23393374161E+03  0.00000000000E+00 0.  1.
          2   -1    0    0  501    0  0.00000000000E+00 -0.00000000000E+00 -0.17343049401E+04  0.17343049401E+04  0.00000000000E+00 0. -1.
         24    2    1    2    0    0 -0.95752700822E+02  0.23807887044E+03 -0.10072446611E+03  0.28692639047E+03  0.79568883455E+02 0.  0.
        254    2    1    2    0    0  0.95752700822E+02 -0.23807887044E+03 -0.13996467324E+04  0.16813122913E+04  0.89551656430E+03 0.  0.
         23    2    4    4    0    0  0.26097930249E+03 -0.45529727681E+03 -0.47747389197E+03  0.71529549025E+03  0.90887371305E+02 0.  0.
         23    2    4    4    0    0 -0.16522660167E+03  0.21721840638E+03 -0.92217284043E+03  0.96601680100E+03  0.91115565174E+02 0.  0.
          2    1    3    3  502    0  0.11185795803E+01  0.64517693581E+02 -0.50432404795E+02  0.81897566866E+02  0.00000000000E+00 0. -1.
         -1    1    3    3    0  502 -0.96871280403E+02  0.17356117686E+03 -0.50292061311E+02  0.20502882361E+03  0.00000000000E+00 0.  1.
         13    1    5    5    0    0  0.11645732159E+03 -0.12034449337E+03 -0.13855201889E+03  0.21735171215E+03  0.00000000000E+00 0. -1.
        -13    1    5    5    0    0  0.14452198090E+03 -0.33495278344E+03 -0.33892187308E+03  0.49794377810E+03  0.00000000000E+00 0.  1.
          1    1    6    6  503    0 -0.10244593954E+03  0.10215227109E+03 -0.61969822153E+03  0.63636164465E+03  0.00000000000E+00 0. -1.
         -1    1    6    6    0  503 -0.62780662122E+02  0.11506613529E+03 -0.30247461890E+03  0.32965515635E+03  0.00000000000E+00 0.  1.
<mgrwt>
<rscale>  0 0.12739112E+04</rscale>
<asrwt>0</asrwt>
<pdfrwt beam="1">  1        2 0.26681614E+00 0.12739112E+04</pdfrwt>
<pdfrwt beam="2">  1       -1 0.35989807E-01 0.12739112E+04</pdfrwt>
<totfact> 0.77479798E+01</totfact>
</mgrwt>
</event>
<event>
12    7  0.1735955E-007  0.1763623E+04  0.7818608E-02  0.8725887E-01
          2   -1    0    0  501    0  0.00000000000E+00  0.00000000000E+00  0.24693438339E+04  0.24693438339E+04  0.00000000000E+00 0. -1.
         -1   -1    0    0    0  501 -0.00000000000E+00 -0.00000000000E+00 -0.31489795143E+03  0.31489795143E+03  0.00000000000E+00 0.  1.
         24    2    1    2    0    0  0.31448593302E+03  0.22690303755E+03  0.16379297614E+04  0.16850928560E+04  0.79609293267E+02 0.  0.
        254    2    1    2    0    0 -0.31448593302E+03 -0.22690303755E+03  0.51651612102E+03  0.10991489293E+04  0.88935542667E+03 0.  0.
         23    2    4    4    0    0 -0.45288423492E+03  0.30129428768E+02  0.62156555969E+03  0.77497574690E+03  0.90728995255E+02 0.  0.
         23    2    4    4    0    0  0.13839830190E+03 -0.25703246632E+03 -0.10504943868E+03  0.32417318237E+03  0.93984514122E+02 0.  0.
          4    1    3    3  502    0  0.30139085554E+03  0.22904645381E+03  0.15204171841E+04  0.15668334754E+04  0.00000000000E+00 0. -1.
         -1    1    3    3    0  502  0.13095077485E+02 -0.21434162600E+01  0.11751257731E+03  0.11825938065E+03  0.00000000000E+00 0.  1.
         13    1    5    5    0    0 -0.26205504920E+03  0.82121394880E+01  0.43045465073E+03  0.50401537118E+03  0.00000000000E+00 0. -1.
        -13    1    5    5    0    0 -0.19082918572E+03  0.21917289280E+02  0.19111090896E+03  0.27096037573E+03  0.00000000000E+00 0.  1.
          4    1    6    6  503    0  0.38832260558E+02 -0.12046030460E+03 -0.88320289932E+02  0.15433438715E+03  0.00000000000E+00 0. -1.
         -4    1    6    6    0  503  0.99566041340E+02 -0.13657216172E+03 -0.16729148744E+02  0.16983879522E+03  0.00000000000E+00 0.  1.
<mgrwt>
<rscale>  0 0.17636228E+04</rscale>
<asrwt>0</asrwt>
<pdfrwt beam="1">  1        2 0.37989904E+00 0.17636228E+04</pdfrwt>
<pdfrwt beam="2">  1       -1 0.48445840E-01 0.17636228E+04</pdfrwt>
<totfact> 0.16683356E+01</totfact>
</mgrwt>
</event>
<event>
12    7  0.1735955E-007  0.1863239E+04  0.7818608E-02  0.8673374E-01
         -1   -1    0    0    0  501 -0.00000000000E+00  0.00000000000E+00  0.66739540580E+03  0.66739540580E+03  0.00000000000E+00 0.  1.
          2   -1    0    0  501    0  0.00000000000E+00 -0.00000000000E+00 -0.13004509432E+04  0.13004509432E+04  0.00000000000E+00 0. -1.
         24    2    1    2    0    0 -0.24990511124E+03 -0.16112726341E+03  0.43794979681E+03  0.53506481915E+03  0.77972921781E+02 0.  0.
        254    2    1    2    0    0  0.24990511124E+03  0.16112726341E+03 -0.10710053342E+04  0.14327815298E+04  0.90409951151E+03 0.  0.
         23    2    4    4    0    0  0.35573599605E+03  0.40743483081E+02 -0.24918306222E+02  0.37050039343E+03  0.91877577522E+02 0.  0.
         23    2    4    4    0    0 -0.10583088480E+03  0.12038378033E+03 -0.10460870280E+04  0.10622811364E+04  0.91927753833E+02 0.  0.
          4    1    3    3  502    0 -0.12537488112E+02 -0.16339308026E+02  0.75468739185E+02  0.78228461503E+02  0.00000000000E+00 0. -1.
         -3    1    3    3    0  502 -0.23736762313E+03 -0.14478795538E+03  0.36248105763E+03  0.45683635765E+03  0.00000000000E+00 0.  1.
         13    1    5    5    0    0  0.96049905092E+02  0.24505054201E+02 -0.46346674826E+02  0.10942621357E+03  0.00000000000E+00 0. -1.
        -13    1    5    5    0    0  0.25968609095E+03  0.16238428880E+02  0.21428368604E+02  0.26107417986E+03  0.00000000000E+00 0.  1.
          4    1    6    6  503    0  0.26273435406E+01  0.19265228489E+02 -0.32252973111E+02  0.37660406760E+02  0.00000000000E+00 0. -1.
         -4    1    6    6    0  503 -0.10845822834E+03  0.10111855184E+03 -0.10138340549E+04  0.10246207296E+04  0.00000000000E+00 0.  1.
<mgrwt>
<rscale>  0 0.18632391E+04</rscale>
<asrwt>0</asrwt>
<pdfrwt beam="1">  1        2 0.20006938E+00 0.18632391E+04</pdfrwt>
<pdfrwt beam="2">  1       -1 0.10267622E+00 0.18632391E+04</pdfrwt>
<totfact> 0.15866469E+01</totfact>
</mgrwt>
</event>
<event>
12    7  0.1735955E-007  0.1599921E+04  0.7818608E-02  0.8820597E-01
          2   -1    0    0  501    0  0.00000000000E+00  0.00000000000E+00  0.25542904388E+04  0.25542904388E+04  0.00000000000E+00 0. -1.
         -1   -1    0    0    0  501 -0.00000000000E+00 -0.00000000000E+00 -0.25053396135E+03  0.25053396135E+03  0.00000000000E+00 0.  1.
         24    2    1    2    0    0 -0.33468424813E+03  0.27256822508E+03  0.13634708366E+04  0.14323755558E+04  0.79624288372E+02 0.  0.
        254    2    1    2    0    0  0.33468424813E+03 -0.27256822508E+03  0.94028564086E+03  0.13724488444E+04  0.90176036769E+03 0.  0.
         23    2    4    4    0    0 -0.10009553643E+03  0.18504792162E+03  0.61477282056E+03  0.65633909357E+03  0.92593386057E+02 0.  0.
         23    2    4    4    0    0  0.43477978456E+03 -0.45761614669E+03  0.32551282029E+03  0.71610975079E+03  0.91698310943E+02 0.  0.
          2    1    3    3  502    0 -0.27028802520E+03  0.23700956366E+03  0.12084675105E+04  0.12608024721E+04  0.00000000000E+00 0. -1.
         -1    1    3    3    0  502 -0.64396222929E+02  0.35558661419E+02  0.15500332609E+03  0.17157308364E+03  0.00000000000E+00 0.  1.
         13    1    5    5    0    0 -0.73079451031E+02  0.76259464418E+02  0.40440668053E+03  0.41797233800E+03  0.00000000000E+00 0. -1.
        -13    1    5    5    0    0 -0.27016085403E+02  0.10878845720E+03  0.21036614003E+03  0.23836675557E+03  0.00000000000E+00 0.  1.
          1    1    6    6  503    0  0.31816717443E+03 -0.28266942385E+03  0.19082676572E+03  0.46641956282E+03  0.00000000000E+00 0. -1.
         -1    1    6    6    0  503  0.11661261013E+03 -0.17494672284E+03  0.13468605457E+03  0.24969018797E+03  0.00000000000E+00 0.  1.
<mgrwt>
<rscale>  0 0.15999206E+04</rscale>
<asrwt>0</asrwt>
<pdfrwt beam="1">  1        2 0.39296774E+00 0.15999206E+04</pdfrwt>
<pdfrwt beam="2">  1       -1 0.38543688E-01 0.15999206E+04</pdfrwt>
<totfact> 0.23095879E+01</totfact>
</mgrwt>
</event>
<event>
12    7  0.1735955E-007  0.1885061E+04  0.7818608E-02  0.8662328E-01
         -1   -1    0    0    0  501 -0.00000000000E+00  0.00000000000E+00  0.34157520960E+03  0.34157520960E+03  0.00000000000E+00 0.  1.
          2   -1    0    0  501    0  0.00000000000E+00 -0.00000000000E+00 -0.26007854524E+04  0.26007854524E+04  0.00000000000E+00 0. -1.
         24    2    1    2    0    0  0.27455544019E+03  0.47244077600E+03 -0.16325274148E+04  0.17233077110E+04  0.77863535786E+02 0.  0.
        254    2    1    2    0    0 -0.27455544019E+03 -0.47244077600E+03 -0.62668282797E+03  0.12190529510E+04  0.89150308682E+03 0.  0.
         23    2    4    4    0    0 -0.47675369276E+03 -0.16745474188E+03 -0.66466217935E+03  0.83978232000E+03  0.90129674311E+02 0.  0.
         23    2    4    4    0    0  0.20219825257E+03 -0.30498603413E+03  0.37979351374E+02  0.37927063096E+03  0.92212613165E+02 0.  0.
          4    1    3    3  502    0  0.14120437015E+03  0.21924054735E+03 -0.89462738794E+03  0.93186010485E+03  0.00000000000E+00 0. -1.
         -3    1    3    3    0  502  0.13335107003E+03  0.25320022866E+03 -0.73790002684E+03  0.79144760615E+03  0.00000000000E+00 0.  1.
         13    1    5    5    0    0 -0.47625874025E+03 -0.15974702630E+03 -0.63800902654E+03  0.81203264591E+03  0.00000000000E+00 0.  1.
        -13    1    5    5    0    0 -0.49495250526E+00 -0.77077155711E+01 -0.26653152807E+02  0.27749674086E+02  0.00000000000E+00 0. -1.
          4    1    6    6  503    0  0.26862550166E+02 -0.43836978678E+02  0.39308696983E+02  0.64718242865E+02  0.00000000000E+00 0. -1.
         -4    1    6    6    0  503  0.17533570240E+03 -0.26114905545E+03 -0.13293456091E+01  0.31455238810E+03  0.00000000000E+00 0.  1.
<mgrwt>
<rscale>  0 0.18850611E+04</rscale>
<asrwt>0</asrwt>
<pdfrwt beam="1">  1        2 0.40012084E+00 0.18850611E+04</pdfrwt>
<pdfrwt beam="2">  1       -1 0.52550032E-01 0.18850611E+04</pdfrwt>
<totfact> 0.11856299E+01</totfact>
</mgrwt>
</event>
<event>
12    7  0.1735955E-007  0.2661672E+04  0.7818608E-02  0.8347549E-01
          2   -1    0    0  501    0  0.00000000000E+00  0.00000000000E+00  0.26141793866E+04  0.26141793866E+04  0.00000000000E+00 0. -1.
         -1   -1    0    0    0  501 -0.00000000000E+00 -0.00000000000E+00 -0.67750668799E+03  0.67750668799E+03  0.00000000000E+00 0.  1.
         24    2    1    2    0    0 -0.60200523046E+03 -0.78504525421E+03  0.77836824822E+02  0.99563231620E+03  0.80739018447E+02 0.  0.
        254    2    1    2    0    0  0.60200523046E+03  0.78504525421E+03  0.18588358738E+04  0.22960537584E+04  0.91536097088E+03 0.  0.
         23    2    4    4    0    0 -0.16492333815E+03  0.45902192475E+03  0.54053286610E+03  0.73380781084E+03  0.91636723268E+02 0.  0.
         23    2    4    4    0    0  0.76692856861E+03  0.32602332946E+03  0.13183030077E+04  0.15622459475E+04  0.90658368651E+02 0.  0.
          2    1    3    3  502    0 -0.62495305053E+02 -0.48504346394E+02 -0.21448331945E+01  0.79138707863E+02  0.00000000000E+00 0. -1.
         -1    1    3    3    0  502 -0.53950992541E+03 -0.73654090782E+03  0.79981658017E+02  0.91649360834E+03  0.00000000000E+00 0.  1.
         13    1    5    5    0    0 -0.35954814075E+02  0.22834175393E+03  0.23090426758E+03  0.32672539851E+03  0.00000000000E+00 0. -1.
        -13    1    5    5    0    0 -0.12896852407E+03  0.23068017082E+03  0.30962859851E+03  0.40708241233E+03  0.00000000000E+00 0.  1.
          4    1    6    6  503    0  0.50131748286E+02  0.25044074631E+02  0.52626210595E+02  0.76875977405E+02  0.00000000000E+00 0.  1.
         -4    1    6    6    0  503  0.71679682032E+03  0.30097925483E+03  0.12656767971E+04  0.14853699701E+04  0.00000000000E+00 0. -1.
<mgrwt>
<rscale>  0 0.26616717E+04</rscale>
<asrwt>0</asrwt>
<pdfrwt beam="1">  1        2 0.40218144E+00 0.26616717E+04</pdfrwt>
<pdfrwt beam="2">  1       -1 0.10423180E+00 0.26616717E+04</pdfrwt>
<totfact> 0.25863751E+00</totfact>
</mgrwt>
</event>
<event>
12    7  0.1735955E-007  0.1391494E+04  0.7818608E-02  0.8959998E-01
         -1   -1    0    0    0  501 -0.00000000000E+00  0.00000000000E+00  0.47622066061E+03  0.47622066061E+03  0.00000000000E+00 0.  1.
          2   -1    0    0  501    0  0.00000000000E+00 -0.00000000000E+00 -0.10164702638E+04  0.10164702638E+04  0.00000000000E+00 0. -1.
         24    2    1    2    0    0  0.71058380807E+02 -0.26336742480E+03 -0.46956267854E+03  0.54909611280E+03  0.81275691875E+02 0.  0.
        254    2    1    2    0    0 -0.71058380807E+02  0.26336742480E+03 -0.70686924621E+02  0.94359481159E+03  0.90053474848E+03 0.  0.
         23    2    4    4    0    0 -0.46232441509E+03  0.21155710071E+02 -0.19091378607E+02  0.47202933033E+03  0.90861317956E+02 0.  0.
         23    2    4    4    0    0  0.39126603428E+03  0.24221171473E+03 -0.51595546014E+02  0.47156548125E+03  0.89197973102E+02 0.  0.
          4    1    3    3  502    0  0.48532876029E+02 -0.22079380444E+03 -0.43357518465E+03  0.48897114933E+03  0.00000000000E+00 0. -1.
         -3    1    3    3    0  502  0.22525504778E+02 -0.42573620361E+02 -0.35987493893E+02  0.60124963474E+02  0.00000000000E+00 0.  1.
         13    1    5    5    0    0 -0.13164746071E+03  0.47235060177E+02 -0.18344339820E+01  0.13987698156E+03  0.00000000000E+00 0.  1.
        -13    1    5    5    0    0 -0.33067695438E+03 -0.26079350107E+02 -0.17256944625E+02  0.33215234877E+03  0.00000000000E+00 0. -1.
          2    1    6    6  503    0  0.36633709645E+03  0.20094995757E+03 -0.61548434098E+02  0.42234105107E+03  0.00000000000E+00 0. -1.
         -2    1    6    6    0  503  0.24928937836E+02  0.41261757157E+02  0.99528880843E+01  0.49224430180E+02  0.00000000000E+00 0.  1.
<mgrwt>
<rscale>  0 0.13914944E+04</rscale>
<asrwt>0</asrwt>
<pdfrwt beam="1">  1        2 0.15638004E+00 0.13914944E+04</pdfrwt>
<pdfrwt beam="2">  1       -1 0.73264717E-01 0.13914944E+04</pdfrwt>
<totfact> 0.51290201E+01</totfact>
</mgrwt>
</event>
<event>
12    7  0.1735955E-007  0.1785609E+04  0.7818608E-02  0.8713990E-01
          2   -1    0    0  501    0  0.00000000000E+00  0.00000000000E+00  0.13661719690E+04  0.13661719690E+04  0.00000000000E+00 0. -1.
         -1   -1    0    0    0  501 -0.00000000000E+00 -0.00000000000E+00 -0.58345516888E+03  0.58345516888E+03  0.00000000000E+00 0.  1.
         24    2    1    2    0    0 -0.29906522857E+03  0.34378618164E+03 -0.22267395961E+03  0.51405035466E+03  0.83875653246E+02 0.  0.
        254    2    1    2    0    0  0.29906522857E+03 -0.34378618164E+03  0.10053907597E+04  0.14355767832E+04  0.91784594085E+03 0.  0.
         23    2    4    4    0    0 -0.27920498545E+03 -0.22186673326E+03  0.16197589496E+03  0.40216002449E+03  0.91193330470E+02 0.  0.
         23    2    4    4    0    0  0.57827021402E+03 -0.12191944838E+03  0.84341486478E+03  0.10334167587E+04  0.85678298128E+02 0.  0.
          4    1    3    3  502    0 -0.10909772355E+02  0.37354515320E+02 -0.18131761824E+01  0.38957291429E+02  0.00000000000E+00 0. -1.
         -3    1    3    3    0  502 -0.28815545622E+03  0.30643166632E+03 -0.22086078343E+03  0.47509306323E+03  0.00000000000E+00 0.  1.
         13    1    5    5    0    0 -0.76869345682E+02 -0.62207735382E+02  0.92054169747E+02  0.13510243823E+03  0.00000000000E+00 0. -1.
        -13    1    5    5    0    0 -0.20233563977E+03 -0.15965899788E+03  0.69921725209E+02  0.26705758626E+03  0.00000000000E+00 0.  1.
          4    1    6    6  503    0  0.96282102670E+02 -0.51600819851E+02  0.13411969356E+03  0.17297681956E+03  0.00000000000E+00 0. -1.
         -4    1    6    6    0  503  0.48198811135E+03 -0.70318628528E+02  0.70929517122E+03  0.86043993917E+03  0.00000000000E+00 0.  1.
<mgrwt>
<rscale>  0 0.17856092E+04</rscale>
<asrwt>0</asrwt>
<pdfrwt beam="1">  1        2 0.21018030E+00 0.17856092E+04</pdfrwt>
<pdfrwt beam="2">  1       -1 0.89762334E-01 0.17856092E+04</pdfrwt>
<totfact> 0.19808887E+01</totfact>
</mgrwt>
</event>
<event>
12    7  0.1735955E-007  0.3767062E+04  0.7818608E-02  0.8053261E-01
         -1   -1    0    0    0  501 -0.00000000000E+00  0.00000000000E+00  0.49324073660E+04  0.49324073660E+04  0.00000000000E+00 0.  1.
          2   -1    0    0  501    0  0.00000000000E+00 -0.00000000000E+00 -0.71926096720E+03  0.71926096720E+03  0.00000000000E+00 0. -1.
         24    2    1    2    0    0  0.49555392889E+03 -0.53592678938E+03 -0.43885489399E+03  0.85537473927E+03  0.79253432661E+02 0.  0.
        254    2    1    2    0    0 -0.49555392889E+03  0.53592678938E+03  0.46520012927E+04  0.47962935939E+04  0.91133143860E+03 0.  0.
         23    2    4    4    0    0 -0.29860011445E+02 -0.19680735873E+03  0.38505762783E+03  0.44095686660E+03  0.80924809081E+02 0.  0.
         23    2    4    4    0    0 -0.46569391745E+03  0.73273414811E+03  0.42669436649E+04  0.43553367273E+04  0.91540219759E+02 0.  0.
          4    1    3    3  502    0  0.37848469194E+03 -0.43325779730E+03 -0.37705830356E+03  0.68784878079E+03  0.00000000000E+00 0. -1.
         -3    1    3    3    0  502  0.11706923695E+03 -0.10266899208E+03 -0.61796590427E+02  0.16752595848E+03  0.00000000000E+00 0.  1.
         13    1    5    5    0    0  0.38034421035E+01 -0.14892507217E+03  0.32273017583E+03  0.35545451141E+03  0.00000000000E+00 0.  1.
        -13    1    5    5    0    0 -0.33663453548E+02 -0.47882286557E+02  0.62327451996E+02  0.85502355190E+02  0.00000000000E+00 0. -1.
          4    1    6    6  503    0 -0.11036680377E+03  0.25286588692E+03  0.13570162390E+04  0.13847797879E+04  0.00000000000E+00 0. -1.
         -4    1    6    6    0  503 -0.35532711368E+03  0.47986826119E+03  0.29099274259E+04  0.29705569394E+04  0.00000000000E+00 0.  1.
<mgrwt>
<rscale>  0 0.37670615E+04</rscale>
<asrwt>0</asrwt>
<pdfrwt beam="1">  1        2 0.11065554E+00 0.37670615E+04</pdfrwt>
<pdfrwt beam="2">  1       -1 0.75883188E+00 0.37670615E+04</pdfrwt>
<totfact> 0.42106576E-03</totfact>
</mgrwt>
</event>
<event>
12    7  0.1735955E-007  0.1495542E+04  0.7818608E-02  0.8887423E-01
          2   -1    0    0  501    0  0.00000000000E+00  0.00000000000E+00  0.56662117105E+03  0.56662117105E+03  0.00000000000E+00 0. -1.
         -1   -1    0    0    0  501 -0.00000000000E+00 -0.00000000000E+00 -0.98683496830E+03  0.98683496830E+03  0.00000000000E+00 0.  1.
         24    2    1    2    0    0  0.42862751239E+03  0.41679676245E+02 -0.31074898780E+03  0.53749072944E+03  0.82901212441E+02 0.  0.
        254    2    1    2    0    0 -0.42862751239E+03 -0.41679676245E+02 -0.10946480945E+03  0.10159654099E+04  0.91364349166E+03 0.  0.
         23    2    4    4    0    0 -0.56262432339E+02 -0.66243512920E+02 -0.47145852050E+03  0.48795725780E+03  0.90969690506E+02 0.  0.
         23    2    4    4    0    0 -0.37236508005E+03  0.24563836675E+02  0.36199371105E+03  0.52800815211E+03  0.92163045454E+02 0.  0.
          2    1    3    3  502    0  0.82126352480E+02  0.25356758495E+02 -0.29365825462E+02  0.90829811616E+02  0.00000000000E+00 0. -1.
         -1    1    3    3    0  502  0.34650115991E+03  0.16322917750E+02 -0.28138316234E+03  0.44666091782E+03  0.00000000000E+00 0.  1.
         13    1    5    5    0    0  0.80637023434E+01 -0.33888287599E+02 -0.29968098762E+03  0.30169874656E+03  0.00000000000E+00 0. -1.
        -13    1    5    5    0    0 -0.64326134682E+02 -0.32355225321E+02 -0.17177753288E+03  0.18625851124E+03  0.00000000000E+00 0.  1.
          4    1    6    6  503    0 -0.31241341702E+02 -0.11728588750E+01  0.18957084111E+01  0.31320771697E+02  0.00000000000E+00 0.  1.
         -4    1    6    6    0  503 -0.34112373835E+03  0.25736695550E+02  0.36009800264E+03  0.49668738042E+03  0.00000000000E+00 0. -1.
<mgrwt>
<rscale>  0 0.14955422E+04</rscale>
<asrwt>0</asrwt>
<pdfrwt beam="1">  1        2 0.87172489E-01 0.14955422E+04</pdfrwt>
<pdfrwt beam="2">  1       -1 0.15182076E+00 0.14955422E+04</pdfrwt>
<totfact> 0.19820419E+01</totfact>
</mgrwt>
</event>
<event>
12    7  0.1735955E-007  0.1512960E+04  0.7818608E-02  0.8875880E-01
         -1   -1    0    0    0  501 -0.00000000000E+00  0.00000000000E+00  0.44272476294E+03  0.44272476294E+03  0.00000000000E+00 0.  1.
          2   -1    0    0  501    0  0.00000000000E+00 -0.00000000000E+00 -0.12925916170E+04  0.12925916170E+04  0.00000000000E+00 0. -1.
         24    2    1    2    0    0 -0.15137430406E+03  0.45700103763E+03 -0.29035330948E+03  0.56773164328E+03  0.79057233223E+02 0.  0.
        254    2    1    2    0    0  0.15137430406E+03 -0.45700103763E+03 -0.55951354461E+03  0.11675847367E+04  0.90467374365E+03 0.  0.
         23    2    4    4    0    0 -0.81512759166E+02 -0.63605378614E+03 -0.16729843048E+03  0.66884675529E+03  0.90324240635E+02 0.  0.
         23    2    4    4    0    0  0.23288706323E+03  0.17905274851E+03 -0.39221511413E+03  0.49873798142E+03  0.92793358511E+02 0.  0.
          2    1    3    3  502    0 -0.14416487691E+02  0.10032530845E+03 -0.93671987435E+02  0.13801247720E+03  0.00000000000E+00 0. -1.
         -1    1    3    3    0  502 -0.13695781637E+03  0.35667572918E+03 -0.19668132205E+03  0.42971916607E+03  0.00000000000E+00 0.  1.
         13    1    5    5    0    0  0.16633898842E+01 -0.11691594902E+03 -0.63081077428E+02  0.13285830170E+03  0.00000000000E+00 0. -1.
        -13    1    5    5    0    0 -0.83176149051E+02 -0.51913783712E+03 -0.10421735305E+03  0.53598845359E+03  0.00000000000E+00 0.  1.
          1    1    6    6  503    0  0.23706761800E+03  0.17294706620E+03 -0.35399853609E+03  0.45981159921E+03  0.00000000000E+00 0. -1.
         -1    1    6    6    0  503 -0.41805547691E+01  0.61056823099E+01 -0.38216578040E+02  0.38926382207E+02  0.00000000000E+00 0.  1.
<mgrwt>
<rscale>  0 0.15129604E+04</rscale>
<asrwt>0</asrwt>
<pdfrwt beam="1">  1        2 0.19886025E+00 0.15129604E+04</pdfrwt>
<pdfrwt beam="2">  1       -1 0.68111502E-01 0.15129604E+04</pdfrwt>
<totfact> 0.40095303E+01</totfact>
</mgrwt>
</event>
<event>
12    7  0.1735955E-007  0.1985165E+04  0.7818608E-02  0.8613588E-01
         -1   -1    0    0    0  501 -0.00000000000E+00  0.00000000000E+00  0.47848906459E+03  0.47848906459E+03  0.00000000000E+00 0.  1.
          2   -1    0    0  501    0  0.00000000000E+00 -0.00000000000E+00 -0.20590224347E+04  0.20590224347E+04  0.00000000000E+00 0. -1.
         24    2    1    2    0    0  0.50890398640E+03 -0.29271615052E+03 -0.13055604801E+04  0.14336435795E+04  0.78611282563E+02 0.  0.
        254    2    1    2    0    0 -0.50890398640E+03  0.29271615052E+03 -0.27497288998E+03  0.11038679197E+04  0.89344741416E+03 0.  0.
         23    2    4    4    0    0 -0.96354866279E+02  0.17715497958E+03 -0.54580205933E+03  0.58903648552E+03  0.91629396305E+02 0.  0.
         23    2    4    4    0    0 -0.41254912012E+03  0.11556117095E+03  0.27082916935E+03  0.51483143423E+03  0.90287352136E+02 0.  0.
          4    1    3    3  502    0  0.37376276714E+03 -0.18770109835E+03 -0.85905241221E+03  0.95545871462E+03  0.00000000000E+00 0. -1.
         -3    1    3    3    0  502  0.13514121926E+03 -0.10501505217E+03 -0.44650806791E+03  0.47818486492E+03  0.00000000000E+00 0.  1.
         13    1    5    5    0    0 -0.38265500112E+02  0.45241474126E+01 -0.11602386478E+03  0.12225487151E+03  0.00000000000E+00 0. -1.
        -13    1    5    5    0    0 -0.58089366167E+02  0.17263083217E+03 -0.42977819455E+03  0.46678161402E+03  0.00000000000E+00 0.  1.
          4    1    6    6  503    0 -0.14866601515E+03 -0.22571971916E+01  0.85334897071E+02  0.17143139636E+03  0.00000000000E+00 0. -1.
         -4    1    6    6    0  503 -0.26388310497E+03  0.11781836814E+03  0.18549427228E+03  0.34340003787E+03  0.00000000000E+00 0.  1.
<mgrwt>
<rscale>  0 0.19851647E+04</rscale>
<asrwt>0</asrwt>
<pdfrwt beam="1">  1        2 0.31677268E+00 0.19851647E+04</pdfrwt>
<pdfrwt beam="2">  1       -1 0.73613703E-01 0.19851647E+04</pdfrwt>
<totfact> 0.12193811E+01</totfact>
</mgrwt>
</event>
<event>
12    7  0.1735955E-007  0.2031649E+04  0.7818608E-02  0.8591965E-01
         -1   -1    0    0    0  501 -0.00000000000E+00  0.00000000000E+00  0.39743968177E+03  0.39743968177E+03  0.00000000000E+00 0.  1.
          2   -1    0    0  501    0  0.00000000000E+00 -0.00000000000E+00 -0.25963665516E+04  0.25963665516E+04  0.00000000000E+00 0. -1.
         24    2    1    2    0    0  0.10253313353E+03  0.43740996307E+03 -0.18928233574E+04  0.19471748194E+04  0.82879403892E+02 0.  0.
        254    2    1    2    0    0 -0.10253313353E+03 -0.43740996307E+03 -0.30610351242E+03  0.10466314140E+04  0.89436985479E+03 0.  0.
         23    2    4    4    0    0 -0.31850329068E+03 -0.20948414978E+02 -0.43956567046E+03  0.55081176815E+03  0.91062852031E+02 0.  0.
         23    2    4    4    0    0  0.21597015715E+03 -0.41646154810E+03  0.13346215804E+03  0.49581964584E+03  0.89115900645E+02 0.  0.
          2    1    3    3  502    0  0.10003039195E+03  0.41778756385E+03 -0.18589966021E+04  0.19079887040E+04  0.00000000000E+00 0. -1.
         -1    1    3    3    0  502  0.25027415823E+01  0.19622399224E+02 -0.33826755323E+02  0.39186115429E+02  0.00000000000E+00 0.  1.
         13    1    5    5    0    0 -0.30348905753E+03 -0.25406911035E+01 -0.37761994188E+03  0.48446762911E+03  0.00000000000E+00 0. -1.
        -13    1    5    5    0    0 -0.15014233151E+02 -0.18407723875E+02 -0.61945728579E+02  0.66344139037E+02  0.00000000000E+00 0.  1.
          1    1    6    6  503    0  0.20932732913E+03 -0.33180392023E+03  0.10309956865E+03  0.40563689829E+03  0.00000000000E+00 0. -1.
         -1    1    6    6    0  503  0.66428280164E+01 -0.84657627862E+02  0.30362589397E+02  0.90182747542E+02  0.00000000000E+00 0.  1.
<mgrwt>
<rscale>  0 0.20316487E+04</rscale>
<asrwt>0</asrwt>
<pdfrwt beam="1">  1        2 0.39944102E+00 0.20316487E+04</pdfrwt>
<pdfrwt beam="2">  1       -1 0.61144565E-01 0.20316487E+04</pdfrwt>
<totfact> 0.87569698E+00</totfact>
</mgrwt>
</event>
<event>
12    7  0.1735955E-007  0.1723581E+04  0.7818608E-02  0.8748028E-01
          2   -1    0    0  501    0  0.00000000000E+00  0.00000000000E+00  0.41873853927E+03  0.41873853927E+03  0.00000000000E+00 0. -1.
         -1   -1    0    0    0  501 -0.00000000000E+00 -0.00000000000E+00 -0.17736194539E+04  0.17736194539E+04  0.00000000000E+00 0.  1.
         24    2    1    2    0    0 -0.30526932185E+03  0.98705137556E+02 -0.13087887596E+04  0.13499238728E+04  0.80214600081E+02 0.  0.
        254    2    1    2    0    0  0.30526932185E+03 -0.98705137556E+02 -0.46092154943E+02  0.84243412029E+03  0.77758517040E+03 0.  0.
         23    2    4    4    0    0 -0.15839828825E+03  0.11692391559E+02  0.22246625129E+03  0.28804562910E+03  0.90842290488E+02 0.  0.
         23    2    4    4    0    0  0.46366761010E+03 -0.11039752911E+03 -0.26855840623E+03  0.55438849119E+03  0.89709054834E+02 0.  0.
          2    1    3    3  502    0 -0.22187501894E+03  0.74052139544E+02 -0.79012853852E+03  0.82402387756E+03  0.00000000000E+00 0. -1.
         -1    1    3    3    0  502 -0.83394302914E+02  0.24652998011E+02 -0.51866022112E+03  0.52589999529E+03  0.00000000000E+00 0.  1.
         13    1    5    5    0    0 -0.20240794769E+02 -0.18140023533E+01 -0.55779923051E+01  0.21073546820E+02  0.00000000000E+00 0.  1.
        -13    1    5    5    0    0 -0.13815749348E+03  0.13506393912E+02  0.22804424359E+03  0.26697208228E+03  0.00000000000E+00 0. -1.
          2    1    6    6  503    0  0.44688235235E+03 -0.98388290206E+02 -0.23352965836E+03  0.51373163600E+03  0.00000000000E+00 0. -1.
         -2    1    6    6    0  503  0.16785257743E+02 -0.12009238908E+02 -0.35028747864E+02  0.40656855186E+02  0.00000000000E+00 0.  1.
<mgrwt>
<rscale>  0 0.17235809E+04</rscale>
<asrwt>0</asrwt>
<pdfrwt beam="1">  1        2 0.64421315E-01 0.17235809E+04</pdfrwt>
<pdfrwt beam="2">  1       -1 0.27286453E+00 0.17235809E+04</pdfrwt>
<totfact> 0.40619200E+00</totfact>
</mgrwt>
</event>
<event>
12    7  0.1735955E-007  0.1472363E+04  0.7818608E-02  0.8903042E-01
          2   -1    0    0  501    0  0.00000000000E+00  0.00000000000E+00  0.99517411166E+03  0.99517411166E+03  0.00000000000E+00 0. -1.
         -1   -1    0    0    0  501 -0.00000000000E+00 -0.00000000000E+00 -0.54459133532E+03  0.54459133532E+03  0.00000000000E+00 0.  1.
         24    2    1    2    0    0 -0.96797233323E+02 -0.10509311058E+03 -0.31139834521E+03  0.35155285314E+03  0.78779520684E+02 0.  0.
        254    2    1    2    0    0  0.96797233323E+02  0.10509311058E+03  0.76198112155E+03  0.11882125938E+04  0.90045525836E+03 0.  0.
         23    2    4    4    0    0  0.23293255639E+03  0.40411089367E+03  0.16895637936E+03  0.50434722419E+03  0.90866243542E+02 0.  0.
         23    2    4    4    0    0 -0.13613532307E+03 -0.29901778309E+03  0.59302474219E+03  0.68386536966E+03  0.89716432014E+02 0.  0.
          2    1    3    3  502    0 -0.26173692612E+02 -0.49843092092E+01 -0.14418501083E+02  0.30295192634E+02  0.00000000000E+00 0. -1.
         -1    1    3    3    0  502 -0.70623540711E+02 -0.10010880137E+03 -0.29697984413E+03  0.32125766050E+03  0.00000000000E+00 0.  1.
         13    1    5    5    0    0  0.28562921572E+02  0.12711838952E+03  0.58638521191E+02  0.14287547589E+03  0.00000000000E+00 0. -1.
        -13    1    5    5    0    0  0.20436963482E+03  0.27699250415E+03  0.11031785817E+03  0.36147174830E+03  0.00000000000E+00 0.  1.
          2    1    6    6  503    0 -0.78589423335E+02 -0.15826160524E+03  0.22817703956E+03  0.28859624831E+03  0.00000000000E+00 0. -1.
         -2    1    6    6    0  503 -0.57545899731E+02 -0.14075617785E+03  0.36484770263E+03  0.39526912135E+03  0.00000000000E+00 0.  1.
<mgrwt>
<rscale>  0 0.14723630E+04</rscale>
<asrwt>0</asrwt>
<pdfrwt beam="1">  1        2 0.15310371E+00 0.14723630E+04</pdfrwt>
<pdfrwt beam="2">  1       -1 0.83783283E-01 0.14723630E+04</pdfrwt>
<totfact> 0.39594704E+01</totfact>
</mgrwt>
</event>
<event>
12    7  0.1735955E-007  0.1291203E+04  0.7818608E-02  0.9036571E-01
          2   -1    0    0  501    0  0.00000000000E+00  0.00000000000E+00  0.32366803514E+04  0.32366803514E+04  0.00000000000E+00 0. -1.
         -1   -1    0    0    0  501 -0.00000000000E+00 -0.00000000000E+00 -0.12877429499E+03  0.12877429499E+03  0.00000000000E+00 0.  1.
         24    2    1    2    0    0  0.73734393790E+02 -0.23791942354E+03  0.25084759015E+03  0.36263437258E+03  0.80850242861E+02 0.  0.
        254    2    1    2    0    0 -0.73734393790E+02  0.23791942354E+03  0.28570584663E+04  0.30028202738E+04  0.89000230575E+03 0.  0.
         23    2    4    4    0    0 -0.12962593982E+03  0.54764860325E+03  0.21264511157E+04  0.22018786763E+04  0.98759713695E+02 0.  0.
         23    2    4    4    0    0  0.55891546029E+02 -0.30972917971E+03  0.73060735061E+03  0.80094159749E+03  0.93082286967E+02 0.  0.
          2    1    3    3  502    0 -0.15400064582E+01 -0.40532058238E+01 -0.58705149993E+01  0.72981534444E+01  0.00000000000E+00 0. -1.
         -1    1    3    3    0  502  0.75274400248E+02 -0.23386621771E+03  0.25671810515E+03  0.35533621914E+03  0.00000000000E+00 0.  1.
         13    1    5    5    0    0 -0.10040880830E+03  0.51623225064E+03  0.19022202859E+04  0.19735804219E+04  0.00000000000E+00 0. -1.
        -13    1    5    5    0    0 -0.29217131520E+02  0.31416352605E+02  0.22423082975E+03  0.22829825447E+03  0.00000000000E+00 0.  1.
          4    1    6    6  503    0  0.45128369808E+01 -0.98085625784E+02  0.33799086912E+03  0.35196446310E+03  0.00000000000E+00 0. -1.
         -4    1    6    6    0  503  0.51378709049E+02 -0.21164355393E+03  0.39261648150E+03  0.44897713439E+03  0.00000000000E+00 0.  1.
<mgrwt>
<rscale>  0 0.12912029E+04</rscale>
<asrwt>0</asrwt>
<pdfrwt beam="1">  1        2 0.49795076E+00 0.12912029E+04</pdfrwt>
<pdfrwt beam="2">  1       -1 0.19811432E-01 0.12912029E+04</pdfrwt>
<totfact> 0.28935106E+01</totfact>
</mgrwt>
</event>
<event>
12    7  0.1735955E-007  0.1440728E+04  0.7818608E-02  0.8924854E-01
         -1   -1    0    0    0  501 -0.00000000000E+00  0.00000000000E+00  0.98873381827E+03  0.98873381827E+03  0.00000000000E+00 0.  1.
          2   -1    0    0  501    0  0.00000000000E+00 -0.00000000000E+00 -0.52483708410E+03  0.52483708410E+03  0.00000000000E+00 0. -1.
         24    2    1    2    0    0  0.16854403586E+03  0.38692951594E+03  0.29707820066E+03  0.52203550685E+03  0.78384123260E+02 0.  0.
        254    2    1    2    0    0 -0.16854403586E+03 -0.38692951594E+03  0.16681853351E+03  0.99153539553E+03  0.88158520583E+03 0.  0.
         23    2    4    4    0    0 -0.35882205002E+03  0.31068263258E+02  0.32946114950E+03  0.49623048205E+03  0.89339474651E+02 0.  0.
         23    2    4    4    0    0  0.19027801416E+03 -0.41799777919E+03 -0.16264261598E+03  0.49530491348E+03  0.89142978949E+02 0.  0.
          4    1    3    3  502    0  0.30685764340E+02  0.79739084816E+02  0.24659232352E+02  0.88927023567E+02  0.00000000000E+00 0. -1.
         -3    1    3    3    0  502  0.13785827152E+03  0.30719043112E+03  0.27241896830E+03  0.43310848328E+03  0.00000000000E+00 0.  1.
         13    1    5    5    0    0 -0.31446932079E+03  0.16426653462E+02  0.31924878619E+03  0.44842008892E+03  0.00000000000E+00 0. -1.
        -13    1    5    5    0    0 -0.44352729229E+02  0.14641609796E+02  0.10212363305E+02  0.47810393135E+02  0.00000000000E+00 0.  1.
          3    1    6    6  503    0  0.19870615347E+03 -0.39066957106E+03 -0.14481054898E+03  0.46160258261E+03  0.00000000000E+00 0. -1.
         -3    1    6    6    0  503 -0.84281393091E+01 -0.27328208130E+02 -0.17832067004E+02  0.33702330861E+02  0.00000000000E+00 0.  1.
<mgrwt>
<rscale>  0 0.14407278E+04</rscale>
<asrwt>0</asrwt>
<pdfrwt beam="1">  1        2 0.80744167E-01 0.14407278E+04</pdfrwt>
<pdfrwt beam="2">  1       -1 0.15211289E+00 0.14407278E+04</pdfrwt>
<totfact> 0.21685052E+01</totfact>
</mgrwt>
</event>
<event>
12    7  0.1735955E-007  0.1278219E+04  0.7818608E-02  0.9047019E-01
         -1   -1    0    0    0  501 -0.00000000000E+00  0.00000000000E+00  0.19025588346E+03  0.19025588346E+03  0.00000000000E+00 0.  1.
          2   -1    0    0  501    0  0.00000000000E+00 -0.00000000000E+00 -0.21469018645E+04  0.21469018645E+04  0.00000000000E+00 0. -1.
         24    2    1    2    0    0  0.12688968829E+03 -0.14854700990E+03 -0.99917798462E+03  0.10211880541E+04  0.79380033138E+02 0.  0.
        254    2    1    2    0    0 -0.12688968829E+03  0.14854700990E+03 -0.95746799645E+03  0.13159696939E+04  0.88139892441E+03 0.  0.
         23    2    4    4    0    0 -0.16499256274E+03 -0.26515533855E+02  0.11544712233E+03  0.22427829842E+03  0.95116233064E+02 0.  0.
         23    2    4    4    0    0  0.38102874451E+02  0.17506254376E+03 -0.10729151188E+04  0.10916913955E+04  0.92436614150E+02 0.  0.
          4    1    3    3  502    0  0.13467241390E+03 -0.14847170642E+03 -0.91757650150E+03  0.93921623856E+03  0.00000000000E+00 0. -1.
         -3    1    3    3    0  502 -0.77827256139E+01 -0.75303480277E-01 -0.81601483126E+02  0.81971815504E+02  0.00000000000E+00 0.  1.
         13    1    5    5    0    0 -0.10630503046E+03  0.12553937804E+02  0.25583194717E+02  0.11005844223E+03  0.00000000000E+00 0.  1.
        -13    1    5    5    0    0 -0.58687532287E+02 -0.39069471659E+02  0.89863927615E+02  0.11421985619E+03  0.00000000000E+00 0. -1.
          1    1    6    6  503    0  0.33681251782E+01  0.13344567035E+03 -0.91603144814E+03  0.92570659778E+03  0.00000000000E+00 0. -1.
         -1    1    6    6    0  503  0.34734749273E+02  0.41616873403E+02 -0.15688367064E+03  0.16598479772E+03  0.00000000000E+00 0.  1.
<mgrwt>
<rscale>  0 0.12782186E+04</rscale>
<asrwt>0</asrwt>
<pdfrwt beam="1">  1        2 0.33029258E+00 0.12782186E+04</pdfrwt>
<pdfrwt beam="2">  1       -1 0.29270137E-01 0.12782186E+04</pdfrwt>
<totfact> 0.66017147E+01</totfact>
</mgrwt>
</event>
<event>
12    7  0.1735955E-007  0.1933991E+04  0.7818608E-02  0.8638119E-01
          2   -1    0    0  501    0  0.00000000000E+00  0.00000000000E+00  0.15623072926E+04  0.15623072926E+04  0.00000000000E+00 0. -1.
         -1   -1    0    0    0  501 -0.00000000000E+00 -0.00000000000E+00 -0.59852537893E+03  0.59852537893E+03  0.00000000000E+00 0.  1.
         24    2    1    2    0    0 -0.61474969065E+03  0.24702859634E+02 -0.15284740636E+03  0.63964051315E+03  0.85148358750E+02 0.  0.
        254    2    1    2    0    0  0.61474969065E+03 -0.24702859634E+02  0.11166293201E+04  0.15211921584E+04  0.82984163006E+03 0.  0.
         23    2    4    4    0    0  0.55045513054E+02 -0.17011975291E+03 -0.57583124034E+02  0.20914664198E+03  0.91955221939E+02 0.  0.
         23    2    4    4    0    0  0.55970417760E+03  0.14541689327E+03  0.11742124441E+04  0.13120455164E+04  0.90960068565E+02 0.  0.
          2    1    3    3  502    0 -0.98986006393E+01  0.14051466546E+01 -0.16313429639E+02  0.19133340490E+02  0.00000000000E+00 0. -1.
         -1    1    3    3    0  502 -0.60485109001E+03  0.23297712979E+02 -0.13653397672E+03  0.62050717265E+03  0.00000000000E+00 0.  1.
         13    1    5    5    0    0 -0.41496742652E+01 -0.74127323229E+02  0.14024965322E+02  0.75556465626E+02  0.00000000000E+00 0.  1.
        -13    1    5    5    0    0  0.59195187320E+02 -0.95992429678E+02 -0.71608089356E+02  0.13359017635E+03  0.00000000000E+00 0. -1.
          2    1    6    6  503    0  0.35114411953E+03  0.68906547049E+02  0.80844534206E+03  0.88410077254E+03  0.00000000000E+00 0. -1.
         -2    1    6    6    0  503  0.20856005807E+03  0.76510346224E+02  0.36576710203E+03  0.42794474389E+03  0.00000000000E+00 0.  1.
<mgrwt>
<rscale>  0 0.19339913E+04</rscale>
<asrwt>0</asrwt>
<pdfrwt beam="1">  1        2 0.24035497E+00 0.19339913E+04</pdfrwt>
<pdfrwt beam="2">  1       -1 0.92080828E-01 0.19339913E+04</pdfrwt>
<totfact> 0.14305095E+01</totfact>
</mgrwt>
</event>
<event>
12    7  0.1735955E-007  0.1949489E+04  0.7818608E-02  0.8630607E-01
         -1   -1    0    0    0  501 -0.00000000000E+00  0.00000000000E+00  0.10948853885E+04  0.10948853885E+04  0.00000000000E+00 0.  1.
          2   -1    0    0  501    0  0.00000000000E+00 -0.00000000000E+00 -0.86778672573E+03  0.86778672573E+03  0.00000000000E+00 0. -1.
         24    2    1    2    0    0 -0.43551606798E+03  0.58147734040E+03  0.32832869654E+03  0.80118481580E+03  0.79418091330E+02 0.  0.
        254    2    1    2    0    0  0.43551606798E+03 -0.58147734040E+03 -0.10123003377E+03  0.11614872984E+04  0.90056375776E+03 0.  0.
         23    2    4    4    0    0  0.62302567097E+03 -0.41563998994E+03  0.17842364332E+03  0.77507746115E+03  0.89400706771E+02 0.  0.
         23    2    4    4    0    0 -0.18750960299E+03 -0.16583735047E+03 -0.27965367708E+03  0.38640983727E+03  0.91893988979E+02 0.  0.
          4    1    3    3  502    0 -0.47917551430E+02  0.83977187405E+02  0.18173545606E+02  0.98379558341E+02  0.00000000000E+00 0. -1.
         -3    1    3    3    0  502 -0.38759851655E+03  0.49750015300E+03  0.31015515093E+03  0.70280525746E+03  0.00000000000E+00 0.  1.
         13    1    5    5    0    0  0.11463232724E+03 -0.51452391378E+02  0.57211866807E+02  0.13806200321E+03  0.00000000000E+00 0. -1.
        -13    1    5    5    0    0  0.50839334373E+03 -0.36418759856E+03  0.12121177651E+03  0.63701545794E+03  0.00000000000E+00 0.  1.
          3    1    6    6  503    0 -0.88413917546E+02 -0.25841107124E+02 -0.70956088310E+02  0.11627360019E+03  0.00000000000E+00 0. -1.
         -3    1    6    6    0  503 -0.99095685441E+02 -0.13999624334E+03 -0.20869758877E+03  0.27013623708E+03  0.00000000000E+00 0.  1.
<mgrwt>
<rscale>  0 0.19494892E+04</rscale>
<asrwt>0</asrwt>
<pdfrwt beam="1">  1        2 0.13350565E+00 0.19494892E+04</pdfrwt>
<pdfrwt beam="2">  1       -1 0.16844391E+00 0.19494892E+04</pdfrwt>
<totfact> 0.82965147E+00</totfact>
</mgrwt>
</event>
<event>
12    7  0.1735955E-007  0.1532972E+04  0.7818608E-02  0.8862818E-01
          2   -1    0    0  501    0  0.00000000000E+00  0.00000000000E+00  0.17957866406E+04  0.17957866406E+04  0.00000000000E+00 0. -1.
         -1   -1    0    0    0  501 -0.00000000000E+00 -0.00000000000E+00 -0.32715525957E+03  0.32715525957E+03  0.00000000000E+00 0.  1.
         24    2    1    2    0    0  0.19304174644E+03  0.10601627756E+03 -0.78061513771E+02  0.24692373753E+03  0.79832106605E+02 0.  0.
        254    2    1    2    0    0 -0.19304174644E+03 -0.10601627756E+03  0.15466928948E+04  0.18760181626E+04  0.10385955270E+04 0.  0.
         23    2    4    4    0    0 -0.53751955165E+03  0.20466681393E+03  0.95689866960E+03  0.11202531343E+04  0.92175093402E+02 0.  0.
         23    2    4    4    0    0  0.34447780521E+03 -0.31068309149E+03  0.58979422520E+03  0.75576502836E+03  0.90192063921E+02 0.  0.
          2    1    3    3  502    0  0.14350180893E+02  0.38446255747E+02 -0.27186070054E+02  0.49225244312E+02  0.00000000000E+00 0. -1.
         -1    1    3    3    0  502  0.17869156555E+03  0.67570021815E+02 -0.50875443717E+02  0.19769849321E+03  0.00000000000E+00 0.  1.
         13    1    5    5    0    0 -0.49582243105E+03  0.21116406490E+03  0.86526793457E+03  0.10193717399E+04  0.00000000000E+00 0. -1.
        -13    1    5    5    0    0 -0.41697120597E+02 -0.64972509710E+01  0.91630735027E+02  0.10088139441E+03  0.00000000000E+00 0.  1.
          2    1    6    6  503    0  0.87249194171E+02 -0.70046179174E+02  0.86361320895E+02  0.14134060580E+03  0.00000000000E+00 0.  1.
         -2    1    6    6    0  503  0.25722861104E+03 -0.24063691231E+03  0.50343290430E+03  0.61442442256E+03  0.00000000000E+00 0. -1.
<mgrwt>
<rscale>  0 0.15329723E+04</rscale>
<asrwt>0</asrwt>
<pdfrwt beam="1">  1        2 0.27627486E+00 0.15329723E+04</pdfrwt>
<pdfrwt beam="2">  1       -1 0.50331579E-01 0.15329723E+04</pdfrwt>
<totfact> 0.37753502E+01</totfact>
</mgrwt>
</event>
<event>
12    7  0.1735955E-007  0.1279522E+04  0.7818608E-02  0.9045964E-01
         -1   -1    0    0    0  501 -0.00000000000E+00  0.00000000000E+00  0.30546900547E+03  0.30546900547E+03  0.00000000000E+00 0.  1.
          2   -1    0    0  501    0  0.00000000000E+00 -0.00000000000E+00 -0.13398882723E+04  0.13398882723E+04  0.00000000000E+00 0. -1.
         24    2    1    2    0    0 -0.12900383344E+02  0.13886765512E+03  0.10178188152E+03  0.18937861846E+03  0.77807867169E+02 0.  0.
        254    2    1    2    0    0  0.12900383344E+02 -0.13886765512E+03 -0.11362011483E+04  0.14559786593E+04  0.89970559700E+03 0.  0.
         23    2    4    4    0    0 -0.18730697964E+01  0.94742182988E+02 -0.11911514491E+04  0.11985122462E+04  0.92791378619E+02 0.  0.
         23    2    4    4    0    0  0.14773453140E+02 -0.23360983811E+03  0.54950300772E+02  0.25746641309E+03  0.92073921017E+02 0.  0.
          2    1    3    3  502    0 -0.10146854428E+02 -0.50324673774E+01 -0.25562503192E+01  0.11611149744E+02  0.00000000000E+00 0. -1.
         -1    1    3    3    0  502 -0.27535289162E+01  0.14390012250E+03  0.10433813184E+03  0.17776746872E+03  0.00000000000E+00 0.  1.
         13    1    5    5    0    0 -0.63074534395E+01 -0.52012442144E+01 -0.90926456682E+01  0.12227555582E+02  0.00000000000E+00 0.  1.
        -13    1    5    5    0    0  0.44343836432E+01  0.99943427202E+02 -0.11820588034E+04  0.11862846906E+04  0.00000000000E+00 0. -1.
          1    1    6    6  503    0  0.47399927896E+02 -0.19372722338E+03  0.36622589266E+02  0.20277624192E+03  0.00000000000E+00 0. -1.
         -1    1    6    6    0  503 -0.32626474755E+02 -0.39882614728E+02  0.18327711505E+02  0.54690171160E+02  0.00000000000E+00 0.  1.
<mgrwt>
<rscale>  0 0.12795223E+04</rscale>
<asrwt>0</asrwt>
<pdfrwt beam="1">  1        2 0.20613666E+00 0.12795223E+04</pdfrwt>
<pdfrwt beam="2">  1       -1 0.46995232E-01 0.12795223E+04</pdfrwt>
<totfact> 0.79119944E+01</totfact>
</mgrwt>
</event>
<event>
12    7  0.1735955E-007  0.2262566E+04  0.7818608E-02  0.8492829E-01
         -1   -1    0    0    0  501 -0.00000000000E+00  0.00000000000E+00  0.33705542640E+03  0.33705542640E+03  0.00000000000E+00 0.  1.
          2   -1    0    0  501    0  0.00000000000E+00 -0.00000000000E+00 -0.37970046990E+04  0.37970046990E+04  0.00000000000E+00 0. -1.
         24    2    1    2    0    0 -0.53670887632E+03  0.50822740415E+03 -0.37776673761E+03  0.83369704149E+03  0.77405017305E+02 0.  0.
        254    2    1    2    0    0  0.53670887632E+03 -0.50822740415E+03 -0.30821825350E+04  0.33003630839E+04  0.91988901194E+03 0.  0.
         23    2    4    4    0    0  0.65890046392E+03 -0.65741890712E+03 -0.27582136569E+04  0.29124257615E+04  0.90176483117E+02 0.  0.
         23    2    4    4    0    0 -0.12219158760E+03  0.14919150297E+03 -0.32396887811E+03  0.38793732245E+03  0.91381855591E+02 0.  0.
          2    1    3    3  502    0 -0.50070005633E+01  0.18351488737E+02 -0.17877311943E+02  0.26104510641E+02  0.00000000000E+00 0. -1.
         -1    1    3    3    0  502 -0.53170187576E+03  0.48987591541E+03 -0.35988942566E+03  0.80759253085E+03  0.00000000000E+00 0.  1.
         13    1    5    5    0    0  0.50967155903E+03 -0.46546667277E+03 -0.19586519951E+04  0.20767142219E+04  0.00000000000E+00 0. -1.
        -13    1    5    5    0    0  0.14922890489E+03 -0.19195223436E+03 -0.79956166181E+03  0.83571153957E+03  0.00000000000E+00 0.  1.
          4    1    6    6  503    0 -0.92745478256E+02  0.12712626849E+03 -0.17883500386E+03  0.23821160862E+03  0.00000000000E+00 0.  1.
         -4    1    6    6    0  503 -0.29446109342E+02  0.22065234484E+02 -0.14513387425E+03  0.14972571383E+03  0.00000000000E+00 0. -1.
<mgrwt>
<rscale>  0 0.22625658E+04</rscale>
<asrwt>0</asrwt>
<pdfrwt beam="1">  1        2 0.58415456E+00 0.22625658E+04</pdfrwt>
<pdfrwt beam="2">  1       -1 0.51854682E-01 0.22625658E+04</pdfrwt>
<totfact> 0.19214744E+00</totfact>
</mgrwt>
</event>
<event>
12    7  0.1735955E-007  0.3078134E+04  0.7818608E-02  0.8221765E-01
         -1   -1    0    0    0  501 -0.00000000000E+00  0.00000000000E+00  0.11909601639E+04  0.11909601639E+04  0.00000000000E+00 0.  1.
          2   -1    0    0  501    0  0.00000000000E+00 -0.00000000000E+00 -0.19889218730E+04  0.19889218730E+04  0.00000000000E+00 0. -1.
         24    2    1    2    0    0 -0.46468480440E+03  0.76183195286E+03 -0.14720435508E+04  0.17230560164E+04  0.75431613907E+02 0.  0.
        254    2    1    2    0    0  0.46468480440E+03 -0.76183195286E+03  0.67408184175E+03  0.14568260205E+04  0.93361439189E+03 0.  0.
         23    2    4    4    0    0 -0.10045230080E+03 -0.62685999193E+03  0.57284005791E+03  0.85987541683E+03  0.90531134446E+02 0.  0.
         23    2    4    4    0    0  0.56513710520E+03 -0.13497196093E+03  0.10124178384E+03  0.59695060366E+03  0.92210338379E+02 0.  0.
          4    1    3    3  502    0 -0.44235845348E+03  0.69321918330E+03 -0.13289321648E+04  0.15627842257E+04  0.00000000000E+00 0. -1.
         -3    1    3    3    0  502 -0.22326350918E+02  0.68612769562E+02 -0.14311138602E+03  0.16027179072E+03  0.00000000000E+00 0.  1.
         13    1    5    5    0    0  0.13314191368E+02 -0.69929869102E+02  0.84445638555E+02  0.11044691103E+03  0.00000000000E+00 0. -1.
        -13    1    5    5    0    0 -0.11376649216E+03 -0.55693012283E+03  0.48839441935E+03  0.74942850580E+03  0.00000000000E+00 0.  1.
          4    1    6    6  503    0  0.23171690892E+02  0.12113250789E+02 -0.92346111874E+00  0.26163158905E+02  0.00000000000E+00 0. -1.
         -4    1    6    6    0  503  0.54196541430E+03 -0.14708521172E+03  0.10216524496E+03  0.57078744475E+03  0.00000000000E+00 0.  1.
<mgrwt>
<rscale>  0 0.30781337E+04</rscale>
<asrwt>0</asrwt>
<pdfrwt beam="1">  1        2 0.30598798E+00 0.30781337E+04</pdfrwt>
<pdfrwt beam="2">  1       -1 0.18322464E+00 0.30781337E+04</pdfrwt>
<totfact> 0.12938406E+00</totfact>
</mgrwt>
</event>
<event>
12    7  0.1735955E-007  0.1498957E+04  0.7818608E-02  0.8885147E-01
         -1   -1    0    0    0  501 -0.00000000000E+00  0.00000000000E+00  0.35003779452E+03  0.35003779452E+03  0.00000000000E+00 0.  1.
          2   -1    0    0  501    0  0.00000000000E+00 -0.00000000000E+00 -0.16047350924E+04  0.16047350924E+04  0.00000000000E+00 0. -1.
         24    2    1    2    0    0 -0.93383688357E+02  0.35754708821E+03 -0.79252911983E+03  0.87935262547E+03  0.92726482726E+02 0.  0.
        254    2    1    2    0    0  0.93383688357E+02 -0.35754708821E+03 -0.46216817800E+03  0.10754202614E+04  0.89798044542E+03 0.  0.
         23    2    4    4    0    0  0.44145916359E+03 -0.26856077053E+01 -0.31136880476E+03  0.54783040701E+03  0.90962721244E+02 0.  0.
         23    2    4    4    0    0 -0.34807547524E+03 -0.35486148051E+03 -0.15079937324E+03  0.52758985440E+03  0.92343904453E+02 0.  0.
          2    1    3    3  502    0 -0.98131964483E+02  0.33203899175E+03 -0.67076277373E+03  0.75485261682E+03  0.00000000000E+00 0. -1.
         -1    1    3    3    0  502  0.47482761253E+01  0.25508096462E+02 -0.12176634610E+03  0.12450000865E+03  0.00000000000E+00 0.  1.
         13    1    5    5    0    0  0.28992695315E+03 -0.93720587040E+01 -0.15074909580E+03  0.32691094129E+03  0.00000000000E+00 0.  1.
        -13    1    5    5    0    0  0.15153221044E+03  0.66864509987E+01 -0.16061970896E+03  0.22091946572E+03  0.00000000000E+00 0. -1.
          2    1    6    6  503    0 -0.78395064335E+02 -0.87126751216E+02  0.39644796613E+01  0.11727136901E+03  0.00000000000E+00 0. -1.
         -2    1    6    6    0  503 -0.26968041090E+03 -0.26773472929E+03 -0.15476385291E+03  0.41031848540E+03  0.00000000000E+00 0.  1.
<mgrwt>
<rscale>  0 0.14989569E+04</rscale>
<asrwt>0</asrwt>
<pdfrwt beam="1">  1        2 0.24688232E+00 0.14989569E+04</pdfrwt>
<pdfrwt beam="2">  1       -1 0.53851970E-01 0.14989569E+04</pdfrwt>
<totfact> 0.42469251E+01</totfact>
</mgrwt>
</event>
<event>
12    7  0.1735955E-007  0.1238128E+04  0.7818608E-02  0.9080122E-01
         -1   -1    0    0    0  501 -0.00000000000E+00  0.00000000000E+00  0.14961862796E+03  0.14961862796E+03  0.00000000000E+00 0.  1.
          2   -1    0    0  501    0  0.00000000000E+00 -0.00000000000E+00 -0.25614491699E+04  0.25614491699E+04  0.00000000000E+00 0. -1.
         24    2    1    2    0    0  0.18590339703E+03 -0.21659792145E+03 -0.62000556309E+03  0.68725473596E+03  0.80233666469E+02 0.  0.
        254    2    1    2    0    0 -0.18590339703E+03  0.21659792145E+03 -0.17918249789E+04  0.20238130619E+04  0.89649753045E+03 0.  0.
         23    2    4    4    0    0 -0.20194672165E+03 -0.30235405484E+03 -0.47512207666E+03  0.60559647033E+03  0.93838394474E+02 0.  0.
         23    2    4    4    0    0  0.16043324625E+02  0.51895197629E+03 -0.13167029022E+04  0.14182165916E+04  0.89795467753E+02 0.  0.
          4    1    3    3  502    0  0.45377271097E+02 -0.45991508165E+02 -0.74162489136E+02  0.98358478792E+02  0.00000000000E+00 0. -1.
         -3    1    3    3    0  502  0.14052612593E+03 -0.17060641328E+03 -0.54584307396E+03  0.58889625717E+03  0.00000000000E+00 0.  1.
         13    1    5    5    0    0 -0.19896083262E+03 -0.30455400086E+03 -0.44283946883E+03  0.57310151588E+03  0.00000000000E+00 0. -1.
        -13    1    5    5    0    0 -0.29858890324E+01  0.21999460194E+01 -0.32282607830E+02  0.32494954441E+02  0.00000000000E+00 0.  1.
          2    1    6    6  503    0  0.19557936092E+02  0.47378961090E+03 -0.11178320208E+04  0.12142518417E+04  0.00000000000E+00 0. -1.
         -2    1    6    6    0  503 -0.35146114677E+01  0.45162365392E+02 -0.19887088142E+03  0.20396474994E+03  0.00000000000E+00 0.  1.
<mgrwt>
<rscale>  0 0.12381284E+04</rscale>
<asrwt>0</asrwt>
<pdfrwt beam="1">  1        2 0.39406911E+00 0.12381284E+04</pdfrwt>
<pdfrwt beam="2">  1       -1 0.23018250E-01 0.12381284E+04</pdfrwt>
<totfact> 0.58352979E+01</totfact>
</mgrwt>
</event>
<event>
12    7  0.1735955E-007  0.1125506E+04  0.7818608E-02  0.9180683E-01
         -1   -1    0    0    0  501 -0.00000000000E+00  0.00000000000E+00  0.10944610829E+04  0.10944610829E+04  0.00000000000E+00 0.  1.
          2   -1    0    0  501    0  0.00000000000E+00 -0.00000000000E+00 -0.28935779184E+03  0.28935779184E+03  0.00000000000E+00 0. -1.
         24    2    1    2    0    0 -0.13256840191E+03 -0.88791311268E+02  0.23771944965E+02  0.17977339231E+03  0.79341597387E+02 0.  0.
        254    2    1    2    0    0  0.13256840191E+03  0.88791311268E+02  0.78133134606E+03  0.12040454824E+04  0.90210230749E+03 0.  0.
         23    2    4    4    0    0 -0.10274012156E+03 -0.88833669637E+02 -0.14802260368E+03  0.22496341134E+03  0.10124668786E+03 0.  0.
         23    2    4    4    0    0  0.23530852347E+03  0.17762498091E+03  0.92935394973E+03  0.97908207104E+03  0.89343174862E+02 0.  0.
          2    1    3    3  502    0 -0.13550565075E+03 -0.98838017630E+02  0.22700321695E+02  0.16925140980E+03  0.00000000000E+00 0. -1.
         -3    1    3    3    0  502  0.29372488477E+01  0.10046706362E+02  0.10716232697E+01  0.10521982510E+02  0.00000000000E+00 0.  1.
         13    1    5    5    0    0 -0.15865547020E+02 -0.72386382578E+02 -0.99633195237E+02  0.12417035700E+03  0.00000000000E+00 0. -1.
        -13    1    5    5    0    0 -0.86874574543E+02 -0.16447287060E+02 -0.48389408439E+02  0.10079305434E+03  0.00000000000E+00 0.  1.
          3    1    6    6  503    0  0.13723068717E+03  0.14093170899E+03  0.69691109480E+03  0.72414023653E+03  0.00000000000E+00 0. -1.
         -3    1    6    6    0  503  0.98077836304E+02  0.36693271913E+02  0.23244285493E+03  0.25494183451E+03  0.00000000000E+00 0.  1.
<mgrwt>
<rscale>  0 0.11255058E+04</rscale>
<asrwt>0</asrwt>
<pdfrwt beam="1">  1        2 0.44516584E-01 0.11255058E+04</pdfrwt>
<pdfrwt beam="2">  1       -1 0.16837863E+00 0.11255058E+04</pdfrwt>
<totfact> 0.32853320E+01</totfact>
</mgrwt>
</event>
<event>
12    7  0.1735955E-007  0.1424119E+04  0.7818608E-02  0.8936543E-01
         -1   -1    0    0    0  501 -0.00000000000E+00  0.00000000000E+00  0.10658104788E+04  0.10658104788E+04  0.00000000000E+00 0.  1.
          2   -1    0    0  501    0  0.00000000000E+00 -0.00000000000E+00 -0.47572133366E+03  0.47572133366E+03  0.00000000000E+00 0. -1.
         24    2    1    2    0    0  0.20694326837E+02  0.49295568059E+02 -0.27513419343E+03  0.29074802164E+03  0.77312867599E+02 0.  0.
        254    2    1    2    0    0 -0.20694326837E+02 -0.49295568059E+02  0.86522333855E+03  0.12507837908E+04  0.90165977927E+03 0.  0.
         23    2    4    4    0    0  0.11197568423E+03  0.20465414301E+03  0.91297874414E+03  0.94663675442E+03  0.90382993174E+02 0.  0.
         23    2    4    4    0    0 -0.13267001107E+03 -0.25394971107E+03 -0.47755405585E+02  0.30414703638E+03  0.90183442972E+02 0.  0.
          2    1    3    3  502    0  0.28574535745E+02  0.64203988272E+02 -0.25489110877E+03  0.26440146280E+03  0.00000000000E+00 0. -1.
         -1    1    3    3    0  502 -0.78802089074E+01 -0.14908420213E+02 -0.20243084664E+02  0.26346558834E+02  0.00000000000E+00 0.  1.
         13    1    5    5    0    0 -0.89085630368E+01  0.56607468243E+02  0.16682975883E+03  0.17639709858E+03  0.00000000000E+00 0. -1.
        -13    1    5    5    0    0  0.12088424727E+03  0.14804667477E+03  0.74614898531E+03  0.77023965584E+03  0.00000000000E+00 0.  1.
          2    1    6    6  503    0 -0.57360476599E+02 -0.78572955794E+02  0.24071410600E+02  0.10021659776E+03  0.00000000000E+00 0. -1.
         -2    1    6    6    0  503 -0.75309534473E+02 -0.17537675528E+03 -0.71826816185E+02  0.20393043863E+03  0.00000000000E+00 0.  1.
<mgrwt>
<rscale>  0 0.14241191E+04</rscale>
<asrwt>0</asrwt>
<pdfrwt beam="1">  1        2 0.73187898E-01 0.14241191E+04</pdfrwt>
<pdfrwt beam="2">  1       -1 0.16397084E+00 0.14241191E+04</pdfrwt>
<totfact> 0.19772611E+01</totfact>
</mgrwt>
</event>
<event>
12    7  0.1735955E-007  0.1250353E+04  0.7818608E-02  0.9069889E-01
          2   -1    0    0  501    0  0.00000000000E+00  0.00000000000E+00  0.30693661476E+03  0.30693661476E+03  0.00000000000E+00 0. -1.
         -1   -1    0    0    0  501 -0.00000000000E+00 -0.00000000000E+00 -0.12733767023E+04  0.12733767023E+04  0.00000000000E+00 0.  1.
         24    2    1    2    0    0  0.29049172378E+03 -0.12177645868E+02 -0.16327716794E+03  0.34210683937E+03  0.76445531789E+02 0.  0.
        254    2    1    2    0    0 -0.29049172378E+03  0.12177645868E+02 -0.80316291963E+03  0.12382064777E+04  0.89640998956E+03 0.  0.
         23    2    4    4    0    0  0.25004142344E+03  0.29935179901E+01  0.22739767096E+01  0.26319576469E+03  0.82080235119E+02 0.  0.
         23    2    4    4    0    0 -0.54053314722E+03  0.91841278782E+01 -0.80543689634E+03  0.97501071304E+03  0.98269349792E+02 0.  0.
          4    1    3    3  502    0  0.21404450713E+03  0.25097558001E+01 -0.81086357443E+02  0.22890248419E+03  0.00000000000E+00 0. -1.
         -3    1    3    3    0  502  0.76447216651E+02 -0.14687401668E+02 -0.82190810494E+02  0.11320435518E+03  0.00000000000E+00 0.  1.
         13    1    5    5    0    0  0.10488523205E+03  0.17160473669E+02  0.38293098882E+02  0.11296793872E+03  0.00000000000E+00 0.  1.
        -13    1    5    5    0    0  0.14515619139E+03 -0.14166955679E+02 -0.36019122173E+02  0.15022782597E+03  0.00000000000E+00 0. -1.
          4    1    6    6  503    0 -0.43115235347E+03  0.57348667997E+01 -0.56412570641E+03  0.71004440230E+03  0.00000000000E+00 0. -1.
         -4    1    6    6    0  503 -0.10938079375E+03  0.34492610786E+01 -0.24131118993E+03  0.26496631074E+03  0.00000000000E+00 0.  1.
<mgrwt>
<rscale>  0 0.12503534E+04</rscale>
<asrwt>0</asrwt>
<pdfrwt beam="1">  1        2 0.47221018E-01 0.12503534E+04</pdfrwt>
<pdfrwt beam="2">  1       -1 0.19590411E+00 0.12503534E+04</pdfrwt>
<totfact> 0.19375797E+01</totfact>
</mgrwt>
</event>
<event>
12    7  0.1735955E-007  0.1065930E+04  0.7818608E-02  0.9239050E-01
         -1   -1    0    0    0  501 -0.00000000000E+00  0.00000000000E+00  0.11761872493E+03  0.11761872493E+03  0.00000000000E+00 0.  1.
          2   -1    0    0  501    0  0.00000000000E+00 -0.00000000000E+00 -0.24150211875E+04  0.24150211875E+04  0.00000000000E+00 0. -1.
         24    2    1    2    0    0  0.12677018726E+02  0.62207309373E+01 -0.48360650908E+02  0.97503969386E+02  0.83479741210E+02 0.  0.
        254    2    1    2    0    0 -0.12677018726E+02 -0.62207309373E+01 -0.22490418117E+04  0.24351359431E+04  0.93354088622E+03 0.  0.
         23    2    4    4    0    0  0.43244428765E+03  0.84682852281E+01 -0.76957712180E+03  0.88743706819E+03  0.90641214811E+02 0.  0.
         23    2    4    4    0    0 -0.44512130638E+03 -0.14689016165E+02 -0.14794646899E+04  0.15476988749E+04  0.90594117449E+02 0.  0.
          4    1    3    3  502    0 -0.85446643562E+01  0.29588914043E+02 -0.56989968709E+02  0.64779407659E+02  0.00000000000E+00 0. -1.
         -3    1    3    3    0  502  0.21221683082E+02 -0.23368183105E+02  0.86293178010E+01  0.32724561726E+02  0.00000000000E+00 0.  1.
         13    1    5    5    0    0  0.33903452234E+03  0.39528099000E+02 -0.63179702006E+03  0.71810469467E+03  0.00000000000E+00 0.  1.
        -13    1    5    5    0    0  0.93409765306E+02 -0.31059813772E+02 -0.13778010175E+03  0.16933237353E+03  0.00000000000E+00 0. -1.
          1    1    6    6  503    0 -0.43185560075E+02 -0.27297506035E+02 -0.13335630948E+03  0.14280774388E+03  0.00000000000E+00 0. -1.
         -1    1    6    6    0  503 -0.40193574630E+03  0.12608489869E+02 -0.13461083804E+04  0.14048911310E+04  0.00000000000E+00 0.  1.
<mgrwt>
<rscale>  0 0.10659300E+04</rscale>
<asrwt>0</asrwt>
<pdfrwt beam="1">  1        2 0.37154174E+00 0.10659300E+04</pdfrwt>
<pdfrwt beam="2">  1       -1 0.18095188E-01 0.10659300E+04</pdfrwt>
<totfact> 0.10764264E+02</totfact>
</mgrwt>
</event>
<event>
12    7  0.1735955E-007  0.2379127E+04  0.7818608E-02  0.8447360E-01
          2   -1    0    0  501    0  0.00000000000E+00  0.00000000000E+00  0.26140430127E+04  0.26140430127E+04  0.00000000000E+00 0. -1.
         -1   -1    0    0    0  501 -0.00000000000E+00 -0.00000000000E+00 -0.54133069075E+03  0.54133069075E+03  0.00000000000E+00 0.  1.
         24    2    1    2    0    0 -0.36455684308E+03 -0.90616768959E+03  0.52443940753E+03  0.11115145841E+04  0.79914985831E+02 0.  0.
        254    2    1    2    0    0  0.36455684308E+03  0.90616768959E+03  0.15482729144E+04  0.20438591193E+04  0.90893867161E+03 0.  0.
         23    2    4    4    0    0  0.58217246379E+03  0.90088515987E+03  0.13971906992E+04  0.17634874639E+04  0.85013743091E+02 0.  0.
         23    2    4    4    0    0 -0.21761562071E+03  0.52825297236E+01  0.15108221518E+03  0.28037165543E+03  0.91640416452E+02 0.  0.
          2    1    3    3  502    0 -0.60202180958E+02 -0.85447210741E+02  0.62064299630E+02  0.12156276446E+03  0.00000000000E+00 0. -1.
         -1    1    3    3    0  502 -0.30435466213E+03 -0.82072047885E+03  0.46237510790E+03  0.98995181962E+03  0.00000000000E+00 0.  1.
         13    1    5    5    0    0  0.46452873420E+03  0.76600773630E+03  0.11940231283E+04  0.14927310635E+04  0.00000000000E+00 0. -1.
        -13    1    5    5    0    0  0.11764372959E+03  0.13487742357E+03  0.20316757096E+03  0.27075640046E+03  0.00000000000E+00 0.  1.
          4    1    6    6  503    0 -0.18469410936E+03 -0.29921724126E+01  0.79404196432E+02  0.20106191469E+03  0.00000000000E+00 0. -1.
         -4    1    6    6    0  503 -0.32921511352E+02  0.82747021363E+01  0.71678018743E+02  0.79309740739E+02  0.00000000000E+00 0.  1.
<mgrwt>
<rscale>  0 0.23791273E+04</rscale>
<asrwt>0</asrwt>
<pdfrwt beam="1">  1        2 0.40216046E+00 0.23791273E+04</pdfrwt>
<pdfrwt beam="2">  1       -1 0.83281646E-01 0.23791273E+04</pdfrwt>
<totfact> 0.43781889E+00</totfact>
</mgrwt>
</event>
<event>
12    7  0.1735955E-007  0.2607094E+04  0.7818608E-02  0.8365795E-01
          2   -1    0    0  501    0  0.00000000000E+00  0.00000000000E+00  0.40484080925E+04  0.40484080925E+04  0.00000000000E+00 0. -1.
         -1   -1    0    0    0  501 -0.00000000000E+00 -0.00000000000E+00 -0.41972916040E+03  0.41972916040E+03  0.00000000000E+00 0.  1.
         24    2    1    2    0    0 -0.74440810392E+03 -0.55082386137E+03  0.44178986992E+03  0.10290720528E+04  0.79124264202E+02 0.  0.
        254    2    1    2    0    0  0.74440810392E+03  0.55082386137E+03  0.31868890622E+04  0.34390652001E+04  0.90186318509E+03 0.  0.
         23    2    4    4    0    0  0.73164427916E+03  0.76216253797E+03  0.26565901184E+04  0.28603883244E+04  0.90306277911E+02 0.  0.
         23    2    4    4    0    0  0.12763824764E+02 -0.21133867660E+03  0.53029894381E+03  0.57867687573E+03  0.93930853530E+02 0.  0.
          2    1    3    3  502    0 -0.84956633014E+02 -0.84293486041E+02  0.80052144812E+02  0.14398391289E+03  0.00000000000E+00 0. -1.
         -1    1    3    3    0  502 -0.65945147091E+03 -0.46653037533E+03  0.36173772511E+03  0.88508813988E+03  0.00000000000E+00 0.  1.
         13    1    5    5    0    0  0.44207006197E+02  0.24921837124E+02  0.16462055747E+03  0.17226515987E+03  0.00000000000E+00 0.  1.
        -13    1    5    5    0    0  0.68743727296E+03  0.73724070084E+03  0.24919695609E+04  0.26881231645E+04  0.00000000000E+00 0. -1.
          4    1    6    6  503    0  0.79175826927E+01 -0.15176819754E+03  0.25405132121E+03  0.29603774710E+03  0.00000000000E+00 0. -1.
         -4    1    6    6    0  503  0.48462420717E+01 -0.59570479060E+02  0.27624762261E+03  0.28263912863E+03  0.00000000000E+00 0.  1.
<mgrwt>
<rscale>  0 0.26070941E+04</rscale>
<asrwt>0</asrwt>
<pdfrwt beam="1">  1        2 0.62283199E+00 0.26070941E+04</pdfrwt>
<pdfrwt beam="2">  1       -1 0.64573720E-01 0.26070941E+04</pdfrwt>
<totfact> 0.76542573E-01</totfact>
</mgrwt>
</event>
<event>
12    7  0.1735955E-007  0.2464389E+04  0.7818608E-02  0.8415783E-01
          2   -1    0    0  501    0  0.00000000000E+00  0.00000000000E+00  0.35419825424E+04  0.35419825424E+04  0.00000000000E+00 0. -1.
         -3   -1    0    0    0  501 -0.00000000000E+00 -0.00000000000E+00 -0.42865900622E+03  0.42865900622E+03  0.00000000000E+00 0.  1.
         24    2    1    2    0    0  0.28733485771E+03  0.10280519795E+04  0.13695215224E+04  0.17382633560E+04  0.80734760956E+02 0.  0.
        254    2    1    2    0    0 -0.28733485771E+03 -0.10280519795E+04  0.17438020137E+04  0.22323781926E+04  0.89622248276E+03 0.  0.
         23    2    4    4    0    0  0.17991989312E+03 -0.32369865069E+02  0.63770289301E+03  0.66963069229E+03  0.91221204802E+02 0.  0.
         23    2    4    4    0    0 -0.46725475082E+03 -0.99568211440E+03  0.11060991207E+04  0.15627475003E+04  0.94945298137E+02 0.  0.
          4    1    3    3  502    0  0.19212035493E+03  0.66114527939E+03  0.94384196987E+03  0.11682726460E+04  0.00000000000E+00 0. -1.
         -3    1    3    3    0  502  0.95214502780E+02  0.36690670008E+03  0.42567955256E+03  0.56999071008E+03  0.00000000000E+00 0.  1.
         13    1    5    5    0    0  0.12773925733E+03 -0.61422095390E+02  0.49604214050E+03  0.51589514130E+03  0.00000000000E+00 0. -1.
        -13    1    5    5    0    0  0.52180635790E+02  0.29052230321E+02  0.14166075251E+03  0.15373555100E+03  0.00000000000E+00 0.  1.
          3    1    6    6  503    0 -0.37141343077E+03 -0.69039714258E+03  0.78111645594E+03  0.11066792981E+04  0.00000000000E+00 0. -1.
         -3    1    6    6    0  503 -0.95841320049E+02 -0.30528497182E+03  0.32498266480E+03  0.45606820221E+03  0.00000000000E+00 0.  1.
<mgrwt>
<rscale>  0 0.24643885E+04</rscale>
<asrwt>0</asrwt>
<pdfrwt beam="1">  1        2 0.54492037E+00 0.24643885E+04</pdfrwt>
<pdfrwt beam="2">  1       -3 0.65947541E-01 0.24643885E+04</pdfrwt>
<totfact> 0.97315984E-01</totfact>
</mgrwt>
</event>
<event>
12    7  0.1735955E-007  0.1712818E+04  0.7818608E-02  0.8754088E-01
          2   -1    0    0  501    0  0.00000000000E+00  0.00000000000E+00  0.14274453315E+04  0.14274453315E+04  0.00000000000E+00 0. -1.
         -1   -1    0    0    0  501 -0.00000000000E+00 -0.00000000000E+00 -0.51381032872E+03  0.51381032872E+03  0.00000000000E+00 0.  1.
         24    2    1    2    0    0 -0.34404884326E+03  0.13274033383E+03  0.88084519791E+03  0.95831901259E+03  0.80606851034E+02 0.  0.
        254    2    1    2    0    0  0.34404884326E+03 -0.13274033383E+03  0.32789804817E+02  0.98293664759E+03  0.91054910856E+03 0.  0.
         23    2    4    4    0    0  0.15161886448E+03 -0.50110042241E+03  0.12744578776E+03  0.54667964654E+03  0.92337932142E+02 0.  0.
         23    2    4    4    0    0  0.19242997877E+03  0.36836008858E+03 -0.94655982943E+02  0.43625700105E+03  0.92962165789E+02 0.  0.
          2    1    3    3  502    0 -0.27533958158E+03  0.13605990536E+03  0.68357276771E+03  0.74939703214E+03  0.00000000000E+00 0. -1.
         -1    1    3    3    0  502 -0.68709261680E+02 -0.33195715313E+01  0.19727243020E+03  0.20892198045E+03  0.00000000000E+00 0.  1.
         13    1    5    5    0    0  0.16478156387E+02 -0.33020312315E+02 -0.13832748951E+02  0.39410856459E+02  0.00000000000E+00 0. -1.
        -13    1    5    5    0    0  0.13514070810E+03 -0.46808011010E+03  0.14127853671E+03  0.50726879008E+03  0.00000000000E+00 0.  1.
          3    1    6    6  503    0  0.88094701949E+02  0.26237112287E+03 -0.52848464281E+02  0.28176629110E+03  0.00000000000E+00 0. -1.
         -3    1    6    6    0  503  0.10433527682E+03  0.10598896572E+03 -0.41807518662E+02  0.15449070995E+03  0.00000000000E+00 0.  1.
<mgrwt>
<rscale>  0 0.17128177E+04</rscale>
<asrwt>0</asrwt>
<pdfrwt beam="1">  1        2 0.21960697E+00 0.17128177E+04</pdfrwt>
<pdfrwt beam="2">  1       -1 0.79047743E-01 0.17128177E+04</pdfrwt>
<totfact> 0.24195942E+01</totfact>
</mgrwt>
</event>
<event>
12    7  0.1735955E-007  0.1264133E+04  0.7818608E-02  0.9058502E-01
          2   -1    0    0  501    0  0.00000000000E+00  0.00000000000E+00  0.42881179067E+04  0.42881179067E+04  0.00000000000E+00 0. -1.
         -1   -1    0    0    0  501 -0.00000000000E+00 -0.00000000000E+00 -0.93166305502E+02  0.93166305502E+02  0.00000000000E+00 0.  1.
         24    2    1    2    0    0 -0.21626605186E+03  0.35087173484E+02  0.30754636717E+03  0.38624394837E+03  0.81225025488E+02 0.  0.
        254    2    1    2    0    0  0.21626605186E+03 -0.35087173484E+02  0.38874052341E+04  0.39950402639E+04  0.89466482057E+03 0.  0.
         23    2    4    4    0    0 -0.10324664613E+03 -0.20676675497E+03  0.30762136409E+03  0.39573363371E+03  0.92530234559E+02 0.  0.
         23    2    4    4    0    0  0.31951269798E+03  0.17167958148E+03  0.35797838700E+04  0.35993066302E+04  0.92700697442E+02 0.  0.
          2    1    3    3  502    0 -0.13702418904E+03 -0.17643441528E+02  0.19205665873E+03  0.23658545934E+03  0.00000000000E+00 0. -1.
         -1    1    3    3    0  502 -0.79241862821E+02  0.52730615012E+02  0.11548970844E+03  0.14965848903E+03  0.00000000000E+00 0.  1.
         13    1    5    5    0    0 -0.74835637447E+02 -0.19332591110E+03  0.29771349677E+03  0.36277900531E+03  0.00000000000E+00 0. -1.
        -13    1    5    5    0    0 -0.28411008678E+02 -0.13440843865E+02  0.99078673188E+01  0.32954628396E+02  0.00000000000E+00 0.  1.
          4    1    6    6  503    0  0.26021311609E+03  0.12630755233E+03  0.24410048790E+04  0.24580824402E+04  0.00000000000E+00 0. -1.
         -4    1    6    6    0  503  0.59299581890E+02  0.45372029150E+02  0.11387789910E+04  0.11412241900E+04  0.00000000000E+00 0.  1.
<mgrwt>
<rscale>  0 0.12641331E+04</rscale>
<asrwt>0</asrwt>
<pdfrwt beam="1">  1        2 0.65971029E+00 0.12641331E+04</pdfrwt>
<pdfrwt beam="2">  1       -1 0.14333281E-01 0.12641331E+04</pdfrwt>
<totfact> 0.80590328E+00</totfact>
</mgrwt>
</event>
<event>
12    7  0.1735955E-007  0.3864064E+04  0.7818608E-02  0.8032545E-01
         -1   -1    0    0    0  501 -0.00000000000E+00  0.00000000000E+00  0.15939616449E+04  0.15939616449E+04  0.00000000000E+00 0.  1.
          2   -1    0    0  501    0  0.00000000000E+00 -0.00000000000E+00 -0.23418053953E+04  0.23418053953E+04  0.00000000000E+00 0. -1.
         24    2    1    2    0    0  0.10109922052E+04 -0.78071049123E+03 -0.16845348136E+04  0.21154802639E+04  0.77363420041E+02 0.  0.
        254    2    1    2    0    0 -0.10109922052E+04  0.78071049123E+03  0.93669106320E+03  0.18202867764E+04  0.89690561954E+03 0.  0.
         23    2    4    4    0    0 -0.44043447660E+03  0.84767931354E+03  0.71938241441E+03  0.11993010226E+04  0.90934799641E+02 0.  0.
         23    2    4    4    0    0 -0.57055772855E+03 -0.66968822305E+02  0.21730864879E+03  0.62098575380E+03  0.91538586503E+02 0.  0.
          2    1    3    3  502    0  0.84242559566E+03 -0.68365996991E+03 -0.14432094408E+04  0.18055263301E+04  0.00000000000E+00 0. -1.
         -1    1    3    3    0  502  0.16856660950E+03 -0.97050521320E+02 -0.24132537280E+03  0.30995393381E+03  0.00000000000E+00 0.  1.
         13    1    5    5    0    0 -0.12178790618E+02  0.52627754770E+02  0.22055776977E+02  0.58347757550E+02  0.00000000000E+00 0. -1.
        -13    1    5    5    0    0 -0.42825568599E+03  0.79505155877E+03  0.69732663744E+03  0.11409532650E+04  0.00000000000E+00 0.  1.
          2    1    6    6  503    0 -0.28814688731E+03 -0.42425033275E+02  0.15808460679E+03  0.33138988370E+03  0.00000000000E+00 0. -1.
         -2    1    6    6    0  503 -0.28241084124E+03 -0.24543789030E+02  0.59224041995E+02  0.28959587010E+03  0.00000000000E+00 0.  1.
<mgrwt>
<rscale>  0 0.38640642E+04</rscale>
<asrwt>0</asrwt>
<pdfrwt beam="1">  1        2 0.36027775E+00 0.38640642E+04</pdfrwt>
<pdfrwt beam="2">  1       -1 0.24522487E+00 0.38640642E+04</pdfrwt>
<totfact> 0.29159417E-01</totfact>
</mgrwt>
</event>
<event>
12    7  0.1735955E-007  0.1812970E+04  0.7818608E-02  0.8699432E-01
         -1   -1    0    0    0  501 -0.00000000000E+00  0.00000000000E+00  0.51476348475E+03  0.51476348475E+03  0.00000000000E+00 0.  1.
          2   -1    0    0  501    0  0.00000000000E+00 -0.00000000000E+00 -0.15962970978E+04  0.15962970978E+04  0.00000000000E+00 0. -1.
         24    2    1    2    0    0  0.23865423368E+03 -0.26928238553E+02 -0.11449581736E+04  0.11725776264E+04  0.79549339614E+02 0.  0.
        254    2    1    2    0    0 -0.23865423368E+03  0.26928238553E+02  0.63424560517E+02  0.93848295615E+03  0.90501193961E+03 0.  0.
         23    2    4    4    0    0 -0.17312910418E+03 -0.13389826227E+03  0.44744935398E+03  0.50669831102E+03  0.92896838801E+02 0.  0.
         23    2    4    4    0    0 -0.65525129508E+02  0.16082650082E+03 -0.38402479346E+03  0.43178464514E+03  0.93830868158E+02 0.  0.
          4    1    3    3  502    0  0.27925190076E+02 -0.29018556248E+02 -0.24398748935E+03  0.24728887521E+03  0.00000000000E+00 0. -1.
         -1    1    3    3    0  502  0.21072904361E+03  0.20903176949E+01 -0.90097068425E+03  0.92528875122E+03  0.00000000000E+00 0.  1.
         13    1    5    5    0    0 -0.28936792596E+02 -0.10565630512E+02  0.14605081871E+02  0.34092212165E+02  0.00000000000E+00 0.  1.
        -13    1    5    5    0    0 -0.14419231158E+03 -0.12333263176E+03  0.43284427211E+03  0.47260609885E+03  0.00000000000E+00 0. -1.
          1    1    6    6  503    0 -0.48730612875E+02  0.16382986431E+03 -0.37580043882E+03  0.41284484602E+03  0.00000000000E+00 0. -1.
         -1    1    6    6    0  503 -0.16794516633E+02 -0.30033634906E+01 -0.82243546435E+01  0.18939799114E+02  0.00000000000E+00 0.  1.
<mgrwt>
<rscale>  0 0.18129704E+04</rscale>
<asrwt>0</asrwt>
<pdfrwt beam="1">  1        2 0.24558417E+00 0.18129704E+04</pdfrwt>
<pdfrwt beam="2">  1       -1 0.79194383E-01 0.18129704E+04</pdfrwt>
<totfact> 0.19188822E+01</totfact>
</mgrwt>
</event>
<event>
12    7  0.1735955E-007  0.1387749E+04  0.7818608E-02  0.8962734E-01
          2   -1    0    0  501    0  0.00000000000E+00  0.00000000000E+00  0.46421313825E+03  0.46421313825E+03  0.00000000000E+00 0. -1.
         -1   -1    0    0    0  501 -0.00000000000E+00 -0.00000000000E+00 -0.10371571654E+04  0.10371571654E+04  0.00000000000E+00 0.  1.
         24    2    1    2    0    0 -0.21047613949E+03 -0.29311954237E+03 -0.33339448434E+03  0.49811793779E+03  0.82160369663E+02 0.  0.
        254    2    1    2    0    0  0.21047613949E+03  0.29311954237E+03 -0.23954954281E+03  0.10032523659E+04  0.90493759715E+03 0.  0.
         23    2    4    4    0    0  0.19165659933E+03  0.59811278109E+03 -0.60121661427E+02  0.63777936880E+03  0.93149117669E+02 0.  0.
         23    2    4    4    0    0  0.18819540159E+02 -0.30499323871E+03 -0.17942788139E+03  0.36547299707E+03  0.89448846905E+02 0.  0.
          2    1    3    3  502    0  0.59694502350E+00 -0.14995853686E+02  0.49609510199E+00  0.15015927594E+02  0.00000000000E+00 0. -1.
         -1    1    3    3    0  502 -0.21107308452E+03 -0.27812368869E+03 -0.33389057944E+03  0.48310201020E+03  0.00000000000E+00 0.  1.
         13    1    5    5    0    0  0.12296215728E+03  0.37092094814E+03  0.79797139163E+01  0.39085255241E+03  0.00000000000E+00 0. -1.
        -13    1    5    5    0    0  0.68694442056E+02  0.22719183295E+03 -0.68101375343E+02  0.24692681639E+03  0.00000000000E+00 0.  1.
          2    1    6    6  503    0  0.39319540487E+02 -0.27040773884E+03 -0.17620865554E+03  0.32513975730E+03  0.00000000000E+00 0. -1.
         -2    1    6    6    0  503 -0.20500000328E+02 -0.34585499877E+02 -0.32192258430E+01  0.40333239769E+02  0.00000000000E+00 0.  1.
<mgrwt>
<rscale>  0 0.13877492E+04</rscale>
<asrwt>0</asrwt>
<pdfrwt beam="1">  1        2 0.71417407E-01 0.13877492E+04</pdfrwt>
<pdfrwt beam="2">  1       -1 0.15956264E+00 0.13877492E+04</pdfrwt>
<totfact> 0.22018274E+01</totfact>
</mgrwt>
</event>
<event>
12    7  0.1735955E-007  0.1404945E+04  0.7818608E-02  0.8950247E-01
          2   -1    0    0  501    0  0.00000000000E+00  0.00000000000E+00  0.75065454279E+03  0.75065454279E+03  0.00000000000E+00 0. -1.
         -1   -1    0    0    0  501 -0.00000000000E+00 -0.00000000000E+00 -0.65738333394E+03  0.65738333394E+03  0.00000000000E+00 0.  1.
         24    2    1    2    0    0 -0.94006869966E+02 -0.41487537355E+03  0.18274575040E+03  0.46979501421E+03  0.79702439818E+02 0.  0.
        254    2    1    2    0    0  0.94006869966E+02  0.41487537355E+03 -0.89474541550E+02  0.93824286252E+03  0.83146563868E+03 0.  0.
         23    2    4    4    0    0  0.30096578853E+03 -0.12376098666E+03  0.38657358791E+02  0.34013571309E+03  0.91108310538E+02 0.  0.
         23    2    4    4    0    0 -0.20695891856E+03  0.53863636021E+03 -0.12813190034E+03  0.59810714942E+03  0.91396147591E+02 0.  0.
          4    1    3    3  502    0 -0.97670869585E+02 -0.36837738671E+03  0.18386286015E+03  0.42313951499E+03  0.00000000000E+00 0. -1.
         -3    1    3    3    0  502  0.36639996190E+01 -0.46497986839E+02 -0.11171097557E+01  0.46655499220E+02  0.00000000000E+00 0.  1.
         13    1    5    5    0    0 -0.16438086274E+01  0.20297729250E+01 -0.86408347322E+01  0.90269657029E+01  0.00000000000E+00 0.  1.
        -13    1    5    5    0    0  0.30260959716E+03 -0.12579075958E+03  0.47298193523E+02  0.33110874739E+03  0.00000000000E+00 0. -1.
          1    1    6    6  503    0 -0.19474257384E+03  0.45465643222E+03 -0.81507618963E+02  0.50127899754E+03  0.00000000000E+00 0. -1.
         -1    1    6    6    0  503 -0.12216344725E+02  0.83979927982E+02 -0.46624281377E+02  0.96828151879E+02  0.00000000000E+00 0.  1.
<mgrwt>
<rscale>  0 0.14049452E+04</rscale>
<asrwt>0</asrwt>
<pdfrwt beam="1">  1        2 0.11548532E+00 0.14049452E+04</pdfrwt>
<pdfrwt beam="2">  1       -1 0.10113590E+00 0.14049452E+04</pdfrwt>
<totfact> 0.38666823E+01</totfact>
</mgrwt>
</event>
<event>
12    7  0.1735955E-007  0.2538016E+04  0.7818608E-02  0.8389566E-01
         -1   -1    0    0    0  501 -0.00000000000E+00  0.00000000000E+00  0.12469526824E+04  0.12469526824E+04  0.00000000000E+00 0.  1.
          2   -1    0    0  501    0  0.00000000000E+00 -0.00000000000E+00 -0.12914529641E+04  0.12914529641E+04  0.00000000000E+00 0. -1.
         24    2    1    2    0    0 -0.32518885512E+03  0.57230536501E+03  0.88387092340E+03  0.11048549642E+04  0.78711247170E+02 0.  0.
        254    2    1    2    0    0  0.32518885512E+03 -0.57230536501E+03 -0.92837120518E+03  0.14335506823E+04  0.87173002798E+03 0.  0.
         23    2    4    4    0    0  0.46868469000E+03 -0.68709101075E+03 -0.54486988949E+03  0.99849917103E+03  0.91422111094E+02 0.  0.
         23    2    4    4    0    0 -0.14349583487E+03  0.11478564573E+03 -0.38350131569E+03  0.43505151122E+03  0.91813720068E+02 0.  0.
          4    1    3    3  502    0 -0.78664175222E+02  0.19218223579E+03  0.23704498439E+03  0.31513868192E+03  0.00000000000E+00 0. -1.
         -3    1    3    3    0  502 -0.24652467990E+03  0.38012312922E+03  0.64682593901E+03  0.78971628231E+03  0.00000000000E+00 0.  1.
         13    1    5    5    0    0  0.43703220954E+03 -0.63374850503E+03 -0.47284491771E+03  0.90344708534E+03  0.00000000000E+00 0. -1.
        -13    1    5    5    0    0  0.31652480454E+02 -0.53342505718E+02 -0.72024971778E+02  0.95052085694E+02  0.00000000000E+00 0.  1.
          1    1    6    6  503    0 -0.43839937459E+02  0.88918840890E+02 -0.22719277933E+03  0.24788113958E+03  0.00000000000E+00 0. -1.
         -1    1    6    6    0  503 -0.99655897413E+02  0.25866804842E+02 -0.15630853636E+03  0.18717037164E+03  0.00000000000E+00 0.  1.
<mgrwt>
<rscale>  0 0.25380156E+04</rscale>
<asrwt>0</asrwt>
<pdfrwt beam="1">  1        2 0.19868507E+00 0.25380156E+04</pdfrwt>
<pdfrwt beam="2">  1       -1 0.19183887E+00 0.25380156E+04</pdfrwt>
<totfact> 0.29060167E+00</totfact>
</mgrwt>
</event>
<event>
12    7  0.1735955E-007  0.1340271E+04  0.7818608E-02  0.8998226E-01
         -1   -1    0    0    0  501 -0.00000000000E+00  0.00000000000E+00  0.33149782439E+03  0.33149782439E+03  0.00000000000E+00 0.  1.
          2   -1    0    0  501    0  0.00000000000E+00 -0.00000000000E+00 -0.13547040062E+04  0.13547040062E+04  0.00000000000E+00 0. -1.
         24    2    1    2    0    0 -0.35188703554E+03  0.50764997729E+02 -0.15813333316E+03  0.39292635850E+03  0.54620521531E+02 0.  0.
        254    2    1    2    0    0  0.35188703554E+03 -0.50764997729E+02 -0.86507284865E+03  0.12932754721E+04  0.89320145681E+03 0.  0.
         23    2    4    4    0    0 -0.11044244865E+03 -0.31050357206E+03 -0.60665336021E+03  0.69635918098E+03  0.90982453044E+02 0.  0.
         23    2    4    4    0    0  0.46232948420E+03  0.25973857433E+03 -0.25841948845E+03  0.59691629110E+03  0.91190721155E+02 0.  0.
          2    1    3    3  502    0  0.30752188044E+00  0.21068628289E+01 -0.57046097311E+01  0.60890075440E+01  0.00000000000E+00 0. -1.
         -1    1    3    3    0  502 -0.35219455742E+03  0.48658134900E+02 -0.15242872343E+03  0.38683735096E+03  0.00000000000E+00 0.  1.
         13    1    5    5    0    0 -0.86997543977E+02 -0.11515555873E+03 -0.23318396253E+03  0.27423372467E+03  0.00000000000E+00 0.  1.
        -13    1    5    5    0    0 -0.23444904677E+02 -0.19534801332E+03 -0.37346939768E+03  0.42212545631E+03  0.00000000000E+00 0. -1.
          1    1    6    6  503    0  0.21197157250E+02  0.37165886682E+02 -0.10266956683E+02  0.44000375088E+02  0.00000000000E+00 0. -1.
         -1    1    6    6    0  503  0.44113232695E+03  0.22257268765E+03 -0.24815253176E+03  0.55291591602E+03  0.00000000000E+00 0.  1.
<mgrwt>
<rscale>  0 0.13402708E+04</rscale>
<asrwt>0</asrwt>
<pdfrwt beam="1">  1        2 0.20841600E+00 0.13402708E+04</pdfrwt>
<pdfrwt beam="2">  1       -1 0.50999666E-01 0.13402708E+04</pdfrwt>
<totfact> 0.66145978E+01</totfact>
</mgrwt>
</event>
<event>
12    7  0.1735955E-007  0.1355910E+04  0.7818608E-02  0.8986366E-01
         -1   -1    0    0    0  501 -0.00000000000E+00  0.00000000000E+00  0.20085157427E+03  0.20085157427E+03  0.00000000000E+00 0.  1.
          2   -1    0    0  501    0  0.00000000000E+00 -0.00000000000E+00 -0.22883725507E+04  0.22883725507E+04  0.00000000000E+00 0. -1.
         24    2    1    2    0    0  0.35487201199E+03 -0.12296119797E+03 -0.43130953052E+03  0.57679328141E+03  0.74893105620E+02 0.  0.
        254    2    1    2    0    0 -0.35487201199E+03  0.12296119797E+03 -0.16562114459E+04  0.19124308436E+04  0.87937578813E+03 0.  0.
         23    2    4    4    0    0 -0.11927932412E+03 -0.36869734552E+03 -0.79576159441E+03  0.88980305203E+03  0.91365565302E+02 0.  0.
         23    2    4    4    0    0 -0.23559268787E+03  0.49165854349E+03 -0.86044985153E+03  0.10226277916E+04  0.90341657574E+02 0.  0.
          4    1    3    3  502    0  0.42543826526E+02 -0.28105852653E+02 -0.28784260652E+02  0.58552965681E+02  0.00000000000E+00 0. -1.
         -3    1    3    3    0  502  0.31232818546E+03 -0.94855345314E+02 -0.40252526986E+03  0.51824031573E+03  0.00000000000E+00 0.  1.
         13    1    5    5    0    0 -0.18832830921E+02 -0.34856358752E+02 -0.34595205529E+02  0.52597238631E+02  0.00000000000E+00 0. -1.
        -13    1    5    5    0    0 -0.10044649320E+03 -0.33384098677E+03 -0.76116638888E+03  0.83720581340E+03  0.00000000000E+00 0.  1.
          3    1    6    6  503    0 -0.10196011547E+03  0.30329949488E+03 -0.53885141922E+03  0.62669554070E+03  0.00000000000E+00 0. -1.
         -3    1    6    6    0  503 -0.13363257240E+03  0.18835904861E+03 -0.32159843232E+03  0.39593225086E+03  0.00000000000E+00 0.  1.
<mgrwt>
<rscale>  0 0.13559104E+04</rscale>
<asrwt>0</asrwt>
<pdfrwt beam="1">  1        2 0.35205732E+00 0.13559104E+04</pdfrwt>
<pdfrwt beam="2">  1       -1 0.30900242E-01 0.13559104E+04</pdfrwt>
<totfact> 0.49699927E+01</totfact>
</mgrwt>
</event>
<event>
12    7  0.2051203E-007  0.2079481E+04  0.7818608E-02  0.8570336E-01
         -1   -1    0    0    0  501 -0.00000000000E+00  0.00000000000E+00  0.71406163577E+03  0.71406163577E+03  0.00000000000E+00 0.  1.
          2   -1    0    0  501    0  0.00000000000E+00 -0.00000000000E+00 -0.15139599839E+04  0.15139599839E+04  0.00000000000E+00 0. -1.
         24    2    1    2    0    0 -0.12696570194E+03 -0.56471473388E+03  0.32114070723E+03  0.66657972128E+03  0.78575765021E+02 0.  0.
        254    2    1    2    0    0  0.12696570194E+03  0.56471473388E+03 -0.11210390554E+04  0.15614418984E+04  0.91997240086E+03 0.  0.
         23    2    4    4    0    0 -0.10656798744E+03 -0.66057503421E+02 -0.79183081925E+03  0.80677378684E+03  0.90374593281E+02 0.  0.
         23    2    4    4    0    0  0.23353368938E+03  0.63077223730E+03 -0.32920823615E+03  0.75466811160E+03  0.93457458191E+02 0.  0.
          2    1    3    3  502    0  0.82690053871E+01 -0.17015054407E+02  0.18143482363E+02  0.26212105578E+02  0.00000000000E+00 0. -1.
         -1    1    3    3    0  502 -0.13523470733E+03 -0.54769967947E+03  0.30299722487E+03  0.64036761570E+03  0.00000000000E+00 0.  1.
         13    1    5    5    0    0  0.20948458421E+01 -0.42661650850E+02 -0.18721774934E+03  0.19202835859E+03  0.00000000000E+00 0. -1.
        -13    1    5    5    0    0 -0.10866283329E+03 -0.23395852571E+02 -0.60461306991E+03  0.61474542825E+03  0.00000000000E+00 0.  1.
          1    1    6    6  503    0  0.47854043238E+01  0.99422567328E+02 -0.33865767371E+02  0.10514103475E+03  0.00000000000E+00 0. -1.
         -1    1    6    6    0  503  0.22874828506E+03  0.53134966997E+03 -0.29534246878E+03  0.64952707685E+03  0.00000000000E+00 0.  1.
<mgrwt>
<rscale>  0 0.20794814E+04</rscale>
<asrwt>0</asrwt>
<pdfrwt beam="1">  1        2 0.23291692E+00 0.20794814E+04</pdfrwt>
<pdfrwt beam="2">  1       -1 0.10985564E+00 0.20794814E+04</pdfrwt>
<totfact> 0.10036209E+01</totfact>
</mgrwt>
</event>
<event>
12    7  0.1735955E-007  0.1885901E+04  0.7818608E-02  0.8661906E-01
         -3   -1    0    0    0  501 -0.00000000000E+00  0.00000000000E+00  0.59506762926E+03  0.59506762926E+03  0.00000000000E+00 0.  1.
          2   -1    0    0  501    0  0.00000000000E+00 -0.00000000000E+00 -0.14942092349E+04  0.14942092349E+04  0.00000000000E+00 0. -1.
         24    2    1    2    0    0 -0.69840586328E+02  0.32675316255E+03  0.36277733175E+03  0.49966943906E+03  0.80105050777E+02 0.  0.
        254    2    1    2    0    0  0.69840586328E+02 -0.32675316255E+03 -0.12619189374E+04  0.15896074251E+04  0.90706506088E+03 0.  0.
         23    2    4    4    0    0  0.66715643840E+01 -0.30789829345E+03 -0.13861877637E+04  0.14224363927E+04  0.83444029279E+02 0.  0.
         23    2    4    4    0    0  0.63169021944E+02 -0.18854869108E+02  0.12426882629E+03  0.16717103247E+03  0.90319330630E+02 0.  0.
          4    1    3    3  502    0  0.11091827958E+02  0.71974615219E+01  0.21067848914E+02  0.24873406636E+02  0.00000000000E+00 0. -1.
         -3    1    3    3    0  502 -0.80932414286E+02  0.31955570103E+03  0.34170948284E+03  0.47479603242E+03  0.00000000000E+00 0.  1.
         13    1    5    5    0    0  0.29211416922E+02 -0.24858840096E+03 -0.11971044072E+04  0.12229916033E+04  0.00000000000E+00 0.  1.
        -13    1    5    5    0    0 -0.22539852538E+02 -0.59309892483E+02 -0.18908335653E+03  0.19944478939E+03  0.00000000000E+00 0. -1.
          1    1    6    6  503    0 -0.20563136073E+02  0.82361882562E+00  0.69957122784E+01  0.21736165794E+02  0.00000000000E+00 0. -1.
         -1    1    6    6    0  503  0.83732158017E+02 -0.19678487933E+02  0.11727311401E+03  0.14543486667E+03  0.00000000000E+00 0.  1.
<mgrwt>
<rscale>  0 0.18859009E+04</rscale>
<asrwt>0</asrwt>
<pdfrwt beam="1">  1        2 0.22987835E+00 0.18859009E+04</pdfrwt>
<pdfrwt beam="2">  1       -3 0.91548865E-01 0.18859009E+04</pdfrwt>
<totfact> 0.81862858E+00</totfact>
</mgrwt>
</event>
<event>
12    7  0.1735955E-007  0.2546073E+04  0.7818608E-02  0.8386753E-01
         -1   -1    0    0    0  501 -0.00000000000E+00  0.00000000000E+00  0.11716141323E+04  0.11716141323E+04  0.00000000000E+00 0.  1.
          2   -1    0    0  501    0  0.00000000000E+00 -0.00000000000E+00 -0.13832382139E+04  0.13832382139E+04  0.00000000000E+00 0. -1.
         24    2    1    2    0    0  0.83837639235E+03 -0.72303625616E+03 -0.42045331341E+01  0.11101328793E+04  0.81981270078E+02 0.  0.
        254    2    1    2    0    0 -0.83837639235E+03  0.72303625616E+03 -0.20741954844E+03  0.14447194669E+04  0.90472927781E+03 0.  0.
         23    2    4    4    0    0 -0.80353749207E+03  0.14076420731E+03 -0.45793495580E+01  0.82095110193E+03  0.91938447317E+02 0.  0.
         23    2    4    4    0    0 -0.34838900280E+02  0.58227204884E+03 -0.20284019888E+03  0.62376836502E+03  0.87683174435E+02 0.  0.
          2    1    3    3  502    0  0.70444003826E+03 -0.57777067441E+03  0.18376510779E+02  0.91125869864E+03  0.00000000000E+00 0. -1.
         -1    1    3    3    0  502  0.13393635409E+03 -0.14526558175E+03 -0.22581043913E+02  0.19887418066E+03  0.00000000000E+00 0.  1.
         13    1    5    5    0    0 -0.24550683158E+03  0.84492117680E+02 -0.13927077397E+02  0.26001247237E+03  0.00000000000E+00 0. -1.
        -13    1    5    5    0    0 -0.55803066048E+03  0.56272089634E+02  0.93477278385E+01  0.56093862955E+03  0.00000000000E+00 0.  1.
          1    1    6    6  503    0  0.85916531451E+01  0.10247640537E+03 -0.49617042163E+01  0.10295556648E+03  0.00000000000E+00 0. -1.
         -1    1    6    6    0  503 -0.43430553425E+02  0.47979564347E+03 -0.19787849466E+03  0.52081279854E+03  0.00000000000E+00 0.  1.
<mgrwt>
<rscale>  0 0.25460726E+04</rscale>
<asrwt>0</asrwt>
<pdfrwt beam="1">  1        2 0.21280588E+00 0.25460726E+04</pdfrwt>
<pdfrwt beam="2">  1       -1 0.18024833E+00 0.25460726E+04</pdfrwt>
<totfact> 0.31038756E+00</totfact>
</mgrwt>
</event>
<event>
12    7  0.1735955E-007  0.2290271E+04  0.7818608E-02  0.8481767E-01
         -1   -1    0    0    0  501 -0.00000000000E+00  0.00000000000E+00  0.65092750897E+03  0.65092750897E+03  0.00000000000E+00 0.  1.
          2   -1    0    0  501    0  0.00000000000E+00 -0.00000000000E+00 -0.20145638682E+04  0.20145638682E+04  0.00000000000E+00 0. -1.
         24    2    1    2    0    0 -0.59231762742E+03 -0.60259410068E+03 -0.11219322530E+04  0.14066967972E+04  0.78128592889E+02 0.  0.
        254    2    1    2    0    0  0.59231762742E+03  0.60259410068E+03 -0.24170410625E+03  0.12587945800E+04  0.90121201593E+03 0.  0.
         23    2    4    4    0    0  0.11328734644E+03  0.58347479252E+03 -0.42622432549E+03  0.73697288761E+03  0.90471017819E+02 0.  0.
         23    2    4    4    0    0  0.47903028099E+03  0.19119308155E+02  0.18452021924E+03  0.52182169236E+03  0.91731179339E+02 0.  0.
          2    1    3    3  502    0 -0.20449043720E+03 -0.19969967856E+03 -0.44150976156E+03  0.52595358168E+03  0.00000000000E+00 0. -1.
         -1    1    3    3    0  502 -0.38782719022E+03 -0.40289442212E+03 -0.68042249140E+03  0.88074321550E+03  0.00000000000E+00 0.  1.
         13    1    5    5    0    0  0.31341405141E+02  0.16132959357E+03 -0.70267723128E+02  0.17873744529E+03  0.00000000000E+00 0. -1.
        -13    1    5    5    0    0  0.81945941294E+02  0.42214519896E+03 -0.35595660236E+03  0.55823544232E+03  0.00000000000E+00 0.  1.
          1    1    6    6  503    0  0.10318391154E+03 -0.13643378317E+02  0.77184967788E+02  0.12957847285E+03  0.00000000000E+00 0. -1.
         -1    1    6    6    0  503  0.37584636944E+03  0.32762686473E+02  0.10733525145E+03  0.39224321951E+03  0.00000000000E+00 0.  1.
<mgrwt>
<rscale>  0 0.22902708E+04</rscale>
<asrwt>0</asrwt>
<pdfrwt beam="1">  1        2 0.30993290E+00 0.22902708E+04</pdfrwt>
<pdfrwt beam="2">  1       -1 0.10014270E+00 0.22902708E+04</pdfrwt>
<totfact> 0.64327253E+00</totfact>
</mgrwt>
</event>
<event>
12    7  0.1735955E-007  0.1356640E+04  0.7818608E-02  0.8985817E-01
         -1   -1    0    0    0  501 -0.00000000000E+00  0.00000000000E+00  0.48205694408E+03  0.48205694408E+03  0.00000000000E+00 0.  1.
          2   -1    0    0  501    0  0.00000000000E+00 -0.00000000000E+00 -0.95448917809E+03  0.95448917809E+03  0.00000000000E+00 0. -1.
         24    2    1    2    0    0 -0.60773252302E+02  0.49685212061E+02  0.26293362775E+03  0.28504666555E+03  0.77171888969E+02 0.  0.
        254    2    1    2    0    0  0.60773252302E+02 -0.49685212061E+02 -0.73536586177E+03  0.11514994566E+04  0.88262451781E+03 0.  0.
         23    2    4    4    0    0 -0.35419842697E+03  0.15502566220E+03 -0.45244716348E+03  0.60136219237E+03  0.86247139440E+02 0.  0.
         23    2    4    4    0    0  0.41497167927E+03 -0.20471087426E+03 -0.28291869829E+03  0.55013726425E+03  0.92195352578E+02 0.  0.
          2    1    3    3  502    0  0.18683473156E+02  0.10097033453E+02  0.46860565731E+02  0.51448370959E+02  0.00000000000E+00 0. -1.
         -1    1    3    3    0  502 -0.79456725458E+02  0.39588178607E+02  0.21607306202E+03  0.23359829459E+03  0.00000000000E+00 0.  1.
         13    1    5    5    0    0 -0.19154466021E+03  0.78334829823E+02 -0.17648225382E+03  0.27197736731E+03  0.00000000000E+00 0.  1.
        -13    1    5    5    0    0 -0.16265376676E+03  0.76690832379E+02 -0.27596490966E+03  0.32938482506E+03  0.00000000000E+00 0. -1.
          4    1    6    6  503    0  0.34697852414E+02 -0.50032621353E+02 -0.29130261006E+02  0.67496490782E+02  0.00000000000E+00 0. -1.
         -4    1    6    6    0  503  0.38027382686E+03 -0.15467825291E+03 -0.25378843728E+03  0.48264077347E+03  0.00000000000E+00 0.  1.
<mgrwt>
<rscale>  0 0.13566402E+04</rscale>
<asrwt>0</asrwt>
<pdfrwt beam="1">  1        2 0.14684449E+00 0.13566402E+04</pdfrwt>
<pdfrwt beam="2">  1       -1 0.74162608E-01 0.13566402E+04</pdfrwt>
<totfact> 0.54999192E+01</totfact>
</mgrwt>
</event>
<event>
12    7  0.1735955E-007  0.2638863E+04  0.7818608E-02  0.8355119E-01
         -1   -1    0    0    0  501 -0.00000000000E+00  0.00000000000E+00  0.71613501655E+03  0.71613501655E+03  0.00000000000E+00 0.  1.
          2   -1    0    0  501    0  0.00000000000E+00 -0.00000000000E+00 -0.24309655117E+04  0.24309655117E+04  0.00000000000E+00 0. -1.
         24    2    1    2    0    0  0.71446481457E+03  0.27933024663E+03  0.27087510681E+03  0.81732770915E+03  0.78523262204E+02 0.  0.
        254    2    1    2    0    0 -0.71446481457E+03 -0.27933024663E+03 -0.19857056019E+04  0.23297728191E+04  0.94674668893E+03 0.  0.
         23    2    4    4    0    0 -0.88404789368E+03 -0.41268659458E+03 -0.16807163193E+04  0.19455000153E+04  0.91170499041E+02 0.  0.
         23    2    4    4    0    0  0.16958307910E+03  0.13335634796E+03 -0.30498928258E+03  0.38427280374E+03  0.90026601297E+02 0.  0.
          2    1    3    3  502    0  0.33188112974E+02 -0.37269836081E+01  0.11590878053E+02  0.35350950534E+02  0.00000000000E+00 0. -1.
         -1    1    3    3    0  502  0.68127670160E+03  0.28305723023E+03  0.25928422876E+03  0.78197675862E+03  0.00000000000E+00 0.  1.
         13    1    5    5    0    0 -0.27587588358E+03 -0.93632564839E+02 -0.44842679769E+03  0.53475335738E+03  0.00000000000E+00 0. -1.
        -13    1    5    5    0    0 -0.60817201010E+03 -0.31905402974E+03 -0.12322895216E+04  0.14107466579E+04  0.00000000000E+00 0.  1.
          4    1    6    6  503    0  0.32701392825E+02  0.61671538039E+02 -0.49076787857E+02  0.85330479919E+02  0.00000000000E+00 0.  1.
         -4    1    6    6    0  503  0.13688168628E+03  0.71684809916E+02 -0.25591249473E+03  0.29894232382E+03  0.00000000000E+00 0. -1.
<mgrwt>
<rscale>  0 0.26388630E+04</rscale>
<asrwt>0</asrwt>
<pdfrwt beam="1">  1        2 0.37399470E+00 0.26388630E+04</pdfrwt>
<pdfrwt beam="2">  1       -1 0.11017462E+00 0.26388630E+04</pdfrwt>
<totfact> 0.29084267E+00</totfact>
</mgrwt>
</event>
<event>
12    7  0.1735955E-007  0.4243156E+04  0.7818608E-02  0.7957214E-01
         -1   -1    0    0    0  501 -0.00000000000E+00  0.00000000000E+00  0.10950437911E+04  0.10950437911E+04  0.00000000000E+00 0.  1.
          2   -1    0    0  501    0  0.00000000000E+00 -0.00000000000E+00 -0.41104225012E+04  0.41104225012E+04  0.00000000000E+00 0. -1.
         24    2    1    2    0    0  0.18597186536E+04 -0.51657401008E+03 -0.21900605748E+04  0.29203451592E+04  0.81537407637E+02 0.  0.
        254    2    1    2    0    0 -0.18597186536E+04  0.51657401008E+03 -0.82531813527E+03  0.22851211330E+04  0.90289888127E+03 0.  0.
         23    2    4    4    0    0 -0.63356045100E+03  0.62687543930E+03 -0.34680342398E+03  0.96076280286E+03  0.91765391109E+02 0.  0.
         23    2    4    4    0    0 -0.12261582026E+04 -0.11030142923E+03 -0.47851471129E+03  0.13243583302E+04  0.96531418087E+02 0.  0.
          2    1    3    3  502    0  0.14152721957E+04 -0.36318358209E+03 -0.16266357627E+04  0.21865135734E+04  0.00000000000E+00 0. -1.
         -1    1    3    3    0  502  0.44444645794E+03 -0.15339042799E+03 -0.56342481214E+03  0.73383158579E+03  0.00000000000E+00 0.  1.
         13    1    5    5    0    0 -0.17579419842E+03  0.12358295978E+03 -0.10037983971E+03  0.23717601137E+03  0.00000000000E+00 0.  1.
        -13    1    5    5    0    0 -0.45776625258E+03  0.50329247952E+03 -0.24642358427E+03  0.72358679150E+03  0.00000000000E+00 0. -1.
          3    1    6    6  503    0 -0.71021637924E+03 -0.97653033558E+02 -0.24194136956E+03  0.75662345100E+03  0.00000000000E+00 0. -1.
         -3    1    6    6    0  503 -0.51594182338E+03 -0.12648395668E+02 -0.23657334174E+03  0.56773487919E+03  0.00000000000E+00 0.  1.
<mgrwt>
<rscale>  0 0.42431557E+04</rscale>
<asrwt>0</asrwt>
<pdfrwt beam="1">  1        2 0.63237269E+00 0.42431557E+04</pdfrwt>
<pdfrwt beam="2">  1       -1 0.16846828E+00 0.42431557E+04</pdfrwt>
<totfact> 0.61171821E-02</totfact>
</mgrwt>
</event>
<event>
12    7  0.1735955E-007  0.1558961E+04  0.7818608E-02  0.8846164E-01
          2   -1    0    0  501    0  0.00000000000E+00  0.00000000000E+00  0.53884736733E+03  0.53884736733E+03  0.00000000000E+00 0. -1.
         -1   -1    0    0    0  501 -0.00000000000E+00 -0.00000000000E+00 -0.11275729500E+04  0.11275729500E+04  0.00000000000E+00 0.  1.
         24    2    1    2    0    0  0.37538668563E+03  0.32020719667E+03 -0.35060101248E+03  0.61051965562E+03  0.79783252597E+02 0.  0.
        254    2    1    2    0    0 -0.37538668563E+03 -0.32020719667E+03 -0.23812457023E+03  0.10559006617E+04  0.90264892621E+03 0.  0.
         23    2    4    4    0    0  0.16493336991E+03 -0.12325760106E+03 -0.39224825856E+03  0.45354479153E+03  0.97204572195E+02 0.  0.
         23    2    4    4    0    0 -0.54032005554E+03 -0.19694959560E+03  0.15412368832E+03  0.60235587022E+03  0.91343185020E+02 0.  0.
          2    1    3    3  502    0  0.22348222964E+03  0.17044259484E+03 -0.15432082330E+03  0.32063983160E+03  0.00000000000E+00 0. -1.
         -1    1    3    3    0  502  0.15190445599E+03  0.14976460182E+03 -0.19628018918E+03  0.28987982402E+03  0.00000000000E+00 0.  1.
         13    1    5    5    0    0  0.15789045422E+03 -0.12452457556E+03 -0.30084072771E+03  0.36185758097E+03  0.00000000000E+00 0.  1.
        -13    1    5    5    0    0  0.70429156867E+01  0.12669745005E+01 -0.91407530846E+02  0.91687210565E+02  0.00000000000E+00 0. -1.
          3    1    6    6  503    0 -0.25772752067E+03 -0.72147453317E+02  0.29556129072E+02  0.26926250147E+03  0.00000000000E+00 0. -1.
         -3    1    6    6    0  503 -0.28259253487E+03 -0.12480214229E+03  0.12456755925E+03  0.33309336874E+03  0.00000000000E+00 0.  1.
<mgrwt>
<rscale>  0 0.15589608E+04</rscale>
<asrwt>0</asrwt>
<pdfrwt beam="1">  1        2 0.82899595E-01 0.15589608E+04</pdfrwt>
<pdfrwt beam="2">  1       -1 0.17347276E+00 0.15589608E+04</pdfrwt>
<totfact> 0.14389348E+01</totfact>
</mgrwt>
</event>
<event>
12    7  0.1735955E-007  0.2018722E+04  0.7818608E-02  0.8597917E-01
          2   -1    0    0  501    0  0.00000000000E+00  0.00000000000E+00  0.12487394292E+04  0.12487394292E+04  0.00000000000E+00 0. -1.
         -1   -1    0    0    0  501 -0.00000000000E+00 -0.00000000000E+00 -0.81587063487E+03  0.81587063487E+03  0.00000000000E+00 0.  1.
         24    2    1    2    0    0 -0.31108573341E+03  0.31706258129E+03 -0.51717500260E+03  0.68639691188E+03  0.79798015849E+02 0.  0.
        254    2    1    2    0    0  0.31108573341E+03 -0.31706258129E+03  0.95004379693E+03  0.13782131522E+04  0.89419531581E+03 0.  0.
         23    2    4    4    0    0  0.19301712527E+03  0.21242307228E+03  0.25596467124E+02  0.30233587112E+03  0.91502063131E+02 0.  0.
         23    2    4    4    0    0  0.11806860814E+03 -0.52948565357E+03  0.92444732981E+03  0.10758772811E+04  0.92810585452E+02 0.  0.
          4    1    3    3  502    0 -0.14258573852E+03  0.10206114841E+03 -0.24006846242E+03  0.29728780246E+03  0.00000000000E+00 0. -1.
         -3    1    3    3    0  502 -0.16849999488E+03  0.21500143288E+03 -0.27710654018E+03  0.38910910942E+03  0.00000000000E+00 0.  1.
         13    1    5    5    0    0  0.69470330644E+02  0.43261136097E+02  0.42433150080E+02  0.92185817574E+02  0.00000000000E+00 0. -1.
        -13    1    5    5    0    0  0.12354679462E+03  0.16916193618E+03 -0.16836682956E+02  0.21015005355E+03  0.00000000000E+00 0.  1.
          4    1    6    6  503    0  0.16569384520E+02 -0.69229522767E+02  0.19323232364E+03  0.20592717699E+03  0.00000000000E+00 0. -1.
         -4    1    6    6    0  503  0.10149922362E+03 -0.46025613080E+03  0.73121500617E+03  0.86995010408E+03  0.00000000000E+00 0.  1.
<mgrwt>
<rscale>  0 0.20187222E+04</rscale>
<asrwt>0</asrwt>
<pdfrwt beam="1">  1        2 0.19211376E+00 0.20187222E+04</pdfrwt>
<pdfrwt beam="2">  1       -1 0.12551856E+00 0.20187222E+04</pdfrwt>
<totfact> 0.10379163E+01</totfact>
</mgrwt>
</event>
<event>
12    7  0.1735955E-007  0.1500361E+04  0.7818608E-02  0.8884213E-01
         -1   -1    0    0    0  501 -0.00000000000E+00  0.00000000000E+00  0.65939764272E+03  0.65939764272E+03  0.00000000000E+00 0.  1.
          2   -1    0    0  501    0  0.00000000000E+00 -0.00000000000E+00 -0.85346174111E+03  0.85346174111E+03  0.00000000000E+00 0. -1.
         24    2    1    2    0    0  0.65791335539E+02 -0.41463228055E+02  0.41206981155E+03  0.42686785768E+03  0.79793102558E+02 0.  0.
        254    2    1    2    0    0 -0.65791335539E+02  0.41463228055E+02 -0.60613390994E+03  0.10859915261E+04  0.89773692080E+03 0.  0.
         23    2    4    4    0    0 -0.42036615329E+03 -0.18594842240E+03 -0.29733786199E+03  0.55519708448E+03  0.92463397156E+02 0.  0.
         23    2    4    4    0    0  0.35457481775E+03  0.22741165045E+03 -0.30879604795E+03  0.53079444167E+03  0.94595876936E+02 0.  0.
          2    1    3    3  502    0  0.80223497843E+02 -0.29448746891E+02  0.26097567766E+03  0.27461125729E+03  0.00000000000E+00 0. -1.
         -1    1    3    3    0  502 -0.14432162304E+02 -0.12014481164E+02  0.15109413389E+03  0.15225660039E+03  0.00000000000E+00 0.  1.
         13    1    5    5    0    0 -0.26126564321E+03 -0.89626364654E+02 -0.13109539381E+03  0.30574274128E+03  0.00000000000E+00 0. -1.
        -13    1    5    5    0    0 -0.15910051008E+03 -0.96322057742E+02 -0.16624246818E+03  0.24945434320E+03  0.00000000000E+00 0.  1.
          2    1    6    6  503    0  0.24716987572E+03  0.10476943035E+03 -0.20074023477E+03  0.33521071411E+03  0.00000000000E+00 0. -1.
         -2    1    6    6    0  503  0.10740494204E+03  0.12264222010E+03 -0.10805581318E+03  0.19558372756E+03  0.00000000000E+00 0.  1.
<mgrwt>
<rscale>  0 0.15003608E+04</rscale>
<asrwt>0</asrwt>
<pdfrwt beam="1">  1        2 0.13130181E+00 0.15003608E+04</pdfrwt>
<pdfrwt beam="2">  1       -1 0.10144579E+00 0.15003608E+04</pdfrwt>
<totfact> 0.32110457E+01</totfact>
</mgrwt>
</event>
<event>
12    7  0.1735955E-007  0.1381571E+04  0.7818608E-02  0.8967267E-01
         -1   -1    0    0    0  501 -0.00000000000E+00  0.00000000000E+00  0.83814349605E+03  0.83814349605E+03  0.00000000000E+00 0.  1.
          2   -1    0    0  501    0  0.00000000000E+00 -0.00000000000E+00 -0.56933562593E+03  0.56933562593E+03  0.00000000000E+00 0. -1.
         24    2    1    2    0    0 -0.12958074261E+03 -0.80916944018E+02 -0.29284150131E+03  0.34024197018E+03  0.81668431463E+02 0.  0.
        254    2    1    2    0    0  0.12958074261E+03  0.80916944018E+02  0.56164937143E+03  0.10672371518E+04  0.89454256526E+03 0.  0.
         23    2    4    4    0    0  0.23026914991E+03  0.35533107248E+03  0.76340167461E+01  0.43317222227E+03  0.91081520961E+02 0.  0.
         23    2    4    4    0    0 -0.10068840730E+03 -0.27441412846E+03  0.55401535468E+03  0.63406492953E+03  0.98305912209E+02 0.  0.
          4    1    3    3  502    0 -0.13087653941E+03 -0.85092515295E+02 -0.29613945885E+03  0.33476556545E+03  0.00000000000E+00 0. -1.
         -3    1    3    3    0  502  0.12957967981E+01  0.41755712768E+01  0.32979575363E+01  0.54764047277E+01  0.00000000000E+00 0.  1.
         13    1    5    5    0    0  0.22993575711E+03  0.36042509030E+03  0.52943660849E+01  0.42755669616E+03  0.00000000000E+00 0. -1.
        -13    1    5    5    0    0  0.33339280037E+00 -0.50940178181E+01  0.23396506611E+01  0.56155261113E+01  0.00000000000E+00 0.  1.
          2    1    6    6  503    0 -0.12079081983E+02  0.46963825357E+01  0.44955241303E+02  0.46786044405E+02  0.00000000000E+00 0.  1.
         -2    1    6    6    0  503 -0.88609325317E+02 -0.27911051100E+03  0.50906011338E+03  0.58727888513E+03  0.00000000000E+00 0. -1.
<mgrwt>
<rscale>  0 0.13815715E+04</rscale>
<asrwt>0</asrwt>
<pdfrwt beam="1">  1        2 0.87590097E-01 0.13815715E+04</pdfrwt>
<pdfrwt beam="2">  1       -1 0.12894515E+00 0.13815715E+04</pdfrwt>
<totfact> 0.30474679E+01</totfact>
</mgrwt>
</event>
<event>
12    7  0.1735955E-007  0.2673533E+04  0.7818608E-02  0.8343644E-01
         -1   -1    0    0    0  501 -0.00000000000E+00  0.00000000000E+00  0.43442131402E+03  0.43442131402E+03  0.00000000000E+00 0.  1.
          2   -1    0    0  501    0  0.00000000000E+00 -0.00000000000E+00 -0.41133895827E+04  0.41133895827E+04  0.00000000000E+00 0. -1.
         24    2    1    2    0    0  0.74468195352E+03 -0.21469882070E+03 -0.11006509554E+03  0.78679959464E+03  0.79325162238E+02 0.  0.
        254    2    1    2    0    0 -0.74468195352E+03  0.21469882070E+03 -0.35689031731E+04  0.37610113020E+04  0.89860411728E+03 0.  0.
         23    2    4    4    0    0 -0.55804072863E+03  0.15096574821E+03 -0.84240448488E+03  0.10258804379E+04  0.92656595418E+02 0.  0.
         23    2    4    4    0    0 -0.18664122489E+03  0.63733072485E+02 -0.27264986882E+04  0.27351308642E+04  0.90823433153E+02 0.  0.
          2    1    3    3  502    0  0.75930590777E+02 -0.47448533681E+02 -0.18039891726E+02  0.91335949427E+02  0.00000000000E+00 0. -1.
         -1    1    3    3    0  502  0.66875136274E+03 -0.16725028702E+03 -0.92025203809E+02  0.69546364521E+03  0.00000000000E+00 0.  1.
         13    1    5    5    0    0 -0.30165449482E+03  0.40842855166E+02 -0.48209197530E+03  0.57015458054E+03  0.00000000000E+00 0.  1.
        -13    1    5    5    0    0 -0.25638623381E+03  0.11012289305E+03 -0.36031250958E+03  0.45572585731E+03  0.00000000000E+00 0. -1.
          1    1    6    6  503    0 -0.81438620728E+02 -0.12845575366E+02 -0.13422753896E+04  0.13448049968E+04  0.00000000000E+00 0. -1.
         -1    1    6    6    0  503 -0.10520260416E+03  0.76578647851E+02 -0.13842232986E+04  0.13903258674E+04  0.00000000000E+00 0.  1.
<mgrwt>
<rscale>  0 0.26735326E+04</rscale>
<asrwt>0</asrwt>
<pdfrwt beam="1">  1        2 0.63282913E+00 0.26735326E+04</pdfrwt>
<pdfrwt beam="2">  1       -1 0.66834052E-01 0.26735326E+04</pdfrwt>
<totfact> 0.62644855E-01</totfact>
</mgrwt>
</event>
<event>
12    7  0.1735955E-007  0.1780029E+04  0.7818608E-02  0.8716992E-01
          2   -1    0    0  501    0  0.00000000000E+00  0.00000000000E+00  0.98304013503E+03  0.98304013503E+03  0.00000000000E+00 0. -1.
         -1   -1    0    0    0  501 -0.00000000000E+00 -0.00000000000E+00 -0.80579204317E+03  0.80579204317E+03  0.00000000000E+00 0.  1.
         24    2    1    2    0    0 -0.59938555358E+03  0.15709928007E+03 -0.61395379514E+02  0.62778920936E+03  0.80041696110E+02 0.  0.
        254    2    1    2    0    0  0.59938555358E+03 -0.15709928007E+03  0.23864347137E+03  0.11610429688E+04  0.95243206762E+03 0.  0.
         23    2    4    4    0    0 -0.36458003774E+02  0.11125803504E+03 -0.26383002986E+03  0.30234640426E+03  0.89997372827E+02 0.  0.
         23    2    4    4    0    0  0.63584355736E+03 -0.26835731511E+03  0.50247350123E+03  0.85869656458E+03  0.92560750724E+02 0.  0.
          4    1    3    3  502    0 -0.44232385070E+03  0.98326258787E+02 -0.13240567749E+02  0.45331418983E+03  0.00000000000E+00 0. -1.
         -3    1    3    3    0  502 -0.15706170289E+03  0.58773021287E+02 -0.48154811765E+02  0.17447501953E+03  0.00000000000E+00 0.  1.
         13    1    5    5    0    0  0.23925790280E+02  0.38760741187E+02 -0.44940916446E+02  0.63988471375E+02  0.00000000000E+00 0.  1.
        -13    1    5    5    0    0 -0.60383794054E+02  0.72497293851E+02 -0.21888911341E+03  0.23835793289E+03  0.00000000000E+00 0. -1.
          3    1    6    6  503    0  0.60148491091E+03 -0.27343860375E+03  0.48625717642E+03  0.82036504660E+03  0.00000000000E+00 0. -1.
         -3    1    6    6    0  503  0.34358646451E+02  0.50812886328E+01  0.16216324810E+02  0.38331517977E+02  0.00000000000E+00 0.  1.
<mgrwt>
<rscale>  0 0.17800291E+04</rscale>
<asrwt>0</asrwt>
<pdfrwt beam="1">  1        2 0.15123694E+00 0.17800291E+04</pdfrwt>
<pdfrwt beam="2">  1       -1 0.12396801E+00 0.17800291E+04</pdfrwt>
<totfact> 0.15923238E+01</totfact>
</mgrwt>
</event>
<event>
12    7  0.1735955E-007  0.1724677E+04  0.7818608E-02  0.8747414E-01
          2   -1    0    0  501    0  0.00000000000E+00  0.00000000000E+00  0.50548256743E+03  0.50548256743E+03  0.00000000000E+00 0. -1.
         -1   -1    0    0    0  501 -0.00000000000E+00 -0.00000000000E+00 -0.14711247985E+04  0.14711247985E+04  0.00000000000E+00 0.  1.
         24    2    1    2    0    0  0.35093044200E+03 -0.42367893867E+02 -0.93552579103E+03  0.10032899716E+04  0.80218749775E+02 0.  0.
        254    2    1    2    0    0 -0.35093044200E+03  0.42367893867E+02 -0.30116440017E+02  0.97331739433E+03  0.90636225462E+03 0.  0.
         23    2    4    4    0    0  0.20745026378E+03 -0.22999785043E+03 -0.10780362202E+03  0.34052299108E+03  0.91649677520E+02 0.  0.
         23    2    4    4    0    0 -0.55838070578E+03  0.27236574429E+03  0.77687182007E+02  0.63279440325E+03  0.91767898979E+02 0.  0.
          4    1    3    3  502    0  0.40684595492E+01  0.10808117319E+02 -0.30645008970E+02  0.32748806663E+02  0.00000000000E+00 0. -1.
         -3    1    3    3    0  502  0.34686198245E+03 -0.53176011186E+02 -0.90488078206E+03  0.97054116490E+03  0.00000000000E+00 0.  1.
         13    1    5    5    0    0  0.34365014483E+02 -0.73714475767E+02  0.49732321020E+01  0.81483195786E+02  0.00000000000E+00 0. -1.
        -13    1    5    5    0    0  0.17308524930E+03 -0.15628337466E+03 -0.11277685413E+03  0.25903979530E+03  0.00000000000E+00 0.  1.
          4    1    6    6  503    0 -0.16832772215E+02  0.11582942009E+02  0.20611918671E+02  0.29023403613E+02  0.00000000000E+00 0. -1.
         -4    1    6    6    0  503 -0.54154793357E+03  0.26078280228E+03  0.57075263336E+02  0.60377099964E+03  0.00000000000E+00 0.  1.
<mgrwt>
<rscale>  0 0.17246773E+04</rscale>
<asrwt>0</asrwt>
<pdfrwt beam="1">  1        2 0.77766550E-01 0.17246773E+04</pdfrwt>
<pdfrwt beam="2">  1       -1 0.22632689E+00 0.17246773E+04</pdfrwt>
<totfact> 0.65888112E+00</totfact>
</mgrwt>
</event>
<event>
12    7  0.1735955E-007  0.1213611E+04  0.7818608E-02  0.9101026E-01
         -1   -1    0    0    0  501 -0.00000000000E+00  0.00000000000E+00  0.63044057964E+03  0.63044057964E+03  0.00000000000E+00 0.  1.
          2   -1    0    0  501    0  0.00000000000E+00 -0.00000000000E+00 -0.58405650212E+03  0.58405650212E+03  0.00000000000E+00 0. -1.
         24    2    1    2    0    0 -0.13938605558E+02 -0.14230171143E+03  0.22629948004E+03  0.28128535600E+03  0.86405642350E+02 0.  0.
        254    2    1    2    0    0  0.13938605558E+02  0.14230171143E+03 -0.17991540252E+03  0.93321172577E+03  0.90447250442E+03 0.  0.
         23    2    4    4    0    0 -0.42890191019E+03  0.14086971223E+03 -0.12881973120E+03  0.47822563467E+03  0.91126890202E+02 0.  0.
         23    2    4    4    0    0  0.44284051575E+03  0.14319992003E+01 -0.51095671316E+02  0.45498609110E+03  0.91059334800E+02 0.  0.
          4    1    3    3  502    0 -0.82633888706E+01 -0.10377123269E+01 -0.53520432070E+01  0.98997378243E+01  0.00000000000E+00 0. -1.
         -3    1    3    3    0  502 -0.56752166871E+01 -0.14126399911E+03  0.23165152325E+03  0.27138561817E+03  0.00000000000E+00 0.  1.
         13    1    5    5    0    0 -0.16300248714E+03  0.41202567183E+02 -0.92647456550E+02  0.19196617817E+03  0.00000000000E+00 0. -1.
        -13    1    5    5    0    0 -0.26589942305E+03  0.99667145050E+02 -0.36172274649E+02  0.28625945649E+03  0.00000000000E+00 0.  1.
          1    1    6    6  503    0  0.39847194103E+03  0.28397701920E+02 -0.37035272724E+02  0.40119562397E+03  0.00000000000E+00 0. -1.
         -1    1    6    6    0  503  0.44368574716E+02 -0.26965702719E+02 -0.14060398592E+02  0.53790467130E+02  0.00000000000E+00 0.  1.
<mgrwt>
<rscale>  0 0.12136110E+04</rscale>
<asrwt>0</asrwt>
<pdfrwt beam="1">  1        2 0.89854846E-01 0.12136110E+04</pdfrwt>
<pdfrwt beam="2">  1       -1 0.96990859E-01 0.12136110E+04</pdfrwt>
<totfact> 0.59024215E+01</totfact>
</mgrwt>
</event>
<event>
12    7  0.1735955E-007  0.3230148E+04  0.7818608E-02  0.8180900E-01
          2   -1    0    0  501    0  0.00000000000E+00  0.00000000000E+00  0.20232355921E+04  0.20232355921E+04  0.00000000000E+00 0. -1.
         -1   -1    0    0    0  501 -0.00000000000E+00 -0.00000000000E+00 -0.12892534630E+04  0.12892534630E+04  0.00000000000E+00 0.  1.
         24    2    1    2    0    0  0.12375740721E+04  0.48208633127E+02  0.11860032936E+04  0.17166922231E+04  0.80713816561E+02 0.  0.
        254    2    1    2    0    0 -0.12375740721E+04 -0.48208633127E+02 -0.45202116453E+03  0.15957968320E+04  0.89907215486E+03 0.  0.
         23    2    4    4    0    0 -0.53343762968E+03  0.38261937503E+03 -0.28459526606E+02  0.66333561549E+03  0.90834482550E+02 0.  0.
         23    2    4    4    0    0 -0.70413644238E+03 -0.43082800815E+03 -0.42356163793E+03  0.93246121649E+03  0.93051367759E+02 0.  0.
          4    1    3    3  502    0  0.56735631895E+03  0.26245691714E+02  0.59940948122E+03  0.82575647449E+03  0.00000000000E+00 0. -1.
         -3    1    3    3    0  502  0.67021775311E+03  0.21962941413E+02  0.58659381238E+03  0.89093574858E+03  0.00000000000E+00 0.  1.
         13    1    5    5    0    0 -0.41879022699E+03  0.32375520781E+03  0.79979954415E+01  0.52940216919E+03  0.00000000000E+00 0. -1.
        -13    1    5    5    0    0 -0.11464740268E+03  0.58864167213E+02 -0.36457522047E+02  0.13393344630E+03  0.00000000000E+00 0.  1.
          3    1    6    6  503    0 -0.38354314989E+03 -0.18817641326E+03 -0.19092408559E+03  0.46793986451E+03  0.00000000000E+00 0. -1.
         -3    1    6    6    0  503 -0.32059329249E+03 -0.24265159489E+03 -0.23263755234E+03  0.46452135199E+03  0.00000000000E+00 0.  1.
<mgrwt>
<rscale>  0 0.32301477E+04</rscale>
<asrwt>0</asrwt>
<pdfrwt beam="1">  1        2 0.31126701E+00 0.32301477E+04</pdfrwt>
<pdfrwt beam="2">  1       -1 0.19834669E+00 0.32301477E+04</pdfrwt>
<totfact> 0.95737798E-01</totfact>
</mgrwt>
</event>
<event>
12    7  0.1735955E-007  0.1864259E+04  0.7818608E-02  0.8672854E-01
         -1   -1    0    0    0  501 -0.00000000000E+00  0.00000000000E+00  0.39423686418E+03  0.39423686418E+03  0.00000000000E+00 0.  1.
          2   -1    0    0  501    0  0.00000000000E+00 -0.00000000000E+00 -0.22039183071E+04  0.22039183071E+04  0.00000000000E+00 0. -1.
         24    2    1    2    0    0 -0.46138283883E+03 -0.17685663848E+03 -0.13544194225E+04  0.14445802932E+04  0.90597223340E+02 0.  0.
        254    2    1    2    0    0  0.46138283883E+03  0.17685663848E+03 -0.45526202041E+03  0.11535748781E+04  0.93772015952E+03 0.  0.
         23    2    4    4    0    0  0.52064619708E+03  0.49498242274E+03 -0.30802793838E+03  0.78665814569E+03  0.88711701616E+02 0.  0.
         23    2    4    4    0    0 -0.59263358243E+02 -0.31812578426E+03 -0.14723408203E+03  0.36691673239E+03  0.90740582743E+02 0.  0.
          2    1    3    3  502    0 -0.13139653720E+03 -0.17419482966E+02 -0.43733585589E+03  0.45698045825E+03  0.00000000000E+00 0. -1.
         -1    1    3    3    0  502 -0.32998630163E+03 -0.15943715551E+03 -0.91708356661E+03  0.98759983494E+03  0.00000000000E+00 0.  1.
         13    1    5    5    0    0  0.88944516013E+01  0.33006412085E+02 -0.10414496400E+02  0.35735084207E+02  0.00000000000E+00 0.  1.
        -13    1    5    5    0    0  0.51175174547E+03  0.46197601065E+03 -0.29761344198E+03  0.75092306148E+03  0.00000000000E+00 0. -1.
          4    1    6    6  503    0 -0.50769220367E+01 -0.23683952424E+03 -0.88240831872E+02  0.25279473845E+03  0.00000000000E+00 0. -1.
         -4    1    6    6    0  503 -0.54186436206E+02 -0.81286260023E+02 -0.58993250158E+02  0.11412199394E+03  0.00000000000E+00 0.  1.
<mgrwt>
<rscale>  0 0.18642595E+04</rscale>
<asrwt>0</asrwt>
<pdfrwt beam="1">  1        2 0.33906436E+00 0.18642595E+04</pdfrwt>
<pdfrwt beam="2">  1       -1 0.60651825E-01 0.18642595E+04</pdfrwt>
<totfact> 0.15149921E+01</totfact>
</mgrwt>
</event>
<event>
12    7  0.1735955E-007  0.1439135E+04  0.7818608E-02  0.8925968E-01
          2   -1    0    0  501    0  0.00000000000E+00  0.00000000000E+00  0.11115101803E+04  0.11115101803E+04  0.00000000000E+00 0. -1.
         -1   -1    0    0    0  501 -0.00000000000E+00 -0.00000000000E+00 -0.46583250683E+03  0.46583250683E+03  0.00000000000E+00 0.  1.
         24    2    1    2    0    0  0.20742113325E+02  0.13403515349E+03 -0.25484291374E+03  0.30115119587E+03  0.85740739727E+02 0.  0.
        254    2    1    2    0    0 -0.20742113325E+02 -0.13403515349E+03  0.90052058718E+03  0.12761914912E+04  0.89405354241E+03 0.  0.
         23    2    4    4    0    0 -0.36469407697E+03  0.17602117651E+03  0.54789966872E+03  0.68720092408E+03  0.89810014528E+02 0.  0.
         23    2    4    4    0    0  0.34395196365E+03 -0.31005633000E+03  0.35262091846E+03  0.58899056715E+03  0.90169257394E+02 0.  0.
          2    1    3    3  502    0 -0.23520575230E+02  0.60470482048E+02 -0.60606210247E+02  0.88786313015E+02  0.00000000000E+00 0. -1.
         -3    1    3    3    0  502  0.44262688555E+02  0.73564671444E+02 -0.19423670350E+03  0.21236488285E+03  0.00000000000E+00 0.  1.
         13    1    5    5    0    0 -0.32731911544E+03  0.18540460271E+03  0.49314529174E+03  0.62024587770E+03  0.00000000000E+00 0.  1.
        -13    1    5    5    0    0 -0.37374961536E+02 -0.93834261999E+01  0.54754376982E+02  0.66955046380E+02  0.00000000000E+00 0. -1.
          1    1    6    6  503    0  0.62706308799E+02 -0.36749807768E+02  0.95646978713E+02  0.12012898930E+03  0.00000000000E+00 0. -1.
         -1    1    6    6    0  503  0.28124565485E+03 -0.27330652224E+03  0.25697393975E+03  0.46886157784E+03  0.00000000000E+00 0.  1.
<mgrwt>
<rscale>  0 0.14391353E+04</rscale>
<asrwt>0</asrwt>
<pdfrwt beam="1">  1        2 0.17100157E+00 0.14391353E+04</pdfrwt>
<pdfrwt beam="2">  1       -1 0.71666540E-01 0.14391353E+04</pdfrwt>
<totfact> 0.46635352E+01</totfact>
</mgrwt>
</event>
<event>
12    7  0.1735955E-007  0.2035095E+04  0.7818608E-02  0.8590386E-01
         -1   -1    0    0    0  501 -0.00000000000E+00  0.00000000000E+00  0.19556365908E+04  0.19556365908E+04  0.00000000000E+00 0.  1.
          2   -1    0    0  501    0  0.00000000000E+00 -0.00000000000E+00 -0.52944523592E+03  0.52944523592E+03  0.00000000000E+00 0. -1.
         24    2    1    2    0    0  0.52877124355E+03  0.56785129635E+03  0.87748126136E+03  0.11741210962E+04  0.80826120046E+02 0.  0.
        254    2    1    2    0    0 -0.52877124355E+03 -0.56785129635E+03  0.54871009357E+03  0.13109607306E+04  0.90303994795E+03 0.  0.
         23    2    4    4    0    0 -0.48381717857E+02 -0.23577639008E+03  0.66111008822E+03  0.70921804039E+03  0.89400130418E+02 0.  0.
         23    2    4    4    0    0 -0.48038952569E+03 -0.33207490627E+03 -0.11239999466E+03  0.60174269020E+03  0.91720590066E+02 0.  0.
          2    1    3    3  502    0  0.44551988928E+02  0.23715473963E+02  0.41596245003E+02  0.65402989390E+02  0.00000000000E+00 0. -1.
         -1    1    3    3    0  502  0.48421925462E+03  0.54413582239E+03  0.83588501636E+03  0.11087181068E+04  0.00000000000E+00 0.  1.
         13    1    5    5    0    0 -0.12041784041E+02 -0.62290657464E+02  0.30386304731E+03  0.31041566019E+03  0.00000000000E+00 0. -1.
        -13    1    5    5    0    0 -0.36339933816E+02 -0.17348573261E+03  0.35724704092E+03  0.39880238020E+03  0.00000000000E+00 0.  1.
          1    1    6    6  503    0 -0.34161617873E+03 -0.26921274726E+03 -0.11303943676E+03  0.44939407108E+03  0.00000000000E+00 0. -1.
         -1    1    6    6    0  503 -0.13877334696E+03 -0.62862159008E+02  0.63944210054E+00  0.15234861912E+03  0.00000000000E+00 0.  1.
<mgrwt>
<rscale>  0 0.20350946E+04</rscale>
<asrwt>0</asrwt>
<pdfrwt beam="1">  1        2 0.81453114E-01 0.20350946E+04</pdfrwt>
<pdfrwt beam="2">  1       -1 0.30086716E+00 0.20350946E+04</pdfrwt>
<totfact> 0.19877962E+00</totfact>
</mgrwt>
</event>
<event>
12    7  0.1735955E-007  0.1606763E+04  0.7818608E-02  0.8816404E-01
         -1   -1    0    0    0  501 -0.00000000000E+00  0.00000000000E+00  0.25684294441E+03  0.25684294441E+03  0.00000000000E+00 0.  1.
          2   -1    0    0  501    0  0.00000000000E+00 -0.00000000000E+00 -0.25129048469E+04  0.25129048469E+04  0.00000000000E+00 0. -1.
         24    2    1    2    0    0  0.90937435994E+02  0.14056749950E+03  0.11974671922E+03  0.22172295116E+03  0.82419361357E+02 0.  0.
        254    2    1    2    0    0 -0.90937435994E+02 -0.14056749950E+03 -0.23758086218E+04  0.25480248402E+04  0.90550270010E+03 0.  0.
         23    2    4    4    0    0  0.23035513252E+03  0.75994621215E+02 -0.17697513977E+03  0.31339277829E+03  0.89756135442E+02 0.  0.
         23    2    4    4    0    0 -0.32129256852E+03 -0.21656212072E+03 -0.21988334820E+04  0.22346320619E+04  0.92648280824E+02 0.  0.
          2    1    3    3  502    0  0.64109399111E+02  0.52151232646E+02  0.18566219013E+02  0.84702246779E+02  0.00000000000E+00 0. -1.
         -1    1    3    3    0  502  0.26828036883E+02  0.88416266855E+02  0.10118050020E+03  0.13702070438E+03  0.00000000000E+00 0.  1.
         13    1    5    5    0    0  0.62830626432E+02 -0.28797721095E+01 -0.92785486173E+01  0.63577292878E+02  0.00000000000E+00 0. -1.
        -13    1    5    5    0    0  0.16752450609E+03  0.78874393325E+02 -0.16769659116E+03  0.24981548541E+03  0.00000000000E+00 0.  1.
          1    1    6    6  503    0 -0.31256544516E+03 -0.21886752123E+03 -0.21853072602E+04  0.22183705666E+04  0.00000000000E+00 0. -1.
         -1    1    6    6    0  503 -0.87271233564E+01  0.23054005122E+01 -0.13526221787E+02  0.16261495301E+02  0.00000000000E+00 0.  1.
<mgrwt>
<rscale>  0 0.16067631E+04</rscale>
<asrwt>0</asrwt>
<pdfrwt beam="1">  1        2 0.38660074E+00 0.16067631E+04</pdfrwt>
<pdfrwt beam="2">  1       -1 0.39514299E-01 0.16067631E+04</pdfrwt>
<totfact> 0.23312247E+01</totfact>
</mgrwt>
</event>
<event>
12    7  0.1735955E-007  0.1406263E+04  0.7818608E-02  0.8949298E-01
          2   -1    0    0  501    0  0.00000000000E+00  0.00000000000E+00  0.85999295634E+03  0.85999295634E+03  0.00000000000E+00 0. -1.
         -1   -1    0    0    0  501 -0.00000000000E+00 -0.00000000000E+00 -0.57488127179E+03  0.57488127179E+03  0.00000000000E+00 0.  1.
         24    2    1    2    0    0  0.18571491135E+03 -0.56788702627E+02  0.45549423035E+03  0.50160354551E+03  0.80100798645E+02 0.  0.
        254    2    1    2    0    0 -0.18571491135E+03  0.56788702627E+02 -0.17038254579E+03  0.93327068262E+03  0.89679929197E+03 0.  0.
         23    2    4    4    0    0 -0.27320413459E+03  0.32878048008E+03 -0.37089543394E+03  0.57315652080E+03  0.90597302207E+02 0.  0.
         23    2    4    4    0    0  0.87489223244E+02 -0.27199177745E+03  0.20051288815E+03  0.36011416182E+03  0.88560149292E+02 0.  0.
          4    1    3    3  502    0  0.10413595235E+03 -0.88239490386E+01  0.31765212250E+03  0.33440249637E+03  0.00000000000E+00 0. -1.
         -3    1    3    3    0  502  0.81578958997E+02 -0.47964753589E+02  0.13784210785E+03  0.16720104914E+03  0.00000000000E+00 0.  1.
         13    1    5    5    0    0 -0.14499678336E+03  0.24171391876E+03 -0.24591615475E+03  0.37406475492E+03  0.00000000000E+00 0.  1.
        -13    1    5    5    0    0 -0.12820735123E+03  0.87066561319E+02 -0.12497927919E+03  0.19909176587E+03  0.00000000000E+00 0. -1.
          1    1    6    6  503    0  0.49916357503E+02 -0.80401555953E+02  0.10942460622E+03  0.14467134268E+03  0.00000000000E+00 0. -1.
         -1    1    6    6    0  503  0.37572865741E+02 -0.19159022150E+03  0.91088281932E+02  0.21544281914E+03  0.00000000000E+00 0.  1.
<mgrwt>
<rscale>  0 0.14062629E+04</rscale>
<asrwt>0</asrwt>
<pdfrwt beam="1">  1        2 0.13230661E+00 0.14062629E+04</pdfrwt>
<pdfrwt beam="2">  1       -1 0.88443272E-01 0.14062629E+04</pdfrwt>
<totfact> 0.43556393E+01</totfact>
</mgrwt>
</event>
<event>
12    7  0.1735955E-007  0.1537174E+04  0.7818608E-02  0.8860102E-01
          2   -1    0    0  501    0  0.00000000000E+00  0.00000000000E+00  0.10522635452E+04  0.10522635452E+04  0.00000000000E+00 0. -1.
         -1   -1    0    0    0  501 -0.00000000000E+00 -0.00000000000E+00 -0.56138603941E+03  0.56138603941E+03  0.00000000000E+00 0.  1.
         24    2    1    2    0    0  0.99290743487E+02 -0.41146826432E+03 -0.10685574650E+03  0.44393018036E+03  0.80567178092E+02 0.  0.
        254    2    1    2    0    0 -0.99290743487E+02  0.41146826432E+03  0.59773325231E+03  0.11697194043E+04  0.91202722520E+03 0.  0.
         23    2    4    4    0    0 -0.13503308667E+03 -0.23359702603E+03  0.39119752530E+03  0.48506252611E+03  0.97204142747E+02 0.  0.
         23    2    4    4    0    0  0.35742343181E+02  0.64506529035E+03  0.20653572700E+03  0.68465687816E+03  0.93334293651E+02 0.  0.
          2    1    3    3  502    0 -0.85530286466E+01 -0.87399304816E+01  0.33759940915E+01  0.12686134950E+02  0.00000000000E+00 0. -1.
         -1    1    3    3    0  502  0.10784377213E+03 -0.40272833384E+03 -0.11023174060E+03  0.43124404541E+03  0.00000000000E+00 0.  1.
         13    1    5    5    0    0 -0.11315090707E+03 -0.18580395429E+03  0.23490026925E+03  0.32016304236E+03  0.00000000000E+00 0.  1.
        -13    1    5    5    0    0 -0.21882179603E+02 -0.47793071736E+02  0.15629725606E+03  0.16489948375E+03  0.00000000000E+00 0. -1.
          2    1    6    6  503    0  0.11426381711E+02  0.34491463975E+03  0.61986011918E+02  0.35062649156E+03  0.00000000000E+00 0. -1.
         -2    1    6    6    0  503  0.24315961471E+02  0.30015065060E+03  0.14454971508E+03  0.33403038660E+03  0.00000000000E+00 0.  1.
<mgrwt>
<rscale>  0 0.15371741E+04</rscale>
<asrwt>0</asrwt>
<pdfrwt beam="1">  1        2 0.16188670E+00 0.15371741E+04</pdfrwt>
<pdfrwt beam="2">  1       -1 0.86367084E-01 0.15371741E+04</pdfrwt>
<totfact> 0.33917359E+01</totfact>
</mgrwt>
</event>
<event>
12    7  0.1735955E-007  0.1182480E+04  0.7818608E-02  0.9128331E-01
         -1   -1    0    0    0  501 -0.00000000000E+00  0.00000000000E+00  0.58731532949E+03  0.58731532949E+03  0.00000000000E+00 0.  1.
          2   -1    0    0  501    0  0.00000000000E+00 -0.00000000000E+00 -0.59519128155E+03  0.59519128155E+03  0.00000000000E+00 0. -1.
         24    2    1    2    0    0  0.23161154481E+03 -0.51475562643E+02 -0.22938119047E+02  0.25223073003E+03  0.82465402581E+02 0.  0.
        254    2    1    2    0    0 -0.23161154481E+03  0.51475562643E+02  0.15062166989E+02  0.93027588102E+03  0.89938462556E+03 0.  0.
         23    2    4    4    0    0 -0.12859016424E+03 -0.41025106438E+03  0.73855389027E+02  0.44544344800E+03  0.90132572990E+02 0.  0.
         23    2    4    4    0    0 -0.10302138057E+03  0.46172662703E+03 -0.58793222037E+02  0.48483243301E+03  0.88323055787E+02 0.  0.
          2    1    3    3  502    0 -0.46364408461E+01  0.39296688485E+01 -0.66765446525E+01  0.90285729479E+01  0.00000000000E+00 0. -1.
         -1    1    3    3    0  502  0.23624798566E+03 -0.55405231491E+02 -0.16261574395E+02  0.24320215708E+03  0.00000000000E+00 0.  1.
         13    1    5    5    0    0 -0.12302598040E+03 -0.24969094034E+03  0.39327475349E+02  0.28111849433E+03  0.00000000000E+00 0. -1.
        -13    1    5    5    0    0 -0.55641838428E+01 -0.16056012405E+03  0.34527913677E+02  0.16432495367E+03  0.00000000000E+00 0.  1.
          2    1    6    6  503    0 -0.90720717778E+02  0.45334699077E+03 -0.68033116361E+02  0.46731386412E+03  0.00000000000E+00 0. -1.
         -2    1    6    6    0  503 -0.12300662796E+02  0.83796362533E+01  0.92398943232E+01  0.17518568893E+02  0.00000000000E+00 0.  1.
<mgrwt>
<rscale>  0 0.11824804E+04</rscale>
<asrwt>0</asrwt>
<pdfrwt beam="1">  1        2 0.91567889E-01 0.11824804E+04</pdfrwt>
<pdfrwt beam="2">  1       -1 0.90356205E-01 0.11824804E+04</pdfrwt>
<totfact> 0.67743865E+01</totfact>
</mgrwt>
</event>
<event>
12    7  0.1735955E-007  0.1488517E+04  0.7818608E-02  0.8892125E-01
          2   -1    0    0  501    0  0.00000000000E+00  0.00000000000E+00  0.34514123612E+04  0.34514123612E+04  0.00000000000E+00 0. -1.
         -1   -1    0    0    0  501 -0.00000000000E+00 -0.00000000000E+00 -0.16049108549E+03  0.16049108549E+03  0.00000000000E+00 0.  1.
         24    2    1    2    0    0  0.42114570918E+03  0.62661043599E+02  0.14891654167E+04  0.15507930452E+04  0.77815909102E+02 0.  0.
        254    2    1    2    0    0 -0.42114570918E+03 -0.62661043599E+02  0.18017558590E+04  0.20611104015E+04  0.90584866135E+03 0.  0.
         23    2    4    4    0    0 -0.38699153201E+03 -0.43570935478E+03  0.13073831640E+04  0.14341924014E+04  0.89733043361E+02 0.  0.
         23    2    4    4    0    0 -0.34154177172E+02  0.37304831118E+03  0.49437269500E+03  0.62691800016E+03  0.91050903726E+02 0.  0.
          2    1    3    3  502    0  0.34452771076E+03  0.42779885483E+02  0.13038743862E+04  0.13493027373E+04  0.00000000000E+00 0. -1.
         -1    1    3    3    0  502  0.76617998419E+02  0.19881158116E+02  0.18529103059E+03  0.20149030782E+03  0.00000000000E+00 0.  1.
         13    1    5    5    0    0 -0.98336564529E+02 -0.58347873435E+02  0.26774942396E+03  0.29114310620E+03  0.00000000000E+00 0. -1.
        -13    1    5    5    0    0 -0.28865496748E+03 -0.37736148134E+03  0.10396337400E+04  0.11430492952E+04  0.00000000000E+00 0.  1.
          1    1    6    6  503    0  0.24905636906E+02  0.39218733361E+02  0.62666407699E+02  0.78009476668E+02  0.00000000000E+00 0. -1.
         -1    1    6    6    0  503 -0.59059814078E+02  0.33382957782E+03  0.43170628730E+03  0.54890852349E+03  0.00000000000E+00 0.  1.
<mgrwt>
<rscale>  0 0.14885173E+04</rscale>
<asrwt>0</asrwt>
<pdfrwt beam="1">  1        2 0.53098646E+00 0.14885173E+04</pdfrwt>
<pdfrwt beam="2">  1       -1 0.24690939E-01 0.14885173E+04</pdfrwt>
<totfact> 0.14039986E+01</totfact>
</mgrwt>
</event>
<event>
12    7  0.1735955E-007  0.1522096E+04  0.7818608E-02  0.8869891E-01
          2   -1    0    0  501    0  0.00000000000E+00  0.00000000000E+00  0.13801901933E+04  0.13801901933E+04  0.00000000000E+00 0. -1.
         -1   -1    0    0    0  501 -0.00000000000E+00 -0.00000000000E+00 -0.41964818402E+03  0.41964818402E+03  0.00000000000E+00 0.  1.
         24    2    1    2    0    0 -0.39592876168E+03  0.10496471579E+03  0.62762224863E+03  0.75428856893E+03  0.85231346063E+02 0.  0.
        254    2    1    2    0    0  0.39592876168E+03 -0.10496471579E+03  0.33291976066E+03  0.10455498084E+04  0.90253069695E+03 0.  0.
         23    2    4    4    0    0 -0.89533389067E+02  0.30849061286E+03  0.19085632597E+03  0.38516834460E+03  0.93519145285E+02 0.  0.
         23    2    4    4    0    0  0.48546215075E+03 -0.41345532865E+03  0.14206343469E+03  0.66038146381E+03  0.96451281355E+02 0.  0.
          4    1    3    3  502    0 -0.19025715890E+03  0.54809043475E+02  0.38015657725E+03  0.42862669187E+03  0.00000000000E+00 0. -1.
         -3    1    3    3    0  502 -0.20567160278E+03  0.50155672310E+02  0.24746567138E+03  0.32566187706E+03  0.00000000000E+00 0.  1.
         13    1    5    5    0    0  0.14545571377E+02  0.98236215085E+02  0.45976341500E+02  0.10943377714E+03  0.00000000000E+00 0.  1.
        -13    1    5    5    0    0 -0.10407896044E+03  0.21025439778E+03  0.14487998447E+03  0.27573456746E+03  0.00000000000E+00 0. -1.
          4    1    6    6  503    0  0.38941147238E+03 -0.37617335356E+03  0.12839133455E+03  0.55644588375E+03  0.00000000000E+00 0. -1.
         -4    1    6    6    0  503  0.96050678370E+02 -0.37281975086E+02  0.13672100138E+02  0.10393558007E+03  0.00000000000E+00 0.  1.
<mgrwt>
<rscale>  0 0.15220963E+04</rscale>
<asrwt>0</asrwt>
<pdfrwt beam="1">  1        2 0.21233695E+00 0.15220963E+04</pdfrwt>
<pdfrwt beam="2">  1       -1 0.64561260E-01 0.15220963E+04</pdfrwt>
<totfact> 0.39728317E+01</totfact>
</mgrwt>
</event>
<event>
12    7  0.1735955E-007  0.2155986E+04  0.7818608E-02  0.8536974E-01
          2   -1    0    0  501    0  0.00000000000E+00  0.00000000000E+00  0.21685543847E+04  0.21685543847E+04  0.00000000000E+00 0. -1.
         -1   -1    0    0    0  501 -0.00000000000E+00 -0.00000000000E+00 -0.53587257363E+03  0.53587257363E+03  0.00000000000E+00 0.  1.
         24    2    1    2    0    0 -0.44100564943E+02 -0.59067663474E+03  0.15094482610E+04  0.16234924661E+04  0.80311819216E+02 0.  0.
        254    2    1    2    0    0  0.44100564943E+02  0.59067663474E+03  0.12323355014E+03  0.10809344923E+04  0.89576175516E+03 0.  0.
         23    2    4    4    0    0  0.19809002568E+03  0.10319563647E+03 -0.31765445536E+03  0.39918916811E+03  0.92512924893E+02 0.  0.
         23    2    4    4    0    0 -0.15398946074E+03  0.48748099827E+03  0.44088800550E+03  0.68174532414E+03  0.95099820708E+02 0.  0.
          2    1    3    3  502    0 -0.24534930867E+02 -0.50576369953E+03  0.13491164973E+04  0.14410115218E+04  0.00000000000E+00 0. -1.
         -1    1    3    3    0  502 -0.19565634076E+02 -0.84912935211E+02  0.16033176363E+03  0.18248094429E+03  0.00000000000E+00 0.  1.
         13    1    5    5    0    0  0.71285528338E+02 -0.17606200615E+01 -0.13926322280E+03  0.15645757111E+03  0.00000000000E+00 0.  1.
        -13    1    5    5    0    0  0.12680449734E+03  0.10495625653E+03 -0.17839123256E+03  0.24273159701E+03  0.00000000000E+00 0. -1.
          1    1    6    6  503    0 -0.83782380392E+02  0.32709030251E+03  0.34232013311E+03  0.48082286426E+03  0.00000000000E+00 0. -1.
         -1    1    6    6    0  503 -0.70207080343E+02  0.16039069576E+03  0.98567872388E+02  0.20092245988E+03  0.00000000000E+00 0.  1.
<mgrwt>
<rscale>  0 0.21559859E+04</rscale>
<asrwt>0</asrwt>
<pdfrwt beam="1">  1        2 0.33362375E+00 0.21559859E+04</pdfrwt>
<pdfrwt beam="2">  1       -1 0.82441935E-01 0.21559859E+04</pdfrwt>
<totfact> 0.82127196E+00</totfact>
</mgrwt>
</event>
<event>
12    7  0.1735955E-007  0.1197042E+04  0.7818608E-02  0.9115450E-01
         -1   -1    0    0    0  501 -0.00000000000E+00  0.00000000000E+00  0.93032594554E+03  0.93032594554E+03  0.00000000000E+00 0.  1.
          2   -1    0    0  501    0  0.00000000000E+00 -0.00000000000E+00 -0.38505553452E+03  0.38505553452E+03  0.00000000000E+00 0. -1.
         24    2    1    2    0    0 -0.11270318645E+03  0.13486866082E+03  0.31943064243E+03  0.37288124772E+03  0.78185201083E+02 0.  0.
        254    2    1    2    0    0  0.11270318645E+03 -0.13486866082E+03  0.22583976859E+03  0.94250023234E+03  0.89800418873E+03 0.  0.
         23    2    4    4    0    0 -0.29033742449E+03  0.17671375197E+03  0.23457779063E+03  0.42346917354E+03  0.93679404802E+02 0.  0.
         23    2    4    4    0    0  0.40304061094E+03 -0.31158241279E+03 -0.87380220420E+01  0.51903105880E+03  0.98952276087E+02 0.  0.
          4    1    3    3  502    0 -0.66666980273E+01 -0.47410378748E+01 -0.36018447713E+00  0.81885307336E+01  0.00000000000E+00 0. -1.
         -3    1    3    3    0  502 -0.10603648842E+03  0.13960969870E+03  0.31979082691E+03  0.36469271699E+03  0.00000000000E+00 0.  1.
         13    1    5    5    0    0 -0.12600366176E+03  0.28082798480E+02  0.10780452053E+03  0.16818852813E+03  0.00000000000E+00 0.  1.
        -13    1    5    5    0    0 -0.16433376273E+03  0.14863095349E+03  0.12677327011E+03  0.25528064541E+03  0.00000000000E+00 0. -1.
          4    1    6    6  503    0  0.33598952472E+03 -0.29851188938E+03 -0.19551868725E+02  0.44986729643E+03  0.00000000000E+00 0. -1.
         -4    1    6    6    0  503  0.67051086222E+02 -0.13070523408E+02  0.10813846683E+02  0.69163762375E+02  0.00000000000E+00 0.  1.
<mgrwt>
<rscale>  0 0.11970416E+04</rscale>
<asrwt>0</asrwt>
<pdfrwt beam="1">  1        2 0.59239313E-01 0.11970416E+04</pdfrwt>
<pdfrwt beam="2">  1       -1 0.14312707E+00 0.11970416E+04</pdfrwt>
<totfact> 0.37094101E+01</totfact>
</mgrwt>
</event>
<event>
12    7  0.1735955E-007  0.1687493E+04  0.7818608E-02  0.8768530E-01
         -1   -1    0    0    0  501 -0.00000000000E+00  0.00000000000E+00  0.65179504617E+03  0.65179504617E+03  0.00000000000E+00 0.  1.
          2   -1    0    0  501    0  0.00000000000E+00 -0.00000000000E+00 -0.10922271447E+04  0.10922271447E+04  0.00000000000E+00 0. -1.
         24    2    1    2    0    0 -0.26215621757E+03 -0.73650884902E+02 -0.72910426311E+03  0.78223075046E+03  0.78368266664E+02 0.  0.
        254    2    1    2    0    0  0.26215621757E+03  0.73650884902E+02  0.28867216462E+03  0.96179144037E+03  0.87610548502E+03 0.  0.
         23    2    4    4    0    0  0.75293189166E+01 -0.16907022834E+02 -0.29633767783E+03  0.31091163773E+03  0.92236051036E+02 0.  0.
         23    2    4    4    0    0  0.25462689865E+03  0.90557907736E+02  0.58500984245E+03  0.65087980264E+03  0.91500871860E+02 0.  0.
          2    1    3    3  502    0 -0.20914837664E+03 -0.42569761077E+02 -0.63436444647E+03  0.66930820924E+03  0.00000000000E+00 0. -1.
         -1    1    3    3    0  502 -0.53007840932E+02 -0.31081123826E+02 -0.94739816637E+02  0.11292254122E+03  0.00000000000E+00 0.  1.
         13    1    5    5    0    0 -0.11849064940E+02 -0.29880994709E+01 -0.28360398838E+03  0.28386713671E+03  0.00000000000E+00 0.  1.
        -13    1    5    5    0    0  0.19378383857E+02 -0.13918923363E+02 -0.12733689449E+02  0.27044501021E+02  0.00000000000E+00 0. -1.
          2    1    6    6  503    0  0.13615380650E+03  0.68833435868E+02  0.23005651033E+03  0.27604691424E+03  0.00000000000E+00 0. -1.
         -2    1    6    6    0  503  0.11847309216E+03  0.21724471869E+02  0.35495333212E+03  0.37483288840E+03  0.00000000000E+00 0.  1.
<mgrwt>
<rscale>  0 0.16874931E+04</rscale>
<asrwt>0</asrwt>
<pdfrwt beam="1">  1        2 0.16803495E+00 0.16874931E+04</pdfrwt>
<pdfrwt beam="2">  1       -1 0.10027616E+00 0.16874931E+04</pdfrwt>
<totfact> 0.22670266E+01</totfact>
</mgrwt>
</event>
<event>
12    7  0.1735955E-007  0.1452535E+04  0.7818608E-02  0.8916645E-01
         -1   -1    0    0    0  501 -0.00000000000E+00  0.00000000000E+00  0.61803695035E+03  0.61803695035E+03  0.00000000000E+00 0.  1.
          2   -1    0    0  501    0  0.00000000000E+00 -0.00000000000E+00 -0.85345172416E+03  0.85345172416E+03  0.00000000000E+00 0. -1.
         24    2    1    2    0    0  0.23662474426E+02 -0.36335039892E+03 -0.34818714645E+03  0.50835038237E+03  0.67840970009E+02 0.  0.
        254    2    1    2    0    0 -0.23662474426E+02  0.36335039892E+03  0.11277237264E+03  0.96313829213E+03  0.88449665723E+03 0.  0.
         23    2    4    4    0    0 -0.23945791907E+03  0.29270450105E+03  0.41769175124E+03  0.57084579250E+03  0.91555992833E+02 0.  0.
         23    2    4    4    0    0  0.21579544464E+03  0.70645897876E+02 -0.30491937860E+03  0.39229249964E+03  0.96742240053E+02 0.  0.
          4    1    3    3  502    0  0.90336931374E+00 -0.29033174449E+03 -0.30238387883E+03  0.41920084460E+03  0.00000000000E+00 0. -1.
         -3    1    3    3    0  502  0.22759105112E+02 -0.73018654430E+02 -0.45803267613E+02  0.89149537769E+02  0.00000000000E+00 0.  1.
         13    1    5    5    0    0  0.13604241588E+00 -0.60958496050E+01  0.69094615504E+01  0.92151260904E+01  0.00000000000E+00 0. -1.
        -13    1    5    5    0    0 -0.23959396148E+03  0.29880035065E+03  0.41078228969E+03  0.56163066641E+03  0.00000000000E+00 0.  1.
          4    1    6    6  503    0  0.56023445863E+02 -0.22590018956E+02 -0.57799505109E+02  0.83604534767E+02  0.00000000000E+00 0. -1.
         -4    1    6    6    0  503  0.15977199878E+03  0.93235916832E+02 -0.24711987349E+03  0.30868796487E+03  0.00000000000E+00 0.  1.
<mgrwt>
<rscale>  0 0.14525353E+04</rscale>
<asrwt>0</asrwt>
<pdfrwt beam="1">  1        2 0.13130027E+00 0.14525353E+04</pdfrwt>
<pdfrwt beam="2">  1       -1 0.95082608E-01 0.14525353E+04</pdfrwt>
<totfact> 0.37345795E+01</totfact>
</mgrwt>
</event>
<event>
12    7  0.1735955E-007  0.2287195E+04  0.7818608E-02  0.8482987E-01
          2   -1    0    0  501    0  0.00000000000E+00  0.00000000000E+00  0.14460390172E+04  0.14460390172E+04  0.00000000000E+00 0. -1.
         -1   -1    0    0    0  501 -0.00000000000E+00 -0.00000000000E+00 -0.90441184520E+03  0.90441184520E+03  0.00000000000E+00 0.  1.
         24    2    1    2    0    0  0.66871838550E+03 -0.83314890436E+02 -0.48494052084E+03  0.83401967459E+03  0.79346447823E+02 0.  0.
        254    2    1    2    0    0 -0.66871838550E+03  0.83314890436E+02  0.10265676929E+04  0.15164311878E+04  0.88971718503E+03 0.  0.
         23    2    4    4    0    0 -0.12596696206E+03  0.82966837723E+02 -0.14055370749E+03  0.22626466861E+03  0.93215792006E+02 0.  0.
         23    2    4    4    0    0 -0.54275142343E+03  0.34805271349E+00  0.11671214004E+04  0.12901665192E+04  0.88193284165E+02 0.  0.
          4    1    3    3  502    0  0.24258597318E+02  0.74220668205E+01 -0.33222696652E+02  0.41800887461E+02  0.00000000000E+00 0. -1.
         -3    1    3    3    0  502  0.64445978818E+03 -0.90736957257E+02 -0.45171782419E+03  0.79221878713E+03  0.00000000000E+00 0.  1.
         13    1    5    5    0    0 -0.53920632059E+02 -0.13853689993E+02 -0.33726149101E+02  0.65090801357E+02  0.00000000000E+00 0. -1.
        -13    1    5    5    0    0 -0.72046330003E+02  0.96820527716E+02 -0.10682755839E+03  0.16117386725E+03  0.00000000000E+00 0.  1.
          2    1    6    6  503    0 -0.41284117540E+03  0.32329746787E+02  0.83297523509E+03  0.93023157918E+03  0.00000000000E+00 0.  1.
         -2    1    6    6    0  503 -0.12991024804E+03 -0.31981694074E+02  0.33414616526E+03  0.35993494004E+03  0.00000000000E+00 0. -1.
<mgrwt>
<rscale>  0 0.22871946E+04</rscale>
<asrwt>0</asrwt>
<pdfrwt beam="1">  1        2 0.22246754E+00 0.22871946E+04</pdfrwt>
<pdfrwt beam="2">  1       -1 0.13914028E+00 0.22871946E+04</pdfrwt>
<totfact> 0.59993705E+00</totfact>
</mgrwt>
</event>
<event>
12    7  0.1735955E-007  0.1430317E+04  0.7818608E-02  0.8932161E-01
         -1   -1    0    0    0  501 -0.00000000000E+00  0.00000000000E+00  0.14732884432E+03  0.14732884432E+03  0.00000000000E+00 0.  1.
          2   -1    0    0  501    0  0.00000000000E+00 -0.00000000000E+00 -0.34714977564E+04  0.34714977564E+04  0.00000000000E+00 0. -1.
         24    2    1    2    0    0  0.15588930941E+03  0.39010749213E+03 -0.12320613035E+04  0.13041580027E+04  0.79797921517E+02 0.  0.
        254    2    1    2    0    0 -0.15588930941E+03 -0.39010749213E+03 -0.20921076086E+04  0.23146685980E+04  0.89682280326E+03 0.  0.
         23    2    4    4    0    0 -0.43585231936E+03 -0.40687085340E+03 -0.18043563407E+04  0.19024813004E+04  0.90676118384E+02 0.  0.
         23    2    4    4    0    0  0.27996300995E+03  0.16763361274E+02 -0.28775126781E+03  0.41218729754E+03  0.91854661870E+02 0.  0.
          2    1    3    3  502    0  0.11742299869E+03  0.35878453555E+03 -0.11080230122E+04  0.11705680241E+04  0.00000000000E+00 0. -1.
         -1    1    3    3    0  502  0.38466310721E+02  0.31322956575E+02 -0.12403829131E+03  0.13358997860E+03  0.00000000000E+00 0.  1.
         13    1    5    5    0    0 -0.21250545316E+02 -0.49487969428E+02 -0.20927589900E+03  0.21609499462E+03  0.00000000000E+00 0. -1.
        -13    1    5    5    0    0 -0.41460177405E+03 -0.35738288397E+03 -0.15950804417E+04  0.16863863058E+04  0.00000000000E+00 0.  1.
          4    1    6    6  503    0  0.42909999305E+02  0.23972807768E+02 -0.16432839590E+02  0.51826651152E+02  0.00000000000E+00 0. -1.
         -4    1    6    6    0  503  0.23705301065E+03 -0.72094464941E+01 -0.27131842822E+03  0.36036064639E+03  0.00000000000E+00 0.  1.
<mgrwt>
<rscale>  0 0.14303171E+04</rscale>
<asrwt>0</asrwt>
<pdfrwt beam="1">  1        2 0.53407654E+00 0.14303171E+04</pdfrwt>
<pdfrwt beam="2">  1       -1 0.22665978E-01 0.14303171E+04</pdfrwt>
<totfact> 0.15835350E+01</totfact>
</mgrwt>
</event>
<event>
12    7  0.1735955E-007  0.2769284E+04  0.7818608E-02  0.8312868E-01
          2   -1    0    0  501    0  0.00000000000E+00  0.00000000000E+00  0.28621623559E+04  0.28621623559E+04  0.00000000000E+00 0. -1.
         -1   -1    0    0    0  501 -0.00000000000E+00 -0.00000000000E+00 -0.66985501039E+03  0.66985501039E+03  0.00000000000E+00 0.  1.
         24    2    1    2    0    0 -0.65181013022E+03 -0.83842435147E+02  0.23195966323E+04  0.24121904607E+04  0.79046077516E+02 0.  0.
        254    2    1    2    0    0  0.65181013022E+03  0.83842435147E+02 -0.12728928680E+03  0.11198269056E+04  0.89773255268E+03 0.  0.
         23    2    4    4    0    0  0.53284482603E+03 -0.32662258374E+03 -0.22998637230E+03  0.67202946189E+03  0.90132931680E+02 0.  0.
         23    2    4    4    0    0  0.11896530419E+03  0.41046501889E+03  0.10269708550E+03  0.44779744369E+03  0.85683043068E+02 0.  0.
          4    1    3    3  502    0 -0.63564588285E+03 -0.92304484218E+02  0.22767794955E+04  0.23656480460E+04  0.00000000000E+00 0. -1.
         -3    1    3    3    0  502 -0.16164247367E+02  0.84620490708E+01  0.42817136769E+02  0.46542414726E+02  0.00000000000E+00 0.  1.
         13    1    5    5    0    0  0.45984778700E+03 -0.29608197083E+03 -0.22890712861E+03  0.59289374612E+03  0.00000000000E+00 0.  1.
        -13    1    5    5    0    0  0.72997039028E+02 -0.30540612910E+02 -0.10792436889E+01  0.79135715772E+02  0.00000000000E+00 0. -1.
          3    1    6    6  503    0  0.10950468709E+02  0.31542674620E+00  0.70021028314E+01  0.13001603864E+02  0.00000000000E+00 0. -1.
         -3    1    6    6    0  503  0.10801483548E+03  0.41014959214E+03  0.95694982673E+02  0.43479583982E+03  0.00000000000E+00 0.  1.
<mgrwt>
<rscale>  0 0.27692842E+04</rscale>
<asrwt>0</asrwt>
<pdfrwt beam="1">  1        2 0.44033266E+00 0.27692842E+04</pdfrwt>
<pdfrwt beam="2">  1       -1 0.10305462E+00 0.27692842E+04</pdfrwt>
<totfact> 0.18680423E+00</totfact>
</mgrwt>
</event>
<event>
12    7  0.1735955E-007  0.1985789E+04  0.7818608E-02  0.8613294E-01
          2   -1    0    0  501    0  0.00000000000E+00  0.00000000000E+00  0.11409955061E+04  0.11409955061E+04  0.00000000000E+00 0. -1.
         -1   -1    0    0    0  501 -0.00000000000E+00 -0.00000000000E+00 -0.86401700809E+03  0.86401700809E+03  0.00000000000E+00 0.  1.
         24    2    1    2    0    0  0.10775108931E+03 -0.46729717713E+03 -0.50565691766E+03  0.70089395977E+03  0.74742728516E+02 0.  0.
        254    2    1    2    0    0 -0.10775108931E+03  0.46729717713E+03  0.78263541567E+03  0.13041185544E+04  0.92640707095E+03 0.  0.
         23    2    4    4    0    0  0.11354459415E+03  0.56844211936E+03  0.85231797960E+03  0.10347747070E+04  0.91071060574E+02 0.  0.
         23    2    4    4    0    0 -0.22129568346E+03 -0.10114494223E+03 -0.69682563934E+02  0.26934384736E+03  0.92132347943E+02 0.  0.
          2    1    3    3  502    0  0.17283086002E+02 -0.68017589045E+02 -0.11675204089E+03  0.13622091078E+03  0.00000000000E+00 0. -1.
         -1    1    3    3    0  502  0.90468003307E+02 -0.39927958809E+03 -0.38890487677E+03  0.56467304899E+03  0.00000000000E+00 0.  1.
         13    1    5    5    0    0  0.12609271250E+03  0.51764525388E+03  0.79653837170E+03  0.95829502691E+03  0.00000000000E+00 0. -1.
        -13    1    5    5    0    0 -0.12548118348E+02  0.50796865481E+02  0.55779607904E+02  0.76479680143E+02  0.00000000000E+00 0.  1.
          3    1    6    6  503    0 -0.17925506255E+03 -0.79051789299E+02 -0.14368020838E+02  0.19643829277E+03  0.00000000000E+00 0. -1.
         -3    1    6    6    0  503 -0.42040620907E+02 -0.22093152934E+02 -0.55314543096E+02  0.72905554595E+02  0.00000000000E+00 0.  1.
<mgrwt>
<rscale>  0 0.19857890E+04</rscale>
<asrwt>0</asrwt>
<pdfrwt beam="1">  1        2 0.17553777E+00 0.19857890E+04</pdfrwt>
<pdfrwt beam="2">  1       -1 0.13292569E+00 0.19857890E+04</pdfrwt>
<totfact> 0.10452329E+01</totfact>
</mgrwt>
</event>
<event>
12    7  0.1735955E-007  0.2951370E+04  0.7818608E-02  0.8257755E-01
         -1   -1    0    0    0  501 -0.00000000000E+00  0.00000000000E+00  0.22855500340E+04  0.22855500340E+04  0.00000000000E+00 0.  1.
          2   -1    0    0  501    0  0.00000000000E+00 -0.00000000000E+00 -0.95278865026E+03  0.95278865026E+03  0.00000000000E+00 0. -1.
         24    2    1    2    0    0  0.26112499488E+03  0.26175461400E+03 -0.79699325268E+03  0.88191636603E+03  0.76658273822E+02 0.  0.
        254    2    1    2    0    0 -0.26112499488E+03 -0.26175461400E+03  0.21297546365E+04  0.23564223183E+04  0.93817353920E+03 0.  0.
         23    2    4    4    0    0 -0.44617476938E+03 -0.48429421307E+03  0.11228176004E+04  0.13046180858E+04  0.87727853947E+02 0.  0.
         23    2    4    4    0    0  0.18504977449E+03  0.22253959907E+03  0.10069370360E+04  0.10518042325E+04  0.92750507849E+02 0.  0.
          4    1    3    3  502    0  0.18172431186E+03  0.15617645680E+03 -0.58448955962E+03  0.63169839044E+03  0.00000000000E+00 0. -1.
         -3    1    3    3    0  502  0.79400683025E+02  0.10557815720E+03 -0.21250369306E+03  0.25021797558E+03  0.00000000000E+00 0.  1.
         13    1    5    5    0    0 -0.84341009461E+01 -0.17184785373E+02  0.12159332870E+02  0.22678189587E+02  0.00000000000E+00 0. -1.
        -13    1    5    5    0    0 -0.43774066843E+03 -0.46710942769E+03  0.11106582676E+04  0.12819398962E+04  0.00000000000E+00 0.  1.
          4    1    6    6  503    0  0.16489390685E+03  0.14218888965E+03  0.79425146887E+03  0.82355514488E+03  0.00000000000E+00 0. -1.
         -4    1    6    6    0  503  0.20155867646E+02  0.80350709421E+02  0.21268556715E+03  0.22824908758E+03  0.00000000000E+00 0.  1.
<mgrwt>
<rscale>  0 0.29513699E+04</rscale>
<asrwt>0</asrwt>
<pdfrwt beam="1">  1        2 0.14658287E+00 0.29513699E+04</pdfrwt>
<pdfrwt beam="2">  1       -1 0.35162308E+00 0.29513699E+04</pdfrwt>
<totfact> 0.40129903E-01</totfact>
</mgrwt>
</event>
<event>
12    7  0.1735955E-007  0.1487428E+04  0.7818608E-02  0.8892856E-01
          2   -1    0    0  501    0  0.00000000000E+00  0.00000000000E+00  0.10993850635E+04  0.10993850635E+04  0.00000000000E+00 0. -1.
         -1   -1    0    0    0  501 -0.00000000000E+00 -0.00000000000E+00 -0.50310899401E+03  0.50310899401E+03  0.00000000000E+00 0.  1.
         24    2    1    2    0    0  0.81362901670E+01  0.45860219696E+03  0.18133041128E+03  0.49960947400E+03  0.79666393086E+02 0.  0.
        254    2    1    2    0    0 -0.81362901670E+01 -0.45860219696E+03  0.41494565819E+03  0.11028845835E+04  0.91312229792E+03 0.  0.
         23    2    4    4    0    0 -0.36160681170E+03  0.42667214911E+02  0.28089204559E+03  0.46858939224E+03  0.89976106528E+02 0.  0.
         23    2    4    4    0    0  0.35347052153E+03 -0.50126941187E+03  0.13405361260E+03  0.63429519124E+03  0.90263977978E+02 0.  0.
          2    1    3    3  502    0  0.66430203270E+01  0.18721428547E+03  0.11642812752E+03  0.22056479157E+03  0.00000000000E+00 0. -1.
         -1    1    3    3    0  502  0.14932698400E+01  0.27138791149E+03  0.64902283757E+02  0.27904468243E+03  0.00000000000E+00 0.  1.
         13    1    5    5    0    0 -0.35403393811E+03  0.23916143796E+02  0.26624502875E+03  0.44361968690E+03  0.00000000000E+00 0.  1.
        -13    1    5    5    0    0 -0.75728735828E+01  0.18751071115E+02  0.14647016846E+02  0.24969705339E+02  0.00000000000E+00 0. -1.
          3    1    6    6  503    0  0.17061806928E+03 -0.31289560343E+03  0.58905987320E+02  0.36122582903E+03  0.00000000000E+00 0. -1.
         -3    1    6    6    0  503  0.18285245225E+03 -0.18837380843E+03  0.75147625279E+02  0.27306936222E+03  0.00000000000E+00 0.  1.
<mgrwt>
<rscale>  0 0.14874280E+04</rscale>
<asrwt>0</asrwt>
<pdfrwt beam="1">  1        2 0.16913616E+00 0.14874280E+04</pdfrwt>
<pdfrwt beam="2">  1       -1 0.77401384E-01 0.14874280E+04</pdfrwt>
<totfact> 0.40250196E+01</totfact>
</mgrwt>
</event>
<event>
12    7  0.1735955E-007  0.1885257E+04  0.7818608E-02  0.8662230E-01
          2   -1    0    0  501    0  0.00000000000E+00  0.00000000000E+00  0.36007921157E+04  0.36007921157E+04  0.00000000000E+00 0. -1.
         -1   -1    0    0    0  501 -0.00000000000E+00 -0.00000000000E+00 -0.24676469021E+03  0.24676469021E+03  0.00000000000E+00 0.  1.
         24    2    1    2    0    0  0.10702033694E+03 -0.51733892076E+03  0.28645418771E+03  0.60628297774E+03  0.80188128686E+02 0.  0.
        254    2    1    2    0    0 -0.10702033694E+03  0.51733892076E+03  0.30675732378E+04  0.32412738282E+04  0.90374639616E+03 0.  0.
         23    2    4    4    0    0 -0.37788964443E+03 -0.25024260884E+02  0.16816773956E+04  0.17258285666E+04  0.83776973856E+02 0.  0.
         23    2    4    4    0    0  0.27086930749E+03  0.54236318165E+03  0.13858958422E+04  0.15154452616E+04  0.91318415207E+02 0.  0.
          4    1    3    3  502    0  0.59655974176E+02 -0.24157783416E+03  0.90892896082E+02  0.26491546533E+03  0.00000000000E+00 0. -1.
         -3    1    3    3    0  502  0.47364362762E+02 -0.27576108660E+03  0.19556129163E+03  0.34136751241E+03  0.00000000000E+00 0.  1.
         13    1    5    5    0    0 -0.58167121747E+02  0.23291997309E+02  0.34095998613E+03  0.34666935736E+03  0.00000000000E+00 0. -1.
        -13    1    5    5    0    0 -0.31972252269E+03 -0.48316258193E+02  0.13407174095E+04  0.13791592092E+04  0.00000000000E+00 0.  1.
          2    1    6    6  503    0  0.55640143321E+02  0.17080450920E+03  0.49190049062E+03  0.52367556615E+03  0.00000000000E+00 0. -1.
         -2    1    6    6    0  503  0.21522916417E+03  0.37155867244E+03  0.89399535160E+03  0.99176969548E+03  0.00000000000E+00 0.  1.
<mgrwt>
<rscale>  0 0.18852569E+04</rscale>
<asrwt>0</asrwt>
<pdfrwt beam="1">  1        2 0.55396798E+00 0.18852569E+04</pdfrwt>
<pdfrwt beam="2">  1       -1 0.37963801E-01 0.18852569E+04</pdfrwt>
<totfact> 0.49707868E+00</totfact>
</mgrwt>
</event>
<event>
12    7  0.1735955E-007  0.1465553E+04  0.7818608E-02  0.8907688E-01
         -1   -1    0    0    0  501 -0.00000000000E+00  0.00000000000E+00  0.40975727052E+03  0.40975727052E+03  0.00000000000E+00 0.  1.
          2   -1    0    0  501    0  0.00000000000E+00 -0.00000000000E+00 -0.13104379798E+04  0.13104379798E+04  0.00000000000E+00 0. -1.
         24    2    1    2    0    0 -0.29966353176E+03  0.24250346415E+02 -0.68358072851E+03  0.75112076850E+03  0.80706164021E+02 0.  0.
        254    2    1    2    0    0  0.29966353176E+03 -0.24250346415E+02 -0.21709998080E+03  0.96907448185E+03  0.89531370935E+03 0.  0.
         23    2    4    4    0    0 -0.29699410223E+03  0.77672650754E+02 -0.18814054790E+01  0.32007276076E+03  0.90578667803E+02 0.  0.
         23    2    4    4    0    0  0.59665763399E+03 -0.10192299717E+03 -0.21521857532E+03  0.64900172109E+03  0.92171412379E+02 0.  0.
          4    1    3    3  502    0 -0.27634770730E+03  0.37038967178E+02 -0.65606709856E+03  0.71285621147E+03  0.00000000000E+00 0. -1.
         -3    1    3    3    0  502 -0.23315824469E+02 -0.12788620763E+02 -0.27513629947E+02  0.38264557028E+02  0.00000000000E+00 0.  1.
         13    1    5    5    0    0 -0.27277534209E+03  0.68909857650E+02 -0.28803023015E+02  0.28281543428E+03  0.00000000000E+00 0.  1.
        -13    1    5    5    0    0 -0.24218760141E+02  0.87627931044E+01  0.26921617536E+02  0.37257326481E+02  0.00000000000E+00 0. -1.
          2    1    6    6  503    0  0.29093226150E+03 -0.59458667544E+02 -0.15333720346E+03  0.33419935950E+03  0.00000000000E+00 0. -1.
         -2    1    6    6    0  503  0.30572537249E+03 -0.42464329626E+02 -0.61881371858E+02  0.31480236159E+03  0.00000000000E+00 0.  1.
<mgrwt>
<rscale>  0 0.14655531E+04</rscale>
<asrwt>0</asrwt>
<pdfrwt beam="1">  1        2 0.20160584E+00 0.14655531E+04</pdfrwt>
<pdfrwt beam="2">  1       -1 0.63039581E-01 0.14655531E+04</pdfrwt>
<totfact> 0.45939811E+01</totfact>
</mgrwt>
</event>
<event>
12    7  0.1735955E-007  0.1289476E+04  0.7818608E-02  0.9037953E-01
          2   -1    0    0  501    0  0.00000000000E+00  0.00000000000E+00  0.27623723579E+04  0.27623723579E+04  0.00000000000E+00 0. -1.
         -1   -1    0    0    0  501 -0.00000000000E+00 -0.00000000000E+00 -0.15048187723E+03  0.15048187723E+03  0.00000000000E+00 0.  1.
         24    2    1    2    0    0 -0.13764364086E+03 -0.19273953040E+03  0.12235785004E+04  0.12488870260E+04  0.80499433265E+02 0.  0.
        254    2    1    2    0    0  0.13764364086E+03  0.19273953040E+03  0.13883119802E+04  0.16639672091E+04  0.88616162177E+03 0.  0.
         23    2    4    4    0    0 -0.75197992993E+02 -0.32315561529E+03  0.43091130212E+03  0.55202432153E+03  0.94667900709E+02 0.  0.
         23    2    4    4    0    0  0.21284163385E+03  0.51589514569E+03  0.95740067813E+03  0.11119428875E+04  0.91386892955E+02 0.  0.
          2    1    3    3  502    0 -0.11727797416E+03 -0.99067023099E+02  0.79995126456E+03  0.81454921518E+03  0.00000000000E+00 0. -1.
         -1    1    3    3    0  502 -0.20365666701E+02 -0.93672507299E+02  0.42362723584E+03  0.43433781086E+03  0.00000000000E+00 0.  1.
         13    1    5    5    0    0 -0.24389220057E+01 -0.49720526616E+02  0.21204373911E+02  0.54108267210E+02  0.00000000000E+00 0. -1.
        -13    1    5    5    0    0 -0.72759070987E+02 -0.27343508867E+03  0.40970692821E+03  0.49791605432E+03  0.00000000000E+00 0.  1.
          3    1    6    6  503    0  0.14678991408E+03  0.27898802708E+03  0.60497825527E+03  0.68218786817E+03  0.00000000000E+00 0. -1.
         -3    1    6    6    0  503  0.66051719774E+02  0.23690711861E+03  0.35242242286E+03  0.42975501936E+03  0.00000000000E+00 0.  1.
<mgrwt>
<rscale>  0 0.12894758E+04</rscale>
<asrwt>0</asrwt>
<pdfrwt beam="1">  1        2 0.42498032E+00 0.12894758E+04</pdfrwt>
<pdfrwt beam="2">  1       -1 0.23151060E-01 0.12894758E+04</pdfrwt>
<totfact> 0.43838824E+01</totfact>
</mgrwt>
</event>
<event>
12    7  0.1735955E-007  0.1256209E+04  0.7818608E-02  0.9065032E-01
         -3   -1    0    0    0  501 -0.00000000000E+00  0.00000000000E+00  0.65882397755E+03  0.65882397755E+03  0.00000000000E+00 0.  1.
          4   -1    0    0  501    0  0.00000000000E+00 -0.00000000000E+00 -0.59881701009E+03  0.59881701009E+03  0.00000000000E+00 0. -1.
         24    2    1    2    0    0  0.67047661250E+01  0.25772545916E+03  0.20603212798E+03  0.33941646314E+03  0.79290172773E+02 0.  0.
        254    2    1    2    0    0 -0.67047661250E+01 -0.25772545916E+03 -0.14602516052E+03  0.91822452451E+03  0.86910618667E+03 0.  0.
         23    2    4    4    0    0  0.31886889109E+03 -0.27024863842E+03 -0.32310283441E+03  0.53625033788E+03  0.91963509106E+02 0.  0.
         23    2    4    4    0    0 -0.32557365721E+03  0.12523179255E+02  0.17707767389E+03  0.38197418662E+03  0.91611900804E+02 0.  0.
          4    1    3    3  502    0  0.21168036903E+02  0.29732137916E+02  0.86562392734E+01  0.37510215805E+02  0.00000000000E+00 0. -1.
         -3    1    3    3    0  502 -0.14463270778E+02  0.22799332125E+03  0.19737588871E+03  0.30190624733E+03  0.00000000000E+00 0.  1.
         13    1    5    5    0    0  0.13427286789E+03 -0.17402792670E+03 -0.16436638695E+03  0.27446535570E+03  0.00000000000E+00 0.  1.
        -13    1    5    5    0    0  0.18459602319E+03 -0.96220711724E+02 -0.15873644746E+03  0.26178498218E+03  0.00000000000E+00 0. -1.
          4    1    6    6  503    0 -0.28766792144E+03 -0.12806958935E+02  0.17363822066E+03  0.33625449127E+03  0.00000000000E+00 0. -1.
         -4    1    6    6    0  503 -0.37905735765E+02  0.25330138190E+02  0.34394532278E+01  0.45719695353E+02  0.00000000000E+00 0.  1.
<mgrwt>
<rscale>  0 0.12562086E+04</rscale>
<asrwt>0</asrwt>
<pdfrwt beam="1">  1        4 0.92125693E-01 0.12562086E+04</pdfrwt>
<pdfrwt beam="2">  1       -3 0.10135754E+00 0.12562086E+04</pdfrwt>
<totfact> 0.19071315E+00</totfact>
</mgrwt>
</event>
<event>
12    7  0.1735955E-007  0.2747142E+04  0.7818608E-02  0.8319869E-01
         -1   -1    0    0    0  501 -0.00000000000E+00  0.00000000000E+00  0.20810689701E+04  0.20810689701E+04  0.00000000000E+00 0.  1.
          2   -1    0    0  501    0  0.00000000000E+00 -0.00000000000E+00 -0.90659976632E+03  0.90659976632E+03  0.00000000000E+00 0. -1.
         24    2    1    2    0    0 -0.11516482372E+03  0.11029758697E+04  0.10845055685E+04  0.15527694551E+04  0.71567777856E+02 0.  0.
        254    2    1    2    0    0  0.11516482372E+03 -0.11029758697E+04  0.89963635261E+02  0.14348992813E+04  0.90610362878E+03 0.  0.
         23    2    4    4    0    0  0.23300138812E+01 -0.80150459113E+03  0.46608396749E+03  0.93161255984E+03  0.90844143088E+02 0.  0.
         23    2    4    4    0    0  0.11283480984E+03 -0.30147127857E+03 -0.37612033222E+03  0.50328672148E+03  0.90633291839E+02 0.  0.
          2    1    3    3  502    0 -0.56844771484E+02  0.25881616268E+03  0.24889411801E+03  0.36354561762E+03  0.00000000000E+00 0. -1.
         -1    1    3    3    0  502 -0.58320052235E+02  0.84415970702E+03  0.83561145053E+03  0.11892238375E+04  0.00000000000E+00 0.  1.
         13    1    5    5    0    0  0.19589397501E+02 -0.76236308805E+03  0.42900013902E+03  0.87499848103E+03  0.00000000000E+00 0.  1.
        -13    1    5    5    0    0 -0.17259383620E+02 -0.39141503081E+02  0.37083828463E+02  0.56614078813E+02  0.00000000000E+00 0. -1.
          4    1    6    6  503    0 -0.24224854328E+01 -0.83760352019E+02 -0.13288738622E+03  0.15710099434E+03  0.00000000000E+00 0. -1.
         -4    1    6    6    0  503  0.11525729527E+03 -0.21771092655E+03 -0.24323294601E+03  0.34618572714E+03  0.00000000000E+00 0.  1.
<mgrwt>
<rscale>  0 0.27471415E+04</rscale>
<asrwt>0</asrwt>
<pdfrwt beam="1">  1        2 0.13947689E+00 0.27471415E+04</pdfrwt>
<pdfrwt beam="2">  1       -1 0.32016446E+00 0.27471415E+04</pdfrwt>
<totfact> 0.70592126E-01</totfact>
</mgrwt>
</event>
<event>
12    7  0.1735955E-007  0.1505762E+04  0.7818608E-02  0.8880631E-01
          2   -1    0    0  501    0  0.00000000000E+00  0.00000000000E+00  0.20519300305E+04  0.20519300305E+04  0.00000000000E+00 0. -1.
         -1   -1    0    0    0  501 -0.00000000000E+00 -0.00000000000E+00 -0.27624212152E+03  0.27624212152E+03  0.00000000000E+00 0.  1.
         24    2    1    2    0    0  0.11580204703E+03  0.46412763803E+03  0.63124627019E+03  0.79597006837E+03  0.79195439473E+02 0.  0.
        254    2    1    2    0    0 -0.11580204703E+03 -0.46412763803E+03  0.11444416387E+04  0.15322020836E+04  0.89948428671E+03 0.  0.
         23    2    4    4    0    0  0.11398389141E+03 -0.34088370502E+03  0.11962454422E+04  0.12524082034E+04  0.91264023868E+02 0.  0.
         23    2    4    4    0    0 -0.22978593844E+03 -0.12324393301E+03 -0.51803803436E+02  0.27979388025E+03  0.87237244615E+02 0.  0.
          4    1    3    3  502    0  0.83737723795E+02  0.35891729970E+03  0.42754630807E+03  0.56447274510E+03  0.00000000000E+00 0. -1.
         -3    1    3    3    0  502  0.32064323230E+02  0.10521033833E+03  0.20369996212E+03  0.23149732327E+03  0.00000000000E+00 0.  1.
         13    1    5    5    0    0  0.70953729650E+02 -0.30039221397E+03  0.93755801911E+03  0.98705873846E+03  0.00000000000E+00 0. -1.
        -13    1    5    5    0    0  0.43030161761E+02 -0.40491491042E+02  0.25868742306E+03  0.26534946489E+03  0.00000000000E+00 0.  1.
          1    1    6    6  503    0 -0.19553580576E+03 -0.66494188167E+02 -0.24029461629E+02  0.20792581230E+03  0.00000000000E+00 0. -1.
         -1    1    6    6    0  503 -0.34250132679E+02 -0.56749744847E+02 -0.27774341807E+02  0.71868067954E+02  0.00000000000E+00 0.  1.
<mgrwt>
<rscale>  0 0.15057616E+04</rscale>
<asrwt>0</asrwt>
<pdfrwt beam="1">  1        2 0.31568153E+00 0.15057616E+04</pdfrwt>
<pdfrwt beam="2">  1       -1 0.42498789E-01 0.15057616E+04</pdfrwt>
<totfact> 0.37476089E+01</totfact>
</mgrwt>
</event>
<event>
12    7  0.1735955E-007  0.2311193E+04  0.7818608E-02  0.8473521E-01
          2   -1    0    0  501    0  0.00000000000E+00  0.00000000000E+00  0.29158598274E+04  0.29158598274E+04  0.00000000000E+00 0. -1.
         -1   -1    0    0    0  501 -0.00000000000E+00 -0.00000000000E+00 -0.45797909170E+03  0.45797909170E+03  0.00000000000E+00 0.  1.
         24    2    1    2    0    0 -0.26175803756E+03  0.91479651092E+03  0.13940309133E+04  0.16896773175E+04  0.79481591498E+02 0.  0.
        254    2    1    2    0    0  0.26175803756E+03 -0.91479651092E+03  0.10638498223E+04  0.16841616015E+04  0.89401002734E+03 0.  0.
         23    2    4    4    0    0  0.56994633329E+03 -0.47369000605E+03  0.73545346825E+03  0.10483782906E+04  0.94784975805E+02 0.  0.
         23    2    4    4    0    0 -0.30818829573E+03 -0.44110650487E+03  0.32839635406E+03  0.63578331089E+03  0.82591033264E+02 0.  0.
          4    1    3    3  502    0 -0.25436414823E+03  0.89331899206E+03  0.13341327238E+04  0.16256168264E+04  0.00000000000E+00 0. -1.
         -3    1    3    3    0  502 -0.73938893334E+01  0.21477518863E+02  0.59898189559E+02  0.64060491166E+02  0.00000000000E+00 0.  1.
         13    1    5    5    0    0  0.38366584819E+03 -0.26503664745E+03  0.48714419545E+03  0.67435404256E+03  0.00000000000E+00 0. -1.
        -13    1    5    5    0    0  0.18628048510E+03 -0.20865335860E+03  0.24830927280E+03  0.37402424807E+03  0.00000000000E+00 0.  1.
          1    1    6    6  503    0 -0.16258451891E+03 -0.27292254617E+03  0.23181588949E+03  0.39326714663E+03  0.00000000000E+00 0. -1.
         -1    1    6    6    0  503 -0.14560377682E+03 -0.16818395870E+03  0.96580464567E+02  0.24251616425E+03  0.00000000000E+00 0.  1.
<mgrwt>
<rscale>  0 0.23111926E+04</rscale>
<asrwt>0</asrwt>
<pdfrwt beam="1">  1        2 0.44859381E+00 0.23111926E+04</pdfrwt>
<pdfrwt beam="2">  1       -1 0.70458324E-01 0.23111926E+04</pdfrwt>
<totfact> 0.41229298E+00</totfact>
</mgrwt>
</event>
<event>
12    7  0.1735955E-007  0.2145648E+04  0.7818608E-02  0.8541397E-01
         -1   -1    0    0    0  501 -0.00000000000E+00  0.00000000000E+00  0.10389566519E+04  0.10389566519E+04  0.00000000000E+00 0.  1.
          2   -1    0    0  501    0  0.00000000000E+00 -0.00000000000E+00 -0.11077954859E+04  0.11077954859E+04  0.00000000000E+00 0. -1.
         24    2    1    2    0    0  0.70730389033E+02 -0.66274575240E+03  0.54911216817E+03  0.86727212098E+03  0.80012738618E+02 0.  0.
        254    2    1    2    0    0 -0.70730389033E+02  0.66274575240E+03 -0.61795100218E+03  0.12794800169E+04  0.90053925635E+03 0.  0.
         23    2    4    4    0    0  0.13142216106E+03  0.67704077578E+03 -0.82909272514E+02  0.70074659725E+03  0.92281361102E+02 0.  0.
         23    2    4    4    0    0 -0.20215255009E+03 -0.14295023383E+02 -0.53504172967E+03  0.57873341962E+03  0.87136199708E+02 0.  0.
          4    1    3    3  502    0 -0.10598078170E+02 -0.26250638772E+03  0.22410106931E+03  0.34531610463E+03  0.00000000000E+00 0. -1.
         -3    1    3    3    0  502  0.81328467202E+02 -0.40023936468E+03  0.32501109886E+03  0.52195601635E+03  0.00000000000E+00 0.  1.
         13    1    5    5    0    0  0.56546447608E+01  0.86041791092E-01 -0.54686588422E+01  0.78669333348E+01  0.00000000000E+00 0.  1.
        -13    1    5    5    0    0  0.12576751630E+03  0.67695473399E+03 -0.77440613672E+02  0.69287966392E+03  0.00000000000E+00 0. -1.
          4    1    6    6  503    0 -0.13832909614E+03  0.21993356612E+02 -0.41521448090E+03  0.43820282031E+03  0.00000000000E+00 0. -1.
         -4    1    6    6    0  503 -0.63823453957E+02 -0.36288379995E+02 -0.11982724876E+03  0.14053059931E+03  0.00000000000E+00 0.  1.
<mgrwt>
<rscale>  0 0.21456481E+04</rscale>
<asrwt>0</asrwt>
<pdfrwt beam="1">  1        2 0.17043007E+00 0.21456481E+04</pdfrwt>
<pdfrwt beam="2">  1       -1 0.15983949E+00 0.21456481E+04</pdfrwt>
<totfact> 0.66108170E+00</totfact>
</mgrwt>
</event>
<event>
12    7  0.1735955E-007  0.1423014E+04  0.7818608E-02  0.8937326E-01
         -1   -1    0    0    0  501 -0.00000000000E+00  0.00000000000E+00  0.32076718209E+03  0.32076718209E+03  0.00000000000E+00 0.  1.
          2   -1    0    0  501    0  0.00000000000E+00 -0.00000000000E+00 -0.15782228417E+04  0.15782228417E+04  0.00000000000E+00 0. -1.
         24    2    1    2    0    0  0.10020865407E+03  0.36227227067E+03 -0.61595138742E+03  0.72585556220E+03  0.78658839745E+02 0.  0.
        254    2    1    2    0    0 -0.10020865407E+03 -0.36227227067E+03 -0.64150427217E+03  0.11731344616E+04  0.90743251058E+03 0.  0.
         23    2    4    4    0    0 -0.11837594050E+03  0.28528095653E+03 -0.15115814488E+03  0.35611943216E+03  0.92596856049E+02 0.  0.
         23    2    4    4    0    0  0.18167286428E+02 -0.64755322720E+03 -0.49034612729E+03  0.81701502941E+03  0.86133625097E+02 0.  0.
          2    1    3    3  502    0 -0.27398288691E+01  0.67885554788E+02 -0.15588298940E+03  0.17004546920E+03  0.00000000000E+00 0. -1.
         -1    1    3    3    0  502  0.10294848294E+03  0.29438671588E+03 -0.46006839802E+03  0.55581009300E+03  0.00000000000E+00 0.  1.
         13    1    5    5    0    0 -0.10145528903E+03  0.22824010353E+03 -0.15902978763E+03  0.29610335001E+03  0.00000000000E+00 0.  1.
        -13    1    5    5    0    0 -0.16920651470E+02  0.57040853002E+02  0.78716427523E+01  0.60016082153E+02  0.00000000000E+00 0. -1.
          2    1    6    6  503    0  0.24861732429E+02 -0.52274136275E+03 -0.43414649644E+03  0.67997045409E+03  0.00000000000E+00 0. -1.
         -2    1    6    6    0  503 -0.66944460011E+01 -0.12481186445E+03 -0.56199630852E+02  0.13704457531E+03  0.00000000000E+00 0.  1.
<mgrwt>
<rscale>  0 0.14230138E+04</rscale>
<asrwt>0</asrwt>
<pdfrwt beam="1">  1        2 0.24280351E+00 0.14230138E+04</pdfrwt>
<pdfrwt beam="2">  1       -1 0.49348797E-01 0.14230138E+04</pdfrwt>
<totfact> 0.52253246E+01</totfact>
</mgrwt>
</event>
<event>
12    7  0.1735955E-007  0.1126593E+04  0.7818608E-02  0.9179653E-01
         -1   -1    0    0    0  501 -0.00000000000E+00  0.00000000000E+00  0.18645111266E+03  0.18645111266E+03  0.00000000000E+00 0.  1.
          2   -1    0    0  501    0  0.00000000000E+00 -0.00000000000E+00 -0.17018029781E+04  0.17018029781E+04  0.00000000000E+00 0. -1.
         24    2    1    2    0    0  0.10160331379E+03 -0.98631739163E+01 -0.55535129846E+03  0.57011150257E+03  0.78686371707E+02 0.  0.
        254    2    1    2    0    0 -0.10160331379E+03  0.98631739163E+01 -0.96000056700E+03  0.13181425882E+04  0.89748441694E+03 0.  0.
         23    2    4    4    0    0  0.18022954026E+03  0.31840274486E+03 -0.75556885002E+03  0.84432692090E+03  0.90225645609E+02 0.  0.
         23    2    4    4    0    0 -0.28183285405E+03 -0.30853957095E+03 -0.20443171699E+03  0.47381566731E+03  0.89902921080E+02 0.  0.
          2    1    3    3  502    0  0.90889619518E+02 -0.74381270225E+01 -0.55067154435E+03  0.55817147762E+03  0.00000000000E+00 0. -1.
         -1    1    3    3    0  502  0.10713694272E+02 -0.24250468938E+01 -0.46797541096E+01  0.11940024955E+02  0.00000000000E+00 0.  1.
         13    1    5    5    0    0  0.27818572584E+02  0.48324861801E+02 -0.20477767189E+03  0.21223350384E+03  0.00000000000E+00 0. -1.
        -13    1    5    5    0    0  0.15241096768E+03  0.27007788306E+03 -0.55079117813E+03  0.63209341706E+03  0.00000000000E+00 0.  1.
          2    1    6    6  503    0 -0.66194616335E+02 -0.11731442368E+03 -0.33790053775E+02  0.13887465200E+03  0.00000000000E+00 0. -1.
         -2    1    6    6    0  503 -0.21563823772E+03 -0.19122514726E+03 -0.17064166321E+03  0.33494101531E+03  0.00000000000E+00 0.  1.
<mgrwt>
<rscale>  0 0.11265932E+04</rscale>
<asrwt>0</asrwt>
<pdfrwt beam="1">  1        2 0.26181584E+00 0.11265932E+04</pdfrwt>
<pdfrwt beam="2">  1       -1 0.28684787E-01 0.11265932E+04</pdfrwt>
<totfact> 0.12196333E+02</totfact>
</mgrwt>
</event>
<event>
12    7  0.1735955E-007  0.1633040E+04  0.7818608E-02  0.8800503E-01
         -1   -1    0    0    0  501 -0.00000000000E+00  0.00000000000E+00  0.18135936857E+03  0.18135936857E+03  0.00000000000E+00 0.  1.
          2   -1    0    0  501    0  0.00000000000E+00 -0.00000000000E+00 -0.36761547997E+04  0.36761547997E+04  0.00000000000E+00 0. -1.
         24    2    1    2    0    0 -0.48887143553E+02  0.42622757771E+03 -0.20764991089E+04  0.21218881708E+04  0.80628527688E+02 0.  0.
        254    2    1    2    0    0  0.48887143553E+02 -0.42622757771E+03 -0.14182963223E+04  0.17356259975E+04  0.90375507994E+03 0.  0.
         23    2    4    4    0    0 -0.32694550364E+03 -0.60764017283E+02 -0.18160871587E+03  0.38893690373E+03  0.87775630218E+02 0.  0.
         23    2    4    4    0    0  0.37583264719E+03 -0.36546356043E+03 -0.12366876064E+04  0.13466890937E+04  0.96754775989E+02 0.  0.
          2    1    3    3  502    0 -0.52333769537E+02  0.24084098426E+03 -0.10289159578E+04  0.10580223303E+04  0.00000000000E+00 0. -1.
         -1    1    3    3    0  502  0.34466259833E+01  0.18538659345E+03 -0.10475831511E+04  0.10638658406E+04  0.00000000000E+00 0.  1.
         13    1    5    5    0    0 -0.17852632358E+03  0.99994468925E+01 -0.82187026390E+02  0.19679010254E+03  0.00000000000E+00 0.  1.
        -13    1    5    5    0    0 -0.14841918005E+03 -0.70763464176E+02 -0.99421689478E+02  0.19214680119E+03  0.00000000000E+00 0. -1.
          3    1    6    6  503    0  0.14235332564E+03 -0.97808624877E+02 -0.32072275013E+03  0.36427198475E+03  0.00000000000E+00 0. -1.
         -3    1    6    6    0  503  0.23347932155E+03 -0.26765493555E+03 -0.91596485627E+03  0.98241710899E+03  0.00000000000E+00 0.  1.
<mgrwt>
<rscale>  0 0.16330402E+04</rscale>
<asrwt>0</asrwt>
<pdfrwt beam="1">  1        2 0.56556221E+00 0.16330402E+04</pdfrwt>
<pdfrwt beam="2">  1       -1 0.27901444E-01 0.16330402E+04</pdfrwt>
<totfact> 0.77743063E+00</totfact>
</mgrwt>
</event>
<event>
12    7  0.1735955E-007  0.1952375E+04  0.7818608E-02  0.8629216E-01
          2   -1    0    0  501    0  0.00000000000E+00  0.00000000000E+00  0.29648259687E+04  0.29648259687E+04  0.00000000000E+00 0. -1.
         -1   -1    0    0    0  501 -0.00000000000E+00 -0.00000000000E+00 -0.32141599882E+03  0.32141599882E+03  0.00000000000E+00 0.  1.
         24    2    1    2    0    0 -0.64146376782E+03 -0.30394985288E+03  0.15215568049E+04  0.16810240211E+04  0.82736755287E+02 0.  0.
        254    2    1    2    0    0  0.64146376782E+03  0.30394985288E+03  0.11218531650E+04  0.16052179464E+04  0.90239063220E+03 0.  0.
         23    2    4    4    0    0  0.50748129121E+03  0.53622238237E+03  0.10906125670E+04  0.13202000253E+04  0.91763996559E+02 0.  0.
         23    2    4    4    0    0  0.13398247661E+03 -0.23227252949E+03  0.31240597954E+02  0.28501792111E+03  0.91418862373E+02 0.  0.
          4    1    3    3  502    0 -0.93484197353E+02 -0.58191387654E+02  0.30578811566E+03  0.32501062203E+03  0.00000000000E+00 0. -1.
         -3    1    3    3    0  502 -0.54797957047E+03 -0.24575846522E+03  0.12157686892E+04  0.13560133991E+04  0.00000000000E+00 0.  1.
         13    1    5    5    0    0  0.90964306952E+02  0.15216231782E+03  0.24938935614E+03  0.30597863824E+03  0.00000000000E+00 0.  1.
        -13    1    5    5    0    0  0.41651698426E+03  0.38406006454E+03  0.84122321090E+03  0.10142213870E+04  0.00000000000E+00 0. -1.
          2    1    6    6  503    0  0.12474467011E+03 -0.16386001496E+03  0.52973957805E+02  0.21264425087E+03  0.00000000000E+00 0. -1.
         -2    1    6    6    0  503  0.92378065064E+01 -0.68412514529E+02 -0.21733359851E+02  0.72373670237E+02  0.00000000000E+00 0.  1.
<mgrwt>
<rscale>  0 0.19523755E+04</rscale>
<asrwt>0</asrwt>
<pdfrwt beam="1">  1        2 0.45612705E+00 0.19523755E+04</pdfrwt>
<pdfrwt beam="2">  1       -1 0.49448617E-01 0.19523755E+04</pdfrwt>
<totfact> 0.79915090E+00</totfact>
</mgrwt>
</event>
<event>
12    7  0.1735955E-007  0.1756198E+04  0.7818608E-02  0.8729946E-01
          2   -1    0    0  501    0  0.00000000000E+00  0.00000000000E+00  0.88442003744E+03  0.88442003744E+03  0.00000000000E+00 0. -1.
         -1   -1    0    0    0  501 -0.00000000000E+00 -0.00000000000E+00 -0.87182279193E+03  0.87182279193E+03  0.00000000000E+00 0.  1.
         24    2    1    2    0    0  0.88690138753E+02 -0.60636156254E+03  0.19743106026E+03  0.64859047705E+03  0.78423836413E+02 0.  0.
        254    2    1    2    0    0 -0.88690138753E+02  0.60636156254E+03 -0.18483381475E+03  0.11076523523E+04  0.90398556917E+03 0.  0.
         23    2    4    4    0    0  0.38605556036E+03  0.25519800582E+03 -0.19724748243E+03  0.51135310076E+03  0.91708813489E+02 0.  0.
         23    2    4    4    0    0 -0.47474569912E+03  0.35116355672E+03  0.12413667675E+02  0.59629925155E+03  0.81971799188E+02 0.  0.
          2    1    3    3  502    0  0.84046630585E+02 -0.37268450970E+03  0.14792305916E+03  0.40968135339E+03  0.00000000000E+00 0. -1.
         -1    1    3    3    0  502  0.46435081678E+01 -0.23367705285E+03  0.49508001100E+02  0.23890912366E+03  0.00000000000E+00 0.  1.
         13    1    5    5    0    0  0.63655121846E+01 -0.35721312015E+01  0.54856109745E+01  0.91308156512E+01  0.00000000000E+00 0. -1.
        -13    1    5    5    0    0  0.37969004818E+03  0.25877013703E+03 -0.20273309340E+03  0.50222228511E+03  0.00000000000E+00 0.  1.
          3    1    6    6  503    0 -0.17507730488E+02 -0.39213616101E+00  0.86269174720E+01  0.19521734110E+02  0.00000000000E+00 0. -1.
         -3    1    6    6    0  503 -0.45723796863E+03  0.35155569288E+03  0.37867502028E+01  0.57677751744E+03  0.00000000000E+00 0.  1.
<mgrwt>
<rscale>  0 0.17561976E+04</rscale>
<asrwt>0</asrwt>
<pdfrwt beam="1">  1        2 0.13606462E+00 0.17561976E+04</pdfrwt>
<pdfrwt beam="2">  1       -1 0.13412658E+00 0.17561976E+04</pdfrwt>
<totfact> 0.15217348E+01</totfact>
</mgrwt>
</event>
<event>
12    7  0.1735955E-007  0.1549274E+04  0.7818608E-02  0.8852331E-01
          2   -1    0    0  501    0  0.00000000000E+00  0.00000000000E+00  0.46995756739E+04  0.46995756739E+04  0.00000000000E+00 0. -1.
         -1   -1    0    0    0  501 -0.00000000000E+00 -0.00000000000E+00 -0.12768447167E+03  0.12768447167E+03  0.00000000000E+00 0.  1.
         24    2    1    2    0    0  0.29572311295E+03  0.38163268696E+03  0.10354107894E+04  0.11461974878E+04  0.92722764201E+02 0.  0.
        254    2    1    2    0    0 -0.29572311295E+03 -0.38163268696E+03  0.35364804128E+04  0.36810626578E+04  0.90024047491E+03 0.  0.
         23    2    4    4    0    0  0.96089718244E+02  0.14820687314E+03  0.20706667853E+03  0.28593351286E+03  0.87651886594E+02 0.  0.
         23    2    4    4    0    0 -0.39181283119E+03 -0.52983956010E+03  0.33294137343E+04  0.33951291449E+04  0.87514811096E+02 0.  0.
          4    1    3    3  502    0  0.94762598845E+02  0.10984400262E+03  0.22024897429E+03  0.26373332313E+03  0.00000000000E+00 0. -1.
         -1    1    3    3    0  502  0.20096051410E+03  0.27178868434E+03  0.81516181508E+03  0.88246416468E+03  0.00000000000E+00 0.  1.
         13    1    5    5    0    0  0.67984073730E+02  0.14924181873E+03  0.19636854495E+03  0.25584284275E+03  0.00000000000E+00 0. -1.
        -13    1    5    5    0    0  0.28105644514E+02 -0.10349455886E+01  0.10698133572E+02  0.30090670113E+02  0.00000000000E+00 0.  1.
          1    1    6    6  503    0 -0.30889615480E+03 -0.35453423703E+03  0.22898685782E+04  0.23376504155E+04  0.00000000000E+00 0. -1.
         -1    1    6    6    0  503 -0.82916676390E+02 -0.17530532308E+03  0.10395451561E+04  0.10574787294E+04  0.00000000000E+00 0.  1.
<mgrwt>
<rscale>  0 0.15492745E+04</rscale>
<asrwt>0</asrwt>
<pdfrwt beam="1">  1        2 0.72301151E+00 0.15492745E+04</pdfrwt>
<pdfrwt beam="2">  1       -1 0.19643769E-01 0.15492745E+04</pdfrwt>
<totfact> 0.18447979E+00</totfact>
</mgrwt>
</event>
<event>
12    7  0.1735955E-007  0.5425635E+04  0.7818608E-02  0.7766005E-01
         -1   -1    0    0    0  501 -0.00000000000E+00  0.00000000000E+00  0.19381975683E+04  0.19381975683E+04  0.00000000000E+00 0.  1.
          2   -1    0    0  501    0  0.00000000000E+00 -0.00000000000E+00 -0.37970218833E+04  0.37970218833E+04  0.00000000000E+00 0. -1.
         24    2    1    2    0    0  0.23713299098E+04  0.81463624031E+03 -0.17724007171E+04  0.30716057784E+04  0.80746585329E+02 0.  0.
        254    2    1    2    0    0 -0.23713299098E+04 -0.81463624031E+03 -0.86423597909E+02  0.26636136732E+04  0.89472398902E+03 0.  0.
         23    2    4    4    0    0 -0.62141233236E+03 -0.64641295812E+03 -0.56498822440E+02  0.90300934754E+03  0.90723566721E+02 0.  0.
         23    2    4    4    0    0 -0.17499175774E+04 -0.16822328219E+03 -0.29924775469E+02  0.17606043256E+04  0.91222249493E+02 0.  0.
          2    1    3    3  502    0  0.13318205219E+04  0.48748993476E+03 -0.96759085667E+03  0.17168647020E+04  0.00000000000E+00 0. -1.
         -1    1    3    3    0  502  0.10395093879E+04  0.32714630555E+03 -0.80480986041E+03  0.13547410764E+04  0.00000000000E+00 0.  1.
         13    1    5    5    0    0 -0.41426489581E+03 -0.36848990553E+03 -0.43415182078E+02  0.55613405975E+03  0.00000000000E+00 0. -1.
        -13    1    5    5    0    0 -0.20714743656E+03 -0.27792305259E+03 -0.13083640362E+02  0.34687528779E+03  0.00000000000E+00 0.  1.
          4    1    6    6  503    0 -0.99265115789E+03 -0.49997991527E+02 -0.16019337337E+02  0.99403860065E+03  0.00000000000E+00 0. -1.
         -4    1    6    6    0  503 -0.75726641954E+03 -0.11822529067E+03 -0.13905438132E+02  0.76656572499E+03  0.00000000000E+00 0.  1.
<mgrwt>
<rscale>  0 0.54256349E+04</rscale>
<asrwt>0</asrwt>
<pdfrwt beam="1">  1        2 0.58415721E+00 0.54256349E+04</pdfrwt>
<pdfrwt beam="2">  1       -1 0.29818424E+00 0.54256349E+04</pdfrwt>
<totfact> 0.13345012E-02</totfact>
</mgrwt>
</event>
<event>
12    7  0.1735955E-007  0.2646339E+04  0.7818608E-02  0.8352629E-01
         -1   -1    0    0    0  501 -0.00000000000E+00  0.00000000000E+00  0.45634698811E+03  0.45634698811E+03  0.00000000000E+00 0.  1.
          2   -1    0    0  501    0  0.00000000000E+00 -0.00000000000E+00 -0.38365045950E+04  0.38365045950E+04  0.00000000000E+00 0. -1.
         24    2    1    2    0    0 -0.37043246653E+02 -0.85212788169E+03 -0.28020726215E+04  0.29301012088E+04  0.79924897513E+02 0.  0.
        254    2    1    2    0    0  0.37043246653E+02  0.85212788169E+03 -0.57808498543E+03  0.13627503743E+04  0.89185884719E+03 0.  0.
         23    2    4    4    0    0 -0.12369729783E+02  0.11434889522E+03  0.22372835823E+03  0.26823389280E+03  0.93093302222E+02 0.  0.
         23    2    4    4    0    0  0.49412976436E+02  0.73777898648E+03 -0.80181334366E+03  0.10945164815E+04  0.91116491323E+02 0.  0.
          4    1    3    3  502    0 -0.44044982396E+01 -0.62438697325E+03 -0.21374209303E+04  0.22267569973E+04  0.00000000000E+00 0. -1.
         -3    1    3    3    0  502 -0.32638748414E+02 -0.22774090845E+03 -0.66465169120E+03  0.70334421153E+03  0.00000000000E+00 0.  1.
         13    1    5    5    0    0 -0.20825850519E+02  0.11092904635E+03  0.23064921867E+03  0.25678401712E+03  0.00000000000E+00 0.  1.
        -13    1    5    5    0    0  0.84561207364E+01  0.34198488621E+01 -0.69208604321E+01  0.11449875688E+02  0.00000000000E+00 0. -1.
          3    1    6    6  503    0 -0.36116119297E+00  0.32946469712E+02 -0.69405076285E+02  0.76828802659E+02  0.00000000000E+00 0. -1.
         -3    1    6    6    0  503  0.49774137629E+02  0.70483251677E+03 -0.73240826738E+03  0.10176876788E+04  0.00000000000E+00 0.  1.
<mgrwt>
<rscale>  0 0.26463388E+04</rscale>
<asrwt>0</asrwt>
<pdfrwt beam="1">  1        2 0.59023148E+00 0.26463388E+04</pdfrwt>
<pdfrwt beam="2">  1       -1 0.70207228E-01 0.26463388E+04</pdfrwt>
<totfact> 0.94743853E-01</totfact>
</mgrwt>
</event>
<event>
12    7  0.1735955E-007  0.1780701E+04  0.7818608E-02  0.8716630E-01
          2   -1    0    0  501    0  0.00000000000E+00  0.00000000000E+00  0.14566785925E+04  0.14566785925E+04  0.00000000000E+00 0. -1.
         -1   -1    0    0    0  501 -0.00000000000E+00 -0.00000000000E+00 -0.54419968081E+03  0.54419968081E+03  0.00000000000E+00 0.  1.
         24    2    1    2    0    0 -0.39188078831E+03  0.47178991356E+03  0.63688471643E+03  0.88774317449E+03  0.79432531468E+02 0.  0.
        254    2    1    2    0    0  0.39188078831E+03 -0.47178991356E+03  0.27559419523E+03  0.11131350988E+04  0.88710839977E+03 0.  0.
         23    2    4    4    0    0  0.95353713029E+02 -0.38508448134E+03 -0.26361725384E+03  0.48508136010E+03  0.91801312822E+02 0.  0.
         23    2    4    4    0    0  0.29652707528E+03 -0.86705432213E+02  0.53921144907E+03  0.62805373869E+03  0.90864588927E+02 0.  0.
          2    1    3    3  502    0 -0.35843542453E+03  0.39369977143E+03  0.56641387318E+03  0.77736744163E+03  0.00000000000E+00 0. -1.
         -1    1    3    3    0  502 -0.33445363777E+02  0.78090142125E+02  0.70470843255E+02  0.11037573286E+03  0.00000000000E+00 0.  1.
         13    1    5    5    0    0  0.95606458989E+02 -0.20645838166E+03 -0.13030906264E+03  0.26219479432E+03  0.00000000000E+00 0. -1.
        -13    1    5    5    0    0 -0.25274595976E+00 -0.17862609968E+03 -0.13330819120E+03  0.22288656579E+03  0.00000000000E+00 0.  1.
          1    1    6    6  503    0  0.12767179325E+03 -0.80779352599E+02  0.28952247360E+03  0.32657105401E+03  0.00000000000E+00 0. -1.
         -1    1    6    6    0  503  0.16885528202E+03 -0.59260796141E+01  0.24968897547E+03  0.30148268468E+03  0.00000000000E+00 0.  1.
<mgrwt>
<rscale>  0 0.17807010E+04</rscale>
<asrwt>0</asrwt>
<pdfrwt beam="1">  1        2 0.22410440E+00 0.17807010E+04</pdfrwt>
<pdfrwt beam="2">  1       -1 0.83723028E-01 0.17807010E+04</pdfrwt>
<totfact> 0.20475789E+01</totfact>
</mgrwt>
</event>
<event>
12    7  0.1735955E-007  0.1731416E+04  0.7818608E-02  0.8743647E-01
          2   -1    0    0  501    0  0.00000000000E+00  0.00000000000E+00  0.24000248097E+04  0.24000248097E+04  0.00000000000E+00 0. -1.
         -1   -1    0    0    0  501 -0.00000000000E+00 -0.00000000000E+00 -0.31226774340E+03  0.31226774340E+03  0.00000000000E+00 0.  1.
         24    2    1    2    0    0 -0.65035020957E+02  0.62668917092E+03  0.81014263858E+03  0.10294170991E+04  0.79997488843E+02 0.  0.
        254    2    1    2    0    0  0.65035020957E+02 -0.62668917092E+03  0.12776144277E+04  0.16828754540E+04  0.89599235308E+03 0.  0.
         23    2    4    4    0    0  0.19912791920E+03 -0.76057648632E+03  0.12354688724E+04  0.14672560397E+04  0.91260241119E+02 0.  0.
         23    2    4    4    0    0 -0.13409289824E+03  0.13388731540E+03  0.42145555305E+02  0.21561941427E+03  0.93855023271E+02 0.  0.
          4    1    3    3  502    0 -0.77588819253E+02  0.52836190556E+03  0.65215440432E+03  0.84290669424E+03  0.00000000000E+00 0. -1.
         -3    1    3    3    0  502  0.12553798296E+02  0.98327265358E+02  0.15798823426E+03  0.18651040488E+03  0.00000000000E+00 0.  1.
         13    1    5    5    0    0  0.40334552159E+02 -0.81210016585E+02  0.10398446718E+03  0.13796634483E+03  0.00000000000E+00 0.  1.
        -13    1    5    5    0    0  0.15879336704E+03 -0.67936646974E+03  0.11314844052E+04  0.13292896949E+04  0.00000000000E+00 0. -1.
          3    1    6    6  503    0 -0.13631290563E+03  0.12161409799E+03  0.61363635601E+02  0.19270882918E+03  0.00000000000E+00 0. -1.
         -3    1    6    6    0  503  0.22200073949E+01  0.12273217416E+02 -0.19218080296E+02  0.22910585083E+02  0.00000000000E+00 0.  1.
<mgrwt>
<rscale>  0 0.17314160E+04</rscale>
<asrwt>0</asrwt>
<pdfrwt beam="1">  1        2 0.36923457E+00 0.17314160E+04</pdfrwt>
<pdfrwt beam="2">  1       -1 0.48041193E-01 0.17314160E+04</pdfrwt>
<totfact> 0.18627525E+01</totfact>
</mgrwt>
</event>
<event>
12    7  0.1735955E-007  0.1797335E+04  0.7818608E-02  0.8707718E-01
          2   -1    0    0  501    0  0.00000000000E+00  0.00000000000E+00  0.24334801595E+04  0.24334801595E+04  0.00000000000E+00 0. -1.
         -1   -1    0    0    0  501 -0.00000000000E+00 -0.00000000000E+00 -0.33187163274E+03  0.33187163274E+03  0.00000000000E+00 0.  1.
         24    2    1    2    0    0  0.61077811051E+03 -0.16101470190E+03  0.11272702964E+04  0.12946877259E+04  0.80637163296E+02 0.  0.
        254    2    1    2    0    0 -0.61077811051E+03  0.16101470190E+03  0.97433823043E+03  0.14706640663E+04  0.90251990240E+03 0.  0.
         23    2    4    4    0    0 -0.68823221426E+03 -0.11032921942E+03  0.93788219811E+03  0.11719126868E+04  0.88995564614E+02 0.  0.
         23    2    4    4    0    0  0.77454103747E+02  0.27134392132E+03  0.36456032321E+02  0.29875137955E+03  0.91086127742E+02 0.  0.
          2    1    3    3  502    0  0.38491106331E+03 -0.95017647566E+02  0.78344556414E+03  0.87805001678E+03  0.00000000000E+00 0. -1.
         -1    1    3    3    0  502  0.22586704721E+03 -0.65997054330E+02  0.34382473222E+03  0.41663770914E+03  0.00000000000E+00 0.  1.
         13    1    5    5    0    0 -0.62899311147E+03 -0.75343252161E+02  0.85719609327E+03  0.10658771422E+04  0.00000000000E+00 0. -1.
        -13    1    5    5    0    0 -0.59239102790E+02 -0.34985967258E+02  0.80686104845E+02  0.10603554460E+03  0.00000000000E+00 0.  1.
          1    1    6    6  503    0  0.20494436960E+02  0.10125217871E+03 -0.29820272258E+02  0.10752336619E+03  0.00000000000E+00 0. -1.
         -1    1    6    6    0  503  0.56959666788E+02  0.17009174260E+03  0.66276304580E+02  0.19122801335E+03  0.00000000000E+00 0.  1.
<mgrwt>
<rscale>  0 0.17973347E+04</rscale>
<asrwt>0</asrwt>
<pdfrwt beam="1">  1        2 0.37438155E+00 0.17973347E+04</pdfrwt>
<pdfrwt beam="2">  1       -1 0.51057176E-01 0.17973347E+04</pdfrwt>
<totfact> 0.15785051E+01</totfact>
</mgrwt>
</event>
<event>
12    7  0.1735955E-007  0.1646260E+04  0.7818608E-02  0.8792622E-01
         -1   -1    0    0    0  501 -0.00000000000E+00  0.00000000000E+00  0.32972511982E+03  0.32972511982E+03  0.00000000000E+00 0.  1.
          2   -1    0    0  501    0  0.00000000000E+00 -0.00000000000E+00 -0.20548733213E+04  0.20548733213E+04  0.00000000000E+00 0. -1.
         24    2    1    2    0    0 -0.14106509243E+03 -0.54871332736E+03 -0.48436879421E+03  0.74970523921E+03  0.80368781053E+02 0.  0.
        254    2    1    2    0    0  0.14106509243E+03  0.54871332736E+03 -0.12407794073E+04  0.16348932019E+04  0.90130825373E+03 0.  0.
         23    2    4    4    0    0  0.24034399088E+02  0.67376412900E+03 -0.12677257568E+04  0.14387284903E+04  0.90968788046E+02 0.  0.
         23    2    4    4    0    0  0.11703069334E+03 -0.12505080164E+03  0.26946349537E+02  0.19616471164E+03  0.91763839071E+02 0.  0.
          2    1    3    3  502    0 -0.35772267863E+02 -0.23036723462E+03 -0.24162058516E+03  0.33575173135E+03  0.00000000000E+00 0. -1.
         -1    1    3    3    0  502 -0.10529282457E+03 -0.31834609274E+03 -0.24274820905E+03  0.41395350786E+03  0.00000000000E+00 0.  1.
         13    1    5    5    0    0 -0.33356029765E+02  0.16714252954E+03 -0.31909843246E+03  0.36176381729E+03  0.00000000000E+00 0. -1.
        -13    1    5    5    0    0  0.57390428853E+02  0.50662159946E+03 -0.94862732437E+03  0.10769646730E+04  0.00000000000E+00 0.  1.
          4    1    6    6  503    0  0.12610437744E+03 -0.10617824420E+03  0.42307466174E+02  0.17019416925E+03  0.00000000000E+00 0. -1.
         -4    1    6    6    0  503 -0.90736840986E+01 -0.18872557442E+02 -0.15361116637E+02  0.25970542386E+02  0.00000000000E+00 0.  1.
<mgrwt>
<rscale>  0 0.16462604E+04</rscale>
<asrwt>0</asrwt>
<pdfrwt beam="1">  1        2 0.31613436E+00 0.16462604E+04</pdfrwt>
<pdfrwt beam="2">  1       -1 0.50726941E-01 0.16462604E+04</pdfrwt>
<totfact> 0.26469559E+01</totfact>
</mgrwt>
</event>
<event>
12    7  0.1735955E-007  0.2508892E+04  0.7818608E-02  0.8399825E-01
         -1   -1    0    0    0  501 -0.00000000000E+00  0.00000000000E+00  0.62527294065E+03  0.62527294065E+03  0.00000000000E+00 0.  1.
          2   -1    0    0  501    0  0.00000000000E+00 -0.00000000000E+00 -0.25167165544E+04  0.25167165544E+04  0.00000000000E+00 0. -1.
         24    2    1    2    0    0 -0.48589147777E+03  0.97783907439E+03 -0.87142880548E+03  0.13993395128E+04  0.80641958237E+02 0.  0.
        254    2    1    2    0    0  0.48589147777E+03 -0.97783907439E+03 -0.10200148083E+04  0.17426499823E+04  0.89673795950E+03 0.  0.
         23    2    4    4    0    0 -0.76804234316E+02 -0.75014367147E+03 -0.35888084176E+03  0.84001562597E+03  0.90644222312E+02 0.  0.
         23    2    4    4    0    0  0.56269571209E+03 -0.22769540293E+03 -0.66113396650E+03  0.90263435629E+03  0.95807090422E+02 0.  0.
          4    1    3    3  502    0 -0.29224069950E+02  0.10385092815E+03 -0.10337053259E+03  0.14941395032E+03  0.00000000000E+00 0. -1.
         -3    1    3    3    0  502 -0.45666740782E+03  0.87398814624E+03 -0.76805827289E+03  0.12499255625E+04  0.00000000000E+00 0.  1.
         13    1    5    5    0    0 -0.43210371416E+01 -0.17101599964E+03 -0.43087991490E+02  0.17641348732E+03  0.00000000000E+00 0.  1.
        -13    1    5    5    0    0 -0.72483197174E+02 -0.57912767182E+03 -0.31579285027E+03  0.66360213865E+03  0.00000000000E+00 0. -1.
          2    1    6    6  503    0  0.60340478632E+02 -0.46317827704E+02 -0.50122468660E+02  0.91096522378E+02  0.00000000000E+00 0. -1.
         -2    1    6    6    0  503  0.50235523346E+03 -0.18137757522E+03 -0.61101149784E+03  0.81153783391E+03  0.00000000000E+00 0.  1.
<mgrwt>
<rscale>  0 0.25088920E+04</rscale>
<asrwt>0</asrwt>
<pdfrwt beam="1">  1        2 0.38718717E+00 0.25088920E+04</pdfrwt>
<pdfrwt beam="2">  1       -1 0.96195836E-01 0.25088920E+04</pdfrwt>
<totfact> 0.35913751E+00</totfact>
</mgrwt>
</event>
<event>
12    7  0.1735955E-007  0.1553056E+04  0.7818608E-02  0.8849918E-01
         -1   -1    0    0    0  501 -0.00000000000E+00  0.00000000000E+00  0.24084373509E+04  0.24084373509E+04  0.00000000000E+00 0.  1.
          2   -1    0    0  501    0  0.00000000000E+00 -0.00000000000E+00 -0.25036794909E+03  0.25036794909E+03  0.00000000000E+00 0. -1.
         24    2    1    2    0    0 -0.90063341593E+02  0.38123302578E+03  0.12882038115E+04  0.13488388860E+04  0.80294801319E+02 0.  0.
        254    2    1    2    0    0  0.90063341593E+02 -0.38123302578E+03  0.86986559037E+03  0.13099664140E+04  0.89771701277E+03 0.  0.
         23    2    4    4    0    0  0.28977782145E+03 -0.43908102329E+03  0.93175886366E+03  0.10746232517E+04  0.99384215767E+02 0.  0.
         23    2    4    4    0    0 -0.19971447986E+03  0.57847997512E+02 -0.61893273288E+02  0.23534316225E+03  0.91232463831E+02 0.  0.
          4    1    3    3  502    0 -0.46521540279E+02  0.65576530490E+02  0.29588794238E+03  0.30661736661E+03  0.00000000000E+00 0. -1.
         -3    1    3    3    0  502 -0.43541801314E+02  0.31565649529E+03  0.99231586908E+03  0.10422215194E+04  0.00000000000E+00 0.  1.
         13    1    5    5    0    0  0.25232941826E+03 -0.40513920758E+03  0.88630024202E+03  0.10066459317E+04  0.00000000000E+00 0.  1.
        -13    1    5    5    0    0  0.37448403194E+02 -0.33941815718E+02  0.45458621639E+02  0.67977320021E+02  0.00000000000E+00 0. -1.
          2    1    6    6  503    0 -0.19161491706E+03  0.75930571486E+02 -0.49496236821E+02  0.21197076587E+03  0.00000000000E+00 0.  1.
         -2    1    6    6    0  503 -0.80995628024E+01 -0.18082573975E+02 -0.12397036467E+02  0.23372396375E+02  0.00000000000E+00 0. -1.
<mgrwt>
<rscale>  0 0.15530557E+04</rscale>
<asrwt>0</asrwt>
<pdfrwt beam="1">  1        2 0.38518148E-01 0.15530557E+04</pdfrwt>
<pdfrwt beam="2">  1       -1 0.37052881E+00 0.15530557E+04</pdfrwt>
<totfact> 0.16875487E+00</totfact>
</mgrwt>
</event>
<event>
12    7  0.1735955E-007  0.1805319E+04  0.7818608E-02  0.8703476E-01
         -1   -1    0    0    0  501 -0.00000000000E+00  0.00000000000E+00  0.27404033228E+03  0.27404033228E+03  0.00000000000E+00 0.  1.
          2   -1    0    0  501    0  0.00000000000E+00 -0.00000000000E+00 -0.29732647507E+04  0.29732647507E+04  0.00000000000E+00 0. -1.
         24    2    1    2    0    0  0.39166687124E+03 -0.91500807527E+02 -0.19548217025E+04  0.19973684998E+04  0.79860501150E+02 0.  0.
        254    2    1    2    0    0 -0.39166687124E+03  0.91500807527E+02 -0.74440271593E+03  0.12499365832E+04  0.92001669695E+03 0.  0.
         23    2    4    4    0    0 -0.10134157619E+03  0.61569145344E+02 -0.89617538259E+03  0.90842547677E+03  0.89697579462E+02 0.  0.
         23    2    4    4    0    0 -0.29032529505E+03  0.29931662183E+02  0.15177266666E+03  0.34151110641E+03  0.91707208595E+02 0.  0.
          2    1    3    3  502    0  0.39461745596E+03 -0.89176019523E+02 -0.19481267494E+04  0.19896917175E+04  0.00000000000E+00 0. -1.
         -1    1    3    3    0  502 -0.29505847191E+01 -0.23247880034E+01 -0.66949531434E+01  0.76767823363E+01  0.00000000000E+00 0.  1.
         13    1    5    5    0    0 -0.85252650938E+02  0.57596507699E+02 -0.43688194919E+03  0.44883316469E+03  0.00000000000E+00 0.  1.
        -13    1    5    5    0    0 -0.16088925255E+02  0.39726376450E+01 -0.45929343340E+03  0.45959231208E+03  0.00000000000E+00 0. -1.
          3    1    6    6  503    0 -0.16478625473E+03  0.54073646874E+02  0.57658184732E+02  0.18276469928E+03  0.00000000000E+00 0. -1.
         -3    1    6    6    0  503 -0.12553904031E+03 -0.24141984691E+02  0.94114481928E+02  0.15874640713E+03  0.00000000000E+00 0.  1.
<mgrwt>
<rscale>  0 0.18053193E+04</rscale>
<asrwt>0</asrwt>
<pdfrwt beam="1">  1        2 0.45742535E+00 0.18053193E+04</pdfrwt>
<pdfrwt beam="2">  1       -1 0.42160051E-01 0.18053193E+04</pdfrwt>
<totfact> 0.10787284E+01</totfact>
</mgrwt>
</event>
<event>
12    7  0.1735955E-007  0.2462038E+04  0.7818608E-02  0.8416636E-01
          2   -1    0    0  501    0  0.00000000000E+00  0.00000000000E+00  0.10742259041E+04  0.10742259041E+04  0.00000000000E+00 0. -1.
         -1   -1    0    0    0  501 -0.00000000000E+00 -0.00000000000E+00 -0.14106970319E+04  0.14106970319E+04  0.00000000000E+00 0.  1.
         24    2    1    2    0    0  0.51779530239E+03  0.15716266122E+03 -0.10721414958E+04  0.12045914034E+04  0.93493235110E+02 0.  0.
        254    2    1    2    0    0 -0.51779530239E+03 -0.15716266122E+03  0.73567036794E+03  0.12803315326E+04  0.89734378350E+03 0.  0.
         23    2    4    4    0    0 -0.41079992461E+03 -0.47830400612E+03  0.25734465046E+03  0.68722257962E+03  0.92289243590E+02 0.  0.
         23    2    4    4    0    0 -0.10699537778E+03  0.32114134490E+03  0.47832571748E+03  0.59310895296E+03  0.91667681354E+02 0.  0.
          4    1    3    3  502    0  0.10320420360E+02  0.17521499131E+02 -0.66482685450E+02  0.69523100283E+02  0.00000000000E+00 0. -1.
         -3    1    3    3    0  502  0.50747488203E+03  0.13964116209E+03 -0.10056588103E+04  0.11350683031E+04  0.00000000000E+00 0.  1.
         13    1    5    5    0    0 -0.20046842841E+03 -0.28604550332E+03  0.17451475548E+03  0.39046769474E+03  0.00000000000E+00 0. -1.
        -13    1    5    5    0    0 -0.21033149620E+03 -0.19225850280E+03  0.82829894988E+02  0.29675488488E+03  0.00000000000E+00 0.  1.
          1    1    6    6  503    0 -0.11892050626E+03  0.28797720294E+03  0.45261385806E+03  0.54948363100E+03  0.00000000000E+00 0. -1.
         -1    1    6    6    0  503  0.11925128486E+02  0.33164141959E+02  0.25711859413E+02  0.43625321956E+02  0.00000000000E+00 0.  1.
<mgrwt>
<rscale>  0 0.24620376E+04</rscale>
<asrwt>0</asrwt>
<pdfrwt beam="1">  1        2 0.16526552E+00 0.24620376E+04</pdfrwt>
<pdfrwt beam="2">  1       -1 0.21703031E+00 0.24620376E+04</pdfrwt>
<totfact> 0.26563096E+00</totfact>
</mgrwt>
</event>
<event>
12    7  0.1735955E-007  0.1645676E+04  0.7818608E-02  0.8792969E-01
          2   -1    0    0  501    0  0.00000000000E+00  0.00000000000E+00  0.25704234859E+04  0.25704234859E+04  0.00000000000E+00 0. -1.
         -1   -1    0    0    0  501 -0.00000000000E+00 -0.00000000000E+00 -0.26340500896E+03  0.26340500896E+03  0.00000000000E+00 0.  1.
         24    2    1    2    0    0 -0.10658531266E+03 -0.19615464520E+03  0.17173996430E+04  0.17337182914E+04  0.80501591765E+02 0.  0.
        254    2    1    2    0    0  0.10658531266E+03  0.19615464520E+03  0.58961883393E+03  0.11001102035E+04  0.90152926564E+03 0.  0.
         23    2    4    4    0    0 -0.38158826050E+03 -0.61042026268E+01  0.26287401503E+03  0.47240305359E+03  0.91733502162E+02 0.  0.
         23    2    4    4    0    0  0.48817357316E+03  0.20225884783E+03  0.32674481890E+03  0.62770714991E+03  0.89621483531E+02 0.  0.
          2    1    3    3  502    0 -0.10336625812E+03 -0.11498846228E+03  0.12140579072E+04  0.12238641803E+04  0.00000000000E+00 0. -1.
         -1    1    3    3    0  502 -0.32190545473E+01 -0.81166182915E+02  0.50334173579E+03  0.50985411105E+03  0.00000000000E+00 0.  1.
         13    1    5    5    0    0 -0.33976733907E+03 -0.29621623515E+02  0.24955985091E+03  0.42261022759E+03  0.00000000000E+00 0.  1.
        -13    1    5    5    0    0 -0.41820921433E+02  0.23517420888E+02  0.13314164122E+02  0.49792825999E+02  0.00000000000E+00 0. -1.
          3    1    6    6  503    0  0.20708840680E+03  0.55825607889E+02  0.92396933980E+02  0.23353650707E+03  0.00000000000E+00 0. -1.
         -3    1    6    6    0  503  0.28108516637E+03  0.14643323994E+03  0.23434788492E+03  0.39417064284E+03  0.00000000000E+00 0.  1.
<mgrwt>
<rscale>  0 0.16456761E+04</rscale>
<asrwt>0</asrwt>
<pdfrwt beam="1">  1        2 0.39544975E+00 0.16456761E+04</pdfrwt>
<pdfrwt beam="2">  1       -1 0.40523849E-01 0.16456761E+04</pdfrwt>
<totfact> 0.20543644E+01</totfact>
</mgrwt>
</event>
<event>
12    7  0.1735955E-007  0.2441445E+04  0.7818608E-02  0.8424148E-01
          2   -1    0    0  501    0  0.00000000000E+00  0.00000000000E+00  0.24968908852E+04  0.24968908852E+04  0.00000000000E+00 0. -1.
         -1   -1    0    0    0  501 -0.00000000000E+00 -0.00000000000E+00 -0.59680756263E+03  0.59680756263E+03  0.00000000000E+00 0.  1.
         24    2    1    2    0    0  0.52181616968E+03  0.90282395821E+03  0.63759718451E+03  0.12246391584E+04  0.76339270239E+02 0.  0.
        254    2    1    2    0    0 -0.52181616968E+03 -0.90282395821E+03  0.12624861380E+04  0.18690592894E+04  0.90118153779E+03 0.  0.
         23    2    4    4    0    0 -0.63362620032E+03 -0.72833088964E+03  0.13174088929E+04  0.16358273995E+04  0.91744446572E+02 0.  0.
         23    2    4    4    0    0  0.11181003064E+03 -0.17449306857E+03 -0.54922754855E+02  0.23323188985E+03  0.91822064405E+02 0.  0.
          2    1    3    3  502    0  0.31013718640E+03  0.54927978348E+03  0.42839387684E+03  0.76250552040E+03  0.00000000000E+00 0. -1.
         -1    1    3    3    0  502  0.21167898328E+03  0.35354417473E+03  0.20920330767E+03  0.46213363802E+03  0.00000000000E+00 0.  1.
         13    1    5    5    0    0 -0.51937127416E+03 -0.57234010085E+03  0.11066050211E+04  0.13497756792E+04  0.00000000000E+00 0.  1.
        -13    1    5    5    0    0 -0.11425492616E+03 -0.15599078879E+03  0.21080387176E+03  0.28605172031E+03  0.00000000000E+00 0. -1.
          4    1    6    6  503    0  0.10945610206E+03 -0.91637742223E+02 -0.45402470338E+02  0.14979819221E+03  0.00000000000E+00 0. -1.
         -4    1    6    6    0  503  0.23539285798E+01 -0.82855326348E+02 -0.95202845167E+01  0.83433697637E+02  0.00000000000E+00 0.  1.
<mgrwt>
<rscale>  0 0.24414450E+04</rscale>
<asrwt>0</asrwt>
<pdfrwt beam="1">  1        2 0.38413705E+00 0.24414450E+04</pdfrwt>
<pdfrwt beam="2">  1       -1 0.91816549E-01 0.24414450E+04</pdfrwt>
<totfact> 0.41172365E+00</totfact>
</mgrwt>
</event>
<event>
12    7  0.1735955E-007  0.2609675E+04  0.7818608E-02  0.8364922E-01
          2   -1    0    0  501    0  0.00000000000E+00  0.00000000000E+00  0.13784454581E+04  0.13784454581E+04  0.00000000000E+00 0. -1.
         -1   -1    0    0    0  501 -0.00000000000E+00 -0.00000000000E+00 -0.12351605839E+04  0.12351605839E+04  0.00000000000E+00 0.  1.
         24    2    1    2    0    0  0.54065153435E+03 -0.85549328973E+03 -0.47671073147E+03  0.11214603863E+04  0.79040662251E+02 0.  0.
        254    2    1    2    0    0 -0.54065153435E+03  0.85549328973E+03  0.61999560567E+03  0.14921456556E+04  0.90439551974E+03 0.  0.
         23    2    4    4    0    0 -0.23639324420E+03  0.97531815478E+03  0.37697277595E+03  0.10758820835E+04  0.91030296647E+02 0.  0.
         23    2    4    4    0    0 -0.30425829015E+03 -0.11982486505E+03  0.24302282972E+03  0.41626357208E+03  0.85347292068E+02 0.  0.
          4    1    3    3  502    0  0.12517798409E+03 -0.16836015691E+03 -0.68618939477E+02  0.22073338893E+03  0.00000000000E+00 0. -1.
         -3    1    3    3    0  502  0.41547355026E+03 -0.68713313282E+03 -0.40809179199E+03  0.90072699742E+03  0.00000000000E+00 0.  1.
         13    1    5    5    0    0 -0.20323043943E+03  0.80730746521E+03  0.34750522349E+03  0.90211298364E+03  0.00000000000E+00 0. -1.
        -13    1    5    5    0    0 -0.33162804768E+02  0.16801068956E+03  0.29467552464E+02  0.17376909989E+03  0.00000000000E+00 0.  1.
          2    1    6    6  503    0 -0.25666448576E+03 -0.77551182961E+02  0.16214789359E+03  0.31334132129E+03  0.00000000000E+00 0. -1.
         -2    1    6    6    0  503 -0.47593804386E+02 -0.42273682086E+02  0.80874936130E+02  0.10292225079E+03  0.00000000000E+00 0.  1.
<mgrwt>
<rscale>  0 0.26096755E+04</rscale>
<asrwt>0</asrwt>
<pdfrwt beam="1">  1        2 0.21206853E+00 0.26096755E+04</pdfrwt>
<pdfrwt beam="2">  1       -1 0.19002471E+00 0.26096755E+04</pdfrwt>
<totfact> 0.26479772E+00</totfact>
</mgrwt>
</event>
<event>
12    7  0.1735955E-007  0.1535946E+04  0.7818608E-02  0.8860895E-01
         -1   -1    0    0    0  501 -0.00000000000E+00  0.00000000000E+00  0.12249617162E+04  0.12249617162E+04  0.00000000000E+00 0.  1.
          2   -1    0    0  501    0  0.00000000000E+00 -0.00000000000E+00 -0.48147029095E+03  0.48147029095E+03  0.00000000000E+00 0. -1.
         24    2    1    2    0    0 -0.41097523218E+03  0.29216936321E+03  0.32299142098E+03  0.60232770891E+03  0.64897092667E+02 0.  0.
        254    2    1    2    0    0  0.41097523218E+03 -0.29216936321E+03  0.42050000427E+03  0.11041042982E+04  0.88767250127E+03 0.  0.
         23    2    4    4    0    0  0.47863790262E+03 -0.50508716232E+03  0.48561636745E+03  0.85330385590E+03  0.89982947312E+02 0.  0.
         23    2    4    4    0    0 -0.67662670432E+02  0.21291779911E+03 -0.65116363175E+02  0.25080044233E+03  0.93533389615E+02 0.  0.
          2    1    3    3  502    0 -0.28171262394E+03  0.18203022902E+03  0.18198216302E+03  0.38159469915E+03  0.00000000000E+00 0. -1.
         -1    1    3    3    0  502 -0.12926260825E+03  0.11013913419E+03  0.14100925795E+03  0.22073300976E+03  0.00000000000E+00 0.  1.
         13    1    5    5    0    0  0.36941200818E+03 -0.41122842814E+03  0.34261665758E+03  0.65035392361E+03  0.00000000000E+00 0.  1.
        -13    1    5    5    0    0  0.10922589443E+03 -0.93858734172E+02  0.14299970987E+03  0.20294993229E+03  0.00000000000E+00 0. -1.
          1    1    6    6  503    0  0.83696513798E+01 -0.34697959126E+01 -0.12580910021E+02  0.15503865481E+02  0.00000000000E+00 0. -1.
         -1    1    6    6    0  503 -0.76032321812E+02  0.21638759502E+03 -0.52535453154E+02  0.23529657685E+03  0.00000000000E+00 0.  1.
<mgrwt>
<rscale>  0 0.15359462E+04</rscale>
<asrwt>0</asrwt>
<pdfrwt beam="1">  1        2 0.74072353E-01 0.15359462E+04</pdfrwt>
<pdfrwt beam="2">  1       -1 0.18845565E+00 0.15359462E+04</pdfrwt>
<totfact> 0.12840528E+01</totfact>
</mgrwt>
</event>
<event>
12    7  0.1735955E-007  0.1519810E+04  0.7818608E-02  0.8871386E-01
          2   -1    0    0  501    0  0.00000000000E+00  0.00000000000E+00  0.28800562795E+04  0.28800562795E+04  0.00000000000E+00 0. -1.
         -1   -1    0    0    0  501 -0.00000000000E+00 -0.00000000000E+00 -0.20050140883E+03  0.20050140883E+03  0.00000000000E+00 0.  1.
         24    2    1    2    0    0  0.41936323793E+03 -0.10986003732E+03  0.13390212104E+04  0.14096851660E+04  0.79370725262E+02 0.  0.
        254    2    1    2    0    0 -0.41936323793E+03  0.10986003732E+03  0.13405336602E+04  0.16708725224E+04  0.89824814982E+03 0.  0.
         23    2    4    4    0    0 -0.32917810931E+03  0.48928823774E+03  0.83307197846E+03  0.10247266019E+04  0.91074035910E+02 0.  0.
         23    2    4    4    0    0 -0.90185128617E+02 -0.37942820043E+03  0.50746168177E+03  0.64614592050E+03  0.88814837813E+02 0.  0.
          4    1    3    3  502    0  0.28069019381E+03 -0.75520448765E+02  0.10098185785E+04  0.10508205767E+04  0.00000000000E+00 0. -1.
         -3    1    3    3    0  502  0.13867304411E+03 -0.34339588554E+02  0.32920263196E+03  0.35886458922E+03  0.00000000000E+00 0.  1.
         13    1    5    5    0    0 -0.10323095895E+03  0.22285900221E+03  0.38305981023E+03  0.45503580515E+03  0.00000000000E+00 0. -1.
        -13    1    5    5    0    0 -0.22594715036E+03  0.26642923553E+03  0.45001216823E+03  0.56969079671E+03  0.00000000000E+00 0.  1.
          4    1    6    6  503    0 -0.33855174721E+01  0.48560779300E+01  0.58907167465E+01  0.83512732684E+01  0.00000000000E+00 0. -1.
         -4    1    6    6    0  503 -0.86799611145E+02 -0.38428427836E+03  0.50157096502E+03  0.63779464723E+03  0.00000000000E+00 0.  1.
<mgrwt>
<rscale>  0 0.15198096E+04</rscale>
<asrwt>0</asrwt>
<pdfrwt beam="1">  1        2 0.44308555E+00 0.15198096E+04</pdfrwt>
<pdfrwt beam="2">  1       -1 0.30846373E-01 0.15198096E+04</pdfrwt>
<totfact> 0.22187147E+01</totfact>
</mgrwt>
</event>
<event>
12    7  0.1735955E-007  0.2892939E+04  0.7818608E-02  0.8274981E-01
         -1   -1    0    0    0  501 -0.00000000000E+00  0.00000000000E+00  0.13885944862E+04  0.13885944862E+04  0.00000000000E+00 0.  1.
          2   -1    0    0  501    0  0.00000000000E+00 -0.00000000000E+00 -0.15067566480E+04  0.15067566480E+04  0.00000000000E+00 0. -1.
         24    2    1    2    0    0 -0.25738992564E+03  0.20173456984E+03  0.12097803658E+04  0.12558709477E+04  0.81834548002E+02 0.  0.
        254    2    1    2    0    0  0.25738992564E+03 -0.20173456984E+03 -0.13279425276E+04  0.16394801865E+04  0.90416675165E+03 0.  0.
         23    2    4    4    0    0  0.19831461823E+03 -0.54931216789E+03 -0.76135741970E+03  0.96423943311E+03  0.94973776556E+02 0.  0.
         23    2    4    4    0    0  0.59075307405E+02  0.34757759805E+03 -0.56658510793E+03  0.67524075340E+03  0.10310825338E+03 0.  0.
          2    1    3    3  502    0 -0.20187910973E+03  0.11048178645E+03  0.84440769726E+03  0.87520612388E+03  0.00000000000E+00 0. -1.
         -1    1    3    3    0  502 -0.55510815911E+02  0.91252783388E+02  0.36537266855E+03  0.38066482380E+03  0.00000000000E+00 0.  1.
         13    1    5    5    0    0  0.18805272132E+03 -0.51152170911E+03 -0.66219370321E+03  0.85762391843E+03  0.00000000000E+00 0. -1.
        -13    1    5    5    0    0  0.10261896915E+02 -0.37790458783E+02 -0.99163716490E+02  0.10661551468E+03  0.00000000000E+00 0.  1.
          1    1    6    6  503    0  0.66918431423E+02  0.32764472589E+03 -0.56099361416E+03  0.65310257846E+03  0.00000000000E+00 0. -1.
         -1    1    6    6    0  503 -0.78431240172E+01  0.19932872166E+02 -0.55914937710E+01  0.22138174941E+02  0.00000000000E+00 0.  1.
<mgrwt>
<rscale>  0 0.28929390E+04</rscale>
<asrwt>0</asrwt>
<pdfrwt beam="1">  1        2 0.23180872E+00 0.28929390E+04</pdfrwt>
<pdfrwt beam="2">  1       -1 0.21362992E+00 0.28929390E+04</pdfrwt>
<totfact> 0.15030598E+00</totfact>
</mgrwt>
</event>
<event>
12    7  0.1735955E-007  0.2291372E+04  0.7818608E-02  0.8481331E-01
          2   -1    0    0  501    0  0.00000000000E+00  0.00000000000E+00  0.10924213104E+04  0.10924213104E+04  0.00000000000E+00 0. -1.
         -1   -1    0    0    0  501 -0.00000000000E+00 -0.00000000000E+00 -0.12015481749E+04  0.12015481749E+04  0.00000000000E+00 0.  1.
         24    2    1    2    0    0  0.34245314827E+03  0.12192607335E+03 -0.93933167270E+03  0.10104254712E+04  0.80470587469E+02 0.  0.
        254    2    1    2    0    0 -0.34245314827E+03 -0.12192607335E+03  0.83020480817E+03  0.12835440140E+04  0.90890323262E+03 0.  0.
         23    2    4    4    0    0 -0.36622612083E+03 -0.40926139547E+03  0.21022963827E+03  0.59509020105E+03  0.91210663702E+02 0.  0.
         23    2    4    4    0    0  0.23772972561E+02  0.28733532212E+03  0.61997516990E+03  0.68845381296E+03  0.80453090215E+02 0.  0.
          2    1    3    3  502    0  0.57705691841E+02  0.46010380892E+02 -0.25193706451E+03  0.26252463979E+03  0.00000000000E+00 0. -1.
         -1    1    3    3    0  502  0.28474745643E+03  0.75915692454E+02 -0.68739460819E+03  0.74790083144E+03  0.00000000000E+00 0.  1.
         13    1    5    5    0    0 -0.65973708174E+02 -0.13411223772E+03  0.56148999184E+02  0.15966005320E+03  0.00000000000E+00 0.  1.
        -13    1    5    5    0    0 -0.30025241266E+03 -0.27514915775E+03  0.15408063909E+03  0.43543014785E+03  0.00000000000E+00 0. -1.
          4    1    6    6  503    0  0.27192185090E+02  0.20734253867E+03  0.51928981862E+03  0.55981448623E+03  0.00000000000E+00 0. -1.
         -4    1    6    6    0  503 -0.34192125292E+01  0.79992783459E+02  0.10068535128E+03  0.12863932673E+03  0.00000000000E+00 0.  1.
<mgrwt>
<rscale>  0 0.22913724E+04</rscale>
<asrwt>0</asrwt>
<pdfrwt beam="1">  1        2 0.16806482E+00 0.22913724E+04</pdfrwt>
<pdfrwt beam="2">  1       -1 0.18485357E+00 0.22913724E+04</pdfrwt>
<totfact> 0.43768347E+00</totfact>
</mgrwt>
</event>
<event>
12    7  0.1735955E-007  0.1453154E+04  0.7818608E-02  0.8916217E-01
         -1   -1    0    0    0  501 -0.00000000000E+00  0.00000000000E+00  0.13147516970E+04  0.13147516970E+04  0.00000000000E+00 0.  1.
          2   -1    0    0  501    0  0.00000000000E+00 -0.00000000000E+00 -0.40153128135E+03  0.40153128135E+03  0.00000000000E+00 0. -1.
         24    2    1    2    0    0  0.10735796378E+03  0.53926903544E+01  0.79922139187E+03  0.81046545806E+03  0.80898776113E+02 0.  0.
        254    2    1    2    0    0 -0.10735796378E+03 -0.53926903544E+01  0.11399902378E+03  0.90581752031E+03  0.89216298353E+03 0.  0.
         23    2    4    4    0    0 -0.15344087709E+03 -0.25133889726E+03 -0.28906108449E+03  0.42231887319E+03  0.89897586442E+02 0.  0.
         23    2    4    4    0    0  0.46082913305E+02  0.24594620690E+03  0.40306010827E+03  0.48349864712E+03  0.93275502143E+02 0.  0.
          2    1    3    3  502    0  0.17198062731E+01  0.14205201585E+02  0.28871651043E+03  0.28907087172E+03  0.00000000000E+00 0. -1.
         -1    1    3    3    0  502  0.10563815751E+03 -0.88125112305E+01  0.51050488145E+03  0.52139458633E+03  0.00000000000E+00 0.  1.
         13    1    5    5    0    0 -0.48382021433E+02 -0.74901691054E+02 -0.35352784728E+02  0.95921336046E+02  0.00000000000E+00 0.  1.
        -13    1    5    5    0    0 -0.10505885566E+03 -0.17643720620E+03 -0.25370829976E+03  0.32639753714E+03  0.00000000000E+00 0. -1.
          3    1    6    6  503    0 -0.13042626874E+02  0.10894849752E+03  0.23110322499E+03  0.25582921223E+03  0.00000000000E+00 0. -1.
         -3    1    6    6    0  503  0.59125540180E+02  0.13699770938E+03  0.17195688328E+03  0.22766943489E+03  0.00000000000E+00 0.  1.
<mgrwt>
<rscale>  0 0.14531537E+04</rscale>
<asrwt>0</asrwt>
<pdfrwt beam="1">  1        2 0.61774044E-01 0.14531537E+04</pdfrwt>
<pdfrwt beam="2">  1       -1 0.20226949E+00 0.14531537E+04</pdfrwt>
<totfact> 0.12749939E+01</totfact>
</mgrwt>
</event>
<event>
12    7  0.1735955E-007  0.2082780E+04  0.7818608E-02  0.8568867E-01
         -1   -1    0    0    0  501 -0.00000000000E+00  0.00000000000E+00  0.32235140716E+03  0.32235140716E+03  0.00000000000E+00 0.  1.
          2   -1    0    0  501    0  0.00000000000E+00 -0.00000000000E+00 -0.33643192639E+04  0.33643192639E+04  0.00000000000E+00 0. -1.
         24    2    1    2    0    0 -0.11579876787E+03  0.77854952620E+03 -0.70102428169E+03  0.10570675985E+04  0.80050888783E+02 0.  0.
        254    2    1    2    0    0  0.11579876787E+03 -0.77854952620E+03 -0.23409435750E+04  0.26296030726E+04  0.90291017191E+03 0.  0.
         23    2    4    4    0    0  0.88154673625E+02 -0.19035251526E+03 -0.18310362851E+04  0.18452866039E+04  0.91561164149E+02 0.  0.
         23    2    4    4    0    0  0.27644094241E+02 -0.58819701094E+03 -0.50990728998E+03  0.78431646871E+03  0.91689470930E+02 0.  0.
          2    1    3    3  502    0 -0.55952093813E+01  0.30183332936E+03 -0.26677861065E+03  0.40287155792E+03  0.00000000000E+00 0. -1.
         -1    1    3    3    0  502 -0.11020355849E+03  0.47671619685E+03 -0.43424567104E+03  0.65419604054E+03  0.00000000000E+00 0.  1.
         13    1    5    5    0    0 -0.11536232348E+02 -0.55806040418E+02 -0.32375143986E+03  0.32872844966E+03  0.00000000000E+00 0. -1.
        -13    1    5    5    0    0  0.99690905973E+02 -0.13454647484E+03 -0.15072848452E+04  0.15165581542E+04  0.00000000000E+00 0.  1.
          1    1    6    6  503    0  0.51420110782E+02 -0.28800303910E+03 -0.21725172880E+03  0.36440100438E+03  0.00000000000E+00 0. -1.
         -1    1    6    6    0  503 -0.23776016541E+02 -0.30019397184E+03 -0.29265556118E+03  0.41991546432E+03  0.00000000000E+00 0.  1.
<mgrwt>
<rscale>  0 0.20827799E+04</rscale>
<asrwt>0</asrwt>
<pdfrwt beam="1">  1        2 0.51758755E+00 0.20827799E+04</pdfrwt>
<pdfrwt beam="2">  1       -1 0.49592527E-01 0.20827799E+04</pdfrwt>
<totfact> 0.43335631E+00</totfact>
</mgrwt>
</event>
<event>
12    7  0.1735955E-007  0.2052122E+04  0.7818608E-02  0.8582632E-01
          2   -1    0    0  501    0  0.00000000000E+00  0.00000000000E+00  0.25480984528E+04  0.25480984528E+04  0.00000000000E+00 0. -1.
         -1   -1    0    0    0  501 -0.00000000000E+00 -0.00000000000E+00 -0.41317146526E+03  0.41317146526E+03  0.00000000000E+00 0.  1.
         24    2    1    2    0    0 -0.97373857784E+02 -0.45511932954E+03 -0.11478160687E+03  0.48586313288E+03  0.79201605524E+02 0.  0.
        254    2    1    2    0    0  0.97373857784E+02  0.45511932954E+03  0.22497085944E+04  0.24754067852E+04  0.92186480578E+03 0.  0.
         23    2    4    4    0    0 -0.36136762248E+03  0.38316391559E+03  0.91081896048E+03  0.10555127978E+04  0.84350120251E+02 0.  0.
         23    2    4    4    0    0  0.45874148027E+03  0.71955413944E+02  0.13388896340E+04  0.14198939874E+04  0.88612393250E+02 0.  0.
          4    1    3    3  502    0 -0.19029798746E+02 -0.22691963510E+03 -0.83627943791E+02  0.24258665878E+03  0.00000000000E+00 0. -1.
         -3    1    3    3    0  502 -0.78344059039E+02 -0.22819969444E+03 -0.31153663075E+02  0.24327647410E+03  0.00000000000E+00 0.  1.
         13    1    5    5    0    0 -0.63402968997E+02  0.11208592966E+03  0.18503688457E+03  0.22543699953E+03  0.00000000000E+00 0. -1.
        -13    1    5    5    0    0 -0.29796465349E+03  0.27107798593E+03  0.72578207591E+03  0.83007579828E+03  0.00000000000E+00 0.  1.
          4    1    6    6  503    0  0.70650081859E+02  0.96641484550E+01  0.31927018083E+03  0.32713648253E+03  0.00000000000E+00 0. -1.
         -4    1    6    6    0  503  0.38809139841E+03  0.62291265489E+02  0.10196194531E+04  0.10927575049E+04  0.00000000000E+00 0.  1.
<mgrwt>
<rscale>  0 0.20521224E+04</rscale>
<asrwt>0</asrwt>
<pdfrwt beam="1">  1        2 0.39201514E+00 0.20521224E+04</pdfrwt>
<pdfrwt beam="2">  1       -1 0.63564842E-01 0.20521224E+04</pdfrwt>
<totfact> 0.86315164E+00</totfact>
</mgrwt>
</event>
<event>
12    7  0.1735955E-007  0.1893328E+04  0.7818608E-02  0.8658185E-01
          2   -1    0    0  501    0  0.00000000000E+00  0.00000000000E+00  0.29235387723E+04  0.29235387723E+04  0.00000000000E+00 0. -1.
         -1   -1    0    0    0  501 -0.00000000000E+00 -0.00000000000E+00 -0.30653697706E+03  0.30653697706E+03  0.00000000000E+00 0.  1.
         24    2    1    2    0    0 -0.13972511996E+03  0.47725238817E+03  0.10271728067E+03  0.51418013432E+03  0.80854311087E+02 0.  0.
        254    2    1    2    0    0  0.13972511996E+03 -0.47725238817E+03  0.25142845145E+04  0.27158956150E+04  0.89842607953E+03 0.  0.
         23    2    4    4    0    0 -0.10694357057E+03 -0.58784138893E+03  0.22424057153E+04  0.23223349423E+04  0.88666602448E+02 0.  0.
         23    2    4    4    0    0  0.24666869053E+03  0.11058900076E+03  0.27187879924E+03  0.39356067270E+03  0.88862543564E+02 0.  0.
          2    1    3    3  502    0 -0.61042604854E+02  0.21414247728E+03  0.51244474080E+01  0.22273181216E+03  0.00000000000E+00 0. -1.
         -1    1    3    3    0  502 -0.78682515101E+02  0.26310991089E+03  0.97592833260E+02  0.29144832216E+03  0.00000000000E+00 0.  1.
         13    1    5    5    0    0 -0.42034339922E+02 -0.23063603038E+03  0.71850629394E+03  0.75578512732E+03  0.00000000000E+00 0. -1.
        -13    1    5    5    0    0 -0.64909230649E+02 -0.35720535855E+03  0.15238994214E+04  0.15665498150E+04  0.00000000000E+00 0.  1.
          1    1    6    6  503    0  0.15232108786E+03  0.91758158379E+02  0.22427951745E+03  0.28622120010E+03  0.00000000000E+00 0. -1.
         -1    1    6    6    0  503  0.94347602661E+02  0.18830842378E+02  0.47599281790E+02  0.10733947261E+03  0.00000000000E+00 0.  1.
<mgrwt>
<rscale>  0 0.18933280E+04</rscale>
<asrwt>0</asrwt>
<pdfrwt beam="1">  1        2 0.44977518E+00 0.18933280E+04</pdfrwt>
<pdfrwt beam="2">  1       -1 0.47159537E-01 0.18933280E+04</pdfrwt>
<totfact> 0.93199833E+00</totfact>
</mgrwt>
</event>
<event>
12    7  0.1735955E-007  0.2737879E+04  0.7818608E-02  0.8322818E-01
          2   -1    0    0  501    0  0.00000000000E+00  0.00000000000E+00  0.42018474372E+04  0.42018474372E+04  0.00000000000E+00 0. -1.
         -1   -1    0    0    0  501 -0.00000000000E+00 -0.00000000000E+00 -0.44599325414E+03  0.44599325414E+03  0.00000000000E+00 0.  1.
         24    2    1    2    0    0  0.50433186659E+03  0.10567320283E+04  0.22607733857E+04  0.25472753406E+04  0.80511788872E+02 0.  0.
        254    2    1    2    0    0 -0.50433186659E+03 -0.10567320283E+04  0.14950807974E+04  0.21005653508E+04  0.89781679140E+03 0.  0.
         23    2    4    4    0    0 -0.70871770775E+03 -0.51758374621E+03  0.78328736852E+03  0.11799250803E+04  0.92251666084E+02 0.  0.
         23    2    4    4    0    0  0.20438584116E+03 -0.53914828205E+03  0.71179342891E+03  0.92064027046E+03  0.92055309802E+02 0.  0.
          4    1    3    3  502    0  0.44443847751E+03  0.95389585342E+03  0.20760457115E+04  0.23275327400E+04  0.00000000000E+00 0. -1.
         -3    1    3    3    0  502  0.59893389080E+02  0.10283617484E+03  0.18472767419E+03  0.21974260061E+03  0.00000000000E+00 0.  1.
         13    1    5    5    0    0 -0.14587133227E+03 -0.10003763898E+03  0.11122977833E+03  0.20894506067E+03  0.00000000000E+00 0. -1.
        -13    1    5    5    0    0 -0.56284637548E+03 -0.41754610723E+03  0.67205759019E+03  0.97098001966E+03  0.00000000000E+00 0.  1.
          4    1    6    6  503    0 -0.51446798265E+01 -0.66387561394E+02  0.73881578321E+02  0.99459859509E+02  0.00000000000E+00 0. -1.
         -4    1    6    6    0  503  0.20953052099E+03 -0.47276072066E+03  0.63791185058E+03  0.82118041096E+03  0.00000000000E+00 0.  1.
<mgrwt>
<rscale>  0 0.27378792E+04</rscale>
<asrwt>0</asrwt>
<pdfrwt beam="1">  1        2 0.64643804E+00 0.27378792E+04</pdfrwt>
<pdfrwt beam="2">  1       -1 0.68614350E-01 0.27378792E+04</pdfrwt>
<totfact> 0.49593300E-01</totfact>
</mgrwt>
</event>
<event>
12    7  0.1735955E-007  0.3214296E+04  0.7818608E-02  0.8185052E-01
          2   -1    0    0  501    0  0.00000000000E+00  0.00000000000E+00  0.37558231509E+04  0.37558231509E+04  0.00000000000E+00 0. -1.
         -1   -1    0    0    0  501 -0.00000000000E+00 -0.00000000000E+00 -0.68771220735E+03  0.68771220735E+03  0.00000000000E+00 0.  1.
         24    2    1    2    0    0 -0.91428633306E+03  0.49700887103E+03  0.28571043132E+04  0.30418003021E+04  0.81035206395E+02 0.  0.
        254    2    1    2    0    0  0.91428633306E+03 -0.49700887103E+03  0.21100663044E+03  0.14017350562E+04  0.91509565241E+03 0.  0.
         23    2    4    4    0    0  0.48792653703E+03 -0.28038082004E+03 -0.34235724590E+03  0.66506576064E+03  0.91751143653E+02 0.  0.
         23    2    4    4    0    0  0.42635979603E+03 -0.21662805099E+03  0.55336387634E+03  0.73666929559E+03  0.88089064502E+02 0.  0.
          4    1    3    3  502    0 -0.79674087559E+03  0.46136251714E+03  0.25429852536E+04  0.27045194389E+04  0.00000000000E+00 0. -1.
         -3    1    3    3    0  502 -0.11754545747E+03  0.35646353891E+02  0.31411905953E+03  0.33728086320E+03  0.00000000000E+00 0.  1.
         13    1    5    5    0    0  0.15608874533E+03 -0.12454048753E+03 -0.15845854078E+03  0.25491790560E+03  0.00000000000E+00 0.  1.
        -13    1    5    5    0    0  0.33183779171E+03 -0.15584033251E+03 -0.18389870512E+03  0.41014785503E+03  0.00000000000E+00 0. -1.
          1    1    6    6  503    0  0.42889859834E+03 -0.21767908291E+03  0.55418852482E+03  0.73380045778E+03  0.00000000000E+00 0. -1.
         -1    1    6    6    0  503 -0.25388023079E+01  0.10510319214E+01 -0.82464848551E+00  0.28688378105E+01  0.00000000000E+00 0.  1.
<mgrwt>
<rscale>  0 0.32142965E+04</rscale>
<asrwt>0</asrwt>
<pdfrwt beam="1">  1        2 0.57781893E+00 0.32142965E+04</pdfrwt>
<pdfrwt beam="2">  1       -1 0.10580188E+00 0.32142965E+04</pdfrwt>
<totfact> 0.42300537E-01</totfact>
</mgrwt>
</event>
<event>
12    7  0.1735955E-007  0.1388110E+04  0.7818608E-02  0.8962471E-01
         -3   -1    0    0    0  501 -0.00000000000E+00  0.00000000000E+00  0.48542644732E+03  0.48542644732E+03  0.00000000000E+00 0.  1.
          4   -1    0    0  501    0  0.00000000000E+00 -0.00000000000E+00 -0.99234810107E+03  0.99234810107E+03  0.00000000000E+00 0. -1.
         24    2    1    2    0    0  0.30121586228E+03  0.99637648828E+02  0.10122486995E+03  0.34004001382E+03  0.68717391885E+02 0.  0.
        254    2    1    2    0    0 -0.30121586228E+03 -0.99637648828E+02 -0.60814652370E+03  0.11377345346E+04  0.90771086812E+03 0.  0.
         23    2    4    4    0    0 -0.40196515510E+02 -0.70552119437E+02 -0.79424529176E+03  0.80295324639E+03  0.85527603740E+02 0.  0.
         23    2    4    4    0    0 -0.26101934677E+03 -0.29085529391E+02  0.18609876805E+03  0.33478128817E+03  0.92025496638E+02 0.  0.
          2    1    3    3  502    0  0.17615694758E+03  0.72370508637E+02  0.92572640654E+02  0.21175092561E+03  0.00000000000E+00 0. -1.
         -1    1    3    3    0  502  0.12505891470E+03  0.27267140191E+02  0.86522292984E+01  0.12828908820E+03  0.00000000000E+00 0.  1.
         13    1    5    5    0    0 -0.53235963973E+02 -0.62711726735E+02 -0.76964049973E+03  0.77402411290E+03  0.00000000000E+00 0.  1.
        -13    1    5    5    0    0  0.13039448463E+02 -0.78403927020E+01 -0.24604792030E+02  0.28929133495E+02  0.00000000000E+00 0. -1.
          1    1    6    6  503    0 -0.17136337628E+02 -0.26812682759E+02  0.37511082843E+02  0.49189992479E+02  0.00000000000E+00 0. -1.
         -1    1    6    6    0  503 -0.24388300914E+03 -0.22728466324E+01  0.14858768521E+03  0.28559129569E+03  0.00000000000E+00 0.  1.
<mgrwt>
<rscale>  0 0.13881095E+04</rscale>
<asrwt>0</asrwt>
<pdfrwt beam="1">  1        4 0.15266894E+00 0.13881095E+04</pdfrwt>
<pdfrwt beam="2">  1       -3 0.74680993E-01 0.13881095E+04</pdfrwt>
<totfact> 0.10715298E+00</totfact>
</mgrwt>
</event>
<event>
12    7  0.1735955E-007  0.2392010E+04  0.7818608E-02  0.8442501E-01
          2   -1    0    0  501    0  0.00000000000E+00  0.00000000000E+00  0.25385635655E+04  0.25385635655E+04  0.00000000000E+00 0. -1.
         -1   -1    0    0    0  501 -0.00000000000E+00 -0.00000000000E+00 -0.56347931879E+03  0.56347931879E+03  0.00000000000E+00 0.  1.
         24    2    1    2    0    0  0.78143412968E+02 -0.78616343712E+03 -0.13056045822E+02  0.79411877772E+03  0.79339964320E+02 0.  0.
        254    2    1    2    0    0 -0.78143412968E+02  0.78616343712E+03  0.19881402925E+04  0.23079241066E+04  0.86582476061E+03 0.  0.
         23    2    4    4    0    0  0.33206638922E+03  0.23102089088E+03  0.41077214854E+03  0.58396855070E+03  0.92988017041E+02 0.  0.
         23    2    4    4    0    0 -0.41020980218E+03  0.55514254624E+03  0.15773681440E+04  0.17239555559E+04  0.86470622429E+02 0.  0.
          4    1    3    3  502    0  0.48612619416E+02 -0.16251865040E+03  0.24255601712E+00  0.16963359728E+03  0.00000000000E+00 0. -1.
         -3    1    3    3    0  502  0.29530793553E+02 -0.62364478672E+03 -0.13298601839E+02  0.62448518044E+03  0.00000000000E+00 0.  1.
         13    1    5    5    0    0  0.22242188590E+03  0.11940092882E+03  0.20339584438E+03  0.32418813464E+03  0.00000000000E+00 0.  1.
        -13    1    5    5    0    0  0.10964450332E+03  0.11161996206E+03  0.20737630417E+03  0.25978041606E+03  0.00000000000E+00 0. -1.
          2    1    6    6  503    0 -0.74685591880E+01  0.29045799857E+02  0.10859503264E+03  0.11266019253E+03  0.00000000000E+00 0. -1.
         -2    1    6    6    0  503 -0.40274124300E+03  0.52609674638E+03  0.14687731113E+04  0.16112953633E+04  0.00000000000E+00 0.  1.
<mgrwt>
<rscale>  0 0.23920101E+04</rscale>
<asrwt>0</asrwt>
<pdfrwt beam="1">  1        2 0.39054824E+00 0.23920101E+04</pdfrwt>
<pdfrwt beam="2">  1       -1 0.86689127E-01 0.23920101E+04</pdfrwt>
<totfact> 0.44382014E+00</totfact>
</mgrwt>
</event>
<event>
12    7  0.1735955E-007  0.1638353E+04  0.7818608E-02  0.8797326E-01
          2   -1    0    0  501    0  0.00000000000E+00  0.00000000000E+00  0.61219022586E+03  0.61219022586E+03  0.00000000000E+00 0. -1.
         -1   -1    0    0    0  501 -0.00000000000E+00 -0.00000000000E+00 -0.10961470050E+04  0.10961470050E+04  0.00000000000E+00 0.  1.
         24    2    1    2    0    0 -0.25412770318E+02  0.26666459287E+03 -0.67777791324E+03  0.73318602478E+03  0.80143828648E+02 0.  0.
        254    2    1    2    0    0  0.25412770318E+02 -0.26666459287E+03  0.19382113414E+03  0.97515120604E+03  0.91738619382E+03 0.  0.
         23    2    4    4    0    0  0.16541686802E+02 -0.12961920187E+03  0.55545602813E+03  0.57805060440E+03  0.92392300316E+02 0.  0.
         23    2    4    4    0    0  0.88710835163E+01 -0.13704539099E+03 -0.36163489400E+03  0.39710060164E+03  0.89715973776E+02 0.  0.
          4    1    3    3  502    0 -0.10481111852E+01  0.44727412987E+02 -0.21188111086E+03  0.21655310006E+03  0.00000000000E+00 0. -1.
         -3    1    3    3    0  502 -0.24364659133E+02  0.22193717988E+03 -0.46589680238E+03  0.51663292471E+03  0.00000000000E+00 0.  1.
         13    1    5    5    0    0 -0.20351378296E+00 -0.42803419538E+02  0.54236668341E+02  0.69092621421E+02  0.00000000000E+00 0.  1.
        -13    1    5    5    0    0  0.16745200585E+02 -0.86815782335E+02  0.50121935979E+03  0.50895798298E+03  0.00000000000E+00 0. -1.
          3    1    6    6  503    0  0.34523995515E+02 -0.12598985498E+03 -0.32989970370E+03  0.35482272239E+03  0.00000000000E+00 0. -1.
         -3    1    6    6    0  503 -0.25652911999E+02 -0.11055536017E+02 -0.31735190301E+02  0.42277879252E+02  0.00000000000E+00 0.  1.
<mgrwt>
<rscale>  0 0.16383534E+04</rscale>
<asrwt>0</asrwt>
<pdfrwt beam="1">  1        2 0.94183112E-01 0.16383534E+04</pdfrwt>
<pdfrwt beam="2">  1       -1 0.16863800E+00 0.16383534E+04</pdfrwt>
<totfact> 0.13311914E+01</totfact>
</mgrwt>
</event>
<event>
12    7  0.1735955E-007  0.1792507E+04  0.7818608E-02  0.8710294E-01
         -1   -1    0    0    0  501 -0.00000000000E+00  0.00000000000E+00  0.38174805794E+03  0.38174805794E+03  0.00000000000E+00 0.  1.
          2   -1    0    0  501    0  0.00000000000E+00 -0.00000000000E+00 -0.21041900815E+04  0.21041900815E+04  0.00000000000E+00 0. -1.
         24    2    1    2    0    0 -0.40814564097E+03  0.72613875782E+02  0.81942657823E+02  0.42999565798E+03  0.79536328241E+02 0.  0.
        254    2    1    2    0    0  0.40814564097E+03 -0.72613875782E+02 -0.18043846814E+04  0.20559424815E+04  0.89400210823E+03 0.  0.
         23    2    4    4    0    0  0.22028922590E+02 -0.21269311688E+03 -0.31725880807E+02  0.23403364827E+03  0.89674866116E+02 0.  0.
         23    2    4    4    0    0  0.38611671838E+03  0.14007924110E+03 -0.17726588006E+04  0.18219088332E+04  0.91237378428E+02 0.  0.
          2    1    3    3  502    0 -0.37662710412E+03  0.57822459151E+02  0.52976433754E+02  0.38470497121E+03  0.00000000000E+00 0. -1.
         -1    1    3    3    0  502 -0.31518536848E+02  0.14791416631E+02  0.28966224069E+02  0.45290686766E+02  0.00000000000E+00 0.  1.
         13    1    5    5    0    0  0.16159911409E+02 -0.55066080054E+02  0.29871074854E+02  0.64696963006E+02  0.00000000000E+00 0.  1.
        -13    1    5    5    0    0  0.58690111806E+01 -0.15762703682E+03 -0.61596955661E+02  0.16933668527E+03  0.00000000000E+00 0. -1.
          1    1    6    6  503    0  0.67302923610E+02  0.64176731582E+02 -0.38267628382E+03  0.39381401017E+03  0.00000000000E+00 0. -1.
         -1    1    6    6    0  503  0.31881379477E+03  0.75902509514E+02 -0.13899825168E+04  0.14280948231E+04  0.00000000000E+00 0.  1.
<mgrwt>
<rscale>  0 0.17925072E+04</rscale>
<asrwt>0</asrwt>
<pdfrwt beam="1">  1        2 0.32372155E+00 0.17925072E+04</pdfrwt>
<pdfrwt beam="2">  1       -1 0.58730471E-01 0.17925072E+04</pdfrwt>
<totfact> 0.18474770E+01</totfact>
</mgrwt>
</event>
<event>
12    7  0.1735955E-007  0.2674355E+04  0.7818608E-02  0.8343374E-01
         -1   -1    0    0    0  501 -0.00000000000E+00  0.00000000000E+00  0.67109483384E+03  0.67109483384E+03  0.00000000000E+00 0.  1.
          2   -1    0    0  501    0  0.00000000000E+00 -0.00000000000E+00 -0.26643679852E+04  0.26643679852E+04  0.00000000000E+00 0. -1.
         24    2    1    2    0    0  0.34164832341E+03 -0.26014784160E+03  0.49442750416E+03  0.66036864276E+03  0.85015946084E+02 0.  0.
        254    2    1    2    0    0 -0.34164832341E+03  0.26014784160E+03 -0.24877006555E+04  0.26750941763E+04  0.88491458575E+03 0.  0.
         23    2    4    4    0    0 -0.23979759283E+03  0.29183665636E+03 -0.25087557395E+04  0.25386365034E+04  0.90268578385E+02 0.  0.
         23    2    4    4    0    0 -0.10185073058E+03 -0.31688814759E+02  0.21055084006E+02  0.13645767288E+03  0.82459854620E+02 0.  0.
          2    1    3    3  502    0  0.12068699656E+03 -0.62707728680E+02  0.10957497732E+03  0.17465476240E+03  0.00000000000E+00 0. -1.
         -1    1    3    3    0  502  0.22096132684E+03 -0.19744011292E+03  0.38485252684E+03  0.48571388035E+03  0.00000000000E+00 0.  1.
         13    1    5    5    0    0 -0.11195716559E+03  0.16016413206E+03 -0.15695579811E+04  0.15816760769E+04  0.00000000000E+00 0.  1.
        -13    1    5    5    0    0 -0.12784042724E+03  0.13167252431E+03 -0.93919775843E+03  0.95696042652E+03  0.00000000000E+00 0. -1.
          2    1    6    6  503    0  0.90121727210E+01 -0.18677149925E+02  0.13147077004E+02  0.24554038776E+02  0.00000000000E+00 0. -1.
         -2    1    6    6    0  503 -0.11086290330E+03 -0.13011664834E+02  0.79080070020E+01  0.11190363410E+03  0.00000000000E+00 0.  1.
<mgrwt>
<rscale>  0 0.26743549E+04</rscale>
<asrwt>0</asrwt>
<pdfrwt beam="1">  1        2 0.40990277E+00 0.26743549E+04</pdfrwt>
<pdfrwt beam="2">  1       -1 0.10324536E+00 0.26743549E+04</pdfrwt>
<totfact> 0.24668735E+00</totfact>
</mgrwt>
</event>
<event>
12    7  0.1735955E-007  0.2472120E+04  0.7818608E-02  0.8412986E-01
          2   -1    0    0  501    0  0.00000000000E+00  0.00000000000E+00  0.24238780223E+04  0.24238780223E+04  0.00000000000E+00 0. -1.
         -1   -1    0    0    0  501 -0.00000000000E+00 -0.00000000000E+00 -0.63033073199E+03  0.63033073199E+03  0.00000000000E+00 0.  1.
         24    2    1    2    0    0  0.90363248514E+02 -0.10700619253E+04  0.72683493440E+03  0.12993175022E+04  0.82090858734E+02 0.  0.
        254    2    1    2    0    0 -0.90363248514E+02  0.10700619253E+04  0.10667123559E+04  0.17548912520E+04  0.88801464830E+03 0.  0.
         23    2    4    4    0    0 -0.22245907526E+03 -0.19054250092E+02  0.25844609607E+02  0.23965917594E+03  0.83171342143E+02 0.  0.
         23    2    4    4    0    0  0.13209582675E+03  0.10891161754E+04  0.10408677463E+04  0.15152320761E+04  0.94335720820E+02 0.  0.
          2    1    3    3  502    0  0.10312168037E+03 -0.79731463190E+03  0.54134699270E+03  0.96922715072E+03  0.00000000000E+00 0. -1.
         -1    1    3    3    0  502 -0.12758431857E+02 -0.27274729341E+03  0.18548794171E+03  0.33009035151E+03  0.00000000000E+00 0.  1.
         13    1    5    5    0    0 -0.11131295674E+03  0.60151545380E+01 -0.26020015370E+02  0.11447182021E+03  0.00000000000E+00 0. -1.
        -13    1    5    5    0    0 -0.11114611853E+03 -0.25069404630E+02  0.51864624976E+02  0.12518735573E+03  0.00000000000E+00 0.  1.
          3    1    6    6  503    0  0.26866821518E+02  0.89607432624E+02  0.11963926427E+03  0.15187123373E+03  0.00000000000E+00 0. -1.
         -3    1    6    6    0  503  0.10522900523E+03  0.99950874277E+03  0.92122848199E+03  0.13633608423E+04  0.00000000000E+00 0.  1.
<mgrwt>
<rscale>  0 0.24721204E+04</rscale>
<asrwt>0</asrwt>
<pdfrwt beam="1">  1        2 0.37290431E+00 0.24721204E+04</pdfrwt>
<pdfrwt beam="2">  1       -1 0.96973960E-01 0.24721204E+04</pdfrwt>
<totfact> 0.40029498E+00</totfact>
</mgrwt>
</event>
<event>
12    7  0.1735955E-007  0.1825674E+04  0.7818608E-02  0.8692764E-01
         -1   -1    0    0    0  501 -0.00000000000E+00  0.00000000000E+00  0.45658948157E+03  0.45658948157E+03  0.00000000000E+00 0.  1.
          2   -1    0    0  501    0  0.00000000000E+00 -0.00000000000E+00 -0.18249906186E+04  0.18249906186E+04  0.00000000000E+00 0. -1.
         24    2    1    2    0    0 -0.17061825250E+03  0.53190680602E+03 -0.11018085707E+02  0.56444772931E+03  0.80277036148E+02 0.  0.
        254    2    1    2    0    0  0.17061825250E+03 -0.53190680602E+03 -0.13573830514E+04  0.17171323709E+04  0.89107765806E+03 0.  0.
         23    2    4    4    0    0  0.17767302976E+03 -0.33677984992E+03 -0.52953201247E+02  0.39499249786E+03  0.90700931791E+02 0.  0.
         23    2    4    4    0    0 -0.70547772608E+01 -0.19512695610E+03 -0.13044298501E+04  0.13221398730E+04  0.91609558078E+02 0.  0.
          2    1    3    3  502    0 -0.52634910793E+02  0.10960858994E+03 -0.31142454893E+02  0.12551625122E+03  0.00000000000E+00 0. -1.
         -1    1    3    3    0  502 -0.11798334171E+03  0.42229821608E+03  0.20124369186E+02  0.43893147810E+03  0.00000000000E+00 0.  1.
         13    1    5    5    0    0  0.11101191835E+03 -0.12654313319E+03 -0.70782219578E+00  0.16833689906E+03  0.00000000000E+00 0. -1.
        -13    1    5    5    0    0  0.66661111417E+02 -0.21023671673E+03 -0.52245379051E+02  0.22665559880E+03  0.00000000000E+00 0.  1.
          1    1    6    6  503    0 -0.42469849702E+02 -0.11165669566E+03 -0.58944802045E+03  0.60143152115E+03  0.00000000000E+00 0. -1.
         -1    1    6    6    0  503  0.35415072441E+02 -0.83470260446E+02 -0.71498182967E+03  0.72070835189E+03  0.00000000000E+00 0.  1.
<mgrwt>
<rscale>  0 0.18256741E+04</rscale>
<asrwt>0</asrwt>
<pdfrwt beam="1">  1        2 0.28076779E+00 0.18256741E+04</pdfrwt>
<pdfrwt beam="2">  1       -1 0.70244534E-01 0.18256741E+04</pdfrwt>
<totfact> 0.18369300E+01</totfact>
</mgrwt>
</event>
<event>
12    7  0.1735955E-007  0.1303690E+04  0.7818608E-02  0.9026644E-01
          2   -1    0    0  501    0  0.00000000000E+00  0.00000000000E+00  0.15418376587E+04  0.15418376587E+04  0.00000000000E+00 0. -1.
         -1   -1    0    0    0  501 -0.00000000000E+00 -0.00000000000E+00 -0.27558151121E+03  0.27558151121E+03  0.00000000000E+00 0.  1.
         24    2    1    2    0    0 -0.32769338012E+03 -0.39031432858E+01  0.38108823102E+03  0.50876599336E+03  0.78844215242E+02 0.  0.
        254    2    1    2    0    0  0.32769338012E+03  0.39031432858E+01  0.88516791650E+03  0.13086531766E+04  0.90645061104E+03 0.  0.
         23    2    4    4    0    0  0.28990883070E+03  0.41363437660E+03  0.64187780642E+03  0.82198788836E+03  0.92284574047E+02 0.  0.
         23    2    4    4    0    0  0.37784549420E+02 -0.40973123331E+03  0.24329011008E+03  0.48666528822E+03  0.91354635179E+02 0.  0.
          2    1    3    3  502    0 -0.28918797574E+03 -0.13413018804E+02  0.29169533209E+03  0.41096929465E+03  0.00000000000E+00 0. -1.
         -1    1    3    3    0  502 -0.38505404383E+02  0.95098755178E+01  0.89392898931E+02  0.97796698708E+02  0.00000000000E+00 0.  1.
         13    1    5    5    0    0  0.20437273719E+03  0.25158607900E+03  0.46870730950E+03  0.56986868034E+03  0.00000000000E+00 0.  1.
        -13    1    5    5    0    0  0.85536093513E+02  0.16204829760E+03  0.17317049692E+03  0.25211920802E+03  0.00000000000E+00 0. -1.
          1    1    6    6  503    0  0.63157944697E+02 -0.29494450814E+03  0.19731975887E+03  0.36043900469E+03  0.00000000000E+00 0. -1.
         -1    1    6    6    0  503 -0.25373395276E+02 -0.11478672517E+03  0.45970351208E+02  0.12622628353E+03  0.00000000000E+00 0.  1.
<mgrwt>
<rscale>  0 0.13036901E+04</rscale>
<asrwt>0</asrwt>
<pdfrwt beam="1">  1        2 0.23720579E+00 0.13036901E+04</pdfrwt>
<pdfrwt beam="2">  1       -1 0.42397157E-01 0.13036901E+04</pdfrwt>
<totfact> 0.73429689E+01</totfact>
</mgrwt>
</event>
<event>
12    7  0.1735955E-007  0.1533915E+04  0.7818608E-02  0.8862208E-01
         -1   -1    0    0    0  501 -0.00000000000E+00  0.00000000000E+00  0.40474453984E+03  0.40474453984E+03  0.00000000000E+00 0.  1.
          2   -1    0    0  501    0  0.00000000000E+00 -0.00000000000E+00 -0.14533206251E+04  0.14533206251E+04  0.00000000000E+00 0. -1.
         24    2    1    2    0    0 -0.58261982449E+02  0.15498622292E+03  0.22193869480E+03  0.28810660610E+03  0.79582939987E+02 0.  0.
        254    2    1    2    0    0  0.58261982449E+02 -0.15498622292E+03 -0.12705147801E+04  0.15699585589E+04  0.90727442500E+03 0.  0.
         23    2    4    4    0    0  0.26293171850E+02  0.16417422493E+03  0.58685379699E+02  0.19964785861E+03  0.93652478031E+02 0.  0.
         23    2    4    4    0    0  0.31968810599E+02 -0.31916044785E+03 -0.13292001598E+04  0.13703107003E+04  0.89960847872E+02 0.  0.
          2    1    3    3  502    0 -0.37376775377E+01  0.95891711632E+01 -0.62889338232E+01  0.12061224051E+02  0.00000000000E+00 0. -1.
         -3    1    3    3    0  502 -0.54524304911E+02  0.14539705176E+03  0.22822762862E+03  0.27604538205E+03  0.00000000000E+00 0.  1.
         13    1    5    5    0    0  0.20812489787E+02  0.15914280247E+03  0.21743346770E+02  0.16196408379E+03  0.00000000000E+00 0.  1.
        -13    1    5    5    0    0  0.54806820629E+01  0.50314224569E+01  0.36942032929E+02  0.37683774821E+02  0.00000000000E+00 0. -1.
          1    1    6    6  503    0  0.31469657581E+02 -0.10268889465E+03 -0.30148207945E+03  0.32004186079E+03  0.00000000000E+00 0. -1.
         -1    1    6    6    0  503  0.49915301793E+00 -0.21647155320E+03 -0.10277180803E+04  0.10502688395E+04  0.00000000000E+00 0.  1.
<mgrwt>
<rscale>  0 0.15339147E+04</rscale>
<asrwt>0</asrwt>
<pdfrwt beam="1">  1        2 0.22358779E+00 0.15339147E+04</pdfrwt>
<pdfrwt beam="2">  1       -1 0.62268391E-01 0.15339147E+04</pdfrwt>
<totfact> 0.38759161E+01</totfact>
</mgrwt>
</event>
<event>
12    7  0.1735955E-007  0.1564817E+04  0.7818608E-02  0.8842459E-01
         -1   -1    0    0    0  501 -0.00000000000E+00  0.00000000000E+00  0.92772216475E+03  0.92772216475E+03  0.00000000000E+00 0.  1.
          2   -1    0    0  501    0  0.00000000000E+00 -0.00000000000E+00 -0.65985611802E+03  0.65985611802E+03  0.00000000000E+00 0. -1.
         24    2    1    2    0    0 -0.17308168955E+03  0.27036451032E+03  0.50666824955E+03  0.60517981897E+03  0.80471476230E+02 0.  0.
        254    2    1    2    0    0  0.17308168955E+03 -0.27036451032E+03 -0.23880220281E+03  0.98239846380E+03  0.89723241689E+03 0.  0.
         23    2    4    4    0    0  0.18152486811E+03  0.27330662992E+03 -0.26372468213E+03  0.43052969144E+03  0.90317858412E+02 0.  0.
         23    2    4    4    0    0 -0.84431785609E+01 -0.54367114024E+03  0.24922479313E+02  0.55186877237E+03  0.91040737815E+02 0.  0.
          2    1    3    3  502    0 -0.44659899518E+02  0.11831903420E+03  0.14528946504E+03  0.19262120633E+03  0.00000000000E+00 0. -1.
         -1    1    3    3    0  502 -0.12842179003E+03  0.15204547613E+03  0.36137878451E+03  0.41255861263E+03  0.00000000000E+00 0.  1.
         13    1    5    5    0    0  0.12450846988E+03  0.11088698975E+03 -0.11001814133E+03  0.19975553807E+03  0.00000000000E+00 0.  1.
        -13    1    5    5    0    0  0.57016398226E+02  0.16241964017E+03 -0.15370654080E+03  0.23077415337E+03  0.00000000000E+00 0. -1.
          3    1    6    6  503    0  0.30751859861E+02 -0.18120301695E+03 -0.18446115962E+02  0.18471726890E+03  0.00000000000E+00 0. -1.
         -3    1    6    6    0  503 -0.39195038422E+02 -0.36246812329E+03  0.43368595275E+02  0.36715150346E+03  0.00000000000E+00 0.  1.
<mgrwt>
<rscale>  0 0.15648171E+04</rscale>
<asrwt>0</asrwt>
<pdfrwt beam="1">  1        2 0.10151633E+00 0.15648171E+04</pdfrwt>
<pdfrwt beam="2">  1       -1 0.14272649E+00 0.15648171E+04</pdfrwt>
<totfact> 0.19313518E+01</totfact>
</mgrwt>
</event>
<event>
12    7  0.1735955E-007  0.1347477E+04  0.7818608E-02  0.8992740E-01
          2   -1    0    0  501    0  0.00000000000E+00  0.00000000000E+00  0.14572085258E+04  0.14572085258E+04  0.00000000000E+00 0. -1.
         -1   -1    0    0    0  501 -0.00000000000E+00 -0.00000000000E+00 -0.31150215276E+03  0.31150215276E+03  0.00000000000E+00 0.  1.
         24    2    1    2    0    0  0.46754225738E+02  0.35478728919E+03  0.32031086478E+03  0.48710937053E+03  0.81341936081E+02 0.  0.
        254    2    1    2    0    0 -0.46754225738E+02 -0.35478728919E+03  0.82539550824E+03  0.12816013080E+04  0.91277828057E+03 0.  0.
         23    2    4    4    0    0  0.33482324121E+03 -0.43799527223E+03  0.34771564714E+03  0.65786977321E+03  0.89106710664E+02 0.  0.
         23    2    4    4    0    0 -0.38157746695E+03  0.83207983036E+02  0.47767986110E+03  0.62373153480E+03  0.91312902040E+02 0.  0.
          4    1    3    3  502    0  0.29066533722E+02  0.41583917620E+02  0.66162608610E+02  0.83376113877E+02  0.00000000000E+00 0. -1.
         -3    1    3    3    0  502  0.17687692016E+02  0.31320337157E+03  0.25414825617E+03  0.40373325665E+03  0.00000000000E+00 0.  1.
         13    1    5    5    0    0  0.24351027338E+03 -0.24809053274E+03  0.20983002939E+03  0.40604778895E+03  0.00000000000E+00 0. -1.
        -13    1    5    5    0    0  0.91312967833E+02 -0.18990473948E+03  0.13788561775E+03  0.25182198425E+03  0.00000000000E+00 0.  1.
          1    1    6    6  503    0 -0.36453854577E+03  0.69275575388E+02  0.41201515759E+03  0.55447628153E+03  0.00000000000E+00 0. -1.
         -1    1    6    6    0  503 -0.17038921176E+02  0.13932407648E+02  0.65664703516E+02  0.69255253270E+02  0.00000000000E+00 0.  1.
<mgrwt>
<rscale>  0 0.13474770E+04</rscale>
<asrwt>0</asrwt>
<pdfrwt beam="1">  1        2 0.22418592E+00 0.13474770E+04</pdfrwt>
<pdfrwt beam="2">  1       -1 0.47923409E-01 0.13474770E+04</pdfrwt>
<totfact> 0.65000004E+01</totfact>
</mgrwt>
</event>
<event>
12    7  0.1735955E-007  0.2229187E+04  0.7818608E-02  0.8506377E-01
          2   -1    0    0  501    0  0.00000000000E+00  0.00000000000E+00  0.17766136710E+04  0.17766136710E+04  0.00000000000E+00 0. -1.
         -1   -1    0    0    0  501 -0.00000000000E+00 -0.00000000000E+00 -0.69926211885E+03  0.69926211885E+03  0.00000000000E+00 0.  1.
         24    2    1    2    0    0  0.30494643462E+03 -0.60727671598E+03  0.11599259858E+04  0.13467471882E+04  0.80761120373E+02 0.  0.
        254    2    1    2    0    0 -0.30494643462E+03  0.60727671598E+03 -0.82574433715E+02  0.11291286016E+04  0.89796187232E+03 0.  0.
         23    2    4    4    0    0 -0.13703778972E+03  0.72014938129E+03 -0.31684789174E+03  0.80518751755E+03  0.10266384337E+03 0.  0.
         23    2    4    4    0    0 -0.16790864491E+03 -0.11287266531E+03  0.23427345802E+03  0.32394108407E+03  0.95499849267E+02 0.  0.
          4    1    3    3  502    0  0.27200447530E+03 -0.49732793538E+03  0.10064011452E+04  0.11550605070E+04  0.00000000000E+00 0. -1.
         -3    1    3    3    0  502  0.32941959329E+02 -0.10994878061E+03  0.15352484064E+03  0.19168668116E+03  0.00000000000E+00 0.  1.
         13    1    5    5    0    0 -0.27491701118E+01  0.22571883602E+02  0.79280024037E+01  0.24081135516E+02  0.00000000000E+00 0.  1.
        -13    1    5    5    0    0 -0.13428861960E+03  0.69757749769E+03 -0.32477589414E+03  0.78110638203E+03  0.00000000000E+00 0. -1.
          4    1    6    6  503    0 -0.10593232814E+03 -0.87677872166E+02  0.21338404587E+03  0.25385393132E+03  0.00000000000E+00 0. -1.
         -4    1    6    6    0  503 -0.61976316771E+02 -0.25194793142E+02  0.20889412150E+02  0.70087152759E+02  0.00000000000E+00 0.  1.
<mgrwt>
<rscale>  0 0.22291870E+04</rscale>
<asrwt>0</asrwt>
<pdfrwt beam="1">  1        2 0.27332518E+00 0.22291870E+04</pdfrwt>
<pdfrwt beam="2">  1       -1 0.10757879E+00 0.22291870E+04</pdfrwt>
<totfact> 0.74241092E+00</totfact>
</mgrwt>
</event>
<event>
12    7  0.1735955E-007  0.1679703E+04  0.7818608E-02  0.8773026E-01
          2   -1    0    0  501    0  0.00000000000E+00  0.00000000000E+00  0.35776469906E+04  0.35776469906E+04  0.00000000000E+00 0. -1.
         -1   -1    0    0    0  501 -0.00000000000E+00 -0.00000000000E+00 -0.19715487121E+03  0.19715487121E+03  0.00000000000E+00 0.  1.
         24    2    1    2    0    0  0.56598338801E+03  0.16900319694E+01  0.16678493595E+04  0.17631532786E+04  0.81534937369E+02 0.  0.
        254    2    1    2    0    0 -0.56598338801E+03 -0.16900319694E+01  0.17126427599E+04  0.20116485833E+04  0.89064288454E+03 0.  0.
         23    2    4    4    0    0 -0.67743752795E+02 -0.37921431197E+03  0.89570611616E+03  0.97936288037E+03  0.92029856371E+02 0.  0.
         23    2    4    4    0    0 -0.49823963522E+03  0.37752428000E+03  0.81693664374E+03  0.10322857029E+04  0.86376943822E+02 0.  0.
          2    1    3    3  502    0  0.56642508635E+03 -0.10116530540E+01  0.16378532195E+04  0.17330324782E+04  0.00000000000E+00 0. -1.
         -1    1    3    3    0  502 -0.44169833906E+00  0.27016850235E+01  0.29996139971E+02  0.30120800330E+02  0.00000000000E+00 0.  1.
         13    1    5    5    0    0 -0.48265104004E+02 -0.36804466073E+03  0.86536191890E+03  0.94161438139E+03  0.00000000000E+00 0.  1.
        -13    1    5    5    0    0 -0.19478648791E+02 -0.11169651242E+02  0.30344197258E+02  0.37748498974E+02  0.00000000000E+00 0. -1.
          3    1    6    6  503    0 -0.47621291471E+02  0.65927149927E+02  0.13409753375E+03  0.15683215568E+03  0.00000000000E+00 0. -1.
         -3    1    6    6    0  503 -0.45061834375E+03  0.31159713007E+03  0.68283910999E+03  0.87545354721E+03  0.00000000000E+00 0.  1.
<mgrwt>
<rscale>  0 0.16797030E+04</rscale>
<asrwt>0</asrwt>
<pdfrwt beam="1">  1        2 0.55040718E+00 0.16797030E+04</pdfrwt>
<pdfrwt beam="2">  1       -1 0.30331521E-01 0.16797030E+04</pdfrwt>
<totfact> 0.78684924E+00</totfact>
</mgrwt>
</event>
<event>
12    7  0.1735955E-007  0.2200784E+04  0.7818608E-02  0.8518102E-01
         -1   -1    0    0    0  501 -0.00000000000E+00  0.00000000000E+00  0.10169561673E+04  0.10169561673E+04  0.00000000000E+00 0.  1.
          2   -1    0    0  501    0  0.00000000000E+00 -0.00000000000E+00 -0.11906727683E+04  0.11906727683E+04  0.00000000000E+00 0. -1.
         24    2    1    2    0    0  0.58172537158E+03  0.23365670970E+03 -0.74142389546E+03  0.97419781991E+03  0.79700273774E+02 0.  0.
        254    2    1    2    0    0 -0.58172537158E+03 -0.23365670970E+03  0.56770729444E+03  0.12334311157E+04  0.89780893241E+03 0.  0.
         23    2    4    4    0    0 -0.49943748513E+03 -0.49569587278E+03  0.15022069541E+03  0.72508949778E+03  0.89645538717E+02 0.  0.
         23    2    4    4    0    0 -0.82287886454E+02  0.26203916308E+03  0.41748659904E+03  0.50834161794E+03  0.93168239804E+02 0.  0.
          4    1    3    3  502    0  0.30548902556E+03  0.13560071063E+03 -0.45311199673E+03  0.56304669348E+03  0.00000000000E+00 0. -1.
         -3    1    3    3    0  502  0.27623634603E+03  0.98055999066E+02 -0.28831189872E+03  0.41115112643E+03  0.00000000000E+00 0.  1.
         13    1    5    5    0    0 -0.73355477671E+02 -0.78967431299E+02  0.56755492796E+02  0.12181160566E+03  0.00000000000E+00 0. -1.
        -13    1    5    5    0    0 -0.42608200746E+03 -0.41672844148E+03  0.93465202610E+02  0.60327789212E+03  0.00000000000E+00 0.  1.
          4    1    6    6  503    0 -0.82778368474E+02  0.18665025168E+03  0.23750411896E+03  0.31320724969E+03  0.00000000000E+00 0. -1.
         -4    1    6    6    0  503  0.49048201925E+00  0.75388911403E+02  0.17998248008E+03  0.19513436824E+03  0.00000000000E+00 0.  1.
<mgrwt>
<rscale>  0 0.22007835E+04</rscale>
<asrwt>0</asrwt>
<pdfrwt beam="1">  1        2 0.18318043E+00 0.22007835E+04</pdfrwt>
<pdfrwt beam="2">  1       -1 0.15645479E+00 0.22007835E+04</pdfrwt>
<totfact> 0.62178274E+00</totfact>
</mgrwt>
</event>
<event>
12    7  0.1735955E-007  0.1810314E+04  0.7818608E-02  0.8700834E-01
          2   -1    0    0  501    0  0.00000000000E+00  0.00000000000E+00  0.32850984248E+04  0.32850984248E+04  0.00000000000E+00 0. -1.
         -1   -1    0    0    0  501 -0.00000000000E+00 -0.00000000000E+00 -0.24940159948E+03  0.24940159948E+03  0.00000000000E+00 0.  1.
         24    2    1    2    0    0  0.60069146631E+03  0.29395735316E+03  0.13620330014E+04  0.15194981454E+04  0.80619808842E+02 0.  0.
        254    2    1    2    0    0 -0.60069146631E+03 -0.29395735316E+03  0.16736638239E+04  0.20150018789E+04  0.90102209377E+03 0.  0.
         23    2    4    4    0    0  0.12193281423E+03  0.80314993801E+02  0.23817300795E+02  0.17323866983E+03  0.90145790199E+02 0.  0.
         23    2    4    4    0    0 -0.72262428055E+03 -0.37427234696E+03  0.16498465231E+04  0.18417632091E+04  0.88501570902E+02 0.  0.
          2    1    3    3  502    0  0.23872950834E+03  0.80196881319E+02  0.55828507731E+03  0.61245860715E+03  0.00000000000E+00 0. -1.
         -1    1    3    3    0  502  0.36196195798E+03  0.21376047184E+03  0.80374792414E+03  0.90703953823E+03  0.00000000000E+00 0.  1.
         13    1    5    5    0    0  0.98169483140E+02  0.68834270257E+02 -0.20520425151E+02  0.12164083208E+03  0.00000000000E+00 0. -1.
        -13    1    5    5    0    0  0.23763331092E+02  0.11480723544E+02  0.44337725946E+02  0.51597837743E+02  0.00000000000E+00 0.  1.
          1    1    6    6  503    0 -0.58666074249E+03 -0.33923416220E+03  0.13905166556E+04  0.15468636699E+04  0.00000000000E+00 0. -1.
         -1    1    6    6    0  503 -0.13596353806E+03 -0.35038184765E+02  0.25932986747E+03  0.29489953922E+03  0.00000000000E+00 0.  1.
<mgrwt>
<rscale>  0 0.18103136E+04</rscale>
<asrwt>0</asrwt>
<pdfrwt beam="1">  1        2 0.50539973E+00 0.18103136E+04</pdfrwt>
<pdfrwt beam="2">  1       -1 0.38369479E-01 0.18103136E+04</pdfrwt>
<totfact> 0.80914159E+00</totfact>
</mgrwt>
</event>
<event>
12    7  0.1735955E-007  0.2095538E+04  0.7818608E-02  0.8563212E-01
         -1   -1    0    0    0  501 -0.00000000000E+00  0.00000000000E+00  0.74053673089E+03  0.74053673089E+03  0.00000000000E+00 0.  1.
          2   -1    0    0  501    0  0.00000000000E+00 -0.00000000000E+00 -0.14824646379E+04  0.14824646379E+04  0.00000000000E+00 0. -1.
         24    2    1    2    0    0  0.43824930169E+03  0.45928271501E+03  0.29689951672E+03  0.70571347422E+03  0.82940472187E+02 0.  0.
        254    2    1    2    0    0 -0.43824930169E+03 -0.45928271501E+03 -0.10388274238E+04  0.15172878946E+04  0.90553689930E+03 0.  0.
         23    2    4    4    0    0 -0.23740132663E+03  0.11485565957E+03  0.34697076412E+02  0.27999555143E+03  0.87420874422E+02 0.  0.
         23    2    4    4    0    0 -0.20084797505E+03 -0.57413837459E+03 -0.10735245002E+04  0.12372923432E+04  0.91992976616E+02 0.  0.
          2    1    3    3  502    0  0.18247821897E+03  0.17141121858E+03  0.15950772080E+03  0.29685487910E+03  0.00000000000E+00 0. -1.
         -1    1    3    3    0  502  0.25577108272E+03  0.28787149644E+03  0.13739179592E+03  0.40885859512E+03  0.00000000000E+00 0.  1.
         13    1    5    5    0    0  0.52582503002E+01 -0.41324357092E+01  0.44786490121E+01  0.80488830333E+01  0.00000000000E+00 0. -1.
        -13    1    5    5    0    0 -0.24265957693E+03  0.11898809528E+03  0.30218427400E+02  0.27194666839E+03  0.00000000000E+00 0.  1.
          3    1    6    6  503    0 -0.28827638880E+02 -0.18771229191E+03 -0.28495752365E+03  0.34244375828E+03  0.00000000000E+00 0. -1.
         -3    1    6    6    0  503 -0.17202033617E+03 -0.38642608268E+03 -0.78856697652E+03  0.89484858489E+03  0.00000000000E+00 0.  1.
<mgrwt>
<rscale>  0 0.20955377E+04</rscale>
<asrwt>0</asrwt>
<pdfrwt beam="1">  1        2 0.22807148E+00 0.20955377E+04</pdfrwt>
<pdfrwt beam="2">  1       -1 0.11392873E+00 0.20955377E+04</pdfrwt>
<totfact> 0.95761648E+00</totfact>
</mgrwt>
</event>
<event>
12    7  0.1735955E-007  0.1702185E+04  0.7818608E-02  0.8760119E-01
         -1   -1    0    0    0  501 -0.00000000000E+00  0.00000000000E+00  0.38579425270E+03  0.38579425270E+03  0.00000000000E+00 0.  1.
          2   -1    0    0  501    0  0.00000000000E+00 -0.00000000000E+00 -0.18775768965E+04  0.18775768965E+04  0.00000000000E+00 0. -1.
         24    2    1    2    0    0  0.19449206872E+03  0.40231804162E+02 -0.13136661027E+04  0.13309897069E+04  0.79807315541E+02 0.  0.
        254    2    1    2    0    0 -0.19449206872E+03 -0.40231804162E+02 -0.17811654107E+03  0.93238144227E+03  0.89340018403E+03 0.  0.
         23    2    4    4    0    0  0.98206953058E+02 -0.41002757518E+03 -0.43376547650E+02  0.43335792077E+03  0.90279258790E+02 0.  0.
         23    2    4    4    0    0 -0.29269902178E+03  0.36979577102E+03 -0.13473999342E+03  0.49902352150E+03  0.91912891203E+02 0.  0.
          2    1    3    3  502    0  0.10703777126E+03  0.42100811621E+02 -0.95066398736E+03  0.95759677301E+03  0.00000000000E+00 0. -1.
         -1    1    3    3    0  502  0.87454297461E+02 -0.18690074588E+01 -0.36300211532E+03  0.37339293386E+03  0.00000000000E+00 0.  1.
         13    1    5    5    0    0  0.26650543537E+02 -0.28951961856E+03 -0.21860383467E+02  0.29156429371E+03  0.00000000000E+00 0.  1.
        -13    1    5    5    0    0  0.71556409520E+02 -0.12050795662E+03 -0.21516164183E+02  0.14179362706E+03  0.00000000000E+00 0. -1.
          4    1    6    6  503    0 -0.58352655442E+02  0.48450276842E+02 -0.54225993236E+02  0.93235830374E+02  0.00000000000E+00 0. -1.
         -4    1    6    6    0  503 -0.23434636633E+03  0.32134549418E+03 -0.80514000187E+02  0.40578769113E+03  0.00000000000E+00 0.  1.
<mgrwt>
<rscale>  0 0.17021849E+04</rscale>
<asrwt>0</asrwt>
<pdfrwt beam="1">  1        2 0.28885798E+00 0.17021849E+04</pdfrwt>
<pdfrwt beam="2">  1       -1 0.59352963E-01 0.17021849E+04</pdfrwt>
<totfact> 0.24367600E+01</totfact>
</mgrwt>
</event>
<event>
12    7  0.1735955E-007  0.1484040E+04  0.7818608E-02  0.8895136E-01
         -1   -1    0    0    0  501 -0.00000000000E+00  0.00000000000E+00  0.43296417018E+03  0.43296417018E+03  0.00000000000E+00 0.  1.
          2   -1    0    0  501    0  0.00000000000E+00 -0.00000000000E+00 -0.12716844970E+04  0.12716844970E+04  0.00000000000E+00 0. -1.
         24    2    1    2    0    0  0.14208478907E+03  0.30358532692E+03  0.94361115498E+02  0.35649764296E+03  0.76383318277E+02 0.  0.
        254    2    1    2    0    0 -0.14208478907E+03 -0.30358532692E+03 -0.93308144237E+03  0.13481510243E+04  0.91351960468E+03 0.  0.
         23    2    4    4    0    0 -0.28178604979E+03  0.12661702562E+03 -0.80830763436E+03  0.87023480750E+03  0.92261256180E+02 0.  0.
         23    2    4    4    0    0  0.13970126072E+03 -0.43020235254E+03 -0.12477380801E+03  0.47791621677E+03  0.90801435617E+02 0.  0.
          4    1    3    3  502    0  0.88349125294E+02  0.12121945298E+03  0.15950064503E+02  0.15084471578E+03  0.00000000000E+00 0. -1.
         -3    1    3    3    0  502  0.53735663775E+02  0.18236587394E+03  0.78411050996E+02  0.20565292718E+03  0.00000000000E+00 0.  1.
         13    1    5    5    0    0 -0.28829973337E+03  0.11921126898E+03 -0.77314964167E+03  0.83371963593E+03  0.00000000000E+00 0.  1.
        -13    1    5    5    0    0  0.65136835849E+01  0.74057566412E+01 -0.35157992682E+02  0.36515171569E+02  0.00000000000E+00 0. -1.
          3    1    6    6  503    0  0.16997968822E+02 -0.70423972256E+02 -0.56117785168E+02  0.91638816146E+02  0.00000000000E+00 0. -1.
         -3    1    6    6    0  503  0.12270329189E+03 -0.35977838028E+03 -0.68656022847E+02  0.38627740063E+03  0.00000000000E+00 0.  1.
<mgrwt>
<rscale>  0 0.14840402E+04</rscale>
<asrwt>0</asrwt>
<pdfrwt beam="1">  1        2 0.19564377E+00 0.14840402E+04</pdfrwt>
<pdfrwt beam="2">  1       -1 0.66609873E-01 0.14840402E+04</pdfrwt>
<totfact> 0.43254753E+01</totfact>
</mgrwt>
</event>
<event>
12    7  0.1735955E-007  0.1974999E+04  0.7818608E-02  0.8618399E-01
          2   -1    0    0  501    0  0.00000000000E+00  0.00000000000E+00  0.33306137894E+04  0.33306137894E+04  0.00000000000E+00 0. -1.
         -1   -1    0    0    0  501 -0.00000000000E+00 -0.00000000000E+00 -0.29278542143E+03  0.29278542143E+03  0.00000000000E+00 0.  1.
         24    2    1    2    0    0  0.30811524031E+03  0.71353706823E+03  0.12805740369E+04  0.15002923622E+04  0.83289608682E+02 0.  0.
        254    2    1    2    0    0 -0.30811524031E+03 -0.71353706823E+03  0.17572543311E+04  0.21231068487E+04  0.90308900882E+03 0.  0.
         23    2    4    4    0    0 -0.10195280208E+03  0.15033218621E+03  0.75077805054E+03  0.77774102979E+03  0.90660290008E+02 0.  0.
         23    2    4    4    0    0 -0.20616243823E+03 -0.86386925444E+03  0.10064762805E+04  0.13453658189E+04  0.90783499035E+02 0.  0.
          4    1    3    3  502    0  0.70941391967E+02  0.12401284711E+03  0.18463278840E+03  0.23345477913E+03  0.00000000000E+00 0. -1.
         -3    1    3    3    0  502  0.23717384835E+03  0.58952422112E+03  0.10959412485E+04  0.12668375831E+04  0.00000000000E+00 0.  1.
         13    1    5    5    0    0 -0.15476674107E+02  0.23206762043E+01  0.13104912518E+02  0.20412048196E+02  0.00000000000E+00 0.  1.
        -13    1    5    5    0    0 -0.86476127975E+02  0.14801151001E+03  0.73767313802E+03  0.75732898159E+03  0.00000000000E+00 0. -1.
          1    1    6    6  503    0 -0.16616128502E+03 -0.79698506903E+03  0.93297624005E+03  0.12382404602E+04  0.00000000000E+00 0. -1.
         -1    1    6    6    0  503 -0.40001153215E+02 -0.66884185406E+02  0.73500040482E+02  0.10712535865E+03  0.00000000000E+00 0.  1.
<mgrwt>
<rscale>  0 0.19749989E+04</rscale>
<asrwt>0</asrwt>
<pdfrwt beam="1">  1        2 0.51240210E+00 0.19749989E+04</pdfrwt>
<pdfrwt beam="2">  1       -1 0.45043913E-01 0.19749989E+04</pdfrwt>
<totfact> 0.55289753E+00</totfact>
</mgrwt>
</event>
<event>
12    7  0.1735955E-007  0.1670476E+04  0.7818608E-02  0.8778385E-01
         -1   -1    0    0    0  501 -0.00000000000E+00  0.00000000000E+00  0.32286652667E+03  0.32286652667E+03  0.00000000000E+00 0.  1.
          2   -1    0    0  501    0  0.00000000000E+00 -0.00000000000E+00 -0.21607143163E+04  0.21607143163E+04  0.00000000000E+00 0. -1.
         24    2    1    2    0    0 -0.35740515234E+03 -0.47083245898E+02  0.40092787660E+02  0.37045078610E+03  0.75306562377E+02 0.  0.
        254    2    1    2    0    0  0.35740515234E+03  0.47083245898E+02 -0.18779405773E+04  0.21131300569E+04  0.89927890581E+03 0.  0.
         23    2    4    4    0    0 -0.12554217898E+03  0.35558852611E+03 -0.73153220983E+03  0.82812050361E+03  0.91870320936E+02 0.  0.
         23    2    4    4    0    0  0.48294733131E+03 -0.30850528021E+03 -0.11464083675E+04  0.12850095533E+04  0.92648660266E+02 0.  0.
          4    1    3    3  502    0 -0.62710190849E+02 -0.27727820778E+02 -0.14587988055E+02  0.70101422788E+02  0.00000000000E+00 0. -1.
         -3    1    3    3    0  502 -0.29469496149E+03 -0.19355425121E+02  0.54680775715E+02  0.30034936331E+03  0.00000000000E+00 0.  1.
         13    1    5    5    0    0  0.14789792443E+02  0.26872611022E+02 -0.61005000326E+02  0.68282393400E+02  0.00000000000E+00 0.  1.
        -13    1    5    5    0    0 -0.14033197142E+03  0.32871591509E+03 -0.67052720950E+03  0.75983811021E+03  0.00000000000E+00 0. -1.
          1    1    6    6  503    0  0.36824996927E+03 -0.18768677394E+03 -0.84306525775E+03  0.93893204962E+03  0.00000000000E+00 0. -1.
         -1    1    6    6    0  503  0.11469736204E+03 -0.12081850628E+03 -0.30334310974E+03  0.34607750367E+03  0.00000000000E+00 0.  1.
<mgrwt>
<rscale>  0 0.16704758E+04</rscale>
<asrwt>0</asrwt>
<pdfrwt beam="1">  1        2 0.33241760E+00 0.16704758E+04</pdfrwt>
<pdfrwt beam="2">  1       -1 0.49671772E-01 0.16704758E+04</pdfrwt>
<totfact> 0.23998767E+01</totfact>
</mgrwt>
</event>
<event>
12    7  0.1735955E-007  0.1058238E+04  0.7818608E-02  0.9246880E-01
          2   -1    0    0  501    0  0.00000000000E+00  0.00000000000E+00  0.19637947292E+04  0.19637947292E+04  0.00000000000E+00 0. -1.
         -1   -1    0    0    0  501 -0.00000000000E+00 -0.00000000000E+00 -0.14256417039E+03  0.14256417039E+03  0.00000000000E+00 0.  1.
         24    2    1    2    0    0  0.56152345011E+02 -0.19315712924E+02  0.42404134817E+02  0.11464115977E+03  0.88421164026E+02 0.  0.
        254    2    1    2    0    0 -0.56152345011E+02  0.19315712924E+02  0.17788264240E+04  0.19917177398E+04  0.89397423107E+03 0.  0.
         23    2    4    4    0    0 -0.62805503913E+02  0.43250993841E+03  0.67395424705E+03  0.80857997236E+03  0.92616771929E+02 0.  0.
         23    2    4    4    0    0  0.66531589022E+01 -0.41319422549E+03  0.11048721769E+04  0.11831377675E+04  0.91097293642E+02 0.  0.
          4    1    3    3  502    0  0.94246345790E+01  0.18713002288E+02  0.49717607104E+02  0.53952207070E+02  0.00000000000E+00 0. -1.
         -3    1    3    3    0  502  0.46727710432E+02 -0.38028715212E+02 -0.73134722864E+01  0.60688952700E+02  0.00000000000E+00 0.  1.
         13    1    5    5    0    0  0.58330702572E+00  0.21849516365E+02  0.85213417277E+02  0.87971973358E+02  0.00000000000E+00 0. -1.
        -13    1    5    5    0    0 -0.63388810939E+02  0.41066042205E+03  0.58874082977E+03  0.72060799901E+03  0.00000000000E+00 0.  1.
          2    1    6    6  503    0 -0.23903962180E+02 -0.84441114089E+02  0.31596460344E+03  0.32792580225E+03  0.00000000000E+00 0. -1.
         -2    1    6    6    0  503  0.30557121082E+02 -0.32875311140E+03  0.78890757351E+03  0.85521196521E+03  0.00000000000E+00 0.  1.
<mgrwt>
<rscale>  0 0.10582377E+04</rscale>
<asrwt>0</asrwt>
<pdfrwt beam="1">  1        2 0.30212225E+00 0.10582377E+04</pdfrwt>
<pdfrwt beam="2">  1       -1 0.21932951E-01 0.10582377E+04</pdfrwt>
<totfact> 0.13925602E+02</totfact>
</mgrwt>
</event>
<event>
12    7  0.1735955E-007  0.1643338E+04  0.7818608E-02  0.8794358E-01
         -1   -1    0    0    0  501 -0.00000000000E+00  0.00000000000E+00  0.27155324695E+03  0.27155324695E+03  0.00000000000E+00 0.  1.
          2   -1    0    0  501    0  0.00000000000E+00 -0.00000000000E+00 -0.24862148914E+04  0.24862148914E+04  0.00000000000E+00 0. -1.
         24    2    1    2    0    0  0.10409136936E+03  0.21230878402E+03  0.96564380233E+02  0.26766169478E+03  0.80050423951E+02 0.  0.
        254    2    1    2    0    0 -0.10409136936E+03 -0.21230878402E+03 -0.23112260247E+04  0.24901064436E+04  0.89607718987E+03 0.  0.
         23    2    4    4    0    0 -0.22864309756E+03  0.28912650554E+03 -0.12572301368E+04  0.13128815573E+04  0.84608299907E+02 0.  0.
         23    2    4    4    0    0  0.12455172820E+03 -0.50143528956E+03 -0.10539958879E+04  0.11772248863E+04  0.89446176732E+02 0.  0.
          4    1    3    3  502    0  0.26358379132E+02  0.97156537825E+01 -0.42157783474E+01  0.28406528580E+02  0.00000000000E+00 0. -1.
         -3    1    3    3    0  502  0.77732990227E+02  0.20259313024E+03  0.10078015858E+03  0.23925516620E+03  0.00000000000E+00 0.  1.
         13    1    5    5    0    0 -0.35741931217E+02  0.10673955353E+03 -0.39180239538E+03  0.40765173244E+03  0.00000000000E+00 0.  1.
        -13    1    5    5    0    0 -0.19290116634E+03  0.18238695200E+03 -0.86542774137E+03  0.90522982484E+03  0.00000000000E+00 0. -1.
          2    1    6    6  503    0  0.10348872112E+03 -0.24845079750E+03 -0.58459496012E+03  0.64357515612E+03  0.00000000000E+00 0. -1.
         -2    1    6    6    0  503  0.21063007080E+02 -0.25298449206E+03 -0.46940092781E+03  0.53364973018E+03  0.00000000000E+00 0.  1.
<mgrwt>
<rscale>  0 0.16433377E+04</rscale>
<asrwt>0</asrwt>
<pdfrwt beam="1">  1        2 0.38249462E+00 0.16433377E+04</pdfrwt>
<pdfrwt beam="2">  1       -1 0.41777420E-01 0.16433377E+04</pdfrwt>
<totfact> 0.21738410E+01</totfact>
</mgrwt>
</event>
<event>
12    7  0.1735955E-007  0.1243130E+04  0.7818608E-02  0.9075920E-01
         -1   -1    0    0    0  501 -0.00000000000E+00  0.00000000000E+00  0.40828978186E+03  0.40828978186E+03  0.00000000000E+00 0.  1.
          2   -1    0    0  501    0  0.00000000000E+00 -0.00000000000E+00 -0.94624760972E+03  0.94624760972E+03  0.00000000000E+00 0. -1.
         24    2    1    2    0    0  0.19363437804E+03 -0.45266874094E+02 -0.24221236827E+03  0.32188169943E+03  0.73468597601E+02 0.  0.
        254    2    1    2    0    0 -0.19363437804E+03  0.45266874094E+02 -0.29574545959E+03  0.10326556921E+04  0.96921052378E+03 0.  0.
         23    2    4    4    0    0 -0.42566261870E+03 -0.32278518301E+03 -0.12346111867E+03  0.55604699581E+03  0.92556330930E+02 0.  0.
         23    2    4    4    0    0  0.23202824066E+03  0.36805205711E+03 -0.17228434091E+03  0.47660869634E+03  0.90413130130E+02 0.  0.
          2    1    3    3  502    0  0.18513153488E+03 -0.51159392857E+02 -0.24486007993E+03  0.31120319316E+03  0.00000000000E+00 0. -1.
         -3    1    3    3    0  502  0.85028431555E+01  0.58925187631E+01  0.26477116629E+01  0.10678506270E+02  0.00000000000E+00 0.  1.
         13    1    5    5    0    0 -0.13411188474E+03 -0.75869447821E+02 -0.73558594457E+02  0.17074260616E+03  0.00000000000E+00 0. -1.
        -13    1    5    5    0    0 -0.29155073396E+03 -0.24691573519E+03 -0.49902524216E+02  0.38530438964E+03  0.00000000000E+00 0.  1.
          1    1    6    6  503    0  0.37938715332E+02  0.12559147201E+03 -0.75155984726E+02  0.15119849868E+03  0.00000000000E+00 0. -1.
         -1    1    6    6    0  503  0.19408952532E+03  0.24246058510E+03 -0.97128356188E+02  0.32541019766E+03  0.00000000000E+00 0.  1.
<mgrwt>
<rscale>  0 0.12431303E+04</rscale>
<asrwt>0</asrwt>
<pdfrwt beam="1">  1        2 0.14557655E+00 0.12431303E+04</pdfrwt>
<pdfrwt beam="2">  1       -1 0.62813813E-01 0.12431303E+04</pdfrwt>
<totfact> 0.78809884E+01</totfact>
</mgrwt>
</event>
<event>
12    7  0.1735955E-007  0.2047061E+04  0.7818608E-02  0.8584929E-01
          2   -1    0    0  501    0  0.00000000000E+00  0.00000000000E+00  0.17126814672E+04  0.17126814672E+04  0.00000000000E+00 0. -1.
         -1   -1    0    0    0  501 -0.00000000000E+00 -0.00000000000E+00 -0.61168114333E+03  0.61168114333E+03  0.00000000000E+00 0.  1.
         24    2    1    2    0    0 -0.36587427784E+03 -0.61239878389E+02  0.12795602301E+04  0.13346257095E+04  0.79605854651E+02 0.  0.
        254    2    1    2    0    0  0.36587427784E+03  0.61239878389E+02 -0.17855990629E+03  0.98973690098E+03  0.90004510061E+03 0.  0.
         23    2    4    4    0    0  0.16820600367E+03  0.10053141930E+03  0.35318261228E+03  0.41383826125E+03  0.90135026064E+02 0.  0.
         23    2    4    4    0    0  0.19766827417E+03 -0.39291540915E+02 -0.53174251857E+03  0.57589863973E+03  0.91063523918E+02 0.  0.
          4    1    3    3  502    0 -0.35166590366E+03 -0.64884764651E+02  0.12622938673E+04  0.13119697969E+04  0.00000000000E+00 0. -1.
         -3    1    3    3    0  502 -0.14208374177E+02  0.36448862627E+01  0.17266362838E+02  0.22655912656E+02  0.00000000000E+00 0.  1.
         13    1    5    5    0    0  0.47534172213E+02  0.34700476101E+02  0.38187620427E+02  0.70156360535E+02  0.00000000000E+00 0.  1.
        -13    1    5    5    0    0  0.12067183146E+03  0.65830943202E+02  0.31499499185E+03  0.34368190072E+03  0.00000000000E+00 0. -1.
          1    1    6    6  503    0  0.20065208993E+03 -0.27528909251E+02 -0.52327210880E+03  0.56109963633E+03  0.00000000000E+00 0. -1.
         -1    1    6    6    0  503 -0.29838157535E+01 -0.11762631664E+02 -0.84704097645E+01  0.14799003402E+02  0.00000000000E+00 0.  1.
<mgrwt>
<rscale>  0 0.20470613E+04</rscale>
<asrwt>0</asrwt>
<pdfrwt beam="1">  1        2 0.26348945E+00 0.20470613E+04</pdfrwt>
<pdfrwt beam="2">  1       -1 0.94104792E-01 0.20470613E+04</pdfrwt>
<totfact> 0.11123850E+01</totfact>
</mgrwt>
</event>
<event>
12    7  0.1735955E-007  0.1977470E+04  0.7818608E-02  0.8617227E-01
          2   -1    0    0  501    0  0.00000000000E+00  0.00000000000E+00  0.15134386958E+04  0.15134386958E+04  0.00000000000E+00 0. -1.
         -3   -1    0    0    0  501 -0.00000000000E+00 -0.00000000000E+00 -0.64594388957E+03  0.64594388957E+03  0.00000000000E+00 0.  1.
         24    2    1    2    0    0  0.32806817612E+03 -0.58485885234E+02 -0.42360039995E+03  0.54568391484E+03  0.85348164089E+02 0.  0.
        254    2    1    2    0    0 -0.32806817612E+03  0.58485885234E+02  0.12910952062E+04  0.16136986705E+04  0.90887141054E+03 0.  0.
         23    2    4    4    0    0 -0.26041459583E+03  0.25047103174E+03  0.13349150120E+04  0.13859464058E+04  0.91092540582E+02 0.  0.
         23    2    4    4    0    0 -0.67653580292E+02 -0.19198514650E+03 -0.43819805869E+02  0.22775226471E+03  0.92280091529E+02 0.  0.
          2    1    3    3  502    0  0.15036523283E+03  0.42357735685E+01 -0.23537021415E+03  0.27933274553E+03  0.00000000000E+00 0. -1.
         -1    1    3    3    0  502  0.17770294330E+03 -0.62721658802E+02 -0.18823018581E+03  0.26635116930E+03  0.00000000000E+00 0.  1.
         13    1    5    5    0    0 -0.29905823405E+02  0.56194165372E+02  0.35664623867E+03  0.36228259971E+03  0.00000000000E+00 0.  1.
        -13    1    5    5    0    0 -0.23050877243E+03  0.19427686636E+03  0.97826877338E+03  0.10236638061E+04  0.00000000000E+00 0. -1.
          3    1    6    6  503    0 -0.74400171766E+02 -0.17144624274E+03 -0.64622331443E+02  0.19775046253E+03  0.00000000000E+00 0. -1.
         -3    1    6    6    0  503  0.67465914735E+01 -0.20538903763E+02  0.20802525574E+02  0.30001802189E+02  0.00000000000E+00 0.  1.
<mgrwt>
<rscale>  0 0.19774696E+04</rscale>
<asrwt>0</asrwt>
<pdfrwt beam="1">  1        2 0.23283672E+00 0.19774696E+04</pdfrwt>
<pdfrwt beam="2">  1       -3 0.99375984E-01 0.19774696E+04</pdfrwt>
<totfact> 0.65515101E+00</totfact>
</mgrwt>
</event>
<event>
12    7  0.1735955E-007  0.1224730E+04  0.7818608E-02  0.9091481E-01
         -1   -1    0    0    0  501 -0.00000000000E+00  0.00000000000E+00  0.12452952530E+04  0.12452952530E+04  0.00000000000E+00 0.  1.
          2   -1    0    0  501    0  0.00000000000E+00 -0.00000000000E+00 -0.30112629161E+03  0.30112629161E+03  0.00000000000E+00 0. -1.
         24    2    1    2    0    0 -0.68214213496E+02 -0.69332114781E+02 -0.96801693871E+02  0.15903107386E+03  0.80375328641E+02 0.  0.
        254    2    1    2    0    0  0.68214213496E+02  0.69332114781E+02  0.10409706552E+04  0.13873904707E+04  0.91201551090E+03 0.  0.
         23    2    4    4    0    0  0.39563270517E+03  0.26141810082E+03  0.35768407694E+03  0.60042611180E+03  0.87800660549E+02 0.  0.
         23    2    4    4    0    0 -0.32741849167E+03 -0.19208598604E+03  0.68328657830E+03  0.78696435893E+03  0.91282306189E+02 0.  0.
          2    1    3    3  502    0 -0.77440540704E+02 -0.51001393595E+02 -0.10201300850E+03  0.13785801898E+03  0.00000000000E+00 0. -1.
         -1    1    3    3    0  502  0.92263272073E+01 -0.18330721186E+02  0.52113146293E+01  0.21173054884E+02  0.00000000000E+00 0.  1.
         13    1    5    5    0    0  0.26334948893E+03  0.14853806864E+03  0.27142013649E+03  0.40630702879E+03  0.00000000000E+00 0. -1.
        -13    1    5    5    0    0  0.13228321624E+03  0.11288003218E+03  0.86263940452E+02  0.19411908300E+03  0.00000000000E+00 0.  1.
          3    1    6    6  503    0 -0.27565230203E+03 -0.13854642796E+03  0.48133801564E+03  0.57172160149E+03  0.00000000000E+00 0. -1.
         -3    1    6    6    0  503 -0.51766189645E+02 -0.53539558082E+02  0.20194856266E+03  0.21524275744E+03  0.00000000000E+00 0.  1.
<mgrwt>
<rscale>  0 0.12247304E+04</rscale>
<asrwt>0</asrwt>
<pdfrwt beam="1">  1        2 0.46327122E-01 0.12247304E+04</pdfrwt>
<pdfrwt beam="2">  1       -1 0.19158388E+00 0.12247304E+04</pdfrwt>
<totfact> 0.21257020E+01</totfact>
</mgrwt>
</event>
<event>
12    7  0.1735955E-007  0.1152620E+04  0.7818608E-02  0.9155370E-01
          2   -1    0    0  501    0  0.00000000000E+00  0.00000000000E+00  0.13218552324E+04  0.13218552324E+04  0.00000000000E+00 0. -1.
         -1   -1    0    0    0  501 -0.00000000000E+00 -0.00000000000E+00 -0.25126300015E+03  0.25126300015E+03  0.00000000000E+00 0.  1.
         24    2    1    2    0    0  0.21031020712E+03  0.46999026794E+02  0.36653081069E+03  0.43120143815E+03  0.71767355656E+02 0.  0.
        254    2    1    2    0    0 -0.21031020712E+03 -0.46999026794E+02  0.70406142154E+03  0.11419167944E+04  0.87282998817E+03 0.  0.
         23    2    4    4    0    0  0.18407315281E+03 -0.33906445461E+03  0.36270827120E+03  0.53714671133E+03  0.90120305924E+02 0.  0.
         23    2    4    4    0    0 -0.39438335993E+03  0.29206542781E+03  0.34135315034E+03  0.60477008304E+03  0.91566540737E+02 0.  0.
          4    1    3    3  502    0  0.20503416917E+03  0.35241319210E+02  0.36203459135E+03  0.41755239963E+03  0.00000000000E+00 0. -1.
         -3    1    3    3    0  502  0.52760379528E+01  0.11757707583E+02  0.44962193443E+01  0.13649038519E+02  0.00000000000E+00 0.  1.
         13    1    5    5    0    0  0.22608493792E+02 -0.87650645926E+02  0.45288942883E+02  0.10121693569E+03  0.00000000000E+00 0. -1.
        -13    1    5    5    0    0  0.16146465902E+03 -0.25141380868E+03  0.31741932831E+03  0.43592977565E+03  0.00000000000E+00 0.  1.
          1    1    6    6  503    0 -0.15452218753E+02  0.83944726645E+01 -0.49501282211E+01  0.18268607093E+02  0.00000000000E+00 0. -1.
         -1    1    6    6    0  503 -0.37893114118E+03  0.28367095515E+03  0.34630327856E+03  0.58650147595E+03  0.00000000000E+00 0.  1.
<mgrwt>
<rscale>  0 0.11526202E+04</rscale>
<asrwt>0</asrwt>
<pdfrwt beam="1">  1        2 0.20336234E+00 0.11526202E+04</pdfrwt>
<pdfrwt beam="2">  1       -1 0.38655847E-01 0.11526202E+04</pdfrwt>
<totfact> 0.11732063E+02</totfact>
</mgrwt>
</event>
<event>
12    7  0.1735955E-007  0.2928792E+04  0.7818608E-02  0.8264362E-01
         -1   -1    0    0    0  501 -0.00000000000E+00  0.00000000000E+00  0.69513350881E+03  0.69513350881E+03  0.00000000000E+00 0.  1.
          2   -1    0    0  501    0  0.00000000000E+00 -0.00000000000E+00 -0.30849558957E+04  0.30849558957E+04  0.00000000000E+00 0. -1.
         24    2    1    2    0    0  0.68109381647E+03 -0.72878879503E+03 -0.22095273317E+04  0.24255494821E+04  0.79103513297E+02 0.  0.
        254    2    1    2    0    0 -0.68109381647E+03  0.72878879503E+03 -0.18029505522E+03  0.13545399225E+04  0.89847103461E+03 0.  0.
         23    2    4    4    0    0 -0.81493353280E+03  0.72220271215E+03  0.25244710352E+02  0.10931013047E+04  0.92410749245E+02 0.  0.
         23    2    4    4    0    0  0.13383971633E+03  0.65860828717E+01 -0.20553976557E+03  0.26143861778E+03  0.90261339921E+02 0.  0.
          4    1    3    3  502    0  0.30477569042E+03 -0.29831615739E+03 -0.86178483141E+03  0.96153723114E+03  0.00000000000E+00 0. -1.
         -3    1    3    3    0  502  0.37631812605E+03 -0.43047263763E+03 -0.13477425003E+04  0.14640122509E+04  0.00000000000E+00 0.  1.
         13    1    5    5    0    0 -0.21588562526E+03  0.20827157693E+03 -0.32336508232E+02  0.30171062745E+03  0.00000000000E+00 0. -1.
        -13    1    5    5    0    0 -0.59904790754E+03  0.51393113522E+03  0.57581218585E+02  0.79139067724E+03  0.00000000000E+00 0.  1.
          2    1    6    6  503    0  0.12005557736E+03  0.38867891425E+02 -0.16689565161E+03  0.20923243813E+03  0.00000000000E+00 0.  1.
         -2    1    6    6    0  503  0.13784138968E+02 -0.32281808553E+02 -0.38644113961E+02  0.52206179657E+02  0.00000000000E+00 0. -1.
<mgrwt>
<rscale>  0 0.29287924E+04</rscale>
<asrwt>0</asrwt>
<pdfrwt beam="1">  1        2 0.47460861E+00 0.29287924E+04</pdfrwt>
<pdfrwt beam="2">  1       -1 0.10694361E+00 0.29287924E+04</pdfrwt>
<totfact> 0.12269455E+00</totfact>
</mgrwt>
</event>
<event>
12    7  0.1735955E-007  0.2378268E+04  0.7818608E-02  0.8447685E-01
         -1   -1    0    0    0  501 -0.00000000000E+00  0.00000000000E+00  0.10032914023E+04  0.10032914023E+04  0.00000000000E+00 0.  1.
          2   -1    0    0  501    0  0.00000000000E+00 -0.00000000000E+00 -0.14094006991E+04  0.14094006991E+04  0.00000000000E+00 0. -1.
         24    2    1    2    0    0 -0.84495435820E+03  0.41749130802E+03  0.21008763826E+03  0.96884743879E+03  0.79257076597E+02 0.  0.
        254    2    1    2    0    0  0.84495435820E+03 -0.41749130802E+03 -0.61619693503E+03  0.14438446627E+04  0.90373773160E+03 0.  0.
         23    2    4    4    0    0  0.43752089061E+03 -0.50897906423E+03 -0.73586369163E+03  0.10004039925E+04  0.93960406320E+02 0.  0.
         23    2    4    4    0    0  0.40743346759E+03  0.91487756212E+02  0.11966675659E+03  0.44344067021E+03  0.89148501490E+02 0.  0.
          2    1    3    3  502    0 -0.61730359126E+03  0.32825954241E+03  0.12696030986E+03  0.71058917192E+03  0.00000000000E+00 0. -1.
         -3    1    3    3    0  502 -0.22765076694E+03  0.89231765610E+02  0.83127328402E+02  0.25825826687E+03  0.00000000000E+00 0.  1.
         13    1    5    5    0    0  0.23416480286E+03 -0.30719186759E+03 -0.36183562803E+03  0.52926838194E+03  0.00000000000E+00 0.  1.
        -13    1    5    5    0    0  0.20335608774E+03 -0.20178719665E+03 -0.37402806360E+03  0.47113561053E+03  0.00000000000E+00 0. -1.
          2    1    6    6  503    0  0.18025845539E+03 -0.45398535923E+01  0.47684702427E+02  0.18651421355E+03  0.00000000000E+00 0. -1.
         -2    1    6    6    0  503  0.22717501220E+03  0.96027609804E+02  0.71982054165E+02  0.25692645666E+03  0.00000000000E+00 0.  1.
<mgrwt>
<rscale>  0 0.23782679E+04</rscale>
<asrwt>0</asrwt>
<pdfrwt beam="1">  1        2 0.21683088E+00 0.23782679E+04</pdfrwt>
<pdfrwt beam="2">  1       -1 0.15435252E+00 0.23782679E+04</pdfrwt>
<totfact> 0.47353744E+00</totfact>
</mgrwt>
</event>
<event>
12    7  0.1735955E-007  0.1649518E+04  0.7818608E-02  0.8790692E-01
          2   -1    0    0  501    0  0.00000000000E+00  0.00000000000E+00  0.18291206255E+03  0.18291206255E+03  0.00000000000E+00 0. -1.
         -1   -1    0    0    0  501 -0.00000000000E+00 -0.00000000000E+00 -0.37188771294E+04  0.37188771294E+04  0.00000000000E+00 0.  1.
         24    2    1    2    0    0  0.38510911061E+03 -0.39597019221E+03 -0.15217166823E+04  0.16208456327E+04  0.80109198324E+02 0.  0.
        254    2    1    2    0    0 -0.38510911061E+03  0.39597019221E+03 -0.20142483845E+04  0.22809435593E+04  0.91673635559E+03 0.  0.
         23    2    4    4    0    0 -0.59113412950E+03  0.67736225009E+02 -0.78503634999E+03  0.98895316437E+03  0.87855194964E+02 0.  0.
         23    2    4    4    0    0  0.20602501890E+03  0.32823396720E+03 -0.12292120346E+04  0.12919903949E+04  0.89961708091E+02 0.  0.
          2    1    3    3  502    0  0.10957173329E+03 -0.14060017368E+03 -0.40086874137E+03  0.43871416821E+03  0.00000000000E+00 0. -1.
         -1    1    3    3    0  502  0.27553737732E+03 -0.25537001853E+03 -0.11208479409E+04  0.11821314644E+04  0.00000000000E+00 0.  1.
         13    1    5    5    0    0 -0.21603271285E+03  0.67547181476E+02 -0.29748452694E+03  0.37380449237E+03  0.00000000000E+00 0.  1.
        -13    1    5    5    0    0 -0.37510141665E+03  0.18904353238E+00 -0.48755182304E+03  0.61514867200E+03  0.00000000000E+00 0. -1.
          3    1    6    6  503    0  0.14852430669E+03  0.29422462952E+03 -0.10604304024E+04  0.11104684780E+04  0.00000000000E+00 0. -1.
         -3    1    6    6    0  503  0.57500712207E+02  0.34009337675E+02 -0.16878163212E+03  0.18152191685E+03  0.00000000000E+00 0.  1.
<mgrwt>
<rscale>  0 0.16495181E+04</rscale>
<asrwt>0</asrwt>
<pdfrwt beam="1">  1        2 0.28140315E-01 0.16495181E+04</pdfrwt>
<pdfrwt beam="2">  1       -1 0.57213498E+00 0.16495181E+04</pdfrwt>
<totfact> 0.11964593E-01</totfact>
</mgrwt>
</event>
<event>
12    7  0.1735955E-007  0.1764180E+04  0.7818608E-02  0.8725584E-01
          2   -1    0    0  501    0  0.00000000000E+00  0.00000000000E+00  0.93467118751E+03  0.93467118751E+03  0.00000000000E+00 0. -1.
         -1   -1    0    0    0  501 -0.00000000000E+00 -0.00000000000E+00 -0.83246672157E+03  0.83246672157E+03  0.00000000000E+00 0.  1.
         24    2    1    2    0    0  0.65449243333E+03 -0.39047664570E+00  0.44285477885E+02  0.66092260311E+03  0.80603883211E+02 0.  0.
        254    2    1    2    0    0 -0.65449243333E+03  0.39047664570E+00  0.57918988056E+02  0.11062153060E+04  0.88994224318E+03 0.  0.
         23    2    4    4    0    0 -0.15768416975E+03 -0.20722670263E+03  0.38209794991E+03  0.47104496631E+03  0.89873874329E+02 0.  0.
         23    2    4    4    0    0 -0.49680826358E+03  0.20761717928E+03 -0.32417896185E+03  0.63517033965E+03  0.91793339477E+02 0.  0.
          4    1    3    3  502    0  0.16660534520E+03 -0.26616513160E+02  0.34632170848E+02  0.17223578920E+03  0.00000000000E+00 0. -1.
         -3    1    3    3    0  502  0.48788708813E+03  0.26226036514E+02  0.96533070374E+01  0.48868681392E+03  0.00000000000E+00 0.  1.
         13    1    5    5    0    0 -0.99691522537E+02 -0.11197843391E+03  0.14284521864E+03  0.20708048150E+03  0.00000000000E+00 0. -1.
        -13    1    5    5    0    0 -0.57992647216E+02 -0.95248268720E+02  0.23925273126E+03  0.26396448481E+03  0.00000000000E+00 0.  1.
          1    1    6    6  503    0 -0.81954662561E+02  0.69170859447E+02 -0.83925072468E+02  0.13617853098E+03  0.00000000000E+00 0. -1.
         -1    1    6    6    0  503 -0.41485360102E+03  0.13844631983E+03 -0.24025388938E+03  0.49899180867E+03  0.00000000000E+00 0.  1.
<mgrwt>
<rscale>  0 0.17641799E+04</rscale>
<asrwt>0</asrwt>
<pdfrwt beam="1">  1        2 0.14379557E+00 0.17641799E+04</pdfrwt>
<pdfrwt beam="2">  1       -1 0.12807180E+00 0.17641799E+04</pdfrwt>
<totfact> 0.15813908E+01</totfact>
</mgrwt>
</event>
<event>
12    7  0.1735955E-007  0.1562118E+04  0.7818608E-02  0.8844164E-01
          2   -1    0    0  501    0  0.00000000000E+00  0.00000000000E+00  0.75952432407E+03  0.75952432407E+03  0.00000000000E+00 0. -1.
         -1   -1    0    0    0  501 -0.00000000000E+00 -0.00000000000E+00 -0.80320445710E+03  0.80320445710E+03  0.00000000000E+00 0.  1.
         24    2    1    2    0    0 -0.86044568323E+02 -0.45972219918E+03  0.30102316553E+03  0.56307795571E+03  0.87713567147E+02 0.  0.
        254    2    1    2    0    0  0.86044568323E+02  0.45972219918E+03 -0.34470329855E+03  0.99965082546E+03  0.81346987691E+03 0.  0.
         23    2    4    4    0    0 -0.21090495163E+03  0.21646800967E+02  0.14499283160E+03  0.27331571287E+03  0.93429519261E+02 0.  0.
         23    2    4    4    0    0  0.29694951996E+03  0.43807539822E+03 -0.48969613016E+03  0.72633511259E+03  0.87586094592E+02 0.  0.
          2    1    3    3  502    0 -0.10180713621E+03 -0.39432418161E+03  0.27248317957E+03  0.49000340441E+03  0.00000000000E+00 0. -1.
         -1    1    3    3    0  502  0.15762567889E+02 -0.65398017574E+02  0.28539985959E+02  0.73074551299E+02  0.00000000000E+00 0.  1.
         13    1    5    5    0    0  0.49025573998E+01 -0.67613967756E+01 -0.42751200472E+01  0.93823348285E+01  0.00000000000E+00 0. -1.
        -13    1    5    5    0    0 -0.21580750903E+03  0.28408197742E+02  0.14926795165E+03  0.26393337804E+03  0.00000000000E+00 0.  1.
          2    1    6    6  503    0  0.13431768696E+02 -0.50615313126E-02 -0.20995361277E+02  0.24924237823E+02  0.00000000000E+00 0. -1.
         -2    1    6    6    0  503  0.28351775126E+03  0.43808045975E+03 -0.46870076888E+03  0.70141087477E+03  0.00000000000E+00 0.  1.
<mgrwt>
<rscale>  0 0.15621182E+04</rscale>
<asrwt>0</asrwt>
<pdfrwt beam="1">  1        2 0.11684990E+00 0.15621182E+04</pdfrwt>
<pdfrwt beam="2">  1       -1 0.12356992E+00 0.15621182E+04</pdfrwt>
<totfact> 0.23333391E+01</totfact>
</mgrwt>
</event>
<event>
12    7  0.1735955E-007  0.2892013E+04  0.7818608E-02  0.8275258E-01
         -1   -1    0    0    0  501 -0.00000000000E+00  0.00000000000E+00  0.13538106039E+04  0.13538106039E+04  0.00000000000E+00 0.  1.
          2   -1    0    0  501    0  0.00000000000E+00 -0.00000000000E+00 -0.15444806440E+04  0.15444806440E+04  0.00000000000E+00 0. -1.
         24    2    1    2    0    0 -0.42467220787E+03  0.33455896554E+03  0.11002577587E+04  0.12284811865E+04  0.79515436033E+02 0.  0.
        254    2    1    2    0    0  0.42467220787E+03 -0.33455896554E+03 -0.12909277988E+04  0.16698100613E+04  0.91076609157E+03 0.  0.
         23    2    4    4    0    0 -0.20031966314E+03 -0.36000455776E+03 -0.59503241367E+03  0.72964479799E+03  0.92664496204E+02 0.  0.
         23    2    4    4    0    0  0.62499187101E+03  0.25445592226E+02 -0.69589538510E+03  0.94016526330E+03  0.91531515383E+02 0.  0.
          4    1    3    3  502    0 -0.51993400000E+02  0.45033970534E+02  0.20842086907E+03  0.21947808732E+03  0.00000000000E+00 0. -1.
         -3    1    3    3    0  502 -0.37267880787E+03  0.28952499500E+03  0.89183688960E+03  0.10090030992E+04  0.00000000000E+00 0.  1.
         13    1    5    5    0    0 -0.16416238877E+03 -0.31279981093E+03 -0.44439898604E+03  0.56770015889E+03  0.00000000000E+00 0. -1.
        -13    1    5    5    0    0 -0.36157274374E+02 -0.47204746833E+02 -0.15063342763E+03  0.16194463910E+03  0.00000000000E+00 0.  1.
          3    1    6    6  503    0  0.54003169210E+03  0.38471906983E+02 -0.63688753809E+03  0.83590672463E+03  0.00000000000E+00 0. -1.
         -3    1    6    6    0  503  0.84960178912E+02 -0.13026314757E+02 -0.59007847013E+02  0.10425853867E+03  0.00000000000E+00 0.  1.
<mgrwt>
<rscale>  0 0.28920126E+04</rscale>
<asrwt>0</asrwt>
<pdfrwt beam="1">  1        2 0.23761241E+00 0.28920126E+04</pdfrwt>
<pdfrwt beam="2">  1       -1 0.20827855E+00 0.28920126E+04</pdfrwt>
<totfact> 0.15560791E+00</totfact>
</mgrwt>
</event>
<event>
12    7  0.1735955E-007  0.2029567E+04  0.7818608E-02  0.8592921E-01
          2   -1    0    0  501    0  0.00000000000E+00  0.00000000000E+00  0.84749841616E+03  0.84749841616E+03  0.00000000000E+00 0. -1.
         -1   -1    0    0    0  501 -0.00000000000E+00 -0.00000000000E+00 -0.12150880024E+04  0.12150880024E+04  0.00000000000E+00 0.  1.
         24    2    1    2    0    0 -0.72270092570E+02  0.79913637493E+03 -0.27833498634E+03  0.85306720659E+03  0.80071107850E+02 0.  0.
        254    2    1    2    0    0  0.72270092570E+02 -0.79913637493E+03 -0.89254599933E+02  0.12095192120E+04  0.90062668658E+03 0.  0.
         23    2    4    4    0    0  0.14850792027E+03 -0.96204351901E+03  0.26149809407E+02  0.97795082231E+03  0.90120272230E+02 0.  0.
         23    2    4    4    0    0 -0.76237827701E+02  0.16290714408E+03 -0.11540440934E+03  0.23156838970E+03  0.89189671189E+02 0.  0.
          2    1    3    3  502    0  0.71529925970E+01  0.22460130368E+03 -0.10260068271E+03  0.24702997998E+03  0.00000000000E+00 0. -1.
         -1    1    3    3    0  502 -0.79423085167E+02  0.57453507126E+03 -0.17573430362E+03  0.60603722660E+03  0.00000000000E+00 0.  1.
         13    1    5    5    0    0  0.15246997462E+03 -0.80164501794E+03  0.39329001050E+02  0.81696303360E+03  0.00000000000E+00 0.  1.
        -13    1    5    5    0    0 -0.39620543437E+01 -0.16039850107E+03 -0.13179191643E+02  0.16098778871E+03  0.00000000000E+00 0. -1.
          4    1    6    6  503    0  0.32049918134E+01  0.62465813298E+02 -0.54591904725E+01  0.62785767210E+02  0.00000000000E+00 0. -1.
         -4    1    6    6    0  503 -0.79442819515E+02  0.10044133078E+03 -0.10994521887E+03  0.16878262249E+03  0.00000000000E+00 0.  1.
<mgrwt>
<rscale>  0 0.20295666E+04</rscale>
<asrwt>0</asrwt>
<pdfrwt beam="1">  1        2 0.13038437E+00 0.20295666E+04</pdfrwt>
<pdfrwt beam="2">  1       -1 0.18693662E+00 0.20295666E+04</pdfrwt>
<totfact> 0.62584089E+00</totfact>
</mgrwt>
</event>
<event>
12    7  0.1735955E-007  0.1949690E+04  0.7818608E-02  0.8630510E-01
         -1   -1    0    0    0  501 -0.00000000000E+00  0.00000000000E+00  0.61070898225E+03  0.61070898225E+03  0.00000000000E+00 0.  1.
          2   -1    0    0  501    0  0.00000000000E+00 -0.00000000000E+00 -0.15560973835E+04  0.15560973835E+04  0.00000000000E+00 0. -1.
         24    2    1    2    0    0  0.89950891912E+02 -0.71111108255E+03 -0.66443657124E+03  0.98059152818E+03  0.79458500282E+02 0.  0.
        254    2    1    2    0    0 -0.89950891912E+02  0.71111108255E+03 -0.28095182996E+03  0.11862148375E+04  0.90244200663E+03 0.  0.
         23    2    4    4    0    0  0.17478998974E+03 -0.37669552181E+02  0.17511088887E+03  0.26570460515E+03  0.89244485124E+02 0.  0.
         23    2    4    4    0    0 -0.26474088165E+03  0.74878063473E+03 -0.45606271884E+03  0.92051023238E+03  0.92659111984E+02 0.  0.
          2    1    3    3  502    0  0.39951133255E+02 -0.10788775926E+03 -0.12387690282E+03  0.16906019253E+03  0.00000000000E+00 0. -1.
         -3    1    3    3    0  502  0.49999758657E+02 -0.60322332328E+03 -0.54055966842E+03  0.81153133565E+03  0.00000000000E+00 0.  1.
         13    1    5    5    0    0  0.38751443560E+02 -0.41761028208E+02  0.22582585949E+02  0.61283203597E+02  0.00000000000E+00 0. -1.
        -13    1    5    5    0    0  0.13603854618E+03  0.40914760275E+01  0.15252830292E+03  0.20442140156E+03  0.00000000000E+00 0.  1.
          1    1    6    6  503    0 -0.65702114871E+02  0.12841813150E+03 -0.11884546972E+03  0.18690165882E+03  0.00000000000E+00 0. -1.
         -1    1    6    6    0  503 -0.19903876678E+03  0.62036250323E+03 -0.33721724912E+03  0.73360857356E+03  0.00000000000E+00 0.  1.
<mgrwt>
<rscale>  0 0.19496899E+04</rscale>
<asrwt>0</asrwt>
<pdfrwt beam="1">  1        2 0.23939960E+00 0.19496899E+04</pdfrwt>
<pdfrwt beam="2">  1       -1 0.93955227E-01 0.19496899E+04</pdfrwt>
<totfact> 0.13768462E+01</totfact>
</mgrwt>
</event>
<event>
12    7  0.1735955E-007  0.1782552E+04  0.7818608E-02  0.8715633E-01
         -1   -1    0    0    0  501 -0.00000000000E+00  0.00000000000E+00  0.92296012043E+03  0.92296012043E+03  0.00000000000E+00 0.  1.
          2   -1    0    0  501    0  0.00000000000E+00 -0.00000000000E+00 -0.86067995425E+03  0.86067995425E+03  0.00000000000E+00 0. -1.
         24    2    1    2    0    0 -0.10072357913E+03  0.41493416741E+02 -0.63570537393E+03  0.64980254936E+03  0.79089112348E+02 0.  0.
        254    2    1    2    0    0  0.10072357913E+03 -0.41493416741E+02  0.69798554011E+03  0.11338375253E+04  0.88686908651E+03 0.  0.
         23    2    4    4    0    0 -0.26983781583E+03  0.95999129135E+02 -0.28775926736E+02  0.30160612767E+03  0.90055108925E+02 0.  0.
         23    2    4    4    0    0  0.37056139496E+03 -0.13749254588E+03  0.72676146684E+03  0.83223139766E+03  0.90592063400E+02 0.  0.
          4    1    3    3  502    0 -0.89490393978E+02  0.20977140762E+02 -0.60076457268E+03  0.60775541366E+03  0.00000000000E+00 0. -1.
         -3    1    3    3    0  502 -0.11233185153E+02  0.20516275979E+02 -0.34940801246E+02  0.42047135699E+02  0.00000000000E+00 0.  1.
         13    1    5    5    0    0 -0.52470822294E+01  0.24692144529E+02 -0.92337402326E+01  0.26879282581E+02  0.00000000000E+00 0.  1.
        -13    1    5    5    0    0 -0.26459073360E+03  0.71306984605E+02 -0.19542186504E+02  0.27472684509E+03  0.00000000000E+00 0. -1.
          1    1    6    6  503    0  0.23367534725E+03 -0.42459688715E+02  0.46012209174E+03  0.51780240671E+03  0.00000000000E+00 0. -1.
         -1    1    6    6    0  503  0.13688604770E+03 -0.95032857160E+02  0.26663937510E+03  0.31442899095E+03  0.00000000000E+00 0.  1.
<mgrwt>
<rscale>  0 0.17825524E+04</rscale>
<asrwt>0</asrwt>
<pdfrwt beam="1">  1        2 0.13241230E+00 0.17825524E+04</pdfrwt>
<pdfrwt beam="2">  1       -1 0.14199386E+00 0.17825524E+04</pdfrwt>
<totfact> 0.13597148E+01</totfact>
</mgrwt>
</event>
<event>
12    7  0.1735955E-007  0.1936801E+04  0.7818608E-02  0.8636752E-01
          2   -1    0    0  501    0  0.00000000000E+00  0.00000000000E+00  0.20644006658E+04  0.20644006658E+04  0.00000000000E+00 0. -1.
         -1   -1    0    0    0  501 -0.00000000000E+00 -0.00000000000E+00 -0.45427190283E+03  0.45427190283E+03  0.00000000000E+00 0.  1.
         24    2    1    2    0    0  0.19598991876E+03  0.98859570289E+02 -0.31070077348E+03  0.38878940847E+03  0.80230733533E+02 0.  0.
        254    2    1    2    0    0 -0.19598991876E+03 -0.98859570289E+02  0.19208295365E+04  0.21298831602E+04  0.89366151584E+03 0.  0.
         23    2    4    4    0    0  0.20722875457E+03  0.26530371434E+03  0.96854552993E+03  0.10296565539E+04  0.93714235329E+02 0.  0.
         23    2    4    4    0    0 -0.40321867333E+03 -0.36416328463E+03  0.95228400653E+03  0.11002266062E+04  0.91943241149E+02 0.  0.
          2    1    3    3  502    0  0.32880698123E+02 -0.13246135790E+02 -0.55110155514E+02  0.65526556931E+02  0.00000000000E+00 0. -1.
         -1    1    3    3    0  502  0.16310922064E+03  0.11210570608E+03 -0.25559061797E+03  0.32326285154E+03  0.00000000000E+00 0.  1.
         13    1    5    5    0    0  0.12521841076E+02 -0.48778426907E+01  0.18024295774E+02  0.22482550820E+02  0.00000000000E+00 0.  1.
        -13    1    5    5    0    0  0.19470691350E+03  0.27018155703E+03  0.95052123416E+03  0.10071740031E+04  0.00000000000E+00 0. -1.
          4    1    6    6  503    0 -0.10127976987E+03 -0.10061727059E+03  0.33619043477E+03  0.36524708809E+03  0.00000000000E+00 0.  1.
         -4    1    6    6    0  503 -0.30193890347E+03 -0.26354601404E+03  0.61609357176E+03  0.73497951815E+03  0.00000000000E+00 0. -1.
<mgrwt>
<rscale>  0 0.19368007E+04</rscale>
<asrwt>0</asrwt>
<pdfrwt beam="1">  1        2 0.31760010E+00 0.19368007E+04</pdfrwt>
<pdfrwt beam="2">  1       -1 0.69887986E-01 0.19368007E+04</pdfrwt>
<totfact> 0.13538370E+01</totfact>
</mgrwt>
</event>
<event>
12    7  0.1735955E-007  0.1240033E+04  0.7818608E-02  0.9078520E-01
          2   -1    0    0  501    0  0.00000000000E+00  0.00000000000E+00  0.11996967769E+04  0.11996967769E+04  0.00000000000E+00 0. -1.
         -1   -1    0    0    0  501 -0.00000000000E+00 -0.00000000000E+00 -0.32043120477E+03  0.32043120477E+03  0.00000000000E+00 0.  1.
         24    2    1    2    0    0  0.14365302005E+03  0.11395129228E+03  0.49682840303E+03  0.53536310607E+03  0.78448110909E+02 0.  0.
        254    2    1    2    0    0 -0.14365302005E+03 -0.11395129228E+03  0.38243716906E+03  0.98476487555E+03  0.88875338799E+03 0.  0.
         23    2    4    4    0    0  0.15235889788E+03 -0.32712973248E+03 -0.87547022496E+02  0.38300533714E+03  0.93816371119E+02 0.  0.
         23    2    4    4    0    0 -0.29601191793E+03  0.21317844020E+03  0.46998419156E+03  0.60175953842E+03  0.90339907234E+02 0.  0.
          4    1    3    3  502    0  0.22598724063E+01  0.17799524996E+02  0.12279589597E+03  0.12409980733E+03  0.00000000000E+00 0. -1.
         -3    1    3    3    0  502  0.14139314764E+03  0.96151767282E+02  0.37403250707E+03  0.41126329874E+03  0.00000000000E+00 0.  1.
         13    1    5    5    0    0  0.76965781799E+02 -0.25637335525E+03 -0.46128039291E+02  0.27162257796E+03  0.00000000000E+00 0. -1.
        -13    1    5    5    0    0  0.75393116084E+02 -0.70756377234E+02 -0.41418983205E+02  0.11138275918E+03  0.00000000000E+00 0.  1.
          1    1    6    6  503    0 -0.22437812820E+03  0.20450563106E+03  0.37559104886E+03  0.48294589089E+03  0.00000000000E+00 0. -1.
         -1    1    6    6    0  503 -0.71633789730E+02  0.86728091479E+01  0.94393142700E+02  0.11881364753E+03  0.00000000000E+00 0.  1.
<mgrwt>
<rscale>  0 0.12400327E+04</rscale>
<asrwt>0</asrwt>
<pdfrwt beam="1">  1        2 0.18456873E+00 0.12400327E+04</pdfrwt>
<pdfrwt beam="2">  1       -1 0.49297109E-01 0.12400327E+04</pdfrwt>
<totfact> 0.87641932E+01</totfact>
</mgrwt>
</event>
<event>
12    7  0.1735955E-007  0.1748907E+04  0.7818608E-02  0.8733952E-01
         -1   -1    0    0    0  501 -0.00000000000E+00  0.00000000000E+00  0.42015872886E+03  0.42015872886E+03  0.00000000000E+00 0.  1.
          2   -1    0    0  501    0  0.00000000000E+00 -0.00000000000E+00 -0.18199517353E+04  0.18199517353E+04  0.00000000000E+00 0. -1.
         24    2    1    2    0    0  0.48039156641E+03 -0.42149154410E+03 -0.47908809676E+03  0.80274622928E+03  0.80280292372E+02 0.  0.
        254    2    1    2    0    0 -0.48039156641E+03  0.42149154410E+03 -0.92070490970E+03  0.14373642349E+04  0.89993735015E+03 0.  0.
         23    2    4    4    0    0 -0.33626386469E+03  0.27082756749E+03  0.46362001662E+02  0.44361057870E+03  0.90663952761E+02 0.  0.
         23    2    4    4    0    0 -0.14412770171E+03  0.15066397661E+03 -0.96706691136E+03  0.99375365619E+03  0.94103612576E+02 0.  0.
          2    1    3    3  502    0  0.18327297848E+03 -0.16440648096E+03 -0.13681757005E+03  0.28166917314E+03  0.00000000000E+00 0. -1.
         -1    1    3    3    0  502  0.29711858792E+03 -0.25708506313E+03 -0.34227052671E+03  0.52107705613E+03  0.00000000000E+00 0.  1.
         13    1    5    5    0    0 -0.32465449220E+03  0.27628661241E+03  0.52252445853E+02  0.42949406236E+03  0.00000000000E+00 0. -1.
        -13    1    5    5    0    0 -0.11609372488E+02 -0.54590449172E+01 -0.58904441914E+01  0.14116516346E+02  0.00000000000E+00 0.  1.
          1    1    6    6  503    0 -0.49550589065E+02  0.10126433360E+03 -0.35547952252E+03  0.37292816609E+03  0.00000000000E+00 0. -1.
         -1    1    6    6    0  503 -0.94577112649E+02  0.49399643008E+02 -0.61158738884E+03  0.62082549010E+03  0.00000000000E+00 0.  1.
<mgrwt>
<rscale>  0 0.17489066E+04</rscale>
<asrwt>0</asrwt>
<pdfrwt beam="1">  1        2 0.27999257E+00 0.17489066E+04</pdfrwt>
<pdfrwt beam="2">  1       -1 0.64639805E-01 0.17489066E+04</pdfrwt>
<totfact> 0.22038105E+01</totfact>
</mgrwt>
</event>
<event>
12    7  0.1735955E-007  0.1404144E+04  0.7818608E-02  0.8950824E-01
          2   -1    0    0  501    0  0.00000000000E+00  0.00000000000E+00  0.25124877422E+04  0.25124877422E+04  0.00000000000E+00 0. -1.
         -1   -1    0    0    0  501 -0.00000000000E+00 -0.00000000000E+00 -0.19618213936E+03  0.19618213936E+03  0.00000000000E+00 0.  1.
         24    2    1    2    0    0  0.35726788475E+03  0.13814162549E+03  0.41607683104E+03  0.57124649240E+03  0.80493326314E+02 0.  0.
        254    2    1    2    0    0 -0.35726788475E+03 -0.13814162549E+03  0.19002287718E+04  0.21374233891E+04  0.90054756077E+03 0.  0.
         23    2    4    4    0    0  0.11782772486E+03  0.27976120514E+03  0.85864089827E+03  0.91516926176E+03  0.90115929967E+02 0.  0.
         23    2    4    4    0    0 -0.47509560961E+03 -0.41790283064E+03  0.10415878735E+04  0.12222541274E+04  0.92958267844E+02 0.  0.
          2    1    3    3  502    0  0.81451650633E+02 -0.29938288456E+01  0.91270318625E+02  0.12236668445E+03  0.00000000000E+00 0. -1.
         -1    1    3    3    0  502  0.27581623412E+03  0.14113545434E+03  0.32480651242E+03  0.44887980795E+03  0.00000000000E+00 0.  1.
         13    1    5    5    0    0  0.71643423996E+02  0.21884978601E+03  0.53194129171E+03  0.57964605309E+03  0.00000000000E+00 0. -1.
        -13    1    5    5    0    0  0.46184300864E+02  0.60911419137E+02  0.32669960656E+03  0.33552320867E+03  0.00000000000E+00 0.  1.
          4    1    6    6  503    0 -0.23385403590E+03 -0.26398784704E+03  0.60332249427E+03  0.69883855473E+03  0.00000000000E+00 0. -1.
         -4    1    6    6    0  503 -0.24124157370E+03 -0.15391498360E+03  0.43826537924E+03  0.52341557265E+03  0.00000000000E+00 0.  1.
<mgrwt>
<rscale>  0 0.14041442E+04</rscale>
<asrwt>0</asrwt>
<pdfrwt beam="1">  1        2 0.38653655E+00 0.14041442E+04</pdfrwt>
<pdfrwt beam="2">  1       -1 0.30181869E-01 0.14041442E+04</pdfrwt>
<totfact> 0.38445990E+01</totfact>
</mgrwt>
</event>
<event>
12    7  0.1735955E-007  0.1608766E+04  0.7818608E-02  0.8815181E-01
         -1   -1    0    0    0  501 -0.00000000000E+00  0.00000000000E+00  0.27031558993E+03  0.27031558993E+03  0.00000000000E+00 0.  1.
          2   -1    0    0  501    0  0.00000000000E+00 -0.00000000000E+00 -0.23936167513E+04  0.23936167513E+04  0.00000000000E+00 0. -1.
         24    2    1    2    0    0  0.21813069810E+03 -0.26194669738E+03 -0.18156801058E+02  0.35014739429E+03  0.77951616912E+02 0.  0.
        254    2    1    2    0    0 -0.21813069810E+03  0.26194669738E+03 -0.21051443603E+04  0.23137849469E+04  0.89764744150E+03 0.  0.
         23    2    4    4    0    0 -0.11161306341E+03  0.52301104945E+03 -0.18328389743E+04  0.19112327640E+04  0.86682978525E+02 0.  0.
         23    2    4    4    0    0 -0.10651763469E+03 -0.26106435207E+03 -0.27230538604E+03  0.40255218296E+03  0.91637515871E+02 0.  0.
          4    1    3    3  502    0  0.10993436182E+03 -0.89444945697E+02  0.19528689266E+02  0.14306408328E+03  0.00000000000E+00 0. -1.
         -3    1    3    3    0  502  0.10819633628E+03 -0.17250175168E+03 -0.37685490324E+02  0.20708331101E+03  0.00000000000E+00 0.  1.
         13    1    5    5    0    0 -0.11297388819E+03  0.49320205382E+03 -0.17803655492E+04  0.18508681352E+04  0.00000000000E+00 0. -1.
        -13    1    5    5    0    0  0.13608247790E+01  0.29808995627E+02 -0.52473425104E+02  0.60364628770E+02  0.00000000000E+00 0.  1.
          2    1    6    6  503    0 -0.10586338947E+02 -0.13611992604E+03 -0.10098671864E+03  0.16982055877E+03  0.00000000000E+00 0. -1.
         -2    1    6    6    0  503 -0.95931295741E+02 -0.12494442603E+03 -0.17131866740E+03  0.23273162419E+03  0.00000000000E+00 0.  1.
<mgrwt>
<rscale>  0 0.16087659E+04</rscale>
<asrwt>0</asrwt>
<pdfrwt beam="1">  1        2 0.36824875E+00 0.16087659E+04</pdfrwt>
<pdfrwt beam="2">  1       -1 0.41587012E-01 0.16087659E+04</pdfrwt>
<totfact> 0.24847194E+01</totfact>
</mgrwt>
</event>
<event>
12    7  0.1735955E-007  0.1591932E+04  0.7818608E-02  0.8825520E-01
          2   -1    0    0  501    0  0.00000000000E+00  0.00000000000E+00  0.22644343748E+04  0.22644343748E+04  0.00000000000E+00 0. -1.
         -1   -1    0    0    0  501 -0.00000000000E+00 -0.00000000000E+00 -0.27978827245E+03  0.27978827245E+03  0.00000000000E+00 0.  1.
         24    2    1    2    0    0 -0.47455166300E+03 -0.20334847912E+03  0.43471592253E+03  0.67965313600E+03  0.80003544612E+02 0.  0.
        254    2    1    2    0    0  0.47455166300E+03  0.20334847912E+03  0.15499301798E+04  0.18645695112E+04  0.89876916677E+03 0.  0.
         23    2    4    4    0    0  0.22504893761E+03  0.23539732799E+03  0.50952037910E+02  0.34196308797E+03  0.91014927474E+02 0.  0.
         23    2    4    4    0    0  0.24950272539E+03 -0.32048848866E+02  0.14989781419E+04  0.15226064233E+04  0.90089464427E+02 0.  0.
          4    1    3    3  502    0 -0.30266655160E+03 -0.14167494585E+03  0.23204411306E+03  0.40684555073E+03  0.00000000000E+00 0. -1.
         -3    1    3    3    0  502 -0.17188511140E+03 -0.61673533268E+02  0.20267180947E+03  0.27280758527E+03  0.00000000000E+00 0.  1.
         13    1    5    5    0    0  0.21138966921E+03  0.20366220184E+03  0.17793114187E+02  0.29407563588E+03  0.00000000000E+00 0.  1.
        -13    1    5    5    0    0  0.13659268396E+02  0.31735126151E+02  0.33158923722E+02  0.47887452087E+02  0.00000000000E+00 0. -1.
          2    1    6    6  503    0  0.54927797753E+02 -0.25672204708E+02  0.19596230012E+03  0.20512763862E+03  0.00000000000E+00 0. -1.
         -2    1    6    6    0  503  0.19457492764E+03 -0.63766441582E+01  0.13030158418E+04  0.13174787846E+04  0.00000000000E+00 0.  1.
<mgrwt>
<rscale>  0 0.15919324E+04</rscale>
<asrwt>0</asrwt>
<pdfrwt beam="1">  1        2 0.34837451E+00 0.15919324E+04</pdfrwt>
<pdfrwt beam="2">  1       -1 0.43044351E-01 0.15919324E+04</pdfrwt>
<totfact> 0.27638202E+01</totfact>
</mgrwt>
</event>
<event>
12    7  0.1735955E-007  0.1647790E+04  0.7818608E-02  0.8791715E-01
          2   -1    0    0  501    0  0.00000000000E+00  0.00000000000E+00  0.19141807389E+04  0.19141807389E+04  0.00000000000E+00 0. -1.
         -1   -1    0    0    0  501 -0.00000000000E+00 -0.00000000000E+00 -0.35461789247E+03  0.35461789247E+03  0.00000000000E+00 0.  1.
         24    2    1    2    0    0 -0.10418168080E+03  0.43319785667E+02  0.13294866487E+04  0.13368797001E+04  0.83559302901E+02 0.  0.
        254    2    1    2    0    0  0.10418168080E+03 -0.43319785667E+02  0.23007619780E+03  0.93191893131E+03  0.89599520718E+03 0.  0.
         23    2    4    4    0    0  0.31845924411E+03  0.78981646192E+02  0.46692655009E+03  0.57804488771E+03  0.91984229319E+02 0.  0.
         23    2    4    4    0    0 -0.21427756330E+03 -0.12230143186E+03 -0.23685035229E+03  0.35387404359E+03  0.90863826577E+02 0.  0.
          2    1    3    3  502    0 -0.57900705885E+02  0.25447372133E+02  0.11123853739E+04  0.11141818885E+04  0.00000000000E+00 0. -1.
         -1    1    3    3    0  502 -0.46280974919E+02  0.17872413534E+02  0.21710127474E+03  0.22269781161E+03  0.00000000000E+00 0.  1.
         13    1    5    5    0    0  0.30077779838E+03  0.53507131342E+02  0.39222395849E+03  0.49716187577E+03  0.00000000000E+00 0. -1.
        -13    1    5    5    0    0  0.17681445721E+02  0.25474514850E+02  0.74702591598E+02  0.80883011943E+02  0.00000000000E+00 0.  1.
          3    1    6    6  503    0 -0.17699839521E+03 -0.59028690935E+02 -0.14515463187E+03  0.23639518907E+03  0.00000000000E+00 0. -1.
         -3    1    6    6    0  503 -0.37279168091E+02 -0.63272740924E+02 -0.91695720419E+02  0.11747885453E+03  0.00000000000E+00 0.  1.
<mgrwt>
<rscale>  0 0.16477897E+04</rscale>
<asrwt>0</asrwt>
<pdfrwt beam="1">  1        2 0.29448934E+00 0.16477897E+04</pdfrwt>
<pdfrwt beam="2">  1       -1 0.54556600E-01 0.16477897E+04</pdfrwt>
<totfact> 0.27544658E+01</totfact>
</mgrwt>
</event>
<event>
12    7  0.1735955E-007  0.1779250E+04  0.7818608E-02  0.8717413E-01
         -1   -1    0    0    0  501 -0.00000000000E+00  0.00000000000E+00  0.48160729603E+03  0.48160729603E+03  0.00000000000E+00 0.  1.
          2   -1    0    0  501    0  0.00000000000E+00 -0.00000000000E+00 -0.16433146039E+04  0.16433146039E+04  0.00000000000E+00 0. -1.
         24    2    1    2    0    0  0.17051009044E+03 -0.53160234223E+03 -0.10364718587E+02  0.56379806063E+03  0.78013361523E+02 0.  0.
        254    2    1    2    0    0 -0.17051009044E+03  0.53160234223E+03 -0.11513425893E+04  0.15611238393E+04  0.89433950072E+03 0.  0.
         23    2    4    4    0    0 -0.51938585504E+03  0.24559074457E+03 -0.52553293645E+03  0.78412968946E+03  0.92725521714E+02 0.  0.
         23    2    4    4    0    0  0.34887576460E+03  0.28601159766E+03 -0.62580965288E+03  0.77699414988E+03  0.92548658456E+02 0.  0.
          2    1    3    3  502    0  0.11151282819E+03 -0.27415915649E+03 -0.37300240850E+02  0.29831135061E+03  0.00000000000E+00 0. -1.
         -1    1    3    3    0  502  0.58997262252E+02 -0.25744318574E+03  0.26935522263E+02  0.26548671002E+03  0.00000000000E+00 0.  1.
         13    1    5    5    0    0 -0.20463382187E+03  0.50333427426E+02 -0.17068577109E+03  0.27118644403E+03  0.00000000000E+00 0. -1.
        -13    1    5    5    0    0 -0.31475203316E+03  0.19525731714E+03 -0.35484716535E+03  0.51294324543E+03  0.00000000000E+00 0.  1.
          1    1    6    6  503    0  0.12207929050E+03  0.15881073689E+03 -0.26153033029E+03  0.32942725598E+03  0.00000000000E+00 0. -1.
         -1    1    6    6    0  503  0.22679647410E+03  0.12720086077E+03 -0.36427932259E+03  0.44756689390E+03  0.00000000000E+00 0.  1.
<mgrwt>
<rscale>  0 0.17792496E+04</rscale>
<asrwt>0</asrwt>
<pdfrwt beam="1">  1        2 0.25281764E+00 0.17792496E+04</pdfrwt>
<pdfrwt beam="2">  1       -1 0.74093429E-01 0.17792496E+04</pdfrwt>
<totfact> 0.20836649E+01</totfact>
</mgrwt>
</event>
<event>
12    7  0.1735955E-007  0.2146107E+04  0.7818608E-02  0.8541200E-01
          2   -1    0    0  501    0  0.00000000000E+00  0.00000000000E+00  0.21548789849E+04  0.21548789849E+04  0.00000000000E+00 0. -1.
         -1   -1    0    0    0  501 -0.00000000000E+00 -0.00000000000E+00 -0.53434283817E+03  0.53434283817E+03  0.00000000000E+00 0.  1.
         24    2    1    2    0    0 -0.80614584815E+03 -0.32844953284E+03  0.94849945359E+03  0.12898618759E+04  0.79638064411E+02 0.  0.
        254    2    1    2    0    0  0.80614584815E+03  0.32844953284E+03  0.67203669313E+03  0.13993599472E+04  0.86534658995E+03 0.  0.
         23    2    4    4    0    0  0.52945399417E+03  0.33026417136E+03  0.84971574231E+03  0.10580907344E+04  0.90239706117E+02 0.  0.
         23    2    4    4    0    0  0.27669185397E+03 -0.18146385206E+01 -0.17767904918E+03  0.34126921282E+03  0.91286122329E+02 0.  0.
          4    1    3    3  502    0 -0.79541341817E+03 -0.31784798798E+03  0.94261520651E+03  0.12736692180E+04  0.00000000000E+00 0. -1.
         -3    1    3    3    0  502 -0.10732429973E+02 -0.10601544864E+02  0.58842470795E+01  0.16192657914E+02  0.00000000000E+00 0.  1.
         13    1    5    5    0    0  0.44073498620E+03  0.23530037275E+03  0.69690966380E+03  0.85749441571E+03  0.00000000000E+00 0. -1.
        -13    1    5    5    0    0  0.88719007968E+02  0.94963798613E+02  0.15280607851E+03  0.20059631864E+03  0.00000000000E+00 0.  1.
          3    1    6    6  503    0  0.16019559681E+03  0.83623722669E+01 -0.15315387019E+03  0.22178518089E+03  0.00000000000E+00 0. -1.
         -3    1    6    6    0  503  0.11649625716E+03 -0.10177010787E+02 -0.24525178995E+02  0.11948403193E+03  0.00000000000E+00 0.  1.
<mgrwt>
<rscale>  0 0.21461073E+04</rscale>
<asrwt>0</asrwt>
<pdfrwt beam="1">  1        2 0.33151984E+00 0.21461073E+04</pdfrwt>
<pdfrwt beam="2">  1       -1 0.82206592E-01 0.21461073E+04</pdfrwt>
<totfact> 0.84177699E+00</totfact>
</mgrwt>
</event>
<event>
12    7  0.1735955E-007  0.1171743E+04  0.7818608E-02  0.9137956E-01
         -1   -1    0    0    0  501 -0.00000000000E+00  0.00000000000E+00  0.14401780123E+04  0.14401780123E+04  0.00000000000E+00 0.  1.
          2   -1    0    0  501    0  0.00000000000E+00 -0.00000000000E+00 -0.23833549067E+03  0.23833549067E+03  0.00000000000E+00 0. -1.
         24    2    1    2    0    0 -0.41401913828E+02  0.22312257274E+03  0.25601273041E+03  0.35091934295E+03  0.78128523541E+02 0.  0.
        254    2    1    2    0    0  0.41401913828E+02 -0.22312257274E+03  0.94582979126E+03  0.13275941601E+04  0.90355656095E+03 0.  0.
         23    2    4    4    0    0 -0.25080503808E+03 -0.74906166895E+02 -0.43983079636E+02  0.28068079736E+03  0.91285802549E+02 0.  0.
         23    2    4    4    0    0  0.29220695191E+03 -0.14821640585E+03  0.98981287090E+03  0.10469133627E+04  0.94578347931E+02 0.  0.
          2    1    3    3  502    0 -0.12015882083E+02  0.14681181529E+03  0.11101196740E+03  0.18444985074E+03  0.00000000000E+00 0. -1.
         -1    1    3    3    0  502 -0.29386031744E+02  0.76310757446E+02  0.14500076301E+03  0.16646949221E+03  0.00000000000E+00 0.  1.
         13    1    5    5    0    0 -0.22323206169E+02 -0.32281364266E+02 -0.26997992149E+02  0.47637208069E+02  0.00000000000E+00 0. -1.
        -13    1    5    5    0    0 -0.22848183191E+03 -0.42624802629E+02 -0.16985087487E+02  0.23304358929E+03  0.00000000000E+00 0.  1.
          1    1    6    6  503    0  0.14901716542E+03 -0.12430603009E+03  0.61856863961E+03  0.64829412046E+03  0.00000000000E+00 0. -1.
         -1    1    6    6    0  503  0.14318978648E+03 -0.23910375754E+02  0.37124423128E+03  0.39861924224E+03  0.00000000000E+00 0.  1.
<mgrwt>
<rscale>  0 0.11717432E+04</rscale>
<asrwt>0</asrwt>
<pdfrwt beam="1">  1        2 0.36667000E-01 0.11717432E+04</pdfrwt>
<pdfrwt beam="2">  1       -1 0.22156584E+00 0.11717432E+04</pdfrwt>
<totfact> 0.17314099E+01</totfact>
</mgrwt>
</event>
<event>
12    7  0.1735955E-007  0.1642679E+04  0.7818608E-02  0.8794750E-01
         -1   -1    0    0    0  501 -0.00000000000E+00  0.00000000000E+00  0.49332375662E+03  0.49332375662E+03  0.00000000000E+00 0.  1.
          2   -1    0    0  501    0  0.00000000000E+00 -0.00000000000E+00 -0.13674554147E+04  0.13674554147E+04  0.00000000000E+00 0. -1.
         24    2    1    2    0    0 -0.35930322242E+03  0.44545796807E+03 -0.34437079337E+03  0.67271624557E+03  0.80151710908E+02 0.  0.
        254    2    1    2    0    0  0.35930322242E+03 -0.44545796807E+03 -0.52976086466E+03  0.11880629257E+04  0.89627860331E+03 0.  0.
         23    2    4    4    0    0  0.54938004257E+03 -0.43477891934E+03 -0.10601485600E+03  0.71454946082E+03  0.92144681849E+02 0.  0.
         23    2    4    4    0    0 -0.19007682014E+03 -0.10679048734E+02 -0.42374600866E+03  0.47351346489E+03  0.91711950895E+02 0.  0.
          4    1    3    3  502    0 -0.30252198058E+03  0.37559690610E+03 -0.32218659189E+03  0.57999722810E+03  0.00000000000E+00 0. -1.
         -3    1    3    3    0  502 -0.56781241840E+02  0.69861061974E+02 -0.22184201473E+02  0.92719017467E+02  0.00000000000E+00 0.  1.
         13    1    5    5    0    0  0.17828032236E+03 -0.15215597110E+03 -0.78858990577E+02  0.24729345579E+03  0.00000000000E+00 0.  1.
        -13    1    5    5    0    0  0.37109972020E+03 -0.28262294824E+03 -0.27155865421E+02  0.46725600502E+03  0.00000000000E+00 0. -1.
          2    1    6    6  503    0 -0.66716061976E+02  0.11742958854E+02 -0.66596837411E+02  0.94995098618E+02  0.00000000000E+00 0.  1.
         -2    1    6    6    0  503 -0.12336075817E+03 -0.22422007588E+02 -0.35714917125E+03  0.37851836627E+03  0.00000000000E+00 0. -1.
<mgrwt>
<rscale>  0 0.16426786E+04</rscale>
<asrwt>0</asrwt>
<pdfrwt beam="1">  1        2 0.21037775E+00 0.16426786E+04</pdfrwt>
<pdfrwt beam="2">  1       -1 0.75895963E-01 0.16426786E+04</pdfrwt>
<totfact> 0.28702691E+01</totfact>
</mgrwt>
</event>
<event>
12    7  0.1735955E-007  0.1850103E+04  0.7818608E-02  0.8680100E-01
          2   -1    0    0  501    0  0.00000000000E+00  0.00000000000E+00  0.87560137193E+03  0.87560137193E+03  0.00000000000E+00 0. -1.
         -1   -1    0    0    0  501 -0.00000000000E+00 -0.00000000000E+00 -0.97729446199E+03  0.97729446199E+03  0.00000000000E+00 0.  1.
         24    2    1    2    0    0 -0.29833748988E+03  0.37276375498E+03 -0.55992455582E+03  0.74012997465E+03  0.79490856566E+02 0.  0.
        254    2    1    2    0    0  0.29833748988E+03 -0.37276375498E+03  0.45823146576E+03  0.11127658593E+04  0.89460254103E+03 0.  0.
         23    2    4    4    0    0  0.41988642136E+02 -0.97713699186E+01  0.62231414095E+03  0.63100479213E+03  0.95045420305E+02 0.  0.
         23    2    4    4    0    0  0.25634884774E+03 -0.36299238506E+03 -0.16408267519E+03  0.48176106713E+03  0.87706317625E+02 0.  0.
          2    1    3    3  502    0 -0.14221180223E+03  0.20506176866E+03 -0.23684369084E+03  0.34404862963E+03  0.00000000000E+00 0. -1.
         -1    1    3    3    0  502 -0.15612568764E+03  0.16770198632E+03 -0.32308086498E+03  0.39608134502E+03  0.00000000000E+00 0.  1.
         13    1    5    5    0    0  0.53060883377E+02  0.65471685196E+01  0.16884784137E+03  0.17710989892E+03  0.00000000000E+00 0.  1.
        -13    1    5    5    0    0 -0.11072241241E+02 -0.16318538438E+02  0.45346629959E+03  0.45389489321E+03  0.00000000000E+00 0. -1.
          3    1    6    6  503    0  0.18932181339E+03 -0.26279861670E+03 -0.76629163633E+02  0.33283312738E+03  0.00000000000E+00 0. -1.
         -3    1    6    6    0  503  0.67027034351E+02 -0.10019376836E+03 -0.87453511562E+02  0.14892793975E+03  0.00000000000E+00 0.  1.
<mgrwt>
<rscale>  0 0.18501031E+04</rscale>
<asrwt>0</asrwt>
<pdfrwt beam="1">  1        2 0.13470790E+00 0.18501031E+04</pdfrwt>
<pdfrwt beam="2">  1       -1 0.15035299E+00 0.18501031E+04</pdfrwt>
<totfact> 0.11335468E+01</totfact>
</mgrwt>
</event>
<event>
12    7  0.1735955E-007  0.1423088E+04  0.7818608E-02  0.8937274E-01
          2   -1    0    0  501    0  0.00000000000E+00  0.00000000000E+00  0.19274454099E+04  0.19274454099E+04  0.00000000000E+00 0. -1.
         -1   -1    0    0    0  501 -0.00000000000E+00 -0.00000000000E+00 -0.26267644950E+03  0.26267644950E+03  0.00000000000E+00 0.  1.
         24    2    1    2    0    0 -0.20329786162E+03  0.18541340600E+03  0.99516184704E+03  0.10355159501E+04  0.78981197233E+02 0.  0.
        254    2    1    2    0    0  0.20329786162E+03 -0.18541340600E+03  0.66960711333E+03  0.11546059092E+04  0.89946259943E+03 0.  0.
         23    2    4    4    0    0  0.27956094545E+02 -0.51795280454E+03  0.24757240532E+03  0.58215686814E+03  0.92508768742E+02 0.  0.
         23    2    4    4    0    0  0.17534176707E+03  0.33253939854E+03  0.42203470801E+03  0.57244904111E+03  0.90870363913E+02 0.  0.
          2    1    3    3  502    0 -0.20975870369E+03  0.18341960735E+03  0.95620330804E+03  0.99597501597E+03  0.00000000000E+00 0. -1.
         -1    1    3    3    0  502  0.64608420727E+01  0.19937986440E+01  0.38958539006E+02  0.39540934167E+02  0.00000000000E+00 0.  1.
         13    1    5    5    0    0 -0.26942039744E+02 -0.12070579543E+03  0.36342211871E+02  0.12890507717E+03  0.00000000000E+00 0. -1.
        -13    1    5    5    0    0  0.54898134289E+02 -0.39724700910E+03  0.21123019345E+03  0.45325179097E+03  0.00000000000E+00 0.  1.
          1    1    6    6  503    0  0.11796024906E+03  0.12735571469E+03  0.19639385347E+03  0.26211570747E+03  0.00000000000E+00 0. -1.
         -1    1    6    6    0  503  0.57381518010E+02  0.20518368385E+03  0.22564085454E+03  0.31033333363E+03  0.00000000000E+00 0.  1.
<mgrwt>
<rscale>  0 0.14230875E+04</rscale>
<asrwt>0</asrwt>
<pdfrwt beam="1">  1        2 0.29653005E+00 0.14230875E+04</pdfrwt>
<pdfrwt beam="2">  1       -1 0.40411763E-01 0.14230875E+04</pdfrwt>
<totfact> 0.48525374E+01</totfact>
</mgrwt>
</event>
<event>
12    7  0.1744982E-007  0.2080556E+04  0.7818608E-02  0.8569857E-01
         -1   -1    0    0    0  501 -0.00000000000E+00  0.00000000000E+00  0.36667054405E+03  0.36667054405E+03  0.00000000000E+00 0.  1.
          2   -1    0    0  501    0  0.00000000000E+00 -0.00000000000E+00 -0.29513637276E+04  0.29513637276E+04  0.00000000000E+00 0. -1.
         24    2    1    2    0    0 -0.24174360802E+01  0.16667882324E+03  0.26408278715E+03  0.32316225328E+03  0.83105050167E+02 0.  0.
        254    2    1    2    0    0  0.24174360802E+01 -0.16667882324E+03 -0.28487759707E+04  0.29948720184E+04  0.90881582355E+03 0.  0.
         23    2    4    4    0    0  0.87355501834E+02  0.30443293117E+03 -0.52209434903E+03  0.61773737034E+03  0.93308928502E+02 0.  0.
         23    2    4    4    0    0 -0.84938065753E+02 -0.47111175441E+03 -0.23266816216E+04  0.23771346480E+04  0.90338287414E+02 0.  0.
          2    1    3    3  502    0 -0.53366068924E+01  0.26781866730E+01 -0.51591204774E+01  0.78910443592E+01  0.00000000000E+00 0. -1.
         -1    1    3    3    0  502  0.29191708122E+01  0.16400063657E+03  0.26924190762E+03  0.31527120892E+03  0.00000000000E+00 0.  1.
         13    1    5    5    0    0  0.27376229126E+02  0.19976777448E+03 -0.38870167731E+03  0.43788767462E+03  0.00000000000E+00 0.  1.
        -13    1    5    5    0    0  0.59979272707E+02  0.10466515669E+03 -0.13339267172E+03  0.17984969571E+03  0.00000000000E+00 0. -1.
          4    1    6    6  503    0 -0.31123986196E+02 -0.10554749522E+03 -0.73055561168E+03  0.73879664185E+03  0.00000000000E+00 0. -1.
         -4    1    6    6    0  503 -0.53814079557E+02 -0.36556425919E+03 -0.15961260100E+04  0.16383380062E+04  0.00000000000E+00 0.  1.
<mgrwt>
<rscale>  0 0.20805558E+04</rscale>
<asrwt>0</asrwt>
<pdfrwt beam="1">  1        2 0.45405598E+00 0.20805558E+04</pdfrwt>
<pdfrwt beam="2">  1       -1 0.56410850E-01 0.20805558E+04</pdfrwt>
<totfact> 0.62485763E+00</totfact>
</mgrwt>
</event>
<event>
12    7  0.1735955E-007  0.2565795E+04  0.7818608E-02  0.8379913E-01
         -1   -1    0    0    0  501 -0.00000000000E+00  0.00000000000E+00  0.91380973590E+03  0.91380973590E+03  0.00000000000E+00 0.  1.
          2   -1    0    0  501    0  0.00000000000E+00 -0.00000000000E+00 -0.18010604765E+04  0.18010604765E+04  0.00000000000E+00 0. -1.
         24    2    1    2    0    0  0.98627958222E+03  0.21329553519E+03 -0.88954717291E+03  0.13474108180E+04  0.77326191238E+02 0.  0.
        254    2    1    2    0    0 -0.98627958222E+03 -0.21329553519E+03  0.22964323046E+01  0.13674593945E+04  0.92287459726E+03 0.  0.
         23    2    4    4    0    0 -0.48291243865E+03 -0.37081412657E+03 -0.36645334994E+03  0.71637986944E+03  0.90578804282E+02 0.  0.
         23    2    4    4    0    0 -0.50336714357E+03  0.15751859138E+03  0.36874978224E+03  0.65107952503E+03  0.98679066396E+02 0.  0.
          4    1    3    3  502    0  0.85504586685E+03  0.18213010749E+03 -0.80372514551E+03  0.11875390183E+04  0.00000000000E+00 0. -1.
         -3    1    3    3    0  502  0.13123371538E+03  0.31165427694E+02 -0.85822027403E+02  0.15987179965E+03  0.00000000000E+00 0.  1.
         13    1    5    5    0    0 -0.41744893124E+03 -0.30713788463E+03 -0.34492716639E+03  0.62255284152E+03  0.00000000000E+00 0.  1.
        -13    1    5    5    0    0 -0.65463507414E+02 -0.63676241939E+02 -0.21526183553E+02  0.93827027923E+02  0.00000000000E+00 0. -1.
          3    1    6    6  503    0 -0.33364890843E+01 -0.89191052164E+01  0.52611870852E+01  0.10879461697E+02  0.00000000000E+00 0. -1.
         -3    1    6    6    0  503 -0.50003065449E+03  0.16643769660E+03  0.36348859516E+03  0.64020006333E+03  0.00000000000E+00 0.  1.
<mgrwt>
<rscale>  0 0.25657955E+04</rscale>
<asrwt>0</asrwt>
<pdfrwt beam="1">  1        2 0.27708623E+00 0.25657955E+04</pdfrwt>
<pdfrwt beam="2">  1       -1 0.14058611E+00 0.25657955E+04</pdfrwt>
<totfact> 0.36072140E+00</totfact>
</mgrwt>
</event>
<event>
12    7  0.1735955E-007  0.1417363E+04  0.7818608E-02  0.8941345E-01
         -1   -1    0    0    0  501 -0.00000000000E+00  0.00000000000E+00  0.80503722235E+03  0.80503722235E+03  0.00000000000E+00 0.  1.
          2   -1    0    0  501    0  0.00000000000E+00 -0.00000000000E+00 -0.62385874437E+03  0.62385874437E+03  0.00000000000E+00 0. -1.
         24    2    1    2    0    0 -0.21187551445E+03 -0.26724442012E+03 -0.19015288473E+03  0.39858298083E+03  0.79996620700E+02 0.  0.
        254    2    1    2    0    0  0.21187551445E+03  0.26724442012E+03  0.37133136272E+03  0.10303129859E+04  0.89852493247E+03 0.  0.
         23    2    4    4    0    0 -0.20933175035E+03 -0.17665612919E+03 -0.33370286424E+02  0.29069145708E+03  0.91437287355E+02 0.  0.
         23    2    4    4    0    0  0.42120726480E+03  0.44390054931E+03  0.40470164914E+03  0.73962152882E+03  0.93772722452E+02 0.  0.
          2    1    3    3  502    0 -0.18194824768E+03 -0.26338818633E+03 -0.17331377085E+03  0.36402769770E+03  0.00000000000E+00 0. -1.
         -1    1    3    3    0  502 -0.29927266767E+02 -0.38562337962E+01 -0.16839113885E+02  0.34555283122E+02  0.00000000000E+00 0.  1.
         13    1    5    5    0    0 -0.12846819359E+03 -0.66620658156E+02  0.15756849424E+02  0.14557014516E+03  0.00000000000E+00 0.  1.
        -13    1    5    5    0    0 -0.80863556757E+02 -0.11003547103E+03 -0.49127135847E+02  0.14512131192E+03  0.00000000000E+00 0. -1.
          2    1    6    6  503    0  0.15431191361E+03  0.22696908979E+03  0.19691923701E+03  0.33779331003E+03  0.00000000000E+00 0. -1.
         -2    1    6    6    0  503  0.26689535119E+03  0.21693145952E+03  0.20778241213E+03  0.40182821878E+03  0.00000000000E+00 0.  1.
<mgrwt>
<rscale>  0 0.14173631E+04</rscale>
<asrwt>0</asrwt>
<pdfrwt beam="1">  1        2 0.95978269E-01 0.14173631E+04</pdfrwt>
<pdfrwt beam="2">  1       -1 0.12385188E+00 0.14173631E+04</pdfrwt>
<totfact> 0.30090627E+01</totfact>
</mgrwt>
</event>
<event>
12    7  0.1735955E-007  0.1372607E+04  0.7818608E-02  0.8973889E-01
          2   -1    0    0  501    0  0.00000000000E+00  0.00000000000E+00  0.38950886016E+03  0.38950886016E+03  0.00000000000E+00 0. -1.
         -1   -1    0    0    0  501 -0.00000000000E+00 -0.00000000000E+00 -0.12092478434E+04  0.12092478434E+04  0.00000000000E+00 0.  1.
         24    2    1    2    0    0  0.31631862909E+03 -0.12417640514E+03 -0.45453141001E+03  0.57310776087E+03  0.79852665434E+02 0.  0.
        254    2    1    2    0    0 -0.31631862909E+03  0.12417640514E+03 -0.36520757327E+03  0.10256489427E+04  0.89615954353E+03 0.  0.
         23    2    4    4    0    0  0.17085845107E+03 -0.36652855126E+02 -0.45484564972E+03  0.49584127533E+03  0.91858386464E+02 0.  0.
         23    2    4    4    0    0 -0.48717708016E+03  0.16082926027E+03  0.89638076445E+02  0.52980766740E+03  0.97229734644E+02 0.  0.
          2    1    3    3  502    0  0.10480831516E+02 -0.21903384556E+02 -0.17300475659E+02  0.29814636377E+02  0.00000000000E+00 0. -1.
         -1    1    3    3    0  502  0.30583779757E+03 -0.10227302059E+03 -0.43723093435E+03  0.54329312449E+03  0.00000000000E+00 0.  1.
         13    1    5    5    0    0  0.62631432298E+02  0.26800580544E+02 -0.20920503673E+03  0.22001753299E+03  0.00000000000E+00 0.  1.
        -13    1    5    5    0    0  0.10822701878E+03 -0.63453435670E+02 -0.24564061299E+03  0.27582374234E+03  0.00000000000E+00 0. -1.
          4    1    6    6  503    0 -0.40258431100E+03  0.16060045261E+03  0.99298279731E+02  0.44466479645E+03  0.00000000000E+00 0. -1.
         -4    1    6    6    0  503 -0.84592769158E+02  0.22880765830E+00 -0.96602032867E+01  0.85142870954E+02  0.00000000000E+00 0.  1.
<mgrwt>
<rscale>  0 0.13726074E+04</rscale>
<asrwt>0</asrwt>
<pdfrwt beam="1">  1        2 0.59924441E-01 0.13726074E+04</pdfrwt>
<pdfrwt beam="2">  1       -1 0.18603813E+00 0.13726074E+04</pdfrwt>
<totfact> 0.17231561E+01</totfact>
</mgrwt>
</event>
<event>
12    7  0.1844770E-007  0.2325799E+04  0.7818608E-02  0.8467818E-01
         -1   -1    0    0    0  501 -0.00000000000E+00  0.00000000000E+00  0.10158333743E+04  0.10158333743E+04  0.00000000000E+00 0.  1.
          2   -1    0    0  501    0  0.00000000000E+00 -0.00000000000E+00 -0.13312572307E+04  0.13312572307E+04  0.00000000000E+00 0. -1.
         24    2    1    2    0    0  0.14877995417E+03  0.13962085458E+03  0.81867691700E+03  0.84750969865E+03  0.80070825360E+02 0.  0.
        254    2    1    2    0    0 -0.14877995417E+03 -0.13962085458E+03 -0.11341007734E+04  0.14995809064E+04  0.95965039094E+03 0.  0.
         23    2    4    4    0    0  0.21704665499E+03 -0.32152505298E+03 -0.97285559783E+03  0.10513789446E+04  0.91989459753E+02 0.  0.
         23    2    4    4    0    0 -0.36582660916E+03  0.18190419841E+03 -0.16124517556E+03  0.44820196183E+03  0.89256633256E+02 0.  0.
          4    1    3    3  502    0  0.47724711883E+01 -0.59936080817E+01  0.97993838394E+02  0.98292889785E+02  0.00000000000E+00 0. -1.
         -3    1    3    3    0  502  0.14400748298E+03  0.14561446266E+03  0.72068307861E+03  0.74921680887E+03  0.00000000000E+00 0.  1.
         13    1    5    5    0    0  0.21419283126E+03 -0.29500414460E+03 -0.83729537600E+03  0.91321933891E+03  0.00000000000E+00 0.  1.
        -13    1    5    5    0    0  0.28538237349E+01 -0.26520908388E+02 -0.13556022184E+03  0.13815960566E+03  0.00000000000E+00 0. -1.
          4    1    6    6  503    0 -0.20437117514E+03  0.87471480863E+02 -0.41592151933E+02  0.22616088144E+03  0.00000000000E+00 0. -1.
         -4    1    6    6    0  503 -0.16145543402E+03  0.94432717543E+02 -0.11965302362E+03  0.22204108039E+03  0.00000000000E+00 0.  1.
<mgrwt>
<rscale>  0 0.23257992E+04</rscale>
<asrwt>0</asrwt>
<pdfrwt beam="1">  1        2 0.20480880E+00 0.23257992E+04</pdfrwt>
<pdfrwt beam="2">  1       -1 0.15628206E+00 0.23257992E+04</pdfrwt>
<totfact> 0.50990120E+00</totfact>
</mgrwt>
</event>
<event>
12    7  0.1735955E-007  0.1267317E+04  0.7818608E-02  0.9055892E-01
          2   -1    0    0  501    0  0.00000000000E+00  0.00000000000E+00  0.16595468081E+04  0.16595468081E+04  0.00000000000E+00 0. -1.
         -1   -1    0    0    0  501 -0.00000000000E+00 -0.00000000000E+00 -0.24194738210E+03  0.24194738210E+03  0.00000000000E+00 0.  1.
         24    2    1    2    0    0  0.18942551743E+03  0.20238380945E+03  0.50431441436E+03  0.58079917501E+03  0.78443738912E+02 0.  0.
        254    2    1    2    0    0 -0.18942551743E+03 -0.20238380945E+03  0.91328501168E+03  0.13206950152E+04  0.91285517894E+03 0.  0.
         23    2    4    4    0    0 -0.50948163199E+02 -0.16063393763E+03  0.10715820718E+04  0.10877488475E+04  0.80687306229E+02 0.  0.
         23    2    4    4    0    0 -0.13847735423E+03 -0.41749871823E+02 -0.15829706014E+03  0.23294616771E+03  0.91032567650E+02 0.  0.
          4    1    3    3  502    0  0.17777785024E+03  0.14733041454E+03  0.42298920805E+03  0.48190360572E+03  0.00000000000E+00 0. -1.
         -1    1    3    3    0  502  0.11647667193E+02  0.55053394909E+02  0.81325206314E+02  0.98895569284E+02  0.00000000000E+00 0.  1.
         13    1    5    5    0    0 -0.36887707049E+02 -0.10767605659E+03  0.46623146461E+03  0.47992355088E+03  0.00000000000E+00 0. -1.
        -13    1    5    5    0    0 -0.14060456150E+02 -0.52957881039E+02  0.60535060720E+03  0.60782529664E+03  0.00000000000E+00 0.  1.
          3    1    6    6  503    0 -0.57212994062E+02  0.86148294110E+01 -0.11343417829E+03  0.12733756233E+03  0.00000000000E+00 0. -1.
         -3    1    6    6    0  503 -0.81264360168E+02 -0.50364701234E+02 -0.44862881846E+02  0.10560860539E+03  0.00000000000E+00 0.  1.
<mgrwt>
<rscale>  0 0.12673169E+04</rscale>
<asrwt>0</asrwt>
<pdfrwt beam="1">  1        2 0.25531489E+00 0.12673169E+04</pdfrwt>
<pdfrwt beam="2">  1       -1 0.37222675E-01 0.12673169E+04</pdfrwt>
<totfact> 0.80264505E+01</totfact>
</mgrwt>
</event>
<event>
12    7  0.1735955E-007  0.2676520E+04  0.7818608E-02  0.8342664E-01
         -1   -1    0    0    0  501 -0.00000000000E+00  0.00000000000E+00  0.89205118731E+03  0.89205118731E+03  0.00000000000E+00 0.  1.
          2   -1    0    0  501    0  0.00000000000E+00 -0.00000000000E+00 -0.20076642810E+04  0.20076642810E+04  0.00000000000E+00 0. -1.
         24    2    1    2    0    0 -0.48007105790E+03  0.37134913511E+03 -0.15919204815E+04  0.17055512226E+04  0.79534599675E+02 0.  0.
        254    2    1    2    0    0  0.48007105790E+03 -0.37134913511E+03  0.47630738787E+03  0.11941642457E+04  0.91147743645E+03 0.  0.
         23    2    4    4    0    0  0.63419416442E+02 -0.57220537635E+03  0.42156649071E+03  0.71944470557E+03  0.91876891383E+02 0.  0.
         23    2    4    4    0    0  0.41665164146E+03  0.20085624125E+03  0.54740897159E+02  0.47471954012E+03  0.91761952728E+02 0.  0.
          4    1    3    3  502    0 -0.34974551637E+03  0.27795588056E+03 -0.12618654921E+04  0.13386134311E+04  0.00000000000E+00 0. -1.
         -3    1    3    3    0  502 -0.13032554153E+03  0.93393254547E+02 -0.33005498943E+03  0.36693779149E+03  0.00000000000E+00 0.  1.
         13    1    5    5    0    0  0.69944567498E+02 -0.44253392615E+03  0.36471776529E+03  0.57770889437E+03  0.00000000000E+00 0.  1.
        -13    1    5    5    0    0 -0.65251510565E+01 -0.12967145020E+03  0.56848725425E+02  0.14173581120E+03  0.00000000000E+00 0. -1.
          3    1    6    6  503    0  0.15147152451E+03  0.70021258260E+02  0.64383733289E+02  0.17886269722E+03  0.00000000000E+00 0. -1.
         -3    1    6    6    0  503  0.26518011695E+03  0.13083498299E+03 -0.96428361299E+01  0.29585684289E+03  0.00000000000E+00 0.  1.
<mgrwt>
<rscale>  0 0.26765196E+04</rscale>
<asrwt>0</asrwt>
<pdfrwt beam="1">  1        2 0.30887143E+00 0.26765196E+04</pdfrwt>
<pdfrwt beam="2">  1       -1 0.13723864E+00 0.26765196E+04</pdfrwt>
<totfact> 0.29209814E+00</totfact>
</mgrwt>
</event>
<event>
12    7  0.1735955E-007  0.1575739E+04  0.7818608E-02  0.8835593E-01
         -1   -1    0    0    0  501 -0.00000000000E+00  0.00000000000E+00  0.21382078047E+03  0.21382078047E+03  0.00000000000E+00 0.  1.
          2   -1    0    0  501    0  0.00000000000E+00 -0.00000000000E+00 -0.29030779223E+04  0.29030779223E+04  0.00000000000E+00 0. -1.
         24    2    1    2    0    0  0.16554660337E+03 -0.46959750395E+03 -0.13002718353E+04  0.13946704815E+04  0.80445092087E+02 0.  0.
        254    2    1    2    0    0 -0.16554660337E+03  0.46959750395E+03 -0.13889853066E+04  0.17222282213E+04  0.88817924467E+03 0.  0.
         23    2    4    4    0    0 -0.45814478041E+01  0.78852808036E+02  0.10688435018E+03  0.16518718861E+03  0.98100907072E+02 0.  0.
         23    2    4    4    0    0 -0.16096515556E+03  0.39074469591E+03 -0.14958696568E+04  0.15570410327E+04  0.90330220214E+02 0.  0.
          2    1    3    3  502    0  0.12621082791E+03 -0.31168383780E+03 -0.96674403843E+03  0.10235575331E+04  0.00000000000E+00 0. -1.
         -1    1    3    3    0  502  0.39335775454E+02 -0.15791366615E+03 -0.33352779683E+03  0.37111294837E+03  0.00000000000E+00 0.  1.
         13    1    5    5    0    0 -0.30028544690E+02 -0.96385466168E+00  0.64820958438E+02  0.71445077961E+02  0.00000000000E+00 0.  1.
        -13    1    5    5    0    0  0.25447096886E+02  0.79816662698E+02  0.42063391743E+02  0.93742110650E+02  0.00000000000E+00 0. -1.
          4    1    6    6  503    0 -0.16215754680E+03  0.39243851398E+03 -0.14958701187E+04  0.15549696040E+04  0.00000000000E+00 0.  1.
         -4    1    6    6    0  503  0.11923912418E+01 -0.16938180735E+01  0.46195868870E-03  0.20714286744E+01  0.00000000000E+00 0. -1.
<mgrwt>
<rscale>  0 0.15757390E+04</rscale>
<asrwt>0</asrwt>
<pdfrwt beam="1">  1        2 0.44662732E+00 0.15757390E+04</pdfrwt>
<pdfrwt beam="2">  1       -1 0.32895509E-01 0.15757390E+04</pdfrwt>
<totfact> 0.19072637E+01</totfact>
</mgrwt>
</event>
<event>
12    7  0.1735955E-007  0.1158562E+04  0.7818608E-02  0.9149921E-01
         -1   -1    0    0    0  501 -0.00000000000E+00  0.00000000000E+00  0.20273290823E+03  0.20273290823E+03  0.00000000000E+00 0.  1.
          2   -1    0    0  501    0  0.00000000000E+00 -0.00000000000E+00 -0.16552155938E+04  0.16552155938E+04  0.00000000000E+00 0. -1.
         24    2    1    2    0    0 -0.12857197011E+03 -0.37672979040E+02 -0.58972674510E+03  0.60882595396E+03  0.70295117069E+02 0.  0.
        254    2    1    2    0    0  0.12857197011E+03  0.37672979040E+02 -0.86275594048E+03  0.12491225481E+04  0.89331367528E+03 0.  0.
         23    2    4    4    0    0  0.35183756063E+03 -0.20120092918E+03 -0.80359923206E+03  0.90455962324E+03  0.90470455128E+02 0.  0.
         23    2    4    4    0    0 -0.22326559053E+03  0.23887390822E+03 -0.59156708424E+02  0.34456292484E+03  0.91191145859E+02 0.  0.
          2    1    3    3  502    0 -0.13057715588E+03 -0.48573615743E+02 -0.56085840884E+03  0.57790305809E+03  0.00000000000E+00 0. -1.
         -1    1    3    3    0  502  0.20051857771E+01  0.10900636703E+02 -0.28868336256E+02  0.30922895866E+02  0.00000000000E+00 0.  1.
         13    1    5    5    0    0  0.34527583711E+03 -0.17627577735E+03 -0.72958037000E+03  0.82618162027E+03  0.00000000000E+00 0.  1.
        -13    1    5    5    0    0  0.65617235172E+01 -0.24925151832E+02 -0.74018862060E+02  0.78378002973E+02  0.00000000000E+00 0. -1.
          3    1    6    6  503    0 -0.36892676550E+02  0.35017530698E+02  0.23807838384E+02  0.56161465506E+02  0.00000000000E+00 0. -1.
         -3    1    6    6    0  503 -0.18637291398E+03  0.20385637752E+03 -0.82964546809E+02  0.28840145934E+03  0.00000000000E+00 0.  1.
<mgrwt>
<rscale>  0 0.11585623E+04</rscale>
<asrwt>0</asrwt>
<pdfrwt beam="1">  1        2 0.25464856E+00 0.11585623E+04</pdfrwt>
<pdfrwt beam="2">  1       -1 0.31189677E-01 0.11585623E+04</pdfrwt>
<totfact> 0.11152348E+02</totfact>
</mgrwt>
</event>
<event>
12    7  0.1735955E-007  0.3402142E+04  0.7818608E-02  0.8137381E-01
          2   -1    0    0  501    0  0.00000000000E+00  0.00000000000E+00  0.18524102287E+04  0.18524102287E+04  0.00000000000E+00 0. -1.
         -1   -1    0    0    0  501 -0.00000000000E+00 -0.00000000000E+00 -0.15620961624E+04  0.15620961624E+04  0.00000000000E+00 0.  1.
         24    2    1    2    0    0 -0.50066433235E+02  0.78587757568E+02 -0.14551737903E+04  0.14602133201E+04  0.77520943957E+02 0.  0.
        254    2    1    2    0    0  0.50066433235E+02 -0.78587757568E+02  0.17454878566E+04  0.19542930710E+04  0.87398562135E+03 0.  0.
         23    2    4    4    0    0  0.40806735925E+03 -0.23143323257E+03  0.92093488044E+03  0.10377095782E+04  0.92950545248E+02 0.  0.
         23    2    4    4    0    0 -0.35800092601E+03  0.15284547500E+03  0.82455297615E+03  0.91658349275E+03  0.93334272679E+02 0.  0.
          4    1    3    3  502    0 -0.49379884888E+02  0.26357474134E+02 -0.41879868383E+03  0.42252269412E+03  0.00000000000E+00 0. -1.
         -3    1    3    3    0  502 -0.68654834736E+00  0.52230283434E+02 -0.10363751065E+04  0.10376906259E+04  0.00000000000E+00 0.  1.
         13    1    5    5    0    0  0.47395396678E+02  0.18202986238E+01  0.11649170541E+03  0.12577740076E+03  0.00000000000E+00 0. -1.
        -13    1    5    5    0    0  0.36067196257E+03 -0.23325353120E+03  0.80444317503E+03  0.91193217744E+03  0.00000000000E+00 0.  1.
          2    1    6    6  503    0 -0.24683374218E+03  0.96657230772E+02  0.65149386943E+03  0.70335892576E+03  0.00000000000E+00 0. -1.
         -2    1    6    6    0  503 -0.11116718384E+03  0.56188244233E+02  0.17305910672E+03  0.21322456699E+03  0.00000000000E+00 0.  1.
<mgrwt>
<rscale>  0 0.34021422E+04</rscale>
<asrwt>0</asrwt>
<pdfrwt beam="1">  1        2 0.28498619E+00 0.34021422E+04</pdfrwt>
<pdfrwt beam="2">  1       -1 0.24032249E+00 0.34021422E+04</pdfrwt>
<totfact> 0.61357634E-01</totfact>
</mgrwt>
</event>
<event>
12    7  0.1735955E-007  0.1494405E+04  0.7818608E-02  0.8888182E-01
          2   -1    0    0  501    0  0.00000000000E+00  0.00000000000E+00  0.16065029277E+04  0.16065029277E+04  0.00000000000E+00 0. -1.
         -1   -1    0    0    0  501 -0.00000000000E+00 -0.00000000000E+00 -0.34753228661E+03  0.34753228661E+03  0.00000000000E+00 0.  1.
         24    2    1    2    0    0 -0.16770641565E+03  0.43545793421E+03  0.36101913555E+03  0.59521441887E+03  0.78716795393E+02 0.  0.
        254    2    1    2    0    0  0.16770641565E+03 -0.43545793421E+03  0.89795150555E+03  0.13588207955E+04  0.90682302216E+03 0.  0.
         23    2    4    4    0    0 -0.17470928515E+03  0.20249545607E+03  0.33475629181E+03  0.43757067371E+03  0.88761340312E+02 0.  0.
         23    2    4    4    0    0  0.34241570080E+03 -0.63795339028E+03  0.56319521374E+03  0.92125012174E+03  0.85322316583E+02 0.  0.
          2    1    3    3  502    0 -0.14431408716E+03  0.41677232939E+03  0.35090377910E+03  0.56361262626E+03  0.00000000000E+00 0. -1.
         -1    1    3    3    0  502 -0.23392328489E+02  0.18685604826E+02  0.10115356451E+02  0.31601792607E+02  0.00000000000E+00 0.  1.
         13    1    5    5    0    0 -0.18087085862E+03  0.20247394405E+03  0.33524216752E+03  0.43138993544E+03  0.00000000000E+00 0. -1.
        -13    1    5    5    0    0  0.61615734653E+01  0.21512019402E-01 -0.48587570603E+00  0.61807382680E+01  0.00000000000E+00 0.  1.
          1    1    6    6  503    0  0.34725871188E+03 -0.62555180915E+03  0.54939462442E+03  0.90207434962E+03  0.00000000000E+00 0. -1.
         -1    1    6    6    0  503 -0.48430110771E+01 -0.12401581130E+02  0.13800589321E+02  0.19175772121E+02  0.00000000000E+00 0.  1.
<mgrwt>
<rscale>  0 0.14944051E+04</rscale>
<asrwt>0</asrwt>
<pdfrwt beam="1">  1        2 0.24715429E+00 0.14944051E+04</pdfrwt>
<pdfrwt beam="2">  1       -1 0.53466507E-01 0.14944051E+04</pdfrwt>
<totfact> 0.42979811E+01</totfact>
</mgrwt>
</event>
<event>
12    7  0.1735955E-007  0.2975800E+04  0.7818608E-02  0.8250675E-01
          2   -1    0    0  501    0  0.00000000000E+00  0.00000000000E+00  0.16406436321E+04  0.16406436321E+04  0.00000000000E+00 0. -1.
         -1   -1    0    0    0  501 -0.00000000000E+00 -0.00000000000E+00 -0.13493767665E+04  0.13493767665E+04  0.00000000000E+00 0.  1.
         24    2    1    2    0    0  0.18182789707E+03 -0.60539222526E+03  0.13329756447E+04  0.14774907565E+04  0.81201819283E+02 0.  0.
        254    2    1    2    0    0 -0.18182789707E+03  0.60539222526E+03 -0.10417087792E+04  0.15125296422E+04  0.89611807662E+03 0.  0.
         23    2    4    4    0    0  0.34246981819E+03  0.34134380312E+03 -0.57689377133E+03  0.75821813483E+03  0.91033775557E+02 0.  0.
         23    2    4    4    0    0 -0.52429771527E+03  0.26404842214E+03 -0.46481500784E+03  0.75431150732E+03  0.91231546603E+02 0.  0.
          4    1    3    3  502    0  0.10132755118E+03 -0.22330864165E+03  0.46389450540E+03  0.52472100606E+03  0.00000000000E+00 0. -1.
         -3    1    3    3    0  502  0.80500345892E+02 -0.38208358361E+03  0.86908113932E+03  0.95276975040E+03  0.00000000000E+00 0.  1.
         13    1    5    5    0    0  0.69223293429E+02  0.24431479287E+02 -0.93354645754E+02  0.11875963715E+03  0.00000000000E+00 0. -1.
        -13    1    5    5    0    0  0.27324652477E+03  0.31691232383E+03 -0.48353912557E+03  0.63945849768E+03  0.00000000000E+00 0.  1.
          3    1    6    6  503    0 -0.10844391384E+02  0.64305813303E+01 -0.33983188465E+02  0.36246521198E+02  0.00000000000E+00 0. -1.
         -3    1    6    6    0  503 -0.51345332388E+03  0.25761784081E+03 -0.43083181938E+03  0.71806498612E+03  0.00000000000E+00 0.  1.
<mgrwt>
<rscale>  0 0.29758000E+04</rscale>
<asrwt>0</asrwt>
<pdfrwt beam="1">  1        2 0.25240671E+00 0.29758000E+04</pdfrwt>
<pdfrwt beam="2">  1       -1 0.20759643E+00 0.29758000E+04</pdfrwt>
<totfact> 0.13794637E+00</totfact>
</mgrwt>
</event>
<event>
12    7  0.1735955E-007  0.1482389E+04  0.7818608E-02  0.8896249E-01
          2   -1    0    0  501    0  0.00000000000E+00  0.00000000000E+00  0.14116758778E+04  0.14116758778E+04  0.00000000000E+00 0. -1.
         -1   -1    0    0    0  501 -0.00000000000E+00 -0.00000000000E+00 -0.38916087656E+03  0.38916087656E+03  0.00000000000E+00 0.  1.
         24    2    1    2    0    0  0.34505255630E+03  0.30439517582E+03  0.32003886173E+03  0.56599325644E+03  0.78776923302E+02 0.  0.
        254    2    1    2    0    0 -0.34505255630E+03 -0.30439517582E+03  0.70247613953E+03  0.12348434980E+04  0.90534416006E+03 0.  0.
         23    2    4    4    0    0 -0.22370117354E+03  0.57139559549E+02 -0.15490294037E+03  0.29253500654E+03  0.90965184594E+02 0.  0.
         23    2    4    4    0    0 -0.12135138276E+03 -0.36153473537E+03  0.85737907990E+03  0.94230849141E+03  0.86098103057E+02 0.  0.
          2    1    3    3  502    0  0.14231998843E+03  0.13056498537E+03  0.88109828198E+02  0.21228644879E+03  0.00000000000E+00 0. -1.
         -1    1    3    3    0  502  0.20273256787E+03  0.17383019044E+03  0.23192903353E+03  0.35370680765E+03  0.00000000000E+00 0.  1.
         13    1    5    5    0    0 -0.22972352368E+03  0.44287936295E+02 -0.14666098937E+03  0.27612273437E+03  0.00000000000E+00 0.  1.
        -13    1    5    5    0    0  0.60223501413E+01  0.12851623254E+02 -0.82419510044E+01  0.16412272172E+02  0.00000000000E+00 0. -1.
          4    1    6    6  503    0  0.10551749130E+02 -0.65288566025E+02  0.12749416875E+03  0.14362694500E+03  0.00000000000E+00 0. -1.
         -4    1    6    6    0  503 -0.13190313189E+03 -0.29624616934E+03  0.72988491115E+03  0.79868154641E+03  0.00000000000E+00 0.  1.
<mgrwt>
<rscale>  0 0.14823886E+04</rscale>
<asrwt>0</asrwt>
<pdfrwt beam="1">  1        2 0.21718090E+00 0.14823886E+04</pdfrwt>
<pdfrwt beam="2">  1       -1 0.59870905E-01 0.14823886E+04</pdfrwt>
<totfact> 0.44439206E+01</totfact>
</mgrwt>
</event>
<event>
12    7  0.1735955E-007  0.1206745E+04  0.7818608E-02  0.9106973E-01
         -1   -1    0    0    0  501 -0.00000000000E+00  0.00000000000E+00  0.22478650613E+03  0.22478650613E+03  0.00000000000E+00 0.  1.
          2   -1    0    0  501    0  0.00000000000E+00 -0.00000000000E+00 -0.16195730512E+04  0.16195730512E+04  0.00000000000E+00 0. -1.
         24    2    1    2    0    0  0.20674960609E+03  0.13420624676E+03 -0.21521040111E+03  0.33785797442E+03  0.84117642872E+02 0.  0.
        254    2    1    2    0    0 -0.20674960609E+03 -0.13420624676E+03 -0.11795761439E+04  0.15065015829E+04  0.90409646809E+03 0.  0.
         23    2    4    4    0    0 -0.20604444808E+03  0.53016343998E+02  0.68528610233E+02  0.24121492615E+03  0.90683090276E+02 0.  0.
         23    2    4    4    0    0 -0.70515801081E+00 -0.18722259076E+03 -0.12481047542E+04  0.12652866567E+04  0.90177883140E+02 0.  0.
          4    1    3    3  502    0  0.12176146171E+03  0.11392457020E+03 -0.17484429458E+03  0.24160957887E+03  0.00000000000E+00 0. -1.
         -3    1    3    3    0  502  0.84988144380E+02  0.20281676562E+02 -0.40366106529E+02  0.96248395548E+02  0.00000000000E+00 0.  1.
         13    1    5    5    0    0 -0.11278968727E+03  0.47955025981E+02  0.81124272300E+02  0.14697736434E+03  0.00000000000E+00 0. -1.
        -13    1    5    5    0    0 -0.93254760808E+02  0.50613180166E+01 -0.12595662066E+02  0.94237561813E+02  0.00000000000E+00 0.  1.
          4    1    6    6  503    0 -0.37082406741E+02 -0.63929364726E+02 -0.60187813563E+03  0.60639867967E+03  0.00000000000E+00 0. -1.
         -4    1    6    6    0  503  0.36377248731E+02 -0.12329322604E+03 -0.64622661855E+03  0.65888797707E+03  0.00000000000E+00 0.  1.
<mgrwt>
<rscale>  0 0.12067447E+04</rscale>
<asrwt>0</asrwt>
<pdfrwt beam="1">  1        2 0.24916508E+00 0.12067447E+04</pdfrwt>
<pdfrwt beam="2">  1       -1 0.34582541E-01 0.12067447E+04</pdfrwt>
<totfact> 0.96854908E+01</totfact>
</mgrwt>
</event>
<event>
12    7  0.1735955E-007  0.1387755E+04  0.7818608E-02  0.8962730E-01
         -1   -1    0    0    0  501 -0.00000000000E+00  0.00000000000E+00  0.43330358979E+03  0.43330358979E+03  0.00000000000E+00 0.  1.
          2   -1    0    0  501    0  0.00000000000E+00 -0.00000000000E+00 -0.11111519459E+04  0.11111519459E+04  0.00000000000E+00 0. -1.
         24    2    1    2    0    0 -0.26669834962E+01  0.18564133224E+02  0.24072426963E+03  0.25468662075E+03  0.81026915029E+02 0.  0.
        254    2    1    2    0    0  0.26669834962E+01 -0.18564133224E+02 -0.91857262571E+03  0.12897689149E+04  0.90519414784E+03 0.  0.
         23    2    4    4    0    0  0.14786735563E+03  0.40195855551E+03 -0.33588145324E+03  0.55076813104E+03  0.84224392687E+02 0.  0.
         23    2    4    4    0    0 -0.14520037213E+03 -0.42052268874E+03 -0.58269117246E+03  0.73900078386E+03  0.93116466138E+02 0.  0.
          4    1    3    3  502    0 -0.27179957222E+02  0.19749506920E+02  0.39004950680E+02  0.51479891955E+02  0.00000000000E+00 0. -1.
         -3    1    3    3    0  502  0.24512973726E+02 -0.11853736956E+01  0.20171931895E+03  0.20320672880E+03  0.00000000000E+00 0.  1.
         13    1    5    5    0    0  0.14845969990E+03  0.39034737580E+03 -0.30320751802E+03  0.51608735237E+03  0.00000000000E+00 0. -1.
        -13    1    5    5    0    0 -0.59234427310E+00  0.11611179709E+02 -0.32673935227E+02  0.34680778671E+02  0.00000000000E+00 0.  1.
          2    1    6    6  503    0 -0.94275144548E+02 -0.28926652783E+03 -0.46403148897E+03  0.55487669780E+03  0.00000000000E+00 0. -1.
         -2    1    6    6    0  503 -0.50925227582E+02 -0.13125616091E+03 -0.11865968349E+03  0.18412408606E+03  0.00000000000E+00 0.  1.
<mgrwt>
<rscale>  0 0.13877552E+04</rscale>
<asrwt>0</asrwt>
<pdfrwt beam="1">  1        2 0.17094645E+00 0.13877552E+04</pdfrwt>
<pdfrwt beam="2">  1       -1 0.66662092E-01 0.13877552E+04</pdfrwt>
<totfact> 0.54324518E+01</totfact>
</mgrwt>
</event>
<event>
12    7  0.1735955E-007  0.1083198E+04  0.7818608E-02  0.9221725E-01
         -3   -1    0    0    0  501 -0.00000000000E+00  0.00000000000E+00  0.10576335647E+04  0.10576335647E+04  0.00000000000E+00 0.  1.
          4   -1    0    0  501    0  0.00000000000E+00 -0.00000000000E+00 -0.27734484217E+03  0.27734484217E+03  0.00000000000E+00 0. -1.
         24    2    1    2    0    0  0.85140539358E+02 -0.11873140920E+03  0.77599564408E+02  0.18297944621E+03  0.78190321435E+02 0.  0.
        254    2    1    2    0    0 -0.85140539358E+02  0.11873140920E+03  0.70268915809E+03  0.11519989606E+04  0.90110126702E+03 0.  0.
         23    2    4    4    0    0 -0.43989448647E+02 -0.35052704713E+03  0.94518519553E+02  0.37725635056E+03  0.92651611648E+02 0.  0.
         23    2    4    4    0    0 -0.41151090712E+02  0.46925845633E+03  0.60817063854E+03  0.77474261007E+03  0.91965619503E+02 0.  0.
          4    1    3    3  502    0  0.64116840970E+02 -0.12729540310E+03  0.61980454871E+02  0.15542414784E+03  0.00000000000E+00 0. -1.
         -3    1    3    3    0  502  0.21023698389E+02  0.85639938996E+01  0.15619109537E+02  0.27555298368E+02  0.00000000000E+00 0.  1.
         13    1    5    5    0    0 -0.44257826813E+02 -0.33527382100E+03  0.10990099113E+03  0.35559178581E+03  0.00000000000E+00 0. -1.
        -13    1    5    5    0    0  0.26837816650E+00 -0.15253226127E+02 -0.15382471579E+02  0.21664564754E+02  0.00000000000E+00 0.  1.
          2    1    6    6  503    0 -0.21834365598E+02  0.45559735401E+03  0.57346969668E+03  0.73274359875E+03  0.00000000000E+00 0. -1.
         -2    1    6    6    0  503 -0.19316725114E+02  0.13661102324E+02  0.34700941860E+02  0.41999011320E+02  0.00000000000E+00 0.  1.
<mgrwt>
<rscale>  0 0.10831975E+04</rscale>
<asrwt>0</asrwt>
<pdfrwt beam="1">  1        4 0.42668438E-01 0.10831975E+04</pdfrwt>
<pdfrwt beam="2">  1       -3 0.16271285E+00 0.10831975E+04</pdfrwt>
<totfact> 0.31650252E+00</totfact>
</mgrwt>
</event>
<event>
12    7  0.1735955E-007  0.1262628E+04  0.7818608E-02  0.9059738E-01
          2   -1    0    0  501    0  0.00000000000E+00  0.00000000000E+00  0.14092326099E+04  0.14092326099E+04  0.00000000000E+00 0. -1.
         -1   -1    0    0    0  501 -0.00000000000E+00 -0.00000000000E+00 -0.28281863622E+03  0.28281863622E+03  0.00000000000E+00 0.  1.
         24    2    1    2    0    0 -0.14611817910E+03  0.50220505499E+02 -0.69809511124E+02  0.18794170503E+03  0.81093126780E+02 0.  0.
        254    2    1    2    0    0  0.14611817910E+03 -0.50220505499E+02  0.11962234848E+04  0.15041095410E+04  0.89862242601E+03 0.  0.
         23    2    4    4    0    0  0.22127922160E+03 -0.29630042147E+02  0.13137635396E+04  0.13358616926E+04  0.93324115974E+02 0.  0.
         23    2    4    4    0    0 -0.75161042502E+02 -0.20590463352E+02 -0.11754005480E+03  0.16824784842E+03  0.91752517802E+02 0.  0.
          4    1    3    3  502    0 -0.65330186424E+01 -0.16762236828E+02  0.27639713678E+00  0.17992479302E+02  0.00000000000E+00 0. -1.
         -3    1    3    3    0  502 -0.13958516045E+03  0.66982742327E+02 -0.70085908261E+02  0.16994922573E+03  0.00000000000E+00 0.  1.
         13    1    5    5    0    0  0.80277954119E+02 -0.26012592157E+02  0.74953784629E+03  0.75427328461E+03  0.00000000000E+00 0. -1.
        -13    1    5    5    0    0  0.14100126748E+03 -0.36174499904E+01  0.56422569328E+03  0.58158840801E+03  0.00000000000E+00 0.  1.
          2    1    6    6  503    0 -0.65172718682E+02  0.27731190726E+02 -0.64342378221E+02  0.95689308884E+02  0.00000000000E+00 0.  1.
         -2    1    6    6    0  503 -0.99883238208E+01 -0.48321654079E+02 -0.53197676583E+02  0.72558539535E+02  0.00000000000E+00 0. -1.
<mgrwt>
<rscale>  0 0.12626278E+04</rscale>
<asrwt>0</asrwt>
<pdfrwt beam="1">  1        2 0.21680501E+00 0.12626278E+04</pdfrwt>
<pdfrwt beam="2">  1       -1 0.43510561E-01 0.12626278E+04</pdfrwt>
<totfact> 0.83448332E+01</totfact>
</mgrwt>
</event>
<event>
12    7  0.1735955E-007  0.1788295E+04  0.7818608E-02  0.8712549E-01
          2   -1    0    0  501    0  0.00000000000E+00  0.00000000000E+00  0.12680408260E+04  0.12680408260E+04  0.00000000000E+00 0. -1.
         -1   -1    0    0    0  501 -0.00000000000E+00 -0.00000000000E+00 -0.63050001562E+03  0.63050001562E+03  0.00000000000E+00 0.  1.
         24    2    1    2    0    0  0.29899025025E+03  0.38645052492E+03  0.70407037285E+03  0.86070614153E+03  0.79754587270E+02 0.  0.
        254    2    1    2    0    0 -0.29899025025E+03 -0.38645052492E+03 -0.66529562497E+02  0.10378347001E+04  0.91320069207E+03 0.  0.
         23    2    4    4    0    0 -0.46501765781E+03 -0.70454584711E+02 -0.33193590069E+03  0.58333750411E+03  0.94318242954E+02 0.  0.
         23    2    4    4    0    0  0.16602740756E+03 -0.31599594020E+03  0.26540633819E+03  0.45449719595E+03  0.93320107595E+02 0.  0.
          4    1    3    3  502    0  0.59056862109E+02  0.11138411676E+03  0.23130867932E+03  0.26343469695E+03  0.00000000000E+00 0. -1.
         -3    1    3    3    0  502  0.23993338814E+03  0.27506640816E+03  0.47276169352E+03  0.59727144457E+03  0.00000000000E+00 0.  1.
         13    1    5    5    0    0 -0.21549197632E+03 -0.79771852226E+02 -0.15054395155E+03  0.27470679208E+03  0.00000000000E+00 0.  1.
        -13    1    5    5    0    0 -0.24952568149E+03  0.93172675151E+01 -0.18139194914E+03  0.30863071203E+03  0.00000000000E+00 0. -1.
          4    1    6    6  503    0  0.77583246284E+02 -0.12505923181E+03  0.16577521859E+03  0.22167632861E+03  0.00000000000E+00 0.  1.
         -4    1    6    6    0  503  0.88444161276E+02 -0.19093670839E+03  0.99631119605E+02  0.23282086734E+03  0.00000000000E+00 0. -1.
<mgrwt>
<rscale>  0 0.17882950E+04</rscale>
<asrwt>0</asrwt>
<pdfrwt beam="1">  1        2 0.19508320E+00 0.17882950E+04</pdfrwt>
<pdfrwt beam="2">  1       -1 0.97000003E-01 0.17882950E+04</pdfrwt>
<totfact> 0.18996844E+01</totfact>
</mgrwt>
</event>
<event>
12    7  0.1735955E-007  0.1650397E+04  0.7818608E-02  0.8790171E-01
          2   -1    0    0  501    0  0.00000000000E+00  0.00000000000E+00  0.23206133813E+04  0.23206133813E+04  0.00000000000E+00 0. -1.
         -1   -1    0    0    0  501 -0.00000000000E+00 -0.00000000000E+00 -0.29343661089E+03  0.29343661089E+03  0.00000000000E+00 0.  1.
         24    2    1    2    0    0 -0.35628925045E+03  0.42328889243E+03  0.44860244773E+03  0.71592700856E+03  0.72054208985E+02 0.  0.
        254    2    1    2    0    0  0.35628925045E+03 -0.42328889243E+03  0.15785743227E+04  0.18981229836E+04  0.89713903734E+03 0.  0.
         23    2    4    4    0    0  0.10832503261E+03  0.24826737176E+03  0.22354089414E+03  0.36309642426E+03  0.92181784438E+02 0.  0.
         23    2    4    4    0    0  0.24796421784E+03 -0.67155626419E+03  0.13550334285E+04  0.15350265594E+04  0.87845752498E+02 0.  0.
          2    1    3    3  502    0 -0.26818178888E+03  0.34806667215E+03  0.32508969545E+03  0.54658502562E+03  0.00000000000E+00 0. -1.
         -1    1    3    3    0  502 -0.88107461573E+02  0.75222220281E+02  0.12351275228E+03  0.16934198294E+03  0.00000000000E+00 0.  1.
         13    1    5    5    0    0  0.31322457132E+02  0.83378673287E+02  0.22385556628E+02  0.91837969410E+02  0.00000000000E+00 0.  1.
        -13    1    5    5    0    0  0.77002575481E+02  0.16488869847E+03  0.20115533751E+03  0.27125845485E+03  0.00000000000E+00 0. -1.
          1    1    6    6  503    0  0.20034524056E+03 -0.51141252375E+03  0.95822927814E+03  0.11044837411E+04  0.00000000000E+00 0. -1.
         -1    1    6    6    0  503  0.47618977281E+02 -0.16014374044E+03  0.39680415037E+03  0.43054281826E+03  0.00000000000E+00 0.  1.
<mgrwt>
<rscale>  0 0.16503974E+04</rscale>
<asrwt>0</asrwt>
<pdfrwt beam="1">  1        2 0.35701743E+00 0.16503974E+04</pdfrwt>
<pdfrwt beam="2">  1       -1 0.45144095E-01 0.16503974E+04</pdfrwt>
<totfact> 0.23394948E+01</totfact>
</mgrwt>
</event>
<event>
12    7  0.1735955E-007  0.1290013E+04  0.7818608E-02  0.9037522E-01
         -1   -1    0    0    0  501 -0.00000000000E+00  0.00000000000E+00  0.50643592034E+03  0.50643592034E+03  0.00000000000E+00 0.  1.
          2   -1    0    0  501    0  0.00000000000E+00 -0.00000000000E+00 -0.82149292638E+03  0.82149292638E+03  0.00000000000E+00 0. -1.
         24    2    1    2    0    0  0.14916021105E+03 -0.29123099894E+03 -0.75823965403E+02  0.34537049276E+03  0.80419153419E+02 0.  0.
        254    2    1    2    0    0 -0.14916021105E+03  0.29123099894E+03 -0.23923304064E+03  0.98255835396E+03  0.89505542169E+03 0.  0.
         23    2    4    4    0    0  0.14285446847E+03  0.16277684355E+03 -0.50519314673E+03  0.55732680480E+03  0.92137679010E+02 0.  0.
         23    2    4    4    0    0 -0.29201467952E+03  0.12845415539E+03  0.26596010609E+03  0.42523154916E+03  0.91181408611E+02 0.  0.
          2    1    3    3  502    0  0.64713360036E+02 -0.12756002091E+03  0.74856958890E+01  0.14323202695E+03  0.00000000000E+00 0. -1.
         -1    1    3    3    0  502  0.84446851011E+02 -0.16367097803E+03 -0.83309661292E+02  0.20213846581E+03  0.00000000000E+00 0.  1.
         13    1    5    5    0    0  0.55786742205E+02  0.11318124452E+03 -0.35515854770E+03  0.37690814361E+03  0.00000000000E+00 0. -1.
        -13    1    5    5    0    0  0.87067726267E+02  0.49595599029E+02 -0.15003459903E+03  0.18041866119E+03  0.00000000000E+00 0.  1.
          4    1    6    6  503    0 -0.29567466651E+02  0.41002544722E+02  0.17780226842E+02  0.53587127413E+02  0.00000000000E+00 0. -1.
         -4    1    6    6    0  503 -0.26244721287E+03  0.87451610670E+02  0.24817987925E+03  0.37164442175E+03  0.00000000000E+00 0.  1.
<mgrwt>
<rscale>  0 0.12900132E+04</rscale>
<asrwt>0</asrwt>
<pdfrwt beam="1">  1        2 0.12638353E+00 0.12900132E+04</pdfrwt>
<pdfrwt beam="2">  1       -1 0.77913219E-01 0.12900132E+04</pdfrwt>
<totfact> 0.61442589E+01</totfact>
</mgrwt>
</event>
<event>
12    7  0.1735955E-007  0.1246872E+04  0.7818608E-02  0.9072790E-01
          2   -1    0    0  501    0  0.00000000000E+00  0.00000000000E+00  0.28302319856E+03  0.28302319856E+03  0.00000000000E+00 0. -1.
         -1   -1    0    0    0  501 -0.00000000000E+00 -0.00000000000E+00 -0.13732889781E+04  0.13732889781E+04  0.00000000000E+00 0.  1.
         24    2    1    2    0    0 -0.10344703568E+02  0.17827583085E+03  0.41744612886E+02  0.20112190286E+03  0.82571922283E+02 0.  0.
        254    2    1    2    0    0  0.10344703568E+02 -0.17827583085E+03 -0.11320103924E+04  0.14551902738E+04  0.89679536106E+03 0.  0.
         23    2    4    4    0    0  0.27645095626E+03  0.25096612303E+03 -0.62491318745E+03  0.73355596221E+03  0.90436340636E+02 0.  0.
         23    2    4    4    0    0 -0.26610625269E+03 -0.42924195388E+03 -0.50709720496E+03  0.72163431158E+03  0.92451672065E+02 0.  0.
          4    1    3    3  502    0  0.10391992204E+02  0.16610009780E+03  0.52876989504E+02  0.17462305693E+03  0.00000000000E+00 0. -1.
         -3    1    3    3    0  502 -0.20736695772E+02  0.12175733050E+02 -0.11132376619E+02  0.26498845938E+02  0.00000000000E+00 0.  1.
         13    1    5    5    0    0  0.22182226365E+03  0.14975893108E+03 -0.46600832936E+03  0.53739800625E+03  0.00000000000E+00 0.  1.
        -13    1    5    5    0    0  0.54628692613E+02  0.10120719195E+03 -0.15890485809E+03  0.19615795595E+03  0.00000000000E+00 0. -1.
          3    1    6    6  503    0  0.63732999928E+01 -0.25883674462E+02 -0.25740608325E+02  0.37056206948E+02  0.00000000000E+00 0. -1.
         -3    1    6    6    0  503 -0.27247955269E+03 -0.40335827942E+03 -0.48135659664E+03  0.68457810463E+03  0.00000000000E+00 0.  1.
<mgrwt>
<rscale>  0 0.12468723E+04</rscale>
<asrwt>0</asrwt>
<pdfrwt beam="1">  1        2 0.43542030E-01 0.12468723E+04</pdfrwt>
<pdfrwt beam="2">  1       -1 0.21127523E+00 0.12468723E+04</pdfrwt>
<totfact> 0.16651356E+01</totfact>
</mgrwt>
</event>
<event>
12    7  0.1735955E-007  0.2856788E+04  0.7818608E-02  0.8285852E-01
          2   -1    0    0  501    0  0.00000000000E+00  0.00000000000E+00  0.22642973534E+04  0.22642973534E+04  0.00000000000E+00 0. -1.
         -1   -1    0    0    0  501 -0.00000000000E+00 -0.00000000000E+00 -0.90107852391E+03  0.90107852391E+03  0.00000000000E+00 0.  1.
         24    2    1    2    0    0 -0.41580414425E+03  0.34034676893E+03  0.18433617659E+04  0.19217297067E+04  0.79583014358E+02 0.  0.
        254    2    1    2    0    0  0.41580414425E+03 -0.34034676893E+03 -0.48014293641E+03  0.12436461706E+04  0.10136022636E+04 0.  0.
         23    2    4    4    0    0 -0.25291475093E+03 -0.35241485156E+03 -0.32338080933E+03  0.55061468134E+03  0.10217279785E+03 0.  0.
         23    2    4    4    0    0  0.66871889518E+03  0.12068082631E+02 -0.15676212708E+03  0.69303148926E+03  0.91584284813E+02 0.  0.
          4    1    3    3  502    0 -0.36697787855E+03  0.28613427181E+03  0.16704561197E+04  0.17340614847E+04  0.00000000000E+00 0. -1.
         -3    1    3    3    0  502 -0.48826265702E+02  0.54212497127E+02  0.17290564613E+03  0.18766822195E+03  0.00000000000E+00 0.  1.
         13    1    5    5    0    0 -0.42472259916E+02 -0.72600857295E+02 -0.17970114902E+02  0.86009896942E+02  0.00000000000E+00 0. -1.
        -13    1    5    5    0    0 -0.21044249101E+03 -0.27981399427E+03 -0.30541069443E+03  0.46460478440E+03  0.00000000000E+00 0.  1.
          1    1    6    6  503    0  0.12763584159E+03 -0.16517522149E+02 -0.62433447845E+02  0.14304430085E+03  0.00000000000E+00 0. -1.
         -1    1    6    6    0  503  0.54108305359E+03  0.28585604780E+02 -0.94328679235E+02  0.54998718840E+03  0.00000000000E+00 0.  1.
<mgrwt>
<rscale>  0 0.28567882E+04</rscale>
<asrwt>0</asrwt>
<pdfrwt beam="1">  1        2 0.34835344E+00 0.28567882E+04</pdfrwt>
<pdfrwt beam="2">  1       -1 0.13862747E+00 0.28567882E+04</pdfrwt>
<totfact> 0.20117400E+00</totfact>
</mgrwt>
</event>
<event>
12    7  0.1735955E-007  0.2367856E+04  0.7818608E-02  0.8451637E-01
          2   -1    0    0  501    0  0.00000000000E+00  0.00000000000E+00  0.83226693031E+03  0.83226693031E+03  0.00000000000E+00 0. -1.
         -1   -1    0    0    0  501 -0.00000000000E+00 -0.00000000000E+00 -0.16841771765E+04  0.16841771765E+04  0.00000000000E+00 0.  1.
         24    2    1    2    0    0  0.56568977437E+03  0.12268577064E+03  0.53042735515E+03  0.78915319515E+03  0.79704875497E+02 0.  0.
        254    2    1    2    0    0 -0.56568977437E+03 -0.12268577064E+03 -0.13823376013E+04  0.17272909116E+04  0.85884802511E+03 0.  0.
         23    2    4    4    0    0 -0.73202306917E+03 -0.13189488096E+02 -0.12966248357E+04  0.14920106930E+04  0.93958539855E+02 0.  0.
         23    2    4    4    0    0  0.16633329480E+03 -0.10949628254E+03 -0.85712765629E+02  0.23528021860E+03  0.91399683936E+02 0.  0.
          4    1    3    3  502    0  0.54720887669E+03  0.12490412325E+03  0.52760240642E+03  0.77032648532E+03  0.00000000000E+00 0. -1.
         -3    1    3    3    0  502  0.18480897682E+02 -0.22183526175E+01  0.28249487300E+01  0.18826709824E+02  0.00000000000E+00 0.  1.
         13    1    5    5    0    0 -0.35102798549E+03 -0.31987107164E+02 -0.54355022774E+03  0.64783537392E+03  0.00000000000E+00 0.  1.
        -13    1    5    5    0    0 -0.38099508368E+03  0.18797619067E+02 -0.75307460794E+03  0.84417531911E+03  0.00000000000E+00 0. -1.
          2    1    6    6  503    0  0.91066391922E+02 -0.23454476689E+02 -0.75335888512E+02  0.12049355299E+03  0.00000000000E+00 0.  1.
         -2    1    6    6    0  503  0.75266902876E+02 -0.86041805850E+02 -0.10376877117E+02  0.11478666561E+03  0.00000000000E+00 0. -1.
<mgrwt>
<rscale>  0 0.23678555E+04</rscale>
<asrwt>0</asrwt>
<pdfrwt beam="1">  1        2 0.12804107E+00 0.23678555E+04</pdfrwt>
<pdfrwt beam="2">  1       -1 0.25910418E+00 0.23678555E+04</pdfrwt>
<totfact> 0.20426996E+00</totfact>
</mgrwt>
</event>
<event>
12    7  0.1735955E-007  0.1775133E+04  0.7818608E-02  0.8719636E-01
         -1   -1    0    0    0  501 -0.00000000000E+00  0.00000000000E+00  0.16245301438E+04  0.16245301438E+04  0.00000000000E+00 0.  1.
          2   -1    0    0  501    0  0.00000000000E+00 -0.00000000000E+00 -0.48492440152E+03  0.48492440152E+03  0.00000000000E+00 0. -1.
         24    2    1    2    0    0 -0.55547078512E+03  0.29274291389E+03  0.19429834724E+03  0.66333528650E+03  0.89530150355E+02 0.  0.
        254    2    1    2    0    0  0.55547078512E+03 -0.29274291389E+03  0.94530739507E+03  0.14461192589E+04  0.89633064933E+03 0.  0.
         23    2    4    4    0    0  0.24813664198E+03 -0.21156936106E+03  0.10468803250E+04  0.11000130282E+04  0.87959420479E+02 0.  0.
         23    2    4    4    0    0  0.30733414314E+03 -0.81173552825E+02 -0.10157292992E+03  0.34610623069E+03  0.91809812193E+02 0.  0.
          4    1    3    3  502    0 -0.26881801652E+03  0.12245800349E+03  0.48154492091E+02  0.29929574627E+03  0.00000000000E+00 0. -1.
         -3    1    3    3    0  502 -0.28665276860E+03  0.17028491040E+03  0.14614385515E+03  0.36403954023E+03  0.00000000000E+00 0.  1.
         13    1    5    5    0    0 -0.49317125664E+01 -0.17920489906E+02  0.72760474574E+02  0.75096953384E+02  0.00000000000E+00 0.  1.
        -13    1    5    5    0    0  0.25306835455E+03 -0.19364887116E+03  0.97411985042E+03  0.10249160748E+04  0.00000000000E+00 0. -1.
          2    1    6    6  503    0  0.41689636042E+02  0.94839678054E-01 -0.47311459292E+02  0.63058773602E+02  0.00000000000E+00 0. -1.
         -2    1    6    6    0  503  0.26564450710E+03 -0.81268392503E+02 -0.54261470629E+02  0.28304745709E+03  0.00000000000E+00 0.  1.
<mgrwt>
<rscale>  0 0.17751330E+04</rscale>
<asrwt>0</asrwt>
<pdfrwt beam="1">  1        2 0.74603755E-01 0.17751330E+04</pdfrwt>
<pdfrwt beam="2">  1       -1 0.24992771E+00 0.17751330E+04</pdfrwt>
<totfact> 0.48154998E+00</totfact>
</mgrwt>
</event>
<event>
12    7  0.1735955E-007  0.1422252E+04  0.7818608E-02  0.8937867E-01
         -1   -1    0    0    0  501 -0.00000000000E+00  0.00000000000E+00  0.77772797642E+03  0.77772797642E+03  0.00000000000E+00 0.  1.
          2   -1    0    0  501    0  0.00000000000E+00 -0.00000000000E+00 -0.65022750047E+03  0.65022750047E+03  0.00000000000E+00 0. -1.
         24    2    1    2    0    0  0.27221897384E+03  0.24221755853E+03 -0.17299758171E+03  0.41262042807E+03  0.86919152123E+02 0.  0.
        254    2    1    2    0    0 -0.27221897384E+03 -0.24221755853E+03  0.30049805767E+03  0.10153350488E+04  0.89879567384E+03 0.  0.
         23    2    4    4    0    0 -0.26313376000E+03  0.14556805698E+03  0.48420343638E+03  0.57702759515E+03  0.89880158520E+02 0.  0.
         23    2    4    4    0    0 -0.90852138392E+01 -0.38778561551E+03 -0.18370537871E+03  0.43830745367E+03  0.88913064683E+02 0.  0.
          4    1    3    3  502    0  0.26676526886E+03  0.24304918015E+03 -0.18034182399E+03  0.40343498376E+03  0.00000000000E+00 0. -1.
         -3    1    3    3    0  502  0.54537049818E+01 -0.83162162790E+00  0.73442422758E+01  0.91854443097E+01  0.00000000000E+00 0.  1.
         13    1    5    5    0    0 -0.23344471828E+03  0.89491493578E+02  0.39751156630E+03  0.46959621938E+03  0.00000000000E+00 0. -1.
        -13    1    5    5    0    0 -0.29689041722E+02  0.56076563400E+02  0.86691870079E+02  0.10743137577E+03  0.00000000000E+00 0.  1.
          4    1    6    6  503    0 -0.26858884927E+01 -0.29748461356E+03 -0.17998157161E+03  0.34770343027E+03  0.00000000000E+00 0. -1.
         -4    1    6    6    0  503 -0.63993253466E+01 -0.90301001944E+02 -0.37238071047E+01  0.90604023400E+02  0.00000000000E+00 0.  1.
<mgrwt>
<rscale>  0 0.14222519E+04</rscale>
<asrwt>0</asrwt>
<pdfrwt beam="1">  1        2 0.10003500E+00 0.14222519E+04</pdfrwt>
<pdfrwt beam="2">  1       -1 0.11965046E+00 0.14222519E+04</pdfrwt>
<totfact> 0.31121732E+01</totfact>
</mgrwt>
</event>
<event>
12    7  0.1735955E-007  0.2482391E+04  0.7818608E-02  0.8409286E-01
         -1   -1    0    0    0  501 -0.00000000000E+00  0.00000000000E+00  0.51554031152E+03  0.51554031152E+03  0.00000000000E+00 0.  1.
          2   -1    0    0  501    0  0.00000000000E+00 -0.00000000000E+00 -0.29882563736E+04  0.29882563736E+04  0.00000000000E+00 0. -1.
         24    2    1    2    0    0 -0.51470484547E+03 -0.57733445102E+03 -0.21504925734E+04  0.22868670659E+04  0.83105491387E+02 0.  0.
        254    2    1    2    0    0  0.51470484547E+03  0.57733445102E+03 -0.32222348872E+03  0.12169296192E+04  0.88252681272E+03 0.  0.
         23    2    4    4    0    0  0.26478944659E+03  0.75478031138E+03 -0.38440253759E+03  0.89109022672E+03  0.80434518601E+02 0.  0.
         23    2    4    4    0    0  0.24991539888E+03 -0.17744586037E+03  0.62179048870E+02  0.32583939250E+03  0.91434870962E+02 0.  0.
          2    1    3    3  502    0 -0.30081750685E+03 -0.30580159081E+03 -0.12944201890E+04  0.13636456325E+04  0.00000000000E+00 0. -1.
         -1    1    3    3    0  502 -0.21388733862E+03 -0.27153286021E+03 -0.85607238441E+03  0.92322143343E+03  0.00000000000E+00 0.  1.
         13    1    5    5    0    0  0.70220257444E+02  0.14205782007E+03 -0.48324652806E+02  0.16567009648E+03  0.00000000000E+00 0. -1.
        -13    1    5    5    0    0  0.19456918915E+03  0.61272249131E+03 -0.33607788478E+03  0.72542013024E+03  0.00000000000E+00 0.  1.
          2    1    6    6  503    0  0.12769939357E+03 -0.38921308345E+02  0.99656039940E+01  0.13387052187E+03  0.00000000000E+00 0. -1.
         -2    1    6    6    0  503  0.12221600531E+03 -0.13852455202E+03  0.52213444876E+02  0.19196887063E+03  0.00000000000E+00 0.  1.
<mgrwt>
<rscale>  0 0.24823913E+04</rscale>
<asrwt>0</asrwt>
<pdfrwt beam="1">  1        2 0.45973175E+00 0.24823913E+04</pdfrwt>
<pdfrwt beam="2">  1       -1 0.79313895E-01 0.24823913E+04</pdfrwt>
<totfact> 0.28585638E+00</totfact>
</mgrwt>
</event>
<event>
12    7  0.1735955E-007  0.1225001E+04  0.7818608E-02  0.9091250E-01
          4   -1    0    0  501    0  0.00000000000E+00  0.00000000000E+00  0.38335755215E+03  0.38335755215E+03  0.00000000000E+00 0. -1.
         -3   -1    0    0    0  501 -0.00000000000E+00 -0.00000000000E+00 -0.97860888296E+03  0.97860888296E+03  0.00000000000E+00 0.  1.
         24    2    1    2    0    0  0.25051587310E+03 -0.89443974611E+02 -0.85340434212E+02  0.29184672758E+03  0.84457654571E+02 0.  0.
        254    2    1    2    0    0 -0.25051587310E+03  0.89443974611E+02 -0.50991089659E+03  0.10701197075E+04  0.90243483904E+03 0.  0.
         23    2    4    4    0    0 -0.55556773380E+03 -0.87859656383E+02 -0.24831241907E+03  0.62121853213E+03  0.88761371869E+02 0.  0.
         23    2    4    4    0    0  0.30505186070E+03  0.17730363099E+03 -0.26159847753E+03  0.44890117540E+03  0.92656821423E+02 0.  0.
          4    1    3    3  502    0  0.22783186298E+03 -0.50747659066E+02 -0.63172286182E+02  0.24181277971E+03  0.00000000000E+00 0. -1.
         -3    1    3    3    0  502  0.22684010121E+02 -0.38696315545E+02 -0.22168148030E+02  0.50033947866E+02  0.00000000000E+00 0.  1.
         13    1    5    5    0    0 -0.39507863699E+03 -0.98410445936E+02 -0.15777863472E+03  0.43665300051E+03  0.00000000000E+00 0.  1.
        -13    1    5    5    0    0 -0.16048909681E+03  0.10550789553E+02 -0.90533784346E+02  0.18456553162E+03  0.00000000000E+00 0. -1.
          3    1    6    6  503    0  0.17320386257E+03  0.95722746317E+02 -0.89294300104E+02  0.21710802427E+03  0.00000000000E+00 0. -1.
         -3    1    6    6    0  503  0.13184799813E+03  0.81580884677E+02 -0.17230417742E+03  0.23179315113E+03  0.00000000000E+00 0.  1.
<mgrwt>
<rscale>  0 0.12250014E+04</rscale>
<asrwt>0</asrwt>
<pdfrwt beam="1">  1        4 0.58978085E-01 0.12250014E+04</pdfrwt>
<pdfrwt beam="2">  1       -3 0.15055521E+00 0.12250014E+04</pdfrwt>
<totfact> 0.19581916E+00</totfact>
</mgrwt>
</event>
<event>
12    7  0.1735955E-007  0.3078866E+04  0.7818608E-02  0.8221562E-01
          2   -1    0    0  501    0  0.00000000000E+00  0.00000000000E+00  0.84656164022E+03  0.84656164022E+03  0.00000000000E+00 0. -1.
         -1   -1    0    0    0  501 -0.00000000000E+00 -0.00000000000E+00 -0.27993871104E+04  0.27993871104E+04  0.00000000000E+00 0.  1.
         24    2    1    2    0    0  0.93232477030E+03  0.36726143328E+03  0.27588258109E+03  0.10423233079E+04  0.78843147881E+02 0.  0.
        254    2    1    2    0    0 -0.93232477030E+03 -0.36726143328E+03 -0.22287080513E+04  0.26036254427E+04  0.89867426270E+03 0.  0.
         23    2    4    4    0    0 -0.11701871699E+03 -0.48158532203E+03 -0.67108037932E+03  0.83952784558E+03  0.94023004972E+02 0.  0.
         23    2    4    4    0    0 -0.81530605331E+03  0.11432388875E+03 -0.15576276720E+04  0.17640975972E+04  0.89679739632E+02 0.  0.
          2    1    3    3  502    0  0.56234835670E+03  0.18714767965E+03  0.14004836574E+03  0.60899382019E+03  0.00000000000E+00 0. -1.
         -1    1    3    3    0  502  0.36997641360E+03  0.18011375363E+03  0.13583421535E+03  0.43332948772E+03  0.00000000000E+00 0.  1.
         13    1    5    5    0    0  0.64213626860E+01 -0.10947817341E+03 -0.18482508337E+03  0.21491164649E+03  0.00000000000E+00 0. -1.
        -13    1    5    5    0    0 -0.12344007968E+03 -0.37210714862E+03 -0.48625529595E+03  0.62461619909E+03  0.00000000000E+00 0.  1.
          4    1    6    6  503    0 -0.38390455736E+03  0.56404264158E+02 -0.82984878820E+03  0.91608578280E+03  0.00000000000E+00 0.  1.
         -4    1    6    6    0  503 -0.43140149595E+03  0.57919624589E+02 -0.72777888378E+03  0.84801181436E+03  0.00000000000E+00 0. -1.
<mgrwt>
<rscale>  0 0.30788659E+04</rscale>
<asrwt>0</asrwt>
<pdfrwt beam="1">  1        2 0.13024025E+00 0.30788659E+04</pdfrwt>
<pdfrwt beam="2">  1       -1 0.43067494E+00 0.30788659E+04</pdfrwt>
<totfact> 0.13600794E-01</totfact>
</mgrwt>
</event>
<event>
12    7  0.1735955E-007  0.1719475E+04  0.7818608E-02  0.8750334E-01
          2   -1    0    0  501    0  0.00000000000E+00  0.00000000000E+00  0.25667303238E+04  0.25667303238E+04  0.00000000000E+00 0. -1.
         -1   -1    0    0    0  501 -0.00000000000E+00 -0.00000000000E+00 -0.28797275019E+03  0.28797275019E+03  0.00000000000E+00 0.  1.
         24    2    1    2    0    0  0.38179246922E+03 -0.48062825860E+03  0.98743007624E+03  0.11653301040E+04  0.78785044602E+02 0.  0.
        254    2    1    2    0    0 -0.38179246922E+03  0.48062825860E+03  0.12913274974E+04  0.16893729700E+04  0.89982515739E+03 0.  0.
         23    2    4    4    0    0 -0.28468684789E+03  0.83590384333E+01  0.11360631604E+04  0.11748615036E+04  0.92431451132E+02 0.  0.
         23    2    4    4    0    0 -0.97105621327E+02  0.47226922017E+03  0.15526433695E+03  0.51451146648E+03  0.90262488328E+02 0.  0.
          2    1    3    3  502    0  0.25441666361E+03 -0.35806677885E+03  0.75262566451E+03  0.87142701801E+03  0.00000000000E+00 0. -1.
         -1    1    3    3    0  502  0.12737580561E+03 -0.12256147975E+03  0.23480441174E+03  0.29390308597E+03  0.00000000000E+00 0.  1.
         13    1    5    5    0    0 -0.11907010547E+03 -0.40519255684E+02  0.52620895424E+03  0.54103175843E+03  0.00000000000E+00 0.  1.
        -13    1    5    5    0    0 -0.16561674242E+03  0.48878294118E+02  0.60985420619E+03  0.63382974513E+03  0.00000000000E+00 0. -1.
          1    1    6    6  503    0 -0.31551924578E+02  0.25903079801E+03  0.41951231921E+02  0.26429601609E+03  0.00000000000E+00 0. -1.
         -1    1    6    6    0  503 -0.65553696748E+02  0.21323842216E+03  0.11331310502E+03  0.25021545039E+03  0.00000000000E+00 0.  1.
<mgrwt>
<rscale>  0 0.17194748E+04</rscale>
<asrwt>0</asrwt>
<pdfrwt beam="1">  1        2 0.39488157E+00 0.17194748E+04</pdfrwt>
<pdfrwt beam="2">  1       -1 0.44303502E-01 0.17194748E+04</pdfrwt>
<totfact> 0.17395559E+01</totfact>
</mgrwt>
</event>
<event>
12    7  0.1735955E-007  0.3874179E+04  0.7818608E-02  0.8030421E-01
          2   -1    0    0  501    0  0.00000000000E+00  0.00000000000E+00  0.18482941858E+04  0.18482941858E+04  0.00000000000E+00 0. -1.
         -3   -1    0    0    0  501 -0.00000000000E+00 -0.00000000000E+00 -0.20301502358E+04  0.20301502358E+04  0.00000000000E+00 0.  1.
         24    2    1    2    0    0  0.63877829331E+03 -0.59638829318E+03  0.15200763134E+04  0.17552066941E+04  0.80011475301E+02 0.  0.
        254    2    1    2    0    0 -0.63877829331E+03  0.59638829318E+03 -0.17019323634E+04  0.21232377276E+04  0.92078660627E+03 0.  0.
         23    2    4    4    0    0 -0.15989776175E+03 -0.23270032442E+03 -0.52907932511E+03  0.60642653290E+03  0.90063712726E+02 0.  0.
         23    2    4    4    0    0 -0.47888053156E+03  0.82908861760E+03 -0.11728530382E+04  0.15168111947E+04  0.91746671627E+02 0.  0.
          4    1    3    3  502    0  0.63576973572E+03 -0.58165628861E+03  0.15026463716E+04  0.17321874359E+04  0.00000000000E+00 0. -1.
         -3    1    3    3    0  502  0.30085575950E+01 -0.14732004572E+02  0.17429941781E+02  0.23019258198E+02  0.00000000000E+00 0.  1.
         13    1    5    5    0    0 -0.15525021119E+03 -0.24024673475E+03 -0.50014212898E+03  0.57616253854E+03  0.00000000000E+00 0. -1.
        -13    1    5    5    0    0 -0.46475505686E+01  0.75464103305E+01 -0.28937196129E+02  0.30263994365E+02  0.00000000000E+00 0.  1.
          1    1    6    6  503    0 -0.24366420165E+03  0.51069389913E+03 -0.67745806477E+03  0.88268336979E+03  0.00000000000E+00 0. -1.
         -1    1    6    6    0  503 -0.23521632991E+03  0.31839471846E+03 -0.49539497348E+03  0.63412782493E+03  0.00000000000E+00 0.  1.
<mgrwt>
<rscale>  0 0.38741786E+04</rscale>
<asrwt>0</asrwt>
<pdfrwt beam="1">  1        2 0.28435295E+00 0.38741786E+04</pdfrwt>
<pdfrwt beam="2">  1       -3 0.31233080E+00 0.38741786E+04</pdfrwt>
<totfact> 0.13163122E-01</totfact>
</mgrwt>
</event>
<event>
12    7  0.1735955E-007  0.1720905E+04  0.7818608E-02  0.8749530E-01
         -1   -1    0    0    0  501 -0.00000000000E+00  0.00000000000E+00  0.79103460928E+03  0.79103460928E+03  0.00000000000E+00 0.  1.
          2   -1    0    0  501    0  0.00000000000E+00 -0.00000000000E+00 -0.93596263545E+03  0.93596263545E+03  0.00000000000E+00 0. -1.
         24    2    1    2    0    0  0.11478905823E+03 -0.60610252866E+03 -0.17490775388E+03  0.64621439606E+03  0.80396020849E+02 0.  0.
        254    2    1    2    0    0 -0.11478905823E+03  0.60610252866E+03  0.29979727714E+02  0.10807828487E+04  0.88693628788E+03 0.  0.
         23    2    4    4    0    0 -0.26448029312E+03  0.18646528670E+03 -0.35220333460E+03  0.48671060668E+03  0.90116020553E+02 0.  0.
         23    2    4    4    0    0  0.14969123489E+03  0.41963724196E+03  0.38218306231E+03  0.59407224199E+03  0.91405989614E+02 0.  0.
          4    1    3    3  502    0  0.84440956607E+02 -0.52829780051E+03 -0.17435853059E+03  0.56269862126E+03  0.00000000000E+00 0. -1.
         -3    1    3    3    0  502  0.30348101620E+02 -0.77804728148E+02 -0.54922329560E+00  0.83515774800E+02  0.00000000000E+00 0.  1.
         13    1    5    5    0    0 -0.19307986527E+03  0.12970096302E+03 -0.18882908508E+03  0.29959739243E+03  0.00000000000E+00 0. -1.
        -13    1    5    5    0    0 -0.71400427848E+02  0.56764323684E+02 -0.16337424952E+03  0.18711321425E+03  0.00000000000E+00 0.  1.
          2    1    6    6  503    0  0.15460852181E+03  0.38363898443E+03  0.37210585473E+03  0.55636807287E+03  0.00000000000E+00 0. -1.
         -2    1    6    6    0  503 -0.49172869121E+01  0.35998257535E+02  0.10077207583E+02  0.37704169117E+02  0.00000000000E+00 0.  1.
<mgrwt>
<rscale>  0 0.17209054E+04</rscale>
<asrwt>0</asrwt>
<pdfrwt beam="1">  1        2 0.14399425E+00 0.17209054E+04</pdfrwt>
<pdfrwt beam="2">  1       -1 0.12169763E+00 0.17209054E+04</pdfrwt>
<totfact> 0.17985266E+01</totfact>
</mgrwt>
</event>
<event>
12    7  0.1735955E-007  0.1983881E+04  0.7818608E-02  0.8614194E-01
         -1   -1    0    0    0  501 -0.00000000000E+00  0.00000000000E+00  0.10403921767E+04  0.10403921767E+04  0.00000000000E+00 0.  1.
          2   -1    0    0  501    0  0.00000000000E+00 -0.00000000000E+00 -0.94574496692E+03  0.94574496692E+03  0.00000000000E+00 0. -1.
         24    2    1    2    0    0  0.24809909886E+03  0.51105461465E+03 -0.50360472062E+03  0.76448676456E+03  0.89957304026E+02 0.  0.
        254    2    1    2    0    0 -0.24809909886E+03 -0.51105461465E+03  0.59825193035E+03  0.12216503790E+04  0.90099627877E+03 0.  0.
         23    2    4    4    0    0  0.21102084768E+03 -0.32442855079E+03 -0.49088170458E+02  0.40106214944E+03  0.93045776442E+02 0.  0.
         23    2    4    4    0    0 -0.45911994654E+03 -0.18662606387E+03  0.64734010081E+03  0.82058822957E+03  0.93249254013E+02 0.  0.
          4    1    3    3  502    0  0.22122446321E+03  0.45129806713E+03 -0.47958010797E+03  0.69469942312E+03  0.00000000000E+00 0. -1.
         -3    1    3    3    0  502  0.26874635645E+02  0.59756547523E+02 -0.24024612649E+02  0.69787341444E+02  0.00000000000E+00 0.  1.
         13    1    5    5    0    0  0.46830364711E+02 -0.66800358754E+02 -0.49763827917E+02  0.95560502079E+02  0.00000000000E+00 0.  1.
        -13    1    5    5    0    0  0.16419048297E+03 -0.25762819203E+03  0.67565745872E+00  0.30550164736E+03  0.00000000000E+00 0. -1.
          3    1    6    6  503    0  0.65153240848E+00 -0.12537338585E+02  0.13506551704E+02  0.18440072999E+02  0.00000000000E+00 0. -1.
         -3    1    6    6    0  503 -0.45977147895E+03 -0.17408872528E+03  0.63383354911E+03  0.80214815657E+03  0.00000000000E+00 0.  1.
<mgrwt>
<rscale>  0 0.19838807E+04</rscale>
<asrwt>0</asrwt>
<pdfrwt beam="1">  1        2 0.14549923E+00 0.19838807E+04</pdfrwt>
<pdfrwt beam="2">  1       -1 0.16006033E+00 0.19838807E+04</pdfrwt>
<totfact> 0.84667383E+00</totfact>
</mgrwt>
</event>
<event>
12    7  0.1735955E-007  0.1781568E+04  0.7818608E-02  0.8716163E-01
          2   -1    0    0  501    0  0.00000000000E+00  0.00000000000E+00  0.18685127733E+04  0.18685127733E+04  0.00000000000E+00 0. -1.
         -1   -1    0    0    0  501 -0.00000000000E+00 -0.00000000000E+00 -0.42466743825E+03  0.42466743825E+03  0.00000000000E+00 0.  1.
         24    2    1    2    0    0  0.33286999920E+03 -0.52467430001E+03  0.26964392773E+03  0.68212088647E+03  0.80594655817E+02 0.  0.
        254    2    1    2    0    0 -0.33286999920E+03  0.52467430001E+03  0.11742014073E+04  0.16110593250E+04  0.91141518885E+03 0.  0.
         23    2    4    4    0    0 -0.61678608759E+03  0.40647535569E+03  0.61295438195E+03  0.96447239916E+03  0.94056588033E+02 0.  0.
         23    2    4    4    0    0  0.28391608839E+03  0.11819894432E+03  0.56124702535E+03  0.64658692589E+03  0.92179680993E+02 0.  0.
          4    1    3    3  502    0  0.14859654827E+03 -0.18777887946E+03  0.13685821426E+03  0.27581155258E+03  0.00000000000E+00 0. -1.
         -3    1    3    3    0  502  0.18427345093E+03 -0.33689542055E+03  0.13278571347E+03  0.40630933389E+03  0.00000000000E+00 0.  1.
         13    1    5    5    0    0 -0.55168611045E+02  0.60535312994E+02  0.97564201747E+02  0.12738474487E+03  0.00000000000E+00 0.  1.
        -13    1    5    5    0    0 -0.56161747655E+03  0.34594004270E+03  0.51539018021E+03  0.83708765428E+03  0.00000000000E+00 0. -1.
          2    1    6    6  503    0  0.20811868610E+03  0.11486715619E+03  0.35891094971E+03  0.43049381052E+03  0.00000000000E+00 0. -1.
         -2    1    6    6    0  503  0.75797402295E+02  0.33317881257E+01  0.20233607564E+03  0.21609311537E+03  0.00000000000E+00 0.  1.
<mgrwt>
<rscale>  0 0.17815684E+04</rscale>
<asrwt>0</asrwt>
<pdfrwt beam="1">  1        2 0.28746350E+00 0.17815684E+04</pdfrwt>
<pdfrwt beam="2">  1       -1 0.65333453E-01 0.17815684E+04</pdfrwt>
<totfact> 0.20216532E+01</totfact>
</mgrwt>
</event>
<event>
12    7  0.1735955E-007  0.2397094E+04  0.7818608E-02  0.8440592E-01
          2   -1    0    0  501    0  0.00000000000E+00  0.00000000000E+00  0.17222568847E+04  0.17222568847E+04  0.00000000000E+00 0. -1.
         -1   -1    0    0    0  501 -0.00000000000E+00 -0.00000000000E+00 -0.83408891173E+03  0.83408891173E+03  0.00000000000E+00 0.  1.
         24    2    1    2    0    0 -0.33541398015E+03 -0.23848535599E+03  0.13943463528E+04  0.14562113745E+04  0.83498578946E+02 0.  0.
        254    2    1    2    0    0  0.33541398015E+03  0.23848535599E+03 -0.50617837978E+03  0.11001344219E+04  0.88583372653E+03 0.  0.
         23    2    4    4    0    0  0.30459860382E+03  0.31588071608E+03 -0.72309654110E+03  0.85051893670E+03  0.89179132626E+02 0.  0.
         23    2    4    4    0    0  0.30815376330E+02 -0.77395360091E+02  0.21691816132E+03  0.24961548523E+03  0.91185374770E+02 0.  0.
          2    1    3    3  502    0 -0.23190385703E+03 -0.13079453732E+03  0.78910806766E+03  0.83281339588E+03  0.00000000000E+00 0. -1.
         -1    1    3    3    0  502 -0.10351012311E+03 -0.10769081867E+03  0.60523828510E+03  0.62339797864E+03  0.00000000000E+00 0.  1.
         13    1    5    5    0    0  0.10058333810E+02  0.46874181087E+02 -0.61589898611E+02  0.78049180281E+02  0.00000000000E+00 0.  1.
        -13    1    5    5    0    0  0.29454027001E+03  0.26900653499E+03 -0.66150664249E+03  0.77246975642E+03  0.00000000000E+00 0. -1.
          4    1    6    6  503    0  0.36738130066E+02 -0.58410145253E+02  0.21900523069E+03  0.22961865416E+03  0.00000000000E+00 0. -1.
         -4    1    6    6    0  503 -0.59227537361E+01 -0.18985214839E+02 -0.20870693648E+01  0.19996831069E+02  0.00000000000E+00 0.  1.
<mgrwt>
<rscale>  0 0.23970944E+04</rscale>
<asrwt>0</asrwt>
<pdfrwt beam="1">  1        2 0.26496260E+00 0.23970944E+04</pdfrwt>
<pdfrwt beam="2">  1       -1 0.12832137E+00 0.23970944E+04</pdfrwt>
<totfact> 0.51150113E+00</totfact>
</mgrwt>
</event>
<event>
12    7  0.1735955E-007  0.1204747E+04  0.7818608E-02  0.9108712E-01
          2   -1    0    0  501    0  0.00000000000E+00  0.00000000000E+00  0.10498365928E+04  0.10498365928E+04  0.00000000000E+00 0. -1.
         -1   -1    0    0    0  501 -0.00000000000E+00 -0.00000000000E+00 -0.34562876678E+03  0.34562876678E+03  0.00000000000E+00 0.  1.
         24    2    1    2    0    0 -0.59167885846E+02 -0.12780573075E+03  0.39401005852E+03  0.42618212834E+03  0.80945270239E+02 0.  0.
        254    2    1    2    0    0  0.59167885846E+02  0.12780573075E+03  0.31019776755E+03  0.96928323130E+03  0.90744266152E+03 0.  0.
         23    2    4    4    0    0  0.43987264468E+03 -0.87732210095E+02  0.24141402437E+03  0.51753527408E+03  0.91526742159E+02 0.  0.
         23    2    4    4    0    0 -0.38070475883E+03  0.21553794084E+03  0.68783743180E+02  0.45174795721E+03  0.89175647915E+02 0.  0.
          4    1    3    3  502    0 -0.79015086457E+02 -0.11074923349E+03  0.32181384862E+03  0.34938936700E+03  0.00000000000E+00 0. -1.
         -3    1    3    3    0  502  0.19847200611E+02 -0.17056497254E+02  0.72196209900E+02  0.76792761343E+02  0.00000000000E+00 0.  1.
         13    1    5    5    0    0  0.35390162193E+03 -0.32432238788E+02  0.19337954918E+03  0.40459097637E+03  0.00000000000E+00 0. -1.
        -13    1    5    5    0    0  0.85971022753E+02 -0.55299971307E+02  0.48034475186E+02  0.11294429771E+03  0.00000000000E+00 0.  1.
          1    1    6    6  503    0 -0.33969762827E+03  0.15831013574E+03  0.45157047603E+02  0.37748607482E+03  0.00000000000E+00 0. -1.
         -1    1    6    6    0  503 -0.41007130563E+02  0.57227805101E+02  0.23626695577E+02  0.74261882400E+02  0.00000000000E+00 0.  1.
<mgrwt>
<rscale>  0 0.12047468E+04</rscale>
<asrwt>0</asrwt>
<pdfrwt beam="1">  1        2 0.16151332E+00 0.12047468E+04</pdfrwt>
<pdfrwt beam="2">  1       -1 0.53173657E-01 0.12047468E+04</pdfrwt>
<totfact> 0.93939628E+01</totfact>
</mgrwt>
</event>
<event>
12    7  0.1735955E-007  0.1501621E+04  0.7818608E-02  0.8883376E-01
         -1   -1    0    0    0  501 -0.00000000000E+00  0.00000000000E+00  0.21156063439E+03  0.21156063439E+03  0.00000000000E+00 0.  1.
          2   -1    0    0  501    0  0.00000000000E+00 -0.00000000000E+00 -0.26645606662E+04  0.26645606662E+04  0.00000000000E+00 0. -1.
         24    2    1    2    0    0 -0.85008999542E+02 -0.14677472390E+03 -0.16315689107E+04  0.16421607345E+04  0.76846718571E+02 0.  0.
        254    2    1    2    0    0  0.85008999542E+02  0.14677472390E+03 -0.82143112111E+03  0.12339605660E+04  0.90506366750E+03 0.  0.
         23    2    4    4    0    0 -0.32240074366E+03 -0.13776630155E+03 -0.55448341693E+03  0.66251747916E+03  0.92497336126E+02 0.  0.
         23    2    4    4    0    0  0.40740974320E+03  0.28454102545E+03 -0.26694770417E+03  0.57144308687E+03  0.91322673801E+02 0.  0.
          2    1    3    3  502    0 -0.98642524508E+02 -0.11430851583E+03 -0.13305383515E+04  0.13390777010E+04  0.00000000000E+00 0. -1.
         -1    1    3    3    0  502  0.13633524965E+02 -0.32466208070E+02 -0.30103055919E+03  0.30308303356E+03  0.00000000000E+00 0.  1.
         13    1    5    5    0    0 -0.16207825230E+03 -0.10612485799E+03 -0.35710006513E+03  0.40626629428E+03  0.00000000000E+00 0.  1.
        -13    1    5    5    0    0 -0.16032249136E+03 -0.31641443563E+02 -0.19738335180E+03  0.25625118489E+03  0.00000000000E+00 0. -1.
          2    1    6    6  503    0  0.34001671659E+02  0.29930038528E-01 -0.31110773507E+02  0.46086818068E+02  0.00000000000E+00 0. -1.
         -2    1    6    6    0  503  0.37340807154E+03  0.28451109541E+03 -0.23583693067E+03  0.52535626880E+03  0.00000000000E+00 0.  1.
<mgrwt>
<rscale>  0 0.15016207E+04</rscale>
<asrwt>0</asrwt>
<pdfrwt beam="1">  1        2 0.40993238E+00 0.15016207E+04</pdfrwt>
<pdfrwt beam="2">  1       -1 0.32547793E-01 0.15016207E+04</pdfrwt>
<totfact> 0.27204092E+01</totfact>
</mgrwt>
</event>
<event>
12    7  0.1735955E-007  0.2857378E+04  0.7818608E-02  0.8285673E-01
          2   -1    0    0  501    0  0.00000000000E+00  0.00000000000E+00  0.14805023670E+04  0.14805023670E+04  0.00000000000E+00 0. -1.
         -1   -1    0    0    0  501 -0.00000000000E+00 -0.00000000000E+00 -0.13786890806E+04  0.13786890806E+04  0.00000000000E+00 0.  1.
         24    2    1    2    0    0  0.12446467441E+04  0.24118523847E+03 -0.15766534648E+03  0.12800788303E+04  0.80172398218E+02 0.  0.
        254    2    1    2    0    0 -0.12446467441E+04 -0.24118523847E+03  0.25947863280E+03  0.15791126173E+04  0.90495947996E+03 0.  0.
         23    2    4    4    0    0 -0.91031987575E+03  0.15679642847E+03  0.43189342332E+03  0.10240779202E+04  0.94531800487E+02 0.  0.
         23    2    4    4    0    0 -0.33432686837E+03 -0.39798166693E+03 -0.17241479052E+03  0.55503469714E+03  0.90403500569E+02 0.  0.
          2    1    3    3  502    0  0.30658328146E+02  0.10672397627E+01  0.75477695066E+01  0.31591785482E+02  0.00000000000E+00 0. -1.
         -1    1    3    3    0  502  0.12139884160E+04  0.24011799870E+03 -0.16521311598E+03  0.12484870448E+04  0.00000000000E+00 0.  1.
         13    1    5    5    0    0 -0.11234220798E+03 -0.11687592454E+02  0.49847995691E+02  0.12345928149E+03  0.00000000000E+00 0. -1.
        -13    1    5    5    0    0 -0.79797766777E+03  0.16848402092E+03  0.38204542763E+03  0.90061863868E+03  0.00000000000E+00 0.  1.
          3    1    6    6  503    0 -0.23391627530E+03 -0.32132240175E+03 -0.10166942344E+03  0.41024575729E+03  0.00000000000E+00 0. -1.
         -3    1    6    6    0  503 -0.10041059307E+03 -0.76659265184E+02 -0.70745367083E+02  0.14478893985E+03  0.00000000000E+00 0.  1.
<mgrwt>
<rscale>  0 0.28573781E+04</rscale>
<asrwt>0</asrwt>
<pdfrwt beam="1">  1        2 0.22776959E+00 0.28573781E+04</pdfrwt>
<pdfrwt beam="2">  1       -1 0.21210601E+00 0.28573781E+04</pdfrwt>
<totfact> 0.15975075E+00</totfact>
</mgrwt>
</event>
<event>
12    7  0.1735955E-007  0.1717545E+04  0.7818608E-02  0.8751420E-01
          2   -1    0    0  501    0  0.00000000000E+00  0.00000000000E+00  0.78597380390E+03  0.78597380390E+03  0.00000000000E+00 0. -1.
         -1   -1    0    0    0  501 -0.00000000000E+00 -0.00000000000E+00 -0.93831428450E+03  0.93831428450E+03  0.00000000000E+00 0.  1.
         24    2    1    2    0    0 -0.18458775666E+03 -0.15144616454E+03 -0.62509215479E+03  0.67391973184E+03  0.80118801298E+02 0.  0.
        254    2    1    2    0    0  0.18458775666E+03  0.15144616454E+03  0.47275167419E+03  0.10503683566E+04  0.90706722923E+03 0.  0.
         23    2    4    4    0    0 -0.30339165182E+03  0.27250448682E+03  0.13993865962E+03  0.44057986601E+03  0.90678553959E+02 0.  0.
         23    2    4    4    0    0  0.48797940848E+03 -0.12105832228E+03  0.33281301457E+03  0.60978849055E+03  0.91095993573E+02 0.  0.
          2    1    3    3  502    0 -0.12309212990E+03 -0.81056100175E+02 -0.47273036863E+03  0.49517246010E+03  0.00000000000E+00 0. -1.
         -1    1    3    3    0  502 -0.61495626763E+02 -0.70390064366E+02 -0.15236178616E+03  0.17874727174E+03  0.00000000000E+00 0.  1.
         13    1    5    5    0    0 -0.30861751815E+03  0.25958736121E+03  0.13097004622E+03  0.42400887209E+03  0.00000000000E+00 0. -1.
        -13    1    5    5    0    0  0.52258663326E+01  0.12917125612E+02  0.89686134062E+01  0.16570993918E+02  0.00000000000E+00 0.  1.
          4    1    6    6  503    0  0.39320224386E+03 -0.80135836485E+02  0.30143958025E+03  0.50189199775E+03  0.00000000000E+00 0. -1.
         -4    1    6    6    0  503  0.94777164612E+02 -0.40922485795E+02  0.31373434319E+02  0.10789649279E+03  0.00000000000E+00 0.  1.
<mgrwt>
<rscale>  0 0.17175453E+04</rscale>
<asrwt>0</asrwt>
<pdfrwt beam="1">  1        2 0.12091905E+00 0.17175453E+04</pdfrwt>
<pdfrwt beam="2">  1       -1 0.14435604E+00 0.17175453E+04</pdfrwt>
<totfact> 0.14792450E+01</totfact>
</mgrwt>
</event>
<event>
12    7  0.1735955E-007  0.1998123E+04  0.7818608E-02  0.8607499E-01
         -1   -1    0    0    0  501 -0.00000000000E+00  0.00000000000E+00  0.87585670301E+03  0.87585670301E+03  0.00000000000E+00 0.  1.
          2   -1    0    0  501    0  0.00000000000E+00 -0.00000000000E+00 -0.11395968358E+04  0.11395968358E+04  0.00000000000E+00 0. -1.
         24    2    1    2    0    0 -0.10938832155E+03 -0.10212269014E+03 -0.89090987393E+03  0.90686455295E+03  0.79297321562E+02 0.  0.
        254    2    1    2    0    0  0.10938832155E+03  0.10212269014E+03  0.62716974110E+03  0.11085889859E+04  0.90179421529E+03 0.  0.
         23    2    4    4    0    0  0.13840044324E+03  0.48052710141E+03  0.25374355001E+03  0.56821614937E+03  0.91775951928E+02 0.  0.
         23    2    4    4    0    0 -0.29012121695E+02 -0.37840441128E+03  0.37342619109E+03  0.54037283651E+03  0.92325947422E+02 0.  0.
          4    1    3    3  502    0 -0.80291386135E+02 -0.10822094299E+03 -0.62897836485E+03  0.64325132152E+03  0.00000000000E+00 0. -1.
         -3    1    3    3    0  502 -0.29096935412E+02  0.60982528473E+01 -0.26193150907E+03  0.26361323143E+03  0.00000000000E+00 0.  1.
         13    1    5    5    0    0  0.64480016460E+02  0.26714695179E+03  0.18817204497E+03  0.33306738790E+03  0.00000000000E+00 0.  1.
        -13    1    5    5    0    0  0.73920426782E+02  0.21338014963E+03  0.65571505041E+02  0.23514876148E+03  0.00000000000E+00 0. -1.
          2    1    6    6  503    0  0.13551519643E+02 -0.23854825198E+03  0.27416422041E+03  0.36366871183E+03  0.00000000000E+00 0. -1.
         -2    1    6    6    0  503 -0.42563641338E+02 -0.13985615930E+03  0.99261970678E+02  0.17670412469E+03  0.00000000000E+00 0.  1.
<mgrwt>
<rscale>  0 0.19981226E+04</rscale>
<asrwt>0</asrwt>
<pdfrwt beam="1">  1        2 0.17532259E+00 0.19981226E+04</pdfrwt>
<pdfrwt beam="2">  1       -1 0.13474719E+00 0.19981226E+04</pdfrwt>
<totfact> 0.10104311E+01</totfact>
</mgrwt>
</event>
<event>
12    7  0.1735955E-007  0.1585395E+04  0.7818608E-02  0.8829571E-01
         -1   -1    0    0    0  501 -0.00000000000E+00  0.00000000000E+00  0.82217924732E+03  0.82217924732E+03  0.00000000000E+00 0.  1.
          2   -1    0    0  501    0  0.00000000000E+00 -0.00000000000E+00 -0.76427273444E+03  0.76427273444E+03  0.00000000000E+00 0. -1.
         24    2    1    2    0    0  0.26821850979E+03  0.22308275399E+03  0.42173421441E+03  0.55243754904E+03  0.74969419490E+02 0.  0.
        254    2    1    2    0    0 -0.26821850979E+03 -0.22308275399E+03 -0.36382770154E+03  0.10340144327E+04  0.90283341018E+03 0.  0.
         23    2    4    4    0    0 -0.16127571980E+03  0.47596400272E+02 -0.61164054921E+03  0.64103034536E+03  0.92414647743E+02 0.  0.
         23    2    4    4    0    0 -0.10694278999E+03 -0.27067915426E+03  0.24781284767E+03  0.39298408735E+03  0.91221272512E+02 0.  0.
          2    1    3    3  502    0  0.20401016308E+02  0.29099418755E+02  0.16047637385E+02  0.38993644404E+02  0.00000000000E+00 0. -1.
         -1    1    3    3    0  502  0.24781749349E+03  0.19398333523E+03  0.40568657703E+03  0.51344390464E+03  0.00000000000E+00 0.  1.
         13    1    5    5    0    0 -0.66238470677E+02  0.51854386598E+02 -0.40355761192E+03  0.41223192325E+03  0.00000000000E+00 0. -1.
        -13    1    5    5    0    0 -0.95037249126E+02 -0.42579863261E+01 -0.20808293729E+03  0.22879842211E+03  0.00000000000E+00 0.  1.
          2    1    6    6  503    0 -0.12369268938E+03 -0.24177429061E+03  0.21944188203E+03  0.34915530727E+03  0.00000000000E+00 0. -1.
         -2    1    6    6    0  503  0.16749899386E+02 -0.28904863647E+02  0.28370965648E+02  0.43828780084E+02  0.00000000000E+00 0.  1.
<mgrwt>
<rscale>  0 0.15853948E+04</rscale>
<asrwt>0</asrwt>
<pdfrwt beam="1">  1        2 0.11758042E+00 0.15853948E+04</pdfrwt>
<pdfrwt beam="2">  1       -1 0.12648912E+00 0.15853948E+04</pdfrwt>
<totfact> 0.21795878E+01</totfact>
</mgrwt>
</event>
<event>
12    7  0.1735955E-007  0.1513519E+04  0.7818608E-02  0.8875513E-01
         -1   -1    0    0    0  501 -0.00000000000E+00  0.00000000000E+00  0.43737715584E+03  0.43737715584E+03  0.00000000000E+00 0.  1.
          2   -1    0    0  501    0  0.00000000000E+00 -0.00000000000E+00 -0.13093613938E+04  0.13093613938E+04  0.00000000000E+00 0. -1.
         24    2    1    2    0    0 -0.28708801721E+03 -0.14965236743E+03 -0.69943783766E+03  0.77568311214E+03  0.87496519914E+02 0.  0.
        254    2    1    2    0    0  0.28708801721E+03  0.14965236743E+03 -0.17254640034E+03  0.97105543755E+03  0.89908900661E+03 0.  0.
         23    2    4    4    0    0 -0.28145465628E+03  0.78300517333E+02 -0.23755377528E+03  0.38693615297E+03  0.89107215015E+02 0.  0.
         23    2    4    4    0    0  0.56854267349E+03  0.71351850101E+02  0.65007374942E+02  0.58411928458E+03  0.92938268357E+02 0.  0.
          2    1    3    3  502    0 -0.17557593962E+03 -0.87837633935E+02 -0.32027293758E+03  0.37565558036E+03  0.00000000000E+00 0. -1.
         -1    1    3    3    0  502 -0.11151207759E+03 -0.61814733499E+02 -0.37916490008E+03  0.40002753178E+03  0.00000000000E+00 0.  1.
         13    1    5    5    0    0 -0.64415641994E+02  0.20136860566E+02 -0.11978275588E+02  0.68544490465E+02  0.00000000000E+00 0.  1.
        -13    1    5    5    0    0 -0.21703901429E+03  0.58163656767E+02 -0.22557549969E+03  0.31839166250E+03  0.00000000000E+00 0. -1.
          2    1    6    6  503    0  0.22306177118E+03  0.70972384284E+02  0.42486762969E+02  0.23790493505E+03  0.00000000000E+00 0. -1.
         -2    1    6    6    0  503  0.34548090231E+03  0.37946581641E+00  0.22520611973E+02  0.34621434953E+03  0.00000000000E+00 0.  1.
<mgrwt>
<rscale>  0 0.15135188E+04</rscale>
<asrwt>0</asrwt>
<pdfrwt beam="1">  1        2 0.20144021E+00 0.15135188E+04</pdfrwt>
<pdfrwt beam="2">  1       -1 0.67288793E-01 0.15135188E+04</pdfrwt>
<totfact> 0.40181924E+01</totfact>
</mgrwt>
</event>
<event>
12    7  0.1735955E-007  0.2205930E+04  0.7818608E-02  0.8515964E-01
         -1   -1    0    0    0  501 -0.00000000000E+00  0.00000000000E+00  0.82916190810E+03  0.82916190810E+03  0.00000000000E+00 0.  1.
          2   -1    0    0  501    0  0.00000000000E+00 -0.00000000000E+00 -0.14671818476E+04  0.14671818476E+04  0.00000000000E+00 0. -1.
         24    2    1    2    0    0  0.29150230511E+03  0.20486235370E+02 -0.11674032656E+04  0.12057186282E+04  0.74389154295E+02 0.  0.
        254    2    1    2    0    0 -0.29150230511E+03 -0.20486235370E+02  0.52938332602E+03  0.10906251275E+04  0.90764705870E+03 0.  0.
         23    2    4    4    0    0 -0.44402368013E+03 -0.63110763566E+02  0.70264609652E+03  0.83854830666E+03  0.91168682458E+02 0.  0.
         23    2    4    4    0    0  0.15252137502E+03  0.42624528196E+02 -0.17326277050E+03  0.25207682085E+03  0.91886428427E+02 0.  0.
          4    1    3    3  502    0  0.25663570782E+03  0.39558505329E+01 -0.10816244432E+04  0.11116604569E+04  0.00000000000E+00 0. -1.
         -3    1    3    3    0  502  0.34866597291E+02  0.16530384837E+02 -0.85778822392E+02  0.94058171365E+02  0.00000000000E+00 0.  1.
         13    1    5    5    0    0 -0.28776400189E+03 -0.62443606269E+02  0.38647692488E+03  0.48587214184E+03  0.00000000000E+00 0.  1.
        -13    1    5    5    0    0 -0.15625967824E+03 -0.66715729752E+00  0.31616917164E+03  0.35267616482E+03  0.00000000000E+00 0. -1.
          2    1    6    6  503    0  0.31006228162E+02  0.51990854069E+02 -0.47475245905E+02  0.76930709508E+02  0.00000000000E+00 0. -1.
         -2    1    6    6    0  503  0.12151514686E+03 -0.93663258727E+01 -0.12578752459E+03  0.17514611134E+03  0.00000000000E+00 0.  1.
<mgrwt>
<rscale>  0 0.22059296E+04</rscale>
<asrwt>0</asrwt>
<pdfrwt beam="1">  1        2 0.22572028E+00 0.22059296E+04</pdfrwt>
<pdfrwt beam="2">  1       -1 0.12756337E+00 0.22059296E+04</pdfrwt>
<totfact> 0.73355583E+00</totfact>
</mgrwt>
</event>
<event>
12    7  0.1735955E-007  0.1487820E+04  0.7818608E-02  0.8892593E-01
          2   -1    0    0  501    0  0.00000000000E+00  0.00000000000E+00  0.31649919886E+04  0.31649919886E+04  0.00000000000E+00 0. -1.
         -1   -1    0    0    0  501 -0.00000000000E+00 -0.00000000000E+00 -0.17485096594E+03  0.17485096594E+03  0.00000000000E+00 0.  1.
         24    2    1    2    0    0 -0.20845521953E+03  0.26706234360E+03  0.22594900492E+03  0.41550878103E+03  0.82575543415E+02 0.  0.
        254    2    1    2    0    0  0.20845521953E+03 -0.26706234360E+03  0.27641920178E+04  0.29243341735E+04  0.89229870195E+03 0.  0.
         23    2    4    4    0    0  0.48757153889E+02  0.21993377559E+03  0.21678056011E+03  0.32431530675E+03  0.86246630368E+02 0.  0.
         23    2    4    4    0    0  0.15969806564E+03 -0.48699611919E+03  0.25474114576E+04  0.26000188668E+04  0.90134792300E+02 0.  0.
          4    1    3    3  502    0 -0.13689193706E+03  0.18017000955E+03  0.19514690040E+03  0.29880252260E+03  0.00000000000E+00 0. -1.
         -3    1    3    3    0  502 -0.71563282466E+02  0.86892334057E+02  0.30802104515E+02  0.11670625843E+03  0.00000000000E+00 0.  1.
         13    1    5    5    0    0  0.15913333051E+02  0.52219476599E+02  0.10999381867E+03  0.12279555387E+03  0.00000000000E+00 0. -1.
        -13    1    5    5    0    0  0.32843820838E+02  0.16771429899E+03  0.10678674144E+03  0.20151975288E+03  0.00000000000E+00 0.  1.
          4    1    6    6  503    0  0.69663108716E+02 -0.27955476360E+03  0.12259512727E+04  0.12593491723E+04  0.00000000000E+00 0. -1.
         -4    1    6    6    0  503  0.90034956922E+02 -0.20744135559E+03  0.13214601849E+04  0.13406696945E+04  0.00000000000E+00 0.  1.
<mgrwt>
<rscale>  0 0.14878198E+04</rscale>
<asrwt>0</asrwt>
<pdfrwt beam="1">  1        2 0.48692180E+00 0.14878198E+04</pdfrwt>
<pdfrwt beam="2">  1       -1 0.26900151E-01 0.14878198E+04</pdfrwt>
<totfact> 0.18756184E+01</totfact>
</mgrwt>
</event>
<event>
12    7  0.1735955E-007  0.4718235E+04  0.7818608E-02  0.7873506E-01
         -1   -1    0    0    0  501 -0.00000000000E+00  0.00000000000E+00  0.24720082450E+04  0.24720082450E+04  0.00000000000E+00 0.  1.
          2   -1    0    0  501    0  0.00000000000E+00 -0.00000000000E+00 -0.22513823845E+04  0.22513823845E+04  0.00000000000E+00 0. -1.
         24    2    1    2    0    0  0.13681242603E+04  0.14090355394E+04 -0.10397239157E+04  0.22234919541E+04  0.75799117990E+02 0.  0.
        254    2    1    2    0    0 -0.13681242603E+04 -0.14090355394E+04  0.12603497762E+04  0.24998986754E+04  0.89658612861E+03 0.  0.
         23    2    4    4    0    0 -0.79661226105E+03 -0.82248789916E+03  0.21465615227E+03  0.11685612487E+04  0.91546106505E+02 0.  0.
         23    2    4    4    0    0 -0.57151199924E+03 -0.58654764021E+03  0.10456936239E+04  0.13313374267E+04  0.91214521602E+02 0.  0.
          2    1    3    3  502    0  0.13017113898E+04  0.13354619998E+04 -0.10049693950E+04  0.21184604740E+04  0.00000000000E+00 0. -1.
         -1    1    3    3    0  502  0.66412870524E+02  0.73573539560E+02 -0.34754520670E+02  0.10503148005E+03  0.00000000000E+00 0.  1.
         13    1    5    5    0    0 -0.13351362746E+02 -0.37609054599E+01 -0.43470167261E+01  0.14536156695E+02  0.00000000000E+00 0. -1.
        -13    1    5    5    0    0 -0.78326089830E+03 -0.81872699370E+03  0.21900316900E+03  0.11540250920E+04  0.00000000000E+00 0.  1.
          1    1    6    6  503    0 -0.25789559356E+02 -0.61496137273E+02  0.81692216331E+02  0.10545375517E+03  0.00000000000E+00 0. -1.
         -1    1    6    6    0  503 -0.54572243989E+03 -0.52505150293E+03  0.96400140761E+03  0.12258836715E+04  0.00000000000E+00 0.  1.
<mgrwt>
<rscale>  0 0.47182352E+04</rscale>
<asrwt>0</asrwt>
<pdfrwt beam="1">  1        2 0.34636652E+00 0.47182352E+04</pdfrwt>
<pdfrwt beam="2">  1       -1 0.38030896E+00 0.47182352E+04</pdfrwt>
<totfact> 0.39848299E-02</totfact>
</mgrwt>
</event>
<event>
12    7  0.1735955E-007  0.1117921E+04  0.7818608E-02  0.9187899E-01
          2   -1    0    0  501    0  0.00000000000E+00  0.00000000000E+00  0.80264864428E+03  0.80264864428E+03  0.00000000000E+00 0. -1.
         -1   -1    0    0    0  501 -0.00000000000E+00 -0.00000000000E+00 -0.38925738549E+03  0.38925738549E+03  0.00000000000E+00 0.  1.
         24    2    1    2    0    0  0.11190141619E+03  0.84456623218E+02 -0.26747159321E+02  0.17155398274E+03  0.95186712902E+02 0.  0.
        254    2    1    2    0    0 -0.11190141619E+03 -0.84456623218E+02  0.44013841811E+03  0.10203520470E+04  0.90980306914E+03 0.  0.
         23    2    4    4    0    0  0.39085593088E+03 -0.29239055919E+02  0.24119213273E+03  0.46907853032E+03  0.90762005387E+02 0.  0.
         23    2    4    4    0    0 -0.50275734707E+03 -0.55217567300E+02  0.19894628539E+03  0.55127351670E+03  0.92243893958E+02 0.  0.
          4    1    3    3  502    0  0.28068687917E+02 -0.19434513111E+02 -0.15771673212E+02  0.37607143166E+02  0.00000000000E+00 0. -1.
         -3    1    3    3    0  502  0.83832728272E+02  0.10389113633E+03 -0.10975486109E+02  0.13394683958E+03  0.00000000000E+00 0.  1.
         13    1    5    5    0    0  0.16210730324E+03 -0.35622463630E+01  0.49519555539E+02  0.16953953446E+03  0.00000000000E+00 0.  1.
        -13    1    5    5    0    0  0.22874862764E+03 -0.25676809556E+02  0.19167257719E+03  0.29953899586E+03  0.00000000000E+00 0. -1.
          1    1    6    6  503    0 -0.17934323253E+03  0.82491259275E+01  0.34016643646E+02  0.18272705103E+03  0.00000000000E+00 0. -1.
         -1    1    6    6    0  503 -0.32341411455E+03 -0.63466693227E+02  0.16492964174E+03  0.36854646568E+03  0.00000000000E+00 0.  1.
<mgrwt>
<rscale>  0 0.11179211E+04</rscale>
<asrwt>0</asrwt>
<pdfrwt beam="1">  1        2 0.12348441E+00 0.11179211E+04</pdfrwt>
<pdfrwt beam="2">  1       -1 0.59885752E-01 0.11179211E+04</pdfrwt>
<totfact> 0.10977869E+02</totfact>
</mgrwt>
</event>
<event>
12    7  0.1735955E-007  0.1793274E+04  0.7818608E-02  0.8709884E-01
         -1   -1    0    0    0  501 -0.00000000000E+00  0.00000000000E+00  0.24788479200E+03  0.24788479200E+03  0.00000000000E+00 0.  1.
          2   -1    0    0  501    0  0.00000000000E+00 -0.00000000000E+00 -0.32432734866E+04  0.32432734866E+04  0.00000000000E+00 0. -1.
         24    2    1    2    0    0 -0.41999744801E+03 -0.17466774385E+03 -0.17491169980E+03  0.49310342525E+03  0.75167866773E+02 0.  0.
        254    2    1    2    0    0  0.41999744801E+03  0.17466774385E+03 -0.28204769948E+04  0.29980548533E+04  0.90903011411E+03 0.  0.
         23    2    4    4    0    0 -0.10222984068E+02  0.21302700816E+03 -0.23165616437E+04  0.23281104295E+04  0.90306739941E+02 0.  0.
         23    2    4    4    0    0  0.43022043207E+03 -0.38359264303E+02 -0.50391535104E+03  0.66994442378E+03  0.91289630332E+02 0.  0.
          2    1    3    3  502    0 -0.82257400336E+02 -0.37262026802E+02 -0.39448544323E+01  0.90389714171E+02  0.00000000000E+00 0. -1.
         -1    1    3    3    0  502 -0.33774004767E+03 -0.13740571705E+03 -0.17096684537E+03  0.40271371108E+03  0.00000000000E+00 0.  1.
         13    1    5    5    0    0 -0.45219707982E+02  0.88868679440E+02 -0.11956764121E+04  0.11998268820E+04  0.00000000000E+00 0. -1.
        -13    1    5    5    0    0  0.34996723914E+02  0.12415832872E+03 -0.11208852316E+04  0.11282835476E+04  0.00000000000E+00 0.  1.
          1    1    6    6  503    0  0.27922051279E+03 -0.54582903865E+02 -0.27838551914E+03  0.39804759191E+03  0.00000000000E+00 0. -1.
         -1    1    6    6    0  503  0.15099991929E+03  0.16223639562E+02 -0.22552983190E+03  0.27189683187E+03  0.00000000000E+00 0.  1.
<mgrwt>
<rscale>  0 0.17932743E+04</rscale>
<asrwt>0</asrwt>
<pdfrwt beam="1">  1        2 0.49896514E+00 0.17932743E+04</pdfrwt>
<pdfrwt beam="2">  1       -1 0.38136123E-01 0.17932743E+04</pdfrwt>
<totfact> 0.87313135E+00</totfact>
</mgrwt>
</event>
<event>
12    7  0.1735955E-007  0.1452235E+04  0.7818608E-02  0.8916853E-01
         -1   -1    0    0    0  501 -0.00000000000E+00  0.00000000000E+00  0.26758529584E+03  0.26758529584E+03  0.00000000000E+00 0.  1.
          2   -1    0    0  501    0  0.00000000000E+00 -0.00000000000E+00 -0.19703861829E+04  0.19703861829E+04  0.00000000000E+00 0. -1.
         24    2    1    2    0    0 -0.85213213313E+02 -0.38731019180E+03 -0.23177719132E+03  0.46621678728E+03  0.79793169665E+02 0.  0.
        254    2    1    2    0    0  0.85213213313E+02  0.38731019180E+03 -0.14710236957E+04  0.17717546914E+04  0.90439675856E+03 0.  0.
         23    2    4    4    0    0  0.37497708339E+02 -0.29807938220E+02  0.10070238539E+03  0.14227178869E+03  0.88349873367E+02 0.  0.
         23    2    4    4    0    0  0.47715504974E+02  0.41711813002E+03 -0.15717260811E+04  0.16294829028E+04  0.92883542801E+02 0.  0.
          4    1    3    3  502    0 -0.23675092809E-01 -0.12752172906E+02  0.63753516740E+01  0.14257053809E+02  0.00000000000E+00 0. -1.
         -3    1    3    3    0  502 -0.85189538220E+02 -0.37455801890E+03 -0.23815254300E+03  0.45195973347E+03  0.00000000000E+00 0.  1.
         13    1    5    5    0    0  0.53206680704E+02  0.34695456070E+01  0.26714153218E+02  0.59637526780E+02  0.00000000000E+00 0. -1.
        -13    1    5    5    0    0 -0.15708972365E+02 -0.33277483827E+02  0.73988232168E+02  0.82634261913E+02  0.00000000000E+00 0.  1.
          4    1    6    6  503    0  0.73397190582E+02  0.35783634980E+03 -0.13477386264E+04  0.13963643528E+04  0.00000000000E+00 0.  1.
         -4    1    6    6    0  503 -0.25681685608E+02  0.59281780220E+02 -0.22398745471E+03  0.23311854991E+03  0.00000000000E+00 0. -1.
<mgrwt>
<rscale>  0 0.14522347E+04</rscale>
<asrwt>0</asrwt>
<pdfrwt beam="1">  1        2 0.30313635E+00 0.14522347E+04</pdfrwt>
<pdfrwt beam="2">  1       -1 0.41166967E-01 0.14522347E+04</pdfrwt>
<totfact> 0.44300083E+01</totfact>
</mgrwt>
</event>
<event>
12    7  0.1735955E-007  0.2262020E+04  0.7818608E-02  0.8493048E-01
          2   -1    0    0  501    0  0.00000000000E+00  0.00000000000E+00  0.20516148044E+04  0.20516148044E+04  0.00000000000E+00 0. -1.
         -1   -1    0    0    0  501 -0.00000000000E+00 -0.00000000000E+00 -0.62350101892E+03  0.62350101892E+03  0.00000000000E+00 0.  1.
         24    2    1    2    0    0  0.53328011033E+03  0.15734245954E+03 -0.31660229675E+03  0.64475956041E+03  0.79583608752E+02 0.  0.
        254    2    1    2    0    0 -0.53328011033E+03 -0.15734245954E+03  0.17447160822E+04  0.20303562629E+04  0.87702224665E+03 0.  0.
         23    2    4    4    0    0  0.16972094964E+03 -0.19562462123E+03  0.81740021167E+03  0.86245693290E+03  0.92815202878E+02 0.  0.
         23    2    4    4    0    0 -0.70300105998E+03  0.38282161693E+02  0.92731587050E+03  0.11678993300E+04  0.91641186263E+02 0.  0.
          2    1    3    3  502    0  0.37435754106E+02  0.34089071701E+02 -0.32246240448E+02  0.60027664605E+02  0.00000000000E+00 0. -1.
         -1    1    3    3    0  502  0.49584435623E+03  0.12325338784E+03 -0.28435605630E+03  0.58473189580E+03  0.00000000000E+00 0.  1.
         13    1    5    5    0    0  0.10204651422E+03 -0.49172510035E+02  0.31164890862E+03  0.33159684717E+03  0.00000000000E+00 0.  1.
        -13    1    5    5    0    0  0.67674435419E+02 -0.14645211119E+03  0.50575130305E+03  0.53086008573E+03  0.00000000000E+00 0. -1.
          3    1    6    6  503    0 -0.51938129995E+03 -0.12218522898E+02  0.68235277172E+03  0.85761968967E+03  0.00000000000E+00 0. -1.
         -3    1    6    6    0  503 -0.18361976003E+03  0.50500684591E+02  0.24496309879E+03  0.31027964030E+03  0.00000000000E+00 0.  1.
<mgrwt>
<rscale>  0 0.22620203E+04</rscale>
<asrwt>0</asrwt>
<pdfrwt beam="1">  1        2 0.31563304E+00 0.22620203E+04</pdfrwt>
<pdfrwt beam="2">  1       -1 0.95923234E-01 0.22620203E+04</pdfrwt>
<totfact> 0.67800889E+00</totfact>
</mgrwt>
</event>
<event>
12    7  0.1735955E-007  0.2506822E+04  0.7818608E-02  0.8400559E-01
         -1   -1    0    0    0  501 -0.00000000000E+00  0.00000000000E+00  0.80493324374E+03  0.80493324374E+03  0.00000000000E+00 0.  1.
          2   -1    0    0  501    0  0.00000000000E+00 -0.00000000000E+00 -0.19517630435E+04  0.19517630435E+04  0.00000000000E+00 0. -1.
         24    2    1    2    0    0 -0.44757599631E+03 -0.30866550293E+03 -0.15257062634E+04  0.16217302494E+04  0.81429321180E+02 0.  0.
        254    2    1    2    0    0  0.44757599631E+03  0.30866550293E+03  0.37887646367E+03  0.11349660379E+04  0.92141297321E+03 0.  0.
         23    2    4    4    0    0  0.69307745923E+03  0.75789776882E+02  0.34296500231E+03  0.78230758148E+03  0.90992881369E+02 0.  0.
         23    2    4    4    0    0 -0.24550146291E+03  0.23287572605E+03  0.35911461360E+02  0.35265845638E+03  0.92608216309E+02 0.  0.
          2    1    3    3  502    0 -0.31460162455E+03 -0.19142074074E+03 -0.11197760504E+04  0.11787766902E+04  0.00000000000E+00 0. -1.
         -1    1    3    3    0  502 -0.13297437177E+03 -0.11724476219E+03 -0.40593021300E+03  0.44295355923E+03  0.00000000000E+00 0.  1.
         13    1    5    5    0    0  0.65014927498E+03  0.90883414313E+02  0.33129787342E+03  0.73533132375E+03  0.00000000000E+00 0. -1.
        -13    1    5    5    0    0  0.42928184243E+02 -0.15093637430E+02  0.11667128888E+02  0.46976257724E+02  0.00000000000E+00 0.  1.
          4    1    6    6  503    0 -0.24400125315E+03  0.19650698362E+03  0.40780495434E+02  0.31593457386E+03  0.00000000000E+00 0. -1.
         -4    1    6    6    0  503 -0.15002097621E+01  0.36368742426E+02 -0.48690340742E+01  0.36723882526E+02  0.00000000000E+00 0.  1.
<mgrwt>
<rscale>  0 0.25068219E+04</rscale>
<asrwt>0</asrwt>
<pdfrwt beam="1">  1        2 0.30027124E+00 0.25068219E+04</pdfrwt>
<pdfrwt beam="2">  1       -1 0.12383588E+00 0.25068219E+04</pdfrwt>
<totfact> 0.41292320E+00</totfact>
</mgrwt>
</event>
<event>
12    7  0.1735955E-007  0.1895899E+04  0.7818608E-02  0.8656900E-01
          4   -1    0    0  501    0  0.00000000000E+00  0.00000000000E+00  0.17378711564E+04  0.17378711564E+04  0.00000000000E+00 0. -1.
         -3   -1    0    0    0  501 -0.00000000000E+00 -0.00000000000E+00 -0.51707421271E+03  0.51707421271E+03  0.00000000000E+00 0.  1.
         24    2    1    2    0    0 -0.16956182633E+03 -0.54095706504E+03 -0.74299706775E+02  0.57736320983E+03  0.80262509748E+02 0.  0.
        254    2    1    2    0    0  0.16956182633E+03  0.54095706504E+03  0.12950966504E+04  0.16775821593E+04  0.90311727252E+03 0.  0.
         23    2    4    4    0    0 -0.33192068817E+03  0.75024464168E+02  0.61454165374E+03  0.70827036739E+03  0.90473508185E+02 0.  0.
         23    2    4    4    0    0  0.50148251450E+03  0.46593260087E+03  0.68055499669E+03  0.96931179186E+03  0.88500539119E+02 0.  0.
          2    1    3    3  502    0  0.36898459316E+01 -0.48775575950E+02 -0.19689542168E+02  0.52729022777E+02  0.00000000000E+00 0. -1.
         -1    1    3    3    0  502 -0.17325167226E+03 -0.49218148909E+03 -0.54610164607E+02  0.52463418705E+03  0.00000000000E+00 0.  1.
         13    1    5    5    0    0 -0.30003335871E-02  0.10503218183E+02  0.59939048322E+01  0.12093159072E+02  0.00000000000E+00 0.  1.
        -13    1    5    5    0    0 -0.33191768784E+03  0.64521245985E+02  0.60854774891E+03  0.69617720832E+03  0.00000000000E+00 0. -1.
          1    1    6    6  503    0  0.43577658243E+03  0.44021223514E+03  0.61849722364E+03  0.87534385096E+03  0.00000000000E+00 0. -1.
         -1    1    6    6    0  503  0.65705932063E+02  0.25720365735E+02  0.62057773050E+02  0.93967940905E+02  0.00000000000E+00 0.  1.
<mgrwt>
<rscale>  0 0.18958991E+04</rscale>
<asrwt>0</asrwt>
<pdfrwt beam="1">  1        4 0.26736479E+00 0.18958991E+04</pdfrwt>
<pdfrwt beam="2">  1       -3 0.79549880E-01 0.18958991E+04</pdfrwt>
<totfact> 0.15530816E-01</totfact>
</mgrwt>
</event>
<event>
12    7  0.1735955E-007  0.1912855E+04  0.7818608E-02  0.8648484E-01
          2   -1    0    0  501    0  0.00000000000E+00  0.00000000000E+00  0.53212553859E+03  0.53212553859E+03  0.00000000000E+00 0. -1.
         -1   -1    0    0    0  501 -0.00000000000E+00 -0.00000000000E+00 -0.17190558712E+04  0.17190558712E+04  0.00000000000E+00 0.  1.
         24    2    1    2    0    0 -0.20652918310E+03  0.57206068189E+03 -0.94604279847E+03  0.11274832976E+04  0.79459943069E+02 0.  0.
        254    2    1    2    0    0  0.20652918310E+03 -0.57206068189E+03 -0.24088753412E+03  0.11236981122E+04  0.91365360832E+03 0.  0.
         23    2    4    4    0    0 -0.10064567815E+03 -0.72030166148E+03 -0.92243180151E+02  0.73876237544E+03  0.91087908148E+02 0.  0.
         23    2    4    4    0    0  0.30717486124E+03  0.14824097959E+03 -0.14864435397E+03  0.38493573675E+03  0.98734968738E+02 0.  0.
          2    1    3    3  502    0 -0.30766554382E+01  0.63224380148E+01 -0.36685942723E+02  0.37353680202E+02  0.00000000000E+00 0. -1.
         -1    1    3    3    0  502 -0.20345252766E+03  0.56573824388E+03 -0.90935685575E+03  0.10901296174E+04  0.00000000000E+00 0.  1.
         13    1    5    5    0    0 -0.10553899232E+03 -0.68797279759E+03 -0.10454309988E+03  0.70382832343E+03  0.00000000000E+00 0. -1.
        -13    1    5    5    0    0  0.48933141796E+01 -0.32328863888E+02  0.12299919734E+02  0.34934052004E+02  0.00000000000E+00 0.  1.
          4    1    6    6  503    0  0.55133935375E+02  0.18838664743E+02  0.11646971139E+02  0.59416311362E+02  0.00000000000E+00 0. -1.
         -4    1    6    6    0  503  0.25204092587E+03  0.12940231485E+03 -0.16029132511E+03  0.32551942539E+03  0.00000000000E+00 0.  1.
<mgrwt>
<rscale>  0 0.19128550E+04</rscale>
<asrwt>0</asrwt>
<pdfrwt beam="1">  1        2 0.81865466E-01 0.19128550E+04</pdfrwt>
<pdfrwt beam="2">  1       -1 0.26447014E+00 0.19128550E+04</pdfrwt>
<totfact> 0.34345706E+00</totfact>
</mgrwt>
</event>
<event>
12    7  0.1735955E-007  0.1139612E+04  0.7818608E-02  0.9167420E-01
          2   -1    0    0  501    0  0.00000000000E+00  0.00000000000E+00  0.18584249421E+04  0.18584249421E+04  0.00000000000E+00 0. -1.
         -1   -1    0    0    0  501 -0.00000000000E+00 -0.00000000000E+00 -0.17470662017E+03  0.17470662017E+03  0.00000000000E+00 0.  1.
         24    2    1    2    0    0  0.13352237291E+03  0.16490762186E+03  0.48364112681E+03  0.53421900568E+03  0.80364536187E+02 0.  0.
        254    2    1    2    0    0 -0.13352237291E+03 -0.16490762186E+03  0.12000771952E+04  0.14989125566E+04  0.87265733838E+03 0.  0.
         23    2    4    4    0    0  0.25345005899E+03 -0.22367367192E+03  0.16621492099E+03  0.38965216172E+03  0.99672279290E+02 0.  0.
         23    2    4    4    0    0 -0.38697243190E+03  0.58766050053E+02  0.10338622742E+04  0.11092603949E+04  0.91576798690E+02 0.  0.
          4    1    3    3  502    0  0.82758691205E+02  0.14427633107E+03  0.30553224737E+03  0.34787154937E+03  0.00000000000E+00 0. -1.
         -3    1    3    3    0  502  0.50763681705E+02  0.20631290793E+02  0.17810887944E+03  0.18634745632E+03  0.00000000000E+00 0.  1.
         13    1    5    5    0    0  0.19247899560E+03 -0.18553194923E+03  0.83570655458E+02  0.28009698746E+03  0.00000000000E+00 0. -1.
        -13    1    5    5    0    0  0.60971063396E+02 -0.38141722691E+02  0.82644265533E+02  0.10955517426E+03  0.00000000000E+00 0.  1.
          4    1    6    6  503    0 -0.38984008694E+03  0.64592726080E+02  0.10105869974E+04  0.10850961215E+04  0.00000000000E+00 0. -1.
         -4    1    6    6    0  503  0.28676550366E+01 -0.58266760268E+01  0.23275276762E+02  0.24164273365E+02  0.00000000000E+00 0.  1.
<mgrwt>
<rscale>  0 0.11396125E+04</rscale>
<asrwt>0</asrwt>
<pdfrwt beam="1">  1        2 0.28591152E+00 0.11396125E+04</pdfrwt>
<pdfrwt beam="2">  1       -1 0.26877943E-01 0.11396125E+04</pdfrwt>
<totfact> 0.11178466E+02</totfact>
</mgrwt>
</event>
<event>
12    7  0.1735955E-007  0.1144701E+04  0.7818608E-02  0.9162686E-01
          2   -1    0    0  501    0  0.00000000000E+00  0.00000000000E+00  0.16162415577E+04  0.16162415577E+04  0.00000000000E+00 0. -1.
         -1   -1    0    0    0  501 -0.00000000000E+00 -0.00000000000E+00 -0.20268315844E+03  0.20268315844E+03  0.00000000000E+00 0.  1.
         24    2    1    2    0    0 -0.19558922472E+03  0.16623458559E+02  0.35821369498E+03  0.41587551182E+03  0.78127497444E+02 0.  0.
        254    2    1    2    0    0  0.19558922472E+03 -0.16623458559E+02  0.10553447042E+04  0.14030492043E+04  0.90347282231E+03 0.  0.
         23    2    4    4    0    0 -0.67260687924E+02  0.12505518323E+03  0.10768718671E+04  0.10899608101E+04  0.90546951819E+02 0.  0.
         23    2    4    4    0    0  0.26284991264E+03 -0.14167864179E+03 -0.21527162811E+02  0.31308839419E+03  0.91640655395E+02 0.  0.
          2    1    3    3  502    0 -0.16082729427E+03  0.12597361105E+02  0.34021452890E+03  0.37652362179E+03  0.00000000000E+00 0. -1.
         -1    1    3    3    0  502 -0.34761930449E+02  0.40260974534E+01  0.17999166078E+02  0.39351890028E+02  0.00000000000E+00 0.  1.
         13    1    5    5    0    0 -0.31964885631E+02  0.82159242397E+02  0.90615661169E+03  0.91043489604E+03  0.00000000000E+00 0. -1.
        -13    1    5    5    0    0 -0.35295802293E+02  0.42895940838E+02  0.17071525537E+03  0.17952591405E+03  0.00000000000E+00 0.  1.
          4    1    6    6  503    0  0.20631627480E+03 -0.10014342070E+03 -0.54272862799E+02  0.23567064644E+03  0.00000000000E+00 0. -1.
         -4    1    6    6    0  503  0.56533637843E+02 -0.41535221095E+02  0.32745699988E+02  0.77417747752E+02  0.00000000000E+00 0.  1.
<mgrwt>
<rscale>  0 0.11447007E+04</rscale>
<asrwt>0</asrwt>
<pdfrwt beam="1">  1        2 0.24865254E+00 0.11447007E+04</pdfrwt>
<pdfrwt beam="2">  1       -1 0.31182025E-01 0.11447007E+04</pdfrwt>
<totfact> 0.11739597E+02</totfact>
</mgrwt>
</event>
<event>
12    7  0.1735955E-007  0.2348851E+04  0.7818608E-02  0.8458905E-01
         -3   -1    0    0    0  501 -0.00000000000E+00  0.00000000000E+00  0.12761510128E+04  0.12761510128E+04  0.00000000000E+00 0.  1.
          2   -1    0    0  501    0  0.00000000000E+00 -0.00000000000E+00 -0.10808084900E+04  0.10808084900E+04  0.00000000000E+00 0. -1.
         24    2    1    2    0    0 -0.27157655512E+02  0.42060382900E+03  0.99130063777E+03  0.10801242829E+04  0.79664250073E+02 0.  0.
        254    2    1    2    0    0  0.27157655512E+02 -0.42060382900E+03 -0.79595811496E+03  0.12768352199E+04  0.90504902563E+03 0.  0.
         23    2    4    4    0    0 -0.51022498724E+02  0.58711851399E+02  0.15764444300E+03  0.20295071857E+03  0.10142409421E+03 0.  0.
         23    2    4    4    0    0  0.78180154237E+02 -0.47931568040E+03 -0.95360255796E+03  0.10738845013E+04  0.89523324679E+02 0.  0.
          2    1    3    3  502    0  0.26773891776E+02  0.16080271613E+03  0.35016863482E+03  0.38625435610E+03  0.00000000000E+00 0. -1.
         -1    1    3    3    0  502 -0.53931547288E+02  0.25980111287E+03  0.64113200295E+03  0.69386992675E+03  0.00000000000E+00 0.  1.
         13    1    5    5    0    0  0.20432584235E+02 -0.48513231482E+01  0.31274152652E+01  0.21232205751E+02  0.00000000000E+00 0.  1.
        -13    1    5    5    0    0 -0.71455082959E+02  0.63563174547E+02  0.15451702774E+03  0.18171851282E+03  0.00000000000E+00 0. -1.
          3    1    6    6  503    0  0.45682070859E+02 -0.12753820426E+03 -0.33764477929E+03  0.36380879885E+03  0.00000000000E+00 0. -1.
         -3    1    6    6    0  503  0.32498083378E+02 -0.35177747614E+03 -0.61595777867E+03  0.71007570248E+03  0.00000000000E+00 0.  1.
<mgrwt>
<rscale>  0 0.23488507E+04</rscale>
<asrwt>0</asrwt>
<pdfrwt beam="1">  1        2 0.16627823E+00 0.23488507E+04</pdfrwt>
<pdfrwt beam="2">  1       -3 0.19633093E+00 0.23488507E+04</pdfrwt>
<totfact> 0.19682155E+00</totfact>
</mgrwt>
</event>
<event>
12    7  0.1735955E-007  0.2050660E+04  0.7818608E-02  0.8583295E-01
         -1   -1    0    0    0  501 -0.00000000000E+00  0.00000000000E+00  0.76286405413E+03  0.76286405413E+03  0.00000000000E+00 0.  1.
          2   -1    0    0  501    0  0.00000000000E+00 -0.00000000000E+00 -0.13780982615E+04  0.13780982615E+04  0.00000000000E+00 0. -1.
         24    2    1    2    0    0 -0.41455058468E+03 -0.31947780024E+03  0.41599102148E+03  0.67321357156E+03  0.79055239400E+02 0.  0.
        254    2    1    2    0    0  0.41455058468E+03  0.31947780024E+03 -0.10312252289E+04  0.14677487441E+04  0.90384879876E+03 0.  0.
         23    2    4    4    0    0  0.32167231493E+03  0.25787073124E+03 -0.11820357128E+04  0.12551013251E+04  0.90002876014E+02 0.  0.
         23    2    4    4    0    0  0.92878269748E+02  0.61607068998E+02  0.15081048391E+03  0.21264741901E+03  0.10026623964E+03 0.  0.
          4    1    3    3  502    0 -0.17306037205E+02 -0.27231708570E+02  0.48211364171E+02  0.58012072112E+02  0.00000000000E+00 0. -1.
         -3    1    3    3    0  502 -0.39724454747E+03 -0.29224609167E+03  0.36777965731E+03  0.61520149945E+03  0.00000000000E+00 0.  1.
         13    1    5    5    0    0  0.11988018510E+03  0.12768486487E+03 -0.61148078854E+03  0.63606873704E+03  0.00000000000E+00 0. -1.
        -13    1    5    5    0    0  0.20179212983E+03  0.13018586637E+03 -0.57055492427E+03  0.61903258805E+03  0.00000000000E+00 0.  1.
          1    1    6    6  503    0 -0.16969096964E+01  0.20272823138E+00 -0.13367177497E+02  0.13475979946E+02  0.00000000000E+00 0. -1.
         -1    1    6    6    0  503  0.94575179444E+02  0.61404340766E+02  0.16417766141E+03  0.19917143906E+03  0.00000000000E+00 0.  1.
<mgrwt>
<rscale>  0 0.20506600E+04</rscale>
<asrwt>0</asrwt>
<pdfrwt beam="1">  1        2 0.21201512E+00 0.20506600E+04</pdfrwt>
<pdfrwt beam="2">  1       -1 0.11736370E+00 0.20506600E+04</pdfrwt>
<totfact> 0.10265764E+01</totfact>
</mgrwt>
</event>
<event>
12    7  0.1735955E-007  0.1715309E+04  0.7818608E-02  0.8752681E-01
         -1   -1    0    0    0  501 -0.00000000000E+00  0.00000000000E+00  0.97814427491E+03  0.97814427491E+03  0.00000000000E+00 0.  1.
          2   -1    0    0  501    0  0.00000000000E+00 -0.00000000000E+00 -0.75200692383E+03  0.75200692383E+03  0.00000000000E+00 0. -1.
         24    2    1    2    0    0 -0.49085292074E+03 -0.35006260467E+03 -0.34699184702E+02  0.60896516960E+03  0.78448246503E+02 0.  0.
        254    2    1    2    0    0  0.49085292074E+03  0.35006260467E+03  0.26083653578E+03  0.11211860291E+04  0.90859341653E+03 0.  0.
         23    2    4    4    0    0  0.57440741415E+03  0.33182967180E+03 -0.15418609171E+03  0.68739371707E+03  0.93177051253E+02 0.  0.
         23    2    4    4    0    0 -0.83554493406E+02  0.18232932876E+02  0.41502262749E+03  0.43379231207E+03  0.92834236547E+02 0.  0.
          4    1    3    3  502    0 -0.41701514227E+03 -0.28274275974E+03 -0.20113997813E+01  0.50383443987E+03  0.00000000000E+00 0. -1.
         -3    1    3    3    0  502 -0.73837778466E+02 -0.67319844936E+02 -0.32687784920E+02  0.10513072973E+03  0.00000000000E+00 0.  1.
         13    1    5    5    0    0  0.32489797744E+03  0.13973714108E+03 -0.10304732417E+03  0.36838012346E+03  0.00000000000E+00 0.  1.
        -13    1    5    5    0    0  0.24950943670E+03  0.19209253072E+03 -0.51138767541E+02  0.31901359361E+03  0.00000000000E+00 0. -1.
          4    1    6    6  503    0 -0.67987250398E+02  0.13960602636E+02  0.41144482715E+03  0.41725772663E+03  0.00000000000E+00 0.  1.
         -4    1    6    6    0  503 -0.15567243007E+02  0.42723302398E+01  0.35778003394E+01  0.16534585444E+02  0.00000000000E+00 0. -1.
<mgrwt>
<rscale>  0 0.17153090E+04</rscale>
<asrwt>0</asrwt>
<pdfrwt beam="1">  1        2 0.11569337E+00 0.17153090E+04</pdfrwt>
<pdfrwt beam="2">  1       -1 0.15048373E+00 0.17153090E+04</pdfrwt>
<totfact> 0.14026788E+01</totfact>
</mgrwt>
</event>
<event>
12    7  0.1735955E-007  0.1530102E+04  0.7818608E-02  0.8864679E-01
         -1   -1    0    0    0  501 -0.00000000000E+00  0.00000000000E+00  0.37572320112E+03  0.37572320112E+03  0.00000000000E+00 0.  1.
          2   -1    0    0  501    0  0.00000000000E+00 -0.00000000000E+00 -0.15578037870E+04  0.15578037870E+04  0.00000000000E+00 0. -1.
         24    2    1    2    0    0 -0.20777616690E+03 -0.43961974571E+03 -0.39961719622E+03  0.63442717847E+03  0.79796521936E+02 0.  0.
        254    2    1    2    0    0  0.20777616690E+03  0.43961974571E+03 -0.78246338966E+03  0.12990998097E+04  0.91595573197E+03 0.  0.
         23    2    4    4    0    0  0.31910532267E+03  0.67475696782E+03 -0.64523348527E+03  0.99104516901E+03  0.93376142234E+02 0.  0.
         23    2    4    4    0    0 -0.11132915578E+03 -0.23513722210E+03 -0.13722990440E+03  0.30805464064E+03  0.91552830736E+02 0.  0.
          2    1    3    3  502    0 -0.16754718761E+02 -0.21084787839E+02 -0.49272037386E+02  0.56151781335E+02  0.00000000000E+00 0. -1.
         -1    1    3    3    0  502 -0.19102144814E+03 -0.41853495787E+03 -0.35034515883E+03  0.57827539713E+03  0.00000000000E+00 0.  1.
         13    1    5    5    0    0  0.28761183010E+03  0.51946518492E+03 -0.50848479728E+03  0.78174256135E+03  0.00000000000E+00 0. -1.
        -13    1    5    5    0    0  0.31493492575E+02  0.15529178289E+03 -0.13674868798E+03  0.20930260766E+03  0.00000000000E+00 0.  1.
          4    1    6    6  503    0 -0.56452072310E+02 -0.20142137534E+03 -0.12090871746E+03  0.24161193031E+03  0.00000000000E+00 0. -1.
         -4    1    6    6    0  503 -0.54877083465E+02 -0.33715846763E+02 -0.16321186936E+02  0.66442710327E+02  0.00000000000E+00 0.  1.
<mgrwt>
<rscale>  0 0.15301020E+04</rscale>
<asrwt>0</asrwt>
<pdfrwt beam="1">  1        2 0.23966212E+00 0.15301020E+04</pdfrwt>
<pdfrwt beam="2">  1       -1 0.57803570E-01 0.15301020E+04</pdfrwt>
<totfact> 0.39214343E+01</totfact>
</mgrwt>
</event>
<event>
12    7  0.1735955E-007  0.1443715E+04  0.7818608E-02  0.8922770E-01
         -1   -1    0    0    0  501 -0.00000000000E+00  0.00000000000E+00  0.36042653086E+03  0.36042653086E+03  0.00000000000E+00 0.  1.
          2   -1    0    0  501    0  0.00000000000E+00 -0.00000000000E+00 -0.14457257620E+04  0.14457257620E+04  0.00000000000E+00 0. -1.
         24    2    1    2    0    0  0.18413623129E+03  0.29042958182E+03 -0.13034234780E+02  0.35775117220E+03  0.97777892502E+02 0.  0.
        254    2    1    2    0    0 -0.18413623129E+03 -0.29042958182E+03 -0.10722649963E+04  0.14484011206E+04  0.91096547146E+03 0.  0.
         23    2    4    4    0    0  0.30767874156E+03 -0.34096880834E+03 -0.46746803862E+03  0.66176348643E+03  0.92079360175E+02 0.  0.
         23    2    4    4    0    0 -0.49181497285E+03  0.50539226520E+02 -0.60479695773E+03  0.78663763421E+03  0.92645704384E+02 0.  0.
          2    1    3    3  502    0  0.39176874517E+02  0.29493945712E+02  0.27964970731E+02  0.56451394302E+02  0.00000000000E+00 0. -1.
         -1    1    3    3    0  502  0.14495935678E+03  0.26093563611E+03 -0.40999205512E+02  0.30129977790E+03  0.00000000000E+00 0.  1.
         13    1    5    5    0    0  0.20096976247E+03 -0.16196678437E+03 -0.22884824366E+03  0.34495449452E+03  0.00000000000E+00 0.  1.
        -13    1    5    5    0    0  0.10670897908E+03 -0.17900202397E+03 -0.23861979496E+03  0.31680899190E+03  0.00000000000E+00 0. -1.
          3    1    6    6  503    0 -0.81681703060E+02  0.43567288699E+02 -0.10205769329E+03  0.13778890383E+03  0.00000000000E+00 0. -1.
         -3    1    6    6    0  503 -0.41013326979E+03  0.69719378214E+01 -0.50273926444E+03  0.64884873038E+03  0.00000000000E+00 0.  1.
<mgrwt>
<rscale>  0 0.14437145E+04</rscale>
<asrwt>0</asrwt>
<pdfrwt beam="1">  1        2 0.22241935E+00 0.14437145E+04</pdfrwt>
<pdfrwt beam="2">  1       -1 0.55450234E-01 0.14437145E+04</pdfrwt>
<totfact> 0.49540621E+01</totfact>
</mgrwt>
</event>
<event>
12    7  0.1735955E-007  0.3582300E+04  0.7818608E-02  0.8094558E-01
          2   -1    0    0  501    0  0.00000000000E+00  0.00000000000E+00  0.32218895029E+04  0.32218895029E+04  0.00000000000E+00 0. -1.
         -1   -1    0    0    0  501 -0.00000000000E+00 -0.00000000000E+00 -0.99575670813E+03  0.99575670813E+03  0.00000000000E+00 0.  1.
         24    2    1    2    0    0  0.14283252297E+04  0.32849271666E+03  0.19994700405E+04  0.24804002692E+04  0.80527172436E+02 0.  0.
        254    2    1    2    0    0 -0.14283252297E+04 -0.32849271666E+03  0.22666275424E+03  0.17372459419E+04  0.90478010124E+03 0.  0.
         23    2    4    4    0    0 -0.13807394519E+04 -0.90718069610E+01  0.14015177200E+03  0.13908661345E+04  0.91336482672E+02 0.  0.
         23    2    4    4    0    0 -0.47585777817E+02 -0.31942090970E+03  0.86510982242E+02  0.34637980740E+03  0.90557700533E+02 0.  0.
          4    1    3    3  502    0  0.11764464186E+04  0.25492804759E+03  0.15947615967E+04  0.19980688265E+04  0.00000000000E+00 0. -1.
         -3    1    3    3    0  502  0.25187881111E+03  0.73564669069E+02  0.40470844385E+03  0.48233144263E+03  0.00000000000E+00 0.  1.
         13    1    5    5    0    0 -0.87453782095E+03  0.32995175077E+02  0.10968411289E+03  0.88200662496E+03  0.00000000000E+00 0. -1.
        -13    1    5    5    0    0 -0.50620163097E+03 -0.42066982038E+02  0.30467659113E+02  0.50885950952E+03  0.00000000000E+00 0.  1.
          3    1    6    6  503    0 -0.41062544231E+02 -0.31930328333E+03  0.95014987715E+02  0.33566138767E+03  0.00000000000E+00 0. -1.
         -3    1    6    6    0  503 -0.65232335856E+01 -0.11762636533E+00 -0.85040054735E+01  0.10718419728E+02  0.00000000000E+00 0.  1.
<mgrwt>
<rscale>  0 0.35822999E+04</rscale>
<asrwt>0</asrwt>
<pdfrwt beam="1">  1        2 0.49567530E+00 0.35822999E+04</pdfrwt>
<pdfrwt beam="2">  1       -1 0.15319334E+00 0.35822999E+04</pdfrwt>
<totfact> 0.38270633E-01</totfact>
</mgrwt>
</event>
<event>
12    7  0.1735955E-007  0.1351534E+04  0.7818608E-02  0.8989668E-01
          2   -1    0    0  501    0  0.00000000000E+00  0.00000000000E+00  0.13583146316E+04  0.13583146316E+04  0.00000000000E+00 0. -1.
         -1   -1    0    0    0  501 -0.00000000000E+00 -0.00000000000E+00 -0.33619678046E+03  0.33619678046E+03  0.00000000000E+00 0.  1.
         24    2    1    2    0    0  0.35178459905E+03  0.10609895188E+03  0.36928564911E+03  0.52734683003E+03  0.81935320763E+02 0.  0.
        254    2    1    2    0    0 -0.35178459905E+03 -0.10609895188E+03  0.65283220205E+03  0.11671645821E+04  0.89502731012E+03 0.  0.
         23    2    4    4    0    0  0.59163767348E+02 -0.34073532958E+03  0.57786583191E+03  0.67933558042E+03  0.89258024502E+02 0.  0.
         23    2    4    4    0    0 -0.41094836639E+03  0.23463637770E+03  0.74966370133E+02  0.48782900163E+03  0.91784468196E+02 0.  0.
          4    1    3    3  502    0  0.35135247113E+03  0.11016983759E+03  0.35135951115E+03  0.50895919106E+03  0.00000000000E+00 0. -1.
         -3    1    3    3    0  502  0.43212791498E+00 -0.40708857072E+01  0.17926137955E+02  0.18387638972E+02  0.00000000000E+00 0.  1.
         13    1    5    5    0    0  0.26329778048E+02 -0.66096015524E+02  0.19052473220E+03  0.20337554931E+03  0.00000000000E+00 0.  1.
        -13    1    5    5    0    0  0.32833989300E+02 -0.27463931406E+03  0.38734109972E+03  0.47596003111E+03  0.00000000000E+00 0. -1.
          1    1    6    6  503    0 -0.21949970268E+03  0.82340756796E+02  0.63692399728E+02  0.24293382121E+03  0.00000000000E+00 0. -1.
         -1    1    6    6    0  503 -0.19144866372E+03  0.15229562090E+03  0.11273970405E+02  0.24489518042E+03  0.00000000000E+00 0.  1.
<mgrwt>
<rscale>  0 0.13515340E+04</rscale>
<asrwt>0</asrwt>
<pdfrwt beam="1">  1        2 0.20897148E+00 0.13515340E+04</pdfrwt>
<pdfrwt beam="2">  1       -1 0.51722583E-01 0.13515340E+04</pdfrwt>
<totfact> 0.64027301E+01</totfact>
</mgrwt>
</event>
<event>
12    7  0.1735955E-007  0.1343576E+04  0.7818608E-02  0.8995705E-01
         -1   -1    0    0    0  501 -0.00000000000E+00  0.00000000000E+00  0.49126200449E+03  0.49126200449E+03  0.00000000000E+00 0.  1.
          2   -1    0    0  501    0  0.00000000000E+00 -0.00000000000E+00 -0.91865225670E+03  0.91865225670E+03  0.00000000000E+00 0. -1.
         24    2    1    2    0    0 -0.10091361966E+03  0.11871087905E+03 -0.47595073580E+03  0.50675239046E+03  0.77414797602E+02 0.  0.
        254    2    1    2    0    0  0.10091361966E+03 -0.11871087905E+03  0.48560483589E+02  0.90316187074E+03  0.88829466550E+03 0.  0.
         23    2    4    4    0    0  0.19070493444E+03 -0.47205387553E+02  0.43713292694E+03  0.48784213750E+03  0.91148421122E+02 0.  0.
         23    2    4    4    0    0 -0.89791314774E+02 -0.71505491495E+02 -0.38857244336E+03  0.41531973323E+03  0.91249227704E+02 0.  0.
          4    1    3    3  502    0  0.12287894070E+02  0.16417761519E+02 -0.75018872703E+02  0.77771244658E+02  0.00000000000E+00 0. -1.
         -3    1    3    3    0  502 -0.11320151373E+03  0.10229311753E+03 -0.40093186310E+03  0.42898114580E+03  0.00000000000E+00 0.  1.
         13    1    5    5    0    0  0.94209646462E+02 -0.65408588292E+02  0.27962019624E+03  0.30222705878E+03  0.00000000000E+00 0. -1.
        -13    1    5    5    0    0  0.96495287975E+02  0.18203200739E+02  0.15751273070E+03  0.18561507873E+03  0.00000000000E+00 0.  1.
          4    1    6    6  503    0 -0.21206503072E+02  0.21772550860E+02 -0.94923297117E+02  0.99670417272E+02  0.00000000000E+00 0. -1.
         -4    1    6    6    0  503 -0.68584811702E+02 -0.93278042355E+02 -0.29364914624E+03  0.31564931596E+03  0.00000000000E+00 0.  1.
<mgrwt>
<rscale>  0 0.13435758E+04</rscale>
<asrwt>0</asrwt>
<pdfrwt beam="1">  1        2 0.14133112E+00 0.13435758E+04</pdfrwt>
<pdfrwt beam="2">  1       -1 0.75578770E-01 0.13435758E+04</pdfrwt>
<totfact> 0.55901533E+01</totfact>
</mgrwt>
</event>
<event>
12    7  0.1735955E-007  0.1442013E+04  0.7818608E-02  0.8923957E-01
          2   -1    0    0  501    0  0.00000000000E+00  0.00000000000E+00  0.93695008365E+03  0.93695008365E+03  0.00000000000E+00 0. -1.
         -1   -1    0    0    0  501 -0.00000000000E+00 -0.00000000000E+00 -0.55483251165E+03  0.55483251165E+03  0.00000000000E+00 0.  1.
         24    2    1    2    0    0  0.16655662626E+03  0.28265996326E+03  0.42541676100E+03  0.54337606761E+03  0.81488439246E+02 0.  0.
        254    2    1    2    0    0 -0.16655662626E+03 -0.28265996326E+03 -0.43299189002E+02  0.94840652768E+03  0.88879826586E+03 0.  0.
         23    2    4    4    0    0  0.26346026258E+03 -0.20239359047E+03 -0.27886314065E+03  0.44331394322E+03  0.91586710896E+02 0.  0.
         23    2    4    4    0    0 -0.43001688884E+03 -0.80266372789E+02  0.23556395165E+03  0.50509258446E+03  0.90944643962E+02 0.  0.
          2    1    3    3  502    0  0.16595715098E+03  0.26393882339E+03  0.36453580617E+03  0.47967888471E+03  0.00000000000E+00 0. -1.
         -3    1    3    3    0  502  0.59947527699E+00  0.18721139870E+02  0.60880954831E+02  0.63697182903E+02  0.00000000000E+00 0.  1.
         13    1    5    5    0    0  0.25371556975E+03 -0.18744600249E+03 -0.22746347004E+03  0.38890516117E+03  0.00000000000E+00 0.  1.
        -13    1    5    5    0    0  0.97446928374E+01 -0.14947587981E+02 -0.51399670615E+02  0.54408782051E+02  0.00000000000E+00 0. -1.
          3    1    6    6  503    0 -0.30072129530E+02 -0.25340431182E+02  0.35837252404E+01  0.39488143962E+02  0.00000000000E+00 0. -1.
         -3    1    6    6    0  503 -0.39994475931E+03 -0.54925941607E+02  0.23198022641E+03  0.46560444050E+03  0.00000000000E+00 0.  1.
<mgrwt>
<rscale>  0 0.14420130E+04</rscale>
<asrwt>0</asrwt>
<pdfrwt beam="1">  1        2 0.14414617E+00 0.14420130E+04</pdfrwt>
<pdfrwt beam="2">  1       -1 0.85358848E-01 0.14420130E+04</pdfrwt>
<totfact> 0.41615730E+01</totfact>
</mgrwt>
</event>
<event>
12    7  0.1735955E-007  0.2194169E+04  0.7818608E-02  0.8520859E-01
          2   -1    0    0  501    0  0.00000000000E+00  0.00000000000E+00  0.38725733558E+04  0.38725733558E+04  0.00000000000E+00 0. -1.
         -1   -1    0    0    0  501 -0.00000000000E+00 -0.00000000000E+00 -0.31079968765E+03  0.31079968765E+03  0.00000000000E+00 0.  1.
         24    2    1    2    0    0 -0.20025481908E+03 -0.24799585830E+03 -0.14027003042E+03  0.35749494719E+03  0.80765199992E+02 0.  0.
        254    2    1    2    0    0  0.20025481908E+03  0.24799585830E+03  0.37020436985E+04  0.38258780962E+04  0.91137902266E+03 0.  0.
         23    2    4    4    0    0 -0.30657343106E+03  0.30712538134E+03  0.15409048422E+04  0.16035358065E+04  0.92876699460E+02 0.  0.
         23    2    4    4    0    0  0.50682825015E+03 -0.59129523037E+02  0.21611388563E+04  0.22223422897E+04  0.88954600513E+02 0.  0.
          4    1    3    3  502    0  0.49488984645E+00 -0.16215426126E+02  0.65882346250E+01  0.17509705763E+02  0.00000000000E+00 0. -1.
         -3    1    3    3    0  502 -0.20074970893E+03 -0.23178043218E+03 -0.14685826505E+03  0.33998524143E+03  0.00000000000E+00 0.  1.
         13    1    5    5    0    0 -0.19269822263E+03  0.24593756982E+03  0.10165682526E+04  0.10634984276E+04  0.00000000000E+00 0. -1.
        -13    1    5    5    0    0 -0.11387520843E+03  0.61187811523E+02  0.52433658966E+03  0.54003737892E+03  0.00000000000E+00 0.  1.
          1    1    6    6  503    0  0.49805516669E+03 -0.65919487258E+02  0.21428085232E+04  0.22009163307E+04  0.00000000000E+00 0. -1.
         -1    1    6    6    0  503  0.87730834580E+01  0.67899642206E+01  0.18330333112E+02  0.21425959010E+02  0.00000000000E+00 0.  1.
<mgrwt>
<rscale>  0 0.21941692E+04</rscale>
<asrwt>0</asrwt>
<pdfrwt beam="1">  1        2 0.59578048E+00 0.21941692E+04</pdfrwt>
<pdfrwt beam="2">  1       -1 0.47815339E-01 0.21941692E+04</pdfrwt>
<totfact> 0.19756623E+00</totfact>
</mgrwt>
</event>
<event>
12    7  0.1735955E-007  0.1682271E+04  0.7818608E-02  0.8771541E-01
         -1   -1    0    0    0  501 -0.00000000000E+00  0.00000000000E+00  0.22594617575E+03  0.22594617575E+03  0.00000000000E+00 0.  1.
          2   -1    0    0  501    0  0.00000000000E+00 -0.00000000000E+00 -0.31313180385E+04  0.31313180385E+04  0.00000000000E+00 0. -1.
         24    2    1    2    0    0 -0.17010838796E+02  0.10581967502E+03 -0.22089781107E+04  0.22129538286E+04  0.78058836922E+02 0.  0.
        254    2    1    2    0    0  0.17010838796E+02 -0.10581967502E+03 -0.69639375209E+03  0.11443103856E+04  0.90166225850E+03 0.  0.
         23    2    4    4    0    0 -0.25729080402E+03  0.16005253861E+03  0.30657814967E+02  0.31795654095E+03  0.91329553630E+02 0.  0.
         23    2    4    4    0    0  0.27430164282E+03 -0.26587221363E+03 -0.72705156705E+03  0.82635384466E+03  0.91253877664E+02 0.  0.
          2    1    3    3  502    0 -0.16884361768E+02  0.11314913608E+03 -0.16646982317E+04  0.16686245867E+04  0.00000000000E+00 0. -1.
         -3    1    3    3    0  502 -0.12647702831E+00 -0.73294610641E+01 -0.54427987894E+03  0.54432924192E+03  0.00000000000E+00 0.  1.
         13    1    5    5    0    0 -0.16801805555E+03  0.11657059756E+03 -0.21796063948E+02  0.20565466105E+03  0.00000000000E+00 0.  1.
        -13    1    5    5    0    0 -0.89272748473E+02  0.43481941045E+02  0.52453878915E+02  0.11230187991E+03  0.00000000000E+00 0. -1.
          2    1    6    6  503    0  0.49665244201E+02 -0.10153497180E+02 -0.12241366112E+03  0.13249465807E+03  0.00000000000E+00 0. -1.
         -2    1    6    6    0  503  0.22463639862E+03 -0.25571871645E+03 -0.60463790593E+03  0.69385918659E+03  0.00000000000E+00 0.  1.
<mgrwt>
<rscale>  0 0.16822715E+04</rscale>
<asrwt>0</asrwt>
<pdfrwt beam="1">  1        2 0.48174119E+00 0.16822715E+04</pdfrwt>
<pdfrwt beam="2">  1       -1 0.34760953E-01 0.16822715E+04</pdfrwt>
<totfact> 0.12322151E+01</totfact>
</mgrwt>
</event>
<event>
12    7  0.1735955E-007  0.1480617E+04  0.7818608E-02  0.8897446E-01
         -1   -1    0    0    0  501 -0.00000000000E+00  0.00000000000E+00  0.33376441198E+03  0.33376441198E+03  0.00000000000E+00 0.  1.
          2   -1    0    0  501    0  0.00000000000E+00 -0.00000000000E+00 -0.16420456059E+04  0.16420456059E+04  0.00000000000E+00 0. -1.
         24    2    1    2    0    0  0.13066410432E+03 -0.16403780364E+02 -0.96541587523E+03  0.97773396090E+03  0.81201563850E+02 0.  0.
        254    2    1    2    0    0 -0.13066410432E+03  0.16403780364E+02 -0.34286531872E+03  0.99807605702E+03  0.92803932926E+03 0.  0.
         23    2    4    4    0    0 -0.39923054222E+03  0.30768534165E+03 -0.28739418150E+03  0.58768641399E+03  0.93405622552E+02 0.  0.
         23    2    4    4    0    0  0.26856643790E+03 -0.29128156129E+03 -0.55471137226E+02  0.41038964303E+03  0.91486242286E+02 0.  0.
          2    1    3    3  502    0  0.10198985184E+03 -0.34891936872E+02 -0.86477522650E+03  0.87146748046E+03  0.00000000000E+00 0. -1.
         -1    1    3    3    0  502  0.28674252480E+02  0.18488156509E+02 -0.10064064873E+03  0.10626648043E+03  0.00000000000E+00 0.  1.
         13    1    5    5    0    0 -0.27540658285E+03  0.26251966450E+03 -0.20405639454E+03  0.43174572642E+03  0.00000000000E+00 0.  1.
        -13    1    5    5    0    0 -0.12382395937E+03  0.45165677151E+02 -0.83337786960E+02  0.15594068758E+03  0.00000000000E+00 0. -1.
          3    1    6    6  503    0  0.19230101908E+03 -0.14378613349E+03 -0.23140204924E+02  0.24122521263E+03  0.00000000000E+00 0. -1.
         -3    1    6    6    0  503  0.76265418816E+02 -0.14749542780E+03 -0.32330932302E+02  0.16916443040E+03  0.00000000000E+00 0.  1.
<mgrwt>
<rscale>  0 0.14806166E+04</rscale>
<asrwt>0</asrwt>
<pdfrwt beam="1">  1        2 0.25262240E+00 0.14806166E+04</pdfrwt>
<pdfrwt beam="2">  1       -1 0.51348371E-01 0.14806166E+04</pdfrwt>
<totfact> 0.44423622E+01</totfact>
</mgrwt>
</event>
<event>
12    7  0.1735955E-007  0.1213909E+04  0.7818608E-02  0.9100768E-01
          2   -1    0    0  501    0  0.00000000000E+00  0.00000000000E+00  0.24874223837E+04  0.24874223837E+04  0.00000000000E+00 0. -1.
         -1   -1    0    0    0  501 -0.00000000000E+00 -0.00000000000E+00 -0.14810263479E+03  0.14810263479E+03  0.00000000000E+00 0.  1.
         24    2    1    2    0    0  0.11977059460E+03  0.23001675567E+03  0.62776333434E+03  0.68391233501E+03  0.79978589755E+02 0.  0.
        254    2    1    2    0    0 -0.11977059460E+03 -0.23001675567E+03  0.17115564146E+04  0.19516126835E+04  0.90117368071E+03 0.  0.
         23    2    4    4    0    0  0.32128765833E+03 -0.25076081626E+03  0.11944224217E+04  0.12651129239E+04  0.88085426163E+02 0.  0.
         23    2    4    4    0    0 -0.44105825293E+03  0.20744060590E+02  0.51713399283E+03  0.68649975957E+03  0.94295571571E+02 0.  0.
          2    1    3    3  502    0  0.66598548460E+02  0.19667402507E+03  0.50537992937E+03  0.54637433304E+03  0.00000000000E+00 0. -1.
         -1    1    3    3    0  502  0.53172046140E+02  0.33342730606E+02  0.12238340497E+03  0.13753800198E+03  0.00000000000E+00 0.  1.
         13    1    5    5    0    0  0.20022686730E+02 -0.51794477513E+02  0.17902951137E+03  0.18744370308E+03  0.00000000000E+00 0. -1.
        -13    1    5    5    0    0  0.30126497160E+03 -0.19896633875E+03  0.10153929104E+04  0.10776692208E+04  0.00000000000E+00 0.  1.
          1    1    6    6  503    0 -0.37496917286E+02 -0.78897196070E+01  0.91826010816E+02  0.99500164542E+02  0.00000000000E+00 0. -1.
         -1    1    6    6    0  503 -0.40356133565E+03  0.28633780197E+02  0.42530798201E+03  0.58699959503E+03  0.00000000000E+00 0.  1.
<mgrwt>
<rscale>  0 0.12139091E+04</rscale>
<asrwt>0</asrwt>
<pdfrwt beam="1">  1        2 0.38268034E+00 0.12139091E+04</pdfrwt>
<pdfrwt beam="2">  1       -1 0.22785023E-01 0.12139091E+04</pdfrwt>
<totfact> 0.65637969E+01</totfact>
</mgrwt>
</event>
<event>
12    7  0.1735955E-007  0.1336917E+04  0.7818608E-02  0.9000791E-01
          2   -1    0    0  501    0  0.00000000000E+00  0.00000000000E+00  0.95482099852E+03  0.95482099852E+03  0.00000000000E+00 0. -1.
         -1   -1    0    0    0  501 -0.00000000000E+00 -0.00000000000E+00 -0.46797992510E+03  0.46797992510E+03  0.00000000000E+00 0.  1.
         24    2    1    2    0    0 -0.25419086733E+03  0.82658931700E+02  0.39637432172E+03  0.48513925847E+03  0.82474245473E+02 0.  0.
        254    2    1    2    0    0  0.25419086733E+03 -0.82658931700E+02  0.90466751705E+02  0.93766166515E+03  0.89419218801E+03 0.  0.
         23    2    4    4    0    0  0.26862864829E+02 -0.77130944279E+02  0.46923393838E+03  0.48636910667E+03  0.98506968893E+02 0.  0.
         23    2    4    4    0    0  0.22732800250E+03 -0.55279874209E+01 -0.37876718667E+03  0.45129255848E+03  0.92151029682E+02 0.  0.
          4    1    3    3  502    0 -0.12555366164E+03  0.68313477111E+02  0.15229599998E+03  0.20886484796E+03  0.00000000000E+00 0. -1.
         -3    1    3    3    0  502 -0.12863720569E+03  0.14345454589E+02  0.24407832175E+03  0.27627441051E+03  0.00000000000E+00 0.  1.
         13    1    5    5    0    0 -0.12466514018E+02 -0.34189287991E+02  0.36632130102E+03  0.36812445853E+03  0.00000000000E+00 0. -1.
        -13    1    5    5    0    0  0.39329378847E+02 -0.42941656288E+02  0.10291263736E+03  0.11824464814E+03  0.00000000000E+00 0.  1.
          4    1    6    6  503    0  0.14075371095E+03  0.18501630665E+02 -0.15513929162E+03  0.21029055444E+03  0.00000000000E+00 0. -1.
         -4    1    6    6    0  503  0.86574291552E+02 -0.24029618086E+02 -0.22362789506E+03  0.24100200404E+03  0.00000000000E+00 0.  1.
<mgrwt>
<rscale>  0 0.13369174E+04</rscale>
<asrwt>0</asrwt>
<pdfrwt beam="1">  1        2 0.14689554E+00 0.13369174E+04</pdfrwt>
<pdfrwt beam="2">  1       -1 0.71996912E-01 0.13369174E+04</pdfrwt>
<totfact> 0.58547019E+01</totfact>
</mgrwt>
</event>
<event>
12    7  0.1735955E-007  0.1212597E+04  0.7818608E-02  0.9101901E-01
         -1   -1    0    0    0  501 -0.00000000000E+00  0.00000000000E+00  0.33194973047E+03  0.33194973047E+03  0.00000000000E+00 0.  1.
          2   -1    0    0  501    0  0.00000000000E+00 -0.00000000000E+00 -0.11073898540E+04  0.11073898540E+04  0.00000000000E+00 0. -1.
         24    2    1    2    0    0 -0.19095837335E+03 -0.68051911914E+02  0.26295297807E+02  0.21954033487E+03  0.80064679341E+02 0.  0.
        254    2    1    2    0    0  0.19095837335E+03  0.68051911914E+02 -0.80173542132E+03  0.12197992496E+04  0.89667963089E+03 0.  0.
         23    2    4    4    0    0 -0.45360577437E+02  0.41416456070E+03 -0.17627153034E+03  0.46097365331E+03  0.88516616044E+02 0.  0.
         23    2    4    4    0    0  0.23631895079E+03 -0.34611264878E+03 -0.62546389098E+03  0.75882559629E+03  0.94713222455E+02 0.  0.
          4    1    3    3  502    0 -0.17093411778E+02 -0.18225230011E+02 -0.20950178270E+02  0.32607571279E+02  0.00000000000E+00 0. -1.
         -3    1    3    3    0  502 -0.17386496157E+03 -0.49826681903E+02  0.47245476077E+02  0.18693276359E+03  0.00000000000E+00 0.  1.
         13    1    5    5    0    0 -0.47323260204E+02  0.40233080788E+03 -0.18577468977E+03  0.44567006326E+03  0.00000000000E+00 0.  1.
        -13    1    5    5    0    0  0.19626827678E+01  0.11833752816E+02  0.95031594289E+01  0.15303590053E+02  0.00000000000E+00 0. -1.
          2    1    6    6  503    0  0.58132145521E+02 -0.10765884373E+03 -0.11503042419E+03  0.16793383062E+03  0.00000000000E+00 0. -1.
         -2    1    6    6    0  503  0.17818680527E+03 -0.23845380505E+03 -0.51043346679E+03  0.59089176567E+03  0.00000000000E+00 0.  1.
<mgrwt>
<rscale>  0 0.12125968E+04</rscale>
<asrwt>0</asrwt>
<pdfrwt beam="1">  1        2 0.17036767E+00 0.12125968E+04</pdfrwt>
<pdfrwt beam="2">  1       -1 0.51069190E-01 0.12125968E+04</pdfrwt>
<totfact> 0.93407734E+01</totfact>
</mgrwt>
</event>
<event>
12    7  0.1735955E-007  0.1761199E+04  0.7818608E-02  0.8727210E-01
         -1   -1    0    0    0  501 -0.00000000000E+00  0.00000000000E+00  0.23577980161E+03  0.23577980161E+03  0.00000000000E+00 0.  1.
          2   -1    0    0  501    0  0.00000000000E+00 -0.00000000000E+00 -0.32888967529E+04  0.32888967529E+04  0.00000000000E+00 0. -1.
         24    2    1    2    0    0  0.27910838122E+03  0.54969473127E+03 -0.12453315947E+04  0.13918822723E+04  0.80122986512E+02 0.  0.
        254    2    1    2    0    0 -0.27910838122E+03 -0.54969473127E+03 -0.18077853566E+04  0.21327942823E+04  0.94902990940E+03 0.  0.
         23    2    4    4    0    0  0.19792291486E+03 -0.60110575339E+03 -0.11091749182E+04  0.12803388811E+04  0.92179413146E+02 0.  0.
         23    2    4    4    0    0 -0.47703129608E+03  0.51411022118E+02 -0.69861043836E+03  0.85245540118E+03  0.91769906777E+02 0.  0.
          4    1    3    3  502    0  0.77196272202E+02  0.98794085119E+02 -0.30246703794E+03  0.32742303636E+03  0.00000000000E+00 0. -1.
         -3    1    3    3    0  502  0.20191210902E+03  0.45090064615E+03 -0.94286455680E+03  0.10644592359E+04  0.00000000000E+00 0.  1.
         13    1    5    5    0    0  0.13555262807E+03 -0.30045075203E+03 -0.63450095589E+03  0.71500813450E+03  0.00000000000E+00 0. -1.
        -13    1    5    5    0    0  0.62370286788E+02 -0.30065500135E+03 -0.47467396234E+03  0.56533074659E+03  0.00000000000E+00 0.  1.
          1    1    6    6  503    0 -0.45882780150E+03  0.52914533538E+02 -0.69395754056E+03  0.83360660230E+03  0.00000000000E+00 0. -1.
         -1    1    6    6    0  503 -0.18203494580E+02 -0.15035114201E+01 -0.46528977914E+01  0.18848798884E+02  0.00000000000E+00 0.  1.
<mgrwt>
<rscale>  0 0.17611989E+04</rscale>
<asrwt>0</asrwt>
<pdfrwt beam="1">  1        2 0.50598411E+00 0.17611989E+04</pdfrwt>
<pdfrwt beam="2">  1       -1 0.36273816E-01 0.17611989E+04</pdfrwt>
<totfact> 0.89477782E+00</totfact>
</mgrwt>
</event>
<event>
12    7  0.1735955E-007  0.2092750E+04  0.7818608E-02  0.8564444E-01
         -1   -1    0    0    0  501 -0.00000000000E+00  0.00000000000E+00  0.70507866736E+03  0.70507866736E+03  0.00000000000E+00 0.  1.
          2   -1    0    0  501    0  0.00000000000E+00 -0.00000000000E+00 -0.15528767614E+04  0.15528767614E+04  0.00000000000E+00 0. -1.
         24    2    1    2    0    0 -0.30275873190E+02  0.80215730610E+03 -0.65083497118E+03  0.10368644448E+04  0.84431895376E+02 0.  0.
        254    2    1    2    0    0  0.30275873190E+02 -0.80215730610E+03 -0.19696312282E+03  0.12210909839E+04  0.89883021035E+03 0.  0.
         23    2    4    4    0    0  0.44923953759E+03 -0.48516998832E+03 -0.16610291266E+03  0.68779061010E+03  0.90882704896E+02 0.  0.
         23    2    4    4    0    0 -0.41896366440E+03 -0.31698731778E+03 -0.30860210161E+02  0.53330037382E+03  0.86286872851E+02 0.  0.
          2    1    3    3  502    0 -0.10609303065E+02  0.74979965436E+03 -0.62004478345E+03  0.97301984177E+03  0.00000000000E+00 0. -1.
         -1    1    3    3    0  502 -0.19666570124E+02  0.52357651743E+02 -0.30790187731E+02  0.63844603038E+02  0.00000000000E+00 0.  1.
         13    1    5    5    0    0  0.40782652153E+03 -0.39436303980E+03 -0.14872752296E+03  0.58648491448E+03  0.00000000000E+00 0.  1.
        -13    1    5    5    0    0  0.41413016061E+02 -0.90806948520E+02 -0.17375389697E+02  0.10130569562E+03  0.00000000000E+00 0. -1.
          3    1    6    6  503    0 -0.23310541942E+03 -0.12383742361E+03 -0.25644226614E+02  0.26520081148E+03  0.00000000000E+00 0. -1.
         -3    1    6    6    0  503 -0.18585824498E+03 -0.19314989417E+03 -0.52159835469E+01  0.26809956235E+03  0.00000000000E+00 0.  1.
<mgrwt>
<rscale>  0 0.20927497E+04</rscale>
<asrwt>0</asrwt>
<pdfrwt beam="1">  1        2 0.23890412E+00 0.20927497E+04</pdfrwt>
<pdfrwt beam="2">  1       -1 0.10847364E+00 0.20927497E+04</pdfrwt>
<totfact> 0.98203081E+00</totfact>
</mgrwt>
</event>
<event>
12    7  0.1735955E-007  0.1327091E+04  0.7818608E-02  0.9008354E-01
         -1   -1    0    0    0  501 -0.00000000000E+00  0.00000000000E+00  0.12265770709E+03  0.12265770709E+03  0.00000000000E+00 0.  1.
          2   -1    0    0  501    0  0.00000000000E+00 -0.00000000000E+00 -0.35896025022E+04  0.35896025022E+04  0.00000000000E+00 0. -1.
         24    2    1    2    0    0 -0.69384774145E+02 -0.30633502254E+03 -0.52575904230E+03  0.61960296282E+03  0.93967377650E+02 0.  0.
        254    2    1    2    0    0  0.69384774145E+02  0.30633502254E+03 -0.29411857528E+04  0.30926572465E+04  0.90293954322E+03 0.  0.
         23    2    4    4    0    0 -0.19482118730E+03 -0.24935541551E+03 -0.88365992086E+03  0.94310764408E+03  0.91998664841E+02 0.  0.
         23    2    4    4    0    0  0.26420596145E+03  0.55569043805E+03 -0.20575258319E+04  0.21495496024E+04  0.92489410110E+02 0.  0.
          2    1    3    3  502    0 -0.25366884872E+02 -0.57991155477E+02 -0.18590752757E+03  0.19638752956E+03  0.00000000000E+00 0. -1.
         -1    1    3    3    0  502 -0.44017889273E+02 -0.24834386706E+03 -0.33985151473E+03  0.42321543326E+03  0.00000000000E+00 0.  1.
         13    1    5    5    0    0 -0.15982338231E+03 -0.14387903312E+03 -0.51595346159E+03  0.55897465438E+03  0.00000000000E+00 0.  1.
        -13    1    5    5    0    0 -0.34997804988E+02 -0.10547638239E+03 -0.36770645926E+03  0.38413298970E+03  0.00000000000E+00 0. -1.
          1    1    6    6  503    0  0.27179963420E+03  0.53787842659E+03 -0.19833585716E+04  0.20728963955E+04  0.00000000000E+00 0. -1.
         -1    1    6    6    0  503 -0.75936727572E+01  0.17812011455E+02 -0.74167260344E+02  0.76653206880E+02  0.00000000000E+00 0.  1.
<mgrwt>
<rscale>  0 0.13270907E+04</rscale>
<asrwt>0</asrwt>
<pdfrwt beam="1">  1        2 0.55224644E+00 0.13270907E+04</pdfrwt>
<pdfrwt beam="2">  1       -1 0.18870420E-01 0.13270907E+04</pdfrwt>
<totfact> 0.18029535E+01</totfact>
</mgrwt>
</event>
<event>
12    7  0.1735955E-007  0.3222519E+04  0.7818608E-02  0.8182895E-01
          2   -1    0    0  501    0  0.00000000000E+00  0.00000000000E+00  0.15939347439E+04  0.15939347439E+04  0.00000000000E+00 0. -1.
         -1   -1    0    0    0  501 -0.00000000000E+00 -0.00000000000E+00 -0.16287720773E+04  0.16287720773E+04  0.00000000000E+00 0.  1.
         24    2    1    2    0    0  0.19009164055E+03  0.29725472054E+03  0.14287008993E+04  0.14738104315E+04  0.80222986717E+02 0.  0.
        254    2    1    2    0    0 -0.19009164055E+03 -0.29725472054E+03 -0.14635382327E+04  0.17488963897E+04  0.89005574135E+03 0.  0.
         23    2    4    4    0    0 -0.46729539375E+03 -0.17649124773E+03 -0.12921533700E+04  0.13884522289E+04  0.92871495807E+02 0.  0.
         23    2    4    4    0    0  0.27720375320E+03 -0.12076347281E+03 -0.17138486268E+03  0.36044416082E+03  0.95506464492E+02 0.  0.
          4    1    3    3  502    0  0.15814497491E+03  0.28527061877E+03  0.12482283232E+04  0.12901407310E+04  0.00000000000E+00 0. -1.
         -3    1    3    3    0  502  0.31946665636E+02  0.11984101774E+02  0.18047257612E+03  0.18366970048E+03  0.00000000000E+00 0.  1.
         13    1    5    5    0    0 -0.41907048606E+03 -0.15830376292E+03 -0.12210632325E+04  0.13006442909E+04  0.00000000000E+00 0.  1.
        -13    1    5    5    0    0 -0.48224907685E+02 -0.18187484816E+02 -0.71090137488E+02  0.87807937986E+02  0.00000000000E+00 0. -1.
          3    1    6    6  503    0  0.20618075807E+03 -0.67700297609E+02 -0.16296661862E+03  0.27138893507E+03  0.00000000000E+00 0.  1.
         -3    1    6    6    0  503  0.71022995132E+02 -0.53063175200E+02 -0.84182440551E+01  0.89055225747E+02  0.00000000000E+00 0. -1.
<mgrwt>
<rscale>  0 0.32225185E+04</rscale>
<asrwt>0</asrwt>
<pdfrwt beam="1">  1        2 0.24522073E+00 0.32225185E+04</pdfrwt>
<pdfrwt beam="2">  1       -1 0.25058032E+00 0.32225185E+04</pdfrwt>
<totfact> 0.74321233E-01</totfact>
</mgrwt>
</event>
<event>
12    7  0.1735955E-007  0.1398449E+04  0.7818608E-02  0.8954942E-01
         -1   -1    0    0    0  501 -0.00000000000E+00  0.00000000000E+00  0.85332968232E+03  0.85332968232E+03  0.00000000000E+00 0.  1.
          2   -1    0    0  501    0  0.00000000000E+00 -0.00000000000E+00 -0.57294956042E+03  0.57294956042E+03  0.00000000000E+00 0. -1.
         24    2    1    2    0    0 -0.11058734920E+02 -0.34324296803E+03  0.31281260422E+03  0.47113365207E+03  0.78594923697E+02 0.  0.
        254    2    1    2    0    0  0.11058734920E+02  0.34324296803E+03 -0.32432482319E+02  0.95514559068E+03  0.89068131381E+03 0.  0.
         23    2    4    4    0    0  0.27696877434E+03  0.42844016896E+02 -0.33336800859E+03  0.44526013018E+03  0.92601526077E+02 0.  0.
         23    2    4    4    0    0 -0.26591003942E+03  0.30039895113E+03  0.30093552627E+03  0.50988546050E+03  0.92050599977E+02 0.  0.
          2    1    3    3  502    0  0.32827311502E+02 -0.11768922075E+03  0.11845411509E+03  0.17017568112E+03  0.00000000000E+00 0. -1.
         -1    1    3    3    0  502 -0.43886046422E+02 -0.22555374728E+03  0.19435848913E+03  0.30095797095E+03  0.00000000000E+00 0.  1.
         13    1    5    5    0    0  0.14530954370E+03  0.59439277581E+02 -0.22265718897E+03  0.27244103033E+03  0.00000000000E+00 0. -1.
        -13    1    5    5    0    0  0.13165923064E+03 -0.16595260685E+02 -0.11071081962E+03  0.17281909985E+03  0.00000000000E+00 0.  1.
          3    1    6    6  503    0 -0.37546353769E+01 -0.53019253910E+01 -0.97301993619E+00  0.65692059993E+01  0.00000000000E+00 0. -1.
         -3    1    6    6    0  503 -0.26215540404E+03  0.30570087652E+03  0.30190854621E+03  0.50331625450E+03  0.00000000000E+00 0.  1.
<mgrwt>
<rscale>  0 0.13984489E+04</rscale>
<asrwt>0</asrwt>
<pdfrwt beam="1">  1        2 0.88146087E-01 0.13984489E+04</pdfrwt>
<pdfrwt beam="2">  1       -1 0.13128149E+00 0.13984489E+04</pdfrwt>
<totfact> 0.28864488E+01</totfact>
</mgrwt>
</event>
<event>
12    7  0.1735955E-007  0.1627376E+04  0.7818608E-02  0.8803904E-01
         -1   -1    0    0    0  501 -0.00000000000E+00  0.00000000000E+00  0.14562677967E+03  0.14562677967E+03  0.00000000000E+00 0.  1.
          2   -1    0    0  501    0  0.00000000000E+00 -0.00000000000E+00 -0.45464720248E+04  0.45464720248E+04  0.00000000000E+00 0. -1.
         24    2    1    2    0    0 -0.47471270335E+03 -0.21016645148E+02 -0.23993401067E+04  0.24474439357E+04  0.85761415088E+02 0.  0.
        254    2    1    2    0    0  0.47471270335E+03  0.21016645148E+02 -0.20015051384E+04  0.22446548688E+04  0.89814186573E+03 0.  0.
         23    2    4    4    0    0  0.40475635287E+03 -0.25218127773E+03 -0.43929199741E+03  0.65467616848E+03  0.90555643481E+02 0.  0.
         23    2    4    4    0    0  0.69956350482E+02  0.27319792288E+03 -0.15622131409E+04  0.15899787003E+04  0.89394483134E+02 0.  0.
          2    1    3    3  502    0 -0.41471449361E+03 -0.54270723971E+01 -0.19324571692E+04  0.19764635780E+04  0.00000000000E+00 0. -1.
         -1    1    3    3    0  502 -0.59998209742E+02 -0.15589572751E+02 -0.46688293756E+03  0.47098035770E+03  0.00000000000E+00 0.  1.
         13    1    5    5    0    0  0.28590417409E+03 -0.14385865554E+03 -0.33324278208E+03  0.46204681727E+03  0.00000000000E+00 0.  1.
        -13    1    5    5    0    0  0.11885217877E+03 -0.10832262220E+03 -0.10604921533E+03  0.19262935122E+03  0.00000000000E+00 0. -1.
          2    1    6    6  503    0  0.83674901615E+02  0.23379204409E+03 -0.12037228720E+04  0.12290683307E+04  0.00000000000E+00 0. -1.
         -2    1    6    6    0  503 -0.13718551132E+02  0.39405878794E+02 -0.35849026895E+03  0.36091036957E+03  0.00000000000E+00 0.  1.
<mgrwt>
<rscale>  0 0.16273759E+04</rscale>
<asrwt>0</asrwt>
<pdfrwt beam="1">  1        2 0.69945730E+00 0.16273759E+04</pdfrwt>
<pdfrwt beam="2">  1       -1 0.22404118E-01 0.16273759E+04</pdfrwt>
<totfact> 0.21006713E+00</totfact>
</mgrwt>
</event>
<event>
12    7  0.1735955E-007  0.2084129E+04  0.7818608E-02  0.8568267E-01
         -1   -1    0    0    0  501 -0.00000000000E+00  0.00000000000E+00  0.69409454025E+03  0.69409454025E+03  0.00000000000E+00 0.  1.
          2   -1    0    0  501    0  0.00000000000E+00 -0.00000000000E+00 -0.15644821063E+04  0.15644821063E+04  0.00000000000E+00 0. -1.
         24    2    1    2    0    0  0.14600449752E+03 -0.35076079403E+03 -0.11710650979E+04  0.12338363123E+04  0.81290431098E+02 0.  0.
        254    2    1    2    0    0 -0.14600449752E+03  0.35076079403E+03  0.30067753184E+03  0.10247403342E+04  0.90295920534E+03 0.  0.
         23    2    4    4    0    0  0.27819335429E+03  0.40299376471E+03  0.62117965407E+01  0.49797120599E+03  0.90228702798E+02 0.  0.
         23    2    4    4    0    0 -0.42419785181E+03 -0.52232970685E+02  0.29446573530E+03  0.52676912823E+03  0.90019689473E+02 0.  0.
          2    1    3    3  502    0  0.91460121951E+02 -0.23200990387E+03 -0.88250898523E+03  0.91706905870E+03  0.00000000000E+00 0. -1.
         -1    1    3    3    0  502  0.54544375564E+02 -0.11875089016E+03 -0.28855611268E+03  0.31676725365E+03  0.00000000000E+00 0.  1.
         13    1    5    5    0    0  0.16533691092E+03  0.20507962184E+03 -0.37203139695E+02  0.26604138589E+03  0.00000000000E+00 0. -1.
        -13    1    5    5    0    0  0.11285644337E+03  0.19791414287E+03  0.43414936236E+02  0.23192982009E+03  0.00000000000E+00 0.  1.
          4    1    6    6  503    0 -0.34572267711E+03 -0.29550381288E+02  0.27512857128E+03  0.44282403417E+03  0.00000000000E+00 0. -1.
         -4    1    6    6    0  503 -0.78475174693E+02 -0.22682589397E+02  0.19337164014E+02  0.83945094061E+02  0.00000000000E+00 0.  1.
<mgrwt>
<rscale>  0 0.20841291E+04</rscale>
<asrwt>0</asrwt>
<pdfrwt beam="1">  1        2 0.24068955E+00 0.20841291E+04</pdfrwt>
<pdfrwt beam="2">  1       -1 0.10678378E+00 0.20841291E+04</pdfrwt>
<totfact> 0.10044642E+01</totfact>
</mgrwt>
</event>
<event>
12    7  0.1735955E-007  0.1516535E+04  0.7818608E-02  0.8873531E-01
          2   -1    0    0  501    0  0.00000000000E+00  0.00000000000E+00  0.13763393176E+04  0.13763393176E+04  0.00000000000E+00 0. -1.
         -1   -1    0    0    0  501 -0.00000000000E+00 -0.00000000000E+00 -0.41775299758E+03  0.41775299758E+03  0.00000000000E+00 0.  1.
         24    2    1    2    0    0 -0.39772216824E+03  0.27771066229E+03  0.38660954337E+03  0.62557161572E+03  0.81035623721E+02 0.  0.
        254    2    1    2    0    0  0.39772216824E+03 -0.27771066229E+03  0.57197677664E+03  0.11685206994E+04  0.89608987104E+03 0.  0.
         23    2    4    4    0    0  0.41287689778E+03 -0.56716349751E+03  0.33555794633E+03  0.78325852370E+03  0.93557543666E+02 0.  0.
         23    2    4    4    0    0 -0.15154729543E+02  0.28945283522E+03  0.23641883031E+03  0.38526217575E+03  0.92306397916E+02 0.  0.
          2    1    3    3  502    0 -0.34916429267E+03  0.25555141332E+03  0.37098136877E+03  0.56995561590E+03  0.00000000000E+00 0. -1.
         -1    1    3    3    0  502 -0.48557875567E+02  0.22159248971E+02  0.15628174608E+02  0.55615999821E+02  0.00000000000E+00 0.  1.
         13    1    5    5    0    0  0.19140847821E+03 -0.34032284143E+03  0.17468793653E+03  0.42775310297E+03  0.00000000000E+00 0.  1.
        -13    1    5    5    0    0  0.22146841957E+03 -0.22684065608E+03  0.16087000980E+03  0.35550542073E+03  0.00000000000E+00 0. -1.
          3    1    6    6  503    0 -0.43904185707E+02  0.70465006172E+02  0.57045194975E+02  0.10073256121E+03  0.00000000000E+00 0. -1.
         -3    1    6    6    0  503  0.28749456164E+02  0.21898782905E+03  0.17937363533E+03  0.28452961454E+03  0.00000000000E+00 0.  1.
<mgrwt>
<rscale>  0 0.15165354E+04</rscale>
<asrwt>0</asrwt>
<pdfrwt beam="1">  1        2 0.21174451E+00 0.15165354E+04</pdfrwt>
<pdfrwt beam="2">  1       -1 0.64269693E-01 0.15165354E+04</pdfrwt>
<totfact> 0.40314537E+01</totfact>
</mgrwt>
</event>
<event>
12    7  0.1735955E-007  0.1610413E+04  0.7818608E-02  0.8814176E-01
         -1   -1    0    0    0  501 -0.00000000000E+00  0.00000000000E+00  0.12185304648E+04  0.12185304648E+04  0.00000000000E+00 0.  1.
          2   -1    0    0  501    0  0.00000000000E+00 -0.00000000000E+00 -0.53208152995E+03  0.53208152995E+03  0.00000000000E+00 0. -1.
         24    2    1    2    0    0 -0.40729489634E+02 -0.31582713016E+03 -0.22387035871E+03  0.39762022422E+03  0.81106335940E+02 0.  0.
        254    2    1    2    0    0  0.40729489634E+02  0.31582713016E+03  0.91031929358E+03  0.13529917705E+04  0.94894670421E+03 0.  0.
         23    2    4    4    0    0  0.38113344435E+03  0.76484774969E+02  0.61889759236E+02  0.40351026031E+03  0.88755645842E+02 0.  0.
         23    2    4    4    0    0 -0.34040395472E+03  0.23934235519E+03  0.84842953434E+03  0.94948151024E+03  0.92319272983E+02 0.  0.
          4    1    3    3  502    0 -0.17254348762E+02 -0.17654771882E+03 -0.17219431145E+03  0.24721992328E+03  0.00000000000E+00 0. -1.
         -3    1    3    3    0  502 -0.23475140872E+02 -0.13927941134E+03 -0.51676047257E+02  0.15040030094E+03  0.00000000000E+00 0.  1.
         13    1    5    5    0    0  0.69861608528E+02  0.29938885170E+02 -0.19411965865E+02  0.78446195638E+02  0.00000000000E+00 0. -1.
        -13    1    5    5    0    0  0.31127183583E+03  0.46545889799E+02  0.81301725101E+02  0.32506406467E+03  0.00000000000E+00 0.  1.
          4    1    6    6  503    0 -0.17929221177E+03  0.70192423533E+02  0.37311871257E+03  0.41986932157E+03  0.00000000000E+00 0. -1.
         -4    1    6    6    0  503 -0.16111174295E+03  0.16914993166E+03  0.47531082177E+03  0.52961218867E+03  0.00000000000E+00 0.  1.
<mgrwt>
<rscale>  0 0.16104131E+04</rscale>
<asrwt>0</asrwt>
<pdfrwt beam="1">  1        2 0.81858697E-01 0.16104131E+04</pdfrwt>
<pdfrwt beam="2">  1       -1 0.18746623E+00 0.16104131E+04</pdfrwt>
<totfact> 0.11541391E+01</totfact>
</mgrwt>
</event>
<event>
12    7  0.1735955E-007  0.2373034E+04  0.7818608E-02  0.8449669E-01
          2   -1    0    0  501    0  0.00000000000E+00  0.00000000000E+00  0.15517592320E+04  0.15517592320E+04  0.00000000000E+00 0. -1.
         -1   -1    0    0    0  501 -0.00000000000E+00 -0.00000000000E+00 -0.90724315683E+03  0.90724315683E+03  0.00000000000E+00 0.  1.
         24    2    1    2    0    0  0.28138460881E+03  0.17417032042E+03 -0.71521549513E+03  0.79224257533E+03  0.81255738917E+02 0.  0.
        254    2    1    2    0    0 -0.28138460881E+03 -0.17417032042E+03  0.13597315703E+04  0.16667598135E+04  0.90537601803E+03 0.  0.
         23    2    4    4    0    0 -0.40143931693E+03 -0.13160667977E+03  0.16729901959E+03  0.46335393143E+03  0.90741724037E+02 0.  0.
         23    2    4    4    0    0  0.12005470812E+03 -0.42563640654E+02  0.11924325507E+04  0.12034058820E+04  0.10032712772E+03 0.  0.
          2    1    3    3  502    0 -0.19976477855E+01  0.12997257237E+02 -0.15635043947E+02  0.20429730580E+02  0.00000000000E+00 0. -1.
         -1    1    3    3    0  502  0.28338225660E+03  0.16117306318E+03 -0.69958045118E+03  0.77181284475E+03  0.00000000000E+00 0.  1.
         13    1    5    5    0    0  0.27791985379E+01  0.44089709741E+01  0.43754684801E+01  0.68049756784E+01  0.00000000000E+00 0.  1.
        -13    1    5    5    0    0 -0.40421851547E+03 -0.13601565074E+03  0.16292355111E+03  0.45654895575E+03  0.00000000000E+00 0. -1.
          3    1    6    6  503    0  0.12180094414E+03 -0.66049679477E+02  0.10278395086E+04  0.10371364836E+04  0.00000000000E+00 0. -1.
         -3    1    6    6    0  503 -0.17462360187E+01  0.23486038823E+02  0.16459304204E+03  0.16626939841E+03  0.00000000000E+00 0.  1.
<mgrwt>
<rscale>  0 0.23730343E+04</rscale>
<asrwt>0</asrwt>
<pdfrwt beam="1">  1        2 0.23873219E+00 0.23730343E+04</pdfrwt>
<pdfrwt beam="2">  1       -1 0.13957587E+00 0.23730343E+04</pdfrwt>
<totfact> 0.51475575E+00</totfact>
</mgrwt>
</event>
<event>
12    7  0.1735955E-007  0.2386754E+04  0.7818608E-02  0.8444479E-01
         -1   -1    0    0    0  501 -0.00000000000E+00  0.00000000000E+00  0.57446795453E+03  0.57446795453E+03  0.00000000000E+00 0.  1.
          2   -1    0    0  501    0  0.00000000000E+00 -0.00000000000E+00 -0.24790742418E+04  0.24790742418E+04  0.00000000000E+00 0. -1.
         24    2    1    2    0    0 -0.42023193383E+02  0.39258493041E+03  0.38777044852E+03  0.55899134407E+03  0.78844946763E+02 0.  0.
        254    2    1    2    0    0  0.42023193383E+02 -0.39258493041E+03 -0.22923767357E+04  0.24945508522E+04  0.90105714545E+03 0.  0.
         23    2    4    4    0    0  0.27635137222E+03 -0.41309195874E+03 -0.60695059835E+03  0.79010254534E+03  0.94116714827E+02 0.  0.
         23    2    4    4    0    0 -0.23432817884E+03  0.20507028333E+02 -0.16854261374E+04  0.17044483069E+04  0.95668869611E+02 0.  0.
          2    1    3    3  502    0 -0.22232489524E+02  0.52742903440E+02  0.28085493285E+02  0.63756508584E+02  0.00000000000E+00 0. -1.
         -1    1    3    3    0  502 -0.19790703859E+02  0.33984202697E+03  0.35968495523E+03  0.49523483548E+03  0.00000000000E+00 0.  1.
         13    1    5    5    0    0  0.13448866752E+03 -0.13704205337E+03 -0.27780394326E+03  0.33770217200E+03  0.00000000000E+00 0. -1.
        -13    1    5    5    0    0  0.14186270470E+03 -0.27604990537E+03 -0.32914665509E+03  0.45240037334E+03  0.00000000000E+00 0.  1.
          3    1    6    6  503    0 -0.14112980672E+03  0.47728176589E+02 -0.80362621341E+03  0.81731921063E+03  0.00000000000E+00 0. -1.
         -3    1    6    6    0  503 -0.93198372117E+02 -0.27221148256E+02 -0.88179992398E+03  0.88712909625E+03  0.00000000000E+00 0.  1.
<mgrwt>
<rscale>  0 0.23867540E+04</rscale>
<asrwt>0</asrwt>
<pdfrwt beam="1">  1        2 0.38139604E+00 0.23867540E+04</pdfrwt>
<pdfrwt beam="2">  1       -1 0.88379686E-01 0.23867540E+04</pdfrwt>
<totfact> 0.46085688E+00</totfact>
</mgrwt>
</event>
<event>
12    7  0.1735955E-007  0.2882768E+04  0.7818608E-02  0.8278023E-01
         -1   -1    0    0    0  501 -0.00000000000E+00  0.00000000000E+00  0.13977838214E+04  0.13977838214E+04  0.00000000000E+00 0.  1.
          2   -1    0    0  501    0  0.00000000000E+00 -0.00000000000E+00 -0.14863437315E+04  0.14863437315E+04  0.00000000000E+00 0. -1.
         24    2    1    2    0    0 -0.90433610579E+03 -0.47146071630E+03 -0.84562598792E+03  0.13272477583E+04  0.80026878573E+02 0.  0.
        254    2    1    2    0    0  0.90433610579E+03  0.47146071630E+03  0.75706607784E+03  0.15568797946E+04  0.90034807128E+03 0.  0.
         23    2    4    4    0    0  0.14812408825E+03  0.30443950146E+02 -0.19335444240E+03  0.26175814684E+03  0.90905486204E+02 0.  0.
         23    2    4    4    0    0  0.75621201754E+03  0.44101676615E+03  0.95042052024E+03  0.12951216478E+04  0.87684170563E+02 0.  0.
          2    1    3    3  502    0 -0.80302519993E+03 -0.39839306195E+03 -0.76596799485E+03  0.11790985848E+04  0.00000000000E+00 0. -1.
         -1    1    3    3    0  502 -0.10131090587E+03 -0.73067654353E+02 -0.79657993065E+02  0.14814917354E+03  0.00000000000E+00 0.  1.
         13    1    5    5    0    0  0.26004178307E+02 -0.19050236680E+02 -0.61305101333E+01  0.32813289404E+02  0.00000000000E+00 0. -1.
        -13    1    5    5    0    0  0.12211990994E+03  0.49494186826E+02 -0.18722393227E+03  0.22894485744E+03  0.00000000000E+00 0.  1.
          4    1    6    6  503    0  0.50376144275E+03  0.27969745753E+03  0.68252006582E+03  0.89321884172E+03  0.00000000000E+00 0.  1.
         -4    1    6    6    0  503  0.25245057480E+03  0.16131930863E+03  0.26790045442E+03  0.40190280607E+03  0.00000000000E+00 0. -1.
<mgrwt>
<rscale>  0 0.28827676E+04</rscale>
<asrwt>0</asrwt>
<pdfrwt beam="1">  1        2 0.22866827E+00 0.28827676E+04</pdfrwt>
<pdfrwt beam="2">  1       -1 0.21504367E+00 0.28827676E+04</pdfrwt>
<totfact> 0.15112850E+00</totfact>
</mgrwt>
</event>
<event>
12    7  0.1735955E-007  0.1961025E+04  0.7818608E-02  0.8625063E-01
          2   -1    0    0  501    0  0.00000000000E+00  0.00000000000E+00  0.19693817760E+04  0.19693817760E+04  0.00000000000E+00 0. -1.
         -1   -1    0    0    0  501 -0.00000000000E+00 -0.00000000000E+00 -0.48817598076E+03  0.48817598076E+03  0.00000000000E+00 0.  1.
         24    2    1    2    0    0 -0.92883405847E+02 -0.30618417535E+03  0.13926923940E+04  0.14311945639E+04  0.79684999380E+02 0.  0.
        254    2    1    2    0    0  0.92883405847E+02  0.30618417535E+03  0.88513401198E+02  0.10263631928E+04  0.97119035470E+03 0.  0.
         23    2    4    4    0    0  0.72360308799E+02  0.49935029926E+03  0.39821132543E+03  0.64907730785E+03  0.90235005450E+02 0.  0.
         23    2    4    4    0    0  0.20523097048E+02 -0.19316612390E+03 -0.30969792423E+03  0.37728588497E+03  0.93260311983E+02 0.  0.
          4    1    3    3  502    0 -0.68706316801E+02 -0.21455277303E+03  0.11219709434E+04  0.11443654347E+04  0.00000000000E+00 0. -1.
         -3    1    3    3    0  502 -0.24177089047E+02 -0.91631402325E+02  0.27072145069E+03  0.28682912925E+03  0.00000000000E+00 0.  1.
         13    1    5    5    0    0  0.40768675865E+02  0.12177152739E+03  0.62352128237E+02  0.14275215484E+03  0.00000000000E+00 0.  1.
        -13    1    5    5    0    0  0.31591632934E+02  0.37757877186E+03  0.33585919719E+03  0.50632515301E+03  0.00000000000E+00 0. -1.
          2    1    6    6  503    0  0.50781921087E+02 -0.14420074292E+03 -0.25811944620E+03  0.29999717711E+03  0.00000000000E+00 0. -1.
         -2    1    6    6    0  503 -0.30258824039E+02 -0.48965380988E+02 -0.51578478033E+02  0.77288707867E+02  0.00000000000E+00 0.  1.
<mgrwt>
<rscale>  0 0.19610251E+04</rscale>
<asrwt>0</asrwt>
<pdfrwt beam="1">  1        2 0.30298181E+00 0.19610251E+04</pdfrwt>
<pdfrwt beam="2">  1       -1 0.75103998E-01 0.19610251E+04</pdfrwt>
<totfact> 0.13144623E+01</totfact>
</mgrwt>
</event>
<event>
12    7  0.1735955E-007  0.2646719E+04  0.7818608E-02  0.8352503E-01
         -1   -1    0    0    0  501 -0.00000000000E+00  0.00000000000E+00  0.11046224901E+04  0.11046224901E+04  0.00000000000E+00 0.  1.
          2   -1    0    0  501    0  0.00000000000E+00 -0.00000000000E+00 -0.15854110592E+04  0.15854110592E+04  0.00000000000E+00 0. -1.
         24    2    1    2    0    0  0.48949994965E+02  0.91315644864E+03 -0.95201184579E+03  0.13224970113E+04  0.80131072174E+02 0.  0.
        254    2    1    2    0    0 -0.48949994965E+02 -0.91315644864E+03  0.47122327673E+03  0.13675365380E+04  0.90102941386E+03 0.  0.
         23    2    4    4    0    0  0.34020237222E+03 -0.60213417488E+03  0.50410270597E+03  0.86070368218E+03  0.91586416765E+02 0.  0.
         23    2    4    4    0    0 -0.38915236718E+03 -0.31102227376E+03 -0.32879429245E+02  0.50683285586E+03  0.87315904921E+02 0.  0.
          2    1    3    3  502    0  0.57454390966E+02  0.44991443023E+03 -0.43884002523E+03  0.63111375307E+03  0.00000000000E+00 0. -1.
         -1    1    3    3    0  502 -0.85043960007E+01  0.46324201841E+03 -0.51317182056E+03  0.69138325825E+03  0.00000000000E+00 0.  1.
         13    1    5    5    0    0  0.26149480256E+03 -0.37456599838E+03  0.33346012760E+03  0.56557481875E+03  0.00000000000E+00 0. -1.
        -13    1    5    5    0    0  0.78707569657E+02 -0.22756817650E+03  0.17064257838E+03  0.29512886343E+03  0.00000000000E+00 0.  1.
          3    1    6    6  503    0 -0.55206396846E+02 -0.60237198275E+02  0.24450586535E+02  0.85288319779E+02  0.00000000000E+00 0. -1.
         -3    1    6    6    0  503 -0.33394597033E+03 -0.25078507548E+03 -0.57330015780E+02  0.42154453608E+03  0.00000000000E+00 0.  1.
<mgrwt>
<rscale>  0 0.26467193E+04</rscale>
<asrwt>0</asrwt>
<pdfrwt beam="1">  1        2 0.24390939E+00 0.26467193E+04</pdfrwt>
<pdfrwt beam="2">  1       -1 0.16994192E+00 0.26467193E+04</pdfrwt>
<totfact> 0.28084707E+00</totfact>
</mgrwt>
</event>
<event>
12    7  0.1735955E-007  0.2626305E+04  0.7818608E-02  0.8359320E-01
          2   -1    0    0  501    0  0.00000000000E+00  0.00000000000E+00  0.16051294346E+04  0.16051294346E+04  0.00000000000E+00 0. -1.
         -1   -1    0    0    0  501 -0.00000000000E+00 -0.00000000000E+00 -0.10742871797E+04  0.10742871797E+04  0.00000000000E+00 0.  1.
         24    2    1    2    0    0  0.36251314392E+03  0.32092398566E+03  0.13046678143E+04  0.13951825047E+04  0.99840531079E+02 0.  0.
        254    2    1    2    0    0 -0.36251314392E+03 -0.32092398566E+03 -0.77382555946E+03  0.12842341096E+04  0.90335113203E+03 0.  0.
         23    2    4    4    0    0 -0.18781842476E+03 -0.62671878935E+03 -0.48711731606E+03  0.82112063841E+03  0.94359003842E+02 0.  0.
         23    2    4    4    0    0 -0.17469471917E+03  0.30579480369E+03 -0.28670824340E+03  0.46311347121E+03  0.90795173391E+02 0.  0.
          2    1    3    3  502    0  0.29553956325E+03  0.30473425277E+03  0.11504763528E+04  0.12262962271E+04  0.00000000000E+00 0. -1.
         -1    1    3    3    0  502  0.66973580672E+02  0.16189732894E+02  0.15419146151E+03  0.16888627760E+03  0.00000000000E+00 0.  1.
         13    1    5    5    0    0 -0.12456843754E+03 -0.39884587415E+03 -0.25366793485E+03  0.48881770440E+03  0.00000000000E+00 0.  1.
        -13    1    5    5    0    0 -0.63249987211E+02 -0.22787291520E+03 -0.23344938121E+03  0.33230293401E+03  0.00000000000E+00 0. -1.
          2    1    6    6  503    0 -0.15971986193E+03  0.29986419299E+03 -0.24635974873E+03  0.41966902951E+03  0.00000000000E+00 0.  1.
         -2    1    6    6    0  503 -0.14974857239E+02  0.59306107023E+01 -0.40348494674E+02  0.43444441705E+02  0.00000000000E+00 0. -1.
<mgrwt>
<rscale>  0 0.26263054E+04</rscale>
<asrwt>0</asrwt>
<pdfrwt beam="1">  1        2 0.24694299E+00 0.26263054E+04</pdfrwt>
<pdfrwt beam="2">  1       -1 0.16527495E+00 0.26263054E+04</pdfrwt>
<totfact> 0.29698088E+00</totfact>
</mgrwt>
</event>
<event>
12    7  0.1735955E-007  0.1866071E+04  0.7818608E-02  0.8671932E-01
         -1   -1    0    0    0  501 -0.00000000000E+00  0.00000000000E+00  0.48957693856E+03  0.48957693856E+03  0.00000000000E+00 0.  1.
          2   -1    0    0  501    0  0.00000000000E+00 -0.00000000000E+00 -0.17781792022E+04  0.17781792022E+04  0.00000000000E+00 0. -1.
         24    2    1    2    0    0  0.39120332269E+03  0.53230870650E+03 -0.83346424264E+03  0.10665463215E+04  0.80410282315E+02 0.  0.
        254    2    1    2    0    0 -0.39120332269E+03 -0.53230870650E+03 -0.45513802102E+03  0.12012098193E+04  0.89407036244E+03 0.  0.
         23    2    4    4    0    0  0.13749964431E+03  0.16182530941E+03 -0.66199916872E+02  0.24160249079E+03  0.94317292231E+02 0.  0.
         23    2    4    4    0    0 -0.52870296700E+03 -0.69413401590E+03 -0.38893810415E+03  0.95960732846E+03  0.90689120830E+02 0.  0.
          4    1    3    3  502    0  0.97279459589E+02  0.17590830699E+03 -0.29637447773E+03  0.35811291065E+03  0.00000000000E+00 0. -1.
         -3    1    3    3    0  502  0.29392386310E+03  0.35640039951E+03 -0.53708976491E+03  0.70843341087E+03  0.00000000000E+00 0.  1.
         13    1    5    5    0    0  0.53932060218E+02  0.80329022748E+02  0.17029534227E+02  0.98241661484E+02  0.00000000000E+00 0. -1.
        -13    1    5    5    0    0  0.83567584090E+02  0.81496286657E+02 -0.83229451100E+02  0.14336082931E+03  0.00000000000E+00 0.  1.
          3    1    6    6  503    0 -0.31801384428E+03 -0.41119896415E+03 -0.27981903532E+03  0.59035250978E+03  0.00000000000E+00 0. -1.
         -3    1    6    6    0  503 -0.21068912272E+03 -0.28293505175E+03 -0.10911906883E+03  0.36925481869E+03  0.00000000000E+00 0.  1.
<mgrwt>
<rscale>  0 0.18660713E+04</rscale>
<asrwt>0</asrwt>
<pdfrwt beam="1">  1        2 0.27356603E+00 0.18660713E+04</pdfrwt>
<pdfrwt beam="2">  1       -1 0.75319530E-01 0.18660713E+04</pdfrwt>
<totfact> 0.16816371E+01</totfact>
</mgrwt>
</event>
<event>
12    7  0.1735955E-007  0.1206663E+04  0.7818608E-02  0.9107044E-01
          2   -1    0    0  501    0  0.00000000000E+00  0.00000000000E+00  0.17714906754E+04  0.17714906754E+04  0.00000000000E+00 0. -1.
         -1   -1    0    0    0  501 -0.00000000000E+00 -0.00000000000E+00 -0.20548170611E+03  0.20548170611E+03  0.00000000000E+00 0.  1.
         24    2    1    2    0    0  0.13613198363E+03 -0.19120362482E+03  0.57233532654E+03  0.62374671494E+03  0.80009344906E+02 0.  0.
        254    2    1    2    0    0 -0.13613198363E+03  0.19120362482E+03  0.99367364270E+03  0.13532256665E+04  0.88811128426E+03 0.  0.
         23    2    4    4    0    0 -0.61037231706E+02  0.48168295307E+03  0.26654426888E+03  0.56130970100E+03  0.90987483954E+02 0.  0.
         23    2    4    4    0    0 -0.75094751923E+02 -0.29047932825E+03  0.72712937382E+03  0.79191596552E+03  0.91631371667E+02 0.  0.
          2    1    3    3  502    0  0.11722051682E+03 -0.10780659267E+03  0.41788349456E+03  0.44720188508E+03  0.00000000000E+00 0. -1.
         -1    1    3    3    0  502  0.18911466806E+02 -0.83397032147E+02  0.15445183198E+03  0.17654482986E+03  0.00000000000E+00 0.  1.
         13    1    5    5    0    0 -0.14779582177E+02  0.37498804153E+03  0.17919243895E+03  0.41586584077E+03  0.00000000000E+00 0. -1.
        -13    1    5    5    0    0 -0.46257649529E+02  0.10669491154E+03  0.87351829932E+02  0.14544386024E+03  0.00000000000E+00 0.  1.
          1    1    6    6  503    0 -0.69333125762E+01 -0.19900356641E+03  0.48363442406E+03  0.52302270162E+03  0.00000000000E+00 0.  1.
         -1    1    6    6    0  503 -0.68161439347E+02 -0.91475761844E+02  0.24349494975E+03  0.26889326390E+03  0.00000000000E+00 0. -1.
<mgrwt>
<rscale>  0 0.12066630E+04</rscale>
<asrwt>0</asrwt>
<pdfrwt beam="1">  1        2 0.27253702E+00 0.12066630E+04</pdfrwt>
<pdfrwt beam="2">  1       -1 0.31612571E-01 0.12066630E+04</pdfrwt>
<totfact> 0.93566825E+01</totfact>
</mgrwt>
</event>
<event>
12    7  0.1735955E-007  0.1225997E+04  0.7818608E-02  0.9090401E-01
          2   -1    0    0  501    0  0.00000000000E+00  0.00000000000E+00  0.31339047866E+04  0.31339047866E+04  0.00000000000E+00 0. -1.
         -1   -1    0    0    0  501 -0.00000000000E+00 -0.00000000000E+00 -0.11990386576E+03  0.11990386576E+03  0.00000000000E+00 0.  1.
         24    2    1    2    0    0  0.77737953839E+02 -0.27348113662E+03  0.61583759146E+03  0.68298203105E+03  0.79833540162E+02 0.  0.
        254    2    1    2    0    0 -0.77737953839E+02  0.27348113662E+03  0.23981633294E+04  0.25708266213E+04  0.88154809332E+03 0.  0.
         23    2    4    4    0    0  0.28773523492E+03 -0.60159112426E+02  0.15863007852E+04  0.16159790212E+04  0.92883430752E+02 0.  0.
         23    2    4    4    0    0 -0.36547318876E+03  0.33364024905E+03  0.81186254419E+03  0.95484760008E+03  0.87901542827E+02 0.  0.
          4    1    3    3  502    0  0.12986078495E+02  0.71965734378E+00  0.36974929010E+02  0.39195682373E+02  0.00000000000E+00 0. -1.
         -3    1    3    3    0  502  0.64751875344E+02 -0.27420079396E+03  0.57886266245E+03  0.64378634868E+03  0.00000000000E+00 0.  1.
         13    1    5    5    0    0  0.19603801298E+02 -0.14895470015E+02  0.49265057077E+02  0.55074766464E+02  0.00000000000E+00 0. -1.
        -13    1    5    5    0    0  0.26813143362E+03 -0.45263642411E+02  0.15370357281E+04  0.15609042547E+04  0.00000000000E+00 0.  1.
          3    1    6    6  503    0 -0.29825039554E+03  0.29154290691E+03  0.73078096419E+03  0.84142223802E+03  0.00000000000E+00 0. -1.
         -3    1    6    6    0  503 -0.67222793216E+02  0.42097342135E+02  0.81081579994E+02  0.11342536205E+03  0.00000000000E+00 0.  1.
<mgrwt>
<rscale>  0 0.12259972E+04</rscale>
<asrwt>0</asrwt>
<pdfrwt beam="1">  1        2 0.48213914E+00 0.12259972E+04</pdfrwt>
<pdfrwt beam="2">  1       -1 0.18446751E-01 0.12259972E+04</pdfrwt>
<totfact> 0.38207152E+01</totfact>
</mgrwt>
</event>
<event>
12    7  0.1735955E-007  0.1529312E+04  0.7818608E-02  0.8865192E-01
          2   -1    0    0  501    0  0.00000000000E+00  0.00000000000E+00  0.90080004811E+03  0.90080004811E+03  0.00000000000E+00 0. -1.
         -1   -1    0    0    0  501 -0.00000000000E+00 -0.00000000000E+00 -0.64908800759E+03  0.64908800759E+03  0.00000000000E+00 0.  1.
         24    2    1    2    0    0  0.27408199459E+03  0.38163376882E+03 -0.76023572501E+02  0.48237098926E+03  0.78338460812E+02 0.  0.
        254    2    1    2    0    0 -0.27408199459E+03 -0.38163376882E+03  0.32773561302E+03  0.10675170664E+04  0.90078675712E+03 0.  0.
         23    2    4    4    0    0 -0.35713243472E+02 -0.63715766003E+03  0.14068538510E+03  0.65999067758E+03  0.92466196042E+02 0.  0.
         23    2    4    4    0    0 -0.23836875112E+03  0.25552389121E+03  0.18705022792E+03  0.40752638885E+03  0.94751513747E+02 0.  0.
          4    1    3    3  502    0  0.46756964389E+01 -0.66388879910E+00  0.59058637443E+01  0.75618854853E+01  0.00000000000E+00 0. -1.
         -3    1    3    3    0  502  0.26940629815E+03  0.38229765762E+03 -0.81929436246E+02  0.47480910378E+03  0.00000000000E+00 0.  1.
         13    1    5    5    0    0 -0.65625309963E+02 -0.48959180905E+03  0.99491660492E+02  0.50389027705E+03  0.00000000000E+00 0.  1.
        -13    1    5    5    0    0  0.29912066492E+02 -0.14756585098E+03  0.41193724610E+02  0.15610040053E+03  0.00000000000E+00 0. -1.
          2    1    6    6  503    0 -0.37833478420E+02  0.23264748613E+01  0.10043072440E+02  0.39212853488E+02  0.00000000000E+00 0. -1.
         -2    1    6    6    0  503 -0.20053527270E+03  0.25319741635E+03  0.17700715548E+03  0.36831353537E+03  0.00000000000E+00 0.  1.
<mgrwt>
<rscale>  0 0.15293116E+04</rscale>
<asrwt>0</asrwt>
<pdfrwt beam="1">  1        2 0.13858462E+00 0.15293116E+04</pdfrwt>
<pdfrwt beam="2">  1       -1 0.99859693E-01 0.15293116E+04</pdfrwt>
<totfact> 0.30819604E+01</totfact>
</mgrwt>
</event>
<event>
12    7  0.1735955E-007  0.1552370E+04  0.7818608E-02  0.8850355E-01
          2   -1    0    0  501    0  0.00000000000E+00  0.00000000000E+00  0.99663249421E+03  0.99663249421E+03  0.00000000000E+00 0. -1.
         -1   -1    0    0    0  501 -0.00000000000E+00 -0.00000000000E+00 -0.60449908810E+03  0.60449908810E+03  0.00000000000E+00 0.  1.
         24    2    1    2    0    0  0.25797027208E+03 -0.19407409920E+03  0.55474580620E+03  0.64692400108E+03  0.80958856341E+02 0.  0.
        254    2    1    2    0    0 -0.25797027208E+03  0.19407409920E+03 -0.16261240008E+03  0.95420758123E+03  0.88309450126E+03 0.  0.
         23    2    4    4    0    0  0.69828291800E+02 -0.30629262499E+03 -0.25733136587E+01  0.32794865117E+03  0.94087902525E+02 0.  0.
         23    2    4    4    0    0 -0.32779856389E+03  0.50036672419E+03 -0.16003908643E+03  0.62625893006E+03  0.93642838149E+02 0.  0.
          2    1    3    3  502    0  0.20025542242E+03 -0.17582636649E+03  0.49324666755E+03  0.56063305326E+03  0.00000000000E+00 0. -1.
         -1    1    3    3    0  502  0.57714849666E+02 -0.18247732715E+02  0.61499138649E+02  0.86290947820E+02  0.00000000000E+00 0.  1.
         13    1    5    5    0    0  0.55097682227E+02 -0.30787809330E+03 -0.56340898323E+01  0.31282010467E+03  0.00000000000E+00 0.  1.
        -13    1    5    5    0    0  0.14730609573E+02  0.15854683125E+01  0.30607761736E+01  0.15128546492E+02  0.00000000000E+00 0. -1.
          3    1    6    6  503    0 -0.64675907720E+01  0.57221552112E+02 -0.22767354466E+02  0.61923244310E+02  0.00000000000E+00 0. -1.
         -3    1    6    6    0  503 -0.32133097311E+03  0.44314517208E+03 -0.13727173196E+03  0.56433568575E+03  0.00000000000E+00 0.  1.
<mgrwt>
<rscale>  0 0.15523704E+04</rscale>
<asrwt>0</asrwt>
<pdfrwt beam="1">  1        2 0.15332808E+00 0.15523704E+04</pdfrwt>
<pdfrwt beam="2">  1       -1 0.92999860E-01 0.15523704E+04</pdfrwt>
<totfact> 0.31224784E+01</totfact>
</mgrwt>
</event>
<event>
12    7  0.1735955E-007  0.1847381E+04  0.7818608E-02  0.8681501E-01
         -1   -1    0    0    0  501 -0.00000000000E+00  0.00000000000E+00  0.40003036305E+03  0.40003036305E+03  0.00000000000E+00 0.  1.
          2   -1    0    0  501    0  0.00000000000E+00 -0.00000000000E+00 -0.21328479208E+04  0.21328479208E+04  0.00000000000E+00 0. -1.
         24    2    1    2    0    0 -0.30422004420E+02  0.45734270862E+01 -0.14891113141E+04  0.14915867797E+04  0.80201003862E+02 0.  0.
        254    2    1    2    0    0  0.30422004420E+02 -0.45734270862E+01 -0.24370624361E+03  0.10412915041E+04  0.10119035768E+04 0.  0.
         23    2    4    4    0    0 -0.21870939642E+03  0.14322082168E+03 -0.54573700618E+03  0.61180800875E+03  0.90189554856E+02 0.  0.
         23    2    4    4    0    0  0.24913140084E+03 -0.14779424876E+03  0.30203076258E+03  0.42948349536E+03  0.96560325138E+02 0.  0.
          2    1    3    3  502    0  0.53432574677E+01 -0.11571428453E+02 -0.11703291344E+04  0.11703985352E+04  0.00000000000E+00 0. -1.
         -1    1    3    3    0  502 -0.35765261887E+02  0.16144855539E+02 -0.31878217976E+03  0.32118824457E+03  0.00000000000E+00 0.  1.
         13    1    5    5    0    0 -0.31623540029E+02  0.57485382050E+02 -0.18775315493E+03  0.19888656219E+03  0.00000000000E+00 0. -1.
        -13    1    5    5    0    0 -0.18708585639E+03  0.85735439626E+02 -0.35798385126E+03  0.41292144656E+03  0.00000000000E+00 0.  1.
          2    1    6    6  503    0  0.19808640177E+03 -0.68275241750E+02  0.18913917944E+03  0.28226469917E+03  0.00000000000E+00 0.  1.
         -2    1    6    6    0  503  0.51044999072E+02 -0.79519007012E+02  0.11289158314E+03  0.14721879618E+03  0.00000000000E+00 0. -1.
<mgrwt>
<rscale>  0 0.18473808E+04</rscale>
<asrwt>0</asrwt>
<pdfrwt beam="1">  1        2 0.32813044E+00 0.18473808E+04</pdfrwt>
<pdfrwt beam="2">  1       -1 0.61543134E-01 0.18473808E+04</pdfrwt>
<totfact> 0.16154202E+01</totfact>
</mgrwt>
</event>
<event>
12    7  0.1735955E-007  0.1835577E+04  0.7818608E-02  0.8687605E-01
          2   -1    0    0  501    0  0.00000000000E+00  0.00000000000E+00  0.15642366125E+04  0.15642366125E+04  0.00000000000E+00 0. -1.
         -1   -1    0    0    0  501 -0.00000000000E+00 -0.00000000000E+00 -0.53849642327E+03  0.53849642327E+03  0.00000000000E+00 0.  1.
         24    2    1    2    0    0 -0.33006748162E+03 -0.33973918185E+03 -0.16393148638E+03  0.50764387999E+03  0.80383596335E+02 0.  0.
        254    2    1    2    0    0  0.33006748162E+03  0.33973918185E+03  0.11896716756E+04  0.15950891558E+04  0.95111695656E+03 0.  0.
         23    2    4    4    0    0 -0.16676230415E+02  0.11425325656E+03  0.11614620059E+04  0.11706872271E+04  0.90458218391E+02 0.  0.
         23    2    4    4    0    0  0.34674371204E+03  0.22548592529E+03  0.28209669744E+02  0.42440192871E+03  0.90808079384E+02 0.  0.
          4    1    3    3  502    0 -0.59605400840E+02 -0.39071402506E+02 -0.61251148022E-02  0.71269757545E+02  0.00000000000E+00 0. -1.
         -3    1    3    3    0  502 -0.27046208078E+03 -0.30066777934E+03 -0.16392536126E+03  0.43637412245E+03  0.00000000000E+00 0.  1.
         13    1    5    5    0    0 -0.12402268434E+02  0.60195183950E+02  0.24390261529E+03  0.25152686174E+03  0.00000000000E+00 0. -1.
        -13    1    5    5    0    0 -0.42739619818E+01  0.54058072611E+02  0.91755939060E+03  0.91916036536E+03  0.00000000000E+00 0.  1.
          3    1    6    6  503    0  0.64715440721E+02  0.12884679248E+02  0.26784709539E+02  0.71214632571E+02  0.00000000000E+00 0. -1.
         -3    1    6    6    0  503  0.28202827132E+03  0.21260124604E+03  0.14249602041E+01  0.35318729614E+03  0.00000000000E+00 0.  1.
<mgrwt>
<rscale>  0 0.18355771E+04</rscale>
<asrwt>0</asrwt>
<pdfrwt beam="1">  1        2 0.24065178E+00 0.18355771E+04</pdfrwt>
<pdfrwt beam="2">  1       -1 0.82845604E-01 0.18355771E+04</pdfrwt>
<totfact> 0.18128513E+01</totfact>
</mgrwt>
</event>
<event>
12    7  0.1735955E-007  0.3356014E+04  0.7818608E-02  0.8148787E-01
         -1   -1    0    0    0  501 -0.00000000000E+00  0.00000000000E+00  0.63116313474E+03  0.63116313474E+03  0.00000000000E+00 0.  1.
          2   -1    0    0  501    0  0.00000000000E+00 -0.00000000000E+00 -0.44611401707E+04  0.44611401707E+04  0.00000000000E+00 0. -1.
         24    2    1    2    0    0  0.34929395073E+03 -0.41846876640E+03  0.43395147530E+03  0.70153442989E+03  0.81940838010E+02 0.  0.
        254    2    1    2    0    0 -0.34929395073E+03  0.41846876640E+03 -0.42639285113E+04  0.43907688756E+04  0.89478634145E+03 0.  0.
         23    2    4    4    0    0 -0.59399684547E+03  0.33523679900E+03 -0.37023968369E+04  0.37656670210E+04  0.85380389706E+02 0.  0.
         23    2    4    4    0    0  0.24470289475E+03  0.83231967394E+02 -0.56153167437E+03  0.62510185460E+03  0.92884014837E+02 0.  0.
          2    1    3    3  502    0  0.58047969898E+02 -0.36477258477E+02  0.76834573494E+02  0.10297431174E+03  0.00000000000E+00 0. -1.
         -1    1    3    3    0  502  0.29124598083E+03 -0.38199150792E+03  0.35711690181E+03  0.59856011814E+03  0.00000000000E+00 0.  1.
         13    1    5    5    0    0  0.21145539723E+01 -0.86371666940E+00 -0.27555329875E+02  0.27649838147E+02  0.00000000000E+00 0. -1.
        -13    1    5    5    0    0 -0.59611139945E+03  0.33610051567E+03 -0.36748415071E+04  0.37380171828E+04  0.00000000000E+00 0.  1.
          4    1    6    6  503    0  0.73625145213E+02 -0.18944497003E+01 -0.24028850634E+03  0.25132213836E+03  0.00000000000E+00 0. -1.
         -4    1    6    6    0  503  0.17107774953E+03  0.85126417094E+02 -0.32124316803E+03  0.37377971625E+03  0.00000000000E+00 0.  1.
<mgrwt>
<rscale>  0 0.33560138E+04</rscale>
<asrwt>0</asrwt>
<pdfrwt beam="1">  1        2 0.68632925E+00 0.33560138E+04</pdfrwt>
<pdfrwt beam="2">  1       -1 0.97102021E-01 0.33560138E+04</pdfrwt>
<totfact> 0.12865418E-01</totfact>
</mgrwt>
</event>
<event>
12    7  0.1735955E-007  0.1262782E+04  0.7818608E-02  0.9059611E-01
         -1   -1    0    0    0  501 -0.00000000000E+00  0.00000000000E+00  0.40691385978E+03  0.40691385978E+03  0.00000000000E+00 0.  1.
          2   -1    0    0  501    0  0.00000000000E+00 -0.00000000000E+00 -0.97970301163E+03  0.97970301163E+03  0.00000000000E+00 0. -1.
         24    2    1    2    0    0 -0.98703875601E+02 -0.30658861725E+02 -0.47051066719E+03  0.48818413803E+03  0.79126757959E+02 0.  0.
        254    2    1    2    0    0  0.98703875601E+02  0.30658861725E+02 -0.10227848466E+03  0.89843273338E+03  0.88658787896E+03 0.  0.
         23    2    4    4    0    0  0.36821595051E+03 -0.28021093638E+03 -0.71589634134E+02  0.47695675713E+03  0.90892889627E+02 0.  0.
         23    2    4    4    0    0 -0.26951207490E+03  0.31086979810E+03 -0.30688850529E+02  0.42147597625E+03  0.86159173136E+02 0.  0.
          2    1    3    3  502    0 -0.91191426095E+02 -0.42899806652E+02 -0.45854966480E+03  0.46949341283E+03  0.00000000000E+00 0. -1.
         -1    1    3    3    0  502 -0.75124495061E+01  0.12240944927E+02 -0.11961002388E+02  0.18690725198E+02  0.00000000000E+00 0.  1.
         13    1    5    5    0    0  0.33066660362E+03 -0.21323814206E+03 -0.46592670441E+02  0.39620926909E+03  0.00000000000E+00 0. -1.
        -13    1    5    5    0    0  0.37549346888E+02 -0.66972794315E+02 -0.24996963693E+02  0.80747488035E+02  0.00000000000E+00 0.  1.
          2    1    6    6  503    0 -0.16882347522E+03  0.15863244443E+03  0.18634512646E+02  0.23240667647E+03  0.00000000000E+00 0. -1.
         -2    1    6    6    0  503 -0.10068859969E+03  0.15223735367E+03 -0.49323363175E+02  0.18906929977E+03  0.00000000000E+00 0.  1.
<mgrwt>
<rscale>  0 0.12627822E+04</rscale>
<asrwt>0</asrwt>
<pdfrwt beam="1">  1        2 0.15072354E+00 0.12627822E+04</pdfrwt>
<pdfrwt beam="2">  1       -1 0.62602132E-01 0.12627822E+04</pdfrwt>
<totfact> 0.75330694E+01</totfact>
</mgrwt>
</event>
<event>
12    7  0.1735955E-007  0.1221212E+04  0.7818608E-02  0.9094490E-01
          2   -1    0    0  501    0  0.00000000000E+00  0.00000000000E+00  0.13172217644E+04  0.13172217644E+04  0.00000000000E+00 0. -1.
         -1   -1    0    0    0  501 -0.00000000000E+00 -0.00000000000E+00 -0.28305014008E+03  0.28305014008E+03  0.00000000000E+00 0.  1.
         24    2    1    2    0    0  0.73627055381E+02 -0.11243313367E+03  0.57354703798E+03  0.59516936114E+03  0.84901182731E+02 0.  0.
        254    2    1    2    0    0 -0.73627055381E+02  0.11243313367E+03  0.46062458638E+03  0.10051025434E+04  0.88317266731E+03 0.  0.
         23    2    4    4    0    0  0.34007700828E+03  0.13949282049E+03  0.11219050762E+01  0.37960562937E+03  0.94807998898E+02 0.  0.
         23    2    4    4    0    0 -0.41370406366E+03 -0.27059686813E+02  0.45950268130E+03  0.62549691400E+03  0.90666401507E+02 0.  0.
          2    1    3    3  502    0  0.44000847029E+02 -0.95012476015E+02  0.52704505482E+03  0.53734526606E+03  0.00000000000E+00 0. -1.
         -1    1    3    3    0  502  0.29626208352E+02 -0.17420657659E+02  0.46501983156E+02  0.57824095082E+02  0.00000000000E+00 0.  1.
         13    1    5    5    0    0  0.15954195810E+03  0.26444473260E+02 -0.29560445838E+02  0.16439819500E+03  0.00000000000E+00 0.  1.
        -13    1    5    5    0    0  0.18053505018E+03  0.11304834723E+03  0.30682350915E+02  0.21520743438E+03  0.00000000000E+00 0. -1.
          1    1    6    6  503    0 -0.14539674549E+03 -0.52212358786E+02  0.15424347567E+03  0.21830573468E+03  0.00000000000E+00 0. -1.
         -1    1    6    6    0  503 -0.26830731817E+03  0.25152671973E+02  0.30525920563E+03  0.40719117932E+03  0.00000000000E+00 0.  1.
<mgrwt>
<rscale>  0 0.12212122E+04</rscale>
<asrwt>0</asrwt>
<pdfrwt beam="1">  1        2 0.20264950E+00 0.12212122E+04</pdfrwt>
<pdfrwt beam="2">  1       -1 0.43546176E-01 0.12212122E+04</pdfrwt>
<totfact> 0.94416711E+01</totfact>
</mgrwt>
</event>
<event>
12    7  0.1735955E-007  0.2164965E+04  0.7818608E-02  0.8533154E-01
          4   -1    0    0  501    0  0.00000000000E+00  0.00000000000E+00  0.48093707387E+03  0.48093707387E+03  0.00000000000E+00 0. -1.
         -3   -1    0    0    0  501 -0.00000000000E+00 -0.00000000000E+00 -0.24364274375E+04  0.24364274375E+04  0.00000000000E+00 0.  1.
         24    2    1    2    0    0  0.29730942989E+03 -0.18726738001E+03  0.29486597305E+03  0.46579308531E+03  0.80964730277E+02 0.  0.
        254    2    1    2    0    0 -0.29730942989E+03  0.18726738001E+03 -0.22503563367E+04  0.24515714261E+04  0.90699330006E+03 0.  0.
         23    2    4    4    0    0  0.14321023005E+03 -0.16871460068E+03 -0.14301850819E+04  0.14506261478E+04  0.99564380203E+02 0.  0.
         23    2    4    4    0    0 -0.44051965994E+03  0.35598198069E+03 -0.82017125475E+03  0.10009452782E+04  0.91814059262E+02 0.  0.
          2    1    3    3  502    0  0.18646898801E+03 -0.13449785873E+03  0.14397848802E+03  0.27127506797E+03  0.00000000000E+00 0. -1.
         -1    1    3    3    0  502  0.11084044188E+03 -0.52769521280E+02  0.15088748503E+03  0.19451801734E+03  0.00000000000E+00 0.  1.
         13    1    5    5    0    0  0.13137514418E+03 -0.17133194369E+03 -0.11446407543E+04  0.11648246734E+04  0.00000000000E+00 0. -1.
        -13    1    5    5    0    0  0.11835085867E+02  0.26173430086E+01 -0.28554432762E+03  0.28580147442E+03  0.00000000000E+00 0.  1.
          1    1    6    6  503    0 -0.28602052501E+03  0.28472239678E+03 -0.58298751047E+03  0.70904796827E+03  0.00000000000E+00 0. -1.
         -1    1    6    6    0  503 -0.15449913494E+03  0.71259583912E+02 -0.23718374428E+03  0.29189730993E+03  0.00000000000E+00 0.  1.
<mgrwt>
<rscale>  0 0.21649649E+04</rscale>
<asrwt>0</asrwt>
<pdfrwt beam="1">  1        4 0.73990318E-01 0.21649649E+04</pdfrwt>
<pdfrwt beam="2">  1       -3 0.37483500E+00 0.21649649E+04</pdfrwt>
<totfact> 0.50713969E-02</totfact>
</mgrwt>
</event>
<event>
12    7  0.1735955E-007  0.1994373E+04  0.7818608E-02  0.8609256E-01
         -1   -1    0    0    0  501 -0.00000000000E+00  0.00000000000E+00  0.67221014405E+03  0.67221014405E+03  0.00000000000E+00 0.  1.
          2   -1    0    0  501    0  0.00000000000E+00 -0.00000000000E+00 -0.14792706400E+04  0.14792706400E+04  0.00000000000E+00 0. -1.
         24    2    1    2    0    0 -0.69855666407E+03 -0.38663418949E+03 -0.34939034603E+03  0.87490776976E+03  0.76958315293E+02 0.  0.
        254    2    1    2    0    0  0.69855666407E+03  0.38663418949E+03 -0.45767014995E+03  0.12765730143E+04  0.88470858779E+03 0.  0.
         23    2    4    4    0    0  0.46067005184E+03  0.66246815264E+03 -0.36295074155E+03  0.88947430530E+03  0.91380244385E+02 0.  0.
         23    2    4    4    0    0  0.23788661223E+03 -0.27583396315E+03 -0.94719408403E+02  0.38709870902E+03  0.90549592437E+02 0.  0.
          4    1    3    3  502    0 -0.39621127646E+03 -0.24727661410E+03 -0.17222212345E+03  0.49778465151E+03  0.00000000000E+00 0. -1.
         -3    1    3    3    0  502 -0.30234538760E+03 -0.13935757540E+03 -0.17716822258E+03  0.37712311825E+03  0.00000000000E+00 0.  1.
         13    1    5    5    0    0  0.83659335019E+02  0.68284216735E+02 -0.39331587710E+02  0.11492864039E+03  0.00000000000E+00 0. -1.
        -13    1    5    5    0    0  0.37701071682E+03  0.59418393591E+03 -0.32361915384E+03  0.77454566490E+03  0.00000000000E+00 0.  1.
          3    1    6    6  503    0  0.32193428402E+02 -0.12090174193E+02  0.11348370544E+02  0.36212907344E+02  0.00000000000E+00 0. -1.
         -3    1    6    6    0  503  0.20569318383E+03 -0.26374378895E+03 -0.10606777895E+03  0.35088580167E+03  0.00000000000E+00 0.  1.
<mgrwt>
<rscale>  0 0.19943728E+04</rscale>
<asrwt>0</asrwt>
<pdfrwt beam="1">  1        2 0.22758010E+00 0.19943728E+04</pdfrwt>
<pdfrwt beam="2">  1       -1 0.10341695E+00 0.19943728E+04</pdfrwt>
<totfact> 0.12182286E+01</totfact>
</mgrwt>
</event>
<event>
12    7  0.1735955E-007  0.2803581E+04  0.7818608E-02  0.8302158E-01
          2   -1    0    0  501    0  0.00000000000E+00  0.00000000000E+00  0.30028631299E+04  0.30028631299E+04  0.00000000000E+00 0. -1.
         -3   -1    0    0    0  501 -0.00000000000E+00 -0.00000000000E+00 -0.65438090675E+03  0.65438090675E+03  0.00000000000E+00 0.  1.
         24    2    1    2    0    0 -0.20103023720E+03 -0.11259673951E+04  0.17043245020E+04  0.20542354384E+04  0.83339648112E+02 0.  0.
        254    2    1    2    0    0  0.20103023720E+03  0.11259673951E+04  0.64415772112E+03  0.16030085983E+04  0.92004438229E+03 0.  0.
         23    2    4    4    0    0  0.24268891652E+03  0.12656596669E+04  0.60287854731E+03  0.14256978472E+04  0.91430333747E+02 0.  0.
         23    2    4    4    0    0 -0.41658679320E+02 -0.13969227184E+03  0.41279173815E+02  0.17731075110E+03  0.92118162640E+02 0.  0.
          4    1    3    3  502    0 -0.12835345138E+03 -0.89804308635E+03  0.13261362271E+04  0.16067337322E+04  0.00000000000E+00 0. -1.
         -3    1    3    3    0  502 -0.72676785820E+02 -0.22792430874E+03  0.37818827489E+03  0.44750170611E+03  0.00000000000E+00 0.  1.
         13    1    5    5    0    0 -0.58972737226E+01  0.82310448119E+01  0.60268527242E+01  0.11783500745E+02  0.00000000000E+00 0. -1.
        -13    1    5    5    0    0  0.24858619024E+03  0.12574286221E+04  0.59685169458E+03  0.14139143464E+04  0.00000000000E+00 0.  1.
          1    1    6    6  503    0  0.28552080420E+02 -0.25334460414E+02  0.11341397912E+02  0.39820641474E+02  0.00000000000E+00 0. -1.
         -1    1    6    6    0  503 -0.70210759740E+02 -0.11435781143E+03  0.29937775903E+02  0.13749010962E+03  0.00000000000E+00 0.  1.
<mgrwt>
<rscale>  0 0.28035808E+04</rscale>
<asrwt>0</asrwt>
<pdfrwt beam="1">  1        2 0.46197894E+00 0.28035808E+04</pdfrwt>
<pdfrwt beam="2">  1       -3 0.10067399E+00 0.28035808E+04</pdfrwt>
<totfact> 0.83011186E-01</totfact>
</mgrwt>
</event>
<event>
12    7  0.1735955E-007  0.3290069E+04  0.7818608E-02  0.8165427E-01
         -1   -1    0    0    0  501 -0.00000000000E+00  0.00000000000E+00  0.22270112407E+04  0.22270112407E+04  0.00000000000E+00 0.  1.
          2   -1    0    0  501    0  0.00000000000E+00 -0.00000000000E+00 -0.12151439645E+04  0.12151439645E+04  0.00000000000E+00 0. -1.
         24    2    1    2    0    0  0.46970814564E+03 -0.14395132193E+04  0.63635372582E+03  0.16444577463E+04  0.80443549270E+02 0.  0.
        254    2    1    2    0    0 -0.46970814564E+03  0.14395132193E+04  0.37551355038E+03  0.17976974589E+04  0.89324222739E+03 0.  0.
         23    2    4    4    0    0 -0.56685925155E+03  0.81896161361E+03 -0.99689149960E+02  0.10049977997E+04  0.89750293477E+02 0.  0.
         23    2    4    4    0    0  0.97151105915E+02  0.62055160565E+03  0.47520270034E+03  0.79269965921E+03  0.89624274841E+02 0.  0.
          4    1    3    3  502    0  0.45370658512E+03 -0.13909146370E+04  0.62992596933E+03  0.15928904292E+04  0.00000000000E+00 0. -1.
         -3    1    3    3    0  502  0.16001560521E+02 -0.48598582278E+02  0.64277564957E+01  0.51567317092E+02  0.00000000000E+00 0.  1.
         13    1    5    5    0    0 -0.19544248516E+03  0.34249052043E+03 -0.11815320294E+02  0.39450871141E+03  0.00000000000E+00 0.  1.
        -13    1    5    5    0    0 -0.37141676640E+03  0.47647109318E+03 -0.87873829665E+02  0.61048908830E+03  0.00000000000E+00 0. -1.
          2    1    6    6  503    0  0.10361948130E+03  0.39983598658E+03  0.32617952612E+03  0.52630684617E+03  0.00000000000E+00 0. -1.
         -2    1    6    6    0  503 -0.64683753805E+01  0.22071561908E+03  0.14902317422E+03  0.26639281304E+03  0.00000000000E+00 0.  1.
<mgrwt>
<rscale>  0 0.32900695E+04</rscale>
<asrwt>0</asrwt>
<pdfrwt beam="1">  1        2 0.18694523E+00 0.32900695E+04</pdfrwt>
<pdfrwt beam="2">  1       -1 0.34261711E+00 0.32900695E+04</pdfrwt>
<totfact> 0.30701826E-01</totfact>
</mgrwt>
</event>
<event>
12    7  0.1735955E-007  0.1662554E+04  0.7818608E-02  0.8783014E-01
         -1   -1    0    0    0  501 -0.00000000000E+00  0.00000000000E+00  0.13015545658E+04  0.13015545658E+04  0.00000000000E+00 0.  1.
          2   -1    0    0  501    0  0.00000000000E+00 -0.00000000000E+00 -0.53092028381E+03  0.53092028381E+03  0.00000000000E+00 0. -1.
         24    2    1    2    0    0 -0.74046167179E+02  0.24538368099E+03  0.83498447034E+03  0.87697102234E+03  0.78632833719E+02 0.  0.
        254    2    1    2    0    0  0.74046167179E+02 -0.24538368099E+03 -0.64350188345E+02  0.95550382728E+03  0.91823234066E+03 0.  0.
         23    2    4    4    0    0 -0.23013480625E+03  0.23253592366E+02 -0.36500310209E+03  0.44239047379E+03  0.94759211482E+02 0.  0.
         23    2    4    4    0    0  0.30418097342E+03 -0.26863727336E+03  0.30065291375E+03  0.51311335349E+03  0.90559868327E+02 0.  0.
          2    1    3    3  502    0 -0.36806610684E+02  0.25178992409E+02  0.15120311724E+03  0.15764228783E+03  0.00000000000E+00 0. -1.
         -1    1    3    3    0  502 -0.37239556495E+02  0.22020468858E+03  0.68378135310E+03  0.71932873451E+03  0.00000000000E+00 0.  1.
         13    1    5    5    0    0 -0.15593049146E+03  0.43447591013E+02 -0.30330631227E+03  0.34379751366E+03  0.00000000000E+00 0. -1.
        -13    1    5    5    0    0 -0.74204314783E+02 -0.20193998647E+02 -0.61696789817E+02  0.98592960132E+02  0.00000000000E+00 0.  1.
          3    1    6    6  503    0  0.12374665106E+02 -0.37551768292E+02  0.98145746028E+01  0.40738108854E+02  0.00000000000E+00 0. -1.
         -3    1    6    6    0  503  0.29180630832E+03 -0.23108550507E+03  0.29083833914E+03  0.47237524463E+03  0.00000000000E+00 0.  1.
<mgrwt>
<rscale>  0 0.16625543E+04</rscale>
<asrwt>0</asrwt>
<pdfrwt beam="1">  1        2 0.81680044E-01 0.16625543E+04</pdfrwt>
<pdfrwt beam="2">  1       -1 0.20023916E+00 0.16625543E+04</pdfrwt>
<totfact> 0.93844356E+00</totfact>
</mgrwt>
</event>
<event>
12    7  0.1735955E-007  0.3224715E+04  0.7818608E-02  0.8182320E-01
          2   -1    0    0  501    0  0.00000000000E+00  0.00000000000E+00  0.16910667243E+04  0.16910667243E+04  0.00000000000E+00 0. -1.
         -1   -1    0    0    0  501 -0.00000000000E+00 -0.00000000000E+00 -0.15373116567E+04  0.15373116567E+04  0.00000000000E+00 0.  1.
         24    2    1    2    0    0 -0.87623120314E+03 -0.11631114019E+04 -0.23623381342E+03  0.14774198591E+04  0.79710544405E+02 0.  0.
        254    2    1    2    0    0  0.87623120314E+03  0.11631114019E+04  0.38998888100E+03  0.17509585219E+04  0.89059259119E+03 0.  0.
         23    2    4    4    0    0  0.66612316135E+03  0.11121939057E+04  0.60388811971E+03  0.14332500919E+04  0.93966028989E+02 0.  0.
         23    2    4    4    0    0  0.21010804180E+03  0.50917496143E+02 -0.21389923871E+03  0.31770843003E+03  0.91911814003E+02 0.  0.
          4    1    3    3  502    0 -0.43437222579E+02 -0.33092131069E+02 -0.62407130903E+01  0.54962059131E+02  0.00000000000E+00 0. -1.
         -3    1    3    3    0  502 -0.83279398056E+03 -0.11300192708E+04 -0.22999310033E+03  0.14224578000E+04  0.00000000000E+00 0.  1.
         13    1    5    5    0    0  0.35655062443E+03  0.63138105463E+03  0.29025217368E+03  0.78103566388E+03  0.00000000000E+00 0.  1.
        -13    1    5    5    0    0  0.30957253692E+03  0.48081285112E+03  0.31363594603E+03  0.65221442797E+03  0.00000000000E+00 0. -1.
          1    1    6    6  503    0  0.17619379371E+03  0.21647834172E+02 -0.20648112487E+03  0.27230008556E+03  0.00000000000E+00 0. -1.
         -1    1    6    6    0  503  0.33914248082E+02  0.29269661971E+02 -0.74181138356E+01  0.45408344473E+02  0.00000000000E+00 0.  1.
<mgrwt>
<rscale>  0 0.32247149E+04</rscale>
<asrwt>0</asrwt>
<pdfrwt beam="1">  1        2 0.26016411E+00 0.32247149E+04</pdfrwt>
<pdfrwt beam="2">  1       -1 0.23650949E+00 0.32247149E+04</pdfrwt>
<totfact> 0.81102622E-01</totfact>
</mgrwt>
</event>
<event>
12    7  0.1735955E-007  0.1396375E+04  0.7818608E-02  0.8956447E-01
          2   -1    0    0  501    0  0.00000000000E+00  0.00000000000E+00  0.24676124411E+04  0.24676124411E+04  0.00000000000E+00 0. -1.
         -1   -1    0    0    0  501 -0.00000000000E+00 -0.00000000000E+00 -0.19754541142E+03  0.19754541142E+03  0.00000000000E+00 0.  1.
         24    2    1    2    0    0  0.19610422177E+03  0.33106032149E+03  0.43888532894E+03  0.58918652790E+03  0.80390487270E+02 0.  0.
        254    2    1    2    0    0 -0.19610422177E+03 -0.33106032149E+03  0.18311817007E+04  0.20759713246E+04  0.89909549950E+03 0.  0.
         23    2    4    4    0    0 -0.97341854098E+02  0.24915390733E+03  0.21909204499E+03  0.35749622632E+03  0.90824674806E+02 0.  0.
         23    2    4    4    0    0 -0.98762367669E+02 -0.58021422883E+03  0.16120896557E+04  0.17184750983E+04  0.89000273448E+02 0.  0.
          4    1    3    3  502    0  0.10388209977E+03  0.18809423253E+03  0.18484657734E+03  0.28344168380E+03  0.00000000000E+00 0. -1.
         -3    1    3    3    0  502  0.92222122000E+02  0.14296608896E+03  0.25403875160E+03  0.30574484410E+03  0.00000000000E+00 0.  1.
         13    1    5    5    0    0 -0.70439805495E+01  0.90946318217E+02  0.11805033316E+03  0.14918690163E+03  0.00000000000E+00 0.  1.
        -13    1    5    5    0    0 -0.90297873548E+02  0.15820758912E+03  0.10104171183E+03  0.20830932469E+03  0.00000000000E+00 0. -1.
          1    1    6    6  503    0 -0.12922679599E+02 -0.29625190209E+03  0.87737837959E+03  0.92613444278E+03  0.00000000000E+00 0. -1.
         -1    1    6    6    0  503 -0.85839688069E+02 -0.28396232674E+03  0.73471127615E+03  0.79234065550E+03  0.00000000000E+00 0.  1.
<mgrwt>
<rscale>  0 0.13963746E+04</rscale>
<asrwt>0</asrwt>
<pdfrwt beam="1">  1        2 0.37963266E+00 0.13963746E+04</pdfrwt>
<pdfrwt beam="2">  1       -1 0.30391604E-01 0.13963746E+04</pdfrwt>
<totfact> 0.40334418E+01</totfact>
</mgrwt>
</event>
<event>
12    7  0.1735955E-007  0.1165462E+04  0.7818608E-02  0.9143636E-01
          2   -1    0    0  501    0  0.00000000000E+00  0.00000000000E+00  0.14240446465E+04  0.14240446465E+04  0.00000000000E+00 0. -1.
         -1   -1    0    0    0  501 -0.00000000000E+00 -0.00000000000E+00 -0.23845846590E+03  0.23845846590E+03  0.00000000000E+00 0.  1.
         24    2    1    2    0    0  0.76145360966E+01  0.13609166034E+03 -0.26899741991E+02  0.16006585961E+03  0.79489383695E+02 0.  0.
        254    2    1    2    0    0 -0.76145360966E+01 -0.13609166034E+03  0.12124859226E+04  0.15024372528E+04  0.87670785608E+03 0.  0.
         23    2    4    4    0    0 -0.24821582649E+03 -0.21593799437E+03  0.96868853362E+02  0.35483003814E+03  0.90997072926E+02 0.  0.
         23    2    4    4    0    0  0.24060129040E+03  0.79846334032E+02  0.11156170692E+04  0.11476072147E+04  0.90202305686E+02 0.  0.
          2    1    3    3  502    0 -0.78130266783E+00 -0.88791225701E+01  0.65354611547E+01  0.11052669541E+02  0.00000000000E+00 0. -1.
         -1    1    3    3    0  502  0.83958387645E+01  0.14497078291E+03 -0.33435203146E+02  0.14901319007E+03  0.00000000000E+00 0.  1.
         13    1    5    5    0    0 -0.14719515065E+03 -0.82207747297E+02  0.17848422769E+02  0.16953787862E+03  0.00000000000E+00 0. -1.
        -13    1    5    5    0    0 -0.10102067584E+03 -0.13373024707E+03  0.79020430593E+02  0.18529215952E+03  0.00000000000E+00 0.  1.
          3    1    6    6  503    0  0.53245616311E+02  0.79083533727E+01  0.42579534560E+03  0.42918447554E+03  0.00000000000E+00 0. -1.
         -3    1    6    6    0  503  0.18735567409E+03  0.71937980659E+02  0.68982172363E+03  0.71842273911E+03  0.00000000000E+00 0.  1.
<mgrwt>
<rscale>  0 0.11654621E+04</rscale>
<asrwt>0</asrwt>
<pdfrwt beam="1">  1        2 0.21908379E+00 0.11654621E+04</pdfrwt>
<pdfrwt beam="2">  1       -1 0.36685919E-01 0.11654621E+04</pdfrwt>
<totfact> 0.11255801E+02</totfact>
</mgrwt>
</event>
<event>
12    7  0.1735955E-007  0.2054180E+04  0.7818608E-02  0.8581700E-01
          2   -1    0    0  501    0  0.00000000000E+00  0.00000000000E+00  0.37210061040E+04  0.37210061040E+04  0.00000000000E+00 0. -1.
         -1   -1    0    0    0  501 -0.00000000000E+00 -0.00000000000E+00 -0.28350242811E+03  0.28350242811E+03  0.00000000000E+00 0.  1.
         24    2    1    2    0    0  0.52125450766E+03  0.36485130333E+03  0.24352768944E+04  0.25183154701E+04  0.80724960004E+02 0.  0.
        254    2    1    2    0    0 -0.52125450766E+03 -0.36485130333E+03  0.10022267815E+04  0.14861930621E+04  0.89414124209E+03 0.  0.
         23    2    4    4    0    0 -0.63309889521E+02 -0.57315376880E+03  0.57235145272E+03  0.81768710018E+03  0.92263880184E+02 0.  0.
         23    2    4    4    0    0 -0.45794461814E+03  0.20830246546E+03  0.42987532883E+03  0.66850596188E+03  0.94890633598E+02 0.  0.
          4    1    3    3  502    0  0.46924408410E+03  0.31287343112E+03  0.20545434593E+04  0.21305465544E+04  0.00000000000E+00 0. -1.
         -3    1    3    3    0  502  0.52010423557E+02  0.51977872217E+02  0.38073343509E+03  0.38776891567E+03  0.00000000000E+00 0.  1.
         13    1    5    5    0    0 -0.36357663787E+02 -0.51810014181E+03  0.53631851255E+03  0.74658367486E+03  0.00000000000E+00 0.  1.
        -13    1    5    5    0    0 -0.26952225734E+02 -0.55053626987E+02  0.36032940167E+02  0.71103425329E+02  0.00000000000E+00 0. -1.
          2    1    6    6  503    0 -0.23907185600E+02  0.39429502352E+02  0.42969943357E+02  0.63029002937E+02  0.00000000000E+00 0. -1.
         -2    1    6    6    0  503 -0.43403743254E+03  0.16887296311E+03  0.38690538547E+03  0.60547695895E+03  0.00000000000E+00 0.  1.
<mgrwt>
<rscale>  0 0.20541804E+04</rscale>
<asrwt>0</asrwt>
<pdfrwt beam="1">  1        2 0.57246244E+00 0.20541804E+04</pdfrwt>
<pdfrwt beam="2">  1       -1 0.43615761E-01 0.20541804E+04</pdfrwt>
<totfact> 0.30987234E+00</totfact>
</mgrwt>
</event>
<event>
12    7  0.1735955E-007  0.2330370E+04  0.7818608E-02  0.8466042E-01
          2   -1    0    0  501    0  0.00000000000E+00  0.00000000000E+00  0.25769826759E+04  0.25769826759E+04  0.00000000000E+00 0. -1.
         -1   -1    0    0    0  501 -0.00000000000E+00 -0.00000000000E+00 -0.52683934247E+03  0.52683934247E+03  0.00000000000E+00 0.  1.
         24    2    1    2    0    0  0.34864273582E+03  0.61340844628E+03  0.18033792978E+04  0.19381469953E+04  0.80094971783E+02 0.  0.
        254    2    1    2    0    0 -0.34864273582E+03 -0.61340844628E+03  0.24676403556E+03  0.11656750230E+04  0.89447419794E+03 0.  0.
         23    2    4    4    0    0  0.18477463531E+03 -0.18912961918E+03 -0.20111708767E+03  0.34484848958E+03  0.92524154182E+02 0.  0.
         23    2    4    4    0    0 -0.53341737113E+03 -0.42427882709E+03  0.44788112322E+03  0.82082653341E+03  0.92801306359E+02 0.  0.
          4    1    3    3  502    0  0.22634835087E+03  0.37607400446E+03  0.10169991954E+04  0.11076789229E+04  0.00000000000E+00 0. -1.
         -3    1    3    3    0  502  0.12229438495E+03  0.23733444181E+03  0.78638010241E+03  0.83046807243E+03  0.00000000000E+00 0.  1.
         13    1    5    5    0    0  0.11772745218E+03 -0.14300870808E+03 -0.18518504071E+03  0.26192507113E+03  0.00000000000E+00 0. -1.
        -13    1    5    5    0    0  0.67047183135E+02 -0.46120911101E+02 -0.15932046955E+02  0.82923418450E+02  0.00000000000E+00 0.  1.
          4    1    6    6  503    0 -0.35870713677E+03 -0.31515457603E+03  0.35429630736E+03  0.59457471370E+03  0.00000000000E+00 0. -1.
         -4    1    6    6    0  503 -0.17471023436E+03 -0.10912425106E+03  0.93584815863E+02  0.22625181970E+03  0.00000000000E+00 0.  1.
<mgrwt>
<rscale>  0 0.23303698E+04</rscale>
<asrwt>0</asrwt>
<pdfrwt beam="1">  1        2 0.39645887E+00 0.23303698E+04</pdfrwt>
<pdfrwt beam="2">  1       -1 0.81052208E-01 0.23303698E+04</pdfrwt>
<totfact> 0.48998234E+00</totfact>
</mgrwt>
</event>
<event>
12    7  0.1735955E-007  0.1647647E+04  0.7818608E-02  0.8791800E-01
          2   -1    0    0  501    0  0.00000000000E+00  0.00000000000E+00  0.23737258011E+04  0.23737258011E+04  0.00000000000E+00 0. -1.
         -1   -1    0    0    0  501 -0.00000000000E+00 -0.00000000000E+00 -0.28591548112E+03  0.28591548112E+03  0.00000000000E+00 0.  1.
         24    2    1    2    0    0 -0.20578620490E+03  0.61791747250E+02  0.15840094000E+04  0.16005170561E+04  0.80018032817E+02 0.  0.
        254    2    1    2    0    0  0.20578620490E+03 -0.61791747250E+02  0.50380091999E+03  0.10591242261E+04  0.90651121182E+03 0.  0.
         23    2    4    4    0    0 -0.26229505230E+03 -0.18701278073E+02 -0.92865512976E+02  0.29394161664E+03  0.92893693170E+02 0.  0.
         23    2    4    4    0    0  0.46808125720E+03 -0.43090469176E+02  0.59666643296E+03  0.76518260944E+03  0.92394489488E+02 0.  0.
          2    1    3    3  502    0 -0.12559561093E+03 -0.34149170968E+01  0.82943581035E+03  0.83889789762E+03  0.00000000000E+00 0. -1.
         -1    1    3    3    0  502 -0.80190593976E+02  0.65206664346E+02  0.75457358960E+03  0.76161915848E+03  0.00000000000E+00 0.  1.
         13    1    5    5    0    0 -0.70475854089E+02 -0.45140438345E+02 -0.13960846973E+02  0.84849339607E+02  0.00000000000E+00 0. -1.
        -13    1    5    5    0    0 -0.19181919821E+03  0.26439160272E+02 -0.78904666004E+02  0.20909227704E+03  0.00000000000E+00 0.  1.
          2    1    6    6  503    0  0.42043436022E+03 -0.19825312044E+02  0.56074501264E+03  0.70113697909E+03  0.00000000000E+00 0. -1.
         -2    1    6    6    0  503  0.47646896989E+02 -0.23265157132E+02  0.35921420322E+02  0.64045630351E+02  0.00000000000E+00 0.  1.
<mgrwt>
<rscale>  0 0.16476468E+04</rscale>
<asrwt>0</asrwt>
<pdfrwt beam="1">  1        2 0.36518857E+00 0.16476468E+04</pdfrwt>
<pdfrwt beam="2">  1       -1 0.43986999E-01 0.16476468E+04</pdfrwt>
<totfact> 0.22912409E+01</totfact>
</mgrwt>
</event>
<event>
12    7  0.1735955E-007  0.2319916E+04  0.7818608E-02  0.8470110E-01
          2   -1    0    0  501    0  0.00000000000E+00  0.00000000000E+00  0.13775343850E+04  0.13775343850E+04  0.00000000000E+00 0. -1.
         -1   -1    0    0    0  501 -0.00000000000E+00 -0.00000000000E+00 -0.97674674763E+03  0.97674674763E+03  0.00000000000E+00 0.  1.
         24    2    1    2    0    0  0.24020669031E+03 -0.14210407983E+03  0.11270484726E+04  0.11637232829E+04  0.78235516108E+02 0.  0.
        254    2    1    2    0    0 -0.24020669031E+03  0.14210407983E+03 -0.72626083522E+03  0.11905578498E+04  0.90115501955E+03 0.  0.
         23    2    4    4    0    0 -0.16174804923E+03  0.45402658592E+03 -0.69914427064E+03  0.85398438170E+03  0.90465688895E+02 0.  0.
         23    2    4    4    0    0 -0.78458641074E+02 -0.31192250609E+03 -0.27116564578E+02  0.33657346805E+03  0.95367621103E+02 0.  0.
          4    1    3    3  502    0  0.17200435108E+03 -0.13049715036E+03  0.75349486001E+03  0.78381726640E+03  0.00000000000E+00 0. -1.
         -3    1    3    3    0  502  0.68202339222E+02 -0.11606929464E+02  0.37355361260E+03  0.37990601650E+03  0.00000000000E+00 0.  1.
         13    1    5    5    0    0 -0.10818806946E+03  0.37335577489E+03 -0.50745567265E+03  0.63922644870E+03  0.00000000000E+00 0.  1.
        -13    1    5    5    0    0 -0.53559979772E+02  0.80670811027E+02 -0.19168859800E+03  0.21475793300E+03  0.00000000000E+00 0. -1.
          2    1    6    6  503    0  0.14620863073E+02 -0.13244885906E+03 -0.78930738758E+01  0.13348696760E+03  0.00000000000E+00 0. -1.
         -2    1    6    6    0  503 -0.93079504146E+02 -0.17947364703E+03 -0.19223490702E+02  0.20308650045E+03  0.00000000000E+00 0.  1.
<mgrwt>
<rscale>  0 0.23199157E+04</rscale>
<asrwt>0</asrwt>
<pdfrwt beam="1">  1        2 0.21192837E+00 0.23199157E+04</pdfrwt>
<pdfrwt beam="2">  1       -1 0.15026873E+00 0.23199157E+04</pdfrwt>
<totfact> 0.53384792E+00</totfact>
</mgrwt>
</event>
<event>
12    7  0.1735955E-007  0.1907555E+04  0.7818608E-02  0.8651105E-01
         -1   -1    0    0    0  501 -0.00000000000E+00  0.00000000000E+00  0.45396272222E+03  0.45396272222E+03  0.00000000000E+00 0.  1.
          2   -1    0    0  501    0  0.00000000000E+00 -0.00000000000E+00 -0.20038902259E+04  0.20038902259E+04  0.00000000000E+00 0. -1.
         24    2    1    2    0    0 -0.17620290432E+03  0.31739484654E+03 -0.14479537709E+04  0.14948455330E+04  0.78778757792E+02 0.  0.
        254    2    1    2    0    0  0.17620290432E+03 -0.31739484654E+03 -0.10197373278E+03  0.96300741515E+03  0.88611381174E+03 0.  0.
         23    2    4    4    0    0 -0.33672219548E+03 -0.84206483754E+02  0.72927120779E+02  0.36606195412E+03  0.90611370560E+02 0.  0.
         23    2    4    4    0    0  0.51292509980E+03 -0.23318836279E+03 -0.17490085356E+03  0.59694546103E+03  0.91019801833E+02 0.  0.
          2    1    3    3  502    0 -0.16973088652E+03  0.24167884068E+03 -0.11687651727E+04  0.12054995914E+04  0.00000000000E+00 0. -1.
         -1    1    3    3    0  502 -0.64720178066E+01  0.75716005867E+02 -0.27918859825E+03  0.28934594166E+03  0.00000000000E+00 0.  1.
         13    1    5    5    0    0 -0.61621152694E+02  0.14021267806E+02  0.32817957992E+02  0.71209414946E+02  0.00000000000E+00 0. -1.
        -13    1    5    5    0    0 -0.27510104279E+03 -0.98227751560E+02  0.40109162788E+02  0.29485253917E+03  0.00000000000E+00 0.  1.
          2    1    6    6  503    0  0.10289892352E+03 -0.85260257715E+02 -0.57792650696E+02  0.14559357981E+03  0.00000000000E+00 0. -1.
         -2    1    6    6    0  503  0.41002617628E+03 -0.14792810507E+03 -0.11710820286E+03  0.45135188122E+03  0.00000000000E+00 0.  1.
<mgrwt>
<rscale>  0 0.19075549E+04</rscale>
<asrwt>0</asrwt>
<pdfrwt beam="1">  1        2 0.30829081E+00 0.19075549E+04</pdfrwt>
<pdfrwt beam="2">  1       -1 0.69840417E-01 0.19075549E+04</pdfrwt>
<totfact> 0.14687378E+01</totfact>
</mgrwt>
</event>
<event>
12    7  0.1735955E-007  0.1642527E+04  0.7818608E-02  0.8794840E-01
          2   -1    0    0  501    0  0.00000000000E+00  0.00000000000E+00  0.37179131769E+04  0.37179131769E+04  0.00000000000E+00 0. -1.
         -1   -1    0    0    0  501 -0.00000000000E+00 -0.00000000000E+00 -0.18141189508E+03  0.18141189508E+03  0.00000000000E+00 0.  1.
         24    2    1    2    0    0  0.61268902950E+03  0.18304408861E+03  0.12204266567E+04  0.13800916909E+04  0.79491292084E+02 0.  0.
        254    2    1    2    0    0 -0.61268902950E+03 -0.18304408861E+03  0.23160746250E+04  0.25192333810E+04  0.75725964787E+03 0.  0.
         23    2    4    4    0    0 -0.40164756662E+03  0.81120797507E+02  0.20091810243E+04  0.20527873939E+04  0.96053863251E+02 0.  0.
         23    2    4    4    0    0 -0.21104146288E+03 -0.26416488611E+03  0.30689360070E+03  0.46644598712E+03  0.95218646481E+02 0.  0.
          2    1    3    3  502    0  0.17514710567E+03  0.61460786428E+02  0.43284175664E+03  0.47096276199E+03  0.00000000000E+00 0. -1.
         -1    1    3    3    0  502  0.43754192383E+03  0.12158330218E+03  0.78758490011E+03  0.90912892890E+03  0.00000000000E+00 0.  1.
         13    1    5    5    0    0 -0.28643656907E+03  0.99032185066E+02  0.13790817684E+04  0.14119914326E+04  0.00000000000E+00 0. -1.
        -13    1    5    5    0    0 -0.11521099755E+03 -0.17911387559E+02  0.63009925595E+03  0.64079596137E+03  0.00000000000E+00 0.  1.
          3    1    6    6  503    0 -0.11107506919E+03 -0.18518931657E+03  0.23891586327E+03  0.32204587203E+03  0.00000000000E+00 0. -1.
         -3    1    6    6    0  503 -0.99966393688E+02 -0.78975569544E+02  0.67977737427E+02  0.14440011509E+03  0.00000000000E+00 0.  1.
<mgrwt>
<rscale>  0 0.16425269E+04</rscale>
<asrwt>0</asrwt>
<pdfrwt beam="1">  1        2 0.57198659E+00 0.16425269E+04</pdfrwt>
<pdfrwt beam="2">  1       -1 0.27909525E-01 0.16425269E+04</pdfrwt>
<totfact> 0.72353311E+00</totfact>
</mgrwt>
</event>
<event>
12    7  0.1735955E-007  0.1519976E+04  0.7818608E-02  0.8871276E-01
          4   -1    0    0  501    0  0.00000000000E+00  0.00000000000E+00  0.24401065357E+03  0.24401065357E+03  0.00000000000E+00 0. -1.
         -3   -1    0    0    0  501 -0.00000000000E+00 -0.00000000000E+00 -0.23670365573E+04  0.23670365573E+04  0.00000000000E+00 0.  1.
         24    2    1    2    0    0 -0.34552322389E+02  0.29938162069E+03 -0.15989561032E+04  0.16290581292E+04  0.79665240129E+02 0.  0.
        254    2    1    2    0    0  0.34552322389E+02 -0.29938162069E+03 -0.52406980051E+03  0.98198908168E+03  0.77384118715E+03 0.  0.
         23    2    4    4    0    0  0.14741738582E+03 -0.25234828055E+03  0.11298296554E+03  0.32676344028E+03  0.92723541053E+02 0.  0.
         23    2    4    4    0    0 -0.11286506343E+03 -0.47033340143E+02 -0.63705276604E+03  0.65522564140E+03  0.92378335083E+02 0.  0.
          2    1    3    3  502    0  0.17078953210E+02  0.15584470955E+03 -0.91118083691E+03  0.92457005234E+03  0.00000000000E+00 0. -1.
         -1    1    3    3    0  502 -0.51631275599E+02  0.14353691114E+03 -0.68777526627E+03  0.70448807682E+03  0.00000000000E+00 0.  1.
         13    1    5    5    0    0  0.14245914690E+03 -0.16087765287E+03  0.83342036793E+02  0.23048236987E+03  0.00000000000E+00 0. -1.
        -13    1    5    5    0    0  0.49582389209E+01 -0.91470627680E+02  0.29640928742E+02  0.96281070404E+02  0.00000000000E+00 0.  1.
          4    1    6    6  503    0 -0.66842832546E+02 -0.68819836814E+02 -0.31871601780E+03  0.33284235639E+03  0.00000000000E+00 0. -1.
         -4    1    6    6    0  503 -0.46022230882E+02  0.21786496671E+02 -0.31833674824E+03  0.32238328501E+03  0.00000000000E+00 0.  1.
<mgrwt>
<rscale>  0 0.15199765E+04</rscale>
<asrwt>0</asrwt>
<pdfrwt beam="1">  1        4 0.37540101E-01 0.15199765E+04</pdfrwt>
<pdfrwt beam="2">  1       -3 0.36415947E+00 0.15199765E+04</pdfrwt>
<totfact> 0.25806263E-01</totfact>
</mgrwt>
</event>
<event>
12    7  0.1735955E-007  0.1781886E+04  0.7818608E-02  0.8715992E-01
          2   -1    0    0  501    0  0.00000000000E+00  0.00000000000E+00  0.19796183221E+04  0.19796183221E+04  0.00000000000E+00 0. -1.
         -1   -1    0    0    0  501 -0.00000000000E+00 -0.00000000000E+00 -0.40097596243E+03  0.40097596243E+03  0.00000000000E+00 0.  1.
         24    2    1    2    0    0 -0.52321176139E+03  0.10058443979E+03  0.91059488794E+02  0.54613621198E+03  0.78135489672E+02 0.  0.
        254    2    1    2    0    0  0.52321176139E+03 -0.10058443979E+03  0.14875828709E+04  0.18344580726E+04  0.93191514927E+03 0.  0.
         23    2    4    4    0    0 -0.14278892481E+02  0.59087919009E+02  0.11863590478E+04  0.11913416130E+04  0.90287206101E+02 0.  0.
         23    2    4    4    0    0  0.53749065387E+03 -0.15967235880E+03  0.30122382305E+03  0.64311645954E+03  0.92040881106E+02 0.  0.
          2    1    3    3  502    0 -0.32607073666E+02  0.82588196871E+01 -0.13226118896E+02  0.36143596622E+02  0.00000000000E+00 0. -1.
         -1    1    3    3    0  502 -0.49060468773E+03  0.92325620108E+02  0.10428560769E+03  0.50999261536E+03  0.00000000000E+00 0.  1.
         13    1    5    5    0    0 -0.44887357048E+02  0.47718159787E+01  0.40798472161E+03  0.41047433308E+03  0.00000000000E+00 0. -1.
        -13    1    5    5    0    0  0.30608464567E+02  0.54316103030E+02  0.77837432623E+03  0.78086727994E+03  0.00000000000E+00 0.  1.
          4    1    6    6  503    0  0.19930473647E+02 -0.24252317248E+00  0.33533742206E+02  0.39010184101E+02  0.00000000000E+00 0. -1.
         -4    1    6    6    0  503  0.51756018023E+03 -0.15942983563E+03  0.26769008084E+03  0.60410627544E+03  0.00000000000E+00 0.  1.
<mgrwt>
<rscale>  0 0.17818859E+04</rscale>
<asrwt>0</asrwt>
<pdfrwt beam="1">  1        2 0.30455666E+00 0.17818859E+04</pdfrwt>
<pdfrwt beam="2">  1       -1 0.61688611E-01 0.17818859E+04</pdfrwt>
<totfact> 0.19681019E+01</totfact>
</mgrwt>
</event>
<event>
12    7  0.1735955E-007  0.1035176E+04  0.7818608E-02  0.9270784E-01
         -1   -1    0    0    0  501 -0.00000000000E+00  0.00000000000E+00  0.43522482726E+03  0.43522482726E+03  0.00000000000E+00 0.  1.
          2   -1    0    0  501    0  0.00000000000E+00 -0.00000000000E+00 -0.61553796120E+03  0.61553796120E+03  0.00000000000E+00 0. -1.
         24    2    1    2    0    0  0.10287800309E+02 -0.27079368652E+02  0.39665321834E+02  0.11154624184E+03  0.10015036330E+03 0.  0.
        254    2    1    2    0    0 -0.10287800309E+02  0.27079368652E+02 -0.21997845577E+03  0.93921654662E+03  0.91263249416E+03 0.  0.
         23    2    4    4    0    0  0.16612826578E+03 -0.12154769877E+03  0.29193672610E+03  0.36830970471E+03  0.89735961430E+02 0.  0.
         23    2    4    4    0    0 -0.17641606609E+03  0.14862706743E+03 -0.51191518187E+03  0.57090684191E+03  0.10327068879E+03 0.  0.
          2    1    3    3  502    0 -0.20293418421E+02  0.11595281267E+02 -0.22337084632E+02  0.32329842695E+02  0.00000000000E+00 0. -1.
         -1    1    3    3    0  502  0.30581218730E+02 -0.38674649918E+02  0.62002406466E+02  0.79216399141E+02  0.00000000000E+00 0.  1.
         13    1    5    5    0    0  0.51599467396E+02 -0.72612507985E+01  0.12694877970E+03  0.13722690504E+03  0.00000000000E+00 0.  1.
        -13    1    5    5    0    0  0.11452879838E+03 -0.11428644798E+03  0.16498794640E+03  0.23108279968E+03  0.00000000000E+00 0. -1.
          1    1    6    6  503    0 -0.11719871710E+02 -0.14315464452E+02 -0.64022204858E+02  0.66641808426E+02  0.00000000000E+00 0. -1.
         -1    1    6    6    0  503 -0.16469619438E+03  0.16294253188E+03 -0.44789297701E+03  0.50426503348E+03  0.00000000000E+00 0.  1.
<mgrwt>
<rscale>  0 0.10351761E+04</rscale>
<asrwt>0</asrwt>
<pdfrwt beam="1">  1        2 0.94698147E-01 0.10351761E+04</pdfrwt>
<pdfrwt beam="2">  1       -1 0.66957666E-01 0.10351761E+04</pdfrwt>
<totfact> 0.12373900E+02</totfact>
</mgrwt>
</event>
<event>
12    7  0.1735955E-007  0.1733217E+04  0.7818608E-02  0.8742643E-01
         -1   -1    0    0    0  501 -0.00000000000E+00  0.00000000000E+00  0.72471324075E+03  0.72471324075E+03  0.00000000000E+00 0.  1.
          2   -1    0    0  501    0  0.00000000000E+00 -0.00000000000E+00 -0.10362863766E+04  0.10362863766E+04  0.00000000000E+00 0. -1.
         24    2    1    2    0    0  0.17821062535E+03  0.50093478632E+03  0.24716614940E+03  0.59123319074E+03  0.75966395811E+02 0.  0.
        254    2    1    2    0    0 -0.17821062535E+03 -0.50093478632E+03 -0.55873928521E+03  0.11697664266E+04  0.87947098687E+03 0.  0.
         23    2    4    4    0    0  0.23186552620E+03 -0.32979373129E+03 -0.58445914769E+03  0.71575263176E+03  0.90464396922E+02 0.  0.
         23    2    4    4    0    0 -0.41007615155E+03 -0.17114105503E+03  0.25719862484E+02  0.45401379481E+03  0.89528228857E+02 0.  0.
          2    1    3    3  502    0  0.43961341053E+01  0.26587164112E+02 -0.36715327972E+01  0.27197121974E+02  0.00000000000E+00 0. -1.
         -1    1    3    3    0  502  0.17381449125E+03  0.47434762221E+03  0.25083768220E+03  0.56403606877E+03  0.00000000000E+00 0.  1.
         13    1    5    5    0    0  0.63858208030E+02 -0.15557953926E+03 -0.19824244777E+03  0.25996717459E+03  0.00000000000E+00 0. -1.
        -13    1    5    5    0    0  0.16800731817E+03 -0.17421419203E+03 -0.38621669993E+03  0.45578545717E+03  0.00000000000E+00 0.  1.
          4    1    6    6  503    0 -0.19161901463E+03 -0.10307907925E+03 -0.26858929343E+02  0.21923627764E+03  0.00000000000E+00 0. -1.
         -4    1    6    6    0  503 -0.21845713692E+03 -0.68061975781E+02  0.52578791827E+02  0.23477751717E+03  0.00000000000E+00 0.  1.
<mgrwt>
<rscale>  0 0.17332172E+04</rscale>
<asrwt>0</asrwt>
<pdfrwt beam="1">  1        2 0.15942867E+00 0.17332172E+04</pdfrwt>
<pdfrwt beam="2">  1       -1 0.11149434E+00 0.17332172E+04</pdfrwt>
<totfact> 0.19112878E+01</totfact>
</mgrwt>
</event>
<event>
12    7  0.1735955E-007  0.1711612E+04  0.7818608E-02  0.8754769E-01
          2   -1    0    0  501    0  0.00000000000E+00  0.00000000000E+00  0.76459775479E+03  0.76459775479E+03  0.00000000000E+00 0. -1.
         -1   -1    0    0    0  501 -0.00000000000E+00 -0.00000000000E+00 -0.95789481179E+03  0.95789481179E+03  0.00000000000E+00 0.  1.
         24    2    1    2    0    0  0.21568952789E+03 -0.11955390586E+03  0.50141394798E+03  0.56448023046E+03  0.80042954184E+02 0.  0.
        254    2    1    2    0    0 -0.21568952789E+03  0.11955390586E+03 -0.69471100497E+03  0.11580123361E+04  0.89305883419E+03 0.  0.
         23    2    4    4    0    0 -0.36673085730E+03 -0.15324420265E+03 -0.18855984993E+02  0.40844648562E+03  0.92182840610E+02 0.  0.
         23    2    4    4    0    0  0.15104132941E+03  0.27279810851E+03 -0.67585501998E+03  0.74956585050E+03  0.88524940030E+02 0.  0.
          4    1    3    3  502    0  0.86405543200E+02 -0.10355613511E+02  0.21287015656E+03  0.22997143340E+03  0.00000000000E+00 0. -1.
         -3    1    3    3    0  502  0.12928398469E+03 -0.10919829235E+03  0.28854379142E+03  0.33450879707E+03  0.00000000000E+00 0.  1.
         13    1    5    5    0    0 -0.42363794607E+02  0.10237657777E+02  0.76305669751E+01  0.44246200770E+02  0.00000000000E+00 0. -1.
        -13    1    5    5    0    0 -0.32436706269E+03 -0.16348186043E+03 -0.26486551968E+02  0.36420028485E+03  0.00000000000E+00 0.  1.
          1    1    6    6  503    0  0.67327019742E+02  0.70287581175E+02 -0.28911855331E+03  0.30506197652E+03  0.00000000000E+00 0. -1.
         -1    1    6    6    0  503  0.83714309670E+02  0.20251052733E+03 -0.38673646667E+03  0.44450387397E+03  0.00000000000E+00 0.  1.
<mgrwt>
<rscale>  0 0.17116124E+04</rscale>
<asrwt>0</asrwt>
<pdfrwt beam="1">  1        2 0.11763042E+00 0.17116124E+04</pdfrwt>
<pdfrwt beam="2">  1       -1 0.14736843E+00 0.17116124E+04</pdfrwt>
<totfact> 0.14524963E+01</totfact>
</mgrwt>
</event>
<event>
12    7  0.1735955E-007  0.1350251E+04  0.7818608E-02  0.8990638E-01
          2   -1    0    0  501    0  0.00000000000E+00  0.00000000000E+00  0.11052496208E+04  0.11052496208E+04  0.00000000000E+00 0. -1.
         -1   -1    0    0    0  501 -0.00000000000E+00 -0.00000000000E+00 -0.41239057095E+03  0.41239057095E+03  0.00000000000E+00 0.  1.
         24    2    1    2    0    0  0.26752788089E+03  0.13560065822E+03 -0.44668864912E+02  0.31383460440E+03  0.80858802024E+02 0.  0.
        254    2    1    2    0    0 -0.26752788089E+03 -0.13560065822E+03  0.73752791473E+03  0.12038055873E+04  0.90290739365E+03 0.  0.
         23    2    4    4    0    0  0.96420651161E+02 -0.64776079756E+02  0.80267791501E+03  0.81635334077E+03  0.92994942201E+02 0.  0.
         23    2    4    4    0    0 -0.36394853205E+03 -0.70824578468E+02 -0.65150000275E+02  0.38745224655E+03  0.91651873575E+02 0.  0.
          4    1    3    3  502    0  0.21491498518E+03  0.10720592814E+03 -0.68073098247E+02  0.24963074448E+03  0.00000000000E+00 0. -1.
         -3    1    3    3    0  502  0.52612895703E+02  0.28394730087E+02  0.23404233335E+02  0.64203859923E+02  0.00000000000E+00 0.  1.
         13    1    5    5    0    0  0.30953880143E+02 -0.20355970926E+02  0.55744701290E+03  0.55867672266E+03  0.00000000000E+00 0.  1.
        -13    1    5    5    0    0  0.65466771018E+02 -0.44420108830E+02  0.24523090211E+03  0.25767661812E+03  0.00000000000E+00 0. -1.
          2    1    6    6  503    0 -0.75190559025E+02  0.21691076538E+02 -0.21110486117E+02  0.81054152219E+02  0.00000000000E+00 0. -1.
         -2    1    6    6    0  503 -0.28875797302E+03 -0.92515655006E+02 -0.44039514158E+02  0.30639809434E+03  0.00000000000E+00 0.  1.
<mgrwt>
<rscale>  0 0.13502511E+04</rscale>
<asrwt>0</asrwt>
<pdfrwt beam="1">  1        2 0.17003840E+00 0.13502511E+04</pdfrwt>
<pdfrwt beam="2">  1       -1 0.63444703E-01 0.13502511E+04</pdfrwt>
<totfact> 0.60697454E+01</totfact>
</mgrwt>
</event>
<event>
12    7  0.1735955E-007  0.2612776E+04  0.7818608E-02  0.8363874E-01
          2   -1    0    0  501    0  0.00000000000E+00  0.00000000000E+00  0.13389360780E+04  0.13389360780E+04  0.00000000000E+00 0. -1.
         -1   -1    0    0    0  501 -0.00000000000E+00 -0.00000000000E+00 -0.12746314966E+04  0.12746314966E+04  0.00000000000E+00 0.  1.
         24    2    1    2    0    0 -0.82851796189E+02 -0.11461273857E+04 -0.36738227770E+02  0.11525259276E+04  0.80584812563E+02 0.  0.
        254    2    1    2    0    0  0.82851796189E+02  0.11461273857E+04  0.10104280919E+03  0.14610416469E+04  0.89663852257E+03 0.  0.
         23    2    4    4    0    0  0.13568694956E+03  0.80258787973E+03 -0.34391247767E+03  0.88851898282E+03  0.92908221157E+02 0.  0.
         23    2    4    4    0    0 -0.52835153374E+02  0.34353950601E+03  0.44495528685E+03  0.57252266407E+03  0.94794767528E+02 0.  0.
          2    1    3    3  502    0 -0.31935726632E+02 -0.50855690396E+03 -0.56064928083E+02  0.51263368145E+03  0.00000000000E+00 0. -1.
         -1    1    3    3    0  502 -0.50916069557E+02 -0.63757048179E+03  0.19326700313E+02  0.63989224619E+03  0.00000000000E+00 0.  1.
         13    1    5    5    0    0  0.14632444157E+03  0.75782572910E+03 -0.33620272042E+03  0.84186872320E+03  0.00000000000E+00 0.  1.
        -13    1    5    5    0    0 -0.10637492011E+02  0.44762150635E+02 -0.77097572503E+01  0.46650259620E+02  0.00000000000E+00 0. -1.
          4    1    6    6  503    0 -0.78493874666E+02  0.25055365820E+03  0.34584422334E+03  0.43421958824E+03  0.00000000000E+00 0.  1.
         -4    1    6    6    0  503  0.25658721292E+02  0.92985847815E+02  0.99111063511E+02  0.13830307582E+03  0.00000000000E+00 0. -1.
<mgrwt>
<rscale>  0 0.26127764E+04</rscale>
<asrwt>0</asrwt>
<pdfrwt beam="1">  1        2 0.20599017E+00 0.26127764E+04</pdfrwt>
<pdfrwt beam="2">  1       -1 0.19609715E+00 0.26127764E+04</pdfrwt>
<totfact> 0.25302977E+00</totfact>
</mgrwt>
</event>
<event>
12    7  0.1735955E-007  0.1938517E+04  0.7818608E-02  0.8635918E-01
          2   -1    0    0  501    0  0.00000000000E+00  0.00000000000E+00  0.26432067254E+04  0.26432067254E+04  0.00000000000E+00 0. -1.
         -1   -1    0    0    0  501 -0.00000000000E+00 -0.00000000000E+00 -0.35542510794E+03  0.35542510794E+03  0.00000000000E+00 0.  1.
         24    2    1    2    0    0  0.75220925463E+03 -0.35660769693E+02  0.76111835037E+03  0.10736609156E+04  0.79725562200E+02 0.  0.
        254    2    1    2    0    0 -0.75220925463E+03  0.35660769693E+02  0.15266632671E+04  0.19249709177E+04  0.89873346978E+03 0.  0.
         23    2    4    4    0    0 -0.66729746217E+03 -0.29524157112E+03  0.13306408192E+04  0.15201821656E+04  0.88855717912E+02 0.  0.
         23    2    4    4    0    0 -0.84911792457E+02  0.33090234082E+03  0.19602244793E+03  0.40478875213E+03  0.93395728481E+02 0.  0.
          4    1    3    3  502    0  0.83969043381E+02  0.21069807522E+02  0.90839140681E+02  0.12548500514E+03  0.00000000000E+00 0. -1.
         -3    1    3    3    0  502  0.66824021125E+03 -0.56730577214E+02  0.67027920969E+03  0.94817591050E+03  0.00000000000E+00 0.  1.
         13    1    5    5    0    0 -0.40984272886E+02 -0.23587552945E+02  0.49240921665E+02  0.68269697848E+02  0.00000000000E+00 0. -1.
        -13    1    5    5    0    0 -0.62631318928E+03 -0.27165401818E+03  0.12813998975E+04  0.14519124678E+04  0.00000000000E+00 0.  1.
          3    1    6    6  503    0 -0.15930541191E+02  0.12881183731E+03  0.12379795962E+03  0.17936612383E+03  0.00000000000E+00 0. -1.
         -3    1    6    6    0  503 -0.68981251266E+02  0.20209050351E+03  0.72224488315E+02  0.22542262830E+03  0.00000000000E+00 0.  1.
<mgrwt>
<rscale>  0 0.19385170E+04</rscale>
<asrwt>0</asrwt>
<pdfrwt beam="1">  1        2 0.40664718E+00 0.19385170E+04</pdfrwt>
<pdfrwt beam="2">  1       -1 0.54680787E-01 0.19385170E+04</pdfrwt>
<totfact> 0.10319465E+01</totfact>
</mgrwt>
</event>
<event>
12    7  0.2615682E-007  0.1780608E+04  0.7818608E-02  0.8716680E-01
         -1   -1    0    0    0  501 -0.00000000000E+00  0.00000000000E+00  0.58421029619E+03  0.58421029619E+03  0.00000000000E+00 0.  1.
          2   -1    0    0  501    0  0.00000000000E+00 -0.00000000000E+00 -0.13567742794E+04  0.13567742794E+04  0.00000000000E+00 0. -1.
         24    2    1    2    0    0  0.54571519146E+03 -0.16994778067E+03 -0.67213537516E+03  0.88615181691E+03  0.82533397604E+02 0.  0.
        254    2    1    2    0    0 -0.54571519146E+03  0.16994778067E+03 -0.10042860804E+03  0.10548327587E+04  0.88085125026E+03 0.  0.
         23    2    4    4    0    0  0.15275015444E+03 -0.16433121094E+03  0.79579110530E+02  0.25491229230E+03  0.91159669603E+02 0.  0.
         23    2    4    4    0    0 -0.69846534591E+03  0.33427899161E+03 -0.18000771857E+03  0.79992046636E+03  0.88733815975E+02 0.  0.
          2    1    3    3  502    0  0.49228200400E+03 -0.14143427491E+03 -0.56145965131E+03  0.75998826678E+03  0.00000000000E+00 0. -1.
         -1    1    3    3    0  502  0.53433187458E+02 -0.28513505759E+02 -0.11067572385E+03  0.12616355013E+03  0.00000000000E+00 0.  1.
         13    1    5    5    0    0  0.10293162478E+03 -0.15221376106E+03  0.86650790447E+02  0.20315587100E+03  0.00000000000E+00 0. -1.
        -13    1    5    5    0    0  0.49818529662E+02 -0.12117449881E+02 -0.70716799166E+01  0.51756421304E+02  0.00000000000E+00 0.  1.
          1    1    6    6  503    0 -0.57612389818E+03  0.30283657524E+03 -0.17271019853E+03  0.67339256755E+03  0.00000000000E+00 0. -1.
         -1    1    6    6    0  503 -0.12234144773E+03  0.31442416369E+02 -0.72975200413E+01  0.12652789881E+03  0.00000000000E+00 0.  1.
<mgrwt>
<rscale>  0 0.17806083E+04</rscale>
<asrwt>0</asrwt>
<pdfrwt beam="1">  1        2 0.20873450E+00 0.17806083E+04</pdfrwt>
<pdfrwt beam="2">  1       -1 0.89878508E-01 0.17806083E+04</pdfrwt>
<totfact> 0.20008968E+01</totfact>
</mgrwt>
</event>
<event>
12    7  0.1735955E-007  0.1399379E+04  0.7818608E-02  0.8954268E-01
          2   -1    0    0  501    0  0.00000000000E+00  0.00000000000E+00  0.26730641908E+04  0.26730641908E+04  0.00000000000E+00 0. -1.
         -3   -1    0    0    0  501 -0.00000000000E+00 -0.00000000000E+00 -0.18314758417E+03  0.18314758417E+03  0.00000000000E+00 0.  1.
         24    2    1    2    0    0  0.11662763479E+03 -0.15005949924E+03  0.55655667239E+01  0.20641834765E+03  0.80359817108E+02 0.  0.
        254    2    1    2    0    0 -0.11662763479E+03  0.15005949924E+03  0.24843510399E+04  0.26497934274E+04  0.90182329726E+03 0.  0.
         23    2    4    4    0    0 -0.15189571703E+01 -0.35348524283E+03  0.69963671538E+03  0.78936106374E+03  0.92979736099E+02 0.  0.
         23    2    4    4    0    0 -0.11510867762E+03  0.50354474206E+03  0.17847143246E+04  0.18604323636E+04  0.95896007975E+02 0.  0.
          2    1    3    3  502    0  0.66324262071E+02 -0.81305131460E+02  0.42961536559E+02  0.11338044701E+03  0.00000000000E+00 0. -1.
         -3    1    3    3    0  502  0.50303372719E+02 -0.68754367775E+02 -0.37395969835E+02  0.93037900637E+02  0.00000000000E+00 0.  1.
         13    1    5    5    0    0  0.14005309564E+02 -0.18951575366E+03  0.46825124632E+03  0.50534305107E+03  0.00000000000E+00 0.  1.
        -13    1    5    5    0    0 -0.15524266734E+02 -0.16396948916E+03  0.23138546906E+03  0.28401801268E+03  0.00000000000E+00 0. -1.
          4    1    6    6  503    0 -0.52093048219E+02  0.17980834212E+03  0.49502960073E+03  0.52924382960E+03  0.00000000000E+00 0.  1.
         -4    1    6    6    0  503 -0.63015629400E+02  0.32373639994E+03  0.12896847238E+04  0.13311885340E+04  0.00000000000E+00 0. -1.
<mgrwt>
<rscale>  0 0.13993788E+04</rscale>
<asrwt>0</asrwt>
<pdfrwt beam="1">  1        2 0.41124062E+00 0.13993788E+04</pdfrwt>
<pdfrwt beam="2">  1       -3 0.28176553E-01 0.13993788E+04</pdfrwt>
<totfact> 0.21382083E+01</totfact>
</mgrwt>
</event>
<event>
12    7  0.1735955E-007  0.2159883E+04  0.7818608E-02  0.8535314E-01
          2   -1    0    0  501    0  0.00000000000E+00  0.00000000000E+00  0.14889080592E+04  0.14889080592E+04  0.00000000000E+00 0. -1.
         -1   -1    0    0    0  501 -0.00000000000E+00 -0.00000000000E+00 -0.78330789277E+03  0.78330789277E+03  0.00000000000E+00 0.  1.
         24    2    1    2    0    0  0.43754877701E+03  0.38253716273E+03  0.10012918368E+04  0.11606913645E+04  0.82677009992E+02 0.  0.
        254    2    1    2    0    0 -0.43754877701E+03 -0.38253716273E+03 -0.29569167031E+03  0.11115245876E+04  0.90014983848E+03 0.  0.
         23    2    4    4    0    0 -0.72808381080E+02  0.19371152273E+03  0.16752747328E+03  0.28242943674E+03  0.94211029286E+02 0.  0.
         23    2    4    4    0    0 -0.36474039593E+03 -0.57624868546E+03 -0.46321914359E+03  0.82909515082E+03  0.87912969512E+02 0.  0.
          4    1    3    3  502    0  0.31209591163E+03  0.26136466322E+03  0.77025159172E+03  0.87120770186E+03  0.00000000000E+00 0. -1.
         -3    1    3    3    0  502  0.12545286538E+03  0.12117249951E+03  0.23104024506E+03  0.28948366259E+03  0.00000000000E+00 0.  1.
         13    1    5    5    0    0 -0.44887080184E+02  0.11138549997E+03  0.15266282107E+03  0.19423572408E+03  0.00000000000E+00 0. -1.
        -13    1    5    5    0    0 -0.27921300896E+02  0.82326022762E+02  0.14864652207E+02  0.88193712660E+02  0.00000000000E+00 0.  1.
          3    1    6    6  503    0 -0.23490898094E+03 -0.43232566374E+03 -0.35857516578E+03  0.60882169670E+03  0.00000000000E+00 0. -1.
         -3    1    6    6    0  503 -0.12983141499E+03 -0.14392302172E+03 -0.10464397780E+03  0.22027345412E+03  0.00000000000E+00 0.  1.
<mgrwt>
<rscale>  0 0.21598828E+04</rscale>
<asrwt>0</asrwt>
<pdfrwt beam="1">  1        2 0.22906278E+00 0.21598828E+04</pdfrwt>
<pdfrwt beam="2">  1       -1 0.12050891E+00 0.21598828E+04</pdfrwt>
<totfact> 0.82440611E+00</totfact>
</mgrwt>
</event>
<event>
12    7  0.1735955E-007  0.2046481E+04  0.7818608E-02  0.8585192E-01
          2   -1    0    0  501    0  0.00000000000E+00  0.00000000000E+00  0.28952829372E+04  0.28952829372E+04  0.00000000000E+00 0. -1.
         -1   -1    0    0    0  501 -0.00000000000E+00 -0.00000000000E+00 -0.36163004687E+03  0.36163004687E+03  0.00000000000E+00 0.  1.
         24    2    1    2    0    0  0.24951070258E+03  0.71420186065E+01  0.22621891567E+04  0.22773675681E+04  0.81219828089E+02 0.  0.
        254    2    1    2    0    0 -0.24951070258E+03 -0.71420186065E+01  0.27146373368E+03  0.97954541601E+03  0.90747455292E+03 0.  0.
         23    2    4    4    0    0 -0.15136819132E+03  0.12051397810E+03 -0.30559981660E+03  0.37299334785E+03  0.91086998948E+02 0.  0.
         23    2    4    4    0    0 -0.98142511263E+02 -0.12765599671E+03  0.57706355028E+03  0.60655206816E+03  0.94736816040E+02 0.  0.
          2    1    3    3  502    0  0.54351175090E+02 -0.19161157782E+02  0.78461668862E+03  0.78673028940E+03  0.00000000000E+00 0. -1.
         -1    1    3    3    0  502  0.19515952749E+03  0.26303176388E+02  0.14775724681E+04  0.14906372787E+04  0.00000000000E+00 0.  1.
         13    1    5    5    0    0 -0.10037325481E+03  0.52591177661E+02 -0.24090553394E+03  0.26622565340E+03  0.00000000000E+00 0.  1.
        -13    1    5    5    0    0 -0.50994936508E+02  0.67922800439E+02 -0.64694282662E+02  0.10676769445E+03  0.00000000000E+00 0. -1.
          3    1    6    6  503    0 -0.44413217215E+02 -0.11471802615E+03  0.30389007218E+03  0.32784437674E+03  0.00000000000E+00 0. -1.
         -3    1    6    6    0  503 -0.53729294049E+02 -0.12937970554E+02  0.27317347810E+03  0.27870769142E+03  0.00000000000E+00 0.  1.
<mgrwt>
<rscale>  0 0.20464812E+04</rscale>
<asrwt>0</asrwt>
<pdfrwt beam="1">  1        2 0.44542813E+00 0.20464812E+04</pdfrwt>
<pdfrwt beam="2">  1       -1 0.55635394E-01 0.20464812E+04</pdfrwt>
<totfact> 0.69728073E+00</totfact>
</mgrwt>
</event>
<event>
12    7  0.1735955E-007  0.1868933E+04  0.7818608E-02  0.8670477E-01
         -1   -1    0    0    0  501 -0.00000000000E+00  0.00000000000E+00  0.10420854062E+04  0.10420854062E+04  0.00000000000E+00 0.  1.
          2   -1    0    0  501    0  0.00000000000E+00 -0.00000000000E+00 -0.83796208091E+03  0.83796208091E+03  0.00000000000E+00 0. -1.
         24    2    1    2    0    0  0.99228382017E+02 -0.50604969618E+03  0.57683512230E+03  0.77790780972E+03  0.80431556635E+02 0.  0.
        254    2    1    2    0    0 -0.99228382017E+02  0.50604969618E+03 -0.37271179698E+03  0.11021396774E+04  0.89992511808E+03 0.  0.
         23    2    4    4    0    0 -0.45383172253E+03  0.17000399725E+03 -0.34822252705E+03  0.60424773795E+03  0.94825149703E+02 0.  0.
         23    2    4    4    0    0  0.35460334051E+03  0.33604569892E+03 -0.24489269931E+02  0.49789193948E+03  0.92878513082E+02 0.  0.
          4    1    3    3  502    0  0.27540211584E+02 -0.37419894938E+02  0.68930163037E+02  0.83126885948E+02  0.00000000000E+00 0. -1.
         -3    1    3    3    0  502  0.71688170433E+02 -0.46862980124E+03  0.50790495926E+03  0.69478092377E+03  0.00000000000E+00 0.  1.
         13    1    5    5    0    0 -0.39519650764E+03  0.17979977180E+03 -0.30065210896E+03  0.52810976909E+03  0.00000000000E+00 0. -1.
        -13    1    5    5    0    0 -0.58635214888E+02 -0.97957745484E+01 -0.47570418096E+02  0.76137968858E+02  0.00000000000E+00 0.  1.
          4    1    6    6  503    0  0.24138175125E+03  0.28379748221E+03 -0.16112221192E+02  0.37291522417E+03  0.00000000000E+00 0. -1.
         -4    1    6    6    0  503  0.11322158926E+03  0.52248216710E+02 -0.83770487393E+01  0.12497671531E+03  0.00000000000E+00 0.  1.
<mgrwt>
<rscale>  0 0.18689334E+04</rscale>
<asrwt>0</asrwt>
<pdfrwt beam="1">  1        2 0.12891724E+00 0.18689334E+04</pdfrwt>
<pdfrwt beam="2">  1       -1 0.16032083E+00 0.18689334E+04</pdfrwt>
<totfact> 0.10077802E+01</totfact>
</mgrwt>
</event>
<event>
12    7  0.1735955E-007  0.1674949E+04  0.7818608E-02  0.8775782E-01
          2   -1    0    0  501    0  0.00000000000E+00  0.00000000000E+00  0.35188754935E+04  0.35188754935E+04  0.00000000000E+00 0. -1.
         -1   -1    0    0    0  501 -0.00000000000E+00 -0.00000000000E+00 -0.19931472460E+03  0.19931472460E+03  0.00000000000E+00 0.  1.
         24    2    1    2    0    0  0.26925667633E+03  0.44539032335E+03  0.55366615649E+03  0.76400782802E+03  0.79309838880E+02 0.  0.
        254    2    1    2    0    0 -0.26925667633E+03 -0.44539032335E+03  0.27658946124E+04  0.29541823901E+04  0.89785794480E+03 0.  0.
         23    2    4    4    0    0  0.49690807452E+02 -0.64277189427E+03  0.17799532074E+04  0.18952388091E+04  0.89843410870E+02 0.  0.
         23    2    4    4    0    0 -0.31894748379E+03  0.19738157091E+03  0.98594140497E+03  0.10589435810E+04  0.92704216195E+02 0.  0.
          4    1    3    3  502    0 -0.25168471386E+00  0.17312915116E+02  0.56455731629E+01  0.18211888187E+02  0.00000000000E+00 0. -1.
         -3    1    3    3    0  502  0.26950836105E+03  0.42807740824E+03  0.54802058333E+03  0.74579593983E+03  0.00000000000E+00 0.  1.
         13    1    5    5    0    0  0.63177770429E+02 -0.61109557195E+03  0.17151397295E+04  0.18218489291E+04  0.00000000000E+00 0. -1.
        -13    1    5    5    0    0 -0.13486962976E+02 -0.31676322314E+02  0.64813477912E+02  0.73389879989E+02  0.00000000000E+00 0.  1.
          2    1    6    6  503    0  0.31920150841E+01 -0.46588836688E+01  0.92164173547E+01  0.10809093680E+02  0.00000000000E+00 0.  1.
         -2    1    6    6    0  503 -0.32213949887E+03  0.20204045458E+03  0.97672498761E+03  0.10481344873E+04  0.00000000000E+00 0. -1.
<mgrwt>
<rscale>  0 0.16749492E+04</rscale>
<asrwt>0</asrwt>
<pdfrwt beam="1">  1        2 0.54136542E+00 0.16749492E+04</pdfrwt>
<pdfrwt beam="2">  1       -1 0.30663806E-01 0.16749492E+04</pdfrwt>
<totfact> 0.84941122E+00</totfact>
</mgrwt>
</event>
<event>
12    7  0.1735955E-007  0.1263038E+04  0.7818608E-02  0.9059401E-01
         -1   -1    0    0    0  501 -0.00000000000E+00  0.00000000000E+00  0.16467616133E+03  0.16467616133E+03  0.00000000000E+00 0.  1.
          2   -1    0    0  501    0  0.00000000000E+00 -0.00000000000E+00 -0.24218196792E+04  0.24218196792E+04  0.00000000000E+00 0. -1.
         24    2    1    2    0    0 -0.31356620723E+02 -0.22604667671E+03 -0.16198530660E+03  0.29245473656E+03  0.84912871035E+02 0.  0.
        254    2    1    2    0    0  0.31356620723E+02  0.22604667671E+03 -0.20951582112E+04  0.22940411039E+04  0.90601121334E+03 0.  0.
         23    2    4    4    0    0  0.18060053800E+02  0.31688357608E+03 -0.21321810097E+04  0.21575555527E+04  0.90048534398E+02 0.  0.
         23    2    4    4    0    0  0.13296566924E+02 -0.90836899367E+02  0.37022798469E+02  0.13648555122E+03  0.93965297354E+02 0.  0.
          4    1    3    3  502    0 -0.12932738933E+02  0.19355245792E+01 -0.17758619562E+02  0.22053810565E+02  0.00000000000E+00 0. -1.
         -3    1    3    3    0  502 -0.18423881790E+02 -0.22798220129E+03 -0.14422668704E+03  0.27040092600E+03  0.00000000000E+00 0.  1.
         13    1    5    5    0    0 -0.21727676343E+02  0.64289466636E+02 -0.29757500327E+03  0.30521485876E+03  0.00000000000E+00 0. -1.
        -13    1    5    5    0    0  0.39787730142E+02  0.25259410944E+03 -0.18346060064E+04  0.18523406939E+04  0.00000000000E+00 0.  1.
          1    1    6    6  503    0 -0.19110569375E+02 -0.86773477143E+02  0.23954327481E+01  0.88885253532E+02  0.00000000000E+00 0. -1.
         -1    1    6    6    0  503  0.32407136299E+02 -0.40634222244E+01  0.34627365721E+02  0.47600297688E+02  0.00000000000E+00 0.  1.
<mgrwt>
<rscale>  0 0.12630376E+04</rscale>
<asrwt>0</asrwt>
<pdfrwt beam="1">  1        2 0.37258763E+00 0.12630376E+04</pdfrwt>
<pdfrwt beam="2">  1       -1 0.25334795E-01 0.12630376E+04</pdfrwt>
<totfact> 0.59445388E+01</totfact>
</mgrwt>
</event>
<event>
12    7  0.1735955E-007  0.2377410E+04  0.7818608E-02  0.8448010E-01
          2   -1    0    0  501    0  0.00000000000E+00  0.00000000000E+00  0.18988469626E+04  0.18988469626E+04  0.00000000000E+00 0. -1.
         -1   -1    0    0    0  501 -0.00000000000E+00 -0.00000000000E+00 -0.74414624856E+03  0.74414624856E+03  0.00000000000E+00 0.  1.
         24    2    1    2    0    0  0.19843730868E+03 -0.74593533153E+03  0.12229141126E+04  0.14483157967E+04  0.79390401469E+02 0.  0.
        254    2    1    2    0    0 -0.19843730868E+03  0.74593533153E+03 -0.68213398541E+02  0.11946774145E+04  0.90928772820E+03 0.  0.
         23    2    4    4    0    0  0.24004290351E+02 -0.87103597752E+02 -0.27475840073E+03  0.30332895714E+03  0.91394938436E+02 0.  0.
         23    2    4    4    0    0 -0.22244159903E+03  0.83303892929E+03  0.20654500219E+03  0.89134845735E+03  0.91690303805E+02 0.  0.
          4    1    3    3  502    0  0.16686486025E+03 -0.60860497860E+03  0.93899367964E+03  0.11313500926E+04  0.00000000000E+00 0. -1.
         -3    1    3    3    0  502  0.31572448431E+02 -0.13733035294E+03  0.28392043292E+03  0.31696570409E+03  0.00000000000E+00 0.  1.
         13    1    5    5    0    0 -0.29495427664E+02 -0.61746631300E+02 -0.16485782349E+03  0.17849573860E+03  0.00000000000E+00 0. -1.
        -13    1    5    5    0    0  0.53499718014E+02 -0.25356966453E+02 -0.10990057723E+03  0.12483321854E+03  0.00000000000E+00 0.  1.
          3    1    6    6  503    0  0.46633280591E+01  0.70203641370E+02  0.27454267301E+02  0.75525059968E+02  0.00000000000E+00 0. -1.
         -3    1    6    6    0  503 -0.22710492709E+03  0.76283528792E+03  0.17909073488E+03  0.81582339738E+03  0.00000000000E+00 0.  1.
<mgrwt>
<rscale>  0 0.23774102E+04</rscale>
<asrwt>0</asrwt>
<pdfrwt beam="1">  1        2 0.29213030E+00 0.23774102E+04</pdfrwt>
<pdfrwt beam="2">  1       -1 0.11448404E+00 0.23774102E+04</pdfrwt>
<totfact> 0.54102974E+00</totfact>
</mgrwt>
</event>
<event>
12    7  0.1735955E-007  0.1198700E+04  0.7818608E-02  0.9113995E-01
          2   -1    0    0  501    0  0.00000000000E+00  0.00000000000E+00  0.16548430273E+04  0.16548430273E+04  0.00000000000E+00 0. -1.
         -1   -1    0    0    0  501 -0.00000000000E+00 -0.00000000000E+00 -0.21707223277E+03  0.21707223277E+03  0.00000000000E+00 0.  1.
         24    2    1    2    0    0 -0.12367351117E+03 -0.28148312443E+02  0.69981694771E+03  0.71584373853E+03  0.81246740444E+02 0.  0.
        254    2    1    2    0    0  0.12367351117E+03  0.28148312443E+02  0.73795384682E+03  0.11560715215E+04  0.88081667674E+03 0.  0.
         23    2    4    4    0    0 -0.11624958650E+03  0.25733508478E+03 -0.44898979953E+02  0.30108526026E+03  0.94345658758E+02 0.  0.
         23    2    4    4    0    0  0.23992309767E+03 -0.22918677233E+03  0.78285282678E+03  0.85498626128E+03  0.89740120264E+02 0.  0.
          4    1    3    3  502    0 -0.11429919294E+03 -0.41749451585E+02  0.67596386871E+03  0.68682929030E+03  0.00000000000E+00 0. -1.
         -3    1    3    3    0  502 -0.93743182374E+01  0.13601139142E+02  0.23853079003E+02  0.29014448234E+02  0.00000000000E+00 0.  1.
         13    1    5    5    0    0 -0.11869307307E+03  0.17054575660E+03 -0.11639078029E+02  0.20810903111E+03  0.00000000000E+00 0. -1.
        -13    1    5    5    0    0  0.24434865752E+01  0.86789328173E+02 -0.33259901923E+02  0.92976229152E+02  0.00000000000E+00 0.  1.
          2    1    6    6  503    0  0.22420480383E+03 -0.17094673102E+03  0.61270299248E+03  0.67445943978E+03  0.00000000000E+00 0. -1.
         -2    1    6    6    0  503  0.15718293839E+02 -0.58240041310E+02  0.17014983429E+03  0.18052682150E+03  0.00000000000E+00 0.  1.
<mgrwt>
<rscale>  0 0.11987001E+04</rscale>
<asrwt>0</asrwt>
<pdfrwt beam="1">  1        2 0.25459123E+00 0.11987001E+04</pdfrwt>
<pdfrwt beam="2">  1       -1 0.33395729E-01 0.11987001E+04</pdfrwt>
<totfact> 0.98579388E+01</totfact>
</mgrwt>
</event>
<event>
12    7  0.1735955E-007  0.2140611E+04  0.7818608E-02  0.8543562E-01
          2   -1    0    0  501    0  0.00000000000E+00  0.00000000000E+00  0.11580910203E+04  0.11580910203E+04  0.00000000000E+00 0. -1.
         -1   -1    0    0    0  501 -0.00000000000E+00 -0.00000000000E+00 -0.98917452056E+03  0.98917452056E+03  0.00000000000E+00 0.  1.
         24    2    1    2    0    0 -0.72975530989E+03 -0.28591947901E+03  0.46830553610E+03  0.91644372158E+03  0.79159704965E+02 0.  0.
        254    2    1    2    0    0  0.72975530989E+03  0.28591947901E+03 -0.29938903636E+03  0.12308218193E+04  0.90055304949E+03 0.  0.
         23    2    4    4    0    0  0.61424316792E+03 -0.51610335500E+02 -0.51015467825E+03  0.80561072605E+03  0.93768598771E+02 0.  0.
         23    2    4    4    0    0  0.11551214197E+03  0.33752981451E+03  0.21076564190E+03  0.42521109323E+03  0.95461444469E+02 0.  0.
          4    1    3    3  502    0 -0.41222070917E+02 -0.17370994948E+02  0.71040021467E+01  0.45293238377E+02  0.00000000000E+00 0. -1.
         -3    1    3    3    0  502 -0.68853323897E+03 -0.26854848406E+03  0.46120153396E+03  0.87115048320E+03  0.00000000000E+00 0.  1.
         13    1    5    5    0    0  0.32590505735E+03 -0.24359321892E+02 -0.20977521503E+03  0.38834665417E+03  0.00000000000E+00 0. -1.
        -13    1    5    5    0    0  0.28833811058E+03 -0.27251013608E+02 -0.30037946322E+03  0.41726407188E+03  0.00000000000E+00 0.  1.
          3    1    6    6  503    0  0.60032513240E+02  0.28758883208E+03  0.17947981790E+03  0.34427350177E+03  0.00000000000E+00 0. -1.
         -3    1    6    6    0  503  0.55479628727E+02  0.49940982427E+02  0.31285823994E+02  0.80937591466E+02  0.00000000000E+00 0.  1.
<mgrwt>
<rscale>  0 0.21406112E+04</rscale>
<asrwt>0</asrwt>
<pdfrwt beam="1">  1        2 0.17816785E+00 0.21406112E+04</pdfrwt>
<pdfrwt beam="2">  1       -1 0.15218070E+00 0.21406112E+04</pdfrwt>
<totfact> 0.70538561E+00</totfact>
</mgrwt>
</event>
<event>
12    7  0.1735955E-007  0.1525825E+04  0.7818608E-02  0.8867459E-01
         -1   -1    0    0    0  501 -0.00000000000E+00  0.00000000000E+00  0.38574589049E+03  0.38574589049E+03  0.00000000000E+00 0.  1.
          2   -1    0    0  501    0  0.00000000000E+00 -0.00000000000E+00 -0.15088575997E+04  0.15088575997E+04  0.00000000000E+00 0. -1.
         24    2    1    2    0    0  0.21847631705E+02 -0.48728307294E+03 -0.34872281203E+03  0.60483242802E+03  0.79325621168E+02 0.  0.
        254    2    1    2    0    0 -0.21847631705E+02  0.48728307294E+03 -0.77438889722E+03  0.12897710622E+04  0.90879542064E+03 0.  0.
         23    2    4    4    0    0  0.25545965359E+03  0.32279242702E+03 -0.84790206008E+03  0.94699152432E+03  0.91654012933E+02 0.  0.
         23    2    4    4    0    0 -0.27730728530E+03  0.16449064591E+03  0.73513162857E+02  0.34277953788E+03  0.90206005380E+02 0.  0.
          2    1    3    3  502    0  0.14197466311E+02 -0.27106435513E+03 -0.24172095862E+03  0.36346454367E+03  0.00000000000E+00 0. -1.
         -1    1    3    3    0  502  0.76501653935E+01 -0.21621871781E+03 -0.10700185341E+03  0.24136788435E+03  0.00000000000E+00 0.  1.
         13    1    5    5    0    0  0.62214074958E+02  0.14976875471E+03 -0.33919700962E+03  0.37597324685E+03  0.00000000000E+00 0.  1.
        -13    1    5    5    0    0  0.19324557864E+03  0.17302367232E+03 -0.50870505046E+03  0.57101827747E+03  0.00000000000E+00 0. -1.
          2    1    6    6  503    0 -0.99261984342E+02  0.11090963249E+03  0.34931038738E+02  0.15288579261E+03  0.00000000000E+00 0. -1.
         -2    1    6    6    0  503 -0.17804530096E+03  0.53581013417E+02  0.38582124119E+02  0.18989374527E+03  0.00000000000E+00 0.  1.
<mgrwt>
<rscale>  0 0.15258252E+04</rscale>
<asrwt>0</asrwt>
<pdfrwt beam="1">  1        2 0.23213194E+00 0.15258252E+04</pdfrwt>
<pdfrwt beam="2">  1       -1 0.59345520E-01 0.15258252E+04</pdfrwt>
<totfact> 0.39686384E+01</totfact>
</mgrwt>
</event>
<event>
12    7  0.1735955E-007  0.2403488E+04  0.7818608E-02  0.8438199E-01
         -1   -1    0    0    0  501 -0.00000000000E+00  0.00000000000E+00  0.59388297297E+03  0.59388297297E+03  0.00000000000E+00 0.  1.
          2   -1    0    0  501    0  0.00000000000E+00 -0.00000000000E+00 -0.24317723321E+04  0.24317723321E+04  0.00000000000E+00 0. -1.
         24    2    1    2    0    0  0.50349696325E+03  0.63923275955E+03  0.82257170963E+00  0.81762439776E+03  0.79882828575E+02 0.  0.
        254    2    1    2    0    0 -0.50349696325E+03 -0.63923275955E+03 -0.18387119308E+04  0.22080309073E+04  0.91236572168E+03 0.  0.
         23    2    4    4    0    0 -0.64352009775E+03 -0.12163570359E+03 -0.82132170013E+03  0.10542147218E+04  0.88803063228E+02 0.  0.
         23    2    4    4    0    0  0.14002313450E+03 -0.51759705596E+03 -0.10173902307E+04  0.11538161854E+04  0.93250832532E+02 0.  0.
          4    1    3    3  502    0  0.11981961983E+03  0.13599506849E+03  0.31945382099E+02  0.18404322152E+03  0.00000000000E+00 0. -1.
         -3    1    3    3    0  502  0.38367734342E+03  0.50323769106E+03 -0.31122810389E+02  0.63358117624E+03  0.00000000000E+00 0.  1.
         13    1    5    5    0    0 -0.15960298765E+03 -0.69833839725E+02 -0.21952973386E+03  0.28025556709E+03  0.00000000000E+00 0.  1.
        -13    1    5    5    0    0 -0.48391711010E+03 -0.51801863870E+02 -0.60179196627E+03  0.77395915475E+03  0.00000000000E+00 0. -1.
          1    1    6    6  503    0  0.66074424634E+02 -0.38133268350E+03 -0.67777326621E+03  0.78048513470E+03  0.00000000000E+00 0. -1.
         -1    1    6    6    0  503  0.73948709865E+02 -0.13626437246E+03 -0.33961696447E+03  0.37333105074E+03  0.00000000000E+00 0.  1.
<mgrwt>
<rscale>  0 0.24034876E+04</rscale>
<asrwt>0</asrwt>
<pdfrwt beam="1">  1        2 0.37411881E+00 0.24034876E+04</pdfrwt>
<pdfrwt beam="2">  1       -1 0.91366613E-01 0.24034876E+04</pdfrwt>
<totfact> 0.45536391E+00</totfact>
</mgrwt>
</event>
<event>
12    7  0.1735955E-007  0.1607310E+04  0.7818608E-02  0.8816070E-01
          2   -1    0    0  501    0  0.00000000000E+00  0.00000000000E+00  0.32436782169E+04  0.32436782169E+04  0.00000000000E+00 0. -1.
         -1   -1    0    0    0  501 -0.00000000000E+00 -0.00000000000E+00 -0.19911383375E+03  0.19911383375E+03  0.00000000000E+00 0.  1.
         24    2    1    2    0    0  0.20725909066E+03 -0.16783466878E+03  0.22904508813E+02  0.27909983226E+03  0.79039819958E+02 0.  0.
        254    2    1    2    0    0 -0.20725909066E+03  0.16783466878E+03  0.30216598743E+04  0.31636922184E+04  0.89855175134E+03 0.  0.
         23    2    4    4    0    0  0.21951811077E+01 -0.29970422636E+03  0.50619824548E+03  0.59499992033E+03  0.89223311672E+02 0.  0.
         23    2    4    4    0    0 -0.20945427177E+03  0.46753889514E+03  0.25154616289E+04  0.25686922981E+04  0.90383656992E+02 0.  0.
          4    1    3    3  502    0  0.38341249125E+02 -0.44442081210E+01  0.21298613924E+02  0.44084388681E+02  0.00000000000E+00 0. -1.
         -3    1    3    3    0  502  0.16891784154E+03 -0.16339046066E+03  0.16058948891E+01  0.23501544358E+03  0.00000000000E+00 0.  1.
         13    1    5    5    0    0  0.37521574680E+02 -0.10805390738E+03  0.14608857018E+03  0.18554079283E+03  0.00000000000E+00 0.  1.
        -13    1    5    5    0    0 -0.35326393572E+02 -0.19165031898E+03  0.36010967530E+03  0.40945912750E+03  0.00000000000E+00 0. -1.
          2    1    6    6  503    0 -0.19093482819E+01  0.84565278294E+02  0.39722988748E+03  0.40613607991E+03  0.00000000000E+00 0. -1.
         -2    1    6    6    0  503 -0.20754492349E+03  0.38297361685E+03  0.21182317414E+04  0.21625562182E+04  0.00000000000E+00 0.  1.
<mgrwt>
<rscale>  0 0.16073098E+04</rscale>
<asrwt>0</asrwt>
<pdfrwt beam="1">  1        2 0.49902738E+00 0.16073098E+04</pdfrwt>
<pdfrwt beam="2">  1       -1 0.30632900E-01 0.16073098E+04</pdfrwt>
<totfact> 0.13140434E+01</totfact>
</mgrwt>
</event>
<event>
12    7  0.1735955E-007  0.1730552E+04  0.7818608E-02  0.8744129E-01
         -1   -1    0    0    0  501 -0.00000000000E+00  0.00000000000E+00  0.74759298693E+03  0.74759298693E+03  0.00000000000E+00 0.  1.
          2   -1    0    0  501    0  0.00000000000E+00 -0.00000000000E+00 -0.10014845929E+04  0.10014845929E+04  0.00000000000E+00 0. -1.
         24    2    1    2    0    0 -0.15787531418E+03 -0.60250723641E+03 -0.17373819594E+03  0.65160393547E+03  0.80393676569E+02 0.  0.
        254    2    1    2    0    0  0.15787531418E+03  0.60250723641E+03 -0.80153410032E+02  0.10974736444E+04  0.90004680223E+03 0.  0.
         23    2    4    4    0    0  0.24318221368E+03 -0.12226462173E+03 -0.19970056560E+03  0.35220504840E+03  0.10040843309E+03 0.  0.
         23    2    4    4    0    0 -0.85306899497E+02  0.72477185814E+03  0.11954715557E+03  0.74526859598E+03  0.92532395898E+02 0.  0.
          4    1    3    3  502    0 -0.57700527704E+02 -0.28466226889E+03 -0.42988892719E+02  0.29361540001E+03  0.00000000000E+00 0. -1.
         -3    1    3    3    0  502 -0.10017478648E+03 -0.31784496752E+03 -0.13074930323E+03  0.35798853546E+03  0.00000000000E+00 0.  1.
         13    1    5    5    0    0  0.18392655230E+03 -0.50823082241E+02 -0.16766381035E+03  0.25401400676E+03  0.00000000000E+00 0.  1.
        -13    1    5    5    0    0  0.59255661384E+02 -0.71441539491E+02 -0.32036755252E+02  0.98191041637E+02  0.00000000000E+00 0. -1.
          3    1    6    6  503    0  0.20092018128E+02  0.12190045434E+03  0.23564752258E+02  0.12577244336E+03  0.00000000000E+00 0. -1.
         -3    1    6    6    0  503 -0.10539891763E+03  0.60287140380E+03  0.95982403311E+02  0.61949615262E+03  0.00000000000E+00 0.  1.
<mgrwt>
<rscale>  0 0.17305523E+04</rscale>
<asrwt>0</asrwt>
<pdfrwt beam="1">  1        2 0.15407455E+00 0.17305523E+04</pdfrwt>
<pdfrwt beam="2">  1       -1 0.11501431E+00 0.17305523E+04</pdfrwt>
<totfact> 0.18681159E+01</totfact>
</mgrwt>
</event>
<event>
12    7  0.1735955E-007  0.1248191E+04  0.7818608E-02  0.9071690E-01
         -1   -1    0    0    0  501 -0.00000000000E+00  0.00000000000E+00  0.25336702549E+03  0.25336702549E+03  0.00000000000E+00 0.  1.
          2   -1    0    0  501    0  0.00000000000E+00 -0.00000000000E+00 -0.15372776629E+04  0.15372776629E+04  0.00000000000E+00 0. -1.
         24    2    1    2    0    0  0.10269639930E+03  0.13110681596E+02  0.85372774047E+02  0.15591989774E+03  0.79398133248E+02 0.  0.
        254    2    1    2    0    0 -0.10269639930E+03 -0.13110681596E+02 -0.13692834114E+04  0.16347247906E+04  0.88694398914E+03 0.  0.
         23    2    4    4    0    0 -0.31510554354E+03 -0.11452793922E+03 -0.13141556295E+03  0.37150933244E+03  0.91328973876E+02 0.  0.
         23    2    4    4    0    0  0.21240914425E+03  0.10141725763E+03 -0.12378678485E+04  0.12632154582E+04  0.89405697805E+02 0.  0.
          4    1    3    3  502    0  0.37214979434E+02 -0.13738277230E+02 -0.62369299992E+01  0.40157119560E+02  0.00000000000E+00 0. -1.
         -3    1    3    3    0  502  0.65481419862E+02  0.26848958826E+02  0.91609704046E+02  0.11576277818E+03  0.00000000000E+00 0.  1.
         13    1    5    5    0    0 -0.33801987576E+02 -0.45222261806E+01  0.13272720520E+02  0.36594945057E+02  0.00000000000E+00 0. -1.
        -13    1    5    5    0    0 -0.28130355597E+03 -0.11000571304E+03 -0.14468828347E+03  0.33491438738E+03  0.00000000000E+00 0.  1.
          1    1    6    6  503    0 -0.82548183670E+01 -0.13268495368E+01 -0.43626728510E+02  0.44420648312E+02  0.00000000000E+00 0. -1.
         -1    1    6    6    0  503  0.22066396261E+03  0.10274410716E+03 -0.11942411200E+04  0.12187948099E+04  0.00000000000E+00 0.  1.
<mgrwt>
<rscale>  0 0.12481914E+04</rscale>
<asrwt>0</asrwt>
<pdfrwt beam="1">  1        2 0.23650425E+00 0.12481914E+04</pdfrwt>
<pdfrwt beam="2">  1       -1 0.38979543E-01 0.12481914E+04</pdfrwt>
<totfact> 0.86520630E+01</totfact>
</mgrwt>
</event>
<event>
12    7  0.1735955E-007  0.1087357E+04  0.7818608E-02  0.9217603E-01
         -1   -1    0    0    0  501 -0.00000000000E+00  0.00000000000E+00  0.18066956761E+03  0.18066956761E+03  0.00000000000E+00 0.  1.
          2   -1    0    0  501    0  0.00000000000E+00 -0.00000000000E+00 -0.16360613224E+04  0.16360613224E+04  0.00000000000E+00 0. -1.
         24    2    1    2    0    0 -0.88588401064E+02  0.15043061049E+02 -0.37039794032E+02  0.11289241788E+03  0.57433032164E+02 0.  0.
        254    2    1    2    0    0  0.88588401064E+02 -0.15043061049E+02 -0.14183519607E+04  0.17038384721E+04  0.93982394947E+03 0.  0.
         23    2    4    4    0    0  0.13037887681E+03 -0.27572973009E+03 -0.70749100905E+02  0.32750904000E+03  0.96079136277E+02 0.  0.
         23    2    4    4    0    0 -0.41790475742E+02  0.26068666904E+03 -0.13476028598E+04  0.13763294321E+04  0.92440546166E+02 0.  0.
          4    1    3    3  502    0  0.76526913085E+01 -0.27908510208E+01  0.25178996372E+00  0.81495970373E+01  0.00000000000E+00 0. -1.
         -1    1    3    3    0  502 -0.96241092372E+02  0.17833912070E+02 -0.37291583996E+02  0.10474282084E+03  0.00000000000E+00 0.  1.
         13    1    5    5    0    0  0.44660670145E+02 -0.92455327593E+02 -0.71602867580E+02  0.12517800807E+03  0.00000000000E+00 0.  1.
        -13    1    5    5    0    0  0.85718206661E+02 -0.18327440250E+03  0.85376667490E+00  0.20233103193E+03  0.00000000000E+00 0. -1.
          1    1    6    6  503    0 -0.25594652430E+02  0.19926371632E+03 -0.11821876115E+04  0.11991366326E+04  0.00000000000E+00 0. -1.
         -1    1    6    6    0  503 -0.16195823312E+02  0.61422952720E+02 -0.16541524832E+03  0.17719279949E+03  0.00000000000E+00 0.  1.
<mgrwt>
<rscale>  0 0.10873573E+04</rscale>
<asrwt>0</asrwt>
<pdfrwt beam="1">  1        2 0.25170174E+00 0.10873573E+04</pdfrwt>
<pdfrwt beam="2">  1       -1 0.27795318E-01 0.10873573E+04</pdfrwt>
<totfact> 0.14049619E+02</totfact>
</mgrwt>
</event>
<event>
12    7  0.1735955E-007  0.2401597E+04  0.7818608E-02  0.8438906E-01
         -1   -1    0    0    0  501 -0.00000000000E+00  0.00000000000E+00  0.48588091088E+03  0.48588091088E+03  0.00000000000E+00 0.  1.
          2   -1    0    0  501    0  0.00000000000E+00 -0.00000000000E+00 -0.29676339792E+04  0.29676339792E+04  0.00000000000E+00 0. -1.
         24    2    1    2    0    0 -0.48972241814E+03  0.56028098588E+03 -0.45062915041E+02  0.75052004706E+03  0.86642049612E+02 0.  0.
        254    2    1    2    0    0  0.48972241814E+03 -0.56028098588E+03 -0.24366901533E+04  0.27029948431E+04  0.90276208846E+03 0.  0.
         23    2    4    4    0    0 -0.42567925663E+02 -0.41997443576E+03 -0.18230032683E+04  0.18735664153E+04  0.93379020402E+02 0.  0.
         23    2    4    4    0    0  0.53229034380E+03 -0.14030655012E+03 -0.61368688508E+03  0.82942842778E+03  0.91219437539E+02 0.  0.
          4    1    3    3  502    0 -0.10097273331E+02 -0.17955325693E+01 -0.11172078466E+01  0.10316347188E+02  0.00000000000E+00 0. -1.
         -3    1    3    3    0  502 -0.47962514481E+03  0.56207651844E+03 -0.43945707194E+02  0.74020369987E+03  0.00000000000E+00 0.  1.
         13    1    5    5    0    0  0.88940648358E+01 -0.16037414129E+03 -0.53211513285E+03  0.55582864643E+03  0.00000000000E+00 0. -1.
        -13    1    5    5    0    0 -0.51461990499E+02 -0.25960029447E+03 -0.12908881354E+04  0.13177377689E+04  0.00000000000E+00 0.  1.
          1    1    6    6  503    0  0.12569894605E+03 -0.20921585620E+02 -0.20054020634E+03  0.23760116191E+03  0.00000000000E+00 0. -1.
         -1    1    6    6    0  503  0.40659139775E+03 -0.11938496450E+03 -0.41314667874E+03  0.59182726587E+03  0.00000000000E+00 0.  1.
<mgrwt>
<rscale>  0 0.24015967E+04</rscale>
<asrwt>0</asrwt>
<pdfrwt beam="1">  1        2 0.45655908E+00 0.24015967E+04</pdfrwt>
<pdfrwt beam="2">  1       -1 0.74750908E-01 0.24015967E+04</pdfrwt>
<totfact> 0.33602482E+00</totfact>
</mgrwt>
</event>
<event>
12    7  0.1735955E-007  0.1477593E+04  0.7818608E-02  0.8899492E-01
          2   -1    0    0  501    0  0.00000000000E+00  0.00000000000E+00  0.70206472133E+03  0.70206472133E+03  0.00000000000E+00 0. -1.
         -1   -1    0    0    0  501 -0.00000000000E+00 -0.00000000000E+00 -0.77744985874E+03  0.77744985874E+03  0.00000000000E+00 0.  1.
         24    2    1    2    0    0  0.43331012325E+03  0.78973058065E+02 -0.22909221782E+02  0.44804888874E+03  0.78921273749E+02 0.  0.
        254    2    1    2    0    0 -0.43331012325E+03 -0.78973058065E+02 -0.52475915628E+02  0.10314656913E+04  0.93122142579E+03 0.  0.
         23    2    4    4    0    0 -0.59792961666E+03  0.24715420594E+03 -0.19879872750E+02  0.65357058036E+03  0.90300975537E+02 0.  0.
         23    2    4    4    0    0  0.16461949341E+03 -0.32612726400E+03 -0.32596042878E+02  0.37789511096E+03  0.91014520491E+02 0.  0.
          2    1    3    3  502    0  0.27706891017E+03  0.15572503087E+02  0.25813879291E+01  0.27751819291E+03  0.00000000000E+00 0. -1.
         -1    1    3    3    0  502  0.15624121308E+03  0.63400554977E+02 -0.25490609711E+02  0.17053069583E+03  0.00000000000E+00 0.  1.
         13    1    5    5    0    0 -0.44690670441E+03  0.14439981820E+03  0.15033965311E+01  0.46965856763E+03  0.00000000000E+00 0. -1.
        -13    1    5    5    0    0 -0.15102291225E+03  0.10275438774E+03 -0.21383269281E+02  0.18391201273E+03  0.00000000000E+00 0.  1.
          4    1    6    6  503    0  0.96023933316E+02 -0.10206841061E+03  0.67061930836E+01  0.14029800156E+03  0.00000000000E+00 0. -1.
         -4    1    6    6    0  503  0.68595560096E+02 -0.22405885339E+03 -0.39302235962E+02  0.23759710940E+03  0.00000000000E+00 0.  1.
<mgrwt>
<rscale>  0 0.14775928E+04</rscale>
<asrwt>0</asrwt>
<pdfrwt beam="1">  1        2 0.10800996E+00 0.14775928E+04</pdfrwt>
<pdfrwt beam="2">  1       -1 0.11960767E+00 0.14775928E+04</pdfrwt>
<totfact> 0.28168688E+01</totfact>
</mgrwt>
</event>
<event>
12    7  0.1735955E-007  0.1412414E+04  0.7818608E-02  0.8944881E-01
         -1   -1    0    0    0  501 -0.00000000000E+00  0.00000000000E+00  0.37272936867E+03  0.37272936867E+03  0.00000000000E+00 0.  1.
          2   -1    0    0  501    0  0.00000000000E+00 -0.00000000000E+00 -0.13380439214E+04  0.13380439214E+04  0.00000000000E+00 0. -1.
         24    2    1    2    0    0 -0.17834479301E+03  0.36462788588E+03 -0.33207916360E+03  0.53035416281E+03  0.78984851457E+02 0.  0.
        254    2    1    2    0    0  0.17834479301E+03 -0.36462788588E+03 -0.63323538912E+03  0.11804191272E+04  0.90974826054E+03 0.  0.
         23    2    4    4    0    0 -0.21883364115E+03  0.10246758125E+03 -0.47512314954E+03  0.54073781364E+03  0.90926388711E+02 0.  0.
         23    2    4    4    0    0  0.39717843416E+03 -0.46709546713E+03 -0.15811223958E+03  0.63968131360E+03  0.90905548208E+02 0.  0.
          2    1    3    3  502    0 -0.15089265724E+03  0.30382250161E+03 -0.23545519325E+03  0.41293565421E+03  0.00000000000E+00 0. -1.
         -1    1    3    3    0  502 -0.27452135765E+02  0.60805384270E+02 -0.96623970354E+02  0.11741850860E+03  0.00000000000E+00 0.  1.
         13    1    5    5    0    0 -0.20712936295E+03  0.10575453644E+03 -0.47465953275E+03  0.52857191281E+03  0.00000000000E+00 0.  1.
        -13    1    5    5    0    0 -0.11704278194E+02 -0.32869551960E+01 -0.46361678837E+00  0.12165900831E+02  0.00000000000E+00 0. -1.
          1    1    6    6  503    0  0.19311365554E+03 -0.20300836382E+03 -0.11615774840E+03  0.30331155970E+03  0.00000000000E+00 0. -1.
         -1    1    6    6    0  503  0.20406477862E+03 -0.26408710331E+03 -0.41954491173E+02  0.33636975390E+03  0.00000000000E+00 0.  1.
<mgrwt>
<rscale>  0 0.14124139E+04</rscale>
<asrwt>0</asrwt>
<pdfrwt beam="1">  1        2 0.20585291E+00 0.14124139E+04</pdfrwt>
<pdfrwt beam="2">  1       -1 0.57342980E-01 0.14124139E+04</pdfrwt>
<totfact> 0.53625123E+01</totfact>
</mgrwt>
</event>
<event>
12    7  0.1735955E-007  0.1073223E+04  0.7818608E-02  0.9231690E-01
          2   -1    0    0  501    0  0.00000000000E+00  0.00000000000E+00  0.12234161237E+04  0.12234161237E+04  0.00000000000E+00 0. -1.
         -1   -1    0    0    0  501 -0.00000000000E+00 -0.00000000000E+00 -0.23536727702E+03  0.23536727702E+03  0.00000000000E+00 0.  1.
         24    2    1    2    0    0 -0.11954727000E+03  0.68985231432E+02  0.17569403797E+03  0.23751873268E+03  0.80599264757E+02 0.  0.
        254    2    1    2    0    0  0.11954727000E+03 -0.68985231432E+02  0.81235480870E+03  0.12212646680E+04  0.90139699479E+03 0.  0.
         23    2    4    4    0    0  0.43393238477E+03 -0.11513750948E+03  0.15207701436E+03  0.48271011032E+03  0.91256077424E+02 0.  0.
         23    2    4    4    0    0 -0.31438511478E+03  0.46152278046E+02  0.66027779434E+03  0.73855455770E+03  0.92347365070E+02 0.  0.
          2    1    3    3  502    0 -0.86432248014E+02  0.53827935896E+02  0.17332683693E+03  0.20102281607E+03  0.00000000000E+00 0. -1.
         -1    1    3    3    0  502 -0.33115021983E+02  0.15157295536E+02  0.23672010358E+01  0.36495916616E+02  0.00000000000E+00 0.  1.
         13    1    5    5    0    0  0.13905867267E+03 -0.35327273022E+02  0.94628505404E+02  0.17187171000E+03  0.00000000000E+00 0.  1.
        -13    1    5    5    0    0  0.29487371211E+03 -0.79810236455E+02  0.57448508960E+02  0.31083840032E+03  0.00000000000E+00 0. -1.
          4    1    6    6  503    0 -0.29534796966E+03  0.18052568671E+02  0.60871185830E+03  0.67682083660E+03  0.00000000000E+00 0. -1.
         -4    1    6    6    0  503 -0.19037145117E+02  0.28099709375E+02  0.51565936040E+02  0.61733721100E+02  0.00000000000E+00 0.  1.
<mgrwt>
<rscale>  0 0.10732234E+04</rscale>
<asrwt>0</asrwt>
<pdfrwt beam="1">  1        2 0.18821786E+00 0.10732234E+04</pdfrwt>
<pdfrwt beam="2">  1       -1 0.36210351E-01 0.10732234E+04</pdfrwt>
<totfact> 0.15158214E+02</totfact>
</mgrwt>
</event>
<event>
12    7  0.1735955E-007  0.1732075E+04  0.7818608E-02  0.8743279E-01
          2   -1    0    0  501    0  0.00000000000E+00  0.00000000000E+00  0.95698278448E+03  0.95698278448E+03  0.00000000000E+00 0. -1.
         -1   -1    0    0    0  501 -0.00000000000E+00 -0.00000000000E+00 -0.78373534606E+03  0.78373534606E+03  0.00000000000E+00 0.  1.
         24    2    1    2    0    0  0.49006267035E+02  0.38673868760E+03  0.56057154263E+03  0.68741474911E+03  0.79562278675E+02 0.  0.
        254    2    1    2    0    0 -0.49006267035E+02 -0.38673868760E+03 -0.38732410422E+03  0.10533033814E+04  0.89858757221E+03 0.  0.
         23    2    4    4    0    0  0.32411305681E+03 -0.61334870667E+02  0.96708167497E+02  0.35550109810E+03  0.90649440906E+02 0.  0.
         23    2    4    4    0    0 -0.37311932385E+03 -0.32540381693E+03 -0.48403227171E+03  0.69780228333E+03  0.86805026681E+02 0.  0.
          2    1    3    3  502    0  0.67540566116E+02  0.33407019260E+03  0.49909073771E+03  0.60436428264E+03  0.00000000000E+00 0. -1.
         -1    1    3    3    0  502 -0.18534299081E+02  0.52668494996E+02  0.61480804925E+02  0.83050466476E+02  0.00000000000E+00 0.  1.
         13    1    5    5    0    0 -0.31412643787E+01  0.59165923665E+01 -0.22399043573E+01  0.70633404745E+01  0.00000000000E+00 0.  1.
        -13    1    5    5    0    0  0.32725432119E+03 -0.67251463033E+02  0.98948071854E+02  0.34843775763E+03  0.00000000000E+00 0. -1.
          4    1    6    6  503    0 -0.14407952475E+03 -0.15794819148E+03 -0.25785888520E+03  0.33495931890E+03  0.00000000000E+00 0. -1.
         -4    1    6    6    0  503 -0.22903979910E+03 -0.16745562545E+03 -0.22617338652E+03  0.36284296443E+03  0.00000000000E+00 0.  1.
<mgrwt>
<rscale>  0 0.17320753E+04</rscale>
<asrwt>0</asrwt>
<pdfrwt beam="1">  1        2 0.14722812E+00 0.17320753E+04</pdfrwt>
<pdfrwt beam="2">  1       -1 0.12057467E+00 0.17320753E+04</pdfrwt>
<totfact> 0.17804659E+01</totfact>
</mgrwt>
</event>
<event>
12    7  0.1735955E-007  0.1573416E+04  0.7818608E-02  0.8837048E-01
          4   -1    0    0  501    0  0.00000000000E+00  0.00000000000E+00  0.44060113845E+03  0.44060113845E+03  0.00000000000E+00 0. -1.
         -3   -1    0    0    0  501 -0.00000000000E+00 -0.00000000000E+00 -0.14046935886E+04  0.14046935886E+04  0.00000000000E+00 0.  1.
         24    2    1    2    0    0  0.38954039058E+03  0.31560016493E+03 -0.15534816547E+03  0.53184030456E+03  0.85882926367E+02 0.  0.
        254    2    1    2    0    0 -0.38954039058E+03 -0.31560016493E+03 -0.80874428466E+03  0.13134544225E+04  0.90540047599E+03 0.  0.
         23    2    4    4    0    0 -0.31692773676E+03  0.27470271558E+03 -0.27773326729E+03  0.51126594256E+03  0.91391049797E+02 0.  0.
         23    2    4    4    0    0 -0.72612653819E+02 -0.59030288051E+03 -0.53101101737E+03  0.80218847991E+03  0.88337808918E+02 0.  0.
          4    1    3    3  502    0  0.31099627701E+03  0.26732759762E+03 -0.92908528409E+02  0.42049342851E+03  0.00000000000E+00 0. -1.
         -3    1    3    3    0  502  0.78544113574E+02  0.48272567307E+02 -0.62439637057E+02  0.11134687606E+03  0.00000000000E+00 0.  1.
         13    1    5    5    0    0 -0.18967804791E+03  0.10554805036E+03 -0.15307636065E+03  0.26561348796E+03  0.00000000000E+00 0.  1.
        -13    1    5    5    0    0 -0.12724968885E+03  0.16915466522E+03 -0.12465690664E+03  0.24565245460E+03  0.00000000000E+00 0. -1.
          4    1    6    6  503    0 -0.62084400338E+02 -0.58506274520E+03 -0.51252440442E+03  0.78027825403E+03  0.00000000000E+00 0. -1.
         -4    1    6    6    0  503 -0.10528253481E+02 -0.52401353150E+01 -0.18486612953E+02  0.21910225877E+02  0.00000000000E+00 0.  1.
<mgrwt>
<rscale>  0 0.15734161E+04</rscale>
<asrwt>0</asrwt>
<pdfrwt beam="1">  1        4 0.67784791E-01 0.15734161E+04</pdfrwt>
<pdfrwt beam="2">  1       -3 0.21610670E+00 0.15734161E+04</pdfrwt>
<totfact> 0.51458280E-01</totfact>
</mgrwt>
</event>
<event>
12    7  0.1735955E-007  0.1762259E+04  0.7818608E-02  0.8726631E-01
         -1   -1    0    0    0  501 -0.00000000000E+00  0.00000000000E+00  0.76264847877E+03  0.76264847877E+03  0.00000000000E+00 0.  1.
          2   -1    0    0  501    0  0.00000000000E+00 -0.00000000000E+00 -0.10180167258E+04  0.10180167258E+04  0.00000000000E+00 0. -1.
         24    2    1    2    0    0 -0.55324729100E+03  0.46096189327E+03 -0.20311940508E+03  0.75240167865E+03  0.79261347870E+02 0.  0.
        254    2    1    2    0    0  0.55324729100E+03 -0.46096189327E+03 -0.52248841996E+02  0.10282635260E+04  0.73213899314E+03 0.  0.
         23    2    4    4    0    0  0.12352156468E+03 -0.47287834675E+03 -0.23785181195E+03  0.55135651835E+03  0.92460900464E+02 0.  0.
         23    2    4    4    0    0  0.42972572632E+03  0.11916453472E+02  0.18560296995E+03  0.47690700761E+03  0.90474470026E+02 0.  0.
          4    1    3    3  502    0 -0.74462848305E+01  0.50039017292E+01 -0.13767402508E+02  0.16432515392E+02  0.00000000000E+00 0. -1.
         -3    1    3    3    0  502 -0.54580100617E+03  0.45595799155E+03 -0.18935200257E+03  0.73596916326E+03  0.00000000000E+00 0.  1.
         13    1    5    5    0    0  0.10408874316E+03 -0.22099009265E+03 -0.12929024539E+03  0.27638208165E+03  0.00000000000E+00 0.  1.
        -13    1    5    5    0    0  0.19432821512E+02 -0.25188825410E+03 -0.10856156655E+03  0.27497443670E+03  0.00000000000E+00 0. -1.
          3    1    6    6  503    0  0.37156156355E+03  0.34789882525E+02  0.13628901220E+03  0.39729463409E+03  0.00000000000E+00 0. -1.
         -3    1    6    6    0  503  0.58164162773E+02 -0.22873429052E+02  0.49313957754E+02  0.79612373517E+02  0.00000000000E+00 0.  1.
<mgrwt>
<rscale>  0 0.17622587E+04</rscale>
<asrwt>0</asrwt>
<pdfrwt beam="1">  1        2 0.15661796E+00 0.17622587E+04</pdfrwt>
<pdfrwt beam="2">  1       -1 0.11733054E+00 0.17622587E+04</pdfrwt>
<totfact> 0.17330540E+01</totfact>
</mgrwt>
</event>
<event>
12    7  0.1735955E-007  0.2142288E+04  0.7818608E-02  0.8542841E-01
         -1   -1    0    0    0  501 -0.00000000000E+00  0.00000000000E+00  0.87149660372E+03  0.87149660372E+03  0.00000000000E+00 0.  1.
          2   -1    0    0  501    0  0.00000000000E+00 -0.00000000000E+00 -0.13165277598E+04  0.13165277598E+04  0.00000000000E+00 0. -1.
         24    2    1    2    0    0 -0.50737959306E+03 -0.88952197455E+02 -0.91647098553E+03  0.10544774633E+04  0.81591104476E+02 0.  0.
        254    2    1    2    0    0  0.50737959306E+03  0.88952197455E+02  0.47143982946E+03  0.11335469003E+04  0.89293141808E+03 0.  0.
         23    2    4    4    0    0  0.30386183534E+03  0.18100095132E+02  0.72302802934E+03  0.78966873544E+03  0.90263791748E+02 0.  0.
         23    2    4    4    0    0  0.20351775772E+03  0.70852102323E+02 -0.25158819988E+03  0.34387816482E+03  0.92282565031E+02 0.  0.
          2    1    3    3  502    0 -0.42573221209E+03 -0.85334814992E+02 -0.82144714392E+03  0.92914226968E+03  0.00000000000E+00 0. -1.
         -1    1    3    3    0  502 -0.81647380974E+02 -0.36173824626E+01 -0.95023841606E+02  0.12533519358E+03  0.00000000000E+00 0.  1.
         13    1    5    5    0    0  0.26432747398E+03  0.15621738323E+02  0.52819172652E+03  0.59084647090E+03  0.00000000000E+00 0. -1.
        -13    1    5    5    0    0  0.39534361354E+02  0.24783568090E+01  0.19483630281E+03  0.19882226453E+03  0.00000000000E+00 0.  1.
          4    1    6    6  503    0  0.16137365367E+03  0.72238684632E+02 -0.14301869967E+03  0.22740763424E+03  0.00000000000E+00 0. -1.
         -4    1    6    6    0  503  0.42144104052E+02 -0.13865823087E+01 -0.10856950021E+03  0.11647053058E+03  0.00000000000E+00 0.  1.
<mgrwt>
<rscale>  0 0.21422880E+04</rscale>
<asrwt>0</asrwt>
<pdfrwt beam="1">  1        2 0.20254273E+00 0.21422880E+04</pdfrwt>
<pdfrwt beam="2">  1       -1 0.13407640E+00 0.21422880E+04</pdfrwt>
<totfact> 0.79348042E+00</totfact>
</mgrwt>
</event>
<event>
12    7  0.1735955E-007  0.1182953E+04  0.7818608E-02  0.9127910E-01
         -1   -1    0    0    0  501 -0.00000000000E+00  0.00000000000E+00  0.13903083463E+04  0.13903083463E+04  0.00000000000E+00 0.  1.
          2   -1    0    0  501    0  0.00000000000E+00 -0.00000000000E+00 -0.25163093580E+03  0.25163093580E+03  0.00000000000E+00 0. -1.
         24    2    1    2    0    0 -0.63630908970E+02 -0.30839162614E+02 -0.75346036994E+02  0.13042576334E+03  0.79585852549E+02 0.  0.
        254    2    1    2    0    0  0.63630908970E+02  0.30839162614E+02  0.12140234475E+04  0.15115135188E+04  0.89767490763E+03 0.  0.
         23    2    4    4    0    0  0.18600711405E+03  0.39467205518E+03  0.37510103354E+03  0.58405833958E+03  0.10029297607E+03 0.  0.
         23    2    4    4    0    0 -0.12237620508E+03 -0.36383289257E+03  0.83892241395E+03  0.92745517917E+03  0.95036747968E+02 0.  0.
          4    1    3    3  502    0 -0.57288483154E+02 -0.26791778665E+02 -0.92661673765E+01  0.63918945266E+02  0.00000000000E+00 0. -1.
         -3    1    3    3    0  502 -0.63424258162E+01 -0.40473839482E+01 -0.66079869618E+02  0.66506818077E+02  0.00000000000E+00 0.  1.
         13    1    5    5    0    0  0.15706575761E+02  0.10713167715E+03  0.55618434811E+02  0.12172634498E+03  0.00000000000E+00 0. -1.
        -13    1    5    5    0    0  0.17030053829E+03  0.28754037804E+03  0.31948259873E+03  0.46233199460E+03  0.00000000000E+00 0.  1.
          3    1    6    6  503    0 -0.11988119408E+03 -0.35506125031E+03  0.75350182831E+03  0.84154916519E+03  0.00000000000E+00 0. -1.
         -3    1    6    6    0  503 -0.24950109996E+01 -0.87716422643E+01  0.85420585640E+02  0.85906013986E+02  0.00000000000E+00 0.  1.
<mgrwt>
<rscale>  0 0.11829532E+04</rscale>
<asrwt>0</asrwt>
<pdfrwt beam="1">  1        2 0.38712453E-01 0.11829532E+04</pdfrwt>
<pdfrwt beam="2">  1       -1 0.21389359E+00 0.11829532E+04</pdfrwt>
<totfact> 0.18322901E+01</totfact>
</mgrwt>
</event>
<event>
12    7  0.1735955E-007  0.2050096E+04  0.7818608E-02  0.8583551E-01
         -1   -1    0    0    0  501 -0.00000000000E+00  0.00000000000E+00  0.55963055001E+03  0.55963055001E+03  0.00000000000E+00 0.  1.
          2   -1    0    0  501    0  0.00000000000E+00 -0.00000000000E+00 -0.18775313217E+04  0.18775313217E+04  0.00000000000E+00 0. -1.
         24    2    1    2    0    0  0.50442608313E+03 -0.60526681550E+03 -0.82142398722E+03  0.11408897108E+04  0.78092087683E+02 0.  0.
        254    2    1    2    0    0 -0.50442608313E+03  0.60526681550E+03 -0.49647678449E+03  0.12962721609E+04  0.90168660097E+03 0.  0.
         23    2    4    4    0    0 -0.68229881212E+03  0.19168483860E+03 -0.42602704736E+03  0.83218755215E+03  0.93607320725E+02 0.  0.
         23    2    4    4    0    0  0.17787272899E+03  0.41358197690E+03 -0.70449737131E+02  0.46408460878E+03  0.87878321058E+02 0.  0.
          2    1    3    3  502    0  0.48850620883E+03 -0.57593528255E+03 -0.80464158648E+03  0.11035342534E+04  0.00000000000E+00 0. -1.
         -1    1    3    3    0  502  0.15919874301E+02 -0.29331532951E+02 -0.16782400740E+02  0.37355457401E+02  0.00000000000E+00 0.  1.
         13    1    5    5    0    0 -0.27378074494E+03  0.49679402829E+02 -0.12375328223E+03  0.30453048161E+03  0.00000000000E+00 0. -1.
        -13    1    5    5    0    0 -0.40851806718E+03  0.14200543577E+03 -0.30227376514E+03  0.52765707054E+03  0.00000000000E+00 0.  1.
          4    1    6    6  503    0 -0.61979377434E+01  0.57716217477E+02 -0.81536180034E+01  0.58617895549E+02  0.00000000000E+00 0. -1.
         -4    1    6    6    0  503  0.18407066673E+03  0.35586575942E+03 -0.62296119128E+02  0.40546671323E+03  0.00000000000E+00 0.  1.
<mgrwt>
<rscale>  0 0.20500965E+04</rscale>
<asrwt>0</asrwt>
<pdfrwt beam="1">  1        2 0.28885098E+00 0.20500965E+04</pdfrwt>
<pdfrwt beam="2">  1       -1 0.86097007E-01 0.20500965E+04</pdfrwt>
<totfact> 0.10961315E+01</totfact>
</mgrwt>
</event>
<event>
12    7  0.1735955E-007  0.1347001E+04  0.7818608E-02  0.8993101E-01
         -1   -1    0    0    0  501 -0.00000000000E+00  0.00000000000E+00  0.22905614558E+03  0.22905614558E+03  0.00000000000E+00 0.  1.
          2   -1    0    0  501    0  0.00000000000E+00 -0.00000000000E+00 -0.19803130587E+04  0.19803130587E+04  0.00000000000E+00 0. -1.
         24    2    1    2    0    0  0.12192251015E+03 -0.17849666328E+03 -0.38927526864E+01  0.23118045473E+03  0.81872411973E+02 0.  0.
        254    2    1    2    0    0 -0.12192251015E+03  0.17849666328E+03 -0.17473641605E+04  0.19781887496E+04  0.90178881254E+03 0.  0.
         23    2    4    4    0    0 -0.24678227189E+03 -0.31467607475E+03 -0.80048077357E+03  0.89949995159E+03  0.91696086659E+02 0.  0.
         23    2    4    4    0    0  0.12485976174E+03  0.49317273802E+03 -0.94688338690E+03  0.10786887980E+04  0.90399474126E+02 0.  0.
          2    1    3    3  502    0  0.23993539801E+02 -0.66593725911E+02 -0.35452260504E+02  0.79166135801E+02  0.00000000000E+00 0. -1.
         -1    1    3    3    0  502  0.97928970352E+02 -0.11190293737E+03  0.31559507817E+02  0.15201431893E+03  0.00000000000E+00 0.  1.
         13    1    5    5    0    0 -0.24744610380E+03 -0.32006278457E+03 -0.78539667003E+03  0.88346912206E+03  0.00000000000E+00 0. -1.
        -13    1    5    5    0    0  0.66383190703E+00  0.53867098192E+01 -0.15084103542E+02  0.16030829521E+02  0.00000000000E+00 0.  1.
          4    1    6    6  503    0  0.12147353135E+03  0.41749940454E+03 -0.85815039836E+03  0.96202062234E+03  0.00000000000E+00 0. -1.
         -4    1    6    6    0  503  0.33862303892E+01  0.75673333488E+02 -0.88732988549E+02  0.11666817567E+03  0.00000000000E+00 0.  1.
<mgrwt>
<rscale>  0 0.13470009E+04</rscale>
<asrwt>0</asrwt>
<pdfrwt beam="1">  1        2 0.30466355E+00 0.13470009E+04</pdfrwt>
<pdfrwt beam="2">  1       -1 0.35239407E-01 0.13470009E+04</pdfrwt>
<totfact> 0.58491880E+01</totfact>
</mgrwt>
</event>
<event>
12    7  0.1735955E-007  0.1697552E+04  0.7818608E-02  0.8762762E-01
          2   -1    0    0  501    0  0.00000000000E+00  0.00000000000E+00  0.28157716255E+04  0.28157716255E+04  0.00000000000E+00 0. -1.
         -1   -1    0    0    0  501 -0.00000000000E+00 -0.00000000000E+00 -0.25585184429E+03  0.25585184429E+03  0.00000000000E+00 0.  1.
         24    2    1    2    0    0  0.53541266755E+03  0.19801268444E+02  0.14220877490E+04  0.15215791640E+04  0.76228417753E+02 0.  0.
        254    2    1    2    0    0 -0.53541266755E+03 -0.19801268444E+02  0.11378320322E+04  0.15500443058E+04  0.90604459140E+03 0.  0.
         23    2    4    4    0    0 -0.53905543787E+03  0.16595685627E+03  0.12040463418E+04  0.13325054645E+04  0.87867950461E+02 0.  0.
         23    2    4    4    0    0  0.36427703179E+01 -0.18575812471E+03 -0.66214309534E+02  0.21753884126E+03  0.91757626367E+02 0.  0.
          2    1    3    3  502    0  0.29178532119E+03  0.24961462762E+02  0.67607934735E+03  0.73678017902E+03  0.00000000000E+00 0. -1.
         -1    1    3    3    0  502  0.24362734636E+03 -0.51601943180E+01  0.74600840165E+03  0.78479898498E+03  0.00000000000E+00 0.  1.
         13    1    5    5    0    0 -0.80366576555E+02  0.59164882663E+02  0.20246946480E+03  0.22572805352E+03  0.00000000000E+00 0. -1.
        -13    1    5    5    0    0 -0.45868886131E+03  0.10679197360E+03  0.10015768770E+04  0.11067774110E+04  0.00000000000E+00 0.  1.
          3    1    6    6  503    0 -0.13362582426E+02 -0.74293101730E+02  0.17032471368E+02  0.77382999778E+02  0.00000000000E+00 0. -1.
         -3    1    6    6    0  503  0.17005352744E+02 -0.11146502298E+03 -0.83246780902E+02  0.14015584148E+03  0.00000000000E+00 0.  1.
<mgrwt>
<rscale>  0 0.16975516E+04</rscale>
<asrwt>0</asrwt>
<pdfrwt beam="1">  1        2 0.43319561E+00 0.16975516E+04</pdfrwt>
<pdfrwt beam="2">  1       -1 0.39361824E-01 0.16975516E+04</pdfrwt>
<totfact> 0.15430568E+01</totfact>
</mgrwt>
</event>
<event>
12    7  0.1735955E-007  0.1766112E+04  0.7818608E-02  0.8724531E-01
          2   -1    0    0  501    0  0.00000000000E+00  0.00000000000E+00  0.50390910803E+03  0.50390910803E+03  0.00000000000E+00 0. -1.
         -1   -1    0    0    0  501 -0.00000000000E+00 -0.00000000000E+00 -0.15474768212E+04  0.15474768212E+04  0.00000000000E+00 0.  1.
         24    2    1    2    0    0  0.57063574730E+03  0.14131318236E+03 -0.67226086284E+02  0.59671603747E+03  0.77175845298E+02 0.  0.
        254    2    1    2    0    0 -0.57063574730E+03 -0.14131318236E+03 -0.97634162689E+03  0.14546698918E+04  0.90400605640E+03 0.  0.
         23    2    4    4    0    0 -0.45389589443E+03 -0.16366818170E+03 -0.25114516643E+02  0.49146959702E+03  0.90015938391E+02 0.  0.
         23    2    4    4    0    0 -0.11673985287E+03  0.22354999344E+02 -0.95122711025E+03  0.96320029475E+03  0.93775547406E+02 0.  0.
          4    1    3    3  502    0  0.48166840933E+03  0.90118476489E+02 -0.49067785449E+02  0.49247684607E+03  0.00000000000E+00 0. -1.
         -3    1    3    3    0  502  0.88967337974E+02  0.51194705869E+02 -0.18158300835E+02  0.10423919140E+03  0.00000000000E+00 0.  1.
         13    1    5    5    0    0 -0.24018560872E+03 -0.55629759904E+02 -0.47075573169E+02  0.25099782153E+03  0.00000000000E+00 0.  1.
        -13    1    5    5    0    0 -0.21371028571E+03 -0.10803842180E+03  0.21961056526E+02  0.24047177549E+03  0.00000000000E+00 0. -1.
          4    1    6    6  503    0 -0.11870168679E+03  0.29624250963E+02 -0.62365665891E+03  0.63554332259E+03  0.00000000000E+00 0. -1.
         -4    1    6    6    0  503  0.19618339246E+01 -0.72692516194E+01 -0.32757045134E+03  0.32765697215E+03  0.00000000000E+00 0.  1.
<mgrwt>
<rscale>  0 0.17661117E+04</rscale>
<asrwt>0</asrwt>
<pdfrwt beam="1">  1        2 0.77524480E-01 0.17661117E+04</pdfrwt>
<pdfrwt beam="2">  1       -1 0.23807335E+00 0.17661117E+04</pdfrwt>
<totfact> 0.55106241E+00</totfact>
</mgrwt>
</event>
<event>
12    7  0.1735955E-007  0.1012236E+04  0.7818608E-02  0.9295226E-01
         -1   -1    0    0    0  501 -0.00000000000E+00  0.00000000000E+00  0.33018606024E+03  0.33018606024E+03  0.00000000000E+00 0.  1.
          2   -1    0    0  501    0  0.00000000000E+00 -0.00000000000E+00 -0.77579057323E+03  0.77579057323E+03  0.00000000000E+00 0. -1.
         24    2    1    2    0    0 -0.31162008262E+02  0.61088125763E+02 -0.41618200886E+02  0.11391498411E+03  0.80880894476E+02 0.  0.
        254    2    1    2    0    0  0.31162008262E+02 -0.61088125763E+02 -0.40398631210E+03  0.99206164936E+03  0.90348134784E+03 0.  0.
         23    2    4    4    0    0  0.12408428398E+03 -0.46038978616E+03 -0.20087301862E+03  0.52471613405E+03  0.87300555506E+02 0.  0.
         23    2    4    4    0    0 -0.92922275718E+02  0.39930166040E+03 -0.20311329348E+03  0.46734551530E+03  0.95291423331E+02 0.  0.
          4    1    3    3  502    0 -0.28360567471E+02  0.36111451006E+02 -0.65003260370E+02  0.79585064803E+02  0.00000000000E+00 0. -1.
         -3    1    3    3    0  502 -0.28014407916E+01  0.24976674757E+02  0.23385059484E+02  0.34329919305E+02  0.00000000000E+00 0.  1.
         13    1    5    5    0    0  0.18055975903E+02 -0.40144569452E+02 -0.48009182407E+02  0.65134371246E+02  0.00000000000E+00 0. -1.
        -13    1    5    5    0    0  0.10602830808E+03 -0.42024521671E+03 -0.15286383621E+03  0.45958176281E+03  0.00000000000E+00 0.  1.
          1    1    6    6  503    0 -0.68048089473E+02  0.11837924410E+03 -0.89713460370E+02  0.16337898545E+03  0.00000000000E+00 0. -1.
         -1    1    6    6    0  503 -0.24874186244E+02  0.28092241630E+03 -0.11339983311E+03  0.30396652985E+03  0.00000000000E+00 0.  1.
<mgrwt>
<rscale>  0 0.10122356E+04</rscale>
<asrwt>0</asrwt>
<pdfrwt beam="1">  1        2 0.11935239E+00 0.10122356E+04</pdfrwt>
<pdfrwt beam="2">  1       -1 0.50797856E-01 0.10122356E+04</pdfrwt>
<totfact> 0.15907106E+02</totfact>
</mgrwt>
</event>
<event>
12    7  0.1735955E-007  0.1227249E+04  0.7818608E-02  0.9089334E-01
         -1   -1    0    0    0  501 -0.00000000000E+00  0.00000000000E+00  0.58116143965E+03  0.58116143965E+03  0.00000000000E+00 0.  1.
          2   -1    0    0  501    0  0.00000000000E+00 -0.00000000000E+00 -0.64790135995E+03  0.64790135995E+03  0.00000000000E+00 0. -1.
         24    2    1    2    0    0  0.91047821749E+02 -0.17175973842E+03  0.17205437159E+03  0.27156862312E+03  0.79722623464E+02 0.  0.
        254    2    1    2    0    0 -0.91047821749E+02  0.17175973842E+03 -0.23879429189E+03  0.95749417648E+03  0.90663182746E+03 0.  0.
         23    2    4    4    0    0  0.56788334425E+02  0.20374603424E+03 -0.55225542048E+03  0.59793834956E+03  0.88356431793E+02 0.  0.
         23    2    4    4    0    0 -0.14783615617E+03 -0.31986295817E+02  0.31346112859E+03  0.35955582692E+03  0.90243345146E+02 0.  0.
          2    1    3    3  502    0  0.80760048824E+02 -0.10733316284E+03  0.72774962733E+02  0.15277037845E+03  0.00000000000E+00 0. -1.
         -1    1    3    3    0  502  0.10287772925E+02 -0.64426575574E+02  0.99279408860E+02  0.11879824467E+03  0.00000000000E+00 0.  1.
         13    1    5    5    0    0  0.54627364524E+02  0.20817556536E+03 -0.55256484425E+03  0.59300010292E+03  0.00000000000E+00 0. -1.
        -13    1    5    5    0    0  0.21609699003E+01 -0.44295311209E+01  0.30942376751E+00  0.49382466452E+01  0.00000000000E+00 0.  1.
          4    1    6    6  503    0 -0.72977092253E+02 -0.24156923081E+02  0.24854528686E+03  0.26016143555E+03  0.00000000000E+00 0. -1.
         -4    1    6    6    0  503 -0.74859063920E+02 -0.78293727364E+01  0.64915841727E+02  0.99394391369E+02  0.00000000000E+00 0.  1.
<mgrwt>
<rscale>  0 0.12272494E+04</rscale>
<asrwt>0</asrwt>
<pdfrwt beam="1">  1        2 0.99677132E-01 0.12272494E+04</pdfrwt>
<pdfrwt beam="2">  1       -1 0.89409452E-01 0.12272494E+04</pdfrwt>
<totfact> 0.62299057E+01</totfact>
</mgrwt>
</event>
<event>
12    7  0.1735955E-007  0.2089784E+04  0.7818608E-02  0.8565757E-01
          2   -1    0    0  501    0  0.00000000000E+00  0.00000000000E+00  0.18571717749E+04  0.18571717749E+04  0.00000000000E+00 0. -1.
         -1   -1    0    0    0  501 -0.00000000000E+00 -0.00000000000E+00 -0.58788258252E+03  0.58788258252E+03  0.00000000000E+00 0.  1.
         24    2    1    2    0    0 -0.31811324836E+03  0.72654385520E+03  0.17073333365E+03  0.81541177722E+03  0.81758687035E+02 0.  0.
        254    2    1    2    0    0  0.31811324836E+03 -0.72654385520E+03  0.10985558587E+04  0.16296425802E+04  0.90545455553E+03 0.  0.
         23    2    4    4    0    0  0.54811202184E+03 -0.36788908478E+03  0.32481250694E+03  0.74159811551E+03  0.93249306015E+02 0.  0.
         23    2    4    4    0    0 -0.22999877348E+03 -0.35865477042E+03  0.77374335178E+03  0.88804446468E+03  0.91714320996E+02 0.  0.
          4    1    3    3  502    0 -0.28657721291E+02  0.28127211544E+02 -0.84558233002E+00  0.40163665524E+02  0.00000000000E+00 0. -1.
         -3    1    3    3    0  502 -0.28945552707E+03  0.69841664365E+03  0.17157891598E+03  0.77524811170E+03  0.00000000000E+00 0.  1.
         13    1    5    5    0    0  0.48428383685E+03 -0.32068402206E+03  0.24944441415E+03  0.63213257501E+03  0.00000000000E+00 0. -1.
        -13    1    5    5    0    0  0.63828184988E+02 -0.47205062722E+02  0.75368092785E+02  0.10946554049E+03  0.00000000000E+00 0.  1.
          2    1    6    6  503    0 -0.19969158339E+03 -0.23491355735E+03  0.55639971224E+03  0.63611457119E+03  0.00000000000E+00 0. -1.
         -2    1    6    6    0  503 -0.30307190091E+02 -0.12374121307E+03  0.21734363954E+03  0.25192989349E+03  0.00000000000E+00 0.  1.
<mgrwt>
<rscale>  0 0.20897837E+04</rscale>
<asrwt>0</asrwt>
<pdfrwt beam="1">  1        2 0.28571873E+00 0.20897837E+04</pdfrwt>
<pdfrwt beam="2">  1       -1 0.90443475E-01 0.20897837E+04</pdfrwt>
<totfact> 0.10063877E+01</totfact>
</mgrwt>
</event>
<event>
12    7  0.1735955E-007  0.1648577E+04  0.7818608E-02  0.8791249E-01
         -1   -1    0    0    0  501 -0.00000000000E+00  0.00000000000E+00  0.12842892295E+04  0.12842892295E+04  0.00000000000E+00 0.  1.
          2   -1    0    0  501    0  0.00000000000E+00 -0.00000000000E+00 -0.52904839646E+03  0.52904839646E+03  0.00000000000E+00 0. -1.
         24    2    1    2    0    0  0.30124975346E+03  0.78714229787E+02 -0.29672877234E+03  0.43738785693E+03  0.79453314123E+02 0.  0.
        254    2    1    2    0    0 -0.30124975346E+03 -0.78714229787E+02  0.10519696054E+04  0.13759497690E+04  0.83045190849E+03 0.  0.
         23    2    4    4    0    0 -0.54831881941E+03 -0.19418839581E+03  0.81014613023E+03  0.10014624286E+04  0.90706023825E+02 0.  0.
         23    2    4    4    0    0  0.24706906595E+03  0.11547416603E+03  0.24182347513E+03  0.37448734043E+03  0.85934676621E+02 0.  0.
          2    1    3    3  502    0  0.29484993136E+03  0.87500128436E+02 -0.27282192519E+03  0.41112596289E+03  0.00000000000E+00 0. -1.
         -1    1    3    3    0  502  0.63998221035E+01 -0.87858986489E+01 -0.23906847146E+02  0.26261894039E+02  0.00000000000E+00 0.  1.
         13    1    5    5    0    0 -0.29586576275E+03 -0.94470563685E+02  0.50688472577E+03  0.59446897496E+03  0.00000000000E+00 0.  1.
        -13    1    5    5    0    0 -0.25245305665E+03 -0.99717832129E+02  0.30326140446E+03  0.40699345362E+03  0.00000000000E+00 0. -1.
          1    1    6    6  503    0  0.40597012890E+02  0.37500155863E+02  0.13418643485E+02  0.56872129715E+02  0.00000000000E+00 0. -1.
         -1    1    6    6    0  503  0.20647205306E+03  0.77974010165E+02  0.22840483165E+03  0.31761521071E+03  0.00000000000E+00 0.  1.
<mgrwt>
<rscale>  0 0.16485765E+04</rscale>
<asrwt>0</asrwt>
<pdfrwt beam="1">  1        2 0.81392061E-01 0.16485765E+04</pdfrwt>
<pdfrwt beam="2">  1       -1 0.19758296E+00 0.16485765E+04</pdfrwt>
<totfact> 0.98418179E+00</totfact>
</mgrwt>
</event>
<event>
12    7  0.1735955E-007  0.2650132E+04  0.7818608E-02  0.8351369E-01
         -1   -1    0    0    0  501 -0.00000000000E+00  0.00000000000E+00  0.39341140955E+03  0.39341140955E+03  0.00000000000E+00 0.  1.
          2   -1    0    0  501    0  0.00000000000E+00 -0.00000000000E+00 -0.44630106670E+04  0.44630106670E+04  0.00000000000E+00 0. -1.
         24    2    1    2    0    0 -0.66849842110E+03  0.12424037305E+03 -0.60214379360E+02  0.68755460479E+03  0.82339260286E+02 0.  0.
        254    2    1    2    0    0  0.66849842110E+03 -0.12424037305E+03 -0.40093848781E+04  0.41688674718E+04  0.91758546588E+03 0.  0.
         23    2    4    4    0    0 -0.14965257753E+03  0.15184729698E+03 -0.13925840709E+04  0.14117839603E+04  0.91597273689E+02 0.  0.
         23    2    4    4    0    0  0.81815099862E+03 -0.27608767002E+03 -0.26168008072E+04  0.27570835114E+04  0.90926159390E+02 0.  0.
          4    1    3    3  502    0 -0.39589238777E+03  0.59820501122E+02 -0.73713093476E+02  0.40711533402E+03  0.00000000000E+00 0. -1.
         -3    1    3    3    0  502 -0.27260603333E+03  0.64419871924E+02  0.13498714117E+02  0.28043927077E+03  0.00000000000E+00 0.  1.
         13    1    5    5    0    0 -0.13109781758E+01  0.54701902176E+02 -0.33206100531E+03  0.33653904382E+03  0.00000000000E+00 0. -1.
        -13    1    5    5    0    0 -0.14834159935E+03  0.97145394801E+02 -0.10605230656E+04  0.10752449165E+04  0.00000000000E+00 0.  1.
          4    1    6    6  503    0  0.47083910697E+02 -0.29215744142E+02 -0.23480691437E+03  0.24125658828E+03  0.00000000000E+00 0. -1.
         -4    1    6    6    0  503  0.77106708793E+03 -0.24687192588E+03 -0.23819938928E+04  0.25158269232E+04  0.00000000000E+00 0.  1.
<mgrwt>
<rscale>  0 0.26501316E+04</rscale>
<asrwt>0</asrwt>
<pdfrwt beam="1">  1        2 0.68661704E+00 0.26501316E+04</pdfrwt>
<pdfrwt beam="2">  1       -1 0.60524831E-01 0.26501316E+04</pdfrwt>
<totfact> 0.37193573E-01</totfact>
</mgrwt>
</event>
<event>
12    7  0.1735955E-007  0.1395592E+04  0.7818608E-02  0.8957016E-01
         -1   -1    0    0    0  501 -0.00000000000E+00  0.00000000000E+00  0.11078691792E+03  0.11078691792E+03  0.00000000000E+00 0.  1.
          2   -1    0    0  501    0  0.00000000000E+00 -0.00000000000E+00 -0.43950948214E+04  0.43950948214E+04  0.00000000000E+00 0. -1.
         24    2    1    2    0    0 -0.38580596553E+03  0.63660969629E+02 -0.95601215466E+03  0.10360181457E+04  0.80469847110E+02 0.  0.
        254    2    1    2    0    0  0.38580596553E+03 -0.63660969629E+02 -0.33282957488E+04  0.34698635936E+04  0.89972318216E+03 0.  0.
         23    2    4    4    0    0 -0.23002405569E+03 -0.12427724706E+02 -0.36363415875E+03  0.44012394119E+03  0.91726591910E+02 0.  0.
         23    2    4    4    0    0  0.61583002122E+03 -0.51233244923E+02 -0.29646615901E+04  0.30297396524E+04  0.90733441180E+02 0.  0.
          2    1    3    3  502    0 -0.20213278646E+02 -0.13886555584E+02 -0.78358076839E+02  0.82106036717E+02  0.00000000000E+00 0. -1.
         -1    1    3    3    0  502 -0.36559268688E+03  0.77547525213E+02 -0.87765407783E+03  0.95391210900E+03  0.00000000000E+00 0.  1.
         13    1    5    5    0    0 -0.19335660215E+03  0.22718603888E+02 -0.26103742960E+03  0.32564313321E+03  0.00000000000E+00 0. -1.
        -13    1    5    5    0    0 -0.36667453537E+02 -0.35146328593E+02 -0.10259672916E+03  0.11448080798E+03  0.00000000000E+00 0.  1.
          2    1    6    6  503    0  0.36007257311E+03 -0.38249823976E+02 -0.15182206232E+04  0.15608040132E+04  0.00000000000E+00 0. -1.
         -2    1    6    6    0  503  0.25575744810E+03 -0.12983420947E+02 -0.14464409669E+04  0.14689356392E+04  0.00000000000E+00 0.  1.
<mgrwt>
<rscale>  0 0.13955916E+04</rscale>
<asrwt>0</asrwt>
<pdfrwt beam="1">  1        2 0.67616846E+00 0.13955916E+04</pdfrwt>
<pdfrwt beam="2">  1       -1 0.17044141E-01 0.13955916E+04</pdfrwt>
<totfact> 0.47718493E+00</totfact>
</mgrwt>
</event>
<event>
12    7  0.1735955E-007  0.1578636E+04  0.7818608E-02  0.8833781E-01
          2   -1    0    0  501    0  0.00000000000E+00  0.00000000000E+00  0.25863013576E+04  0.25863013576E+04  0.00000000000E+00 0. -1.
         -1   -1    0    0    0  501 -0.00000000000E+00 -0.00000000000E+00 -0.24089340481E+03  0.24089340481E+03  0.00000000000E+00 0.  1.
         24    2    1    2    0    0 -0.26258004258E+03  0.49393280808E+02 -0.25275761611E+02  0.27943382483E+03  0.77823026021E+02 0.  0.
        254    2    1    2    0    0  0.26258004258E+03 -0.49393280808E+02  0.23706837144E+04  0.25477609376E+04  0.89417925854E+03 0.  0.
         23    2    4    4    0    0  0.39065638121E+03  0.32472453560E+03  0.11230673187E+04  0.12358393465E+04  0.89220267048E+02 0.  0.
         23    2    4    4    0    0 -0.12807633863E+03 -0.37411781641E+03  0.12476163957E+04  0.13119215910E+04  0.90685726699E+02 0.  0.
          2    1    3    3  502    0 -0.14394383461E+03  0.22133625034E+02  0.24939196374E+02  0.14775550208E+03  0.00000000000E+00 0. -1.
         -3    1    3    3    0  502 -0.11863620797E+03  0.27259655774E+02 -0.50214957985E+02  0.13167832274E+03  0.00000000000E+00 0.  1.
         13    1    5    5    0    0  0.27821994949E+03  0.22437439100E+03  0.68615800533E+03  0.77366854396E+03  0.00000000000E+00 0.  1.
        -13    1    5    5    0    0  0.11243643172E+03  0.10035014459E+03  0.43690931332E+03  0.46217080259E+03  0.00000000000E+00 0. -1.
          3    1    6    6  503    0 -0.60158166992E+01 -0.14088215991E+03  0.38380470789E+03  0.40888877073E+03  0.00000000000E+00 0. -1.
         -3    1    6    6    0  503 -0.12206052193E+03 -0.23323565650E+03  0.86381168782E+03  0.90303282028E+03  0.00000000000E+00 0.  1.
<mgrwt>
<rscale>  0 0.15786360E+04</rscale>
<asrwt>0</asrwt>
<pdfrwt beam="1">  1        2 0.39789250E+00 0.15786360E+04</pdfrwt>
<pdfrwt beam="2">  1       -1 0.37060526E-01 0.15786360E+04</pdfrwt>
<totfact> 0.23801146E+01</totfact>
</mgrwt>
</event>
<event>
12    7  0.1735955E-007  0.1880808E+04  0.7818608E-02  0.8664469E-01
          2   -1    0    0  501    0  0.00000000000E+00  0.00000000000E+00  0.14327663025E+04  0.14327663025E+04  0.00000000000E+00 0. -1.
         -1   -1    0    0    0  501 -0.00000000000E+00 -0.00000000000E+00 -0.61723960700E+03  0.61723960700E+03  0.00000000000E+00 0.  1.
         24    2    1    2    0    0 -0.24654156697E+03 -0.66230394980E+03  0.14569714693E+03  0.72602461916E+03  0.80341912128E+02 0.  0.
        254    2    1    2    0    0  0.24654156697E+03  0.66230394980E+03  0.66982954857E+03  0.13239812903E+04  0.89712070919E+03 0.  0.
         23    2    4    4    0    0  0.36012555909E+03  0.13018582142E+03 -0.71185077799E+02  0.40018739555E+03  0.91890531841E+02 0.  0.
         23    2    4    4    0    0 -0.11358399213E+03  0.53211812838E+03  0.74101462637E+03  0.92379389479E+03  0.90782474873E+02 0.  0.
          4    1    3    3  502    0 -0.10224333879E+03 -0.30819153504E+03  0.27888733201E+02  0.32590413320E+03  0.00000000000E+00 0. -1.
         -3    1    3    3    0  502 -0.14429822818E+03 -0.35411241476E+03  0.11780841373E+03  0.40012048596E+03  0.00000000000E+00 0.  1.
         13    1    5    5    0    0  0.26603669790E+03  0.54322990251E+02 -0.33497429778E+02  0.27358470297E+03  0.00000000000E+00 0.  1.
        -13    1    5    5    0    0  0.94088861198E+02  0.75862831170E+02 -0.37687648020E+02  0.12660269258E+03  0.00000000000E+00 0. -1.
          3    1    6    6  503    0 -0.95147812464E+02  0.37905692067E+03  0.59210006077E+03  0.70945030643E+03  0.00000000000E+00 0. -1.
         -3    1    6    6    0  503 -0.18436179662E+02  0.15306120770E+03  0.14891456560E+03  0.21434358836E+03  0.00000000000E+00 0.  1.
<mgrwt>
<rscale>  0 0.18808085E+04</rscale>
<asrwt>0</asrwt>
<pdfrwt beam="1">  1        2 0.22042558E+00 0.18808085E+04</pdfrwt>
<pdfrwt beam="2">  1       -1 0.94959940E-01 0.18808085E+04</pdfrwt>
<totfact> 0.15879175E+01</totfact>
</mgrwt>
</event>
<event>
12    7  0.1735955E-007  0.1416758E+04  0.7818608E-02  0.8941777E-01
         -1   -1    0    0    0  501 -0.00000000000E+00  0.00000000000E+00  0.20380255074E+03  0.20380255074E+03  0.00000000000E+00 0.  1.
          2   -1    0    0  501    0  0.00000000000E+00 -0.00000000000E+00 -0.24621904455E+04  0.24621904455E+04  0.00000000000E+00 0. -1.
         24    2    1    2    0    0 -0.10464114826E+03 -0.31254460283E+03 -0.22763264215E+03  0.40832688520E+03  0.79248512520E+02 0.  0.
        254    2    1    2    0    0  0.10464114826E+03  0.31254460283E+03 -0.20307552526E+04  0.22576661110E+04  0.92976097694E+03 0.  0.
         23    2    4    4    0    0  0.48941787245E+03  0.18937874784E+03 -0.14497326086E+04  0.15445234062E+04  0.91835460587E+02 0.  0.
         23    2    4    4    0    0 -0.38477672419E+03  0.12316585498E+03 -0.58102264397E+03  0.71314270481E+03  0.88103628196E+02 0.  0.
          4    1    3    3  502    0 -0.54460047097E+02 -0.25383012524E+03 -0.19399603794E+03  0.32408346447E+03  0.00000000000E+00 0. -1.
         -3    1    3    3    0  502 -0.50181101165E+02 -0.58714477589E+02 -0.33636604215E+02  0.84243420727E+02  0.00000000000E+00 0.  1.
         13    1    5    5    0    0  0.16773861980E+02 -0.43725231457E+01 -0.21058110109E+02  0.27274995981E+02  0.00000000000E+00 0. -1.
        -13    1    5    5    0    0  0.47264401047E+03  0.19375127099E+03 -0.14286744985E+04  0.15172484102E+04  0.00000000000E+00 0.  1.
          2    1    6    6  503    0 -0.50025383090E+02  0.43695604049E+02 -0.64971381044E+02  0.92914611990E+02  0.00000000000E+00 0. -1.
         -2    1    6    6    0  503 -0.33475134110E+03  0.79470250935E+02 -0.51605126292E+03  0.62022809282E+03  0.00000000000E+00 0.  1.
<mgrwt>
<rscale>  0 0.14167578E+04</rscale>
<asrwt>0</asrwt>
<pdfrwt beam="1">  1        2 0.37879855E+00 0.14167578E+04</pdfrwt>
<pdfrwt beam="2">  1       -1 0.31354237E-01 0.14167578E+04</pdfrwt>
<totfact> 0.38385803E+01</totfact>
</mgrwt>
</event>
<event>
12    7  0.1735955E-007  0.1616526E+04  0.7818608E-02  0.8810460E-01
          2   -1    0    0  501    0  0.00000000000E+00  0.00000000000E+00  0.14293825971E+04  0.14293825971E+04  0.00000000000E+00 0. -1.
         -1   -1    0    0    0  501 -0.00000000000E+00 -0.00000000000E+00 -0.45704263778E+03  0.45704263778E+03  0.00000000000E+00 0.  1.
         24    2    1    2    0    0  0.41417227793E+03 -0.13274788153E+03  0.73076817029E+03  0.85435348543E+03  0.82079738606E+02 0.  0.
        254    2    1    2    0    0 -0.41417227793E+03  0.13274788153E+03  0.24157178899E+03  0.10320717494E+04  0.90424249561E+03 0.  0.
         23    2    4    4    0    0  0.15824851426E+03 -0.17372043677E+03  0.27678521427E+03  0.37464313541E+03  0.92336567258E+02 0.  0.
         23    2    4    4    0    0 -0.57242079219E+03  0.30646831831E+03 -0.35213425276E+02  0.65742861402E+03  0.96871067639E+02 0.  0.
          4    1    3    3  502    0  0.23494545976E+03 -0.49777634041E+02  0.46357295730E+03  0.52208913860E+03  0.00000000000E+00 0. -1.
         -3    1    3    3    0  502  0.17922681817E+03 -0.82970247492E+02  0.26719521299E+03  0.33226434682E+03  0.00000000000E+00 0.  1.
         13    1    5    5    0    0 -0.14547713761E+01 -0.42390937356E+02  0.72399281645E+02  0.83909259992E+02  0.00000000000E+00 0.  1.
        -13    1    5    5    0    0  0.15970328564E+03 -0.13132949942E+03  0.20438593262E+03  0.29073387542E+03  0.00000000000E+00 0. -1.
          2    1    6    6  503    0 -0.25733533674E+03  0.10648128036E+03  0.24158999607E+02  0.27954140277E+03  0.00000000000E+00 0. -1.
         -2    1    6    6    0  503 -0.31508545546E+03  0.19998703794E+03 -0.59372424882E+02  0.37788721125E+03  0.00000000000E+00 0.  1.
<mgrwt>
<rscale>  0 0.16165256E+04</rscale>
<asrwt>0</asrwt>
<pdfrwt beam="1">  1        2 0.21990501E+00 0.16165256E+04</pdfrwt>
<pdfrwt beam="2">  1       -1 0.70314253E-01 0.16165256E+04</pdfrwt>
<totfact> 0.31063193E+01</totfact>
</mgrwt>
</event>
<event>
12    7  0.1735955E-007  0.1567129E+04  0.7818608E-02  0.8841000E-01
         -1   -1    0    0    0  501 -0.00000000000E+00  0.00000000000E+00  0.30264778132E+03  0.30264778132E+03  0.00000000000E+00 0.  1.
          2   -1    0    0  501    0  0.00000000000E+00 -0.00000000000E+00 -0.20286739259E+04  0.20286739259E+04  0.00000000000E+00 0. -1.
         24    2    1    2    0    0 -0.21453887218E+03 -0.19605558674E+03 -0.11955369990E+04  0.12330588161E+04  0.81612542988E+02 0.  0.
        254    2    1    2    0    0  0.21453887218E+03  0.19605558674E+03 -0.53048914555E+03  0.10982628911E+04  0.91667765527E+03 0.  0.
         23    2    4    4    0    0 -0.13131412540E+03 -0.14216547376E+03  0.14809485163E+03  0.25986941206E+03  0.90253004310E+02 0.  0.
         23    2    4    4    0    0  0.34585299758E+03  0.33822106049E+03 -0.67858399717E+03  0.83839347905E+03  0.91758393618E+02 0.  0.
          2    1    3    3  502    0 -0.14323310212E+03 -0.10118094837E+03 -0.84404992200E+03  0.86207515721E+03  0.00000000000E+00 0. -1.
         -1    1    3    3    0  502 -0.71305770060E+02 -0.94874638371E+02 -0.35148707699E+03  0.37098365886E+03  0.00000000000E+00 0.  1.
         13    1    5    5    0    0 -0.13548799831E+03 -0.15019988095E+03  0.13242300958E+03  0.24177025332E+03  0.00000000000E+00 0. -1.
        -13    1    5    5    0    0  0.41738729129E+01  0.80344071884E+01  0.15671842049E+02  0.18099158742E+02  0.00000000000E+00 0.  1.
          4    1    6    6  503    0  0.52595123346E+02  0.66849494634E+02 -0.68962131105E+02  0.10950286507E+03  0.00000000000E+00 0.  1.
         -4    1    6    6    0  503  0.29325787423E+03  0.27137156586E+03 -0.60962186607E+03  0.72889061398E+03  0.00000000000E+00 0. -1.
<mgrwt>
<rscale>  0 0.15671294E+04</rscale>
<asrwt>0</asrwt>
<pdfrwt beam="1">  1        2 0.31210369E+00 0.15671294E+04</pdfrwt>
<pdfrwt beam="2">  1       -1 0.46561196E-01 0.15671294E+04</pdfrwt>
<totfact> 0.32405828E+01</totfact>
</mgrwt>
</event>
<event>
12    7  0.1735955E-007  0.2755751E+04  0.7818608E-02  0.8317139E-01
         -1   -1    0    0    0  501 -0.00000000000E+00  0.00000000000E+00  0.10182448980E+04  0.10182448980E+04  0.00000000000E+00 0.  1.
          2   -1    0    0  501    0  0.00000000000E+00 -0.00000000000E+00 -0.18645227433E+04  0.18645227433E+04  0.00000000000E+00 0. -1.
         24    2    1    2    0    0  0.16839606987E+03 -0.11824671352E+04 -0.69671986499E+03  0.13849184186E+04  0.77425409138E+02 0.  0.
        254    2    1    2    0    0 -0.16839606987E+03  0.11824671352E+04 -0.14955798034E+03  0.14978492227E+04  0.89140279469E+03 0.  0.
         23    2    4    4    0    0  0.35638649364E+03  0.52865321790E+03 -0.11135974164E+03  0.65366069819E+03  0.91573788039E+02 0.  0.
         23    2    4    4    0    0 -0.52478256351E+03  0.65381391725E+03 -0.38198238700E+02  0.84418852451E+03  0.91245723841E+02 0.  0.
          2    1    3    3  502    0  0.98442708632E+02 -0.66931984589E+03 -0.43868658888E+03  0.80630387960E+03  0.00000000000E+00 0. -1.
         -1    1    3    3    0  502  0.69953361236E+02 -0.51314728926E+03 -0.25803327610E+03  0.57861453905E+03  0.00000000000E+00 0.  1.
         13    1    5    5    0    0  0.35196723623E+03  0.48758851160E+03 -0.11481724485E+03  0.61221441647E+03  0.00000000000E+00 0. -1.
        -13    1    5    5    0    0  0.44192574097E+01  0.41064706307E+02  0.34575032104E+01  0.41446281722E+02  0.00000000000E+00 0.  1.
          2    1    6    6  503    0 -0.52755439415E+03  0.64363050649E+03 -0.34232083873E+02  0.83291398309E+03  0.00000000000E+00 0. -1.
         -2    1    6    6    0  503  0.27718306464E+01  0.10183410766E+02 -0.39661548278E+01  0.11274541413E+02  0.00000000000E+00 0.  1.
<mgrwt>
<rscale>  0 0.27557509E+04</rscale>
<asrwt>0</asrwt>
<pdfrwt beam="1">  1        2 0.28684965E+00 0.27557509E+04</pdfrwt>
<pdfrwt beam="2">  1       -1 0.15665306E+00 0.27557509E+04</pdfrwt>
<totfact> 0.24473422E+00</totfact>
</mgrwt>
</event>
<event>
12    7  0.1735955E-007  0.2751923E+04  0.7818608E-02  0.8318352E-01
          2   -1    0    0  501    0  0.00000000000E+00  0.00000000000E+00  0.20105378276E+04  0.20105378276E+04  0.00000000000E+00 0. -1.
         -1   -1    0    0    0  501 -0.00000000000E+00 -0.00000000000E+00 -0.94167321476E+03  0.94167321476E+03  0.00000000000E+00 0.  1.
         24    2    1    2    0    0 -0.10175536273E+04  0.51062021347E+02 -0.24971753374E+03  0.10521777573E+04  0.81831973029E+02 0.  0.
        254    2    1    2    0    0  0.10175536273E+04 -0.51062021347E+02  0.13185821465E+04  0.19000332851E+04  0.91293203077E+03 0.  0.
         23    2    4    4    0    0  0.17827086277E+03  0.39787690040E+02 -0.11453903889E+03  0.23425252915E+03  0.91605104611E+02 0.  0.
         23    2    4    4    0    0  0.83928276449E+03 -0.90849711387E+02  0.14331211854E+04  0.16657807559E+04  0.91323413414E+02 0.  0.
          2    1    3    3  502    0 -0.67149743330E+03  0.54669461226E+02 -0.13122922759E+03  0.68638084406E+03  0.00000000000E+00 0. -1.
         -1    1    3    3    0  502 -0.34605619397E+03 -0.36074398791E+01 -0.11848830616E+03  0.36579691319E+03  0.00000000000E+00 0.  1.
         13    1    5    5    0    0  0.12731089557E+03  0.22342131143E+02 -0.27897429251E+02  0.13223275507E+03  0.00000000000E+00 0. -1.
        -13    1    5    5    0    0  0.50959967205E+02  0.17445558897E+02 -0.86641609637E+02  0.10201977408E+03  0.00000000000E+00 0.  1.
          3    1    6    6  503    0  0.55196200491E+03 -0.70362085760E+02  0.85938490927E+03  0.10237945596E+04  0.00000000000E+00 0. -1.
         -3    1    6    6    0  503  0.28732075958E+03 -0.20487625627E+02  0.57373627616E+03  0.64198619632E+03  0.00000000000E+00 0.  1.
<mgrwt>
<rscale>  0 0.27519227E+04</rscale>
<asrwt>0</asrwt>
<pdfrwt beam="1">  1        2 0.30931351E+00 0.27519227E+04</pdfrwt>
<pdfrwt beam="2">  1       -1 0.14487280E+00 0.27519227E+04</pdfrwt>
<totfact> 0.25087428E+00</totfact>
</mgrwt>
</event>
<event>
12    7  0.1735955E-007  0.1636277E+04  0.7818608E-02  0.8798567E-01
          2   -1    0    0  501    0  0.00000000000E+00  0.00000000000E+00  0.17603215299E+04  0.17603215299E+04  0.00000000000E+00 0. -1.
         -1   -1    0    0    0  501 -0.00000000000E+00 -0.00000000000E+00 -0.38024322632E+03  0.38024322632E+03  0.00000000000E+00 0.  1.
         24    2    1    2    0    0 -0.49719606176E+02  0.56178674514E+03  0.41778691615E+03  0.70674963827E+03  0.82902096701E+02 0.  0.
        254    2    1    2    0    0  0.49719606176E+02 -0.56178674514E+03  0.96229138746E+03  0.14338151180E+04  0.90096875189E+03 0.  0.
         23    2    4    4    0    0 -0.47290871811E+02 -0.73608099076E+03  0.95843977453E+03  0.12130244268E+04  0.93647248579E+02 0.  0.
         23    2    4    4    0    0  0.97010477987E+02  0.17429424562E+03  0.38516129382E+01  0.22079069115E+03  0.94573661665E+02 0.  0.
          2    1    3    3  502    0 -0.38139361085E+02  0.17535371978E+03  0.17236268456E+03  0.24882209093E+03  0.00000000000E+00 0. -1.
         -1    1    3    3    0  502 -0.11580245091E+02  0.38643302536E+03  0.24542423159E+03  0.45792754735E+03  0.00000000000E+00 0.  1.
         13    1    5    5    0    0  0.27861241367E+02 -0.26021719733E+03  0.33044029263E+03  0.42152108554E+03  0.00000000000E+00 0.  1.
        -13    1    5    5    0    0 -0.75152113178E+02 -0.47586379343E+03  0.62799948189E+03  0.79150334129E+03  0.00000000000E+00 0. -1.
          4    1    6    6  503    0  0.79001465185E+02  0.15401949479E+03  0.37963503110E+02  0.17721304649E+03  0.00000000000E+00 0. -1.
         -4    1    6    6    0  503  0.18009012803E+02  0.20274750829E+02 -0.34111890171E+02  0.43577644663E+02  0.00000000000E+00 0.  1.
<mgrwt>
<rscale>  0 0.16362767E+04</rscale>
<asrwt>0</asrwt>
<pdfrwt beam="1">  1        2 0.27081869E+00 0.16362767E+04</pdfrwt>
<pdfrwt beam="2">  1       -1 0.58498959E-01 0.16362767E+04</pdfrwt>
<totfact> 0.29281994E+01</totfact>
</mgrwt>
</event>
<event>
12    7  0.1735955E-007  0.1409846E+04  0.7818608E-02  0.8946722E-01
          2   -1    0    0  501    0  0.00000000000E+00  0.00000000000E+00  0.11670340218E+04  0.11670340218E+04  0.00000000000E+00 0. -1.
         -1   -1    0    0    0  501 -0.00000000000E+00 -0.00000000000E+00 -0.42579448258E+03  0.42579448258E+03  0.00000000000E+00 0.  1.
         24    2    1    2    0    0  0.40949795779E+03  0.18039920673E+02  0.23299214463E+03  0.47444746773E+03  0.52924890194E+02 0.  0.
        254    2    1    2    0    0 -0.40949795779E+03 -0.18039920673E+02  0.50824739457E+03  0.11183810366E+04  0.90799048059E+03 0.  0.
         23    2    4    4    0    0 -0.31349953708E+03  0.11436695831E+03 -0.19031053280E+03  0.39460617000E+03  0.90189631369E+02 0.  0.
         23    2    4    4    0    0 -0.95998420711E+02 -0.13240687898E+03  0.69855792736E+03  0.72377486663E+03  0.95496603634E+02 0.  0.
          4    1    3    3  502    0  0.24877653337E+03  0.16790122604E+02  0.17018644199E+03  0.30188590032E+03  0.00000000000E+00 0. -1.
         -3    1    3    3    0  502  0.16072142442E+03  0.12497980691E+01  0.62805702632E+02  0.17256156741E+03  0.00000000000E+00 0.  1.
         13    1    5    5    0    0 -0.57656327809E+02  0.43832667902E+02 -0.77974866553E+02  0.10642196543E+03  0.00000000000E+00 0.  1.
        -13    1    5    5    0    0 -0.25584320927E+03  0.70534290405E+02 -0.11233566624E+03  0.28818420457E+03  0.00000000000E+00 0. -1.
          2    1    6    6  503    0 -0.66162248552E+02 -0.27129786218E+02  0.17772482569E+03  0.19157134990E+03  0.00000000000E+00 0.  1.
         -2    1    6    6    0  503 -0.29836172159E+02 -0.10527709276E+03  0.52083310167E+03  0.53220351674E+03  0.00000000000E+00 0. -1.
<mgrwt>
<rscale>  0 0.14098463E+04</rscale>
<asrwt>0</asrwt>
<pdfrwt beam="1">  1        2 0.17954369E+00 0.14098463E+04</pdfrwt>
<pdfrwt beam="2">  1       -1 0.65506844E-01 0.14098463E+04</pdfrwt>
<totfact> 0.51945464E+01</totfact>
</mgrwt>
</event>
<event>
12    7  0.1735955E-007  0.1696678E+04  0.7818608E-02  0.8763261E-01
          2   -1    0    0  501    0  0.00000000000E+00  0.00000000000E+00  0.16787852563E+04  0.16787852563E+04  0.00000000000E+00 0. -1.
         -1   -1    0    0    0  501 -0.00000000000E+00 -0.00000000000E+00 -0.42869059458E+03  0.42869059458E+03  0.00000000000E+00 0.  1.
         24    2    1    2    0    0  0.30787717208E+03 -0.21794573224E+03 -0.13706665830E+03  0.40943669837E+03  0.81008924581E+02 0.  0.
        254    2    1    2    0    0 -0.30787717208E+03  0.21794573224E+03  0.13871613200E+04  0.16980391525E+04  0.90378744204E+03 0.  0.
         23    2    4    4    0    0 -0.60853794624E+03  0.17410803726E+03  0.74290538140E+03  0.98033393483E+03  0.92272300334E+02 0.  0.
         23    2    4    4    0    0  0.30066077416E+03  0.43837694984E+02  0.64425593858E+03  0.71770521765E+03  0.87843158064E+02 0.  0.
          2    1    3    3  502    0  0.43610640574E+02 -0.14628729754E+01 -0.22688424689E+02  0.49181221859E+02  0.00000000000E+00 0. -1.
         -1    1    3    3    0  502  0.26426653151E+03 -0.21648285927E+03 -0.11437823361E+03  0.36025547651E+03  0.00000000000E+00 0.  1.
         13    1    5    5    0    0 -0.58149406843E+02  0.29347002224E-01  0.39092824490E+02  0.70068561452E+02  0.00000000000E+00 0. -1.
        -13    1    5    5    0    0 -0.55038853940E+03  0.17407869026E+03  0.70381255691E+03  0.91026537338E+03  0.00000000000E+00 0.  1.
          4    1    6    6  503    0  0.74571191604E+02  0.10776797201E+02  0.25948898640E+03  0.27020646928E+03  0.00000000000E+00 0. -1.
         -4    1    6    6    0  503  0.22608958256E+03  0.33060897783E+02  0.38476695218E+03  0.44749874837E+03  0.00000000000E+00 0.  1.
<mgrwt>
<rscale>  0 0.16966785E+04</rscale>
<asrwt>0</asrwt>
<pdfrwt beam="1">  1        2 0.25827465E+00 0.16966785E+04</pdfrwt>
<pdfrwt beam="2">  1       -1 0.65952400E-01 0.16966785E+04</pdfrwt>
<totfact> 0.25459241E+01</totfact>
</mgrwt>
</event>
<event>
12    7  0.1735955E-007  0.1866326E+04  0.7818608E-02  0.8671802E-01
         -1   -1    0    0    0  501 -0.00000000000E+00  0.00000000000E+00  0.70535044928E+03  0.70535044928E+03  0.00000000000E+00 0.  1.
          2   -1    0    0  501    0  0.00000000000E+00 -0.00000000000E+00 -0.12345534401E+04  0.12345534401E+04  0.00000000000E+00 0. -1.
         24    2    1    2    0    0 -0.93043825972E+01  0.26964158220E+02  0.53307603030E+03  0.53982550043E+03  0.80174057291E+02 0.  0.
        254    2    1    2    0    0  0.93043825972E+01 -0.26964158220E+02 -0.10622790211E+04  0.14000783890E+04  0.91157508694E+03 0.  0.
         23    2    4    4    0    0  0.28082722430E+03 -0.35393545782E+03 -0.67757669356E+03  0.81943615463E+03  0.90725948081E+02 0.  0.
         23    2    4    4    0    0 -0.27152284170E+03  0.32697129960E+03 -0.38470232757E+03  0.58064223433E+03  0.92274802183E+02 0.  0.
          2    1    3    3  502    0 -0.10015454515E+02 -0.14625152770E+02  0.28669023481E+02  0.33706339612E+02  0.00000000000E+00 0. -1.
         -1    1    3    3    0  502  0.71107191819E+00  0.41589310990E+02  0.50440700682E+03  0.50611916081E+03  0.00000000000E+00 0.  1.
         13    1    5    5    0    0  0.21347366197E+03 -0.30896984564E+03 -0.59627679132E+03  0.70468388781E+03  0.00000000000E+00 0.  1.
        -13    1    5    5    0    0  0.67353562329E+02 -0.44965612177E+02 -0.81299902234E+02  0.11475226682E+03  0.00000000000E+00 0. -1.
          3    1    6    6  503    0 -0.12500437563E+03  0.16022244494E+03 -0.24522264184E+03  0.31848307625E+03  0.00000000000E+00 0. -1.
         -3    1    6    6    0  503 -0.14651846607E+03  0.16674885466E+03 -0.13947968574E+03  0.26215915808E+03  0.00000000000E+00 0.  1.
<mgrwt>
<rscale>  0 0.18663256E+04</rscale>
<asrwt>0</asrwt>
<pdfrwt beam="1">  1        2 0.18993130E+00 0.18663256E+04</pdfrwt>
<pdfrwt beam="2">  1       -1 0.10851545E+00 0.18663256E+04</pdfrwt>
<totfact> 0.15243486E+01</totfact>
</mgrwt>
</event>
<event>
12    7  0.1735955E-007  0.1546184E+04  0.7818608E-02  0.8854309E-01
         -1   -1    0    0    0  501 -0.00000000000E+00  0.00000000000E+00  0.21467660583E+04  0.21467660583E+04  0.00000000000E+00 0.  1.
          2   -1    0    0  501    0  0.00000000000E+00 -0.00000000000E+00 -0.27840544589E+03  0.27840544589E+03  0.00000000000E+00 0. -1.
         24    2    1    2    0    0  0.13436588290E+03  0.14790926323E+03  0.13498143634E+04  0.13667411433E+04  0.77789436999E+02 0.  0.
        254    2    1    2    0    0 -0.13436588290E+03 -0.14790926323E+03  0.51854624901E+03  0.10584303609E+04  0.90080701365E+03 0.  0.
         23    2    4    4    0    0  0.18338845730E+03 -0.43772269196E+03  0.27227114679E+03  0.55449354893E+03  0.89994650409E+02 0.  0.
         23    2    4    4    0    0 -0.31775434019E+03  0.28981342873E+03  0.24627510222E+03  0.50393681195E+03  0.91330390809E+02 0.  0.
          2    1    3    3  502    0  0.48477611062E+02  0.37748857774E+02  0.22327335235E+03  0.23157297966E+03  0.00000000000E+00 0. -1.
         -1    1    3    3    0  502  0.85888271836E+02  0.11016040546E+03  0.11265410110E+04  0.11351681636E+04  0.00000000000E+00 0.  1.
         13    1    5    5    0    0  0.13099600779E+03 -0.21392795410E+03  0.16931176407E+03  0.30264103664E+03  0.00000000000E+00 0. -1.
        -13    1    5    5    0    0  0.52392449508E+02 -0.22379473786E+03  0.10295938272E+03  0.25185251229E+03  0.00000000000E+00 0.  1.
          1    1    6    6  503    0 -0.28871841455E+02  0.74050336867E+00  0.48767109887E+01  0.29290167025E+02  0.00000000000E+00 0. -1.
         -1    1    6    6    0  503 -0.28888249874E+03  0.28907292536E+03  0.24139839123E+03  0.47464664493E+03  0.00000000000E+00 0.  1.
<mgrwt>
<rscale>  0 0.15461842E+04</rscale>
<asrwt>0</asrwt>
<pdfrwt beam="1">  1        2 0.42831608E-01 0.15461842E+04</pdfrwt>
<pdfrwt beam="2">  1       -1 0.33027169E+00 0.15461842E+04</pdfrwt>
<totfact> 0.27688150E+00</totfact>
</mgrwt>
</event>
<event>
12    7  0.1735955E-007  0.1656445E+04  0.7818608E-02  0.8786603E-01
          2   -1    0    0  501    0  0.00000000000E+00  0.00000000000E+00  0.20217863244E+04  0.20217863244E+04  0.00000000000E+00 0. -1.
         -1   -1    0    0    0  501 -0.00000000000E+00 -0.00000000000E+00 -0.33928057208E+03  0.33928057208E+03  0.00000000000E+00 0.  1.
         24    2    1    2    0    0 -0.81577571295E+02 -0.49239974157E+03  0.10112374448E+04  0.11307356919E+04  0.82762488185E+02 0.  0.
        254    2    1    2    0    0  0.81577571295E+02  0.49239974157E+03  0.67126830754E+03  0.12303312046E+04  0.90222022078E+03 0.  0.
         23    2    4    4    0    0 -0.15635193358E+03  0.17703343304E+03 -0.16410393553E+03  0.30190679542E+03  0.91819648874E+02 0.  0.
         23    2    4    4    0    0  0.23792950488E+03  0.31536630853E+03  0.83537224307E+03  0.92842440923E+03  0.89770492365E+02 0.  0.
          4    1    3    3  502    0 -0.30218004731E+02 -0.35548683853E+03  0.77004971167E+03  0.84868167096E+03  0.00000000000E+00 0. -1.
         -3    1    3    3    0  502 -0.51359566564E+02 -0.13691290303E+03  0.24118773314E+03  0.28205402091E+03  0.00000000000E+00 0.  1.
         13    1    5    5    0    0 -0.14445273165E+02  0.56622244120E+02 -0.79667065641E+01  0.58976375435E+02  0.00000000000E+00 0. -1.
        -13    1    5    5    0    0 -0.14190666042E+03  0.12041118892E+03 -0.15613722897E+03  0.24293041999E+03  0.00000000000E+00 0.  1.
          3    1    6    6  503    0  0.14751834054E+02  0.55956715746E+02  0.18026205517E+03  0.18932294943E+03  0.00000000000E+00 0. -1.
         -3    1    6    6    0  503  0.22317767082E+03  0.25940959278E+03  0.65511018790E+03  0.73910145980E+03  0.00000000000E+00 0.  1.
<mgrwt>
<rscale>  0 0.16564454E+04</rscale>
<asrwt>0</asrwt>
<pdfrwt beam="1">  1        2 0.31104404E+00 0.16564454E+04</pdfrwt>
<pdfrwt beam="2">  1       -1 0.52197012E-01 0.16564454E+04</pdfrwt>
<totfact> 0.26123446E+01</totfact>
</mgrwt>
</event>
<event>
12    7  0.1735955E-007  0.2069201E+04  0.7818608E-02  0.8574933E-01
          2   -1    0    0  501    0  0.00000000000E+00  0.00000000000E+00  0.13669200534E+04  0.13669200534E+04  0.00000000000E+00 0. -1.
         -1   -1    0    0    0  501 -0.00000000000E+00 -0.00000000000E+00 -0.78307273412E+03  0.78307273412E+03  0.00000000000E+00 0.  1.
         24    2    1    2    0    0  0.51124818487E+03  0.78912427861E+02 -0.44437099204E+03  0.68648776045E+03  0.78727307133E+02 0.  0.
        254    2    1    2    0    0 -0.51124818487E+03 -0.78912427861E+02  0.10282183113E+04  0.14635050271E+04  0.90388726659E+03 0.  0.
         23    2    4    4    0    0 -0.57917563735E+03 -0.23643665020E+03  0.10896831330E+04  0.12598920646E+04  0.92584963272E+02 0.  0.
         23    2    4    4    0    0  0.67927452484E+02  0.15752422234E+03 -0.61464821725E+02  0.20361296251E+03  0.90842142017E+02 0.  0.
          4    1    3    3  502    0  0.93200939493E+02  0.31787736413E+01 -0.45601559141E+02  0.10380761976E+03  0.00000000000E+00 0. -1.
         -3    1    3    3    0  502  0.41804724537E+03  0.75733654219E+02 -0.39876943290E+03  0.58268014069E+03  0.00000000000E+00 0.  1.
         13    1    5    5    0    0 -0.37978349926E+01 -0.15308778719E+02  0.22433331029E+02  0.27423285681E+02  0.00000000000E+00 0. -1.
        -13    1    5    5    0    0 -0.57537780236E+03 -0.22112787148E+03  0.10672498020E+04  0.12324687789E+04  0.00000000000E+00 0.  1.
          3    1    6    6  503    0  0.73323776317E+02  0.72065244678E+02 -0.90305968101E+01  0.10320526800E+03  0.00000000000E+00 0. -1.
         -3    1    6    6    0  503 -0.53963238334E+01  0.85458977664E+02 -0.52434224915E+02  0.10040769451E+03  0.00000000000E+00 0.  1.
<mgrwt>
<rscale>  0 0.20692006E+04</rscale>
<asrwt>0</asrwt>
<pdfrwt beam="1">  1        2 0.21029539E+00 0.20692006E+04</pdfrwt>
<pdfrwt beam="2">  1       -1 0.12047273E+00 0.20692006E+04</pdfrwt>
<totfact> 0.97602502E+00</totfact>
</mgrwt>
</event>
<event>
12    7  0.1735955E-007  0.1583957E+04  0.7818608E-02  0.8830465E-01
         -1   -1    0    0    0  501 -0.00000000000E+00  0.00000000000E+00  0.12565551615E+04  0.12565551615E+04  0.00000000000E+00 0.  1.
          2   -1    0    0  501    0  0.00000000000E+00 -0.00000000000E+00 -0.49916648300E+03  0.49916648300E+03  0.00000000000E+00 0. -1.
         24    2    1    2    0    0  0.44789244790E+03 -0.17183180859E+03  0.50939446412E+03  0.70429608884E+03  0.80102717432E+02 0.  0.
        254    2    1    2    0    0 -0.44789244790E+03  0.17183180859E+03  0.24799421441E+03  0.10514255557E+04  0.90214231329E+03 0.  0.
         23    2    4    4    0    0 -0.14529268921E+03  0.20374009745E+03  0.55101303480E+03  0.61216242343E+03  0.92235976108E+02 0.  0.
         23    2    4    4    0    0 -0.30259975870E+03 -0.31908288857E+02 -0.30301882039E+03  0.43926313226E+03  0.92449667369E+02 0.  0.
          2    1    3    3  502    0  0.63773468850E+02 -0.55272307854E+02  0.10165414690E+03  0.13211982791E+03  0.00000000000E+00 0. -1.
         -1    1    3    3    0  502  0.38411897906E+03 -0.11655950074E+03  0.40774031722E+03  0.57217626093E+03  0.00000000000E+00 0.  1.
         13    1    5    5    0    0 -0.31109092749E+02  0.10911010716E+03  0.29831487701E+03  0.31916227375E+03  0.00000000000E+00 0.  1.
        -13    1    5    5    0    0 -0.11418359646E+03  0.94629990291E+02  0.25269815779E+03  0.29300014968E+03  0.00000000000E+00 0. -1.
          4    1    6    6  503    0 -0.97239716329E+02 -0.49050589122E+02 -0.13444546282E+03  0.17302342384E+03  0.00000000000E+00 0. -1.
         -4    1    6    6    0  503 -0.20536004237E+03  0.17142300265E+02 -0.16857335757E+03  0.26623970842E+03  0.00000000000E+00 0.  1.
<mgrwt>
<rscale>  0 0.15839573E+04</rscale>
<asrwt>0</asrwt>
<pdfrwt beam="1">  1        2 0.76794844E-01 0.15839573E+04</pdfrwt>
<pdfrwt beam="2">  1       -1 0.19331618E+00 0.15839573E+04</pdfrwt>
<totfact> 0.11340181E+01</totfact>
</mgrwt>
</event>
<event>
12    7  0.1735955E-007  0.3791897E+04  0.7818608E-02  0.8047896E-01
          2   -1    0    0  501    0  0.00000000000E+00  0.00000000000E+00  0.30331588325E+04  0.30331588325E+04  0.00000000000E+00 0. -1.
         -1   -1    0    0    0  501 -0.00000000000E+00 -0.00000000000E+00 -0.11851078030E+04  0.11851078030E+04  0.00000000000E+00 0.  1.
         24    2    1    2    0    0 -0.73004205062E+03  0.75562311470E+03  0.24816473993E+04  0.26961380871E+04  0.81603205473E+02 0.  0.
        254    2    1    2    0    0  0.73004205062E+03 -0.75562311470E+03 -0.63359636980E+03  0.15221285484E+04  0.90083476334E+03 0.  0.
         23    2    4    4    0    0  0.55911417778E+03 -0.60080403808E+03 -0.85544893082E+03  0.11895790685E+04  0.98647509171E+02 0.  0.
         23    2    4    4    0    0  0.17092787284E+03 -0.15481907662E+03  0.22185256102E+03  0.33254947986E+03  0.90472722533E+02 0.  0.
          2    1    3    3  502    0 -0.71531292357E+03  0.75324190125E+03  0.24515838666E+04  0.26625757070E+04  0.00000000000E+00 0. -1.
         -3    1    3    3    0  502 -0.14729127050E+02  0.23812134450E+01  0.30063532665E+02  0.33562380091E+02  0.00000000000E+00 0.  1.
         13    1    5    5    0    0  0.18872361358E+03 -0.26078646033E+03 -0.37387409969E+03  0.49336398595E+03  0.00000000000E+00 0.  1.
        -13    1    5    5    0    0  0.37039056420E+03 -0.34001757775E+03 -0.48157483113E+03  0.69621508257E+03  0.00000000000E+00 0. -1.
          3    1    6    6  503    0  0.14901492397E+02 -0.56238724697E+02  0.84041072351E+02  0.10221423811E+03  0.00000000000E+00 0. -1.
         -3    1    6    6    0  503  0.15602638045E+03 -0.98580351923E+02  0.13781148867E+03  0.23033524175E+03  0.00000000000E+00 0.  1.
<mgrwt>
<rscale>  0 0.37918967E+04</rscale>
<asrwt>0</asrwt>
<pdfrwt beam="1">  1        2 0.46663982E+00 0.37918967E+04</pdfrwt>
<pdfrwt beam="2">  1       -1 0.18232428E+00 0.37918967E+04</pdfrwt>
<totfact> 0.30258641E-01</totfact>
</mgrwt>
</event>
<event>
12    7  0.1735955E-007  0.2842196E+04  0.7818608E-02  0.8290287E-01
         -1   -1    0    0    0  501 -0.00000000000E+00  0.00000000000E+00  0.12392750894E+04  0.12392750894E+04  0.00000000000E+00 0.  1.
          2   -1    0    0  501    0  0.00000000000E+00 -0.00000000000E+00 -0.16295975393E+04  0.16295975393E+04  0.00000000000E+00 0. -1.
         24    2    1    2    0    0 -0.51949167685E+03 -0.10093229015E+04  0.41717148582E+03  0.12119373793E+04  0.78459167248E+02 0.  0.
        254    2    1    2    0    0  0.51949167685E+03  0.10093229015E+04 -0.80749393568E+03  0.16569352494E+04  0.89709734303E+03 0.  0.
         23    2    4    4    0    0 -0.19263040173E+03  0.14872867071E+02 -0.64606932644E+02  0.22314725083E+03  0.91065723307E+02 0.  0.
         23    2    4    4    0    0  0.71212207858E+03  0.99445003442E+03 -0.74288700304E+03  0.14337879986E+04  0.88420585271E+02 0.  0.
          2    1    3    3  502    0 -0.48005805071E+03 -0.88762571628E+03  0.35542669845E+03  0.10698893785E+04  0.00000000000E+00 0. -1.
         -1    1    3    3    0  502 -0.39433626141E+02 -0.12169718521E+03  0.61744787368E+02  0.14204800078E+03  0.00000000000E+00 0.  1.
         13    1    5    5    0    0 -0.32057866920E+02 -0.27745104414E+02  0.56471544919E+01  0.42771345598E+02  0.00000000000E+00 0.  1.
        -13    1    5    5    0    0 -0.16057253481E+03  0.42617971485E+02 -0.70254087136E+02  0.18037590523E+03  0.00000000000E+00 0. -1.
          2    1    6    6  503    0  0.70373849027E+03  0.98832735771E+03 -0.74418844028E+03  0.14233254243E+04  0.00000000000E+00 0. -1.
         -2    1    6    6    0  503  0.83835883135E+01  0.61226767075E+01  0.13014372445E+01  0.10462574347E+02  0.00000000000E+00 0.  1.
<mgrwt>
<rscale>  0 0.28421961E+04</rscale>
<asrwt>0</asrwt>
<pdfrwt beam="1">  1        2 0.25070731E+00 0.28421961E+04</pdfrwt>
<pdfrwt beam="2">  1       -1 0.19065771E+00 0.28421961E+04</pdfrwt>
<totfact> 0.18528495E+00</totfact>
</mgrwt>
</event>
<event>
12    7  0.1735955E-007  0.1202293E+04  0.7818608E-02  0.9110851E-01
         -1   -1    0    0    0  501 -0.00000000000E+00  0.00000000000E+00  0.46295102460E+03  0.46295102460E+03  0.00000000000E+00 0.  1.
          2   -1    0    0  501    0  0.00000000000E+00 -0.00000000000E+00 -0.78059522694E+03  0.78059522694E+03  0.00000000000E+00 0. -1.
         24    2    1    2    0    0 -0.31989202795E+02  0.71230177339E+01  0.19346244704E+03  0.21151624780E+03  0.78976947214E+02 0.  0.
        254    2    1    2    0    0  0.31989202795E+02 -0.71230177339E+01 -0.51110664939E+03  0.10320300037E+04  0.89598095689E+03 0.  0.
         23    2    4    4    0    0  0.19266084312E+03 -0.31361187193E+03  0.32766484421E+02  0.38102082017E+03  0.92911873363E+02 0.  0.
         23    2    4    4    0    0 -0.16067164032E+03  0.30648885420E+03 -0.54387313381E+03  0.65100918358E+03  0.90907522632E+02 0.  0.
          2    1    3    3  502    0 -0.45766848751E+02 -0.52325775646E-01  0.52282651206E+02  0.69484406881E+02  0.00000000000E+00 0. -1.
         -1    1    3    3    0  502  0.13777645956E+02  0.71753435096E+01  0.14117979584E+03  0.14203184092E+03  0.00000000000E+00 0.  1.
         13    1    5    5    0    0  0.14352357060E+03 -0.29272526044E+03  0.32447253509E+02  0.32762771201E+03  0.00000000000E+00 0.  1.
        -13    1    5    5    0    0  0.49137272521E+02 -0.20886611494E+02  0.31923091222E+00  0.53393108159E+02  0.00000000000E+00 0. -1.
          1    1    6    6  503    0  0.11484119718E+02  0.12723232303E+02 -0.22133957545E+02  0.27994244454E+02  0.00000000000E+00 0. -1.
         -1    1    6    6    0  503 -0.17215576004E+03  0.29376562190E+03 -0.52173917626E+03  0.62301493912E+03  0.00000000000E+00 0.  1.
<mgrwt>
<rscale>  0 0.12022934E+04</rscale>
<asrwt>0</asrwt>
<pdfrwt beam="1">  1        2 0.12009157E+00 0.12022934E+04</pdfrwt>
<pdfrwt beam="2">  1       -1 0.71223234E-01 0.12022934E+04</pdfrwt>
<totfact> 0.79831363E+01</totfact>
</mgrwt>
</event>
<event>
12    7  0.1735955E-007  0.2036864E+04  0.7818608E-02  0.8589577E-01
         -1   -1    0    0    0  501 -0.00000000000E+00  0.00000000000E+00  0.55289687200E+03  0.55289687200E+03  0.00000000000E+00 0.  1.
          2   -1    0    0  501    0  0.00000000000E+00 -0.00000000000E+00 -0.18759447271E+04  0.18759447271E+04  0.00000000000E+00 0. -1.
         24    2    1    2    0    0 -0.46848939669E+03  0.18701821534E+03  0.23703181974E+03  0.56249920493E+03  0.75915375908E+02 0.  0.
        254    2    1    2    0    0  0.46848939669E+03 -0.18701821534E+03 -0.15600796748E+04  0.18663423942E+04  0.89158690700E+03 0.  0.
         23    2    4    4    0    0  0.41259996463E+03 -0.29829279047E+03 -0.16200944139E+04  0.17009044419E+04  0.95669696762E+02 0.  0.
         23    2    4    4    0    0  0.55889432061E+02  0.11127457513E+03  0.60014739057E+02  0.16543795226E+03  0.90897125691E+02 0.  0.
          2    1    3    3  502    0 -0.35341784228E+03  0.10548755760E+03  0.17954810464E+03  0.41020643331E+03  0.00000000000E+00 0. -1.
         -1    1    3    3    0  502 -0.11507155441E+03  0.81530657742E+02  0.57483715102E+02  0.15229277162E+03  0.00000000000E+00 0.  1.
         13    1    5    5    0    0  0.38161325533E+03 -0.23696240638E+03 -0.13918468757E+04  0.14625380624E+04  0.00000000000E+00 0.  1.
        -13    1    5    5    0    0  0.30986709304E+02 -0.61330384089E+02 -0.22824753825E+03  0.23836637951E+03  0.00000000000E+00 0. -1.
          1    1    6    6  503    0  0.55606938325E+01  0.38424690222E+02 -0.22103366287E+02  0.44675910016E+02  0.00000000000E+00 0. -1.
         -1    1    6    6    0  503  0.50328738229E+02  0.72849884906E+02  0.82118105344E+02  0.12076204225E+03  0.00000000000E+00 0.  1.
<mgrwt>
<rscale>  0 0.20368642E+04</rscale>
<asrwt>0</asrwt>
<pdfrwt beam="1">  1        2 0.28860688E+00 0.20368642E+04</pdfrwt>
<pdfrwt beam="2">  1       -1 0.85061058E-01 0.20368642E+04</pdfrwt>
<totfact> 0.11289069E+01</totfact>
</mgrwt>
</event>
<event>
12    7  0.1735955E-007  0.1536747E+04  0.7818608E-02  0.8860378E-01
          2   -1    0    0  501    0  0.00000000000E+00  0.00000000000E+00  0.18371628245E+04  0.18371628245E+04  0.00000000000E+00 0. -1.
         -1   -1    0    0    0  501 -0.00000000000E+00 -0.00000000000E+00 -0.32136373030E+03  0.32136373030E+03  0.00000000000E+00 0.  1.
         24    2    1    2    0    0  0.78490882607E+02 -0.39686236028E+03  0.85808817014E+02  0.42093209569E+03  0.78486460232E+02 0.  0.
        254    2    1    2    0    0 -0.78490882607E+02  0.39686236028E+03  0.14299902772E+04  0.17375944591E+04  0.90038978215E+03 0.  0.
         23    2    4    4    0    0  0.36623096283E+03  0.36377362745E+03  0.65406834426E+03  0.83812814923E+03  0.90537425472E+02 0.  0.
         23    2    4    4    0    0 -0.44472184543E+03  0.33088732829E+02  0.77592193289E+03  0.89946630984E+03  0.90068932235E+02 0.  0.
          2    1    3    3  502    0  0.36317762568E+02 -0.21657031623E+03  0.85833263869E+02  0.23577326170E+03  0.00000000000E+00 0. -1.
         -1    1    3    3    0  502  0.42173120039E+02 -0.18029204406E+03 -0.24446854607E-01  0.18515883398E+03  0.00000000000E+00 0.  1.
         13    1    5    5    0    0  0.29047122115E+03  0.23934806693E+03  0.43744002641E+03  0.57707434891E+03  0.00000000000E+00 0. -1.
        -13    1    5    5    0    0  0.75759741673E+02  0.12442556052E+03  0.21662831786E+03  0.26105380033E+03  0.00000000000E+00 0.  1.
          4    1    6    6  503    0 -0.42794600505E+03  0.20081577802E+02  0.70057279827E+03  0.82118408331E+03  0.00000000000E+00 0. -1.
         -4    1    6    6    0  503 -0.16775840379E+02  0.13007155028E+02  0.75349134626E+02  0.78282226535E+02  0.00000000000E+00 0.  1.
<mgrwt>
<rscale>  0 0.15367466E+04</rscale>
<asrwt>0</asrwt>
<pdfrwt beam="1">  1        2 0.28264043E+00 0.15367466E+04</pdfrwt>
<pdfrwt beam="2">  1       -1 0.49440575E-01 0.15367466E+04</pdfrwt>
<totfact> 0.37038788E+01</totfact>
</mgrwt>
</event>
<event>
12    7  0.1735955E-007  0.1198275E+04  0.7818608E-02  0.9114368E-01
         -1   -1    0    0    0  501 -0.00000000000E+00  0.00000000000E+00  0.33736841723E+03  0.33736841723E+03  0.00000000000E+00 0.  1.
          2   -1    0    0  501    0  0.00000000000E+00 -0.00000000000E+00 -0.10640163604E+04  0.10640163604E+04  0.00000000000E+00 0. -1.
         24    2    1    2    0    0  0.21669585846E+03  0.11510220058E+03 -0.22878193173E+03  0.34476840212E+03  0.79488786382E+02 0.  0.
        254    2    1    2    0    0 -0.21669585846E+03 -0.11510220058E+03 -0.49786601147E+03  0.10566163755E+04  0.89908953282E+03 0.  0.
         23    2    4    4    0    0 -0.18630635883E+03  0.17528725063E+02 -0.73763056937E+03  0.76642252198E+03  0.91034662524E+02 0.  0.
         23    2    4    4    0    0 -0.30389499633E+02 -0.13263092564E+03  0.23976455790E+03  0.29019385356E+03  0.90614266501E+02 0.  0.
          4    1    3    3  502    0  0.88232949804E+01 -0.54804873363E+01  0.30817303529E+01  0.10834359128E+02  0.00000000000E+00 0. -1.
         -3    1    3    3    0  502  0.20787256348E+03  0.12058268791E+03 -0.23186366208E+03  0.33393404299E+03  0.00000000000E+00 0.  1.
         13    1    5    5    0    0 -0.10139019473E+03 -0.71555412959E+01 -0.54589005929E+03  0.55527212265E+03  0.00000000000E+00 0.  1.
        -13    1    5    5    0    0 -0.84916164097E+02  0.24684266359E+02 -0.19174051008E+03  0.21115039933E+03  0.00000000000E+00 0. -1.
          3    1    6    6  503    0  0.23826106112E+02 -0.93646585772E+02  0.13751598604E+03  0.16807145140E+03  0.00000000000E+00 0. -1.
         -3    1    6    6    0  503 -0.54215605745E+02 -0.38984339867E+02  0.10224857186E+03  0.12212240216E+03  0.00000000000E+00 0.  1.
<mgrwt>
<rscale>  0 0.11982746E+04</rscale>
<asrwt>0</asrwt>
<pdfrwt beam="1">  1        2 0.16369482E+00 0.11982746E+04</pdfrwt>
<pdfrwt beam="2">  1       -1 0.51902834E-01 0.11982746E+04</pdfrwt>
<totfact> 0.96451291E+01</totfact>
</mgrwt>
</event>
<event>
12    7  0.1735955E-007  0.1124727E+04  0.7818608E-02  0.9181421E-01
         -1   -1    0    0    0  501 -0.00000000000E+00  0.00000000000E+00  0.15554082035E+03  0.15554082035E+03  0.00000000000E+00 0.  1.
          2   -1    0    0  501    0  0.00000000000E+00 -0.00000000000E+00 -0.20332440751E+04  0.20332440751E+04  0.00000000000E+00 0. -1.
         24    2    1    2    0    0 -0.48740490218E+02  0.12406890048E+03 -0.11805914395E+03  0.20810581825E+03  0.10770952914E+03 0.  0.
        254    2    1    2    0    0  0.48740490218E+02 -0.12406890048E+03 -0.17596441108E+04  0.19806790772E+04  0.89942953184E+03 0.  0.
         23    2    4    4    0    0 -0.25289045221E+03  0.25270232253E+03 -0.10858577380E+04  0.11468642491E+04  0.91643516246E+02 0.  0.
         23    2    4    4    0    0  0.30163094243E+03 -0.37677122301E+03 -0.67378637276E+03  0.83381482806E+03  0.91221222619E+02 0.  0.
          2    1    3    3  502    0 -0.22124459605E+02 -0.77302824257E+01 -0.54612238842E+02  0.59428491572E+02  0.00000000000E+00 0. -1.
         -1    1    3    3    0  502 -0.26616030613E+02  0.13179918291E+03 -0.63446905105E+02  0.14867732668E+03  0.00000000000E+00 0.  1.
         13    1    5    5    0    0 -0.34336651989E+02  0.59638184381E+01 -0.16903747531E+03  0.17259270222E+03  0.00000000000E+00 0. -1.
        -13    1    5    5    0    0 -0.21855380022E+03  0.24673850409E+03 -0.91682026270E+03  0.97427154690E+03  0.00000000000E+00 0.  1.
          2    1    6    6  503    0  0.38335258650E+02 -0.29182261941E+02 -0.11749291678E+03  0.12698732993E+03  0.00000000000E+00 0. -1.
         -2    1    6    6    0  503  0.26329568378E+03 -0.34758896107E+03 -0.55629345598E+03  0.70682749814E+03  0.00000000000E+00 0.  1.
<mgrwt>
<rscale>  0 0.11247265E+04</rscale>
<asrwt>0</asrwt>
<pdfrwt beam="1">  1        2 0.31280677E+00 0.11247265E+04</pdfrwt>
<pdfrwt beam="2">  1       -1 0.23929358E-01 0.11247265E+04</pdfrwt>
<totfact> 0.10941313E+02</totfact>
</mgrwt>
</event>
<event>
12    7  0.1735955E-007  0.2566651E+04  0.7818608E-02  0.8379618E-01
         -1   -1    0    0    0  501 -0.00000000000E+00  0.00000000000E+00  0.50127786331E+03  0.50127786331E+03  0.00000000000E+00 0.  1.
          2   -1    0    0  501    0  0.00000000000E+00 -0.00000000000E+00 -0.32854530624E+04  0.32854530624E+04  0.00000000000E+00 0. -1.
         24    2    1    2    0    0 -0.43989441334E+03  0.97727559161E+03 -0.16486717295E+04  0.19679616966E+04  0.78613553431E+02 0.  0.
        254    2    1    2    0    0  0.43989441334E+03 -0.97727559161E+03 -0.11355034696E+04  0.18187692291E+04  0.93272648856E+03 0.  0.
         23    2    4    4    0    0  0.13433982591E+01 -0.21127265383E+03  0.13834786701E+03  0.26636670842E+03  0.84694463057E+02 0.  0.
         23    2    4    4    0    0  0.43855101508E+03 -0.76600293777E+03 -0.12738513366E+04  0.15524025207E+04  0.90381773517E+02 0.  0.
          2    1    3    3  502    0 -0.32571287937E+03  0.73835960756E+03 -0.13003439529E+04  0.15304111166E+04  0.00000000000E+00 0. -1.
         -1    1    3    3    0  502 -0.11418153396E+03  0.23891598405E+03 -0.34832777654E+03  0.43755057998E+03  0.00000000000E+00 0.  1.
         13    1    5    5    0    0  0.28478591966E+02 -0.32197817738E+02  0.46377758203E+02  0.63234690822E+02  0.00000000000E+00 0.  1.
        -13    1    5    5    0    0 -0.27135193707E+02 -0.17907483609E+03  0.91970108806E+02  0.20313201760E+03  0.00000000000E+00 0. -1.
          3    1    6    6  503    0  0.33090349331E+02 -0.22208684167E+02 -0.65895166638E+02  0.77008894665E+02  0.00000000000E+00 0. -1.
         -3    1    6    6    0  503  0.40546066575E+03 -0.74379425361E+03 -0.12079561699E+04  0.14753936260E+04  0.00000000000E+00 0.  1.
<mgrwt>
<rscale>  0 0.25666514E+04</rscale>
<asrwt>0</asrwt>
<pdfrwt beam="1">  1        2 0.50545433E+00 0.25666514E+04</pdfrwt>
<pdfrwt beam="2">  1       -1 0.77119670E-01 0.25666514E+04</pdfrwt>
<totfact> 0.19377661E+00</totfact>
</mgrwt>
</event>
<event>
12    7  0.1735955E-007  0.2534227E+04  0.7818608E-02  0.8390892E-01
         -1   -1    0    0    0  501 -0.00000000000E+00  0.00000000000E+00  0.53413062955E+03  0.53413062955E+03  0.00000000000E+00 0.  1.
          2   -1    0    0  501    0  0.00000000000E+00 -0.00000000000E+00 -0.30059632064E+04  0.30059632064E+04  0.00000000000E+00 0. -1.
         24    2    1    2    0    0  0.97579230289E+03 -0.11109844721E+03 -0.17848603442E+04  0.20386236387E+04  0.75805070558E+02 0.  0.
        254    2    1    2    0    0 -0.97579230289E+03  0.11109844721E+03 -0.68697223269E+03  0.15014701973E+04  0.90441606654E+03 0.  0.
         23    2    4    4    0    0 -0.65017247240E+03  0.45102765730E+03 -0.20631700143E+03  0.82268579260E+03  0.89972310990E+02 0.  0.
         23    2    4    4    0    0 -0.32561983049E+03 -0.33992921009E+03 -0.48065523126E+03  0.67878440466E+03  0.90214604081E+02 0.  0.
          2    1    3    3  502    0  0.56691558252E+03 -0.10213097776E+03 -0.10423700793E+04  0.11909489479E+04  0.00000000000E+00 0. -1.
         -1    1    3    3    0  502  0.40887672037E+03 -0.89674694533E+01 -0.74249026489E+03  0.84767469080E+03  0.00000000000E+00 0.  1.
         13    1    5    5    0    0 -0.61313860662E+03  0.39771508962E+03 -0.19845410216E+03  0.75729800878E+03  0.00000000000E+00 0.  1.
        -13    1    5    5    0    0 -0.37033865776E+02  0.53312567679E+02 -0.78628992659E+01  0.65387783811E+02  0.00000000000E+00 0. -1.
          1    1    6    6  503    0 -0.55331754745E+02 -0.18522084668E+02 -0.45075468065E+02  0.73732411631E+02  0.00000000000E+00 0. -1.
         -1    1    6    6    0  503 -0.27028807575E+03 -0.32140712543E+03 -0.43557976319E+03  0.60505199303E+03  0.00000000000E+00 0.  1.
<mgrwt>
<rscale>  0 0.25342273E+04</rscale>
<asrwt>0</asrwt>
<pdfrwt beam="1">  1        2 0.46245588E+00 0.25342273E+04</pdfrwt>
<pdfrwt beam="2">  1       -1 0.82173943E-01 0.25342273E+04</pdfrwt>
<totfact> 0.25715467E+00</totfact>
</mgrwt>
</event>
<event>
12    7  0.1735955E-007  0.1842466E+04  0.7818608E-02  0.8684037E-01
         -1   -1    0    0    0  501 -0.00000000000E+00  0.00000000000E+00  0.47766493185E+03  0.47766493185E+03  0.00000000000E+00 0.  1.
          2   -1    0    0  501    0  0.00000000000E+00 -0.00000000000E+00 -0.17767052918E+04  0.17767052918E+04  0.00000000000E+00 0. -1.
         24    2    1    2    0    0 -0.32480288652E+03  0.37189718742E+03 -0.11000541100E+04  0.12083837348E+04  0.79169265349E+02 0.  0.
        254    2    1    2    0    0  0.32480288652E+03 -0.37189718742E+03 -0.19898624992E+03  0.10459864888E+04  0.90038201557E+03 0.  0.
         23    2    4    4    0    0  0.56672763003E+03 -0.59759517209E+02 -0.26504082169E+03  0.63520871268E+03  0.92152400766E+02 0.  0.
         23    2    4    4    0    0 -0.24192474351E+03 -0.31213767021E+03  0.66054571769E+02  0.41077777610E+03  0.91747851196E+02 0.  0.
          4    1    3    3  502    0 -0.31765445744E+03  0.33464868503E+03 -0.99764844599E+03  0.10991799300E+04  0.00000000000E+00 0. -1.
         -3    1    3    3    0  502 -0.71484290742E+01  0.37248502388E+02 -0.10240566402E+03  0.10920380484E+03  0.00000000000E+00 0.  1.
         13    1    5    5    0    0  0.14534365262E+03 -0.14563465438E+02 -0.11402064631E+03  0.18530401956E+03  0.00000000000E+00 0. -1.
        -13    1    5    5    0    0  0.42138397742E+03 -0.45196051771E+02 -0.15102017538E+03  0.44990469312E+03  0.00000000000E+00 0.  1.
          4    1    6    6  503    0 -0.10171538396E+02 -0.11427396603E+02 -0.16236959162E+02  0.22308841953E+02  0.00000000000E+00 0. -1.
         -4    1    6    6    0  503 -0.23175320512E+03 -0.30071027361E+03  0.82291530932E+02  0.38846893415E+03  0.00000000000E+00 0.  1.
<mgrwt>
<rscale>  0 0.18424655E+04</rscale>
<asrwt>0</asrwt>
<pdfrwt beam="1">  1        2 0.27333927E+00 0.18424655E+04</pdfrwt>
<pdfrwt beam="2">  1       -1 0.73486915E-01 0.18424655E+04</pdfrwt>
<totfact> 0.17772039E+01</totfact>
</mgrwt>
</event>
<event>
12    7  0.1735955E-007  0.1187477E+04  0.7818608E-02  0.9123889E-01
         -1   -1    0    0    0  501 -0.00000000000E+00  0.00000000000E+00  0.66149197866E+03  0.66149197866E+03  0.00000000000E+00 0.  1.
          2   -1    0    0  501    0  0.00000000000E+00 -0.00000000000E+00 -0.53292501322E+03  0.53292501322E+03  0.00000000000E+00 0. -1.
         24    2    1    2    0    0  0.13144531222E+03  0.96589477762E+02 -0.15485001484E+03  0.23889373701E+03  0.80525108941E+02 0.  0.
        254    2    1    2    0    0 -0.13144531222E+03 -0.96589477762E+02  0.28341698028E+03  0.95552325487E+03  0.89782632428E+03 0.  0.
         23    2    4    4    0    0 -0.95571688909E+02 -0.48623633167E+03  0.98954936503E+02  0.51363707045E+03  0.92039354234E+02 0.  0.
         23    2    4    4    0    0 -0.35873623314E+02  0.38964685391E+03  0.18446204377E+03  0.44188618442E+03  0.90141925747E+02 0.  0.
          2    1    3    3  502    0  0.12180464696E+03  0.11062158528E+03 -0.13578115720E+03  0.21333079900E+03  0.00000000000E+00 0. -1.
         -1    1    3    3    0  502  0.96406652587E+01 -0.14032107523E+02 -0.19068857638E+02  0.25562938011E+02  0.00000000000E+00 0.  1.
         13    1    5    5    0    0 -0.10159366426E+03 -0.48667783300E+03  0.10087883907E+03  0.50729983828E+03  0.00000000000E+00 0.  1.
        -13    1    5    5    0    0  0.60219753459E+01  0.44150132738E+00 -0.19239025700E+01  0.63372321709E+01  0.00000000000E+00 0. -1.
          1    1    6    6  503    0  0.14380394663E+02  0.95161244827E+01  0.23657134262E+01  0.17405429494E+02  0.00000000000E+00 0. -1.
         -1    1    6    6    0  503 -0.50254017977E+02  0.38013072943E+03  0.18209633035E+03  0.42448075493E+03  0.00000000000E+00 0.  1.
<mgrwt>
<rscale>  0 0.11874774E+04</rscale>
<asrwt>0</asrwt>
<pdfrwt beam="1">  1        2 0.81988464E-01 0.11874774E+04</pdfrwt>
<pdfrwt beam="2">  1       -1 0.10176800E+00 0.11874774E+04</pdfrwt>
<totfact> 0.59098014E+01</totfact>
</mgrwt>
</event>
<event>
12    7  0.1735955E-007  0.1569048E+04  0.7818608E-02  0.8839792E-01
          2   -1    0    0  501    0  0.00000000000E+00  0.00000000000E+00  0.13774645815E+04  0.13774645815E+04  0.00000000000E+00 0. -1.
         -1   -1    0    0    0  501 -0.00000000000E+00 -0.00000000000E+00 -0.44681943160E+03  0.44681943160E+03  0.00000000000E+00 0.  1.
         24    2    1    2    0    0 -0.27453057922E+03 -0.18826000532E+03  0.75826253287E+03  0.83198449960E+03  0.80170258092E+02 0.  0.
        254    2    1    2    0    0  0.27453057922E+03  0.18826000532E+03  0.17238261698E+03  0.99229951346E+03  0.91876748378E+03 0.  0.
         23    2    4    4    0    0  0.24227052096E+02  0.22221517797E+03  0.50818698230E+03  0.56249180513E+03  0.90423926485E+02 0.  0.
         23    2    4    4    0    0  0.25030352712E+03 -0.33955172644E+02 -0.33580436532E+03  0.42980770834E+03  0.90361966215E+02 0.  0.
          4    1    3    3  502    0 -0.20063276655E+03 -0.13918823146E+03  0.63323230005E+03  0.67868255953E+03  0.00000000000E+00 0. -1.
         -3    1    3    3    0  502 -0.73897812672E+02 -0.49071773865E+02  0.12503023283E+03  0.15330194007E+03  0.00000000000E+00 0.  1.
         13    1    5    5    0    0  0.70503009670E+01  0.12272086531E+03  0.17157918911E+03  0.21106760922E+03  0.00000000000E+00 0. -1.
        -13    1    5    5    0    0  0.17176751129E+02  0.99494312656E+02  0.33660779320E+03  0.35142419591E+03  0.00000000000E+00 0.  1.
          1    1    6    6  503    0  0.93629429105E+02  0.18865574475E+02 -0.17388165135E+03  0.19838651308E+03  0.00000000000E+00 0.  1.
         -1    1    6    6    0  503  0.15667409802E+03 -0.52820747119E+02 -0.16192271397E+03  0.23142119526E+03  0.00000000000E+00 0. -1.
<mgrwt>
<rscale>  0 0.15690480E+04</rscale>
<asrwt>0</asrwt>
<pdfrwt beam="1">  1        2 0.21191763E+00 0.15690480E+04</pdfrwt>
<pdfrwt beam="2">  1       -1 0.68741452E-01 0.15690480E+04</pdfrwt>
<totfact> 0.34976869E+01</totfact>
</mgrwt>
</event>
<event>
12    7  0.1735955E-007  0.2332122E+04  0.7818608E-02  0.8465362E-01
         -3   -1    0    0    0  501 -0.00000000000E+00  0.00000000000E+00  0.12699126354E+04  0.12699126354E+04  0.00000000000E+00 0.  1.
          2   -1    0    0  501    0  0.00000000000E+00 -0.00000000000E+00 -0.10707025351E+04  0.10707025351E+04  0.00000000000E+00 0. -1.
         24    2    1    2    0    0 -0.54963034753E+03 -0.53831308873E+03 -0.54292234534E+03  0.94483354624E+03  0.77918268693E+02 0.  0.
        254    2    1    2    0    0  0.54963034753E+03  0.53831308873E+03  0.74213244558E+03  0.13957816243E+04  0.89753622515E+03 0.  0.
         23    2    4    4    0    0 -0.16847856818E+03 -0.97608273729E+02  0.92832572604E+02  0.23378817128E+03  0.90147764580E+02 0.  0.
         23    2    4    4    0    0  0.71810891571E+03  0.63592136246E+03  0.64929987297E+03  0.11619934530E+04  0.92531430911E+02 0.  0.
          4    1    3    3  502    0 -0.24526737998E+03 -0.26541871537E+03 -0.21277487389E+03  0.41937611891E+03  0.00000000000E+00 0. -1.
         -3    1    3    3    0  502 -0.30436296755E+03 -0.27289437336E+03 -0.33014747145E+03  0.52545742733E+03  0.00000000000E+00 0.  1.
         13    1    5    5    0    0 -0.35823435671E+02 -0.40063984709E+02 -0.12147291101E+02  0.55099891971E+02  0.00000000000E+00 0.  1.
        -13    1    5    5    0    0 -0.13265513251E+03 -0.57544289019E+02  0.10497986370E+03  0.17868827931E+03  0.00000000000E+00 0. -1.
          1    1    6    6  503    0  0.52024272676E+03  0.45291554018E+03  0.41587979255E+03  0.80544458726E+03  0.00000000000E+00 0. -1.
         -1    1    6    6    0  503  0.19786618895E+03  0.18300582228E+03  0.23342008042E+03  0.35654886574E+03  0.00000000000E+00 0.  1.
<mgrwt>
<rscale>  0 0.23321224E+04</rscale>
<asrwt>0</asrwt>
<pdfrwt beam="1">  1        2 0.16472347E+00 0.23321224E+04</pdfrwt>
<pdfrwt beam="2">  1       -3 0.19537118E+00 0.23321224E+04</pdfrwt>
<totfact> 0.20282228E+00</totfact>
</mgrwt>
</event>
<event>
12    7  0.1735955E-007  0.1583669E+04  0.7818608E-02  0.8830644E-01
         -1   -1    0    0    0  501 -0.00000000000E+00  0.00000000000E+00  0.68415388566E+03  0.68415388566E+03  0.00000000000E+00 0.  1.
          2   -1    0    0  501    0  0.00000000000E+00 -0.00000000000E+00 -0.91646282832E+03  0.91646282832E+03  0.00000000000E+00 0. -1.
         24    2    1    2    0    0 -0.26776955070E+03  0.34049445153E+03  0.26104635385E+03  0.51234495647E+03  0.81946029540E+02 0.  0.
        254    2    1    2    0    0  0.26776955070E+03 -0.34049445153E+03 -0.49335529650E+03  0.10882717575E+04  0.86792797271E+03 0.  0.
         23    2    4    4    0    0  0.54465775853E+01 -0.22946596588E+03  0.21014434271E+03  0.32435062530E+03  0.91424223590E+02 0.  0.
         23    2    4    4    0    0  0.26232297312E+03 -0.11102848565E+03 -0.70349963921E+03  0.76392113221E+03  0.86735730941E+02 0.  0.
          4    1    3    3  502    0 -0.19620622317E+03  0.25411664984E+03  0.23309469893E+03  0.39674335836E+03  0.00000000000E+00 0. -1.
         -3    1    3    3    0  502 -0.71563327528E+02  0.86377801688E+02  0.27951654917E+02  0.11560159810E+03  0.00000000000E+00 0.  1.
         13    1    5    5    0    0 -0.33414387216E+02 -0.17263412176E+03  0.17038402996E+03  0.24484643950E+03  0.00000000000E+00 0.  1.
        -13    1    5    5    0    0  0.38860964801E+02 -0.56831844115E+02  0.39760312752E+02  0.79504185808E+02  0.00000000000E+00 0. -1.
          3    1    6    6  503    0  0.14193379945E+03 -0.48785348114E+02 -0.47612305778E+03  0.49921776788E+03  0.00000000000E+00 0. -1.
         -3    1    6    6    0  503  0.12038917366E+03 -0.62243137537E+02 -0.22737658143E+03  0.26470336433E+03  0.00000000000E+00 0.  1.
<mgrwt>
<rscale>  0 0.15836687E+04</rscale>
<asrwt>0</asrwt>
<pdfrwt beam="1">  1        2 0.14099428E+00 0.15836687E+04</pdfrwt>
<pdfrwt beam="2">  1       -1 0.10525444E+00 0.15836687E+04</pdfrwt>
<totfact> 0.26519006E+01</totfact>
</mgrwt>
</event>
<event>
12    7  0.1735955E-007  0.2568972E+04  0.7818608E-02  0.8378818E-01
         -1   -1    0    0    0  501 -0.00000000000E+00  0.00000000000E+00  0.45530057137E+03  0.45530057137E+03  0.00000000000E+00 0.  1.
          2   -1    0    0  501    0  0.00000000000E+00 -0.00000000000E+00 -0.36237688070E+04  0.36237688070E+04  0.00000000000E+00 0. -1.
         24    2    1    2    0    0 -0.39912929133E+03 -0.29221337111E+03  0.21233088895E+03  0.54417907608E+03  0.79709566449E+02 0.  0.
        254    2    1    2    0    0  0.39912929133E+03  0.29221337111E+03 -0.33807991245E+04  0.35348903022E+04  0.90606505449E+03 0.  0.
         23    2    4    4    0    0  0.49255251471E+03 -0.14869234142E+03 -0.23309468498E+04  0.23887663248E+04  0.90409876537E+02 0.  0.
         23    2    4    4    0    0 -0.93423223378E+02  0.44090571254E+03 -0.10498522747E+04  0.11461239774E+04  0.91019925721E+02 0.  0.
          4    1    3    3  502    0 -0.44198885395E+02 -0.54720617375E+02  0.81221345744E+01  0.70808590624E+02  0.00000000000E+00 0. -1.
         -3    1    3    3    0  502 -0.35493040593E+03 -0.23749275374E+03  0.20420875438E+03  0.47337048545E+03  0.00000000000E+00 0.  1.
         13    1    5    5    0    0 -0.39075420795E+01 -0.31974980212E+01 -0.22264990941E+02  0.22830302238E+02  0.00000000000E+00 0.  1.
        -13    1    5    5    0    0  0.49646005679E+03 -0.14549484340E+03 -0.23086818589E+04  0.23659360226E+04  0.00000000000E+00 0. -1.
          3    1    6    6  503    0 -0.67713555833E+02  0.40041820761E+03 -0.87214688077E+03  0.96206031426E+03  0.00000000000E+00 0. -1.
         -3    1    6    6    0  503 -0.25709667545E+02  0.40487504927E+02 -0.17770539393E+03  0.18406366315E+03  0.00000000000E+00 0.  1.
<mgrwt>
<rscale>  0 0.25689718E+04</rscale>
<asrwt>0</asrwt>
<pdfrwt beam="1">  1        2 0.55750288E+00 0.25689718E+04</pdfrwt>
<pdfrwt beam="2">  1       -1 0.70046244E-01 0.25689718E+04</pdfrwt>
<totfact> 0.13806451E+00</totfact>
</mgrwt>
</event>
<event>
12    7  0.1735955E-007  0.2198647E+04  0.7818608E-02  0.8518991E-01
         -1   -1    0    0    0  501 -0.00000000000E+00  0.00000000000E+00  0.54305704170E+03  0.54305704170E+03  0.00000000000E+00 0.  1.
          2   -1    0    0  501    0  0.00000000000E+00 -0.00000000000E+00 -0.22253880877E+04  0.22253880877E+04  0.00000000000E+00 0. -1.
         24    2    1    2    0    0  0.52084424501E+03 -0.55391173833E+02 -0.16373547958E+04  0.17222526427E+04  0.10429059588E+03 0.  0.
        254    2    1    2    0    0 -0.52084424501E+03  0.55391173833E+02 -0.44976250241E+02  0.10461924867E+04  0.90451586301E+03 0.  0.
         23    2    4    4    0    0 -0.49757846942E+03 -0.33562833857E+03 -0.16313988084E+03  0.62694798121E+03  0.78857057618E+02 0.  0.
         23    2    4    4    0    0 -0.23265775581E+02  0.39101951241E+03  0.11816363059E+03  0.41924450549E+03  0.91464508911E+02 0.  0.
          4    1    3    3  502    0  0.21806084870E+03  0.16915041267E+02 -0.78208012988E+03  0.81208742257E+03  0.00000000000E+00 0. -1.
         -3    1    3    3    0  502  0.30278339630E+03 -0.72306215101E+02 -0.85527466590E+03  0.91016522014E+03  0.00000000000E+00 0.  1.
         13    1    5    5    0    0 -0.40629769256E+03 -0.24246228501E+03 -0.10783861104E+03  0.48527820955E+03  0.00000000000E+00 0. -1.
        -13    1    5    5    0    0 -0.91280776864E+02 -0.93166053561E+02 -0.55301269798E+02  0.14166977166E+03  0.00000000000E+00 0.  1.
          2    1    6    6  503    0 -0.23494328638E+02  0.28348199079E+03  0.12664514294E+03  0.31137279074E+03  0.00000000000E+00 0. -1.
         -2    1    6    6    0  503  0.22855305689E+00  0.10753752162E+03 -0.84815123444E+01  0.10787171475E+03  0.00000000000E+00 0.  1.
<mgrwt>
<rscale>  0 0.21986475E+04</rscale>
<asrwt>0</asrwt>
<pdfrwt beam="1">  1        2 0.34236740E+00 0.21986475E+04</pdfrwt>
<pdfrwt beam="2">  1       -1 0.83547237E-01 0.21986475E+04</pdfrwt>
<totfact> 0.73868620E+00</totfact>
</mgrwt>
</event>
<event>
12    7  0.1735955E-007  0.1303085E+04  0.7818608E-02  0.9027122E-01
         -1   -1    0    0    0  501 -0.00000000000E+00  0.00000000000E+00  0.17971524835E+03  0.17971524835E+03  0.00000000000E+00 0.  1.
          2   -1    0    0  501    0  0.00000000000E+00 -0.00000000000E+00 -0.23621130533E+04  0.23621130533E+04  0.00000000000E+00 0. -1.
         24    2    1    2    0    0  0.26999020166E+03 -0.24853854338E+00 -0.20749390808E+03  0.35045160056E+03  0.82872381894E+02 0.  0.
        254    2    1    2    0    0 -0.26999020166E+03  0.24853854338E+00 -0.19749038969E+04  0.21913767011E+04  0.91048979863E+03 0.  0.
         23    2    4    4    0    0 -0.30086505849E+03  0.41659568237E+03 -0.10448155915E+04  0.11678902744E+04  0.90864331914E+02 0.  0.
         23    2    4    4    0    0  0.30874856827E+02 -0.41634714382E+03 -0.93008830535E+03  0.10234864267E+04  0.90343836863E+02 0.  0.
          4    1    3    3  502    0  0.10981519983E+03 -0.15322707693E+02 -0.13300777135E+03  0.17316244029E+03  0.00000000000E+00 0. -1.
         -3    1    3    3    0  502  0.16017500183E+03  0.15074169149E+02 -0.74486136726E+02  0.17728916028E+03  0.00000000000E+00 0.  1.
         13    1    5    5    0    0 -0.21927453076E+03  0.30263528004E+03 -0.66173859716E+03  0.75997855466E+03  0.00000000000E+00 0.  1.
        -13    1    5    5    0    0 -0.81590527728E+02  0.11396040233E+03 -0.38307699436E+03  0.40791171976E+03  0.00000000000E+00 0. -1.
          2    1    6    6  503    0 -0.10793063766E+01 -0.16802318391E+03 -0.27608494140E+03  0.32319630273E+03  0.00000000000E+00 0. -1.
         -2    1    6    6    0  503  0.31954163204E+02 -0.24832395992E+03 -0.65400336395E+03  0.70029012393E+03  0.00000000000E+00 0.  1.
<mgrwt>
<rscale>  0 0.13030852E+04</rscale>
<asrwt>0</asrwt>
<pdfrwt beam="1">  1        2 0.36340198E+00 0.13030852E+04</pdfrwt>
<pdfrwt beam="2">  1       -1 0.27648502E-01 0.13030852E+04</pdfrwt>
<totfact> 0.55086441E+01</totfact>
</mgrwt>
</event>
<event>
12    7  0.1735955E-007  0.2267509E+04  0.7818608E-02  0.8490843E-01
          2   -1    0    0  501    0  0.00000000000E+00  0.00000000000E+00  0.75669218920E+03  0.75669218920E+03  0.00000000000E+00 0. -1.
         -1   -1    0    0    0  501 -0.00000000000E+00 -0.00000000000E+00 -0.16987081977E+04  0.16987081977E+04  0.00000000000E+00 0.  1.
         24    2    1    2    0    0 -0.27856594169E+03  0.85406168614E+03 -0.73246576533E+03  0.11618779208E+04  0.80211333107E+02 0.  0.
        254    2    1    2    0    0  0.27856594169E+03 -0.85406168614E+03 -0.20955024315E+03  0.12935224660E+04  0.90679033858E+03 0.  0.
         23    2    4    4    0    0  0.58254819583E+03 -0.47658842794E+03 -0.24679793760E+03  0.79880767951E+03  0.10337096653E+03 0.  0.
         23    2    4    4    0    0 -0.30398225414E+03 -0.37747325820E+03  0.37247694449E+02  0.49471478653E+03  0.92000314045E+02 0.  0.
          4    1    3    3  502    0 -0.21867815232E+03  0.68145653685E+03 -0.54036327730E+03  0.89676954530E+03  0.00000000000E+00 0. -1.
         -3    1    3    3    0  502 -0.59887789373E+02  0.17260514929E+03 -0.19210248803E+03  0.26510837554E+03  0.00000000000E+00 0.  1.
         13    1    5    5    0    0  0.15010489056E+03 -0.10837334008E+03 -0.16321052457E+02  0.18585649239E+03  0.00000000000E+00 0. -1.
        -13    1    5    5    0    0  0.43244330527E+03 -0.36821508786E+03 -0.23047688514E+03  0.61295118711E+03  0.00000000000E+00 0.  1.
          4    1    6    6  503    0 -0.25402620415E+03 -0.34806097575E+03  0.10905589054E+02  0.43103907840E+03  0.00000000000E+00 0. -1.
         -4    1    6    6    0  503 -0.49956049991E+02 -0.29412282447E+02  0.26342105395E+02  0.63675708132E+02  0.00000000000E+00 0.  1.
<mgrwt>
<rscale>  0 0.22675090E+04</rscale>
<asrwt>0</asrwt>
<pdfrwt beam="1">  1        2 0.11641418E+00 0.22675090E+04</pdfrwt>
<pdfrwt beam="2">  1       -1 0.26133972E+00 0.22675090E+04</pdfrwt>
<totfact> 0.22610810E+00</totfact>
</mgrwt>
</event>
<event>
12    7  0.1735955E-007  0.2047598E+04  0.7818608E-02  0.8584685E-01
         -1   -1    0    0    0  501 -0.00000000000E+00  0.00000000000E+00  0.65140687657E+03  0.65140687657E+03  0.00000000000E+00 0.  1.
          2   -1    0    0  501    0  0.00000000000E+00 -0.00000000000E+00 -0.16090776398E+04  0.16090776398E+04  0.00000000000E+00 0. -1.
         24    2    1    2    0    0 -0.33294114753E+03  0.71490995325E+03 -0.13129866031E+03  0.80358430432E+03  0.81008314241E+02 0.  0.
        254    2    1    2    0    0  0.33294114753E+03 -0.71490995325E+03 -0.82637210292E+03  0.14569002121E+04  0.90427945152E+03 0.  0.
         23    2    4    4    0    0  0.40472593348E+03 -0.88868356580E+03 -0.60369064472E+03  0.11516834046E+04  0.91491576912E+02 0.  0.
         23    2    4    4    0    0 -0.71784785957E+02  0.17377361255E+03 -0.22268145820E+03  0.30521680742E+03  0.90663905689E+02 0.  0.
          4    1    3    3  502    0 -0.66963190746E+02  0.10114547427E+03  0.28992264792E+01  0.12133788112E+03  0.00000000000E+00 0. -1.
         -3    1    3    3    0  502 -0.26597795678E+03  0.61376447898E+03 -0.13419788679E+03  0.68224642320E+03  0.00000000000E+00 0.  1.
         13    1    5    5    0    0  0.30595822386E+03 -0.75439932133E+03 -0.50241189364E+03  0.95663288760E+03  0.00000000000E+00 0. -1.
        -13    1    5    5    0    0  0.98767709619E+02 -0.13428424447E+03 -0.10127875108E+03  0.19505051704E+03  0.00000000000E+00 0.  1.
          1    1    6    6  503    0 -0.45889162463E+02  0.10570719333E+03 -0.19655580243E+03  0.22784646020E+03  0.00000000000E+00 0. -1.
         -1    1    6    6    0  503 -0.25895623494E+02  0.68066419212E+02 -0.26125655766E+02  0.77370347224E+02  0.00000000000E+00 0.  1.
<mgrwt>
<rscale>  0 0.20475979E+04</rscale>
<asrwt>0</asrwt>
<pdfrwt beam="1">  1        2 0.24755040E+00 0.20475979E+04</pdfrwt>
<pdfrwt beam="2">  1       -1 0.10021644E+00 0.20475979E+04</pdfrwt>
<totfact> 0.11020191E+01</totfact>
</mgrwt>
</event>
<event>
12    7  0.1735955E-007  0.1538049E+04  0.7818608E-02  0.8859538E-01
          2   -1    0    0  501    0  0.00000000000E+00  0.00000000000E+00  0.21659859433E+04  0.21659859433E+04  0.00000000000E+00 0. -1.
         -1   -1    0    0    0  501 -0.00000000000E+00 -0.00000000000E+00 -0.27303904740E+03  0.27303904740E+03  0.00000000000E+00 0.  1.
         24    2    1    2    0    0 -0.23614208109E+03 -0.20626160777E+02  0.14402180704E+00  0.25010508667E+03  0.79774762107E+02 0.  0.
        254    2    1    2    0    0  0.23614208109E+03  0.20626160777E+02  0.18928028741E+04  0.21889199040E+04  0.10735357959E+04 0.  0.
         23    2    4    4    0    0  0.62491637660E+03 -0.14217304882E+03  0.13357809942E+04  0.14843451887E+04  0.90753077282E+02 0.  0.
         23    2    4    4    0    0 -0.38877429551E+03  0.16279920959E+03  0.55702187988E+03  0.70457471537E+03  0.92212360238E+02 0.  0.
          2    1    3    3  502    0 -0.34166548182E+02  0.18583274509E+02  0.19393606276E+02  0.43460362062E+02  0.00000000000E+00 0. -1.
         -1    1    3    3    0  502 -0.20197553290E+03 -0.39209435286E+02 -0.19249584469E+02  0.20664472461E+03  0.00000000000E+00 0.  1.
         13    1    5    5    0    0  0.49676062811E+03 -0.14385793229E+03  0.11139776157E+04  0.12281743991E+04  0.00000000000E+00 0. -1.
        -13    1    5    5    0    0  0.12815574849E+03  0.16848834753E+01  0.22180337854E+03  0.25617078958E+03  0.00000000000E+00 0.  1.
          3    1    6    6  503    0 -0.38417245278E+03  0.14715609199E+03  0.54996369590E+03  0.68680670912E+03  0.00000000000E+00 0. -1.
         -3    1    6    6    0  503 -0.46018427349E+01  0.15643117608E+02  0.70581839747E+01  0.17768006250E+02  0.00000000000E+00 0.  1.
<mgrwt>
<rscale>  0 0.15380491E+04</rscale>
<asrwt>0</asrwt>
<pdfrwt beam="1">  1        2 0.33322860E+00 0.15380491E+04</pdfrwt>
<pdfrwt beam="2">  1       -1 0.42006009E-01 0.15380491E+04</pdfrwt>
<totfact> 0.32987412E+01</totfact>
</mgrwt>
</event>
<event>
12    7  0.2110733E-007  0.1618687E+04  0.7818608E-02  0.8809149E-01
          2   -1    0    0  501    0  0.00000000000E+00  0.00000000000E+00  0.13031511006E+04  0.13031511006E+04  0.00000000000E+00 0. -1.
         -1   -1    0    0    0  501 -0.00000000000E+00 -0.00000000000E+00 -0.50265607316E+03  0.50265607316E+03  0.00000000000E+00 0.  1.
         24    2    1    2    0    0  0.20224762931E+03  0.22105084947E+03  0.80309300372E+03  0.86063683827E+03  0.77264566007E+02 0.  0.
        254    2    1    2    0    0 -0.20224762931E+03 -0.22105084947E+03 -0.25979763017E+01  0.94517033547E+03  0.89642212822E+03 0.  0.
         23    2    4    4    0    0 -0.77006475996E+02 -0.48306754971E+03  0.24456705082E+03  0.55412810979E+03  0.89222557632E+02 0.  0.
         23    2    4    4    0    0 -0.12524115331E+03  0.26201670024E+03 -0.24716502712E+03  0.39104222568E+03  0.86518055605E+02 0.  0.
          4    1    3    3  502    0  0.17201717262E+03  0.17255742932E+03  0.55636978746E+03  0.60738234621E+03  0.00000000000E+00 0. -1.
         -3    1    3    3    0  502  0.30230456690E+02  0.48493420147E+02  0.24672321626E+03  0.25325449206E+03  0.00000000000E+00 0.  1.
         13    1    5    5    0    0 -0.37842332233E+02 -0.42532480673E+03  0.21835097352E+03  0.47959397512E+03  0.00000000000E+00 0.  1.
        -13    1    5    5    0    0 -0.39164143763E+02 -0.57742742974E+02  0.26216077299E+02  0.74534134676E+02  0.00000000000E+00 0. -1.
          2    1    6    6  503    0 -0.12857228287E+03  0.21314154012E+03 -0.23063085906E+03  0.33933868214E+03  0.00000000000E+00 0.  1.
         -2    1    6    6    0  503  0.33311295558E+01  0.48875160120E+02 -0.16534168056E+02  0.51703543536E+02  0.00000000000E+00 0. -1.
<mgrwt>
<rscale>  0 0.16186869E+04</rscale>
<asrwt>0</asrwt>
<pdfrwt beam="1">  1        2 0.20048478E+00 0.16186869E+04</pdfrwt>
<pdfrwt beam="2">  1       -1 0.77331704E-01 0.16186869E+04</pdfrwt>
<totfact> 0.30125310E+01</totfact>
</mgrwt>
</event>
<event>
12    7  0.1735955E-007  0.3023628E+04  0.7818608E-02  0.8237016E-01
         -1   -1    0    0    0  501 -0.00000000000E+00  0.00000000000E+00  0.61782032965E+03  0.61782032965E+03  0.00000000000E+00 0.  1.
          2   -1    0    0  501    0  0.00000000000E+00 -0.00000000000E+00 -0.36994287266E+04  0.36994287266E+04  0.00000000000E+00 0. -1.
         24    2    1    2    0    0  0.35764928231E+03  0.17856418212E+03  0.47602999906E+03  0.62662630729E+03  0.79106211522E+02 0.  0.
        254    2    1    2    0    0 -0.35764928231E+03 -0.17856418212E+03 -0.35576383960E+04  0.36906227490E+04  0.89672021393E+03 0.  0.
         23    2    4    4    0    0 -0.44544836119E+03  0.25859086943E+03 -0.17357369592E+04  0.18128069324E+04  0.90513548582E+02 0.  0.
         23    2    4    4    0    0  0.87799078880E+02 -0.43715505155E+03 -0.18219014368E+04  0.18778158165E+04  0.89745072383E+02 0.  0.
          4    1    3    3  502    0  0.80947074389E+01  0.17170665397E+02  0.44072650821E+02  0.47987025216E+02  0.00000000000E+00 0. -1.
         -3    1    3    3    0  502  0.34955457488E+03  0.16139351672E+03  0.43195734824E+03  0.57863928207E+03  0.00000000000E+00 0.  1.
         13    1    5    5    0    0 -0.86007568613E+02  0.13565642224E+02 -0.25225152053E+03  0.26685606254E+03  0.00000000000E+00 0.  1.
        -13    1    5    5    0    0 -0.35944079258E+03  0.24502522720E+03 -0.14834854387E+04  0.15459508699E+04  0.00000000000E+00 0. -1.
          1    1    6    6  503    0  0.41190899582E+02 -0.37427734641E+03 -0.15014479098E+04  0.15479425209E+04  0.00000000000E+00 0. -1.
         -1    1    6    6    0  503  0.46608179298E+02 -0.62877705138E+02 -0.32045352701E+03  0.32987329560E+03  0.00000000000E+00 0.  1.
<mgrwt>
<rscale>  0 0.30236285E+04</rscale>
<asrwt>0</asrwt>
<pdfrwt beam="1">  1        2 0.56914288E+00 0.30236285E+04</pdfrwt>
<pdfrwt beam="2">  1       -1 0.95049282E-01 0.30236285E+04</pdfrwt>
<totfact> 0.60594791E-01</totfact>
</mgrwt>
</event>
<event>
12    7  0.1735955E-007  0.1981162E+04  0.7818608E-02  0.8615479E-01
         -1   -1    0    0    0  501 -0.00000000000E+00  0.00000000000E+00  0.89818286525E+03  0.89818286525E+03  0.00000000000E+00 0.  1.
          2   -1    0    0  501    0  0.00000000000E+00 -0.00000000000E+00 -0.10924844516E+04  0.10924844516E+04  0.00000000000E+00 0. -1.
         24    2    1    2    0    0 -0.36983207091E+02 -0.67309097486E+03 -0.47659372653E+03  0.82942352938E+03  0.79891131322E+02 0.  0.
        254    2    1    2    0    0  0.36983207091E+02  0.67309097486E+03  0.28229214022E+03  0.11612437874E+04  0.90242953375E+03 0.  0.
         23    2    4    4    0    0  0.25995636281E+03 -0.31283705956E+02  0.30868415145E+03  0.41592939683E+03  0.95683734108E+02 0.  0.
         23    2    4    4    0    0 -0.22297315572E+03  0.70437468082E+03 -0.26392011234E+02  0.74531439060E+03  0.94531917535E+02 0.  0.
          4    1    3    3  502    0 -0.23780617088E+02 -0.64005421392E+03 -0.46671286531E+03  0.79249972438E+03  0.00000000000E+00 0. -1.
         -3    1    3    3    0  502 -0.13202590003E+02 -0.33036760948E+02 -0.98808612213E+01  0.36923804994E+02  0.00000000000E+00 0.  1.
         13    1    5    5    0    0  0.25537272862E+03 -0.49274789395E+02  0.28497363379E+03  0.38581499109E+03  0.00000000000E+00 0. -1.
        -13    1    5    5    0    0  0.45836341829E+01  0.17991083439E+02  0.23710517664E+02  0.30114405747E+02  0.00000000000E+00 0.  1.
          3    1    6    6  503    0 -0.19870579625E+03  0.48554017155E+03 -0.22296493420E+02  0.52510035733E+03  0.00000000000E+00 0. -1.
         -3    1    6    6    0  503 -0.24267359464E+02  0.21883450927E+03 -0.40955178145E+01  0.22021403327E+03  0.00000000000E+00 0.  1.
<mgrwt>
<rscale>  0 0.19811621E+04</rscale>
<asrwt>0</asrwt>
<pdfrwt beam="1">  1        2 0.16807453E+00 0.19811621E+04</pdfrwt>
<pdfrwt beam="2">  1       -1 0.13818198E+00 0.19811621E+04</pdfrwt>
<totfact> 0.10135890E+01</totfact>
</mgrwt>
</event>
<event>
12    7  0.1735955E-007  0.1491013E+04  0.7818608E-02  0.8890452E-01
         -1   -1    0    0    0  501 -0.00000000000E+00  0.00000000000E+00  0.36025544563E+03  0.36025544563E+03  0.00000000000E+00 0.  1.
          2   -1    0    0  501    0  0.00000000000E+00 -0.00000000000E+00 -0.15427374674E+04  0.15427374674E+04  0.00000000000E+00 0. -1.
         24    2    1    2    0    0  0.18904489654E+03  0.13375837976E+03  0.13724543289E+03  0.28279694246E+03  0.86651744085E+02 0.  0.
        254    2    1    2    0    0 -0.18904489654E+03 -0.13375837976E+03 -0.13197274546E+04  0.16201959705E+04  0.91089250264E+03 0.  0.
         23    2    4    4    0    0 -0.54295640209E+03 -0.11565884956E+03 -0.91860420298E+03  0.10770444893E+04  0.89512714780E+02 0.  0.
         23    2    4    4    0    0  0.35391150555E+03 -0.18099530199E+02 -0.40112325167E+03  0.54315148127E+03  0.92372733098E+02 0.  0.
          2    1    3    3  502    0  0.77825282563E+02  0.63363793801E+02  0.11942245769E+02  0.10106612788E+03  0.00000000000E+00 0. -1.
         -1    1    3    3    0  502  0.11121961398E+03  0.70394585956E+02  0.12530318712E+03  0.18173081458E+03  0.00000000000E+00 0.  1.
         13    1    5    5    0    0 -0.22006144746E+03 -0.50167384779E+02 -0.29159442301E+03  0.36874261306E+03  0.00000000000E+00 0.  1.
        -13    1    5    5    0    0 -0.32289495463E+03 -0.65491464779E+02 -0.62700977997E+03  0.70830187622E+03  0.00000000000E+00 0. -1.
          4    1    6    6  503    0  0.29268101015E+03  0.18399868155E+02 -0.34219473226E+03  0.45066391428E+03  0.00000000000E+00 0. -1.
         -4    1    6    6    0  503  0.61230495402E+02 -0.36499398354E+02 -0.58928519412E+02  0.92487566988E+02  0.00000000000E+00 0.  1.
<mgrwt>
<rscale>  0 0.14910125E+04</rscale>
<asrwt>0</asrwt>
<pdfrwt beam="1">  1        2 0.23734423E+00 0.14910125E+04</pdfrwt>
<pdfrwt beam="2">  1       -1 0.55423914E-01 0.14910125E+04</pdfrwt>
<totfact> 0.43541518E+01</totfact>
</mgrwt>
</event>
<event>
12    7  0.1735955E-007  0.1370380E+04  0.7818608E-02  0.8975542E-01
         -1   -1    0    0    0  501 -0.00000000000E+00  0.00000000000E+00  0.27936026363E+03  0.27936026363E+03  0.00000000000E+00 0.  1.
          2   -1    0    0  501    0  0.00000000000E+00 -0.00000000000E+00 -0.16805742192E+04  0.16805742192E+04  0.00000000000E+00 0. -1.
         24    2    1    2    0    0  0.10697282171E+03  0.20094420625E+03 -0.85060970029E+03  0.88414517694E+03  0.79712439865E+02 0.  0.
        254    2    1    2    0    0 -0.10697282171E+03 -0.20094420625E+03 -0.55060425527E+03  0.10757893059E+04  0.89573200574E+03 0.  0.
         23    2    4    4    0    0  0.41621503131E+02 -0.19161831016E+03  0.20694901489E+03  0.29856450169E+03  0.88673223648E+02 0.  0.
         23    2    4    4    0    0 -0.14859432484E+03 -0.93258960867E+01 -0.75755327016E+03  0.77722480419E+03  0.89577862231E+02 0.  0.
          2    1    3    3  502    0  0.93444255869E+02  0.16128788159E+03 -0.55230210529E+03  0.58290927700E+03  0.00000000000E+00 0. -1.
         -1    1    3    3    0  502  0.13528565836E+02  0.39656324662E+02 -0.29830759500E+03  0.30123589994E+03  0.00000000000E+00 0.  1.
         13    1    5    5    0    0  0.68012944440E+02 -0.11016241856E+03  0.11980003976E+03  0.17639038693E+03  0.00000000000E+00 0. -1.
        -13    1    5    5    0    0 -0.26391441309E+02 -0.81455891603E+02  0.87148975132E+02  0.12217411476E+03  0.00000000000E+00 0.  1.
          3    1    6    6  503    0 -0.92140832320E+02  0.32188073820E+02 -0.33605822507E+03  0.34994447519E+03  0.00000000000E+00 0. -1.
         -3    1    6    6    0  503 -0.56453492517E+02 -0.41513969907E+02 -0.42149504509E+03  0.42728032900E+03  0.00000000000E+00 0.  1.
<mgrwt>
<rscale>  0 0.13703805E+04</rscale>
<asrwt>0</asrwt>
<pdfrwt beam="1">  1        2 0.25854988E+00 0.13703805E+04</pdfrwt>
<pdfrwt beam="2">  1       -1 0.42978502E-01 0.13703805E+04</pdfrwt>
<totfact> 0.59603505E+01</totfact>
</mgrwt>
</event>
<event>
12    7  0.1735955E-007  0.2019563E+04  0.7818608E-02  0.8597528E-01
          4   -1    0    0  501    0  0.00000000000E+00  0.00000000000E+00  0.70021441269E+03  0.70021441269E+03  0.00000000000E+00 0. -1.
         -3   -1    0    0    0  501 -0.00000000000E+00 -0.00000000000E+00 -0.14562098504E+04  0.14562098504E+04  0.00000000000E+00 0.  1.
         24    2    1    2    0    0 -0.61121299956E+03  0.26024361756E+03 -0.78493942447E+03  0.10329012929E+04  0.97196242563E+02 0.  0.
        254    2    1    2    0    0  0.61121299956E+03 -0.26024361756E+03  0.28943986795E+02  0.11235229701E+04  0.90562577188E+03 0.  0.
         23    2    4    4    0    0  0.54453645596E+03  0.65581725986E+02  0.34707240716E+03  0.65550192701E+03  0.91665728882E+02 0.  0.
         23    2    4    4    0    0  0.66676543609E+02 -0.32582534354E+03 -0.31812842037E+03  0.46802104311E+03  0.85029929940E+02 0.  0.
          4    1    3    3  502    0 -0.30563026294E+03  0.12196518451E+03 -0.46266273469E+03  0.56775185594E+03  0.00000000000E+00 0. -1.
         -3    1    3    3    0  502 -0.30558273662E+03  0.13827843304E+03 -0.32227668978E+03  0.46514943700E+03  0.00000000000E+00 0.  1.
         13    1    5    5    0    0  0.12793730135E+03 -0.89212901344E+01  0.11800142755E+03  0.17427529773E+03  0.00000000000E+00 0. -1.
        -13    1    5    5    0    0  0.41659915461E+03  0.74503016121E+02  0.22907097961E+03  0.48122662928E+03  0.00000000000E+00 0.  1.
          3    1    6    6  503    0  0.50822368750E+02 -0.14266512606E+03 -0.94451369111E+02  0.17848616890E+03  0.00000000000E+00 0. -1.
         -3    1    6    6    0  503  0.15854174859E+02 -0.18316021748E+03 -0.22367705125E+03  0.28953487421E+03  0.00000000000E+00 0.  1.
<mgrwt>
<rscale>  0 0.20195634E+04</rscale>
<asrwt>0</asrwt>
<pdfrwt beam="1">  1        4 0.10772530E+00 0.20195634E+04</pdfrwt>
<pdfrwt beam="2">  1       -3 0.22403228E+00 0.20195634E+04</pdfrwt>
<totfact> 0.15240952E-01</totfact>
</mgrwt>
</event>
<event>
12    7  0.1735955E-007  0.1460827E+04  0.7818608E-02  0.8910929E-01
         -1   -1    0    0    0  501 -0.00000000000E+00  0.00000000000E+00  0.56637342585E+03  0.56637342585E+03  0.00000000000E+00 0.  1.
          2   -1    0    0  501    0  0.00000000000E+00 -0.00000000000E+00 -0.94196465112E+03  0.94196465112E+03  0.00000000000E+00 0. -1.
         24    2    1    2    0    0  0.26443738586E+03  0.30892366605E+03  0.72861220162E+02  0.42158487858E+03  0.84048140704E+02 0.  0.
        254    2    1    2    0    0 -0.26443738586E+03 -0.30892366605E+03 -0.44845244543E+03  0.10867531984E+04  0.90253086148E+03 0.  0.
         23    2    4    4    0    0  0.22209506506E+03 -0.15241512304E+03 -0.48897405789E+03  0.56568317250E+03  0.91352256138E+02 0.  0.
         23    2    4    4    0    0 -0.48653245092E+03 -0.15650854301E+03  0.40521612455E+02  0.52107002590E+03  0.93076425493E+02 0.  0.
          2    1    3    3  502    0  0.68456320997E+02  0.33564121223E+02  0.24973418441E+02  0.80227736766E+02  0.00000000000E+00 0. -1.
         -1    1    3    3    0  502  0.19598106486E+03  0.27535954483E+03  0.47887801721E+02  0.34135714181E+03  0.00000000000E+00 0.  1.
         13    1    5    5    0    0  0.77466245237E+02 -0.36175141302E+02 -0.24279491867E+03  0.25740829927E+03  0.00000000000E+00 0.  1.
        -13    1    5    5    0    0  0.14462881982E+03 -0.11623998174E+03 -0.24617913922E+03  0.30827487323E+03  0.00000000000E+00 0. -1.
          1    1    6    6  503    0 -0.40720166023E+03 -0.12608705137E+03 -0.15090879930E+01  0.42627856381E+03  0.00000000000E+00 0. -1.
         -1    1    6    6    0  503 -0.79330790691E+02 -0.30421491644E+02  0.42030700448E+02  0.94791462092E+02  0.00000000000E+00 0.  1.
<mgrwt>
<rscale>  0 0.14608268E+04</rscale>
<asrwt>0</asrwt>
<pdfrwt beam="1">  1        2 0.14491764E+00 0.14608268E+04</pdfrwt>
<pdfrwt beam="2">  1       -1 0.87134374E-01 0.14608268E+04</pdfrwt>
<totfact> 0.39429457E+01</totfact>
</mgrwt>
</event>
<event>
12    7  0.1735955E-007  0.1677951E+04  0.7818608E-02  0.8774041E-01
         -1   -1    0    0    0  501 -0.00000000000E+00  0.00000000000E+00  0.20280045492E+03  0.20280045492E+03  0.00000000000E+00 0.  1.
          2   -1    0    0  501    0  0.00000000000E+00 -0.00000000000E+00 -0.34707987007E+04  0.34707987007E+04  0.00000000000E+00 0. -1.
         24    2    1    2    0    0 -0.26740625666E+03  0.29570496958E+03 -0.21180743004E+04  0.21567301175E+04  0.79363233027E+02 0.  0.
        254    2    1    2    0    0  0.26740625666E+03 -0.29570496958E+03 -0.11499239454E+04  0.15168690381E+04  0.90532815234E+03 0.  0.
         23    2    4    4    0    0  0.29771871905E+03 -0.84898407371E+02  0.21221374350E+02  0.32365414973E+03  0.91964594612E+02 0.  0.
         23    2    4    4    0    0 -0.30312462389E+02 -0.21080656221E+03 -0.11711453197E+04  0.11932148884E+04  0.82596354696E+02 0.  0.
          4    1    3    3  502    0 -0.23371462201E+03  0.27673112296E+03 -0.17821479577E+04  0.18185857093E+04  0.00000000000E+00 0. -1.
         -3    1    3    3    0  502 -0.33691634652E+02  0.18973846615E+02 -0.33592634265E+03  0.33814440819E+03  0.00000000000E+00 0.  1.
         13    1    5    5    0    0  0.25384058120E+03 -0.42160937642E+02 -0.41603793094E+01  0.25735169338E+03  0.00000000000E+00 0. -1.
        -13    1    5    5    0    0  0.43878137849E+02 -0.42737469730E+02  0.25381753659E+02  0.66302456355E+02  0.00000000000E+00 0.  1.
          3    1    6    6  503    0 -0.49168096832E+02 -0.87757924873E+02 -0.42394770445E+03  0.43571849999E+03  0.00000000000E+00 0. -1.
         -3    1    6    6    0  503  0.18855634443E+02 -0.12304863734E+03 -0.74719761530E+03  0.75749638838E+03  0.00000000000E+00 0.  1.
<mgrwt>
<rscale>  0 0.16779506E+04</rscale>
<asrwt>0</asrwt>
<pdfrwt beam="1">  1        2 0.53396907E+00 0.16779506E+04</pdfrwt>
<pdfrwt beam="2">  1       -1 0.31200068E-01 0.16779506E+04</pdfrwt>
<totfact> 0.88936475E+00</totfact>
</mgrwt>
</event>
<event>
12    7  0.1735955E-007  0.1700865E+04  0.7818608E-02  0.8760871E-01
          2   -1    0    0  501    0  0.00000000000E+00  0.00000000000E+00  0.11479921611E+04  0.11479921611E+04  0.00000000000E+00 0. -1.
         -1   -1    0    0    0  501 -0.00000000000E+00 -0.00000000000E+00 -0.62999997105E+03  0.62999997105E+03  0.00000000000E+00 0.  1.
         24    2    1    2    0    0  0.38249664739E+03  0.44395508202E+03  0.26731372666E+03  0.64897329801E+03  0.79434960532E+02 0.  0.
        254    2    1    2    0    0 -0.38249664739E+03 -0.44395508202E+03  0.25067846341E+03  0.11290188342E+04  0.93190344766E+03 0.  0.
         23    2    4    4    0    0 -0.60112593282E+03 -0.52366375334E+03  0.42996196573E+02  0.80359479339E+03  0.91322534901E+02 0.  0.
         23    2    4    4    0    0  0.21862928543E+03  0.79708671319E+02  0.20768226684E+03  0.32542404077E+03  0.92825888738E+02 0.  0.
          4    1    3    3  502    0  0.35330299099E+03  0.41618146193E+03  0.26909481558E+03  0.60863949302E+03  0.00000000000E+00 0. -1.
         -3    1    3    3    0  502  0.29193656401E+02  0.27773620085E+02 -0.17810889221E+01  0.40333804983E+02  0.00000000000E+00 0.  1.
         13    1    5    5    0    0 -0.55086522922E+03 -0.48277285945E+03  0.64537225164E+02  0.73531434639E+03  0.00000000000E+00 0. -1.
        -13    1    5    5    0    0 -0.50260703599E+02 -0.40890893888E+02 -0.21541028591E+02  0.68280446996E+02  0.00000000000E+00 0.  1.
          1    1    6    6  503    0  0.24801298255E+02 -0.19602134874E+02  0.37382794290E+02  0.48957342613E+02  0.00000000000E+00 0.  1.
         -1    1    6    6    0  503  0.19382798717E+03  0.99310806193E+02  0.17029947255E+03  0.27646669816E+03  0.00000000000E+00 0. -1.
<mgrwt>
<rscale>  0 0.17008645E+04</rscale>
<asrwt>0</asrwt>
<pdfrwt beam="1">  1        2 0.17661418E+00 0.17008645E+04</pdfrwt>
<pdfrwt beam="2">  1       -1 0.96923072E-01 0.17008645E+04</pdfrwt>
<totfact> 0.22612624E+01</totfact>
</mgrwt>
</event>
<event>
12    7  0.1735955E-007  0.1479401E+04  0.7818608E-02  0.8898267E-01
         -1   -1    0    0    0  501 -0.00000000000E+00  0.00000000000E+00  0.40866512570E+03  0.40866512570E+03  0.00000000000E+00 0.  1.
          2   -1    0    0  501    0  0.00000000000E+00 -0.00000000000E+00 -0.13388886644E+04  0.13388886644E+04  0.00000000000E+00 0. -1.
         24    2    1    2    0    0  0.37450777815E+03  0.15003799101E+03 -0.58134200006E+03  0.71208081862E+03  0.79580755007E+02 0.  0.
        254    2    1    2    0    0 -0.37450777815E+03 -0.15003799101E+03 -0.34888153867E+03  0.10354729715E+04  0.88753505400E+03 0.  0.
         23    2    4    4    0    0  0.17331353664E+03  0.23014634736E+03 -0.10520265323E+03  0.31994855090E+03  0.91074440933E+02 0.  0.
         23    2    4    4    0    0 -0.54782131478E+03 -0.38018433837E+03 -0.24367888544E+03  0.71552442062E+03  0.89148601870E+02 0.  0.
          4    1    3    3  502    0  0.32628192696E+03  0.13752446366E+03 -0.45693374750E+03  0.57806688503E+03  0.00000000000E+00 0. -1.
         -3    1    3    3    0  502  0.48225851184E+02  0.12513527349E+02 -0.12440825256E+03  0.13401393358E+03  0.00000000000E+00 0.  1.
         13    1    5    5    0    0 -0.10434210030E+02  0.21178014700E+02 -0.12049300692E+02  0.26505974661E+02  0.00000000000E+00 0. -1.
        -13    1    5    5    0    0  0.18374774667E+03  0.20896833266E+03 -0.93153352539E+02  0.29344257624E+03  0.00000000000E+00 0.  1.
          3    1    6    6  503    0 -0.25695330993E+03 -0.12836380998E+03 -0.12134731694E+03  0.31181315323E+03  0.00000000000E+00 0. -1.
         -3    1    6    6    0  503 -0.29086800485E+03 -0.25182052839E+03 -0.12233156850E+03  0.40371126739E+03  0.00000000000E+00 0.  1.
<mgrwt>
<rscale>  0 0.14794014E+04</rscale>
<asrwt>0</asrwt>
<pdfrwt beam="1">  1        2 0.20598287E+00 0.14794014E+04</pdfrwt>
<pdfrwt beam="2">  1       -1 0.62871558E-01 0.14794014E+04</pdfrwt>
<totfact> 0.44412975E+01</totfact>
</mgrwt>
</event>
<event>
12    7  0.1735955E-007  0.1974754E+04  0.7818608E-02  0.8618516E-01
         -1   -1    0    0    0  501 -0.00000000000E+00  0.00000000000E+00  0.40485441102E+03  0.40485441102E+03  0.00000000000E+00 0.  1.
          2   -1    0    0  501    0  0.00000000000E+00 -0.00000000000E+00 -0.24080597238E+04  0.24080597238E+04  0.00000000000E+00 0. -1.
         24    2    1    2    0    0  0.13933389054E+03  0.71268666697E+03 -0.11995830122E+04  0.14045712106E+04  0.80527413235E+02 0.  0.
        254    2    1    2    0    0 -0.13933389054E+03 -0.71268666697E+03 -0.80362230059E+03  0.14083429242E+04  0.90015819264E+03 0.  0.
         23    2    4    4    0    0 -0.45379810678E+02 -0.90233975498E+03 -0.53451820553E+03  0.10538654616E+04  0.92985689326E+02 0.  0.
         23    2    4    4    0    0 -0.93954079858E+02  0.18965308801E+03 -0.26910409506E+03  0.35447746262E+03  0.91878150892E+02 0.  0.
          2    1    3    3  502    0  0.11686735501E+03  0.66713154625E+03 -0.10821647501E+04  0.12766373898E+04  0.00000000000E+00 0. -1.
         -1    1    3    3    0  502  0.22466535527E+02  0.45555120715E+02 -0.11741826206E+03  0.12793382081E+03  0.00000000000E+00 0.  1.
         13    1    5    5    0    0 -0.48073081932E+02 -0.85750852924E+03 -0.52879273079E+03  0.10085899321E+04  0.00000000000E+00 0. -1.
        -13    1    5    5    0    0  0.26932712532E+01 -0.44831225736E+02 -0.57254747415E+01  0.45275529506E+02  0.00000000000E+00 0.  1.
          4    1    6    6  503    0 -0.56291907149E+01  0.11227363513E+03 -0.14720127929E+03  0.18521682850E+03  0.00000000000E+00 0. -1.
         -4    1    6    6    0  503 -0.88324889144E+02  0.77379452879E+02 -0.12190281577E+03  0.16926063412E+03  0.00000000000E+00 0.  1.
<mgrwt>
<rscale>  0 0.19747543E+04</rscale>
<asrwt>0</asrwt>
<pdfrwt beam="1">  1        2 0.37047072E+00 0.19747543E+04</pdfrwt>
<pdfrwt beam="2">  1       -1 0.62285295E-01 0.19747543E+04</pdfrwt>
<totfact> 0.10903203E+01</totfact>
</mgrwt>
</event>
<event>
12    7  0.1735955E-007  0.1863698E+04  0.7818608E-02  0.8673140E-01
          2   -1    0    0  501    0  0.00000000000E+00  0.00000000000E+00  0.97673525718E+03  0.97673525718E+03  0.00000000000E+00 0. -1.
         -1   -1    0    0    0  501 -0.00000000000E+00 -0.00000000000E+00 -0.88902556419E+03  0.88902556419E+03  0.00000000000E+00 0.  1.
         24    2    1    2    0    0 -0.45772650320E+03 -0.47599365327E+03  0.31586439538E+03  0.73438634259E+03  0.58902243005E+02 0.  0.
        254    2    1    2    0    0  0.45772650320E+03  0.47599365327E+03 -0.22815470239E+03  0.11313744788E+04  0.88987085205E+03 0.  0.
         23    2    4    4    0    0  0.66754161192E+03  0.14671278584E+03 -0.43759497234E+02  0.69046495670E+03  0.87695596562E+02 0.  0.
         23    2    4    4    0    0 -0.20981510872E+03  0.32928086743E+03 -0.18439520516E+03  0.44090952209E+03  0.89170317256E+02 0.  0.
          4    1    3    3  502    0 -0.44684678807E+03 -0.46469724049E+03  0.31748655779E+03  0.71861901708E+03  0.00000000000E+00 0. -1.
         -3    1    3    3    0  502 -0.10879715124E+02 -0.11296412779E+02 -0.16221624100E+01  0.15767325510E+02  0.00000000000E+00 0.  1.
         13    1    5    5    0    0  0.55395264114E+03  0.87233892751E+02 -0.39666746977E+02  0.56218033716E+03  0.00000000000E+00 0. -1.
        -13    1    5    5    0    0  0.11358897078E+03  0.59478893090E+02 -0.40927502574E+01  0.12828461954E+03  0.00000000000E+00 0.  1.
          3    1    6    6  503    0 -0.20813349009E+03  0.31674181019E+03 -0.19328646320E+03  0.42544633137E+03  0.00000000000E+00 0. -1.
         -3    1    6    6    0  503 -0.16816186253E+01  0.12539057240E+02  0.88912580377E+01  0.15463190717E+02  0.00000000000E+00 0.  1.
<mgrwt>
<rscale>  0 0.18636981E+04</rscale>
<asrwt>0</asrwt>
<pdfrwt beam="1">  1        2 0.15026696E+00 0.18636981E+04</pdfrwt>
<pdfrwt beam="2">  1       -1 0.13677316E+00 0.18636981E+04</pdfrwt>
<totfact> 0.12448255E+01</totfact>
</mgrwt>
</event>
<event>
12    7  0.1735955E-007  0.1606164E+04  0.7818608E-02  0.8816770E-01
         -1   -1    0    0    0  501 -0.00000000000E+00  0.00000000000E+00  0.34882080723E+03  0.34882080723E+03  0.00000000000E+00 0.  1.
          2   -1    0    0  501    0  0.00000000000E+00 -0.00000000000E+00 -0.18489158106E+04  0.18489158106E+04  0.00000000000E+00 0. -1.
         24    2    1    2    0    0  0.34362852302E+03  0.10364281832E+03  0.42906435763E+02  0.37025658449E+03  0.80165956020E+02 0.  0.
        254    2    1    2    0    0 -0.34362852302E+03 -0.10364281832E+03 -0.15430014391E+04  0.18274800333E+04  0.91104743863E+03 0.  0.
         23    2    4    4    0    0 -0.43038997458E+03 -0.26960729404E+03 -0.36636201414E+03  0.63272830578E+03  0.90555840858E+02 0.  0.
         23    2    4    4    0    0  0.86761451556E+02  0.16596447572E+03 -0.11766394250E+04  0.11947517275E+04  0.88767096216E+02 0.  0.
          4    1    3    3  502    0  0.27330595271E+03  0.55081827599E+02  0.10947257847E+02  0.27901611777E+03  0.00000000000E+00 0. -1.
         -3    1    3    3    0  502  0.70322570308E+02  0.48560990718E+02  0.31959177916E+02  0.91240466720E+02  0.00000000000E+00 0.  1.
         13    1    5    5    0    0 -0.27586263360E+03 -0.12022430736E+03 -0.21082288688E+03  0.36742395993E+03  0.00000000000E+00 0. -1.
        -13    1    5    5    0    0 -0.15452734098E+03 -0.14938298667E+03 -0.15553912725E+03  0.26530434584E+03  0.00000000000E+00 0.  1.
          1    1    6    6  503    0  0.33948934474E+02  0.36454331317E+02 -0.57115487010E+03  0.57332306255E+03  0.00000000000E+00 0. -1.
         -1    1    6    6    0  503  0.52812517082E+02  0.12951014440E+03 -0.60548455486E+03  0.62142866496E+03  0.00000000000E+00 0.  1.
<mgrwt>
<rscale>  0 0.16061635E+04</rscale>
<asrwt>0</asrwt>
<pdfrwt beam="1">  1        2 0.28444858E+00 0.16061635E+04</pdfrwt>
<pdfrwt beam="2">  1       -1 0.53664740E-01 0.16061635E+04</pdfrwt>
<totfact> 0.31012275E+01</totfact>
</mgrwt>
</event>
<event>
12    7  0.1735955E-007  0.1203395E+04  0.7818608E-02  0.9109890E-01
         -1   -1    0    0    0  501 -0.00000000000E+00  0.00000000000E+00  0.44848034223E+03  0.44848034223E+03  0.00000000000E+00 0.  1.
          2   -1    0    0  501    0  0.00000000000E+00 -0.00000000000E+00 -0.80725975314E+03  0.80725975314E+03  0.00000000000E+00 0. -1.
         24    2    1    2    0    0  0.14028555216E+02  0.26194737219E+03 -0.14784756776E+03  0.31170601018E+03  0.80551271425E+02 0.  0.
        254    2    1    2    0    0 -0.14028555216E+02 -0.26194737219E+03 -0.21093184315E+03  0.94403408519E+03  0.88198349496E+03 0.  0.
         23    2    4    4    0    0  0.18133813726E+03 -0.18902733510E+03  0.28493050962E+03  0.39815678716E+03  0.93426861265E+02 0.  0.
         23    2    4    4    0    0 -0.19536669248E+03 -0.72920037089E+02 -0.49586235277E+03  0.54587729803E+03  0.92828203019E+02 0.  0.
          2    1    3    3  502    0 -0.11737977430E+02  0.14387678806E+03 -0.11992982383E+03  0.18767384714E+03  0.00000000000E+00 0. -1.
         -1    1    3    3    0  502  0.25766532645E+02  0.11807058414E+03 -0.27917743937E+02  0.12403216304E+03  0.00000000000E+00 0.  1.
         13    1    5    5    0    0  0.15697841762E+02 -0.48616206363E+02  0.10259469852E+03  0.11461077576E+03  0.00000000000E+00 0.  1.
        -13    1    5    5    0    0  0.16564029550E+03 -0.14041112874E+03  0.18233581110E+03  0.28354601139E+03  0.00000000000E+00 0. -1.
          4    1    6    6  503    0 -0.12777688867E+03 -0.68296370662E+02 -0.23256167169E+03  0.27400047201E+03  0.00000000000E+00 0. -1.
         -4    1    6    6    0  503 -0.67589803803E+02 -0.46236664274E+01 -0.26330068108E+03  0.27187682602E+03  0.00000000000E+00 0.  1.
<mgrwt>
<rscale>  0 0.12033954E+04</rscale>
<asrwt>0</asrwt>
<pdfrwt beam="1">  1        2 0.12419381E+00 0.12033954E+04</pdfrwt>
<pdfrwt beam="2">  1       -1 0.68996977E-01 0.12033954E+04</pdfrwt>
<totfact> 0.81482601E+01</totfact>
</mgrwt>
</event>
<event>
12    7  0.1735955E-007  0.1521444E+04  0.7818608E-02  0.8870317E-01
         -1   -1    0    0    0  501 -0.00000000000E+00  0.00000000000E+00  0.51105923054E+03  0.51105923054E+03  0.00000000000E+00 0.  1.
          2   -1    0    0  501    0  0.00000000000E+00 -0.00000000000E+00 -0.11323498987E+04  0.11323498987E+04  0.00000000000E+00 0. -1.
         24    2    1    2    0    0 -0.28284884236E+03  0.81078006964E+02 -0.61219305219E+03  0.68395081023E+03  0.80195179520E+02 0.  0.
        254    2    1    2    0    0  0.28284884236E+03 -0.81078006964E+02 -0.90976159735E+01  0.95945831903E+03  0.91318146527E+03 0.  0.
         23    2    4    4    0    0  0.35127044777E+03  0.21700708434E+02 -0.39933728258E+03  0.54004561127E+03  0.91198403382E+02 0.  0.
         23    2    4    4    0    0 -0.68421605409E+02 -0.10277871540E+03  0.39023966660E+03  0.41941270776E+03  0.91515253439E+02 0.  0.
          2    1    3    3  502    0 -0.26632157583E+03  0.54630729487E+02 -0.52261977204E+03  0.58910366192E+03  0.00000000000E+00 0. -1.
         -1    1    3    3    0  502 -0.16527266527E+02  0.26447277477E+02 -0.89573280152E+02  0.94847148307E+02  0.00000000000E+00 0.  1.
         13    1    5    5    0    0  0.20084823935E+03  0.29153128042E+02 -0.16537201546E+03  0.26179729491E+03  0.00000000000E+00 0. -1.
        -13    1    5    5    0    0  0.15042220842E+03 -0.74524196078E+01 -0.23396526711E+03  0.27824831636E+03  0.00000000000E+00 0.  1.
          3    1    6    6  503    0 -0.11597150532E+02 -0.23765392282E+02  0.12339840902E+02  0.29181491467E+02  0.00000000000E+00 0. -1.
         -3    1    6    6    0  503 -0.56824454877E+02 -0.79013323116E+02  0.37789982570E+03  0.39023121629E+03  0.00000000000E+00 0.  1.
<mgrwt>
<rscale>  0 0.15214439E+04</rscale>
<asrwt>0</asrwt>
<pdfrwt beam="1">  1        2 0.17420767E+00 0.15214439E+04</pdfrwt>
<pdfrwt beam="2">  1       -1 0.78624498E-01 0.15214439E+04</pdfrwt>
<totfact> 0.37062683E+01</totfact>
</mgrwt>
</event>
<event>
12    7  0.1735955E-007  0.1565670E+04  0.7818608E-02  0.8841920E-01
          2   -1    0    0  501    0  0.00000000000E+00  0.00000000000E+00  0.79505765282E+03  0.79505765282E+03  0.00000000000E+00 0. -1.
         -1   -1    0    0    0  501 -0.00000000000E+00 -0.00000000000E+00 -0.77080049349E+03  0.77080049349E+03  0.00000000000E+00 0.  1.
         24    2    1    2    0    0 -0.11186448661E+03  0.40112769364E+01 -0.50422094261E+03  0.52267978620E+03  0.80160128694E+02 0.  0.
        254    2    1    2    0    0  0.11186448661E+03 -0.40112769364E+01  0.52847810194E+03  0.10431783601E+04  0.89241371184E+03 0.  0.
         23    2    4    4    0    0 -0.35693840082E+03  0.78604264333E+02  0.85857597500E+02  0.38673272878E+03  0.92774048692E+02 0.  0.
         23    2    4    4    0    0  0.46880288742E+03 -0.82615541269E+02  0.44262050444E+03  0.65644563134E+03  0.91686864022E+02 0.  0.
          4    1    3    3  502    0 -0.13934943937E+02 -0.30736425217E+02 -0.11987624853E+03  0.12453604080E+03  0.00000000000E+00 0. -1.
         -3    1    3    3    0  502 -0.97929542669E+02  0.34747702154E+02 -0.38434469408E+03  0.39814374540E+03  0.00000000000E+00 0.  1.
         13    1    5    5    0    0  0.53596615631E+01 -0.17935337911E+01  0.33160253862E+01  0.65527673461E+01  0.00000000000E+00 0. -1.
        -13    1    5    5    0    0 -0.36229806238E+03  0.80397798124E+02  0.82541572114E+02  0.38017996143E+03  0.00000000000E+00 0.  1.
          4    1    6    6  503    0  0.36991840765E+03 -0.56774923715E+02  0.39349177595E+03  0.54304585260E+03  0.00000000000E+00 0.  1.
         -4    1    6    6    0  503  0.98884479772E+02 -0.25840617554E+02  0.49128728493E+02  0.11339977874E+03  0.00000000000E+00 0. -1.
<mgrwt>
<rscale>  0 0.15656702E+04</rscale>
<asrwt>0</asrwt>
<pdfrwt beam="1">  1        2 0.12231656E+00 0.15656702E+04</pdfrwt>
<pdfrwt beam="2">  1       -1 0.11858469E+00 0.15656702E+04</pdfrwt>
<totfact> 0.24304153E+01</totfact>
</mgrwt>
</event>
<event>
12    7  0.1735955E-007  0.2690298E+04  0.7818608E-02  0.8338160E-01
         -1   -1    0    0    0  501 -0.00000000000E+00  0.00000000000E+00  0.91436336905E+03  0.91436336905E+03  0.00000000000E+00 0.  1.
          2   -1    0    0  501    0  0.00000000000E+00 -0.00000000000E+00 -0.19788921049E+04  0.19788921049E+04  0.00000000000E+00 0. -1.
         24    2    1    2    0    0 -0.32041603866E+03  0.14903545999E+03 -0.17026498080E+04  0.17407909768E+04  0.80366971071E+02 0.  0.
        254    2    1    2    0    0  0.32041603866E+03 -0.14903545999E+03  0.63812107222E+03  0.11524644971E+04  0.89224318885E+03 0.  0.
         23    2    4    4    0    0  0.56857654928E+03 -0.27233231526E+03  0.56611482871E+03  0.85200668705E+03  0.89360020018E+02 0.  0.
         23    2    4    4    0    0 -0.24816051062E+03  0.12329685528E+03  0.72006243511E+02  0.30045781003E+03  0.91127619030E+02 0.  0.
          4    1    3    3  502    0 -0.26323772068E+03  0.14776058552E+03 -0.15077630596E+04  0.15376855114E+04  0.00000000000E+00 0. -1.
         -3    1    3    3    0  502 -0.57178317977E+02  0.12748744639E+01 -0.19488674846E+03  0.20310546541E+03  0.00000000000E+00 0.  1.
         13    1    5    5    0    0  0.26586492281E+03 -0.16397992378E+03  0.31923979428E+03  0.44664036857E+03  0.00000000000E+00 0. -1.
        -13    1    5    5    0    0  0.30271162647E+03 -0.10835239148E+03  0.24687503443E+03  0.40536631849E+03  0.00000000000E+00 0.  1.
          3    1    6    6  503    0 -0.19556543623E+03  0.10232966633E+03  0.16767917492E+02  0.22135573974E+03  0.00000000000E+00 0. -1.
         -3    1    6    6    0  503 -0.52595074391E+02  0.20967188945E+02  0.55238326019E+02  0.79102070288E+02  0.00000000000E+00 0.  1.
<mgrwt>
<rscale>  0 0.26902985E+04</rscale>
<asrwt>0</asrwt>
<pdfrwt beam="1">  1        2 0.30444494E+00 0.26902985E+04</pdfrwt>
<pdfrwt beam="2">  1       -1 0.14067129E+00 0.26902985E+04</pdfrwt>
<totfact> 0.28383134E+00</totfact>
</mgrwt>
</event>
<event>
12    7  0.1735955E-007  0.1581492E+04  0.7818608E-02  0.8832000E-01
          2   -1    0    0  501    0  0.00000000000E+00  0.00000000000E+00  0.29163898482E+04  0.29163898482E+04  0.00000000000E+00 0. -1.
         -1   -1    0    0    0  501 -0.00000000000E+00 -0.00000000000E+00 -0.21440177859E+03  0.21440177859E+03  0.00000000000E+00 0.  1.
         24    2    1    2    0    0 -0.30453113436E+03  0.32197625547E+03  0.14880835001E+04  0.15547267503E+04  0.79842620162E+02 0.  0.
        254    2    1    2    0    0  0.30453113436E+03 -0.32197625547E+03  0.12139045695E+04  0.15760648764E+04  0.90222406866E+03 0.  0.
         23    2    4    4    0    0  0.17783990073E+03 -0.13228395968E+03  0.12955017750E+04  0.13175695433E+04  0.92404416140E+02 0.  0.
         23    2    4    4    0    0  0.12669123363E+03 -0.18969229579E+03 -0.81597205532E+02  0.25849533314E+03  0.90154853111E+02 0.  0.
          4    1    3    3  502    0 -0.27719966417E+03  0.31546998019E+03  0.13498708557E+04  0.14136874793E+04  0.00000000000E+00 0. -1.
         -3    1    3    3    0  502 -0.27331470192E+02  0.65062752799E+01  0.13821264442E+03  0.14103927098E+03  0.00000000000E+00 0.  1.
         13    1    5    5    0    0  0.10642098554E+03 -0.70222110860E+02  0.48179840452E+03  0.49838366107E+03  0.00000000000E+00 0. -1.
        -13    1    5    5    0    0  0.71418915196E+02 -0.62061848819E+02  0.81370337046E+03  0.81918588222E+03  0.00000000000E+00 0.  1.
          1    1    6    6  503    0  0.32650034638E+02 -0.33535048327E+02 -0.58241459269E+02  0.74717413003E+02  0.00000000000E+00 0. -1.
         -1    1    6    6    0  503  0.94041198995E+02 -0.15615724747E+03 -0.23355746264E+02  0.18377792013E+03  0.00000000000E+00 0.  1.
<mgrwt>
<rscale>  0 0.15814919E+04</rscale>
<asrwt>0</asrwt>
<pdfrwt beam="1">  1        2 0.44867533E+00 0.15814919E+04</pdfrwt>
<pdfrwt beam="2">  1       -1 0.32984891E-01 0.15814919E+04</pdfrwt>
<totfact> 0.18617951E+01</totfact>
</mgrwt>
</event>
<event>
12    7  0.1735955E-007  0.1869075E+04  0.7818608E-02  0.8670405E-01
         -3   -1    0    0    0  501 -0.00000000000E+00  0.00000000000E+00  0.10630664633E+04  0.10630664633E+04  0.00000000000E+00 0.  1.
          2   -1    0    0  501    0  0.00000000000E+00 -0.00000000000E+00 -0.82154848265E+03  0.82154848265E+03  0.00000000000E+00 0. -1.
         24    2    1    2    0    0 -0.64487610261E+02 -0.71883116139E+03  0.27726892517E+03  0.77705025942E+03  0.77795619028E+02 0.  0.
        254    2    1    2    0    0  0.64487610261E+02  0.71883116139E+03 -0.35750944569E+02  0.11075646865E+04  0.83937149956E+03 0.  0.
         23    2    4    4    0    0 -0.29669946449E+03  0.65285536637E+03  0.31118322220E+02  0.72354816129E+03  0.91120195896E+02 0.  0.
         23    2    4    4    0    0  0.36118707475E+03  0.65975795016E+02 -0.66869266789E+02  0.38401652520E+03  0.90489139098E+02 0.  0.
          4    1    3    3  502    0 -0.60078320612E+02 -0.25269809218E+03  0.10031987960E+03  0.27844175089E+03  0.00000000000E+00 0. -1.
         -3    1    3    3    0  502 -0.44092896494E+01 -0.46613306921E+03  0.17694904557E+03  0.49860850853E+03  0.00000000000E+00 0.  1.
         13    1    5    5    0    0 -0.33397081488E+01  0.38168039192E+02  0.17970400603E+02  0.42318886613E+02  0.00000000000E+00 0.  1.
        -13    1    5    5    0    0 -0.29335975634E+03  0.61468732718E+03  0.13147921617E+02  0.68122927468E+03  0.00000000000E+00 0. -1.
          4    1    6    6  503    0  0.35888009673E+03  0.76700997363E+02 -0.62821708854E+02  0.37232315793E+03  0.00000000000E+00 0. -1.
         -4    1    6    6    0  503  0.23069780154E+01 -0.10725202347E+02 -0.40475579344E+01  0.11693367273E+02  0.00000000000E+00 0.  1.
<mgrwt>
<rscale>  0 0.18690753E+04</rscale>
<asrwt>0</asrwt>
<pdfrwt beam="1">  1        2 0.12639207E+00 0.18690753E+04</pdfrwt>
<pdfrwt beam="2">  1       -3 0.16354869E+00 0.18690753E+04</pdfrwt>
<totfact> 0.50459170E+00</totfact>
</mgrwt>
</event>
<event>
12    7  0.1735955E-007  0.3247338E+04  0.7818608E-02  0.8176426E-01
         -1   -1    0    0    0  501 -0.00000000000E+00  0.00000000000E+00  0.71287924978E+03  0.71287924978E+03  0.00000000000E+00 0.  1.
          2   -1    0    0  501    0  0.00000000000E+00 -0.00000000000E+00 -0.36981041128E+04  0.36981041128E+04  0.00000000000E+00 0. -1.
         24    2    1    2    0    0  0.65141938867E+03 -0.73616632041E+03 -0.29115963908E+04  0.30741122980E+04  0.80528295279E+02 0.  0.
        254    2    1    2    0    0 -0.65141938867E+03  0.73616632041E+03 -0.73628472182E+02  0.13368710646E+04  0.90305870250E+03 0.  0.
         23    2    4    4    0    0 -0.44849833296E+03 -0.48892378043E+02  0.16162439098E+03  0.48814366552E+03  0.92847052352E+02 0.  0.
         23    2    4    4    0    0 -0.20292105571E+03  0.78505869845E+03 -0.23525286316E+03  0.84872739906E+03  0.86603541662E+02 0.  0.
          4    1    3    3  502    0  0.62543831454E+03 -0.68986600813E+03 -0.27940479229E+04  0.29451302161E+04  0.00000000000E+00 0. -1.
         -3    1    3    3    0  502  0.25981074128E+02 -0.46300312284E+02 -0.11754846790E+03  0.12898208184E+03  0.00000000000E+00 0.  1.
         13    1    5    5    0    0 -0.13106924964E+03 -0.57318628134E+02  0.52016923320E+02  0.15221804638E+03  0.00000000000E+00 0.  1.
        -13    1    5    5    0    0 -0.31742908332E+03  0.84262500909E+01  0.10960746766E+03  0.33592561914E+03  0.00000000000E+00 0. -1.
          4    1    6    6  503    0 -0.20817174290E+03  0.70817985479E+03 -0.20654093606E+03  0.76649418754E+03  0.00000000000E+00 0. -1.
         -4    1    6    6    0  503  0.52506871869E+01  0.76878843666E+02 -0.28711927098E+02  0.82233211521E+02  0.00000000000E+00 0.  1.
<mgrwt>
<rscale>  0 0.32473384E+04</rscale>
<asrwt>0</asrwt>
<pdfrwt beam="1">  1        2 0.56893910E+00 0.32473384E+04</pdfrwt>
<pdfrwt beam="2">  1       -1 0.10967373E+00 0.32473384E+04</pdfrwt>
<totfact> 0.42796819E-01</totfact>
</mgrwt>
</event>
<event>
12    7  0.1735955E-007  0.1374660E+04  0.7818608E-02  0.8972368E-01
         -1   -1    0    0    0  501 -0.00000000000E+00  0.00000000000E+00  0.16485948036E+03  0.16485948036E+03  0.00000000000E+00 0.  1.
          2   -1    0    0  501    0  0.00000000000E+00 -0.00000000000E+00 -0.28656069980E+04  0.28656069980E+04  0.00000000000E+00 0. -1.
         24    2    1    2    0    0 -0.93294225883E+02 -0.37234278046E+03 -0.64402151315E+03  0.75403499610E+03  0.80387232839E+02 0.  0.
        254    2    1    2    0    0  0.93294225883E+02  0.37234278046E+03 -0.20567260045E+04  0.22764314823E+04  0.89703705449E+03 0.  0.
         23    2    4    4    0    0  0.48207572823E+02 -0.14120798949E+03 -0.21873340768E+02  0.17520211025E+03  0.89183350603E+02 0.  0.
         23    2    4    4    0    0  0.45086653060E+02  0.51355076995E+03 -0.20348526638E+04  0.21012293720E+04  0.93660616714E+02 0.  0.
          2    1    3    3  502    0 -0.41439238625E+02 -0.47712931472E+02 -0.11378231911E+03  0.13015433327E+03  0.00000000000E+00 0. -1.
         -1    1    3    3    0  502 -0.51854987258E+02 -0.32462984899E+03 -0.53023919403E+03  0.62388066282E+03  0.00000000000E+00 0.  1.
         13    1    5    5    0    0 -0.19681515779E+02 -0.33422434453E+02 -0.27735973753E+02  0.47683387340E+02  0.00000000000E+00 0.  1.
        -13    1    5    5    0    0  0.67889088603E+02 -0.10778555504E+03  0.58626329858E+01  0.12751872291E+03  0.00000000000E+00 0. -1.
          1    1    6    6  503    0  0.65093141368E+01  0.41517366075E+03 -0.15233662829E+04  0.15789415352E+04  0.00000000000E+00 0. -1.
         -1    1    6    6    0  503  0.38577338923E+02  0.98377109205E+02 -0.51148638086E+03  0.52228783683E+03  0.00000000000E+00 0.  1.
<mgrwt>
<rscale>  0 0.13746599E+04</rscale>
<asrwt>0</asrwt>
<pdfrwt beam="1">  1        2 0.44086262E+00 0.13746599E+04</pdfrwt>
<pdfrwt beam="2">  1       -1 0.25362997E-01 0.13746599E+04</pdfrwt>
<totfact> 0.32257813E+01</totfact>
</mgrwt>
</event>
<event>
12    7  0.1735955E-007  0.4221211E+04  0.7818608E-02  0.7961350E-01
         -1   -1    0    0    0  501 -0.00000000000E+00  0.00000000000E+00  0.10029564999E+04  0.10029564999E+04  0.00000000000E+00 0.  1.
          2   -1    0    0  501    0  0.00000000000E+00 -0.00000000000E+00 -0.44415243161E+04  0.44415243161E+04  0.00000000000E+00 0. -1.
         24    2    1    2    0    0 -0.33265999190E+03 -0.10328610877E+04 -0.38341009149E+04  0.39854778958E+04  0.78990730530E+02 0.  0.
        254    2    1    2    0    0  0.33265999190E+03  0.10328610877E+04  0.39553309880E+03  0.14590029202E+04  0.89150344485E+03 0.  0.
         23    2    4    4    0    0  0.42563262554E+03  0.99722369103E+02  0.22372079531E+03  0.50100300625E+03  0.99223662452E+02 0.  0.
         23    2    4    4    0    0 -0.92972633635E+02  0.93313871860E+03  0.17181230349E+03  0.95799991395E+03  0.94088196564E+02 0.  0.
          4    1    3    3  502    0 -0.16595850575E+03 -0.60266852096E+03 -0.23092027086E+04  0.23923145114E+04  0.00000000000E+00 0. -1.
         -3    1    3    3    0  502 -0.16670148615E+03 -0.43019256674E+03 -0.15248982063E+04  0.15931633844E+04  0.00000000000E+00 0.  1.
         13    1    5    5    0    0  0.48607116254E+02 -0.18698639823E+02  0.15608314739E+02  0.54368284604E+02  0.00000000000E+00 0. -1.
        -13    1    5    5    0    0  0.37702550929E+03  0.11842100893E+03  0.20811248057E+03  0.44663472164E+03  0.00000000000E+00 0.  1.
          1    1    6    6  503    0 -0.45125725069E+02  0.27746191849E+03  0.11637441708E+02  0.28134832028E+03  0.00000000000E+00 0. -1.
         -1    1    6    6    0  503 -0.47846908566E+02  0.65567680011E+03  0.16017486178E+03  0.67665159366E+03  0.00000000000E+00 0.  1.
<mgrwt>
<rscale>  0 0.42212111E+04</rscale>
<asrwt>0</asrwt>
<pdfrwt beam="1">  1        2 0.68331144E+00 0.42212111E+04</pdfrwt>
<pdfrwt beam="2">  1       -1 0.15430100E+00 0.42212111E+04</pdfrwt>
<totfact> 0.39513755E-02</totfact>
</mgrwt>
</event>
<event>
12    7  0.1735955E-007  0.1534397E+04  0.7818608E-02  0.8861896E-01
          2   -1    0    0  501    0  0.00000000000E+00  0.00000000000E+00  0.20123287471E+04  0.20123287471E+04  0.00000000000E+00 0. -1.
         -1   -1    0    0    0  501 -0.00000000000E+00 -0.00000000000E+00 -0.29249374257E+03  0.29249374257E+03  0.00000000000E+00 0.  1.
         24    2    1    2    0    0 -0.70135430436E+02 -0.34307027310E+03  0.11165675277E+04  0.11734675815E+04  0.87675138428E+02 0.  0.
        254    2    1    2    0    0  0.70135430436E+02  0.34307027310E+03  0.60326747675E+03  0.11313549081E+04  0.89073906885E+03 0.  0.
         23    2    4    4    0    0  0.24762756000E+03  0.51978436662E+03  0.14469252910E+03  0.60057670728E+03  0.90891457761E+02 0.  0.
         23    2    4    4    0    0 -0.17749212956E+03 -0.17671409352E+03  0.45857494765E+03  0.53077820086E+03  0.93290883787E+02 0.  0.
          4    1    3    3  502    0 -0.19975901363E+02 -0.25303408870E+03  0.70879260492E+03  0.75286934024E+03  0.00000000000E+00 0. -1.
         -3    1    3    3    0  502 -0.50159529073E+02 -0.90036184406E+02  0.40777492282E+03  0.42059824125E+03  0.00000000000E+00 0.  1.
         13    1    5    5    0    0  0.14789263494E+02  0.76569474386E+02  0.45190411807E+02  0.90132014522E+02  0.00000000000E+00 0. -1.
        -13    1    5    5    0    0  0.23283829650E+03  0.44321489223E+03  0.99502117293E+02  0.51044469275E+03  0.00000000000E+00 0.  1.
          4    1    6    6  503    0  0.81758892306E+01 -0.28085414314E+02  0.44205346420E+02  0.53007059096E+02  0.00000000000E+00 0. -1.
         -4    1    6    6    0  503 -0.18566801879E+03 -0.14862867920E+03  0.41436960123E+03  0.47777114177E+03  0.00000000000E+00 0.  1.
<mgrwt>
<rscale>  0 0.15343970E+04</rscale>
<asrwt>0</asrwt>
<pdfrwt beam="1">  1        2 0.30958903E+00 0.15343970E+04</pdfrwt>
<pdfrwt beam="2">  1       -1 0.44999038E-01 0.15343970E+04</pdfrwt>
<totfact> 0.35368511E+01</totfact>
</mgrwt>
</event>
<event>
12    7  0.1735955E-007  0.1290127E+04  0.7818608E-02  0.9037432E-01
         -1   -1    0    0    0  501 -0.00000000000E+00  0.00000000000E+00  0.44063992337E+03  0.44063992337E+03  0.00000000000E+00 0.  1.
          2   -1    0    0  501    0  0.00000000000E+00 -0.00000000000E+00 -0.94432343809E+03  0.94432343809E+03  0.00000000000E+00 0. -1.
         24    2    1    2    0    0 -0.28159702651E+03 -0.27741669033E+01 -0.28461588615E+03  0.40756217099E+03  0.76132379619E+02 0.  0.
        254    2    1    2    0    0  0.28159702651E+03  0.27741669033E+01 -0.21906762856E+03  0.97740119048E+03  0.90995487796E+03 0.  0.
         23    2    4    4    0    0  0.34243698692E+03  0.39364513632E+03 -0.34044571329E+02  0.53062230788E+03  0.90451188080E+02 0.  0.
         23    2    4    4    0    0 -0.60839960405E+02 -0.39087096942E+03 -0.18502305724E+03  0.44677888260E+03  0.94319789586E+02 0.  0.
          2    1    3    3  502    0 -0.23409465128E+03 -0.16268301132E+02 -0.19443357161E+03  0.30474477379E+03  0.00000000000E+00 0. -1.
         -1    1    3    3    0  502 -0.47502375230E+02  0.13494134229E+02 -0.90182314540E+02  0.10281739720E+03  0.00000000000E+00 0.  1.
         13    1    5    5    0    0  0.31245538502E+03  0.34783962837E+03 -0.57446912623E+02  0.47108483574E+03  0.00000000000E+00 0. -1.
        -13    1    5    5    0    0  0.29981601897E+02  0.45805507957E+02  0.23402341294E+02  0.59537472146E+02  0.00000000000E+00 0.  1.
          1    1    6    6  503    0 -0.45416087650E+02 -0.38827257339E+03 -0.17589721197E+03  0.42867008461E+03  0.00000000000E+00 0. -1.
         -1    1    6    6    0  503 -0.15423872754E+02 -0.25983960346E+01 -0.91258452637E+01  0.18108797985E+02  0.00000000000E+00 0.  1.
<mgrwt>
<rscale>  0 0.12901265E+04</rscale>
<asrwt>0</asrwt>
<pdfrwt beam="1">  1        2 0.14528053E+00 0.12901265E+04</pdfrwt>
<pdfrwt beam="2">  1       -1 0.67790757E-01 0.12901265E+04</pdfrwt>
<totfact> 0.67542649E+01</totfact>
</mgrwt>
</event>
<event>
12    7  0.1735955E-007  0.1840476E+04  0.7818608E-02  0.8685066E-01
          2   -1    0    0  501    0  0.00000000000E+00  0.00000000000E+00  0.24382895764E+04  0.24382895764E+04  0.00000000000E+00 0. -1.
         -1   -1    0    0    0  501 -0.00000000000E+00 -0.00000000000E+00 -0.34730802574E+03  0.34730802574E+03  0.00000000000E+00 0.  1.
         24    2    1    2    0    0 -0.34380069792E+03  0.21840556698E+03  0.16461355729E+04  0.16978388853E+04  0.83633991198E+02 0.  0.
        254    2    1    2    0    0  0.34380069792E+03 -0.21840556698E+03  0.44484597773E+03  0.10877587168E+04  0.90522437579E+03 0.  0.
         23    2    4    4    0    0  0.32165131569E+02  0.48173918706E+02  0.62228016934E+03  0.63145382931E+03  0.90255233952E+02 0.  0.
         23    2    4    4    0    0  0.31163556635E+03 -0.26657948569E+03 -0.17743419162E+03  0.45630488751E+03  0.92465721244E+02 0.  0.
          2    1    3    3  502    0 -0.34421765440E+03  0.20724087807E+03  0.16249618369E+04  0.16738983083E+04  0.00000000000E+00 0. -1.
         -1    1    3    3    0  502  0.41695647695E+00  0.11164688911E+02  0.21173736074E+02  0.23940577071E+02  0.00000000000E+00 0.  1.
         13    1    5    5    0    0 -0.29496561750E+02  0.16447012036E+01  0.19933431787E+03  0.20151159390E+03  0.00000000000E+00 0. -1.
        -13    1    5    5    0    0  0.61661693319E+02  0.46529217502E+02  0.42294585147E+03  0.42994223540E+03  0.00000000000E+00 0.  1.
          3    1    6    6  503    0  0.70893421338E+02 -0.45158295933E+02 -0.77407829115E+02  0.11426775962E+03  0.00000000000E+00 0. -1.
         -3    1    6    6    0  503  0.24074214502E+03 -0.22142118976E+03 -0.10002636250E+03  0.34203712789E+03  0.00000000000E+00 0.  1.
<mgrwt>
<rscale>  0 0.18404755E+04</rscale>
<asrwt>0</asrwt>
<pdfrwt beam="1">  1        2 0.37512146E+00 0.18404755E+04</pdfrwt>
<pdfrwt beam="2">  1       -1 0.53432005E-01 0.18404755E+04</pdfrwt>
<totfact> 0.14319326E+01</totfact>
</mgrwt>
</event>
<event>
12    7  0.1735955E-007  0.4272673E+04  0.7818608E-02  0.7951691E-01
          2   -1    0    0  501    0  0.00000000000E+00  0.00000000000E+00  0.28810670285E+04  0.28810670285E+04  0.00000000000E+00 0. -1.
         -1   -1    0    0    0  501 -0.00000000000E+00 -0.00000000000E+00 -0.15841121486E+04  0.15841121486E+04  0.00000000000E+00 0.  1.
         24    2    1    2    0    0 -0.40683262021E+02  0.16452742640E+04  0.18889959757E+04  0.25066308682E+04  0.79435391457E+02 0.  0.
        254    2    1    2    0    0  0.40683262021E+02 -0.16452742640E+04 -0.59204109580E+03  0.19585483089E+04  0.88137182126E+03 0.  0.
         23    2    4    4    0    0  0.21718013823E+03 -0.48992738318E+02  0.54748391089E+01  0.24290147691E+03  0.96972433054E+02 0.  0.
         23    2    4    4    0    0 -0.17649687620E+03 -0.15962815257E+04 -0.59751593491E+03  0.17156468320E+04  0.84574835862E+02 0.  0.
          2    1    3    3  502    0 -0.22497590603E+02  0.12084267628E+04  0.14383942212E+04  0.18787706934E+04  0.00000000000E+00 0. -1.
         -1    1    3    3    0  502 -0.18185671418E+02  0.43684750122E+03  0.45060175456E+03  0.62786017486E+03  0.00000000000E+00 0.  1.
         13    1    5    5    0    0  0.20419172528E+03 -0.35135806190E+02 -0.23220973530E+02  0.20848980589E+03  0.00000000000E+00 0. -1.
        -13    1    5    5    0    0  0.12988412944E+02 -0.13856932127E+02  0.28695812639E+02  0.34411671012E+02  0.00000000000E+00 0.  1.
          1    1    6    6  503    0 -0.16183004296E+03 -0.11980947980E+04 -0.42583877285E+03  0.12817795319E+04  0.00000000000E+00 0. -1.
         -1    1    6    6    0  503 -0.14666833242E+02 -0.39818672771E+03 -0.17167716206E+03  0.43386730010E+03  0.00000000000E+00 0.  1.
<mgrwt>
<rscale>  0 0.42726728E+04</rscale>
<asrwt>0</asrwt>
<pdfrwt beam="1">  1        2 0.44324108E+00 0.42726728E+04</pdfrwt>
<pdfrwt beam="2">  1       -1 0.24370956E+00 0.42726728E+04</pdfrwt>
<totfact> 0.13863752E-01</totfact>
</mgrwt>
</event>
<event>
12    7  0.1735955E-007  0.1908668E+04  0.7818608E-02  0.8650554E-01
          2   -1    0    0  501    0  0.00000000000E+00  0.00000000000E+00  0.18986049670E+04  0.18986049670E+04  0.00000000000E+00 0. -1.
         -1   -1    0    0    0  501 -0.00000000000E+00 -0.00000000000E+00 -0.47969584801E+03  0.47969584801E+03  0.00000000000E+00 0.  1.
         24    2    1    2    0    0 -0.27561666224E+03  0.67418430257E+03  0.71615189016E+03  0.10244858797E+04  0.78795745456E+02 0.  0.
        254    2    1    2    0    0  0.27561666224E+03 -0.67418430257E+03  0.70275722885E+03  0.13538149354E+04  0.89914300209E+03 0.  0.
         23    2    4    4    0    0  0.76584507217E+02 -0.66515793583E+03  0.64144525413E+02  0.67887263955E+03  0.91941689319E+02 0.  0.
         23    2    4    4    0    0  0.19903215502E+03 -0.90263667369E+01  0.63861270344E+03  0.67494229583E+03  0.89585956917E+02 0.  0.
          4    1    3    3  502    0 -0.25039853769E+03  0.62479333782E+03  0.68718608602E+03  0.96192040184E+03  0.00000000000E+00 0. -1.
         -3    1    3    3    0  502 -0.25218124544E+02  0.49390964754E+02  0.28965804139E+02  0.62565477816E+02  0.00000000000E+00 0.  1.
         13    1    5    5    0    0  0.66302469228E+01 -0.27880787563E+02  0.22465339809E+02  0.36414145357E+02  0.00000000000E+00 0.  1.
        -13    1    5    5    0    0  0.69954260295E+02 -0.63727714827E+03  0.41679185604E+02  0.64245849419E+03  0.00000000000E+00 0. -1.
          4    1    6    6  503    0  0.10873250107E+03  0.79009711968E+01  0.21020064185E+03  0.23678997438E+03  0.00000000000E+00 0.  1.
         -4    1    6    6    0  503  0.90299653955E+02 -0.16927337934E+02  0.42841206159E+03  0.43815232145E+03  0.00000000000E+00 0. -1.
<mgrwt>
<rscale>  0 0.19086675E+04</rscale>
<asrwt>0</asrwt>
<pdfrwt beam="1">  1        2 0.29209307E+00 0.19086675E+04</pdfrwt>
<pdfrwt beam="2">  1       -1 0.73799362E-01 0.19086675E+04</pdfrwt>
<totfact> 0.14991954E+01</totfact>
</mgrwt>
</event>
<event>
12    7  0.1735955E-007  0.1527764E+04  0.7818608E-02  0.8866197E-01
         -1   -1    0    0    0  501 -0.00000000000E+00  0.00000000000E+00  0.15069694991E+03  0.15069694991E+03  0.00000000000E+00 0.  1.
          2   -1    0    0  501    0  0.00000000000E+00 -0.00000000000E+00 -0.38721147111E+04  0.38721147111E+04  0.00000000000E+00 0. -1.
         24    2    1    2    0    0  0.16773430099E+03 -0.15010996699E+02  0.62952685651E+01  0.18673983340E+03  0.80448798757E+02 0.  0.
        254    2    1    2    0    0 -0.16773430099E+03  0.15010996699E+02 -0.37277130298E+04  0.38360718276E+04  0.88951813280E+03 0.  0.
         23    2    4    4    0    0 -0.29701448392E+03 -0.36299065336E+03 -0.23676439128E+04  0.24156122835E+04  0.97289199354E+02 0.  0.
         23    2    4    4    0    0  0.12928018293E+03  0.37800165006E+03 -0.13600691170E+04  0.14204595441E+04  0.91206909722E+02 0.  0.
          2    1    3    3  502    0  0.33577803984E+02 -0.33755907842E+02  0.17711535029E+02  0.50799888855E+02  0.00000000000E+00 0. -1.
         -1    1    3    3    0  502  0.13415649701E+03  0.18744911144E+02 -0.11416266464E+02  0.13593994455E+03  0.00000000000E+00 0.  1.
         13    1    5    5    0    0 -0.11739563164E+03 -0.86803463743E+02 -0.59829976233E+03  0.61585646157E+03  0.00000000000E+00 0. -1.
        -13    1    5    5    0    0 -0.17961885228E+03 -0.27618718962E+03 -0.17693441505E+04  0.17997558220E+04  0.00000000000E+00 0.  1.
          2    1    6    6  503    0  0.75879688564E+02  0.18128666894E+03 -0.81954481664E+03  0.84277890929E+03  0.00000000000E+00 0. -1.
         -2    1    6    6    0  503  0.53400494366E+02  0.19671498112E+03 -0.54052430032E+03  0.57768063480E+03  0.00000000000E+00 0.  1.
<mgrwt>
<rscale>  0 0.15277642E+04</rscale>
<asrwt>0</asrwt>
<pdfrwt beam="1">  1        2 0.59570982E+00 0.15277642E+04</pdfrwt>
<pdfrwt beam="2">  1       -1 0.23184151E-01 0.15277642E+04</pdfrwt>
<totfact> 0.77152574E+00</totfact>
</mgrwt>
</event>
<event>
12    7  0.1735955E-007  0.4344743E+04  0.7818608E-02  0.7938396E-01
         -1   -1    0    0    0  501 -0.00000000000E+00  0.00000000000E+00  0.15859147504E+04  0.15859147504E+04  0.00000000000E+00 0.  1.
          2   -1    0    0  501    0  0.00000000000E+00 -0.00000000000E+00 -0.29756940424E+04  0.29756940424E+04  0.00000000000E+00 0. -1.
         24    2    1    2    0    0 -0.10215283021E+04 -0.11946154691E+04 -0.20789586369E+04  0.26077269976E+04  0.86861319986E+02 0.  0.
        254    2    1    2    0    0  0.10215283021E+04  0.11946154691E+04  0.68917934491E+03  0.19538817953E+04  0.93384137275E+03 0.  0.
         23    2    4    4    0    0  0.93545011257E+03  0.40546110978E+03  0.46931035573E+03  0.11260159768E+04  0.90521518266E+02 0.  0.
         23    2    4    4    0    0  0.86078189552E+02  0.78915435933E+03  0.21986898918E+03  0.82786581854E+03  0.82736833004E+02 0.  0.
          4    1    3    3  502    0 -0.93817379738E+03 -0.11303628562E+04 -0.19404986604E+04  0.24338088076E+04  0.00000000000E+00 0. -1.
         -3    1    3    3    0  502 -0.83354504740E+02 -0.64252612902E+02 -0.13845997647E+03  0.17391818999E+03  0.00000000000E+00 0.  1.
         13    1    5    5    0    0  0.49738965972E+03  0.24288627051E+03  0.21311998387E+03  0.59313602279E+03  0.00000000000E+00 0. -1.
        -13    1    5    5    0    0  0.43806045284E+03  0.16257483927E+03  0.25619037186E+03  0.53287995397E+03  0.00000000000E+00 0.  1.
          3    1    6    6  503    0  0.18784142307E+02  0.52878269301E+03  0.15169223341E+03  0.55043120743E+03  0.00000000000E+00 0. -1.
         -3    1    6    6    0  503  0.67294047246E+02  0.26037166632E+03  0.68176755761E+02  0.27743461111E+03  0.00000000000E+00 0.  1.
<mgrwt>
<rscale>  0 0.43447426E+04</rscale>
<asrwt>0</asrwt>
<pdfrwt beam="1">  1        2 0.45779908E+00 0.43447426E+04</pdfrwt>
<pdfrwt beam="2">  1       -1 0.24398688E+00 0.43447426E+04</pdfrwt>
<totfact> 0.11990634E-01</totfact>
</mgrwt>
</event>
<event>
12    7  0.1735955E-007  0.2001438E+04  0.7818608E-02  0.8605949E-01
          2   -1    0    0  501    0  0.00000000000E+00  0.00000000000E+00  0.14925721313E+04  0.14925721313E+04  0.00000000000E+00 0. -1.
         -1   -1    0    0    0  501 -0.00000000000E+00 -0.00000000000E+00 -0.67094824063E+03  0.67094824063E+03  0.00000000000E+00 0.  1.
         24    2    1    2    0    0  0.26186856400E+03  0.64287813078E+03  0.76048663871E+03  0.10327140617E+04  0.79315633037E+02 0.  0.
        254    2    1    2    0    0 -0.26186856400E+03 -0.64287813078E+03  0.61137252003E+02  0.11308063103E+04  0.89057156478E+03 0.  0.
         23    2    4    4    0    0 -0.11435751267E+03 -0.62880697556E+03  0.39271717884E+03  0.75593879478E+03  0.93492382963E+02 0.  0.
         23    2    4    4    0    0 -0.14751105132E+03 -0.14071155226E+02 -0.33157992684E+03  0.37486751553E+03  0.92859564082E+02 0.  0.
          2    1    3    3  502    0  0.25599528845E+03  0.57524407716E+03  0.70314237075E+03  0.94384772583E+03  0.00000000000E+00 0. -1.
         -1    1    3    3    0  502  0.58732755435E+01  0.67634053625E+02  0.57344267956E+02  0.88866335824E+02  0.00000000000E+00 0.  1.
         13    1    5    5    0    0 -0.11696823307E+03 -0.39572820197E+03  0.24243307193E+03  0.47859813178E+03  0.00000000000E+00 0. -1.
        -13    1    5    5    0    0  0.26107203904E+01 -0.23307877359E+03  0.15028410691E+03  0.27734066299E+03  0.00000000000E+00 0.  1.
          4    1    6    6  503    0 -0.51449036379E+01 -0.24629623657E+02 -0.20003368392E+02  0.32143788544E+02  0.00000000000E+00 0.  1.
         -4    1    6    6    0  503 -0.14236614768E+03  0.10558468431E+02 -0.31157655845E+03  0.34272372698E+03  0.00000000000E+00 0. -1.
<mgrwt>
<rscale>  0 0.20014381E+04</rscale>
<asrwt>0</asrwt>
<pdfrwt beam="1">  1        2 0.22962648E+00 0.20014381E+04</pdfrwt>
<pdfrwt beam="2">  1       -1 0.10322281E+00 0.20014381E+04</pdfrwt>
<totfact> 0.12017877E+01</totfact>
</mgrwt>
</event>
<event>
12    7  0.1735955E-007  0.2800137E+04  0.7818608E-02  0.8303226E-01
         -1   -1    0    0    0  501 -0.00000000000E+00  0.00000000000E+00  0.18298921219E+04  0.18298921219E+04  0.00000000000E+00 0.  1.
          2   -1    0    0  501    0  0.00000000000E+00 -0.00000000000E+00 -0.10712064375E+04  0.10712064375E+04  0.00000000000E+00 0. -1.
         24    2    1    2    0    0  0.85937792712E+02  0.12484090802E+04  0.40353504296E+03  0.13172998230E+04  0.80794535004E+02 0.  0.
        254    2    1    2    0    0 -0.85937792712E+02 -0.12484090802E+04  0.35515064147E+03  0.15837987365E+04  0.90353523654E+03 0.  0.
         23    2    4    4    0    0 -0.87282087370E+02 -0.98079947926E+02  0.39673227093E+03  0.42819252041E+03  0.93351490468E+02 0.  0.
         23    2    4    4    0    0  0.13442946578E+01 -0.11503291323E+04 -0.41581629461E+02  0.11556062161E+04  0.10216542916E+03 0.  0.
          4    1    3    3  502    0 -0.56012666966E+01  0.60733825883E+01  0.24089565209E+01  0.86060000111E+01  0.00000000000E+00 0. -1.
         -3    1    3    3    0  502  0.91539059409E+02  0.12423356977E+04  0.40112608644E+03  0.13086938230E+04  0.00000000000E+00 0.  1.
         13    1    5    5    0    0 -0.23135414898E+00  0.16851935736E+02  0.45411346634E+02  0.48437915581E+02  0.00000000000E+00 0. -1.
        -13    1    5    5    0    0 -0.87050733221E+02 -0.11493188366E+03  0.35132092430E+03  0.37975460482E+03  0.00000000000E+00 0.  1.
          4    1    6    6  503    0 -0.35787520196E+02 -0.23038525819E+03  0.11051640480E+02  0.23341005237E+03  0.00000000000E+00 0. -1.
         -4    1    6    6    0  503  0.37131814853E+02 -0.91994387413E+03 -0.52633269942E+02  0.92219616369E+03  0.00000000000E+00 0.  1.
<mgrwt>
<rscale>  0 0.28001373E+04</rscale>
<asrwt>0</asrwt>
<pdfrwt beam="1">  1        2 0.16480099E+00 0.28001373E+04</pdfrwt>
<pdfrwt beam="2">  1       -1 0.28152187E+00 0.28001373E+04</pdfrwt>
<totfact> 0.97946535E-01</totfact>
</mgrwt>
</event>
<event>
12    7  0.1735955E-007  0.2450378E+04  0.7818608E-02  0.8420880E-01
         -1   -1    0    0    0  501 -0.00000000000E+00  0.00000000000E+00  0.85606647525E+03  0.85606647525E+03  0.00000000000E+00 0.  1.
          2   -1    0    0  501    0  0.00000000000E+00 -0.00000000000E+00 -0.17534719334E+04  0.17534719334E+04  0.00000000000E+00 0. -1.
         24    2    1    2    0    0 -0.87701724077E+02  0.10426191477E+04 -0.22726071537E+03  0.10737579698E+04  0.81009045330E+02 0.  0.
        254    2    1    2    0    0  0.87701724077E+02 -0.10426191477E+04 -0.67014474283E+03  0.15357804389E+04  0.90265236970E+03 0.  0.
         23    2    4    4    0    0 -0.19483613929E+03 -0.76647026619E+03 -0.54582030189E+02  0.79788987063E+03  0.90615989272E+02 0.  0.
         23    2    4    4    0    0  0.28253786337E+03 -0.27614888152E+03 -0.61556271264E+03  0.73789056824E+03  0.97361124195E+02 0.  0.
          2    1    3    3  502    0 -0.58595880363E+02  0.85448573299E+03 -0.21458788715E+03  0.88296506521E+03  0.00000000000E+00 0. -1.
         -1    1    3    3    0  502 -0.29105843714E+02  0.18813341472E+03 -0.12672828217E+02  0.19079290461E+03  0.00000000000E+00 0.  1.
         13    1    5    5    0    0  0.26449013955E+01 -0.33961479778E+02 -0.17562818337E+02  0.38325320613E+02  0.00000000000E+00 0.  1.
        -13    1    5    5    0    0 -0.19748104069E+03 -0.73250878641E+03 -0.37019211851E+02  0.75956455002E+03  0.00000000000E+00 0. -1.
          3    1    6    6  503    0  0.24729193213E+03 -0.27321478582E+03 -0.58366124434E+03  0.69026086882E+03  0.00000000000E+00 0. -1.
         -3    1    6    6    0  503  0.35245931244E+02 -0.29340956943E+01 -0.31901468307E+02  0.47629699421E+02  0.00000000000E+00 0.  1.
<mgrwt>
<rscale>  0 0.24503784E+04</rscale>
<asrwt>0</asrwt>
<pdfrwt beam="1">  1        2 0.26976491E+00 0.24503784E+04</pdfrwt>
<pdfrwt beam="2">  1       -1 0.13170253E+00 0.24503784E+04</pdfrwt>
<totfact> 0.45811966E+00</totfact>
</mgrwt>
</event>
<event>
12    7  0.1735955E-007  0.1888764E+04  0.7818608E-02  0.8660470E-01
         -1   -1    0    0    0  501 -0.00000000000E+00  0.00000000000E+00  0.34403426658E+03  0.34403426658E+03  0.00000000000E+00 0.  1.
          2   -1    0    0  501    0  0.00000000000E+00 -0.00000000000E+00 -0.25923501382E+04  0.25923501382E+04  0.00000000000E+00 0. -1.
         24    2    1    2    0    0  0.30281729565E+03 -0.65215760895E+03 -0.57948457799E+03  0.92704790176E+03  0.81286988954E+02 0.  0.
        254    2    1    2    0    0 -0.30281729565E+03  0.65215760895E+03 -0.16688312936E+04  0.20093365030E+04  0.85757065849E+03 0.  0.
         23    2    4    4    0    0 -0.51028541382E+03  0.56684400469E+03 -0.80733215275E+03  0.11144749136E+04  0.92551601516E+02 0.  0.
         23    2    4    4    0    0  0.20746811817E+03  0.85313604266E+02 -0.86149914087E+03  0.89486158943E+03  0.90967375324E+02 0.  0.
          4    1    3    3  502    0  0.29682889873E+03 -0.62060955332E+03 -0.53164667896E+03  0.86943188580E+03  0.00000000000E+00 0. -1.
         -3    1    3    3    0  502  0.59883969205E+01 -0.31548055634E+02 -0.47837899034E+02  0.57616015967E+02  0.00000000000E+00 0.  1.
         13    1    5    5    0    0 -0.18260691158E+03  0.14365345044E+03 -0.26696044552E+03  0.35390602913E+03  0.00000000000E+00 0. -1.
        -13    1    5    5    0    0 -0.32767850224E+03  0.42319055424E+03 -0.54037170722E+03  0.76056888445E+03  0.00000000000E+00 0.  1.
          1    1    6    6  503    0  0.12434691143E+03  0.79283068365E+02 -0.40953362339E+03  0.43527663387E+03  0.00000000000E+00 0. -1.
         -1    1    6    6    0  503  0.83121206742E+02  0.60305359006E+01 -0.45196551749E+03  0.45958495556E+03  0.00000000000E+00 0.  1.
<mgrwt>
<rscale>  0 0.18887639E+04</rscale>
<asrwt>0</asrwt>
<pdfrwt beam="1">  1        2 0.39882311E+00 0.18887639E+04</pdfrwt>
<pdfrwt beam="2">  1       -1 0.52928347E-01 0.18887639E+04</pdfrwt>
<totfact> 0.11823666E+01</totfact>
</mgrwt>
</event>
<event>
12    7  0.1735955E-007  0.2276601E+04  0.7818608E-02  0.8487204E-01
          2   -1    0    0  501    0  0.00000000000E+00  0.00000000000E+00  0.89209143761E+03  0.89209143761E+03  0.00000000000E+00 0. -1.
         -1   -1    0    0    0  501 -0.00000000000E+00 -0.00000000000E+00 -0.14524611253E+04  0.14524611253E+04  0.00000000000E+00 0.  1.
         24    2    1    2    0    0 -0.14834545847E+03 -0.82502561754E+03  0.23029953614E+03  0.87303077512E+03  0.80443851847E+02 0.  0.
        254    2    1    2    0    0  0.14834545847E+03  0.82502561754E+03 -0.79066922379E+03  0.14715217878E+04  0.91517479518E+03 0.  0.
         23    2    4    4    0    0  0.38880746528E+03  0.82051123705E+03 -0.80018579940E+03  0.12138098060E+04  0.92881626186E+02 0.  0.
         23    2    4    4    0    0 -0.24046200681E+03  0.45143804901E+01  0.95165756128E+01  0.25771198172E+03  0.92100727245E+02 0.  0.
          2    1    3    3  502    0 -0.15414529227E+03 -0.75868017315E+03  0.22503778998E+03  0.80622477211E+03  0.00000000000E+00 0. -1.
         -1    1    3    3    0  502  0.57998337965E+01 -0.66345444398E+02  0.52617461665E+01  0.66806003002E+02  0.00000000000E+00 0.  1.
         13    1    5    5    0    0  0.18785182326E+03  0.50127181178E+03 -0.45780282301E+03  0.70437572470E+03  0.00000000000E+00 0. -1.
        -13    1    5    5    0    0  0.20095564202E+03  0.31923942527E+03 -0.34238297639E+03  0.50943408134E+03  0.00000000000E+00 0.  1.
          3    1    6    6  503    0 -0.14473659964E+03 -0.28749464826E+02  0.38127565449E+02  0.15241038760E+03  0.00000000000E+00 0. -1.
         -3    1    6    6    0  503 -0.95725407172E+02  0.33263845316E+02 -0.28610989836E+02  0.10530159411E+03  0.00000000000E+00 0.  1.
<mgrwt>
<rscale>  0 0.22766011E+04</rscale>
<asrwt>0</asrwt>
<pdfrwt beam="1">  1        2 0.13724484E+00 0.22766011E+04</pdfrwt>
<pdfrwt beam="2">  1       -1 0.22345556E+00 0.22766011E+04</pdfrwt>
<totfact> 0.32091885E+00</totfact>
</mgrwt>
</event>
<event>
12    7  0.1735955E-007  0.3543164E+04  0.7818608E-02  0.8103636E-01
         -1   -1    0    0    0  501 -0.00000000000E+00  0.00000000000E+00  0.13793291035E+04  0.13793291035E+04  0.00000000000E+00 0.  1.
          2   -1    0    0  501    0  0.00000000000E+00 -0.00000000000E+00 -0.22753842005E+04  0.22753842005E+04  0.00000000000E+00 0. -1.
         24    2    1    2    0    0  0.96712618879E+02 -0.16203665232E+04 -0.76327104277E+03  0.17955218814E+04  0.79844485751E+02 0.  0.
        254    2    1    2    0    0 -0.96712618879E+02  0.16203665232E+04 -0.13278405417E+03  0.18591914226E+04  0.89667170174E+03 0.  0.
         23    2    4    4    0    0  0.14487097634E+03 -0.39385145174E+02 -0.63490966568E+01  0.17471761309E+03  0.89146754558E+02 0.  0.
         23    2    4    4    0    0 -0.24158359522E+03  0.16597516683E+04 -0.12643495751E+03  0.16844738095E+04  0.91257779665E+02 0.  0.
          2    1    3    3  502    0 -0.52897743855E+01 -0.30757685430E+03 -0.16746908808E+03  0.35025333471E+03  0.00000000000E+00 0. -1.
         -1    1    3    3    0  502  0.10200239326E+03 -0.13127896689E+04 -0.59580195469E+03  0.14452685467E+04  0.00000000000E+00 0.  1.
         13    1    5    5    0    0  0.11675017204E+03 -0.62734678441E+02  0.13328696121E+02  0.13320621867E+03  0.00000000000E+00 0. -1.
        -13    1    5    5    0    0  0.28120804297E+02  0.23349533267E+02 -0.19677792778E+02  0.41511394420E+02  0.00000000000E+00 0.  1.
          4    1    6    6  503    0 -0.22517714305E+03  0.15838820124E+04 -0.10183731666E+03  0.16030464167E+04  0.00000000000E+00 0. -1.
         -4    1    6    6    0  503 -0.16406452164E+02  0.75869655944E+02 -0.24597640855E+02  0.81427392819E+02  0.00000000000E+00 0.  1.
<mgrwt>
<rscale>  0 0.35431645E+04</rscale>
<asrwt>0</asrwt>
<pdfrwt beam="1">  1        2 0.35005910E+00 0.35431645E+04</pdfrwt>
<pdfrwt beam="2">  1       -1 0.21220448E+00 0.35431645E+04</pdfrwt>
<totfact> 0.54130967E-01</totfact>
</mgrwt>
</event>
<event>
12    7  0.1735955E-007  0.2655341E+04  0.7818608E-02  0.8349643E-01
         -1   -1    0    0    0  501 -0.00000000000E+00  0.00000000000E+00  0.40749267709E+03  0.40749267709E+03  0.00000000000E+00 0.  1.
          2   -1    0    0  501    0  0.00000000000E+00 -0.00000000000E+00 -0.43257424166E+04  0.43257424166E+04  0.00000000000E+00 0. -1.
         24    2    1    2    0    0 -0.44340473704E+03  0.10373853701E+04 -0.11521318144E+04  0.16145584784E+04  0.81333850541E+02 0.  0.
        254    2    1    2    0    0  0.44340473704E+03 -0.10373853701E+04 -0.27661179250E+04  0.31186766153E+04  0.89552179676E+03 0.  0.
         23    2    4    4    0    0  0.23362659405E+03 -0.82448435902E+03 -0.26473930832E+04  0.27842220333E+04  0.94055036179E+02 0.  0.
         23    2    4    4    0    0  0.20977814299E+03 -0.21290101112E+03 -0.11872484181E+03  0.33445458199E+03  0.91818132948E+02 0.  0.
          2    1    3    3  502    0 -0.24893552547E+02  0.62734529245E+02 -0.43865941537E+02  0.80495533696E+02  0.00000000000E+00 0. -1.
         -1    1    3    3    0  502 -0.41851118449E+03  0.97465084090E+03 -0.11082658729E+04  0.15340629447E+04  0.00000000000E+00 0.  1.
         13    1    5    5    0    0  0.12637421798E+03 -0.59985689727E+03 -0.19061007571E+04  0.20022534396E+04  0.00000000000E+00 0. -1.
        -13    1    5    5    0    0  0.10725237607E+03 -0.22462746175E+03 -0.74129232610E+03  0.78196859367E+03  0.00000000000E+00 0.  1.
          2    1    6    6  503    0  0.20284890503E+03 -0.20957576346E+03 -0.13118777298E+03  0.31981230539E+03  0.00000000000E+00 0. -1.
         -2    1    6    6    0  503  0.69292379622E+01 -0.33252476645E+01  0.12462931167E+02  0.14642276601E+02  0.00000000000E+00 0.  1.
<mgrwt>
<rscale>  0 0.26553405E+04</rscale>
<asrwt>0</asrwt>
<pdfrwt beam="1">  1        2 0.66549881E+00 0.26553405E+04</pdfrwt>
<pdfrwt beam="2">  1       -1 0.62691183E-01 0.26553405E+04</pdfrwt>
<totfact> 0.46576376E-01</totfact>
</mgrwt>
</event>
<event>
12    7  0.1735955E-007  0.1753824E+04  0.7818608E-02  0.8731248E-01
         -3   -1    0    0    0  501 -0.00000000000E+00  0.00000000000E+00  0.23193044713E+04  0.23193044713E+04  0.00000000000E+00 0.  1.
          4   -1    0    0  501    0  0.00000000000E+00 -0.00000000000E+00 -0.33155416651E+03  0.33155416651E+03  0.00000000000E+00 0. -1.
         24    2    1    2    0    0  0.22936003813E+03  0.45611976246E+03  0.90275432676E+03  0.10401250891E+04  0.79016212216E+02 0.  0.
        254    2    1    2    0    0 -0.22936003813E+03 -0.45611976246E+03  0.10849959780E+04  0.16107335486E+04  0.10754510810E+04 0.  0.
         23    2    4    4    0    0  0.31291280049E+03  0.14636178396E+03  0.46022445206E+03  0.58236173419E+03  0.89456417664E+02 0.  0.
         23    2    4    4    0    0 -0.54227283862E+03 -0.60248154642E+03  0.62477152593E+03  0.10283718144E+04  0.10082303217E+03 0.  0.
          4    1    3    3  502    0  0.30670413313E+02  0.10932546770E+03  0.25256414416E+03  0.27691402827E+03  0.00000000000E+00 0. -1.
         -3    1    3    3    0  502  0.19868962482E+03  0.34679429476E+03  0.65019018260E+03  0.76321106088E+03  0.00000000000E+00 0.  1.
         13    1    5    5    0    0  0.18511125066E+03  0.98945235971E+02  0.34518967847E+03  0.40399535761E+03  0.00000000000E+00 0. -1.
        -13    1    5    5    0    0  0.12780154983E+03  0.47416547989E+02  0.11503477359E+03  0.17836637658E+03  0.00000000000E+00 0.  1.
          3    1    6    6  503    0 -0.36573008444E+03 -0.46770701420E+03  0.43170940652E+03  0.73408538841E+03  0.00000000000E+00 0. -1.
         -3    1    6    6    0  503 -0.17654275418E+03 -0.13477453222E+03  0.19306211941E+03  0.29428642602E+03  0.00000000000E+00 0.  1.
<mgrwt>
<rscale>  0 0.17538245E+04</rscale>
<asrwt>0</asrwt>
<pdfrwt beam="1">  1        4 0.51008335E-01 0.17538245E+04</pdfrwt>
<pdfrwt beam="2">  1       -3 0.35681606E+00 0.17538245E+04</pdfrwt>
<totfact> 0.14815584E-01</totfact>
</mgrwt>
</event>
<event>
12    7  0.1735955E-007  0.2381926E+04  0.7818608E-02  0.8446301E-01
          2   -1    0    0  501    0  0.00000000000E+00  0.00000000000E+00  0.23183517994E+04  0.23183517994E+04  0.00000000000E+00 0. -1.
         -1   -1    0    0    0  501 -0.00000000000E+00 -0.00000000000E+00 -0.61181077588E+03  0.61181077588E+03  0.00000000000E+00 0.  1.
         24    2    1    2    0    0  0.29712181777E+03 -0.71053102404E+03 -0.88799760488E+02  0.77917552144E+03  0.78060137187E+02 0.  0.
        254    2    1    2    0    0 -0.29712181777E+03  0.71053102404E+03  0.17953407840E+04  0.21509870539E+04  0.90020056894E+03 0.  0.
         23    2    4    4    0    0  0.29000052222E+03  0.15259246410E+03  0.76836489304E+03  0.84010501381E+03  0.89482190322E+02 0.  0.
         23    2    4    4    0    0 -0.58712233999E+03  0.55793855995E+03  0.10269758910E+04  0.13108820400E+04  0.87887219999E+02 0.  0.
          4    1    3    3  502    0  0.57769573773E+02 -0.22641279160E+03 -0.15673532739E+02  0.23419166399E+03  0.00000000000E+00 0. -1.
         -3    1    3    3    0  502  0.23935224400E+03 -0.48411823245E+03 -0.73126227749E+02  0.54498385745E+03  0.00000000000E+00 0.  1.
         13    1    5    5    0    0  0.84974137820E+02  0.93450309191E+02  0.28617966280E+03  0.31281362468E+03  0.00000000000E+00 0. -1.
        -13    1    5    5    0    0  0.20502638440E+03  0.59142154907E+02  0.48218523024E+03  0.52729138913E+03  0.00000000000E+00 0.  1.
          1    1    6    6  503    0 -0.11401910936E+03  0.74496408766E+02  0.13883250785E+03  0.19448531424E+03  0.00000000000E+00 0. -1.
         -1    1    6    6    0  503 -0.47310323063E+03  0.48344215118E+03  0.88814338313E+03  0.11163967258E+04  0.00000000000E+00 0.  1.
<mgrwt>
<rscale>  0 0.23819258E+04</rscale>
<asrwt>0</asrwt>
<pdfrwt beam="1">  1        2 0.35666950E+00 0.23819258E+04</pdfrwt>
<pdfrwt beam="2">  1       -1 0.94124736E-01 0.23819258E+04</pdfrwt>
<totfact> 0.49569480E+00</totfact>
</mgrwt>
</event>
<event>
12    7  0.1735955E-007  0.1794958E+04  0.7818608E-02  0.8708985E-01
         -1   -1    0    0    0  501 -0.00000000000E+00  0.00000000000E+00  0.37234095592E+03  0.37234095592E+03  0.00000000000E+00 0.  1.
          2   -1    0    0  501    0  0.00000000000E+00 -0.00000000000E+00 -0.21632560131E+04  0.21632560131E+04  0.00000000000E+00 0. -1.
         24    2    1    2    0    0 -0.23994297076E+03 -0.35614609360E+03 -0.14090956068E+04  0.14752789532E+04  0.80528823413E+02 0.  0.
        254    2    1    2    0    0  0.23994297076E+03  0.35614609360E+03 -0.38181945042E+03  0.10603180159E+04  0.89110915877E+03 0.  0.
         23    2    4    4    0    0  0.39077199597E+03  0.17157604037E+03 -0.58879687915E+03  0.73294240594E+03  0.91551707057E+02 0.  0.
         23    2    4    4    0    0 -0.15082902522E+03  0.18457005323E+03  0.20697742873E+03  0.32737560992E+03  0.86715826530E+02 0.  0.
          2    1    3    3  502    0 -0.17980042766E+03 -0.28518682456E+03 -0.11993424337E+04  0.12458258273E+04  0.00000000000E+00 0. -1.
         -1    1    3    3    0  502 -0.60142543092E+02 -0.70959269041E+02 -0.20975317308E+03  0.22945312587E+03  0.00000000000E+00 0.  1.
         13    1    5    5    0    0  0.30874488341E+03  0.15193790109E+03 -0.41011037009E+03  0.53534946014E+03  0.00000000000E+00 0. -1.
        -13    1    5    5    0    0  0.82027112564E+02  0.19638139285E+02 -0.17868650906E+03  0.19759294580E+03  0.00000000000E+00 0.  1.
          3    1    6    6  503    0 -0.11720805985E+03  0.82686072984E+02  0.14256893123E+03  0.20223900739E+03  0.00000000000E+00 0. -1.
         -3    1    6    6    0  503 -0.33620965370E+02  0.10188398024E+03  0.64408497508E+02  0.12513660253E+03  0.00000000000E+00 0.  1.
<mgrwt>
<rscale>  0 0.17949583E+04</rscale>
<asrwt>0</asrwt>
<pdfrwt beam="1">  1        2 0.33280862E+00 0.17949583E+04</pdfrwt>
<pdfrwt beam="2">  1       -1 0.57283223E-01 0.17949583E+04</pdfrwt>
<totfact> 0.17978089E+01</totfact>
</mgrwt>
</event>
<event>
12    7  0.1735955E-007  0.1457640E+04  0.7818608E-02  0.8913121E-01
         -1   -1    0    0    0  501 -0.00000000000E+00  0.00000000000E+00  0.62025813499E+03  0.62025813499E+03  0.00000000000E+00 0.  1.
          2   -1    0    0  501    0  0.00000000000E+00 -0.00000000000E+00 -0.85638258957E+03  0.85638258957E+03  0.00000000000E+00 0. -1.
         24    2    1    2    0    0  0.12879632161E+03  0.16035851153E+03 -0.48146227282E+03  0.52983503492E+03  0.81338179225E+02 0.  0.
        254    2    1    2    0    0 -0.12879632161E+03 -0.16035851153E+03  0.24533781824E+03  0.94680568965E+03  0.89103704985E+03 0.  0.
         23    2    4    4    0    0  0.27954958657E+03 -0.33827842318E+03  0.45806450976E+02  0.45027211449E+03  0.89813602546E+02 0.  0.
         23    2    4    4    0    0 -0.40834590818E+03  0.17791991165E+03  0.19953136726E+03  0.49653357516E+03  0.91274032703E+02 0.  0.
          2    1    3    3  502    0  0.93308848179E+02  0.88830584398E+02 -0.37664604826E+03  0.39806991791E+03  0.00000000000E+00 0. -1.
         -1    1    3    3    0  502  0.35487473434E+02  0.71527927129E+02 -0.10481622455E+03  0.13176511701E+03  0.00000000000E+00 0.  1.
         13    1    5    5    0    0  0.21841706591E+02 -0.37634458315E+02  0.32068871426E+02  0.54053909332E+02  0.00000000000E+00 0. -1.
        -13    1    5    5    0    0  0.25770787998E+03 -0.30064396486E+03  0.13737579549E+02  0.39621820516E+03  0.00000000000E+00 0.  1.
          2    1    6    6  503    0 -0.99892814903E+02  0.74929227879E+02  0.87928281278E+02  0.15272310339E+03  0.00000000000E+00 0. -1.
         -2    1    6    6    0  503 -0.30845309328E+03  0.10299068377E+03  0.11160308598E+03  0.34381047177E+03  0.00000000000E+00 0.  1.
<mgrwt>
<rscale>  0 0.14576396E+04</rscale>
<asrwt>0</asrwt>
<pdfrwt beam="1">  1        2 0.13175117E+00 0.14576396E+04</pdfrwt>
<pdfrwt beam="2">  1       -1 0.95424328E-01 0.14576396E+04</pdfrwt>
<totfact> 0.36857238E+01</totfact>
</mgrwt>
</event>
<event>
12    7  0.1735955E-007  0.1042981E+04  0.7818608E-02  0.9262621E-01
          2   -1    0    0  501    0  0.00000000000E+00  0.00000000000E+00  0.37841458160E+04  0.37841458160E+04  0.00000000000E+00 0. -1.
         -1   -1    0    0    0  501 -0.00000000000E+00 -0.00000000000E+00 -0.71866220127E+02  0.71866220127E+02  0.00000000000E+00 0.  1.
         24    2    1    2    0    0  0.75431397242E+01  0.68222248776E+02  0.16609999207E+03  0.19692399367E+03  0.80490233761E+02 0.  0.
        254    2    1    2    0    0 -0.75431397242E+01 -0.68222248776E+02  0.35461796038E+04  0.36590880425E+04  0.89934662165E+03 0.  0.
         23    2    4    4    0    0  0.39001334528E+03 -0.23014279528E+03  0.18597753845E+04  0.19164152224E+04  0.93844062573E+02 0.  0.
         23    2    4    4    0    0 -0.39755648500E+03  0.16192054651E+03  0.16864042193E+04  0.17426728201E+04  0.93166221375E+02 0.  0.
          4    1    3    3  502    0  0.14962965788E+02  0.55458613380E+02  0.17176154534E+03  0.18111205537E+03  0.00000000000E+00 0. -1.
         -1    1    3    3    0  502 -0.74198260643E+01  0.12763635396E+02 -0.56615532671E+01  0.15811938298E+02  0.00000000000E+00 0.  1.
         13    1    5    5    0    0  0.35955529189E+00 -0.17774478514E+02  0.98699256488E+02  0.10028760939E+03  0.00000000000E+00 0. -1.
        -13    1    5    5    0    0  0.38965378998E+03 -0.21236831677E+03  0.17610761280E+04  0.18161276130E+04  0.00000000000E+00 0.  1.
          4    1    6    6  503    0 -0.98520361509E+02  0.66458216088E+02  0.34033898271E+03  0.36049074782E+03  0.00000000000E+00 0. -1.
         -4    1    6    6    0  503 -0.29903612349E+03  0.95462330419E+02  0.13460652366E+04  0.13821820723E+04  0.00000000000E+00 0.  1.
<mgrwt>
<rscale>  0 0.10429808E+04</rscale>
<asrwt>0</asrwt>
<pdfrwt beam="1">  1        2 0.58217612E+00 0.10429808E+04</pdfrwt>
<pdfrwt beam="2">  1       -1 0.11056344E-01 0.10429808E+04</pdfrwt>
<totfact> 0.32235443E+01</totfact>
</mgrwt>
</event>
<event>
12    7  0.1735955E-007  0.1574173E+04  0.7818608E-02  0.8836574E-01
          2   -1    0    0  501    0  0.00000000000E+00  0.00000000000E+00  0.31955048519E+04  0.31955048519E+04  0.00000000000E+00 0. -1.
         -1   -1    0    0    0  501 -0.00000000000E+00 -0.00000000000E+00 -0.19386764010E+03  0.19386764010E+03  0.00000000000E+00 0.  1.
         24    2    1    2    0    0 -0.45040745313E+03 -0.11099941426E+03  0.47066611976E+03  0.66526962935E+03  0.76611615543E+02 0.  0.
        254    2    1    2    0    0  0.45040745313E+03  0.11099941426E+03  0.25309710921E+04  0.27241028627E+04  0.89427847661E+03 0.  0.
         23    2    4    4    0    0  0.31056288558E+03  0.22968266397E+03  0.33958690964E+03  0.52311894300E+03  0.95554839200E+02 0.  0.
         23    2    4    4    0    0  0.13984456755E+03 -0.11868324971E+03  0.21913841824E+04  0.22009839197E+04  0.92322060375E+02 0.  0.
          2    1    3    3  502    0 -0.51272414583E+02  0.11532841554E+02  0.48507577187E+02  0.71518193322E+02  0.00000000000E+00 0. -1.
         -1    1    3    3    0  502 -0.39913503855E+03 -0.12253225581E+03  0.42215854257E+03  0.59375143602E+03  0.00000000000E+00 0.  1.
         13    1    5    5    0    0  0.23426103125E+02  0.50153218402E+01  0.57032514811E+02  0.61859869919E+02  0.00000000000E+00 0. -1.
        -13    1    5    5    0    0  0.28713678246E+03  0.22466734213E+03  0.28255439483E+03  0.46125907308E+03  0.00000000000E+00 0.  1.
          2    1    6    6  503    0  0.77017064841E+02 -0.16139655271E+02  0.61397102665E+03  0.61899316500E+03  0.00000000000E+00 0.  1.
         -2    1    6    6    0  503  0.62827502709E+02 -0.10254359444E+03  0.15774131558E+04  0.15819907547E+04  0.00000000000E+00 0. -1.
<mgrwt>
<rscale>  0 0.15741728E+04</rscale>
<asrwt>0</asrwt>
<pdfrwt beam="1">  1        2 0.49161609E+00 0.15741728E+04</pdfrwt>
<pdfrwt beam="2">  1       -1 0.29825793E-01 0.15741728E+04</pdfrwt>
<totfact> 0.14849251E+01</totfact>
</mgrwt>
</event>
<event>
12    7  0.1735955E-007  0.1636752E+04  0.7818608E-02  0.8798283E-01
         -1   -1    0    0    0  501 -0.00000000000E+00  0.00000000000E+00  0.71993181857E+03  0.71993181857E+03  0.00000000000E+00 0.  1.
          2   -1    0    0  501    0  0.00000000000E+00 -0.00000000000E+00 -0.93028174720E+03  0.93028174720E+03  0.00000000000E+00 0. -1.
         24    2    1    2    0    0 -0.55116977938E+03 -0.74851771953E+02  0.24780576832E+02  0.56258256235E+03  0.80586282956E+02 0.  0.
        254    2    1    2    0    0  0.55116977938E+03  0.74851771953E+02 -0.23513050547E+03  0.10876310034E+04  0.90457942246E+03 0.  0.
         23    2    4    4    0    0  0.38173559461E+03  0.17659432409E+02  0.31328310776E+03  0.50304309798E+03  0.94192001124E+02 0.  0.
         23    2    4    4    0    0  0.16943418478E+03  0.57192339544E+02 -0.54841361323E+03  0.58458790544E+03  0.94903220943E+02 0.  0.
          4    1    3    3  502    0 -0.40439010995E+02 -0.19181175253E+02  0.19444954851E+02  0.48798948385E+02  0.00000000000E+00 0. -1.
         -3    1    3    3    0  502 -0.51073076839E+03 -0.55670596700E+02  0.53356219803E+01  0.51378361396E+03  0.00000000000E+00 0.  1.
         13    1    5    5    0    0  0.29165345481E+03  0.73980218361E+01  0.28554336629E+03  0.40822969326E+03  0.00000000000E+00 0. -1.
        -13    1    5    5    0    0  0.90082139800E+02  0.10261410573E+02  0.27739741472E+02  0.94813404721E+02  0.00000000000E+00 0.  1.
          2    1    6    6  503    0  0.17934570052E+03  0.42302962332E+02 -0.49024715850E+03  0.52373342201E+03  0.00000000000E+00 0. -1.
         -2    1    6    6    0  503 -0.99115157421E+01  0.14889377212E+02 -0.58166454731E+02  0.60854483434E+02  0.00000000000E+00 0.  1.
<mgrwt>
<rscale>  0 0.16367522E+04</rscale>
<asrwt>0</asrwt>
<pdfrwt beam="1">  1        2 0.14312027E+00 0.16367522E+04</pdfrwt>
<pdfrwt beam="2">  1       -1 0.11075874E+00 0.16367522E+04</pdfrwt>
<totfact> 0.22929792E+01</totfact>
</mgrwt>
</event>
<event>
12    7  0.1735955E-007  0.1486871E+04  0.7818608E-02  0.8893230E-01
         -1   -1    0    0    0  501 -0.00000000000E+00  0.00000000000E+00  0.25425266389E+03  0.25425266389E+03  0.00000000000E+00 0.  1.
          2   -1    0    0  501    0  0.00000000000E+00 -0.00000000000E+00 -0.21738088826E+04  0.21738088826E+04  0.00000000000E+00 0. -1.
         24    2    1    2    0    0 -0.41427600980E+03 -0.20073253867E+03 -0.68184869137E+03  0.82694926762E+03  0.83721496092E+02 0.  0.
        254    2    1    2    0    0  0.41427600980E+03  0.20073253867E+03 -0.12377075274E+04  0.16011122789E+04  0.90538524508E+03 0.  0.
         23    2    4    4    0    0 -0.11550495006E+03  0.48465550018E+02 -0.96869006063E+03  0.98102132341E+03  0.91389826540E+02 0.  0.
         23    2    4    4    0    0  0.52978095986E+03  0.15226698865E+03 -0.26901746674E+03  0.62009095550E+03  0.91045562330E+02 0.  0.
          4    1    3    3  502    0 -0.17063531248E+02  0.65146450462E+01 -0.15332815157E+02  0.23847430037E+02  0.00000000000E+00 0. -1.
         -3    1    3    3    0  502 -0.39721247855E+03 -0.20724718372E+03 -0.66651587622E+03  0.80310183758E+03  0.00000000000E+00 0.  1.
         13    1    5    5    0    0  0.73705393752E+00  0.26929962132E+02 -0.78030068704E+02  0.82549728836E+02  0.00000000000E+00 0.  1.
        -13    1    5    5    0    0 -0.11624200400E+03  0.21535587886E+02 -0.89065999193E+03  0.89847159458E+03  0.00000000000E+00 0. -1.
          4    1    6    6  503    0  0.33693373258E+03  0.12275158958E+03 -0.21312122935E+03  0.41714859618E+03  0.00000000000E+00 0. -1.
         -4    1    6    6    0  503  0.19284722728E+03  0.29515399071E+02 -0.55896237382E+02  0.20294235932E+03  0.00000000000E+00 0.  1.
<mgrwt>
<rscale>  0 0.14868715E+04</rscale>
<asrwt>0</asrwt>
<pdfrwt beam="1">  1        2 0.33443213E+00 0.14868715E+04</pdfrwt>
<pdfrwt beam="2">  1       -1 0.39115795E-01 0.14868715E+04</pdfrwt>
<totfact> 0.37376976E+01</totfact>
</mgrwt>
</event>
<event>
12    7  0.1735955E-007  0.1244855E+04  0.7818608E-02  0.9074476E-01
         -1   -1    0    0    0  501 -0.00000000000E+00  0.00000000000E+00  0.16196487046E+03  0.16196487046E+03  0.00000000000E+00 0.  1.
          2   -1    0    0  501    0  0.00000000000E+00 -0.00000000000E+00 -0.23919769443E+04  0.23919769443E+04  0.00000000000E+00 0. -1.
         24    2    1    2    0    0 -0.18835739110E+03  0.83084981937E+02 -0.14051903530E+03  0.26257844190E+03  0.82584610328E+02 0.  0.
        254    2    1    2    0    0  0.18835739110E+03 -0.83084981937E+02 -0.20894930385E+04  0.22913633728E+04  0.91759649487E+03 0.  0.
         23    2    4    4    0    0 -0.32624612383E+02 -0.42150568059E+03 -0.56478802622E+03  0.71133520275E+03  0.90999186878E+02 0.  0.
         23    2    4    4    0    0  0.22098200349E+03  0.33842069865E+03 -0.15247050123E+04  0.15800281701E+04  0.91662580298E+02 0.  0.
          4    1    3    3  502    0 -0.12386385753E+03  0.69946205568E+02 -0.13568372807E+03  0.19658280937E+03  0.00000000000E+00 0. -1.
         -3    1    3    3    0  502 -0.64493533578E+02  0.13138776369E+02 -0.48353072281E+01  0.65995632536E+02  0.00000000000E+00 0.  1.
         13    1    5    5    0    0 -0.25744036653E+02 -0.34124785096E+02 -0.36547881721E+02  0.56240590674E+02  0.00000000000E+00 0. -1.
        -13    1    5    5    0    0 -0.68805757299E+01 -0.38738089549E+03 -0.52824014450E+03  0.65509461208E+03  0.00000000000E+00 0.  1.
          2    1    6    6  503    0  0.69001591990E+02  0.43079745993E+02 -0.34455859203E+03  0.35403065906E+03  0.00000000000E+00 0. -1.
         -2    1    6    6    0  503  0.15198041150E+03  0.29534095266E+03 -0.11801464203E+04  0.12259975110E+04  0.00000000000E+00 0.  1.
<mgrwt>
<rscale>  0 0.12448554E+04</rscale>
<asrwt>0</asrwt>
<pdfrwt beam="1">  1        2 0.36799644E+00 0.12448554E+04</pdfrwt>
<pdfrwt beam="2">  1       -1 0.24917673E-01 0.12448554E+04</pdfrwt>
<totfact> 0.63701479E+01</totfact>
</mgrwt>
</event>
<event>
12    7  0.1735955E-007  0.1591189E+04  0.7818608E-02  0.8825979E-01
          2   -1    0    0  501    0  0.00000000000E+00  0.00000000000E+00  0.45984534567E+04  0.45984534567E+04  0.00000000000E+00 0. -1.
         -1   -1    0    0    0  501 -0.00000000000E+00 -0.00000000000E+00 -0.13764856111E+03  0.13764856111E+03  0.00000000000E+00 0.  1.
         24    2    1    2    0    0 -0.37757550930E+03  0.16272150448E+03  0.48737504273E+03  0.64280861362E+03  0.81405947133E+02 0.  0.
        254    2    1    2    0    0  0.37757550930E+03 -0.16272150448E+03  0.39734298529E+04  0.40932934042E+04  0.89323263704E+03 0.  0.
         23    2    4    4    0    0  0.58345435031E+03 -0.35293187847E+03  0.28209974937E+04  0.29036419758E+04  0.90166371304E+02 0.  0.
         23    2    4    4    0    0 -0.20587884100E+03  0.19021037399E+03  0.11524323591E+04  0.11896514284E+04  0.92758261257E+02 0.  0.
          2    1    3    3  502    0 -0.16711494968E+02  0.24705434903E+01  0.18428093053E+01  0.16993339734E+02  0.00000000000E+00 0. -1.
         -1    1    3    3    0  502 -0.36086401434E+03  0.16025096099E+03  0.48553223342E+03  0.62581527389E+03  0.00000000000E+00 0.  1.
         13    1    5    5    0    0  0.56305748340E+03 -0.35406508117E+03  0.27692882696E+04  0.28480437727E+04  0.00000000000E+00 0. -1.
        -13    1    5    5    0    0  0.20396866909E+02  0.11332026940E+01  0.51709224152E+02  0.55598203122E+02  0.00000000000E+00 0.  1.
          2    1    6    6  503    0 -0.19262499620E+03  0.19795011290E+03  0.10350121008E+04  0.10712323208E+04  0.00000000000E+00 0. -1.
         -2    1    6    6    0  503 -0.13253844807E+02 -0.77397389036E+01  0.11742025835E+03  0.11841910754E+03  0.00000000000E+00 0.  1.
<mgrwt>
<rscale>  0 0.15911889E+04</rscale>
<asrwt>0</asrwt>
<pdfrwt beam="1">  1        2 0.70745426E+00 0.15911889E+04</pdfrwt>
<pdfrwt beam="2">  1       -1 0.21176705E-01 0.15911889E+04</pdfrwt>
<totfact> 0.20591110E+00</totfact>
</mgrwt>
</event>
<event>
12    7  0.1735955E-007  0.1483428E+04  0.7818608E-02  0.8895549E-01
          2   -1    0    0  501    0  0.00000000000E+00  0.00000000000E+00  0.10632497704E+04  0.10632497704E+04  0.00000000000E+00 0. -1.
         -1   -1    0    0    0  501 -0.00000000000E+00 -0.00000000000E+00 -0.51741317887E+03  0.51741317887E+03  0.00000000000E+00 0.  1.
         24    2    1    2    0    0  0.65056975818E+02  0.38403002915E+03  0.44256247361E+03  0.59476985289E+03  0.78601281605E+02 0.  0.
        254    2    1    2    0    0 -0.65056975818E+02 -0.38403002915E+03  0.10327411790E+03  0.98589309636E+03  0.89978229624E+03 0.  0.
         23    2    4    4    0    0 -0.32967906900E+03 -0.48197865347E+03 -0.13523614371E+03  0.60678971537E+03  0.94409920952E+02 0.  0.
         23    2    4    4    0    0  0.26462209318E+03  0.97948624322E+02  0.23851026160E+03  0.37910338099E+03  0.84931992673E+02 0.  0.
          4    1    3    3  502    0  0.52999069713E+02  0.23661242725E+03  0.21916539818E+03  0.32684524454E+03  0.00000000000E+00 0. -1.
         -3    1    3    3    0  502  0.12057906105E+02  0.14741760190E+03  0.22339707543E+03  0.26792460835E+03  0.00000000000E+00 0.  1.
         13    1    5    5    0    0 -0.78583197962E+02 -0.80837684581E+02  0.60529841594E+01  0.11290123501E+03  0.00000000000E+00 0.  1.
        -13    1    5    5    0    0 -0.25109587104E+03 -0.40114096889E+03 -0.14128912787E+03  0.49388848036E+03  0.00000000000E+00 0. -1.
          3    1    6    6  503    0  0.25726138828E+03  0.10732308095E+03  0.21256159349E+03  0.35054828003E+03  0.00000000000E+00 0. -1.
         -3    1    6    6    0  503  0.73607048993E+01 -0.93744566297E+01  0.25948668114E+02  0.28555100956E+02  0.00000000000E+00 0.  1.
<mgrwt>
<rscale>  0 0.14834277E+04</rscale>
<asrwt>0</asrwt>
<pdfrwt beam="1">  1        2 0.16357689E+00 0.14834277E+04</pdfrwt>
<pdfrwt beam="2">  1       -1 0.79602028E-01 0.14834277E+04</pdfrwt>
<totfact> 0.39958742E+01</totfact>
</mgrwt>
</event>
<event>
12    7  0.1735955E-007  0.2152534E+04  0.7818608E-02  0.8538448E-01
         -1   -1    0    0    0  501 -0.00000000000E+00  0.00000000000E+00  0.93461513615E+03  0.93461513615E+03  0.00000000000E+00 0.  1.
          2   -1    0    0  501    0  0.00000000000E+00 -0.00000000000E+00 -0.12393876809E+04  0.12393876809E+04  0.00000000000E+00 0. -1.
         24    2    1    2    0    0  0.35995312408E+03 -0.59689442390E+02 -0.93529860376E+03  0.10070657520E+04  0.79176192760E+02 0.  0.
        254    2    1    2    0    0 -0.35995312408E+03  0.59689442390E+02  0.63052605896E+03  0.11669370651E+04  0.91161939531E+03 0.  0.
         23    2    4    4    0    0 -0.48395937382E+03  0.32773412341E+03  0.17609736303E+03  0.61709200223E+03  0.90365517720E+02 0.  0.
         23    2    4    4    0    0  0.12400624974E+03 -0.26804468102E+03  0.45442869593E+03  0.54984506291E+03  0.92728919539E+02 0.  0.
          2    1    3    3  502    0  0.23208280897E+03 -0.10840504210E+02 -0.51357844577E+03  0.56368676294E+03  0.00000000000E+00 0. -1.
         -1    1    3    3    0  502  0.12787031510E+03 -0.48848938180E+02 -0.42172015800E+03  0.44337898902E+03  0.00000000000E+00 0.  1.
         13    1    5    5    0    0 -0.13127387238E+03  0.59818723319E+02  0.75837818015E+02  0.16298001064E+03  0.00000000000E+00 0.  1.
        -13    1    5    5    0    0 -0.35268550145E+03  0.26791540009E+03  0.10025954501E+03  0.45411199159E+03  0.00000000000E+00 0. -1.
          1    1    6    6  503    0  0.77535936355E+02 -0.11829014517E+03  0.28992371412E+03  0.32258353938E+03  0.00000000000E+00 0. -1.
         -1    1    6    6    0  503  0.46470313390E+02 -0.14975453586E+03  0.16450498182E+03  0.22726152353E+03  0.00000000000E+00 0.  1.
<mgrwt>
<rscale>  0 0.21525338E+04</rscale>
<asrwt>0</asrwt>
<pdfrwt beam="1">  1        2 0.19067503E+00 0.21525338E+04</pdfrwt>
<pdfrwt beam="2">  1       -1 0.14378694E+00 0.21525338E+04</pdfrwt>
<totfact> 0.73341946E+00</totfact>
</mgrwt>
</event>
<event>
12    7  0.1735955E-007  0.2083046E+04  0.7818608E-02  0.8568749E-01
          2   -1    0    0  501    0  0.00000000000E+00  0.00000000000E+00  0.10302343562E+04  0.10302343562E+04  0.00000000000E+00 0. -1.
         -1   -1    0    0    0  501 -0.00000000000E+00 -0.00000000000E+00 -0.10529350166E+04  0.10529350166E+04  0.00000000000E+00 0.  1.
         24    2    1    2    0    0 -0.64989671077E+03  0.36531021812E+03  0.38610514765E+03  0.84348324432E+03  0.81052503143E+02 0.  0.
        254    2    1    2    0    0  0.64989671077E+03 -0.36531021812E+03 -0.40880580812E+03  0.12396861285E+04  0.90215420980E+03 0.  0.
         23    2    4    4    0    0  0.43179709234E+03 -0.43328864334E+03  0.14394716681E+03  0.63540821675E+03  0.93994881172E+02 0.  0.
         23    2    4    4    0    0  0.21809961843E+03  0.67978425214E+02 -0.55275297493E+03  0.60427791173E+03  0.86182558865E+02 0.  0.
          4    1    3    3  502    0 -0.64973872490E+03  0.36142106843E+03  0.37707364113E+03  0.83364868510E+03  0.00000000000E+00 0. -1.
         -3    1    3    3    0  502 -0.15798587417E+00  0.38891496891E+01  0.90315065287E+01  0.98345592183E+01  0.00000000000E+00 0.  1.
         13    1    5    5    0    0  0.10077116654E+03 -0.51270686638E+02  0.18238948882E+02  0.11452585110E+03  0.00000000000E+00 0. -1.
        -13    1    5    5    0    0  0.33102592580E+03 -0.38201795670E+03  0.12570821793E+03  0.52088236565E+03  0.00000000000E+00 0.  1.
          1    1    6    6  503    0  0.17408028940E+03  0.26672064057E+02 -0.33704042857E+03  0.38027831472E+03  0.00000000000E+00 0. -1.
         -1    1    6    6    0  503  0.44019329032E+02  0.41306361157E+02 -0.21571254636E+03  0.22399959700E+03  0.00000000000E+00 0.  1.
<mgrwt>
<rscale>  0 0.20830457E+04</rscale>
<asrwt>0</asrwt>
<pdfrwt beam="1">  1        2 0.15849759E+00 0.20830457E+04</pdfrwt>
<pdfrwt beam="2">  1       -1 0.16199000E+00 0.20830457E+04</pdfrwt>
<totfact> 0.71582675E+00</totfact>
</mgrwt>
</event>
<event>
12    7  0.1735955E-007  0.1253400E+04  0.7818608E-02  0.9067358E-01
         -1   -1    0    0    0  501 -0.00000000000E+00  0.00000000000E+00  0.67218240931E+03  0.67218240931E+03  0.00000000000E+00 0.  1.
          2   -1    0    0  501    0  0.00000000000E+00 -0.00000000000E+00 -0.58429556232E+03  0.58429556232E+03  0.00000000000E+00 0. -1.
         24    2    1    2    0    0  0.12810473597E+03 -0.50746485187E+02  0.28731517481E+03  0.32930903569E+03  0.83116798356E+02 0.  0.
        254    2    1    2    0    0 -0.12810473597E+03  0.50746485187E+02 -0.19942832783E+03  0.92716893595E+03  0.89492153215E+03 0.  0.
         23    2    4    4    0    0  0.96959362698E+02  0.43090530133E+03 -0.13148167424E+03  0.47047503415E+03  0.94756690343E+02 0.  0.
         23    2    4    4    0    0 -0.22506409867E+03 -0.38015881615E+03 -0.67946653591E+02  0.45669390179E+03  0.93690971814E+02 0.  0.
          2    1    3    3  502    0  0.11872138056E+03 -0.13179890599E+02  0.18829770112E+03  0.22298991001E+03  0.00000000000E+00 0. -1.
         -1    1    3    3    0  502  0.93833554051E+01 -0.37566594589E+02  0.99017473693E+02  0.10631912567E+03  0.00000000000E+00 0.  1.
         13    1    5    5    0    0 -0.72593865421E+00  0.39073271960E+02 -0.40991845763E+02  0.56635492296E+02  0.00000000000E+00 0. -1.
        -13    1    5    5    0    0  0.97685301352E+02  0.39183202937E+03 -0.90489828479E+02  0.41383954185E+03  0.00000000000E+00 0.  1.
          4    1    6    6  503    0 -0.30558836401E+02 -0.13183628905E+03 -0.76163935752E+01  0.13554578210E+03  0.00000000000E+00 0. -1.
         -4    1    6    6    0  503 -0.19450526227E+03 -0.24832252709E+03 -0.60330260015E+02  0.32114811970E+03  0.00000000000E+00 0.  1.
<mgrwt>
<rscale>  0 0.12534005E+04</rscale>
<asrwt>0</asrwt>
<pdfrwt beam="1">  1        2 0.89891625E-01 0.12534005E+04</pdfrwt>
<pdfrwt beam="2">  1       -1 0.10341268E+00 0.12534005E+04</pdfrwt>
<totfact> 0.50792700E+01</totfact>
</mgrwt>
</event>
<event>
12    7  0.1735955E-007  0.1658126E+04  0.7818608E-02  0.8785614E-01
         -1   -1    0    0    0  501 -0.00000000000E+00  0.00000000000E+00  0.22299885738E+03  0.22299885738E+03  0.00000000000E+00 0.  1.
          2   -1    0    0  501    0  0.00000000000E+00 -0.00000000000E+00 -0.30822815969E+04  0.30822815969E+04  0.00000000000E+00 0. -1.
         24    2    1    2    0    0 -0.29184528232E+03  0.31659920192E+02 -0.11310655495E+02  0.30342230556E+03  0.75902208276E+02 0.  0.
        254    2    1    2    0    0  0.29184528232E+03 -0.31659920192E+02 -0.28479720840E+04  0.30018581487E+04  0.90223685048E+03 0.  0.
         23    2    4    4    0    0 -0.76734872801E+02  0.20864909323E+02  0.53498746282E+01  0.12291251051E+03  0.93569647520E+02 0.  0.
         23    2    4    4    0    0  0.36858015512E+03 -0.52524829514E+02 -0.28533219586E+04  0.28789456382E+04  0.90948334965E+02 0.  0.
          2    1    3    3  502    0 -0.28915829179E+02  0.26704175421E+02 -0.92744561002E+01  0.40438270215E+02  0.00000000000E+00 0. -1.
         -1    1    3    3    0  502 -0.26292945314E+03  0.49557447704E+01 -0.20361993948E+01  0.26298403534E+03  0.00000000000E+00 0.  1.
         13    1    5    5    0    0 -0.93231188427E+02  0.54785847584E+01  0.20659578260E+02  0.95649817357E+02  0.00000000000E+00 0.  1.
        -13    1    5    5    0    0  0.16496315626E+02  0.15386324564E+02 -0.15309703631E+02  0.27262693156E+02  0.00000000000E+00 0. -1.
          2    1    6    6  503    0  0.34580804368E+02  0.77144194067E+01 -0.50297951879E+03  0.50422588254E+03  0.00000000000E+00 0. -1.
         -2    1    6    6    0  503  0.33399935075E+03 -0.60239248921E+02 -0.23503424398E+04  0.23747197556E+04  0.00000000000E+00 0.  1.
<mgrwt>
<rscale>  0 0.16581258E+04</rscale>
<asrwt>0</asrwt>
<pdfrwt beam="1">  1        2 0.47419714E+00 0.16581258E+04</pdfrwt>
<pdfrwt beam="2">  1       -1 0.34307519E-01 0.16581258E+04</pdfrwt>
<totfact> 0.13585334E+01</totfact>
</mgrwt>
</event>
<event>
12    7  0.1735955E-007  0.1217843E+04  0.7818608E-02  0.9097380E-01
         -1   -1    0    0    0  501 -0.00000000000E+00  0.00000000000E+00  0.23902133131E+03  0.23902133131E+03  0.00000000000E+00 0.  1.
          2   -1    0    0  501    0  0.00000000000E+00 -0.00000000000E+00 -0.15512650433E+04  0.15512650433E+04  0.00000000000E+00 0. -1.
         24    2    1    2    0    0  0.19884810930E+03  0.13595756329E+03 -0.52244877947E+03  0.58081748669E+03  0.79819772539E+02 0.  0.
        254    2    1    2    0    0 -0.19884810930E+03 -0.13595756329E+03 -0.78979493256E+03  0.12094688880E+04  0.88374992268E+03 0.  0.
         23    2    4    4    0    0  0.20260777888E+03 -0.37378378394E+03 -0.44799519500E+03  0.62404341753E+03  0.89253924375E+02 0.  0.
         23    2    4    4    0    0 -0.40145588818E+03  0.23782622065E+03 -0.34179973756E+03  0.58542547043E+03  0.90375768043E+02 0.  0.
          2    1    3    3  502    0  0.26490105428E+02  0.78297139130E+01 -0.13528445876E+03  0.13807575779E+03  0.00000000000E+00 0. -1.
         -1    1    3    3    0  502  0.17235800387E+03  0.12812784938E+03 -0.38716432071E+03  0.44274172891E+03  0.00000000000E+00 0.  1.
         13    1    5    5    0    0  0.54321216264E+02 -0.16704493970E+03 -0.14045177073E+03  0.22490332660E+03  0.00000000000E+00 0.  1.
        -13    1    5    5    0    0  0.14828656261E+03 -0.20673884424E+03 -0.30754342427E+03  0.39914009092E+03  0.00000000000E+00 0. -1.
          1    1    6    6  503    0 -0.50003036343E+02  0.69413100090E+02 -0.63402283960E+02  0.10648160273E+03  0.00000000000E+00 0. -1.
         -1    1    6    6    0  503 -0.35145285183E+03  0.16841312056E+03 -0.27839745360E+03  0.47894386770E+03  0.00000000000E+00 0.  1.
<mgrwt>
<rscale>  0 0.12178431E+04</rscale>
<asrwt>0</asrwt>
<pdfrwt beam="1">  1        2 0.23865616E+00 0.12178431E+04</pdfrwt>
<pdfrwt beam="2">  1       -1 0.36772513E-01 0.12178431E+04</pdfrwt>
<totfact> 0.94640844E+01</totfact>
</mgrwt>
</event>
<event>
12    7  0.1735955E-007  0.1700947E+04  0.7818608E-02  0.8760824E-01
          2   -1    0    0  501    0  0.00000000000E+00  0.00000000000E+00  0.12916819698E+04  0.12916819698E+04  0.00000000000E+00 0. -1.
         -1   -1    0    0    0  501 -0.00000000000E+00 -0.00000000000E+00 -0.55997169607E+03  0.55997169607E+03  0.00000000000E+00 0.  1.
         24    2    1    2    0    0  0.18415935414E+03 -0.18854064080E+03  0.86331985527E+03  0.90671292412E+03  0.85702469686E+02 0.  0.
        254    2    1    2    0    0 -0.18415935414E+03  0.18854064080E+03 -0.13160958155E+03  0.94494074174E+03  0.89784724898E+03 0.  0.
         23    2    4    4    0    0 -0.26394539623E+03  0.32119774834E+03 -0.42462461003E+03  0.60062799372E+03  0.87251141319E+02 0.  0.
         23    2    4    4    0    0  0.79786042098E+02 -0.13265710755E+03  0.29301502848E+03  0.34431274803E+03  0.93433082161E+02 0.  0.
          2    1    3    3  502    0  0.16142466556E+03 -0.18661886727E+03  0.83294045223E+03  0.86871993256E+03  0.00000000000E+00 0. -1.
         -1    1    3    3    0  502  0.22734688576E+02 -0.19217735224E+01  0.30379403045E+02  0.37992991558E+02  0.00000000000E+00 0.  1.
         13    1    5    5    0    0 -0.24088956221E+02  0.57572380057E+02 -0.10365026232E+03  0.12098856820E+03  0.00000000000E+00 0.  1.
        -13    1    5    5    0    0 -0.23985644001E+03  0.26362536829E+03 -0.32097434771E+03  0.47963942551E+03  0.00000000000E+00 0. -1.
          1    1    6    6  503    0  0.45442082708E+02 -0.13639968476E+03  0.25650309930E+03  0.29404709968E+03  0.00000000000E+00 0. -1.
         -1    1    6    6    0  503  0.34343959390E+02  0.37425772110E+01  0.36511929184E+02  0.50265648345E+02  0.00000000000E+00 0.  1.
<mgrwt>
<rscale>  0 0.17009472E+04</rscale>
<asrwt>0</asrwt>
<pdfrwt beam="1">  1        2 0.19872030E+00 0.17009472E+04</pdfrwt>
<pdfrwt beam="2">  1       -1 0.86149492E-01 0.17009472E+04</pdfrwt>
<totfact> 0.24112949E+01</totfact>
</mgrwt>
</event>
<event>
12    7  0.1735955E-007  0.2090277E+04  0.7818608E-02  0.8565539E-01
          2   -1    0    0  501    0  0.00000000000E+00  0.00000000000E+00  0.32521708128E+04  0.32521708128E+04  0.00000000000E+00 0. -1.
         -1   -1    0    0    0  501 -0.00000000000E+00 -0.00000000000E+00 -0.33587229248E+03  0.33587229248E+03  0.00000000000E+00 0.  1.
         24    2    1    2    0    0  0.13740623209E+02  0.72881529543E+03  0.44039223600E+03  0.85486514418E+03  0.74084773223E+02 0.  0.
        254    2    1    2    0    0 -0.13740623209E+02 -0.72881529543E+03  0.24759062844E+04  0.27331779611E+04  0.89932713665E+03 0.  0.
         23    2    4    4    0    0 -0.20840038518E+03 -0.11277626139E+02  0.11048510014E+03  0.25203771240E+03  0.88080336768E+02 0.  0.
         23    2    4    4    0    0  0.19465976197E+03 -0.71753766929E+03  0.23654211842E+04  0.24811402487E+04  0.89926777833E+02 0.  0.
          4    1    3    3  502    0  0.26613389819E+02  0.17347207583E+03  0.81341438634E+02  0.19343542398E+03  0.00000000000E+00 0. -1.
         -3    1    3    3    0  502 -0.12872766610E+02  0.55534321960E+03  0.35905079736E+03  0.66142972020E+03  0.00000000000E+00 0.  1.
         13    1    5    5    0    0 -0.45324076854E+02 -0.17238477551E+02 -0.95966262349E+01  0.49432097730E+02  0.00000000000E+00 0.  1.
        -13    1    5    5    0    0 -0.16307630832E+03  0.59608514119E+01  0.12008172638E+03  0.20260561467E+03  0.00000000000E+00 0. -1.
          4    1    6    6  503    0  0.16301700847E+03 -0.54669705613E+03  0.16881532102E+04  0.17819409298E+04  0.00000000000E+00 0. -1.
         -4    1    6    6    0  503  0.31642753497E+02 -0.17084061316E+03  0.67726797399E+03  0.69919931890E+03  0.00000000000E+00 0.  1.
<mgrwt>
<rscale>  0 0.20902766E+04</rscale>
<asrwt>0</asrwt>
<pdfrwt beam="1">  1        2 0.50033395E+00 0.20902766E+04</pdfrwt>
<pdfrwt beam="2">  1       -1 0.51672662E-01 0.20902766E+04</pdfrwt>
<totfact> 0.47553408E+00</totfact>
</mgrwt>
</event>
<event>
12    7  0.1735955E-007  0.1694799E+04  0.7818608E-02  0.8764336E-01
          2   -1    0    0  501    0  0.00000000000E+00  0.00000000000E+00  0.12791617312E+04  0.12791617312E+04  0.00000000000E+00 0. -1.
         -1   -1    0    0    0  501 -0.00000000000E+00 -0.00000000000E+00 -0.56137249775E+03  0.56137249775E+03  0.00000000000E+00 0.  1.
         24    2    1    2    0    0  0.44593748622E+03  0.25757973374E+03 -0.83731748002E+02  0.52799268904E+03  0.80979708604E+02 0.  0.
        254    2    1    2    0    0 -0.44593748622E+03 -0.25757973374E+03  0.80152098141E+03  0.13125415399E+04  0.90284098787E+03 0.  0.
         23    2    4    4    0    0 -0.17925418244E+03  0.57944591653E+02  0.86012566074E+03  0.88545365418E+03  0.93393703319E+02 0.  0.
         23    2    4    4    0    0 -0.26668330378E+03 -0.31552432539E+03 -0.58604679323E+02  0.42708788569E+03  0.91071231633E+02 0.  0.
          2    1    3    3  502    0  0.18280059618E+03  0.62474782576E+02 -0.19348821500E+02  0.19414822511E+03  0.00000000000E+00 0. -1.
         -1    1    3    3    0  502  0.26313689005E+03  0.19510495116E+03 -0.64382926502E+02  0.33384446393E+03  0.00000000000E+00 0.  1.
         13    1    5    5    0    0 -0.12992830032E+02 -0.48089016190E+01  0.10345888069E+02  0.17290938868E+02  0.00000000000E+00 0.  1.
        -13    1    5    5    0    0 -0.16626135241E+03  0.62753493272E+02  0.84977977267E+03  0.86816271531E+03  0.00000000000E+00 0. -1.
          2    1    6    6  503    0 -0.26124503902E+03 -0.30459935425E+03 -0.73364453251E+02  0.40793636761E+03  0.00000000000E+00 0. -1.
         -2    1    6    6    0  503 -0.54382647670E+01 -0.10924971143E+02  0.14759773929E+02  0.19151518075E+02  0.00000000000E+00 0.  1.
<mgrwt>
<rscale>  0 0.16947994E+04</rscale>
<asrwt>0</asrwt>
<pdfrwt beam="1">  1        2 0.19679411E+00 0.16947994E+04</pdfrwt>
<pdfrwt beam="2">  1       -1 0.86365000E-01 0.16947994E+04</pdfrwt>
<totfact> 0.24402940E+01</totfact>
</mgrwt>
</event>
<event>
12    7  0.1735955E-007  0.1723340E+04  0.7818608E-02  0.8748164E-01
         -1   -1    0    0    0  501 -0.00000000000E+00  0.00000000000E+00  0.78164247214E+03  0.78164247214E+03  0.00000000000E+00 0.  1.
          2   -1    0    0  501    0  0.00000000000E+00 -0.00000000000E+00 -0.94989095818E+03  0.94989095818E+03  0.00000000000E+00 0. -1.
         24    2    1    2    0    0 -0.32102616927E+03  0.51855018680E+03  0.50286591517E+02  0.61680326021E+03  0.77236150450E+02 0.  0.
        254    2    1    2    0    0  0.32102616927E+03 -0.51855018680E+03 -0.21853507755E+03  0.11147301701E+04  0.90714589479E+03 0.  0.
         23    2    4    4    0    0 -0.27373557784E+03 -0.10153267758E+03 -0.22814910687E+03  0.38257274774E+03  0.95235713632E+02 0.  0.
         23    2    4    4    0    0  0.59476174711E+03 -0.41701750922E+03  0.96140293209E+01  0.73215742237E+03  0.91197164130E+02 0.  0.
          4    1    3    3  502    0 -0.19378003837E+03  0.33278031306E+03 -0.42887402056E+01  0.38511275404E+03  0.00000000000E+00 0. -1.
         -3    1    3    3    0  502 -0.12724613090E+03  0.18576987374E+03  0.54575331722E+02  0.23169050617E+03  0.00000000000E+00 0.  1.
         13    1    5    5    0    0 -0.15825523659E+03 -0.21808621145E+02 -0.16171346921E+03  0.22731384029E+03  0.00000000000E+00 0. -1.
        -13    1    5    5    0    0 -0.11548034125E+03 -0.79724056430E+02 -0.66435637668E+02  0.15525890745E+03  0.00000000000E+00 0.  1.
          3    1    6    6  503    0  0.42581988432E+03 -0.34007003966E+03  0.27598654523E+02  0.54564813890E+03  0.00000000000E+00 0. -1.
         -3    1    6    6    0  503  0.16894186279E+03 -0.76947469563E+02 -0.17984625202E+02  0.18650928347E+03  0.00000000000E+00 0.  1.
<mgrwt>
<rscale>  0 0.17233399E+04</rscale>
<asrwt>0</asrwt>
<pdfrwt beam="1">  1        2 0.14613707E+00 0.17233399E+04</pdfrwt>
<pdfrwt beam="2">  1       -1 0.12025269E+00 0.17233399E+04</pdfrwt>
<totfact> 0.18128702E+01</totfact>
</mgrwt>
</event>
